  -2.600000      0.0000000E+00
  -2.590000      0.0000000E+00
  -2.580000      0.0000000E+00
  -2.570000      0.0000000E+00
  -2.560000      0.0000000E+00
  -2.550000      0.0000000E+00
  -2.540000      0.0000000E+00
  -2.530000      0.0000000E+00
  -2.520000      0.0000000E+00
  -2.510000      0.0000000E+00
  -2.500000      0.0000000E+00
  -2.490000      0.0000000E+00
  -2.480000      0.0000000E+00
  -2.470000      0.0000000E+00
  -2.460000      0.0000000E+00
  -2.450000      0.0000000E+00
  -2.440000      0.0000000E+00
  -2.430000      0.0000000E+00
  -2.420000      0.0000000E+00
  -2.410000      0.0000000E+00
  -2.400000      0.0000000E+00
  -2.390000      0.0000000E+00
  -2.380000      0.0000000E+00
  -2.370000      0.0000000E+00
  -2.360000      0.0000000E+00
  -2.350000      0.0000000E+00
  -2.340000      0.0000000E+00
  -2.330000      0.0000000E+00
  -2.320000      0.0000000E+00
  -2.310000      0.0000000E+00
  -2.300000      0.0000000E+00
  -2.290000      0.0000000E+00
  -2.280000      0.0000000E+00
  -2.270000      0.0000000E+00
  -2.260000      0.0000000E+00
  -2.250000      0.0000000E+00
  -2.240000      0.0000000E+00
  -2.230000      0.0000000E+00
  -2.220000      0.0000000E+00
  -2.210000      0.0000000E+00
  -2.200000      0.0000000E+00
  -2.190000      0.0000000E+00
  -2.180000      0.0000000E+00
  -2.170000      0.0000000E+00
  -2.160000      0.0000000E+00
  -2.150000      0.0000000E+00
  -2.140000      0.0000000E+00
  -2.130000      0.0000000E+00
  -2.120000      0.0000000E+00
  -2.110000      0.0000000E+00
  -2.100000      0.0000000E+00
  -2.090000      0.0000000E+00
  -2.080000      0.0000000E+00
  -2.070000      0.0000000E+00
  -2.060000      0.0000000E+00
  -2.050000      0.0000000E+00
  -2.040000      0.0000000E+00
  -2.030000      0.0000000E+00
  -2.020000      0.0000000E+00
  -2.010000      0.0000000E+00
  -2.000000      0.0000000E+00
  -1.990000      0.0000000E+00
  -1.980000      0.0000000E+00
  -1.970000      0.0000000E+00
  -1.960000      0.0000000E+00
  -1.950000      0.0000000E+00
  -1.940000      0.0000000E+00
  -1.930000      0.0000000E+00
  -1.920000      0.0000000E+00
  -1.910000      0.0000000E+00
  -1.900000      0.0000000E+00
  -1.890000      0.0000000E+00
  -1.880000      0.0000000E+00
  -1.870000      0.0000000E+00
  -1.860000      0.0000000E+00
  -1.850000      0.0000000E+00
  -1.840000      0.0000000E+00
  -1.830000      0.0000000E+00
  -1.820000      0.0000000E+00
  -1.810000      0.0000000E+00
  -1.800000      0.0000000E+00
  -1.790000      0.0000000E+00
  -1.780000      0.0000000E+00
  -1.770000      0.0000000E+00
  -1.760000      0.0000000E+00
  -1.750000      0.0000000E+00
  -1.740000      0.0000000E+00
  -1.730000      0.0000000E+00
  -1.720000      0.0000000E+00
  -1.710000      0.0000000E+00
  -1.700000      0.0000000E+00
  -1.690000      0.0000000E+00
  -1.680000      0.0000000E+00
  -1.670000      0.0000000E+00
  -1.660000      0.0000000E+00
  -1.650000      0.0000000E+00
  -1.640000      0.0000000E+00
  -1.630000      0.0000000E+00
  -1.620000      0.0000000E+00
  -1.610000      0.0000000E+00
  -1.600000      0.0000000E+00
  -1.590000      0.0000000E+00
  -1.580000      0.0000000E+00
  -1.570000      0.0000000E+00
  -1.560000      0.0000000E+00
  -1.550000      0.0000000E+00
  -1.540000      0.0000000E+00
  -1.530000      0.0000000E+00
  -1.520000      0.0000000E+00
  -1.510000      0.0000000E+00
  -1.500000      0.0000000E+00
  -1.490000      0.0000000E+00
  -1.480000      0.0000000E+00
  -1.470000      0.0000000E+00
  -1.460000      0.0000000E+00
  -1.450000      0.0000000E+00
  -1.440000      0.0000000E+00
  -1.430000      0.0000000E+00
  -1.420000      0.0000000E+00
  -1.410000      0.0000000E+00
  -1.400000      0.0000000E+00
  -1.390000      0.0000000E+00
  -1.380000      0.0000000E+00
  -1.370000      0.0000000E+00
  -1.360000      0.0000000E+00
  -1.350000      0.0000000E+00
  -1.340000      0.0000000E+00
  -1.330000      0.0000000E+00
  -1.320000      0.0000000E+00
  -1.310000      0.0000000E+00
  -1.300000      0.0000000E+00
  -1.290000      0.0000000E+00
  -1.280000      0.0000000E+00
  -1.270000      0.0000000E+00
  -1.260000      0.0000000E+00
  -1.250000      0.0000000E+00
  -1.240000      0.0000000E+00
  -1.230000      0.0000000E+00
  -1.220000      0.0000000E+00
  -1.210000      0.0000000E+00
  -1.200000      0.0000000E+00
  -1.190000      0.0000000E+00
  -1.180000      0.0000000E+00
  -1.170000      0.0000000E+00
  -1.160000      0.0000000E+00
  -1.150000      0.0000000E+00
  -1.140000      0.0000000E+00
  -1.130000      0.0000000E+00
  -1.120000      0.0000000E+00
  -1.110000      0.0000000E+00
  -1.100000      0.0000000E+00
  -1.090000      0.0000000E+00
  -1.080000      0.0000000E+00
  -1.070000      0.0000000E+00
  -1.060000      0.0000000E+00
  -1.050000      0.0000000E+00
  -1.040000      0.0000000E+00
  -1.030000      0.0000000E+00
  -1.020000      0.0000000E+00
  -1.010000      0.0000000E+00
  -1.000000      0.0000000E+00
 -0.9900000      0.0000000E+00
 -0.9800000      0.0000000E+00
 -0.9700000      0.0000000E+00
 -0.9600000      0.0000000E+00
 -0.9500000      0.0000000E+00
 -0.9400000      0.0000000E+00
 -0.9300000      0.0000000E+00
 -0.9200000      0.0000000E+00
 -0.9100000      0.0000000E+00
 -0.9000000      0.0000000E+00
 -0.8900000      0.0000000E+00
 -0.8800000      0.0000000E+00
 -0.8700000      0.0000000E+00
 -0.8600000      0.0000000E+00
 -0.8500000      0.0000000E+00
 -0.8400000      0.0000000E+00
 -0.8300000      0.0000000E+00
 -0.8200000      0.0000000E+00
 -0.8100000      0.0000000E+00
 -0.8000000      0.0000000E+00
 -0.7900000      0.0000000E+00
 -0.7800000      0.0000000E+00
 -0.7700000      0.0000000E+00
 -0.7600000      0.0000000E+00
 -0.7500000      0.0000000E+00
 -0.7400000      0.0000000E+00
 -0.7300000      0.0000000E+00
 -0.7200000      0.0000000E+00
 -0.7100000      0.0000000E+00
 -0.7000000      0.0000000E+00
 -0.6900000      0.0000000E+00
 -0.6800000      0.0000000E+00
 -0.6700000      0.0000000E+00
 -0.6600000      0.0000000E+00
 -0.6500000      0.0000000E+00
 -0.6400000      0.0000000E+00
 -0.6300000      0.0000000E+00
 -0.6200000      0.0000000E+00
 -0.6100000      0.0000000E+00
 -0.6000000      0.0000000E+00
 -0.5900000      0.0000000E+00
 -0.5800000      0.0000000E+00
 -0.5700000      0.0000000E+00
 -0.5600000      0.0000000E+00
 -0.5500000      0.0000000E+00
 -0.5400000      0.0000000E+00
 -0.5300000      0.0000000E+00
 -0.5200000      0.0000000E+00
 -0.5100000      0.0000000E+00
 -0.5000000      0.0000000E+00
 -0.4900000      0.0000000E+00
 -0.4800000      0.0000000E+00
 -0.4700000      0.0000000E+00
 -0.4600000      0.0000000E+00
 -0.4500000      0.0000000E+00
 -0.4400000      0.0000000E+00
 -0.4300000      0.0000000E+00
 -0.4200000      0.0000000E+00
 -0.4100000      0.0000000E+00
 -0.4000000      0.0000000E+00
 -0.3900000      0.0000000E+00
 -0.3800000      0.0000000E+00
 -0.3700000      0.0000000E+00
 -0.3600000      0.0000000E+00
 -0.3500000      0.0000000E+00
 -0.3400000      0.0000000E+00
 -0.3300000      0.0000000E+00
 -0.3200000      0.0000000E+00
 -0.3100000      0.0000000E+00
 -0.3000000      0.0000000E+00
 -0.2900000      0.0000000E+00
 -0.2800000      0.0000000E+00
 -0.2700000      0.0000000E+00
 -0.2600000      0.0000000E+00
 -0.2500000      0.0000000E+00
 -0.2400000      0.0000000E+00
 -0.2300000      0.0000000E+00
 -0.2200000      0.0000000E+00
 -0.2100000      0.0000000E+00
 -0.2000000      0.0000000E+00
 -0.1900000      0.0000000E+00
 -0.1800000      0.0000000E+00
 -0.1700000      0.0000000E+00
 -0.1600000      0.0000000E+00
 -0.1500000      0.0000000E+00
 -0.1400000      0.0000000E+00
 -0.1300000      0.0000000E+00
 -0.1200000      0.0000000E+00
 -0.1100000      0.0000000E+00
 -0.1000000      0.0000000E+00
 -9.0000004E-02  0.0000000E+00
 -7.9999998E-02  0.0000000E+00
 -7.0000000E-02  0.0000000E+00
 -5.9999999E-02  0.0000000E+00
 -5.0000001E-02  0.0000000E+00
 -3.9999999E-02  0.0000000E+00
 -2.9999999E-02  0.0000000E+00
 -2.0000000E-02  0.0000000E+00
 -9.9999998E-03  0.0000000E+00
 -3.4694470E-17  0.0000000E+00
  9.9999998E-03  0.0000000E+00
  2.0000000E-02  0.0000000E+00
  2.9999999E-02  0.0000000E+00
  3.9999999E-02  0.0000000E+00
  5.0000001E-02  0.0000000E+00
  5.9999999E-02  0.0000000E+00
  7.0000000E-02  0.0000000E+00
  7.9999998E-02  0.0000000E+00
  9.0000004E-02  0.0000000E+00
  0.1000000      0.0000000E+00
  0.1100000      0.0000000E+00
  0.1200000      0.0000000E+00
  0.1300000      0.0000000E+00
  0.1400000      0.0000000E+00
  0.1500000      0.0000000E+00
  0.1600000      0.0000000E+00
  0.1700000      0.0000000E+00
  0.1800000      0.0000000E+00
  0.1900000      0.0000000E+00
  0.2000000      0.0000000E+00
  0.2100000      0.0000000E+00
  0.2200000      0.0000000E+00
  0.2300000      0.0000000E+00
  0.2400000      0.0000000E+00
  0.2500000      0.0000000E+00
  0.2600000      0.0000000E+00
  0.2700000      0.0000000E+00
  0.2800000      0.0000000E+00
  0.2900000      0.0000000E+00
  0.3000000      0.0000000E+00
  0.3100000      0.0000000E+00
  0.3200000      0.0000000E+00
  0.3300000      0.0000000E+00
  0.3400000      0.0000000E+00
  0.3500000      0.0000000E+00
  0.3600000      0.0000000E+00
  0.3700000      0.0000000E+00
  0.3800000      0.0000000E+00
  0.3900000      0.0000000E+00
  0.4000000      0.0000000E+00
  0.4100000      0.0000000E+00
  0.4200000      0.0000000E+00
  0.4300000      0.0000000E+00
  0.4400000      0.0000000E+00
  0.4500000      0.0000000E+00
  0.4600000      0.0000000E+00
  0.4700000      0.0000000E+00
  0.4800000      0.0000000E+00
  0.4900000      0.0000000E+00
  0.5000000      0.0000000E+00
  0.5100000      0.0000000E+00
  0.5200000      0.0000000E+00
  0.5300000      0.0000000E+00
  0.5400000      0.0000000E+00
  0.5500000      0.0000000E+00
  0.5600000      0.0000000E+00
  0.5700000      0.0000000E+00
  0.5800000      0.0000000E+00
  0.5900000      0.0000000E+00
  0.6000000      0.0000000E+00
  0.6100000      0.0000000E+00
  0.6200000      0.0000000E+00
  0.6300000      0.0000000E+00
  0.6400000      0.0000000E+00
  0.6500000      0.0000000E+00
  0.6600000      0.0000000E+00
  0.6700000      0.0000000E+00
  0.6800000      0.0000000E+00
  0.6900000      0.0000000E+00
  0.7000000      0.0000000E+00
  0.7100000      0.0000000E+00
  0.7200000      0.0000000E+00
  0.7300000      0.0000000E+00
  0.7400000      0.0000000E+00
  0.7500000      0.0000000E+00
  0.7600000      0.0000000E+00
  0.7700000      0.0000000E+00
  0.7800000      0.0000000E+00
  0.7900000      0.0000000E+00
  0.8000000      0.0000000E+00
  0.8100000      0.0000000E+00
  0.8200000      0.0000000E+00
  0.8300000      0.0000000E+00
  0.8400000      0.0000000E+00
  0.8500000      0.0000000E+00
  0.8600000      0.0000000E+00
  0.8700000      0.0000000E+00
  0.8800000      0.0000000E+00
  0.8900000      0.0000000E+00
  0.9000000      0.0000000E+00
  0.9100000      0.0000000E+00
  0.9200000      0.0000000E+00
  0.9300000      0.0000000E+00
  0.9400000      0.0000000E+00
  0.9500000      0.0000000E+00
  0.9600000      0.0000000E+00
  0.9700000      0.0000000E+00
  0.9800000      0.0000000E+00
  0.9900000      0.0000000E+00
   1.000000      0.0000000E+00
   1.010000      0.0000000E+00
   1.020000      0.0000000E+00
   1.030000      0.0000000E+00
   1.040000      0.0000000E+00
   1.050000      0.0000000E+00
   1.060000      0.0000000E+00
   1.070000      0.0000000E+00
   1.080000      0.0000000E+00
   1.090000      0.0000000E+00
   1.100000      0.0000000E+00
   1.110000      0.0000000E+00
   1.120000      0.0000000E+00
   1.130000      0.0000000E+00
   1.140000      0.0000000E+00
   1.150000      0.0000000E+00
   1.160000      0.0000000E+00
   1.170000      0.0000000E+00
   1.180000      0.0000000E+00
   1.190000      0.0000000E+00
   1.200000      0.0000000E+00
   1.210000      0.0000000E+00
   1.220000      0.0000000E+00
   1.230000      0.0000000E+00
   1.240000      0.0000000E+00
   1.250000      0.0000000E+00
   1.260000      0.0000000E+00
   1.270000      0.0000000E+00
   1.280000      0.0000000E+00
   1.290000      0.0000000E+00
   1.300000      0.0000000E+00
   1.310000      0.0000000E+00
   1.320000      0.0000000E+00
   1.330000      0.0000000E+00
   1.340000      0.0000000E+00
   1.350000      0.0000000E+00
   1.360000      0.0000000E+00
   1.370000      0.0000000E+00
   1.380000      0.0000000E+00
   1.390000      0.0000000E+00
   1.400000      0.0000000E+00
   1.410000      0.0000000E+00
   1.420000      0.0000000E+00
   1.430000      0.0000000E+00
   1.440000      0.0000000E+00
   1.450000      0.0000000E+00
   1.460000      0.0000000E+00
   1.470000      0.0000000E+00
   1.480000      0.0000000E+00
   1.490000      0.0000000E+00
   1.500000      0.0000000E+00
   1.510000      0.0000000E+00
   1.520000      0.0000000E+00
   1.530000      0.0000000E+00
   1.540000      0.0000000E+00
   1.550000      0.0000000E+00
   1.560000      0.0000000E+00
   1.570000      0.0000000E+00
   1.580000      0.0000000E+00
   1.590000      0.0000000E+00
   1.600000      0.0000000E+00
   1.610000      0.0000000E+00
   1.620000      0.0000000E+00
   1.630000      0.0000000E+00
   1.640000      0.0000000E+00
   1.650000      0.0000000E+00
   1.660000      0.0000000E+00
   1.670000      0.0000000E+00
   1.680000      0.0000000E+00
   1.690000      0.0000000E+00
   1.700000      0.0000000E+00
   1.710000      0.0000000E+00
   1.720000      0.0000000E+00
   1.730000      0.0000000E+00
   1.740000      0.0000000E+00
   1.750000      0.0000000E+00
   1.760000      0.0000000E+00
   1.770000      0.0000000E+00
   1.780000      0.0000000E+00
   1.790000      0.0000000E+00
   1.800000      0.0000000E+00
   1.810000      0.0000000E+00
   1.820000      0.0000000E+00
   1.830000      0.0000000E+00
   1.840000      0.0000000E+00
   1.850000      0.0000000E+00
   1.860000      0.0000000E+00
   1.870000      0.0000000E+00
   1.880000      0.0000000E+00
   1.890000      0.0000000E+00
   1.900000      0.0000000E+00
   1.910000      0.0000000E+00
   1.920000      0.0000000E+00
   1.930000      0.0000000E+00
   1.940000      0.0000000E+00
   1.950000      0.0000000E+00
   1.960000      0.0000000E+00
   1.970000      0.0000000E+00
   1.980000      0.0000000E+00
   1.990000      0.0000000E+00
   2.000000      0.0000000E+00
   2.010000      0.0000000E+00
   2.020000      0.0000000E+00
   2.030000      0.0000000E+00
   2.040000      0.0000000E+00
   2.050000      0.0000000E+00
   2.060000      0.0000000E+00
   2.070000      0.0000000E+00
   2.080000      0.0000000E+00
   2.090000      0.0000000E+00
   2.100000      0.0000000E+00
   2.110000      0.0000000E+00
   2.120000      0.0000000E+00
   2.130000      0.0000000E+00
   2.140000      0.0000000E+00
   2.150000      0.0000000E+00
   2.160000      0.0000000E+00
   2.170000      0.0000000E+00
   2.180000      0.0000000E+00
   2.190000      1.2124102E-38
   2.200000      1.2854946E-38
   2.210000      1.3695855E-38
   2.220000      1.4588219E-38
   2.230000      1.5449503E-38
   2.240000      1.5963193E-38
   2.250000      1.6172156E-38
   2.260000      1.6326310E-38
   2.270000      1.6396286E-38
   2.280000      1.6412488E-38
   2.290000      1.6359226E-38
   2.300000      1.6095792E-38
   2.310000      1.5599980E-38
   2.320000      1.5540868E-38
   2.330000      1.5350441E-38
   2.340000      1.4177346E-38
   2.350000      0.0000000E+00
   2.360000      0.0000000E+00
   2.370000      0.0000000E+00
   2.380000     -1.1874212E-38
   2.390000     -2.0439365E-38
   2.400000     -2.9011758E-38
   2.410000     -4.1000331E-38
   2.420000     -5.4231142E-38
   2.430000     -6.6464242E-38
   2.440000     -8.0283719E-38
   2.450000     -9.6962522E-38
   2.460000     -1.0881041E-37
   2.470000     -1.1303959E-37
   2.480000     -1.1555757E-37
   2.490000     -1.1686252E-37
   2.500000     -1.1751394E-37
   2.510000     -1.1878442E-37
   2.520000     -1.2128255E-37
   2.530000     -1.1947827E-37
   2.540000     -1.1242233E-37
   2.550000     -1.0254811E-37
   2.560000     -9.1809354E-38
   2.570000     -8.0909561E-38
   2.580000     -6.3440004E-38
   2.590000     -3.5214162E-38
   2.600000      0.0000000E+00
   2.610000      1.8720203E-38
   2.620000      4.3513325E-38
   2.630000      6.8130436E-38
   2.640000      8.8164447E-38
   2.650000      1.0073041E-37
   2.660000      1.0959540E-37
   2.670000      1.2094079E-37
   2.680000      1.3445823E-37
   2.690000      1.4652564E-37
   2.700000      1.6224348E-37
   2.710000      1.8339689E-37
   2.720000      2.0590700E-37
   2.730000      2.2916553E-37
   2.740000      2.5343557E-37
   2.750000      2.8626073E-37
   2.760000      3.3017249E-37
   2.770000      3.8007183E-37
   2.780000      4.2422255E-37
   2.790000      4.5274998E-37
   2.800000      4.7417922E-37
   2.810000      4.9931475E-37
   2.820000      5.2696190E-37
   2.830000      5.5274014E-37
   2.840000      5.7489698E-37
   2.850000      5.7022260E-37
   2.860000      5.2746390E-37
   2.870000      4.3832432E-37
   2.880000      3.2523171E-37
   2.890000      2.1298199E-37
   2.900000      7.2665991E-38
   2.910000     -1.0078922E-37
   2.920000     -3.0282282E-37
   2.930000     -5.3662175E-37
   2.940000     -7.9822785E-37
   2.950000     -1.0771252E-36
   2.960000     -1.3731199E-36
   2.970000     -1.6981147E-36
   2.980000     -2.0705615E-36
   2.990000     -2.5247440E-36
   3.000000     -3.0215191E-36
   3.010000     -3.5384450E-36
   3.020000     -4.0987054E-36
   3.030000     -4.6990179E-36
   3.040000     -5.3536776E-36
   3.050000     -6.0712547E-36
   3.060000     -6.8441006E-36
   3.070000     -7.6475730E-36
   3.080000     -8.4516444E-36
   3.090000     -9.2678539E-36
   3.100000     -1.0151603E-35
   3.110000     -1.1038786E-35
   3.120000     -1.1916633E-35
   3.130000     -1.2830076E-35
   3.140000     -1.3798115E-35
   3.150000     -1.4781171E-35
   3.160000     -1.5739598E-35
   3.170000     -1.6685758E-35
   3.180000     -1.7570986E-35
   3.190000     -1.8503491E-35
   3.200000     -1.9490329E-35
   3.210000     -2.0317424E-35
   3.220000     -2.0918173E-35
   3.230000     -2.1460331E-35
   3.240000     -2.1788319E-35
   3.250000     -2.1563151E-35
   3.260000     -2.0862831E-35
   3.270000     -1.9780902E-35
   3.280000     -1.8404941E-35
   3.290000     -1.7003981E-35
   3.300000     -1.5537579E-35
   3.310000     -1.3710720E-35
   3.320000     -1.1441787E-35
   3.330000     -9.0706271E-36
   3.340000     -6.9320460E-36
   3.350000     -4.8873369E-36
   3.360000     -2.6400006E-36
   3.370000     -7.6489938E-38
   3.380000      2.5184773E-36
   3.390000      4.9671675E-36
   3.400000      7.4886961E-36
   3.410000      1.0427158E-35
   3.420000      1.4055777E-35
   3.430000      1.7998008E-35
   3.440000      2.1826845E-35
   3.450000      2.5781111E-35
   3.460000      3.0158037E-35
   3.470000      3.4980944E-35
   3.480000      4.0235458E-35
   3.490000      4.5939223E-35
   3.500000      5.2166809E-35
   3.510000      5.8958836E-35
   3.520000      6.6023029E-35
   3.530000      7.3159675E-35
   3.540000      8.0572797E-35
   3.550000      8.8173963E-35
   3.560000      9.5688460E-35
   3.570000      1.0290585E-34
   3.580000      1.0993556E-34
   3.590000      1.1679417E-34
   3.600000      1.2329450E-34
   3.610000      1.2955774E-34
   3.620000      1.3562186E-34
   3.630000      1.4126069E-34
   3.640000      1.4634615E-34
   3.650000      1.5077405E-34
   3.660000      1.5474700E-34
   3.670000      1.5846155E-34
   3.680000      1.6113108E-34
   3.690000      1.6262210E-34
   3.700000      1.6323956E-34
   3.710000      1.6274929E-34
   3.720000      1.6140535E-34
   3.730000      1.5930276E-34
   3.740000      1.5514429E-34
   3.750000      1.4782838E-34
   3.760000      1.3725992E-34
   3.770000      1.2406631E-34
   3.780000      1.0945843E-34
   3.790000      9.3950686E-35
   3.800000      7.7910411E-35
   3.810000      6.1419316E-35
   3.820000      4.4301882E-35
   3.830000      2.6641974E-35
   3.840000      8.0333194E-36
   3.850000     -1.1514355E-35
   3.860000     -3.1684317E-35
   3.870000     -5.2933848E-35
   3.880000     -7.5586502E-35
   3.890000     -9.9454950E-35
   3.900000     -1.2479893E-34
   3.910000     -1.5142331E-34
   3.920000     -1.7931094E-34
   3.930000     -2.0826539E-34
   3.940000     -2.3791898E-34
   3.950000     -2.6820394E-34
   3.960000     -2.9940755E-34
   3.970000     -3.3234295E-34
   3.980000     -3.6760032E-34
   3.990000     -4.0364869E-34
   4.000000     -4.3906110E-34
   4.010000     -4.7225417E-34
   4.020000     -5.0246189E-34
   4.030000     -5.3198462E-34
   4.040000     -5.6034397E-34
   4.050000     -5.8662357E-34
   4.060000     -6.1092857E-34
   4.070000     -6.3293910E-34
   4.080000     -6.4969013E-34
   4.090000     -6.6055371E-34
   4.100000     -6.6726124E-34
   4.110000     -6.6840992E-34
   4.120000     -6.6254223E-34
   4.130000     -6.4980621E-34
   4.140000     -6.3397266E-34
   4.150000     -6.1446143E-34
   4.160000     -5.8326496E-34
   4.170000     -5.3830988E-34
   4.180000     -4.8600456E-34
   4.190000     -4.2657505E-34
   4.200000     -3.5910700E-34
   4.210000     -2.8454136E-34
   4.220000     -2.0048368E-34
   4.230000     -1.0669549E-34
   4.240000     -3.5948402E-36
   4.250000      1.0990086E-34
   4.260000      2.3494307E-34
   4.270000      3.6924668E-34
   4.280000      5.1320825E-34
   4.290000      6.6957228E-34
   4.300000      8.3524365E-34
   4.310000      1.0084711E-33
   4.320000      1.1904056E-33
   4.330000      1.3809887E-33
   4.340000      1.5806153E-33
   4.350000      1.7906943E-33
   4.360000      2.0093765E-33
   4.370000      2.2343426E-33
   4.380000      2.4629538E-33
   4.390000      2.6951095E-33
   4.400000      2.9348896E-33
   4.410000      3.1766262E-33
   4.420000      3.4173347E-33
   4.430000      3.6587982E-33
   4.440000      3.8990229E-33
   4.450000      4.1355478E-33
   4.460000      4.3644728E-33
   4.470000      4.5830324E-33
   4.480000      4.7890881E-33
   4.490000      4.9796141E-33
   4.500000      5.1509016E-33
   4.510000      5.2995837E-33
   4.520000      5.4221785E-33
   4.530000      5.5146308E-33
   4.540000      5.5730441E-33
   4.550000      5.5939117E-33
   4.560000      5.5734250E-33
   4.570000      5.5087611E-33
   4.580000      5.3934759E-33
   4.590000      5.2212248E-33
   4.600000      4.9914870E-33
   4.610000      4.7001671E-33
   4.620000      4.3417130E-33
   4.630000      3.9130668E-33
   4.640000      3.4100878E-33
   4.650000      2.8285952E-33
   4.660000      2.1651190E-33
   4.670000      1.4162305E-33
   4.680000      5.7810647E-34
   4.690000     -3.5318182E-34
   4.700000     -1.3803114E-33
   4.710000     -2.5068005E-33
   4.720000     -3.7346558E-33
   4.730000     -5.0652312E-33
   4.740000     -6.5015983E-33
   4.750000     -8.0461993E-33
   4.760000     -9.6994050E-33
   4.770000     -1.1461226E-32
   4.780000     -1.3332555E-32
   4.790000     -1.5312858E-32
   4.800000     -1.7400885E-32
   4.810000     -1.9594628E-32
   4.820000     -2.1891146E-32
   4.830000     -2.4286333E-32
   4.840000     -2.6775140E-32
   4.850000     -2.9351409E-32
   4.860000     -3.2007530E-32
   4.870000     -3.4734665E-32
   4.880000     -3.7522638E-32
   4.890000     -4.0359802E-32
   4.900000     -4.3233048E-32
   4.910000     -4.6127753E-32
   4.920000     -4.9027709E-32
   4.930000     -5.1915232E-32
   4.940000     -5.4770819E-32
   4.950000     -5.7575496E-32
   4.960000     -6.0304412E-32
   4.970000     -6.2930901E-32
   4.980000     -6.5431060E-32
   4.990000     -6.7777118E-32
   5.000000     -6.9939651E-32
   5.010000     -7.1887510E-32
   5.020000     -7.3587933E-32
   5.030000     -7.5006555E-32
   5.040000     -7.6107358E-32
   5.050000     -7.6852821E-32
   5.060000     -7.7203971E-32
   5.070000     -7.7120276E-32
   5.080000     -7.6560118E-32
   5.090000     -7.5480696E-32
   5.100000     -7.3837684E-32
   5.110000     -7.1585825E-32
   5.120000     -6.8679116E-32
   5.130000     -6.5070718E-32
   5.140000     -6.0713378E-32
   5.150000     -5.5559059E-32
   5.160000     -4.9559494E-32
   5.170000     -4.2666898E-32
   5.180000     -3.4833586E-32
   5.190000     -2.6012564E-32
   5.200000     -1.6157905E-32
   5.210000     -5.2247238E-33
   5.220000      6.8300865E-33
   5.230000      2.0047313E-32
   5.240000      3.4465280E-32
   5.250000      5.0119265E-32
   5.260000      6.7041052E-32
   5.270000      8.5258423E-32
   5.280000      1.0479464E-31
   5.290000      1.2566792E-31
   5.300000      1.4789093E-31
   5.310000      1.7147015E-31
   5.320000      1.9640542E-31
   5.330000      2.2268927E-31
   5.340000      2.5030636E-31
   5.350000      2.7923285E-31
   5.360000      3.0943593E-31
   5.370000      3.4087291E-31
   5.380000      3.7349083E-31
   5.390000      4.0722571E-31
   5.400000      4.4200196E-31
   5.410000      4.7773167E-31
   5.420000      5.1431404E-31
   5.430000      5.5163467E-31
   5.440000      5.8956505E-31
   5.450000      6.2796187E-31
   5.460000      6.6666634E-31
   5.470000      7.0550383E-31
   5.480000      7.4428324E-31
   5.490000      7.8279648E-31
   5.500000      8.2081799E-31
   5.510000      8.5810411E-31
   5.520000      8.9439331E-31
   5.530000      9.2940508E-31
   5.540000      9.6284018E-31
   5.550000      9.9438058E-31
   5.560000      1.0236885E-30
   5.570000      1.0504074E-30
   5.580000      1.0741615E-30
   5.590000      1.0945562E-30
   5.600000      1.1111781E-30
   5.610000      1.1235954E-30
   5.620000      1.1313591E-30
   5.630000      1.1340029E-30
   5.640000      1.1310441E-30
   5.650000      1.1219852E-30
   5.660000      1.1063140E-30
   5.670000      1.0835057E-30
   5.680000      1.0530243E-30
   5.690000      1.0143234E-30
   5.700000      9.6684899E-31
   5.710000      9.1004027E-31
   5.720000      8.4333256E-31
   5.730000      7.6615934E-31
   5.740000      6.7795475E-31
   5.750000      5.7815636E-31
   5.760000      4.6620783E-31
   5.770000      3.4156236E-31
   5.780000      2.0368576E-31
   5.790000      5.2060182E-32
   5.800000     -1.1381188E-31
   5.810000     -2.9440404E-31
   5.820000     -4.9016140E-31
   5.830000     -7.0149614E-31
   5.840000     -9.2878254E-31
   5.850000     -1.1723525E-30
   5.860000     -1.4324897E-30
   5.870000     -1.7094248E-30
   5.880000     -2.0033298E-30
   5.890000     -2.3143110E-30
   5.900000     -2.6424052E-30
   5.910000     -2.9875719E-30
   5.920000     -3.3496872E-30
   5.930000     -3.7285376E-30
   5.940000     -4.1238129E-30
   5.950000     -4.5351008E-30
   5.960000     -4.9618798E-30
   5.970000     -5.4035106E-30
   5.980000     -5.8592318E-30
   5.990000     -6.3281506E-30
   6.000000     -6.8092389E-30
   6.010000     -7.3013223E-30
   6.020000     -7.8030782E-30
   6.030000     -8.3130276E-30
   6.040000     -8.8295266E-30
   6.050000     -9.3507630E-30
   6.060000     -9.8747476E-30
   6.070000     -1.0399311E-29
   6.080000     -1.0922098E-29
   6.090000     -1.1440563E-29
   6.100000     -1.1951962E-29
   6.110000     -1.2453352E-29
   6.120000     -1.2941586E-29
   6.130000     -1.3413311E-29
   6.140000     -1.3864964E-29
   6.150000     -1.4292770E-29
   6.160000     -1.4692748E-29
   6.170000     -1.5060698E-29
   6.180000     -1.5392217E-29
   6.190000     -1.5682685E-29
   6.200000     -1.5927281E-29
   6.210000     -1.6120983E-29
   6.220000     -1.6258570E-29
   6.230000     -1.6334632E-29
   6.240000     -1.6343577E-29
   6.250000     -1.6279644E-29
   6.260000     -1.6136908E-29
   6.270000     -1.5909295E-29
   6.280000     -1.5590599E-29
   6.290000     -1.5174494E-29
   6.300000     -1.4654554E-29
   6.310000     -1.4024277E-29
   6.320000     -1.3277096E-29
   6.330000     -1.2406414E-29
   6.340000     -1.1405618E-29
   6.350000     -1.0268117E-29
   6.360000     -8.9873664E-30
   6.370000     -7.5568992E-30
   6.380000     -5.9703640E-30
   6.390000     -4.2215587E-30
   6.400000     -2.3044660E-30
   6.410000     -2.1329785E-31
   6.420000      2.0574655E-30
   6.430000      4.5130245E-30
   6.440000      7.1582182E-30
   6.450000      9.9974707E-30
   6.460000      1.3034744E-29
   6.470000      1.6273482E-29
   6.480000      1.9716554E-29
   6.490000      2.3366199E-29
   6.500000      2.7223959E-29
   6.510000      3.1290629E-29
   6.520000      3.5566178E-29
   6.530000      4.0049704E-29
   6.540000      4.4739344E-29
   6.550000      4.9632220E-29
   6.560000      5.4724379E-29
   6.570000      6.0010689E-29
   6.580000      6.5484808E-29
   6.590000      7.1139079E-29
   6.600000      7.6964494E-29
   6.610000      8.2950591E-29
   6.620000      8.9085382E-29
   6.630000      9.5355319E-29
   6.640000      1.0174518E-28
   6.650000      1.0823805E-28
   6.660000      1.1481519E-28
   6.670000      1.2145604E-28
   6.680000      1.2813814E-28
   6.690000      1.3483702E-28
   6.700000      1.4152623E-28
   6.710000      1.4817722E-28
   6.720000      1.5475935E-28
   6.730000      1.6123979E-28
   6.740000      1.6758357E-28
   6.750000      1.7375345E-28
   6.760000      1.7970998E-28
   6.770000      1.8541145E-28
   6.780000      1.9081389E-28
   6.790000      1.9587108E-28
   6.800000      2.0053454E-28
   6.810000      2.0475358E-28
   6.820000      2.0847530E-28
   6.830000      2.1164468E-28
   6.840000      2.1420460E-28
   6.850000      2.1609589E-28
   6.860000      2.1725749E-28
   6.870000      2.1762647E-28
   6.880000      2.1713818E-28
   6.890000      2.1572633E-28
   6.900000      2.1332315E-28
   6.910000      2.0985963E-28
   6.920000      2.0526559E-28
   6.930000      1.9946992E-28
   6.940000      1.9240077E-28
   6.950000      1.8398581E-28
   6.960000      1.7415247E-28
   6.970000      1.6282820E-28
   6.980000      1.4994081E-28
   6.990000      1.3541869E-28
   7.000000      1.1919129E-28
   7.010000      1.0118930E-28
   7.020000      8.1345124E-29
   7.030000      5.9593322E-29
   7.040000      3.5870954E-29
   7.050000      1.0118005E-29
   7.060000     -1.7722100E-29