  -2.600000      0.0000000E+00
  -2.590000      0.0000000E+00
  -2.580000      0.0000000E+00
  -2.570000      0.0000000E+00
  -2.560000      0.0000000E+00
  -2.550000      0.0000000E+00
  -2.540000      0.0000000E+00
  -2.530000      0.0000000E+00
  -2.520000      0.0000000E+00
  -2.510000      0.0000000E+00
  -2.500000      0.0000000E+00
  -2.490000      0.0000000E+00
  -2.480000      0.0000000E+00
  -2.470000      0.0000000E+00
  -2.460000      0.0000000E+00
  -2.450000      0.0000000E+00
  -2.440000      0.0000000E+00
  -2.430000      0.0000000E+00
  -2.420000      0.0000000E+00
  -2.410000      0.0000000E+00
  -2.400000      0.0000000E+00
  -2.390000      0.0000000E+00
  -2.380000      0.0000000E+00
  -2.370000      0.0000000E+00
  -2.360000      0.0000000E+00
  -2.350000      0.0000000E+00
  -2.340000      0.0000000E+00
  -2.330000      0.0000000E+00
  -2.320000      0.0000000E+00
  -2.310000      0.0000000E+00
  -2.300000      0.0000000E+00
  -2.290000      0.0000000E+00
  -2.280000      0.0000000E+00
  -2.270000      0.0000000E+00
  -2.260000      0.0000000E+00
  -2.250000      0.0000000E+00
  -2.240000      0.0000000E+00
  -2.230000      0.0000000E+00
  -2.220000      0.0000000E+00
  -2.210000      0.0000000E+00
  -2.200000      0.0000000E+00
  -2.190000      0.0000000E+00
  -2.180000      0.0000000E+00
  -2.170000      0.0000000E+00
  -2.160000      0.0000000E+00
  -2.150000      0.0000000E+00
  -2.140000      0.0000000E+00
  -2.130000      0.0000000E+00
  -2.120000      0.0000000E+00
  -2.110000      0.0000000E+00
  -2.100000      0.0000000E+00
  -2.090000      0.0000000E+00
  -2.080000      0.0000000E+00
  -2.070000      0.0000000E+00
  -2.060000      0.0000000E+00
  -2.050000      0.0000000E+00
  -2.040000      0.0000000E+00
  -2.030000      0.0000000E+00
  -2.020000      0.0000000E+00
  -2.010000      0.0000000E+00
  -2.000000      0.0000000E+00
  -1.990000      0.0000000E+00
  -1.980000      0.0000000E+00
  -1.970000      0.0000000E+00
  -1.960000      0.0000000E+00
  -1.950000      0.0000000E+00
  -1.940000      0.0000000E+00
  -1.930000      0.0000000E+00
  -1.920000      0.0000000E+00
  -1.910000      0.0000000E+00
  -1.900000      0.0000000E+00
  -1.890000      0.0000000E+00
  -1.880000      0.0000000E+00
  -1.870000      0.0000000E+00
  -1.860000      0.0000000E+00
  -1.850000      0.0000000E+00
  -1.840000      0.0000000E+00
  -1.830000      0.0000000E+00
  -1.820000      0.0000000E+00
  -1.810000      0.0000000E+00
  -1.800000      0.0000000E+00
  -1.790000      0.0000000E+00
  -1.780000      0.0000000E+00
  -1.770000      0.0000000E+00
  -1.760000      0.0000000E+00
  -1.750000      0.0000000E+00
  -1.740000      0.0000000E+00
  -1.730000      0.0000000E+00
  -1.720000      0.0000000E+00
  -1.710000      0.0000000E+00
  -1.700000      0.0000000E+00
  -1.690000      0.0000000E+00
  -1.680000      0.0000000E+00
  -1.670000      0.0000000E+00
  -1.660000      0.0000000E+00
  -1.650000      0.0000000E+00
  -1.640000      0.0000000E+00
  -1.630000      0.0000000E+00
  -1.620000      0.0000000E+00
  -1.610000      0.0000000E+00
  -1.600000      0.0000000E+00
  -1.590000      0.0000000E+00
  -1.580000      0.0000000E+00
  -1.570000      0.0000000E+00
  -1.560000      0.0000000E+00
  -1.550000      0.0000000E+00
  -1.540000      0.0000000E+00
  -1.530000      0.0000000E+00
  -1.520000      0.0000000E+00
  -1.510000      0.0000000E+00
  -1.500000      0.0000000E+00
  -1.490000      0.0000000E+00
  -1.480000      0.0000000E+00
  -1.470000      0.0000000E+00
  -1.460000      0.0000000E+00
  -1.450000      0.0000000E+00
  -1.440000      0.0000000E+00
  -1.430000      0.0000000E+00
  -1.420000      0.0000000E+00
  -1.410000      0.0000000E+00
  -1.400000      0.0000000E+00
  -1.390000      0.0000000E+00
  -1.380000      0.0000000E+00
  -1.370000      0.0000000E+00
  -1.360000      0.0000000E+00
  -1.350000      0.0000000E+00
  -1.340000      0.0000000E+00
  -1.330000      0.0000000E+00
  -1.320000      0.0000000E+00
  -1.310000      0.0000000E+00
  -1.300000      0.0000000E+00
  -1.290000      0.0000000E+00
  -1.280000      0.0000000E+00
  -1.270000      0.0000000E+00
  -1.260000      0.0000000E+00
  -1.250000      0.0000000E+00
  -1.240000      0.0000000E+00
  -1.230000      0.0000000E+00
  -1.220000      0.0000000E+00
  -1.210000      0.0000000E+00
  -1.200000      0.0000000E+00
  -1.190000      0.0000000E+00
  -1.180000      0.0000000E+00
  -1.170000      0.0000000E+00
  -1.160000      0.0000000E+00
  -1.150000      0.0000000E+00
  -1.140000      0.0000000E+00
  -1.130000      0.0000000E+00
  -1.120000      0.0000000E+00
  -1.110000      0.0000000E+00
  -1.100000      0.0000000E+00
  -1.090000      0.0000000E+00
  -1.080000      0.0000000E+00
  -1.070000      0.0000000E+00
  -1.060000      0.0000000E+00
  -1.050000      0.0000000E+00
  -1.040000      0.0000000E+00
  -1.030000      0.0000000E+00
  -1.020000      0.0000000E+00
  -1.010000      0.0000000E+00
  -1.000000      0.0000000E+00
 -0.9900000      0.0000000E+00
 -0.9800000      0.0000000E+00
 -0.9700000      0.0000000E+00
 -0.9600000      0.0000000E+00
 -0.9500000      0.0000000E+00
 -0.9400000      0.0000000E+00
 -0.9300000      0.0000000E+00
 -0.9200000      0.0000000E+00
 -0.9100000      0.0000000E+00
 -0.9000000      0.0000000E+00
 -0.8900000      0.0000000E+00
 -0.8800000      0.0000000E+00
 -0.8700000      0.0000000E+00
 -0.8600000      0.0000000E+00
 -0.8500000      0.0000000E+00
 -0.8400000      0.0000000E+00
 -0.8300000      0.0000000E+00
 -0.8200000      0.0000000E+00
 -0.8100000      0.0000000E+00
 -0.8000000      0.0000000E+00
 -0.7900000      0.0000000E+00
 -0.7800000      0.0000000E+00
 -0.7700000      0.0000000E+00
 -0.7600000      0.0000000E+00
 -0.7500000      0.0000000E+00
 -0.7400000      0.0000000E+00
 -0.7300000      0.0000000E+00
 -0.7200000      0.0000000E+00
 -0.7100000      0.0000000E+00
 -0.7000000      0.0000000E+00
 -0.6900000      0.0000000E+00
 -0.6800000      0.0000000E+00
 -0.6700000      0.0000000E+00
 -0.6600000      0.0000000E+00
 -0.6500000      0.0000000E+00
 -0.6400000      0.0000000E+00
 -0.6300000      0.0000000E+00
 -0.6200000      0.0000000E+00
 -0.6100000      0.0000000E+00
 -0.6000000      0.0000000E+00
 -0.5900000      0.0000000E+00
 -0.5800000      0.0000000E+00
 -0.5700000      0.0000000E+00
 -0.5600000      0.0000000E+00
 -0.5500000      0.0000000E+00
 -0.5400000      0.0000000E+00
 -0.5300000      0.0000000E+00
 -0.5200000      0.0000000E+00
 -0.5100000      0.0000000E+00
 -0.5000000      0.0000000E+00
 -0.4900000      0.0000000E+00
 -0.4800000      0.0000000E+00
 -0.4700000      0.0000000E+00
 -0.4600000      0.0000000E+00
 -0.4500000      0.0000000E+00
 -0.4400000      0.0000000E+00
 -0.4300000      0.0000000E+00
 -0.4200000      0.0000000E+00
 -0.4100000      0.0000000E+00
 -0.4000000      0.0000000E+00
 -0.3900000      0.0000000E+00
 -0.3800000      0.0000000E+00
 -0.3700000      0.0000000E+00
 -0.3600000      0.0000000E+00
 -0.3500000      0.0000000E+00
 -0.3400000      0.0000000E+00
 -0.3300000      0.0000000E+00
 -0.3200000      0.0000000E+00
 -0.3100000      0.0000000E+00
 -0.3000000      0.0000000E+00
 -0.2900000      0.0000000E+00
 -0.2800000      0.0000000E+00
 -0.2700000      0.0000000E+00
 -0.2600000      0.0000000E+00
 -0.2500000      0.0000000E+00
 -0.2400000      0.0000000E+00
 -0.2300000      0.0000000E+00
 -0.2200000      0.0000000E+00
 -0.2100000      0.0000000E+00
 -0.2000000      0.0000000E+00
 -0.1900000      0.0000000E+00
 -0.1800000      0.0000000E+00
 -0.1700000      0.0000000E+00
 -0.1600000      0.0000000E+00
 -0.1500000      0.0000000E+00
 -0.1400000      0.0000000E+00
 -0.1300000      0.0000000E+00
 -0.1200000      0.0000000E+00
 -0.1100000      0.0000000E+00
 -0.1000000      0.0000000E+00
 -9.0000004E-02  0.0000000E+00
 -7.9999998E-02  0.0000000E+00
 -7.0000000E-02  0.0000000E+00
 -5.9999999E-02  0.0000000E+00
 -5.0000001E-02  0.0000000E+00
 -3.9999999E-02  0.0000000E+00
 -2.9999999E-02  0.0000000E+00
 -2.0000000E-02  0.0000000E+00
 -9.9999998E-03  0.0000000E+00
 -3.4694470E-17  0.0000000E+00
  9.9999998E-03  0.0000000E+00
  2.0000000E-02  0.0000000E+00
  2.9999999E-02  0.0000000E+00
  3.9999999E-02  0.0000000E+00
  5.0000001E-02  0.0000000E+00
  5.9999999E-02  0.0000000E+00
  7.0000000E-02  0.0000000E+00
  7.9999998E-02  0.0000000E+00
  9.0000004E-02  0.0000000E+00
  0.1000000      0.0000000E+00
  0.1100000      0.0000000E+00
  0.1200000      0.0000000E+00
  0.1300000      0.0000000E+00
  0.1400000      0.0000000E+00
  0.1500000      0.0000000E+00
  0.1600000      0.0000000E+00
  0.1700000      0.0000000E+00
  0.1800000      0.0000000E+00
  0.1900000      0.0000000E+00
  0.2000000      0.0000000E+00
  0.2100000      0.0000000E+00
  0.2200000      0.0000000E+00
  0.2300000      0.0000000E+00
  0.2400000      0.0000000E+00
  0.2500000      0.0000000E+00
  0.2600000      0.0000000E+00
  0.2700000      0.0000000E+00
  0.2800000      0.0000000E+00
  0.2900000      0.0000000E+00
  0.3000000      0.0000000E+00
  0.3100000      0.0000000E+00
  0.3200000      0.0000000E+00
  0.3300000      0.0000000E+00
  0.3400000      0.0000000E+00
  0.3500000      0.0000000E+00
  0.3600000      0.0000000E+00
  0.3700000      0.0000000E+00
  0.3800000      0.0000000E+00
  0.3900000      0.0000000E+00
  0.4000000      0.0000000E+00
  0.4100000      0.0000000E+00
  0.4200000      0.0000000E+00
  0.4300000      0.0000000E+00
  0.4400000      0.0000000E+00
  0.4500000      0.0000000E+00
  0.4600000      0.0000000E+00
  0.4700000      0.0000000E+00
  0.4800000      0.0000000E+00
  0.4900000      0.0000000E+00
  0.5000000      0.0000000E+00
  0.5100000      0.0000000E+00
  0.5200000      0.0000000E+00
  0.5300000      0.0000000E+00
  0.5400000      0.0000000E+00
  0.5500000      0.0000000E+00
  0.5600000      0.0000000E+00
  0.5700000      0.0000000E+00
  0.5800000      0.0000000E+00
  0.5900000      0.0000000E+00
  0.6000000      0.0000000E+00
  0.6100000      0.0000000E+00
  0.6200000      0.0000000E+00
  0.6300000      0.0000000E+00
  0.6400000      0.0000000E+00
  0.6500000      0.0000000E+00
  0.6600000      0.0000000E+00
  0.6700000      0.0000000E+00
  0.6800000      0.0000000E+00
  0.6900000      0.0000000E+00
  0.7000000      0.0000000E+00
  0.7100000      0.0000000E+00
  0.7200000      0.0000000E+00
  0.7300000      0.0000000E+00
  0.7400000      0.0000000E+00
  0.7500000      0.0000000E+00
  0.7600000      0.0000000E+00
  0.7700000      0.0000000E+00
  0.7800000      0.0000000E+00
  0.7900000      0.0000000E+00
  0.8000000      0.0000000E+00
  0.8100000      0.0000000E+00
  0.8200000      0.0000000E+00
  0.8300000      0.0000000E+00
  0.8400000      0.0000000E+00
  0.8500000      0.0000000E+00
  0.8600000      0.0000000E+00
  0.8700000      0.0000000E+00
  0.8800000      0.0000000E+00
  0.8900000      0.0000000E+00
  0.9000000      0.0000000E+00
  0.9100000      0.0000000E+00
  0.9200000      0.0000000E+00
  0.9300000      0.0000000E+00
  0.9400000      0.0000000E+00
  0.9500000      0.0000000E+00
  0.9600000      0.0000000E+00
  0.9700000      0.0000000E+00
  0.9800000      0.0000000E+00
  0.9900000      0.0000000E+00
   1.000000      0.0000000E+00
   1.010000      0.0000000E+00
   1.020000      0.0000000E+00
   1.030000      0.0000000E+00
   1.040000      0.0000000E+00
   1.050000      0.0000000E+00
   1.060000      0.0000000E+00
   1.070000      0.0000000E+00
   1.080000      0.0000000E+00
   1.090000      0.0000000E+00
   1.100000      0.0000000E+00
   1.110000      0.0000000E+00
   1.120000      0.0000000E+00
   1.130000      0.0000000E+00
   1.140000      0.0000000E+00
   1.150000      0.0000000E+00
   1.160000      0.0000000E+00
   1.170000      0.0000000E+00
   1.180000      0.0000000E+00
   1.190000      0.0000000E+00
   1.200000      0.0000000E+00
   1.210000      0.0000000E+00
   1.220000      0.0000000E+00
   1.230000      0.0000000E+00
   1.240000      0.0000000E+00
   1.250000      0.0000000E+00
   1.260000      0.0000000E+00
   1.270000      0.0000000E+00
   1.280000      0.0000000E+00
   1.290000      0.0000000E+00
   1.300000      0.0000000E+00
   1.310000      0.0000000E+00
   1.320000      0.0000000E+00
   1.330000      0.0000000E+00
   1.340000      0.0000000E+00
   1.350000      0.0000000E+00
   1.360000      0.0000000E+00
   1.370000      0.0000000E+00
   1.380000      0.0000000E+00
   1.390000      0.0000000E+00
   1.400000      0.0000000E+00
   1.410000      0.0000000E+00
   1.420000      0.0000000E+00
   1.430000      0.0000000E+00
   1.440000      0.0000000E+00
   1.450000      0.0000000E+00
   1.460000      0.0000000E+00
   1.470000      0.0000000E+00
   1.480000      0.0000000E+00
   1.490000      0.0000000E+00
   1.500000      0.0000000E+00
   1.510000      0.0000000E+00
   1.520000      0.0000000E+00
   1.530000      0.0000000E+00
   1.540000      0.0000000E+00
   1.550000      0.0000000E+00
   1.560000      0.0000000E+00
   1.570000      0.0000000E+00
   1.580000      0.0000000E+00
   1.590000      0.0000000E+00
   1.600000      0.0000000E+00
   1.610000      0.0000000E+00
   1.620000      0.0000000E+00
   1.630000      0.0000000E+00
   1.640000      0.0000000E+00
   1.650000      0.0000000E+00
   1.660000      0.0000000E+00
   1.670000      0.0000000E+00
   1.680000      0.0000000E+00
   1.690000      0.0000000E+00
   1.700000      0.0000000E+00
   1.710000      0.0000000E+00
   1.720000      0.0000000E+00
   1.730000      0.0000000E+00
   1.740000      0.0000000E+00
   1.750000      0.0000000E+00
   1.760000      0.0000000E+00
   1.770000      0.0000000E+00
   1.780000      0.0000000E+00
   1.790000      0.0000000E+00
   1.800000      0.0000000E+00
   1.810000      0.0000000E+00
   1.820000      0.0000000E+00
   1.830000      0.0000000E+00
   1.840000      0.0000000E+00
   1.850000      0.0000000E+00
   1.860000      0.0000000E+00
   1.870000      0.0000000E+00
   1.880000      0.0000000E+00
   1.890000      0.0000000E+00
   1.900000      0.0000000E+00
   1.910000      0.0000000E+00
   1.920000      0.0000000E+00
   1.930000      0.0000000E+00
   1.940000      0.0000000E+00
   1.950000      0.0000000E+00
   1.960000      0.0000000E+00
   1.970000      0.0000000E+00
   1.980000      0.0000000E+00
   1.990000      0.0000000E+00
   2.000000      0.0000000E+00
   2.010000      0.0000000E+00
   2.020000      0.0000000E+00
   2.030000      0.0000000E+00
   2.040000      0.0000000E+00
   2.050000      0.0000000E+00
   2.060000      0.0000000E+00
   2.070000      0.0000000E+00
   2.080000      0.0000000E+00
   2.090000      0.0000000E+00
   2.100000      0.0000000E+00
   2.110000      0.0000000E+00
   2.120000      0.0000000E+00
   2.130000      0.0000000E+00
   2.140000     -1.2523788E-38
   2.150000     -1.3088161E-38
   2.160000     -1.3620014E-38
   2.170000     -1.4168309E-38
   2.180000     -1.4741161E-38
   2.190000     -1.5235706E-38
   2.200000     -1.5635391E-38
   2.210000     -1.6016282E-38
   2.220000     -1.6374108E-38
   2.230000     -1.6720959E-38
   2.240000     -1.6221893E-38
   2.250000     -1.4691718E-38
   2.260000     -1.3528633E-38
   2.270000     -1.2245376E-38
   2.280000      0.0000000E+00
   2.290000      0.0000000E+00
   2.300000      0.0000000E+00
   2.310000      0.0000000E+00
   2.320000      0.0000000E+00
   2.330000      0.0000000E+00
   2.340000      0.0000000E+00
   2.350000      0.0000000E+00
   2.360000      0.0000000E+00
   2.370000     -1.4353352E-38
   2.380000     -2.0307966E-38
   2.390000     -2.6930759E-38
   2.400000     -3.4638030E-38
   2.410000     -4.3180255E-38
   2.420000     -5.1802288E-38
   2.430000     -6.0783120E-38
   2.440000     -6.9813345E-38
   2.450000     -7.8551316E-38
   2.460000     -8.7547562E-38
   2.470000     -9.4711252E-38
   2.480000     -1.0043232E-37
   2.490000     -1.0813203E-37
   2.500000     -1.1877845E-37
   2.510000     -1.3249956E-37
   2.520000     -1.4915541E-37
   2.530000     -1.6932131E-37
   2.540000     -1.9295671E-37
   2.550000     -2.2006910E-37
   2.560000     -2.5076548E-37
   2.570000     -2.8225965E-37
   2.580000     -3.1205491E-37
   2.590000     -3.4274225E-37
   2.600000     -3.7598057E-37
   2.610000     -4.1058668E-37
   2.620000     -4.5072983E-37
   2.630000     -4.9747553E-37
   2.640000     -5.4990503E-37
   2.650000     -6.1186395E-37
   2.660000     -6.8158556E-37
   2.670000     -7.5601411E-37
   2.680000     -8.3325108E-37
   2.690000     -9.1694685E-37
   2.700000     -1.0118316E-36
   2.710000     -1.1158635E-36
   2.720000     -1.2267374E-36
   2.730000     -1.3410387E-36
   2.740000     -1.4609076E-36
   2.750000     -1.5847018E-36
   2.760000     -1.7088767E-36
   2.770000     -1.8325237E-36
   2.780000     -1.9491313E-36
   2.790000     -2.0605455E-36
   2.800000     -2.1801605E-36
   2.810000     -2.3028423E-36
   2.820000     -2.4199369E-36
   2.830000     -2.5108483E-36
   2.840000     -2.5745339E-36
   2.850000     -2.6422098E-36
   2.860000     -2.7220319E-36
   2.870000     -2.8044485E-36
   2.880000     -2.8777028E-36
   2.890000     -2.9595926E-36
   2.900000     -3.0601657E-36
   2.910000     -3.1435857E-36
   2.920000     -3.2166441E-36
   2.930000     -3.3124938E-36
   2.940000     -3.4114720E-36
   2.950000     -3.4931023E-36
   2.960000     -3.5292826E-36
   2.970000     -3.5200876E-36
   2.980000     -3.4932705E-36
   2.990000     -3.4180103E-36
   3.000000     -3.3028324E-36
   3.010000     -3.1437798E-36
   3.020000     -2.7730433E-36
   3.030000     -2.2203506E-36
   3.040000     -1.6427187E-36
   3.050000     -1.1799961E-36
   3.060000     -8.2719119E-37
   3.070000     -4.4100791E-37
   3.080000     -3.3073665E-38
   3.090000      3.9010194E-37
   3.100000      8.3587826E-37
   3.110000      1.2974185E-36
   3.120000      1.7961428E-36
   3.130000      2.3716212E-36
   3.140000      3.0521646E-36
   3.150000      3.7754240E-36
   3.160000      4.4257273E-36
   3.170000      4.9726220E-36
   3.180000      5.4194157E-36
   3.190000      5.8304577E-36
   3.200000      6.1729654E-36
   3.210000      6.4345760E-36
   3.220000      6.7011321E-36
   3.230000      6.9507575E-36
   3.240000      7.2937322E-36
   3.250000      7.9633665E-36
   3.260000      8.8841523E-36
   3.270000      9.9270218E-36
   3.280000      1.1134669E-35
   3.290000      1.2352876E-35
   3.300000      1.3443264E-35
   3.310000      1.4369418E-35
   3.320000      1.5164826E-35
   3.330000      1.5852938E-35
   3.340000      1.6199060E-35
   3.350000      1.6142249E-35
   3.360000      1.5675774E-35
   3.370000      1.4851100E-35
   3.380000      1.3733262E-35
   3.390000      1.2174648E-35
   3.400000      1.0241068E-35
   3.410000      7.9962688E-36
   3.420000      5.3774347E-36
   3.430000      2.3305449E-36
   3.440000     -9.6728203E-37
   3.450000     -4.3530585E-36
   3.460000     -7.7547895E-36
   3.470000     -1.1198712E-35
   3.480000     -1.4920365E-35
   3.490000     -1.8909244E-35
   3.500000     -2.3047393E-35
   3.510000     -2.7304007E-35
   3.520000     -3.1633730E-35
   3.530000     -3.5999101E-35
   3.540000     -4.0288803E-35
   3.550000     -4.4519409E-35
   3.560000     -4.8838737E-35
   3.570000     -5.3144702E-35
   3.580000     -5.7420356E-35
   3.590000     -6.1704976E-35
   3.600000     -6.6238923E-35
   3.610000     -7.0938587E-35
   3.620000     -7.5695413E-35
   3.630000     -8.0528469E-35
   3.640000     -8.5210862E-35
   3.650000     -9.0009135E-35
   3.660000     -9.4811460E-35
   3.670000     -1.0002337E-34
   3.680000     -1.0502890E-34
   3.690000     -1.0887959E-34
   3.700000     -1.1202848E-34
   3.710000     -1.1340529E-34
   3.720000     -1.1282743E-34
   3.730000     -1.1106011E-34
   3.740000     -1.0674159E-34
   3.750000     -9.8940510E-35
   3.760000     -8.7780046E-35
   3.770000     -7.6122282E-35
   3.780000     -6.4752698E-35
   3.790000     -5.1213339E-35
   3.800000     -3.4618610E-35
   3.810000     -1.2662564E-35
   3.820000      1.4113322E-35
   3.830000      4.1689507E-35
   3.840000      6.9088010E-35
   3.850000      9.7481083E-35
   3.860000      1.2760728E-34
   3.870000      1.5989627E-34
   3.880000      1.9369233E-34
   3.890000      2.2969959E-34
   3.900000      2.6895067E-34
   3.910000      3.1010432E-34
   3.920000      3.5157704E-34
   3.930000      3.9404738E-34
   3.940000      4.4035341E-34
   3.950000      4.9340351E-34
   3.960000      5.5049989E-34
   3.970000      6.0460482E-34
   3.980000      6.5529691E-34
   3.990000      7.0667768E-34
   4.000000      7.5986765E-34
   4.010000      8.1557176E-34
   4.020000      8.7579490E-34
   4.030000      9.3922697E-34
   4.040000      1.0058904E-33
   4.050000      1.0714523E-33
   4.060000      1.1321742E-33
   4.070000      1.1899763E-33
   4.080000      1.2455633E-33
   4.090000      1.2969322E-33
   4.100000      1.3420007E-33
   4.110000      1.3826223E-33
   4.120000      1.4186312E-33
   4.130000      1.4482314E-33
   4.140000      1.4715928E-33
   4.150000      1.4886874E-33
   4.160000      1.4979868E-33
   4.170000      1.5002968E-33
   4.180000      1.4901879E-33
   4.190000      1.4652946E-33
   4.200000      1.4276630E-33
   4.210000      1.3721640E-33
   4.220000      1.2972915E-33
   4.230000      1.2048131E-33
   4.240000      1.0951329E-33
   4.250000      9.7004062E-34
   4.260000      8.2708940E-34
   4.270000      6.6357473E-34
   4.280000      4.8239037E-34
   4.290000      2.8417337E-34
   4.300000      6.7202409E-35
   4.310000     -1.6959499E-34
   4.320000     -4.2597817E-34
   4.330000     -7.0537766E-34
   4.340000     -1.0069535E-33
   4.350000     -1.3306803E-33
   4.360000     -1.6746658E-33
   4.370000     -2.0385623E-33
   4.380000     -2.4261724E-33
   4.390000     -2.8337022E-33
   4.400000     -3.2614201E-33
   4.410000     -3.7080426E-33
   4.420000     -4.1700523E-33
   4.430000     -4.6517507E-33
   4.440000     -5.1505156E-33
   4.450000     -5.6602165E-33
   4.460000     -6.1814862E-33
   4.470000     -6.7127038E-33
   4.480000     -7.2535613E-33
   4.490000     -7.8016098E-33
   4.500000     -8.3524134E-33
   4.510000     -8.9023677E-33
   4.520000     -9.4462131E-33
   4.530000     -9.9820695E-33
   4.540000     -1.0505192E-32
   4.550000     -1.1008811E-32
   4.560000     -1.1490476E-32
   4.570000     -1.1942344E-32
   4.580000     -1.2358147E-32
   4.590000     -1.2734415E-32
   4.600000     -1.3064557E-32
   4.610000     -1.3344409E-32
   4.620000     -1.3566051E-32
   4.630000     -1.3721690E-32
   4.640000     -1.3802627E-32
   4.650000     -1.3799069E-32
   4.660000     -1.3705306E-32
   4.670000     -1.3513470E-32
   4.680000     -1.3215542E-32
   4.690000     -1.2803365E-32
   4.700000     -1.2268798E-32
   4.710000     -1.1603627E-32
   4.720000     -1.0800033E-32
   4.730000     -9.8497647E-33
   4.740000     -8.7447030E-33
   4.750000     -7.4774797E-33
   4.760000     -6.0410826E-33
   4.770000     -4.4279035E-33
   4.780000     -2.6310759E-33
   4.790000     -6.4407976E-34
   4.800000      1.5403813E-33
   4.810000      3.9242061E-33
   4.820000      6.5102146E-33
   4.830000      9.3040466E-33
   4.840000      1.2308187E-32
   4.850000      1.5524461E-32
   4.860000      1.8953903E-32
   4.870000      2.2595877E-32
   4.880000      2.6447521E-32
   4.890000      3.0505386E-32
   4.900000      3.4765104E-32
   4.910000      3.9220166E-32
   4.920000      4.3862387E-32
   4.930000      4.8681717E-32
   4.940000      5.3666048E-32
   4.950000      5.8801319E-32
   4.960000      6.4071090E-32
   4.970000      6.9456740E-32
   4.980000      7.4937324E-32
   4.990000      8.0489172E-32
   5.000000      8.6086059E-32
   5.010000      9.1699045E-32
   5.020000      9.7296373E-32
   5.030000      1.0284365E-31
   5.040000      1.0830295E-31
   5.050000      1.1363358E-31
   5.060000      1.1879191E-31
   5.070000      1.2373163E-31
   5.080000      1.2840390E-31
   5.090000      1.3275534E-31
   5.100000      1.3672994E-31
   5.110000      1.4026950E-31
   5.120000      1.4331227E-31
   5.130000      1.4579442E-31
   5.140000      1.4764938E-31
   5.150000      1.4880739E-31
   5.160000      1.4919655E-31
   5.170000      1.4874264E-31
   5.180000      1.4736942E-31
   5.190000      1.4499882E-31
   5.200000      1.4155091E-31
   5.210000      1.3694452E-31
   5.220000      1.3109729E-31
   5.230000      1.2392613E-31
   5.240000      1.1534762E-31
   5.250000      1.0527827E-31
   5.260000      9.3635119E-32
   5.270000      8.0336099E-32
   5.280000      6.5300668E-32
   5.290000      4.8450274E-32
   5.300000      2.9708980E-32
   5.310000      9.0041133E-33
   5.320000     -1.3733082E-32
   5.330000     -3.8566741E-32
   5.340000     -6.5555639E-32
   5.350000     -9.4752427E-32
   5.360000     -1.2620278E-31
   5.370000     -1.5994460E-31
   5.380000     -1.9600711E-31
   5.390000     -2.3440996E-31
   5.400000     -2.7516230E-31
   5.410000     -3.1826187E-31
   5.420000     -3.6369391E-31
   5.430000     -4.1143031E-31
   5.440000     -4.6142851E-31
   5.450000     -5.1363047E-31
   5.460000     -5.6796163E-31
   5.470000     -6.2433002E-31
   5.480000     -6.8262504E-31
   5.490000     -7.4271659E-31
   5.500000     -8.0445388E-31
   5.510000     -8.6766473E-31
   5.520000     -9.3215404E-31
   5.530000     -9.9770346E-31
   5.540000     -1.0640700E-30
   5.550000     -1.1309850E-30
   5.560000     -1.1981538E-30
   5.570000     -1.2652544E-30
   5.580000     -1.3319368E-30
   5.590000     -1.3978221E-30
   5.600000     -1.4625022E-30
   5.610000     -1.5255392E-30
   5.620000     -1.5864643E-30
   5.630000     -1.6447784E-30
   5.640000     -1.6999508E-30
   5.650000     -1.7514204E-30
   5.660000     -1.7985942E-30
   5.670000     -1.8408488E-30
   5.680000     -1.8775302E-30
   5.690000     -1.9079550E-30
   5.700000     -1.9314104E-30
   5.710000     -1.9471554E-30
   5.720000     -1.9544226E-30
   5.730000     -1.9524184E-30
   5.740000     -1.9403266E-30
   5.750000     -1.9173084E-30
   5.760000     -1.8825057E-30
   5.770000     -1.8350430E-30
   5.780000     -1.7740305E-30
   5.790000     -1.6985670E-30
   5.800000     -1.6077428E-30
   5.810000     -1.5006439E-30
   5.820000     -1.3763549E-30
   5.830000     -1.2339641E-30
   5.840000     -1.0725678E-30
   5.850000     -8.9127458E-31
   5.860000     -6.8921091E-31
   5.870000     -4.6552600E-31
   5.880000     -2.1939847E-31
   5.890000      4.9958104E-32
   5.900000      3.4328885E-31
   5.910000      6.6128996E-31
   5.920000      1.0046023E-30
   5.930000      1.3738036E-30
   5.940000      1.7694004E-30
   5.950000      2.1918198E-30
   5.960000      2.6414009E-30
   5.970000      3.1183855E-30
   5.980000      3.6229093E-30
   5.990000      4.1549930E-30
   6.000000      4.7145298E-30
   6.010000      5.3012779E-30
   6.020000      5.9148495E-30
   6.030000      6.5546994E-30
   6.040000      7.2201150E-30
   6.050000      7.9102066E-30
   6.060000      8.6238945E-30
   6.070000      9.3598992E-30
   6.080000      1.0116730E-29
   6.090000      1.0892678E-29
   6.100000      1.1685798E-29
   6.110000      1.2493909E-29
   6.120000      1.3314572E-29
   6.130000      1.4145092E-29
   6.140000      1.4982498E-29
   6.150000      1.5823544E-29
   6.160000      1.6664696E-29
   6.170000      1.7502120E-29
   6.180000      1.8331686E-29
   6.190000      1.9148951E-29
   6.200000      1.9949160E-29
   6.210000      2.0727237E-29
   6.220000      2.1477784E-29
   6.230000      2.2195080E-29
   6.240000      2.2873077E-29
   6.250000      2.3505396E-29
   6.260000      2.4085337E-29
   6.270000      2.4605875E-29
   6.280000      2.5059665E-29
   6.290000      2.5439052E-29
   6.300000      2.5736069E-29
   6.310000      2.5942463E-29
   6.320000      2.6049692E-29
   6.330000      2.6048946E-29
   6.340000      2.5931151E-29
   6.350000      2.5687015E-29
   6.360000      2.5307020E-29
   6.370000      2.4781467E-29
   6.380000      2.4100484E-29
   6.390000      2.3254074E-29
   6.400000      2.2232136E-29
   6.410000      2.1024505E-29
   6.420000      1.9620992E-29
   6.430000      1.8011423E-29
   6.440000      1.6185684E-29
   6.450000      1.4133775E-29
   6.460000      1.1845856E-29
   6.470000      9.3123016E-30
   6.480000      6.5237634E-30
   6.490000      3.4712318E-30
   6.500000      1.4610043E-31
   6.510000     -3.4597684E-30
   6.520000     -7.3539664E-30
   6.530000     -1.1543464E-29
   6.540000     -1.6034536E-29
   6.550000     -2.0832683E-29
   6.560000     -2.5942547E-29
   6.570000     -3.1367814E-29
   6.580000     -3.7111120E-29
   6.590000     -4.3173990E-29
   6.600000     -4.9556702E-29
   6.610000     -5.6258219E-29
   6.620000     -6.3276061E-29
   6.630000     -7.0606235E-29
   6.640000     -7.8243107E-29
   6.650000     -8.6179298E-29
   6.660000     -9.4405589E-29
   6.670000     -1.0291081E-28
   6.680000     -1.1168174E-28
   6.690000     -1.2070298E-28
   6.700000     -1.2995683E-28
   6.710000     -1.3942323E-28
   6.720000     -1.4907966E-28
   6.730000     -1.5890099E-28
   6.740000     -1.6885939E-28
   6.750000     -1.7892425E-28
   6.760000     -1.8906213E-28
   6.770000     -1.9923657E-28
   6.780000     -2.0940812E-28
   6.790000     -2.1953415E-28
   6.800000     -2.2956897E-28
   6.810000     -2.3946351E-28
   6.820000     -2.4916548E-28
   6.830000     -2.5861927E-28
   6.840000     -2.6776584E-28
   6.850000     -2.7654286E-28
   6.860000     -2.8488459E-28
   6.870000     -2.9272185E-28
   6.880000     -2.9998220E-28
   6.890000     -3.0658977E-28
   6.900000     -3.1246552E-28
   6.910000     -3.1752718E-28
   6.920000     -3.2168931E-28
   6.930000     -3.2486355E-28
   6.940000     -3.2695860E-28
   6.950000     -3.2788047E-28
   6.960000     -3.2753258E-28
   6.970000     -3.2581597E-28
   6.980000     -3.2262957E-28
   6.990000     -3.1787036E-28
   7.000000     -3.1143371E-28
   7.010000     -3.0321357E-28
   7.020000     -2.9310292E-28
   7.030000     -2.8099405E-28
   7.040000     -2.6677888E-28
   7.050000     -2.5034956E-28
   7.060000     -2.3159871E-28