  -2.600000      0.0000000E+00
  -2.590000      0.0000000E+00
  -2.580000      0.0000000E+00
  -2.570000      0.0000000E+00
  -2.560000      0.0000000E+00
  -2.550000      0.0000000E+00
  -2.540000      0.0000000E+00
  -2.530000      0.0000000E+00
  -2.520000      0.0000000E+00
  -2.510000      0.0000000E+00
  -2.500000      0.0000000E+00
  -2.490000      0.0000000E+00
  -2.480000      0.0000000E+00
  -2.470000      0.0000000E+00
  -2.460000      0.0000000E+00
  -2.450000      0.0000000E+00
  -2.440000      0.0000000E+00
  -2.430000      0.0000000E+00
  -2.420000      0.0000000E+00
  -2.410000      0.0000000E+00
  -2.400000      0.0000000E+00
  -2.390000      0.0000000E+00
  -2.380000      0.0000000E+00
  -2.370000      0.0000000E+00
  -2.360000      0.0000000E+00
  -2.350000      0.0000000E+00
  -2.340000      0.0000000E+00
  -2.330000      0.0000000E+00
  -2.320000      0.0000000E+00
  -2.310000      0.0000000E+00
  -2.300000      0.0000000E+00
  -2.290000      0.0000000E+00
  -2.280000      0.0000000E+00
  -2.270000      0.0000000E+00
  -2.260000      0.0000000E+00
  -2.250000      0.0000000E+00
  -2.240000      0.0000000E+00
  -2.230000      0.0000000E+00
  -2.220000      0.0000000E+00
  -2.210000      0.0000000E+00
  -2.200000      0.0000000E+00
  -2.190000      0.0000000E+00
  -2.180000      0.0000000E+00
  -2.170000      0.0000000E+00
  -2.160000      0.0000000E+00
  -2.150000      0.0000000E+00
  -2.140000      0.0000000E+00
  -2.130000      0.0000000E+00
  -2.120000      0.0000000E+00
  -2.110000      0.0000000E+00
  -2.100000      0.0000000E+00
  -2.090000      0.0000000E+00
  -2.080000      0.0000000E+00
  -2.070000      0.0000000E+00
  -2.060000      0.0000000E+00
  -2.050000      0.0000000E+00
  -2.040000      0.0000000E+00
  -2.030000      0.0000000E+00
  -2.020000      0.0000000E+00
  -2.010000      0.0000000E+00
  -2.000000      0.0000000E+00
  -1.990000      0.0000000E+00
  -1.980000      0.0000000E+00
  -1.970000      0.0000000E+00
  -1.960000      0.0000000E+00
  -1.950000      0.0000000E+00
  -1.940000      0.0000000E+00
  -1.930000      0.0000000E+00
  -1.920000      0.0000000E+00
  -1.910000      0.0000000E+00
  -1.900000      0.0000000E+00
  -1.890000      0.0000000E+00
  -1.880000      0.0000000E+00
  -1.870000      0.0000000E+00
  -1.860000      0.0000000E+00
  -1.850000      0.0000000E+00
  -1.840000      0.0000000E+00
  -1.830000      0.0000000E+00
  -1.820000      0.0000000E+00
  -1.810000      0.0000000E+00
  -1.800000      0.0000000E+00
  -1.790000      0.0000000E+00
  -1.780000      0.0000000E+00
  -1.770000      0.0000000E+00
  -1.760000      0.0000000E+00
  -1.750000      0.0000000E+00
  -1.740000      0.0000000E+00
  -1.730000      0.0000000E+00
  -1.720000      0.0000000E+00
  -1.710000      0.0000000E+00
  -1.700000      0.0000000E+00
  -1.690000      0.0000000E+00
  -1.680000      0.0000000E+00
  -1.670000      0.0000000E+00
  -1.660000      0.0000000E+00
  -1.650000      0.0000000E+00
  -1.640000      0.0000000E+00
  -1.630000      0.0000000E+00
  -1.620000      0.0000000E+00
  -1.610000      0.0000000E+00
  -1.600000      0.0000000E+00
  -1.590000      0.0000000E+00
  -1.580000      0.0000000E+00
  -1.570000      0.0000000E+00
  -1.560000      0.0000000E+00
  -1.550000      0.0000000E+00
  -1.540000      0.0000000E+00
  -1.530000      0.0000000E+00
  -1.520000      0.0000000E+00
  -1.510000      0.0000000E+00
  -1.500000      0.0000000E+00
  -1.490000      0.0000000E+00
  -1.480000      0.0000000E+00
  -1.470000      0.0000000E+00
  -1.460000      0.0000000E+00
  -1.450000      0.0000000E+00
  -1.440000      0.0000000E+00
  -1.430000      0.0000000E+00
  -1.420000      0.0000000E+00
  -1.410000      0.0000000E+00
  -1.400000      0.0000000E+00
  -1.390000      0.0000000E+00
  -1.380000      0.0000000E+00
  -1.370000      0.0000000E+00
  -1.360000      0.0000000E+00
  -1.350000      0.0000000E+00
  -1.340000      0.0000000E+00
  -1.330000      0.0000000E+00
  -1.320000      0.0000000E+00
  -1.310000      0.0000000E+00
  -1.300000      0.0000000E+00
  -1.290000      0.0000000E+00
  -1.280000      0.0000000E+00
  -1.270000      0.0000000E+00
  -1.260000      0.0000000E+00
  -1.250000      0.0000000E+00
  -1.240000      0.0000000E+00
  -1.230000      0.0000000E+00
  -1.220000      0.0000000E+00
  -1.210000      0.0000000E+00
  -1.200000      0.0000000E+00
  -1.190000      0.0000000E+00
  -1.180000      0.0000000E+00
  -1.170000      0.0000000E+00
  -1.160000      0.0000000E+00
  -1.150000      0.0000000E+00
  -1.140000      0.0000000E+00
  -1.130000      0.0000000E+00
  -1.120000      0.0000000E+00
  -1.110000      0.0000000E+00
  -1.100000      0.0000000E+00
  -1.090000      0.0000000E+00
  -1.080000      0.0000000E+00
  -1.070000      0.0000000E+00
  -1.060000      0.0000000E+00
  -1.050000      0.0000000E+00
  -1.040000      0.0000000E+00
  -1.030000      0.0000000E+00
  -1.020000      0.0000000E+00
  -1.010000      0.0000000E+00
  -1.000000      0.0000000E+00
 -0.9900000      0.0000000E+00
 -0.9800000      0.0000000E+00
 -0.9700000      0.0000000E+00
 -0.9600000      0.0000000E+00
 -0.9500000      0.0000000E+00
 -0.9400000      0.0000000E+00
 -0.9300000      0.0000000E+00
 -0.9200000      0.0000000E+00
 -0.9100000      0.0000000E+00
 -0.9000000      0.0000000E+00
 -0.8900000      0.0000000E+00
 -0.8800000      0.0000000E+00
 -0.8700000      0.0000000E+00
 -0.8600000      0.0000000E+00
 -0.8500000      0.0000000E+00
 -0.8400000      0.0000000E+00
 -0.8300000      0.0000000E+00
 -0.8200000      0.0000000E+00
 -0.8100000      0.0000000E+00
 -0.8000000      0.0000000E+00
 -0.7900000      0.0000000E+00
 -0.7800000      0.0000000E+00
 -0.7700000      0.0000000E+00
 -0.7600000      0.0000000E+00
 -0.7500000      0.0000000E+00
 -0.7400000      0.0000000E+00
 -0.7300000      0.0000000E+00
 -0.7200000      0.0000000E+00
 -0.7100000      0.0000000E+00
 -0.7000000      0.0000000E+00
 -0.6900000      0.0000000E+00
 -0.6800000      0.0000000E+00
 -0.6700000      0.0000000E+00
 -0.6600000      0.0000000E+00
 -0.6500000      0.0000000E+00
 -0.6400000      0.0000000E+00
 -0.6300000      0.0000000E+00
 -0.6200000      0.0000000E+00
 -0.6100000      0.0000000E+00
 -0.6000000      0.0000000E+00
 -0.5900000      0.0000000E+00
 -0.5800000      0.0000000E+00
 -0.5700000      0.0000000E+00
 -0.5600000      0.0000000E+00
 -0.5500000      0.0000000E+00
 -0.5400000      0.0000000E+00
 -0.5300000      0.0000000E+00
 -0.5200000      0.0000000E+00
 -0.5100000      0.0000000E+00
 -0.5000000      0.0000000E+00
 -0.4900000      0.0000000E+00
 -0.4800000      0.0000000E+00
 -0.4700000      0.0000000E+00
 -0.4600000      0.0000000E+00
 -0.4500000      0.0000000E+00
 -0.4400000      0.0000000E+00
 -0.4300000      0.0000000E+00
 -0.4200000      0.0000000E+00
 -0.4100000      0.0000000E+00
 -0.4000000      0.0000000E+00
 -0.3900000      0.0000000E+00
 -0.3800000      0.0000000E+00
 -0.3700000      0.0000000E+00
 -0.3600000      0.0000000E+00
 -0.3500000      0.0000000E+00
 -0.3400000      0.0000000E+00
 -0.3300000      0.0000000E+00
 -0.3200000      0.0000000E+00
 -0.3100000      0.0000000E+00
 -0.3000000      0.0000000E+00
 -0.2900000      0.0000000E+00
 -0.2800000      0.0000000E+00
 -0.2700000      0.0000000E+00
 -0.2600000      0.0000000E+00
 -0.2500000      0.0000000E+00
 -0.2400000      0.0000000E+00
 -0.2300000      0.0000000E+00
 -0.2200000      0.0000000E+00
 -0.2100000      0.0000000E+00
 -0.2000000      0.0000000E+00
 -0.1900000      0.0000000E+00
 -0.1800000      0.0000000E+00
 -0.1700000      0.0000000E+00
 -0.1600000      0.0000000E+00
 -0.1500000      0.0000000E+00
 -0.1400000      0.0000000E+00
 -0.1300000      0.0000000E+00
 -0.1200000      0.0000000E+00
 -0.1100000      0.0000000E+00
 -0.1000000      0.0000000E+00
 -9.0000004E-02  0.0000000E+00
 -7.9999998E-02  0.0000000E+00
 -7.0000000E-02  0.0000000E+00
 -5.9999999E-02  0.0000000E+00
 -5.0000001E-02  0.0000000E+00
 -3.9999999E-02  0.0000000E+00
 -2.9999999E-02  0.0000000E+00
 -2.0000000E-02  0.0000000E+00
 -9.9999998E-03  0.0000000E+00
 -3.4694470E-17  0.0000000E+00
  9.9999998E-03  0.0000000E+00
  2.0000000E-02  0.0000000E+00
  2.9999999E-02  0.0000000E+00
  3.9999999E-02  0.0000000E+00
  5.0000001E-02  0.0000000E+00
  5.9999999E-02  0.0000000E+00
  7.0000000E-02  0.0000000E+00
  7.9999998E-02  0.0000000E+00
  9.0000004E-02  0.0000000E+00
  0.1000000      0.0000000E+00
  0.1100000      0.0000000E+00
  0.1200000      0.0000000E+00
  0.1300000      0.0000000E+00
  0.1400000      0.0000000E+00
  0.1500000      0.0000000E+00
  0.1600000      0.0000000E+00
  0.1700000      0.0000000E+00
  0.1800000      0.0000000E+00
  0.1900000      0.0000000E+00
  0.2000000      0.0000000E+00
  0.2100000      0.0000000E+00
  0.2200000      0.0000000E+00
  0.2300000      0.0000000E+00
  0.2400000      0.0000000E+00
  0.2500000      0.0000000E+00
  0.2600000      0.0000000E+00
  0.2700000      0.0000000E+00
  0.2800000      0.0000000E+00
  0.2900000      0.0000000E+00
  0.3000000      0.0000000E+00
  0.3100000      0.0000000E+00
  0.3200000      0.0000000E+00
  0.3300000      0.0000000E+00
  0.3400000      0.0000000E+00
  0.3500000      0.0000000E+00
  0.3600000      0.0000000E+00
  0.3700000      0.0000000E+00
  0.3800000      0.0000000E+00
  0.3900000      0.0000000E+00
  0.4000000      0.0000000E+00
  0.4100000      0.0000000E+00
  0.4200000      0.0000000E+00
  0.4300000      0.0000000E+00
  0.4400000      0.0000000E+00
  0.4500000      0.0000000E+00
  0.4600000      0.0000000E+00
  0.4700000      0.0000000E+00
  0.4800000      0.0000000E+00
  0.4900000      0.0000000E+00
  0.5000000      0.0000000E+00
  0.5100000      0.0000000E+00
  0.5200000      0.0000000E+00
  0.5300000      0.0000000E+00
  0.5400000      0.0000000E+00
  0.5500000      0.0000000E+00
  0.5600000      0.0000000E+00
  0.5700000      0.0000000E+00
  0.5800000      0.0000000E+00
  0.5900000      0.0000000E+00
  0.6000000      0.0000000E+00
  0.6100000      0.0000000E+00
  0.6200000      0.0000000E+00
  0.6300000      0.0000000E+00
  0.6400000      0.0000000E+00
  0.6500000      0.0000000E+00
  0.6600000      0.0000000E+00
  0.6700000      0.0000000E+00
  0.6800000      0.0000000E+00
  0.6900000      0.0000000E+00
  0.7000000      0.0000000E+00
  0.7100000      0.0000000E+00
  0.7200000      0.0000000E+00
  0.7300000      0.0000000E+00
  0.7400000      0.0000000E+00
  0.7500000      0.0000000E+00
  0.7600000      0.0000000E+00
  0.7700000      0.0000000E+00
  0.7800000      0.0000000E+00
  0.7900000      0.0000000E+00
  0.8000000      0.0000000E+00
  0.8100000      0.0000000E+00
  0.8200000      0.0000000E+00
  0.8300000      0.0000000E+00
  0.8400000      0.0000000E+00
  0.8500000      0.0000000E+00
  0.8600000      0.0000000E+00
  0.8700000      0.0000000E+00
  0.8800000      0.0000000E+00
  0.8900000      0.0000000E+00
  0.9000000      0.0000000E+00
  0.9100000      0.0000000E+00
  0.9200000      0.0000000E+00
  0.9300000      0.0000000E+00
  0.9400000      0.0000000E+00
  0.9500000      0.0000000E+00
  0.9600000      0.0000000E+00
  0.9700000      0.0000000E+00
  0.9800000      0.0000000E+00
  0.9900000      0.0000000E+00
   1.000000      0.0000000E+00
   1.010000      0.0000000E+00
   1.020000      0.0000000E+00
   1.030000      0.0000000E+00
   1.040000      0.0000000E+00
   1.050000      0.0000000E+00
   1.060000      0.0000000E+00
   1.070000      0.0000000E+00
   1.080000      0.0000000E+00
   1.090000      0.0000000E+00
   1.100000      0.0000000E+00
   1.110000      0.0000000E+00
   1.120000      0.0000000E+00
   1.130000      0.0000000E+00
   1.140000      0.0000000E+00
   1.150000      0.0000000E+00
   1.160000      0.0000000E+00
   1.170000      0.0000000E+00
   1.180000      0.0000000E+00
   1.190000      0.0000000E+00
   1.200000      0.0000000E+00
   1.210000      0.0000000E+00
   1.220000      0.0000000E+00
   1.230000      0.0000000E+00
   1.240000      0.0000000E+00
   1.250000      0.0000000E+00
   1.260000      0.0000000E+00
   1.270000      0.0000000E+00
   1.280000      0.0000000E+00
   1.290000      0.0000000E+00
   1.300000      0.0000000E+00
   1.310000      0.0000000E+00
   1.320000      0.0000000E+00
   1.330000      0.0000000E+00
   1.340000      0.0000000E+00
   1.350000      0.0000000E+00
   1.360000      0.0000000E+00
   1.370000      0.0000000E+00
   1.380000      0.0000000E+00
   1.390000      0.0000000E+00
   1.400000      0.0000000E+00
   1.410000      0.0000000E+00
   1.420000      0.0000000E+00
   1.430000      0.0000000E+00
   1.440000      0.0000000E+00
   1.450000      0.0000000E+00
   1.460000      0.0000000E+00
   1.470000      0.0000000E+00
   1.480000      0.0000000E+00
   1.490000      0.0000000E+00
   1.500000      0.0000000E+00
   1.510000      0.0000000E+00
   1.520000      0.0000000E+00
   1.530000      0.0000000E+00
   1.540000      0.0000000E+00
   1.550000      0.0000000E+00
   1.560000      0.0000000E+00
   1.570000      0.0000000E+00
   1.580000      0.0000000E+00
   1.590000      0.0000000E+00
   1.600000      0.0000000E+00
   1.610000      0.0000000E+00
   1.620000      0.0000000E+00
   1.630000      0.0000000E+00
   1.640000      0.0000000E+00
   1.650000      0.0000000E+00
   1.660000      0.0000000E+00
   1.670000      0.0000000E+00
   1.680000      0.0000000E+00
   1.690000      0.0000000E+00
   1.700000      0.0000000E+00
   1.710000      0.0000000E+00
   1.720000      0.0000000E+00
   1.730000      0.0000000E+00
   1.740000      0.0000000E+00
   1.750000      0.0000000E+00
   1.760000      0.0000000E+00
   1.770000      0.0000000E+00
   1.780000      0.0000000E+00
   1.790000      0.0000000E+00
   1.800000      0.0000000E+00
   1.810000      0.0000000E+00
   1.820000      0.0000000E+00
   1.830000      0.0000000E+00
   1.840000      0.0000000E+00
   1.850000      0.0000000E+00
   1.860000      0.0000000E+00
   1.870000      0.0000000E+00
   1.880000      0.0000000E+00
   1.890000      0.0000000E+00
   1.900000      0.0000000E+00
   1.910000      0.0000000E+00
   1.920000      0.0000000E+00
   1.930000      0.0000000E+00
   1.940000      0.0000000E+00
   1.950000      0.0000000E+00
   1.960000      0.0000000E+00
   1.970000      0.0000000E+00
   1.980000      0.0000000E+00
   1.990000      0.0000000E+00
   2.000000      0.0000000E+00
   2.010000      0.0000000E+00
   2.020000      0.0000000E+00
   2.030000      0.0000000E+00
   2.040000      0.0000000E+00
   2.050000      0.0000000E+00
   2.060000      0.0000000E+00
   2.070000      0.0000000E+00
   2.080000      0.0000000E+00
   2.090000      0.0000000E+00
   2.100000      0.0000000E+00
   2.110000      0.0000000E+00
   2.120000      0.0000000E+00
   2.130000      0.0000000E+00
   2.140000      0.0000000E+00
   2.150000      0.0000000E+00
   2.160000      0.0000000E+00
   2.170000      0.0000000E+00
   2.180000      1.2295555E-38
   2.190000      1.4377797E-38
   2.200000      1.5712998E-38
   2.210000      1.6342970E-38
   2.220000      1.7140882E-38
   2.230000      1.8170639E-38
   2.240000      1.9288066E-38
   2.250000      2.0412063E-38
   2.260000      2.1683059E-38
   2.270000      2.3160095E-38
   2.280000      2.4831017E-38
   2.290000      2.7466949E-38
   2.300000      3.1177352E-38
   2.310000      3.5258987E-38
   2.320000      3.9726391E-38
   2.330000      4.4451242E-38
   2.340000      4.9530682E-38
   2.350000      5.4956712E-38
   2.360000      6.1289869E-38
   2.370000      6.8796468E-38
   2.380000      7.8232537E-38
   2.390000      8.9622767E-38
   2.400000      1.0151383E-37
   2.410000      1.1377104E-37
   2.420000      1.1040093E-37
   2.430000      8.9453737E-38
   2.440000      6.7662767E-38
   2.450000      5.6042186E-38
   2.460000      5.1085602E-38
   2.470000      4.2348557E-38
   2.480000      3.0952920E-38
   2.490000      1.7024605E-38
   2.500000      0.0000000E+00
   2.510000      0.0000000E+00
   2.520000      1.2994755E-38
   2.530000      4.0299954E-38
   2.540000      7.0294893E-38
   2.550000      1.0215869E-37
   2.560000      1.3434705E-37
   2.570000      1.6448831E-37
   2.580000      1.7558141E-37
   2.590000      1.6831695E-37
   2.600000      1.6316222E-37
   2.610000      1.6016677E-37
   2.620000      1.5257791E-37
   2.630000      1.4177933E-37
   2.640000      1.3433903E-37
   2.650000      1.3438455E-37
   2.660000      1.6439655E-37
   2.670000      2.2345399E-37
   2.680000      2.9538993E-37
   2.690000      3.8652336E-37
   2.700000      4.9632557E-37
   2.710000      6.1773478E-37
   2.720000      7.4445136E-37
   2.730000      8.6863375E-37
   2.740000      9.8906166E-37
   2.750000      1.0897082E-36
   2.760000      1.1485757E-36
   2.770000      1.1826370E-36
   2.780000      1.2222564E-36
   2.790000      1.2808707E-36
   2.800000      1.3543568E-36
   2.810000      1.3888728E-36
   2.820000      1.3718658E-36
   2.830000      1.3432244E-36
   2.840000      1.3146867E-36
   2.850000      1.3007226E-36
   2.860000      1.3163550E-36
   2.870000      1.4128056E-36
   2.880000      1.5939722E-36
   2.890000      1.8102116E-36
   2.900000      2.0398127E-36
   2.910000      2.2738209E-36
   2.920000      2.4664580E-36
   2.930000      2.6118015E-36
   2.940000      2.7341972E-36
   2.950000      2.7608598E-36
   2.960000      2.6252976E-36
   2.970000      2.3701561E-36
   2.980000      2.0603581E-36
   2.990000      1.3539704E-36
   3.000000      7.5530579E-37
   3.010000      6.5401877E-37
   3.020000      5.4308078E-37
   3.030000      4.2184438E-37
   3.040000      3.4452562E-37
   3.050000      4.2483347E-37
   3.060000      5.7682086E-37
   3.070000      6.2787655E-37
   3.080000      3.2745621E-37
   3.090000     -5.2545325E-37
   3.100000     -1.7172571E-36
   3.110000     -3.0604068E-36
   3.120000     -4.3984604E-36
   3.130000     -5.6642412E-36
   3.140000     -6.6499589E-36
   3.150000     -7.3067191E-36
   3.160000     -7.9652506E-36
   3.170000     -8.6206497E-36
   3.180000     -9.0015668E-36
   3.190000     -8.8868220E-36
   3.200000     -8.1601635E-36
   3.210000     -7.1180753E-36
   3.220000     -6.2440037E-36
   3.230000     -5.5122969E-36
   3.240000     -4.8520147E-36
   3.250000     -5.0279174E-36
   3.260000     -6.2598296E-36
   3.270000     -7.6885725E-36
   3.280000     -8.8895713E-36
   3.290000     -9.8975713E-36
   3.300000     -1.0724642E-35
   3.310000     -1.1247778E-35
   3.320000     -1.2060035E-35
   3.330000     -1.3174032E-35
   3.340000     -1.3686284E-35
   3.350000     -1.3149477E-35
   3.360000     -1.1323945E-35
   3.370000     -9.2943004E-36
   3.380000     -7.2662203E-36
   3.390000     -4.4718183E-36
   3.400000     -1.4829999E-36
   3.410000      3.3802613E-37
   3.420000      6.0627732E-37
   3.430000      2.6963543E-37
   3.440000      1.7511438E-37
   3.450000      6.3649501E-37
   3.460000      1.7180586E-36
   3.470000      3.4003854E-36
   3.480000      5.3914173E-36
   3.490000      7.9026116E-36
   3.500000      1.1197551E-35
   3.510000      1.4995594E-35
   3.520000      1.9649448E-35
   3.530000      2.5453255E-35
   3.540000      3.1752464E-35
   3.550000      3.8822173E-35
   3.560000      4.6773520E-35
   3.570000      5.4386835E-35
   3.580000      6.1232167E-35
   3.590000      6.8002790E-35
   3.600000      7.3373858E-35
   3.610000      7.6459846E-35
   3.620000      7.8067404E-35
   3.630000      7.8928781E-35
   3.640000      7.8111054E-35
   3.650000      7.5313516E-35
   3.660000      7.2121159E-35
   3.670000      6.9240595E-35
   3.680000      6.4095391E-35
   3.690000      5.5770222E-35
   3.700000      5.0486484E-35
   3.710000      4.7593399E-35
   3.720000      4.4204112E-35
   3.730000      4.4456708E-35
   3.740000      5.0099277E-35
   3.750000      5.6876386E-35
   3.760000      6.1802568E-35
   3.770000      6.4184207E-35
   3.780000      6.0187739E-35
   3.790000      5.0405668E-35
   3.800000      3.4119524E-35
   3.810000      1.0496124E-35
   3.820000     -1.6909864E-35
   3.830000     -4.6532351E-35
   3.840000     -7.9521854E-35
   3.850000     -1.1423563E-34
   3.860000     -1.4645515E-34
   3.870000     -1.7822331E-34
   3.880000     -2.0936897E-34
   3.890000     -2.3821623E-34
   3.900000     -2.6434161E-34
   3.910000     -2.8816810E-34
   3.920000     -3.1705916E-34
   3.930000     -3.4373131E-34
   3.940000     -3.6144080E-34
   3.950000     -3.7564538E-34
   3.960000     -3.8868566E-34
   3.970000     -4.0273254E-34
   3.980000     -4.1953164E-34
   3.990000     -4.4293151E-34
   4.000000     -4.7444164E-34
   4.010000     -5.1521766E-34
   4.020000     -5.6463163E-34
   4.030000     -6.1810473E-34
   4.040000     -6.7805370E-34
   4.050000     -7.4123340E-34
   4.060000     -7.9855409E-34
   4.070000     -8.4197070E-34
   4.080000     -8.6440464E-34
   4.090000     -8.7116116E-34
   4.100000     -8.6763312E-34
   4.110000     -8.4948348E-34
   4.120000     -8.1706638E-34
   4.130000     -7.7637352E-34
   4.140000     -7.3053291E-34
   4.150000     -6.8330472E-34
   4.160000     -6.3627493E-34
   4.170000     -5.9284969E-34
   4.180000     -5.6268508E-34
   4.190000     -5.4212151E-34
   4.200000     -5.1997717E-34
   4.210000     -4.9134378E-34
   4.220000     -4.4376142E-34
   4.230000     -3.7052167E-34
   4.240000     -2.7604053E-34
   4.250000     -1.6283072E-34
   4.260000     -3.4182297E-35
   4.270000      1.1141599E-34
   4.280000      2.7140528E-34
   4.290000      4.3047131E-34
   4.300000      5.9429564E-34
   4.310000      7.7192740E-34
   4.320000      9.5952987E-34
   4.330000      1.1524822E-33
   4.340000      1.3399264E-33
   4.350000      1.5280810E-33
   4.360000      1.7312620E-33
   4.370000      1.9452868E-33
   4.380000      2.1535165E-33
   4.390000      2.3611870E-33
   4.400000      2.5851341E-33
   4.410000      2.8244297E-33
   4.420000      3.0777432E-33
   4.430000      3.3448181E-33
   4.440000      3.6239499E-33
   4.450000      3.9115680E-33
   4.460000      4.2014251E-33
   4.470000      4.4916311E-33
   4.480000      4.7739382E-33
   4.490000      5.0439974E-33
   4.500000      5.2995547E-33
   4.510000      5.5342439E-33
   4.520000      5.7463545E-33
   4.530000      5.9327655E-33
   4.540000      6.0921747E-33
   4.550000      6.2239539E-33
   4.560000      6.3280086E-33
   4.570000      6.4041740E-33
   4.580000      6.4524207E-33
   4.590000      6.4703265E-33
   4.600000      6.4555564E-33
   4.610000      6.4065640E-33
   4.620000      6.3180691E-33
   4.630000      6.1849855E-33
   4.640000      6.0013986E-33
   4.650000      5.7593636E-33
   4.660000      5.4537211E-33
   4.670000      5.0789742E-33
   4.680000      4.6277975E-33
   4.690000      4.0946667E-33
   4.700000      3.4762182E-33
   4.710000      2.7693589E-33
   4.720000      1.9733907E-33
   4.730000      1.0854586E-33
   4.740000      1.0190542E-34
   4.750000     -9.7551852E-34
   4.760000     -2.1465047E-33
   4.770000     -3.4095610E-33
   4.780000     -4.7643627E-33
   4.790000     -6.2143390E-33
   4.800000     -7.7593155E-33
   4.810000     -9.3969907E-33
   4.820000     -1.1135929E-32
   4.830000     -1.2982315E-32
   4.840000     -1.4933945E-32
   4.850000     -1.6990933E-32
   4.860000     -1.9152055E-32
   4.870000     -2.1415509E-32
   4.880000     -2.3777200E-32
   4.890000     -2.6231015E-32
   4.900000     -2.8768681E-32
   4.910000     -3.1380377E-32
   4.920000     -3.4054112E-32
   4.930000     -3.6777260E-32
   4.940000     -3.9535025E-32
   4.950000     -4.2311658E-32
   4.960000     -4.5092548E-32
   4.970000     -4.7861907E-32
   4.980000     -5.0603703E-32
   4.990000     -5.3301516E-32
   5.000000     -5.5938261E-32
   5.010000     -5.8495908E-32
   5.020000     -6.0955148E-32
   5.030000     -6.3294911E-32
   5.040000     -6.5492062E-32
   5.050000     -6.7521160E-32
   5.060000     -6.9354202E-32
   5.070000     -7.0960550E-32
   5.080000     -7.2307132E-32
   5.090000     -7.3358547E-32
   5.100000     -7.4077374E-32
   5.110000     -7.4424785E-32
   5.120000     -7.4360938E-32
   5.130000     -7.3845372E-32
   5.140000     -7.2837421E-32
   5.150000     -7.1296501E-32
   5.160000     -6.9182280E-32
   5.170000     -6.6454751E-32
   5.180000     -6.3074153E-32
   5.190000     -5.9000753E-32
   5.200000     -5.4194698E-32
   5.210000     -4.8615696E-32
   5.220000     -4.2222820E-32
   5.230000     -3.4974525E-32
   5.240000     -2.6828678E-32
   5.250000     -1.7742593E-32
   5.260000     -7.6741561E-33
   5.270000      3.4180804E-33
   5.280000      1.5574643E-32
   5.290000      2.8833586E-32
   5.300000      4.3229869E-32
   5.310000      5.8794548E-32
   5.320000      7.5554012E-32
   5.330000      9.3529336E-32
   5.340000      1.1273583E-31
   5.350000      1.3318273E-31
   5.360000      1.5487305E-31
   5.370000      1.7780338E-31
   5.380000      2.0196408E-31
   5.390000      2.2733913E-31
   5.400000      2.5390615E-31
   5.410000      2.8163622E-31
   5.420000      3.1049341E-31
   5.430000      3.4043433E-31
   5.440000      3.7140743E-31
   5.450000      4.0335203E-31
   5.460000      4.3619722E-31
   5.470000      4.6986089E-31
   5.480000      5.0424866E-31
   5.490000      5.3925277E-31
   5.500000      5.7475129E-31
   5.510000      6.1060753E-31
   5.520000      6.4666925E-31
   5.530000      6.8276873E-31
   5.540000      7.1872259E-31
   5.550000      7.5433184E-31
   5.560000      7.8938226E-31
   5.570000      8.2364435E-31
   5.580000      8.5687350E-31
   5.590000      8.8881037E-31
   5.600000      9.1918035E-31
   5.610000      9.4769361E-31
   5.620000      9.7404490E-31
   5.630000      9.9791280E-31
   5.640000      1.0189593E-30
   5.650000      1.0368297E-30
   5.660000      1.0511521E-30
   5.670000      1.0615370E-30
   5.680000      1.0675784E-30
   5.690000      1.0688532E-30
   5.700000      1.0649233E-30
   5.710000      1.0553363E-30
   5.720000      1.0396270E-30
   5.730000      1.0173192E-30
   5.740000      9.8792758E-31
   5.750000      9.5095998E-31
   5.760000      9.0591889E-31
   5.770000      8.5230356E-31
   5.780000      7.8961200E-31
   5.790000      7.1734275E-31
   5.800000      6.3499626E-31
   5.810000      5.4207729E-31
   5.820000      4.3809645E-31
   5.830000      3.2257232E-31
   5.840000      1.9503377E-31
   5.850000      5.5022381E-32
   5.860000     -9.7903745E-32
   5.870000     -2.6416675E-31
   5.880000     -4.4416505E-31
   5.890000     -6.3826884E-31
   5.900000     -8.4681522E-31
   5.910000     -1.0701029E-30
   5.920000     -1.3083873E-30
   5.930000     -1.5618746E-30
   5.940000     -1.8307173E-30
   5.950000     -2.1150085E-30
   5.960000     -2.4147772E-30
   5.970000     -2.7299824E-30
   5.980000     -3.0605092E-30
   5.990000     -3.4061636E-30
   6.000000     -3.7666668E-30
   6.010000     -4.1416514E-30
   6.020000     -4.5306550E-30
   6.030000     -4.9331150E-30
   6.040000     -5.3483628E-30
   6.050000     -5.7756175E-30
   6.060000     -6.2139802E-30
   6.070000     -6.6624266E-30
   6.080000     -7.1197996E-30
   6.090000     -7.5848064E-30
   6.100000     -8.0560092E-30
   6.110000     -8.5318192E-30
   6.120000     -9.0104926E-30
   6.130000     -9.4901259E-30
   6.140000     -9.9686495E-30
   6.150000     -1.0443825E-29
   6.160000     -1.0913245E-29
   6.170000     -1.1374324E-29
   6.180000     -1.1824304E-29
   6.190000     -1.2260246E-29
   6.200000     -1.2679032E-29
   6.210000     -1.3077359E-29
   6.220000     -1.3451745E-29
   6.230000     -1.3798522E-29
   6.240000     -1.4113842E-29
   6.250000     -1.4393675E-29
   6.260000     -1.4633807E-29
   6.270000     -1.4829847E-29
   6.280000     -1.4977230E-29
   6.290000     -1.5071219E-29
   6.300000     -1.5106916E-29
   6.310000     -1.5079275E-29
   6.320000     -1.4983100E-29
   6.330000     -1.4813063E-29
   6.340000     -1.4563723E-29
   6.350000     -1.4229530E-29
   6.360000     -1.3804848E-29
   6.370000     -1.3283969E-29
   6.380000     -1.2661134E-29
   6.390000     -1.1930548E-29
   6.400000     -1.1086407E-29
   6.410000     -1.0122919E-29
   6.420000     -9.0343267E-30
   6.430000     -7.8149370E-30
   6.440000     -6.4591410E-30
   6.450000     -4.9614528E-30
   6.460000     -3.3165379E-30
   6.470000     -1.5192510E-30
   6.480000      4.3532792E-31
   6.490000      2.5518641E-30
   6.500000      4.8347161E-30
   6.510000      7.2878957E-30
   6.520000      9.9150289E-30
   6.530000      1.2719302E-29
   6.540000      1.5703420E-29
   6.550000      1.8869554E-29
   6.560000      2.2219282E-29
   6.570000      2.5753556E-29
   6.580000      2.9472635E-29
   6.590000      3.3376029E-29
   6.600000      3.7462455E-29
   6.610000      4.1729771E-29
   6.620000      4.6174914E-29
   6.630000      5.0793850E-29
   6.640000      5.5581514E-29
   6.650000      6.0531743E-29
   6.660000      6.5637203E-29
   6.670000      7.0889371E-29
   6.680000      7.6278405E-29
   6.690000      8.1793167E-29
   6.700000      8.7421102E-29
   6.710000      9.3148192E-29
   6.720000      9.8958903E-29
   6.730000      1.0483614E-28
   6.740000      1.1076118E-28
   6.750000      1.1671363E-28
   6.760000      1.2267140E-28
   6.770000      1.2861063E-28
   6.780000      1.3450565E-28
   6.790000      1.4032899E-28
   6.800000      1.4605132E-28
   6.810000      1.5164140E-28
   6.820000      1.5706612E-28
   6.830000      1.6229042E-28
   6.840000      1.6727734E-28
   6.850000      1.7198799E-28
   6.860000      1.7638156E-28
   6.870000      1.8041533E-28
   6.880000      1.8404469E-28
   6.890000      1.8722321E-28
   6.900000      1.8990266E-28
   6.910000      1.9203304E-28
   6.920000      1.9356265E-28
   6.930000      1.9443820E-28
   6.940000      1.9460493E-28
   6.950000      1.9400658E-28
   6.960000      1.9258566E-28
   6.970000      1.9028346E-28
   6.980000      1.8704029E-28
   6.990000      1.8279558E-28
   7.000000      1.7748807E-28
   7.010000      1.7105599E-28
   7.020000      1.6343733E-28
   7.030000      1.5456994E-28
   7.040000      1.4439183E-28
   7.050000      1.3284145E-28
   7.060000      1.1985794E-28