  -2.600000      0.0000000E+00
  -2.590000      0.0000000E+00
  -2.580000      0.0000000E+00
  -2.570000      0.0000000E+00
  -2.560000      0.0000000E+00
  -2.550000      0.0000000E+00
  -2.540000      0.0000000E+00
  -2.530000      0.0000000E+00
  -2.520000      0.0000000E+00
  -2.510000      0.0000000E+00
  -2.500000      0.0000000E+00
  -2.490000      0.0000000E+00
  -2.480000      0.0000000E+00
  -2.470000      0.0000000E+00
  -2.460000      0.0000000E+00
  -2.450000      0.0000000E+00
  -2.440000      0.0000000E+00
  -2.430000      0.0000000E+00
  -2.420000      0.0000000E+00
  -2.410000      0.0000000E+00
  -2.400000      0.0000000E+00
  -2.390000      0.0000000E+00
  -2.380000      0.0000000E+00
  -2.370000      0.0000000E+00
  -2.360000      0.0000000E+00
  -2.350000      0.0000000E+00
  -2.340000      0.0000000E+00
  -2.330000      0.0000000E+00
  -2.320000      0.0000000E+00
  -2.310000      0.0000000E+00
  -2.300000      0.0000000E+00
  -2.290000      0.0000000E+00
  -2.280000      0.0000000E+00
  -2.270000      0.0000000E+00
  -2.260000      0.0000000E+00
  -2.250000      0.0000000E+00
  -2.240000      0.0000000E+00
  -2.230000      0.0000000E+00
  -2.220000      0.0000000E+00
  -2.210000      0.0000000E+00
  -2.200000      0.0000000E+00
  -2.190000      0.0000000E+00
  -2.180000      0.0000000E+00
  -2.170000      0.0000000E+00
  -2.160000      0.0000000E+00
  -2.150000      0.0000000E+00
  -2.140000      0.0000000E+00
  -2.130000      0.0000000E+00
  -2.120000      0.0000000E+00
  -2.110000      0.0000000E+00
  -2.100000      0.0000000E+00
  -2.090000      0.0000000E+00
  -2.080000      0.0000000E+00
  -2.070000      0.0000000E+00
  -2.060000      0.0000000E+00
  -2.050000      0.0000000E+00
  -2.040000      0.0000000E+00
  -2.030000      0.0000000E+00
  -2.020000      0.0000000E+00
  -2.010000      0.0000000E+00
  -2.000000      0.0000000E+00
  -1.990000      0.0000000E+00
  -1.980000      0.0000000E+00
  -1.970000      0.0000000E+00
  -1.960000      0.0000000E+00
  -1.950000      0.0000000E+00
  -1.940000      0.0000000E+00
  -1.930000      0.0000000E+00
  -1.920000      0.0000000E+00
  -1.910000      0.0000000E+00
  -1.900000      0.0000000E+00
  -1.890000      0.0000000E+00
  -1.880000      0.0000000E+00
  -1.870000      0.0000000E+00
  -1.860000      0.0000000E+00
  -1.850000      0.0000000E+00
  -1.840000      0.0000000E+00
  -1.830000      0.0000000E+00
  -1.820000      0.0000000E+00
  -1.810000      0.0000000E+00
  -1.800000      0.0000000E+00
  -1.790000      0.0000000E+00
  -1.780000      0.0000000E+00
  -1.770000      0.0000000E+00
  -1.760000      0.0000000E+00
  -1.750000      0.0000000E+00
  -1.740000      0.0000000E+00
  -1.730000      0.0000000E+00
  -1.720000      0.0000000E+00
  -1.710000      0.0000000E+00
  -1.700000      0.0000000E+00
  -1.690000      0.0000000E+00
  -1.680000      0.0000000E+00
  -1.670000      0.0000000E+00
  -1.660000      0.0000000E+00
  -1.650000      0.0000000E+00
  -1.640000      0.0000000E+00
  -1.630000      0.0000000E+00
  -1.620000      0.0000000E+00
  -1.610000      0.0000000E+00
  -1.600000      0.0000000E+00
  -1.590000      0.0000000E+00
  -1.580000      0.0000000E+00
  -1.570000      0.0000000E+00
  -1.560000      0.0000000E+00
  -1.550000      0.0000000E+00
  -1.540000      0.0000000E+00
  -1.530000      0.0000000E+00
  -1.520000      0.0000000E+00
  -1.510000      0.0000000E+00
  -1.500000      0.0000000E+00
  -1.490000      0.0000000E+00
  -1.480000      0.0000000E+00
  -1.470000      0.0000000E+00
  -1.460000      0.0000000E+00
  -1.450000      0.0000000E+00
  -1.440000      0.0000000E+00
  -1.430000      0.0000000E+00
  -1.420000      0.0000000E+00
  -1.410000      0.0000000E+00
  -1.400000      0.0000000E+00
  -1.390000      0.0000000E+00
  -1.380000      0.0000000E+00
  -1.370000      0.0000000E+00
  -1.360000      0.0000000E+00
  -1.350000      0.0000000E+00
  -1.340000      0.0000000E+00
  -1.330000      0.0000000E+00
  -1.320000      0.0000000E+00
  -1.310000      0.0000000E+00
  -1.300000      0.0000000E+00
  -1.290000      0.0000000E+00
  -1.280000      0.0000000E+00
  -1.270000      0.0000000E+00
  -1.260000      0.0000000E+00
  -1.250000      0.0000000E+00
  -1.240000      0.0000000E+00
  -1.230000      0.0000000E+00
  -1.220000      0.0000000E+00
  -1.210000      0.0000000E+00
  -1.200000      0.0000000E+00
  -1.190000      0.0000000E+00
  -1.180000      0.0000000E+00
  -1.170000      0.0000000E+00
  -1.160000      0.0000000E+00
  -1.150000      0.0000000E+00
  -1.140000      0.0000000E+00
  -1.130000      0.0000000E+00
  -1.120000      0.0000000E+00
  -1.110000      0.0000000E+00
  -1.100000      0.0000000E+00
  -1.090000      0.0000000E+00
  -1.080000      0.0000000E+00
  -1.070000      0.0000000E+00
  -1.060000      0.0000000E+00
  -1.050000      0.0000000E+00
  -1.040000      0.0000000E+00
  -1.030000      0.0000000E+00
  -1.020000      0.0000000E+00
  -1.010000      0.0000000E+00
  -1.000000      0.0000000E+00
 -0.9900000      0.0000000E+00
 -0.9800000      0.0000000E+00
 -0.9700000      0.0000000E+00
 -0.9600000      0.0000000E+00
 -0.9500000      0.0000000E+00
 -0.9400000      0.0000000E+00
 -0.9300000      0.0000000E+00
 -0.9200000      0.0000000E+00
 -0.9100000      0.0000000E+00
 -0.9000000      0.0000000E+00
 -0.8900000      0.0000000E+00
 -0.8800000      0.0000000E+00
 -0.8700000      0.0000000E+00
 -0.8600000      0.0000000E+00
 -0.8500000      0.0000000E+00
 -0.8400000      0.0000000E+00
 -0.8300000      0.0000000E+00
 -0.8200000      0.0000000E+00
 -0.8100000      0.0000000E+00
 -0.8000000      0.0000000E+00
 -0.7900000      0.0000000E+00
 -0.7800000      0.0000000E+00
 -0.7700000      0.0000000E+00
 -0.7600000      0.0000000E+00
 -0.7500000      0.0000000E+00
 -0.7400000      0.0000000E+00
 -0.7300000      0.0000000E+00
 -0.7200000      0.0000000E+00
 -0.7100000      0.0000000E+00
 -0.7000000      0.0000000E+00
 -0.6900000      0.0000000E+00
 -0.6800000      0.0000000E+00
 -0.6700000      0.0000000E+00
 -0.6600000      0.0000000E+00
 -0.6500000      0.0000000E+00
 -0.6400000      0.0000000E+00
 -0.6300000      0.0000000E+00
 -0.6200000      0.0000000E+00
 -0.6100000      0.0000000E+00
 -0.6000000      0.0000000E+00
 -0.5900000      0.0000000E+00
 -0.5800000      0.0000000E+00
 -0.5700000      0.0000000E+00
 -0.5600000      0.0000000E+00
 -0.5500000     -2.0316909E-38
 -0.5400000     -3.4047366E-38
 -0.5300000     -5.1444794E-38
 -0.5200000     -7.2186259E-38
 -0.5100000     -9.5818794E-38
 -0.5000000     -1.1448379E-37
 -0.4900000     -1.2349696E-37
 -0.4800000     -1.2541353E-37
 -0.4700000     -1.0635306E-37
 -0.4600000     -5.6413872E-38
 -0.4500000      2.0374381E-38
 -0.4400000      1.2218137E-37
 -0.4300000      2.0878421E-37
 -0.4200000      1.4045877E-37
 -0.4100000     -1.3434617E-37
 -0.4000000     -5.5229562E-37
 -0.3900000     -8.6126871E-37
 -0.3800000     -9.5384131E-37
 -0.3700000     -8.5109237E-37
 -0.3600000     -4.1297517E-37
 -0.3500000      2.8483454E-37
 -0.3400000      1.0643046E-36
 -0.3300000      2.0058630E-36
 -0.3200000      3.2693397E-36
 -0.3100000      4.8607972E-36
 -0.3000000      6.3150485E-36
 -0.2900000      7.3371424E-36
 -0.2800000      7.7413657E-36
 -0.2700000      7.3257111E-36
 -0.2600000      6.1366997E-36
 -0.2500000      3.9760221E-36
 -0.2400000      7.3337303E-37
 -0.2300000     -3.5718831E-36
 -0.2200000     -9.7983847E-36
 -0.2100000     -1.7312587E-35
 -0.2000000     -2.3935806E-35
 -0.1900000     -2.9831986E-35
 -0.1800000     -3.5736346E-35
 -0.1700000     -4.1434242E-35
 -0.1600000     -4.6111584E-35
 -0.1500000     -4.8550396E-35
 -0.1400000     -4.8151836E-35
 -0.1300000     -4.4561375E-35
 -0.1200000     -3.7643063E-35
 -0.1100000     -2.7981857E-35
 -0.1000000     -1.6131447E-35
 -9.0000004E-02 -1.8081485E-36
 -7.9999998E-02 -1.0644642E-36
 -7.0000000E-02 -2.1498317E-35
 -5.9999999E-02 -2.7637118E-35
 -5.0000001E-02 -8.7006936E-36
 -3.9999999E-02  2.0278286E-35
 -2.9999999E-02  6.0742884E-35
 -2.0000000E-02  1.2181333E-34
 -9.9999998E-03  2.0292979E-34
 -3.4694470E-17  2.9933918E-34
  9.9999998E-03  4.0171707E-34
  2.0000000E-02  4.9759617E-34
  2.9999999E-02  5.7978963E-34
  3.9999999E-02  6.4367697E-34
  5.0000001E-02  6.7512837E-34
  5.9999999E-02  6.6358842E-34
  7.0000000E-02  6.1212335E-34
  7.9999998E-02  5.0949502E-34
  9.0000004E-02  3.5010607E-34
  0.1000000      1.3983434E-34
  0.1100000     -1.2734506E-34
  0.1200000     -4.5953403E-34
  0.1300000     -8.3672570E-34
  0.1400000     -1.2479272E-33
  0.1500000     -1.6945084E-33
  0.1600000     -2.1491730E-33
  0.1700000     -2.5803861E-33
  0.1800000     -2.9634001E-33
  0.1900000     -3.2656522E-33
  0.2000000     -3.4499396E-33
  0.2100000     -3.4735572E-33
  0.2200000     -3.2914268E-33
  0.2300000     -2.8424776E-33
  0.2400000     -2.0581699E-33
  0.2500000     -8.6674755E-34
  0.2600000      8.1815178E-34
  0.2700000      3.0922870E-33
  0.2800000      6.0647346E-33
  0.2900000      9.8573092E-33
  0.3000000      1.4604975E-32
  0.3100000      2.0455939E-32
  0.3200000      2.7571661E-32
  0.3300000      3.6126809E-32
  0.3400000      4.6311662E-32
  0.3500000      5.8324585E-32
  0.3600000      7.2377368E-32
  0.3700000      8.8700805E-32
  0.3800000      1.0753761E-31
  0.3900000      1.2914495E-31
  0.4000000      1.5379506E-31
  0.4100000      1.8177564E-31
  0.4200000      2.1338942E-31
  0.4300000      2.4895388E-31
  0.4400000      2.8879997E-31
  0.4500000      3.3327068E-31
  0.4600000      3.8271886E-31
  0.4700000      4.3750423E-31
  0.4800000      4.9799047E-31
  0.4900000      5.6454151E-31
  0.5000000      6.3751831E-31
  0.5100000      7.1727537E-31
  0.5200000      8.0415794E-31
  0.5300000      8.9849955E-31
  0.5400000      1.0006214E-30
  0.5500000      1.1108312E-30
  0.5600000      1.2294246E-30
  0.5700000      1.3566880E-30
  0.5800000      1.4929011E-30
  0.5900000      1.6383423E-30
  0.6000000      1.7932951E-30
  0.6100000      1.9580537E-30
  0.6200000      2.1329321E-30
  0.6300000      2.3182720E-30
  0.6400000      2.5144509E-30
  0.6500000      2.7218927E-30
  0.6600000      2.9410741E-30
  0.6700000      3.1725351E-30
  0.6800000      3.4168860E-30
  0.6900000      3.6748154E-30
  0.7000000      3.9470952E-30
  0.7100000      4.2345862E-30
  0.7200000      4.5382440E-30
  0.7300000      4.8591179E-30
  0.7400000      5.1983550E-30
  0.7500000      5.5571971E-30
  0.7600000      5.9369804E-30
  0.7700000      6.3391322E-30
  0.7800000      6.7651690E-30
  0.7900000      7.2166897E-30
  0.8000000      7.6953728E-30
  0.8100000      8.2029757E-30
  0.8200000      8.7413311E-30
  0.8300000      9.3123498E-30
  0.8400000      9.9180231E-30
  0.8500000      1.0560427E-29
  0.8600000      1.1241736E-29
  0.8700000      1.1964236E-29
  0.8800000      1.2730341E-29
  0.8900000      1.3542616E-29
  0.9000000      1.4403791E-29
  0.9100000      1.5316797E-29
  0.9200000      1.6284782E-29
  0.9300000      1.7311133E-29
  0.9400000      1.8399498E-29
  0.9500000      1.9553806E-29
  0.9600000      2.0778274E-29
  0.9700000      2.2077412E-29
  0.9800000      2.3456015E-29
  0.9900000      2.4919158E-29
   1.000000      2.6472166E-29
   1.010000      2.8120605E-29
   1.020000      2.9870226E-29
   1.030000      3.1726933E-29
   1.040000      3.3696744E-29
   1.050000      3.5785746E-29
   1.060000      3.8000036E-29
   1.070000      4.0345690E-29
   1.080000      4.2828728E-29
   1.090000      4.5455103E-29
   1.100000      4.8230651E-29
   1.110000      5.1161131E-29
   1.120000      5.4252219E-29
   1.130000      5.7509544E-29
   1.140000      6.0938753E-29
   1.150000      6.4545574E-29
   1.160000      6.8335870E-29
   1.170000      7.2315762E-29
   1.180000      7.6491690E-29
   1.190000      8.0870575E-29
   1.200000      8.5459867E-29
   1.210000      9.0267668E-29
   1.220000      9.5302802E-29
   1.230000      1.0057485E-28
   1.240000      1.0609426E-28
   1.250000      1.1187229E-28
   1.260000      1.1792100E-28
   1.270000      1.2425321E-28
   1.280000      1.3088246E-28
   1.290000      1.3782277E-28
   1.300000      1.4508863E-28
   1.310000      1.5269480E-28
   1.320000      1.6065609E-28
   1.330000      1.6898720E-28
   1.340000      1.7770261E-28
   1.350000      1.8681638E-28
   1.360000      1.9634209E-28
   1.370000      2.0629259E-28
   1.380000      2.1668012E-28
   1.390000      2.2751620E-28
   1.400000      2.3881180E-28
   1.410000      2.5057740E-28
   1.420000      2.6282309E-28
   1.430000      2.7555897E-28
   1.440000      2.8879522E-28
   1.450000      3.0254241E-28
   1.460000      3.1681182E-28
   1.470000      3.3161560E-28
   1.480000      3.4696704E-28
   1.490000      3.6288078E-28
   1.500000      3.7937281E-28
   1.510000      3.9646043E-28
   1.520000      4.1416218E-28
   1.530000      4.3249761E-28
   1.540000      4.5148695E-28
   1.550000      4.7115064E-28
   1.560000      4.9150849E-28
   1.570000      5.1257942E-28
   1.580000      5.3438022E-28
   1.590000      5.5692525E-28
   1.600000      5.8022525E-28
   1.610000      6.0428681E-28
   1.620000      6.2911156E-28
   1.630000      6.5469547E-28
   1.640000      6.8102876E-28
   1.650000      7.0809520E-28
   1.660000      7.3587212E-28
   1.670000      7.6433082E-28
   1.680000      7.9343663E-28
   1.690000      8.2314949E-28
   1.700000      8.5342472E-28
   1.710000      8.8421370E-28
   1.720000      9.1546490E-28
   1.730000      9.4712507E-28
   1.740000      9.7913999E-28
   1.750000      1.0114553E-27
   1.760000      1.0440173E-27
   1.770000      1.0767741E-27
   1.780000      1.1096749E-27
   1.790000      1.1426709E-27
   1.800000      1.1757140E-27
   1.810000      1.2087568E-27
   1.820000      1.2417506E-27
   1.830000      1.2746447E-27
   1.840000      1.3073837E-27
   1.850000      1.3399067E-27
   1.860000      1.3721441E-27
   1.870000      1.4040156E-27
   1.880000      1.4354285E-27
   1.890000      1.4662752E-27
   1.900000      1.4964324E-27
   1.910000      1.5257594E-27
   1.920000      1.5540981E-27
   1.930000      1.5812719E-27
   1.940000      1.6070868E-27
   1.950000      1.6313333E-27
   1.960000      1.6537876E-27
   1.970000      1.6742142E-27
   1.980000      1.6923682E-27
   1.990000      1.7079994E-27
   2.000000      1.7208558E-27
   2.010000      1.7306857E-27
   2.020000      1.7372422E-27
   2.030000      1.7402845E-27
   2.040000      1.7395812E-27
   2.050000      1.7349108E-27
   2.060000      1.7260635E-27
   2.070000      1.7128393E-27
   2.080000      1.6950475E-27
   2.090000      1.6725034E-27
   2.100000      1.6450248E-27
   2.110000      1.6124288E-27
   2.120000      1.5745256E-27
   2.130000      1.5311141E-27
   2.140000      1.4819767E-27
   2.150000      1.4268747E-27
   2.160000      1.3655432E-27
   2.170000      1.2976892E-27
   2.180000      1.2229887E-27
   2.190000      1.1410873E-27
   2.200000      1.0516019E-27
   2.210000      9.5412447E-28
   2.220000      8.4822654E-28
   2.230000      7.3346683E-28
   2.240000      6.0940112E-28
   2.250000      4.7559174E-28
   2.260000      3.3161800E-28
   2.270000      1.7708867E-28
   2.280000      1.1653178E-29
   2.290000     -1.6498824E-28
   2.300000     -3.5307445E-28
   2.310000     -5.5277468E-28
   2.320000     -7.6418488E-28
   2.330000     -9.8732471E-28
   2.340000     -1.2221362E-27
   2.350000     -1.4684883E-27
   2.360000     -1.7261823E-27
   2.370000     -1.9949609E-27
   2.380000     -2.2745204E-27
   2.390000     -2.5645234E-27
   2.400000     -2.8646118E-27
   2.410000     -3.1744225E-27
   2.420000     -3.4936015E-27
   2.430000     -3.8218158E-27
   2.440000     -4.1587614E-27
   2.450000     -4.5041731E-27
   2.460000     -4.8578239E-27
   2.470000     -5.2195255E-27
   2.480000     -5.5891200E-27
   2.490000     -5.9664686E-27
   2.500000     -6.3514350E-27
   2.510000     -6.7438663E-27
   2.520000     -7.1435684E-27
   2.530000     -7.5502786E-27
   2.540000     -7.9636402E-27
   2.550000     -8.3831755E-27
   2.560000     -8.8082591E-27
   2.570000     -9.2381005E-27
   2.580000     -9.6717251E-27
   2.590000     -1.0107964E-26
   2.600000     -1.0545449E-26
   2.610000     -1.0982626E-26
   2.620000     -1.1417758E-26
   2.630000     -1.1848953E-26
   2.640000     -1.2274192E-26
   2.650000     -1.2691363E-26
   2.660000     -1.3098302E-26
   2.670000     -1.3492837E-26
   2.680000     -1.3872835E-26
   2.690000     -1.4236245E-26
   2.700000     -1.4581135E-26
   2.710000     -1.4905732E-26
   2.720000     -1.5208445E-26
   2.730000     -1.5487880E-26
   2.740000     -1.5742850E-26
   2.750000     -1.5972364E-26
   2.760000     -1.6175614E-26
   2.770000     -1.6351943E-26
   2.780000     -1.6500801E-26
   2.790000     -1.6621700E-26
   2.800000     -1.6714154E-26
   2.810000     -1.6777622E-26
   2.820000     -1.6811456E-26
   2.830000     -1.6814851E-26
   2.840000     -1.6786780E-26
   2.850000     -1.6725977E-26
   2.860000     -1.6630918E-26
   2.870000     -1.6499815E-26
   2.880000     -1.6330619E-26
   2.890000     -1.6121077E-26
   2.900000     -1.5868774E-26
   2.910000     -1.5571205E-26
   2.920000     -1.5225869E-26
   2.930000     -1.4830362E-26
   2.940000     -1.4382483E-26
   2.950000     -1.3880334E-26
   2.960000     -1.3322434E-26
   2.970000     -1.2707793E-26
   2.980000     -1.2036010E-26
   2.990000     -1.1307323E-26
   3.000000     -1.0522633E-26
   3.010000     -9.6835234E-27
   3.020000     -8.7922253E-27
   3.030000     -7.8515565E-27
   3.040000     -6.8648432E-27
   3.050000     -5.8358008E-27
   3.060000     -4.7684046E-27
   3.070000     -3.6667437E-27
   3.080000     -2.5348537E-27
   3.090000     -1.3765602E-27
   3.100000     -1.9532465E-28
   3.110000      1.0058909E-27
   3.120000      2.2247389E-27
   3.130000      3.4595661E-27
   3.140000      4.7094488E-27
   3.150000      5.9742062E-27
   3.160000      7.2543580E-27
   3.170000      8.5510342E-27
   3.180000      9.8658489E-27
   3.190000      1.1200744E-26
   3.200000      1.2557816E-26
   3.210000      1.3939109E-26
   3.220000      1.5346414E-26
   3.230000      1.6781064E-26
   3.240000      1.8243772E-26
   3.250000      1.9734490E-26
   3.260000      2.1252307E-26
   3.270000      2.2795424E-26
   3.280000      2.4361168E-26
   3.290000      2.5946091E-26
   3.300000      2.7546132E-26
   3.310000      2.9156838E-26
   3.320000      3.0773661E-26
   3.330000      3.2392280E-26
   3.340000      3.4008986E-26
   3.350000      3.5621063E-26
   3.360000      3.7227194E-26
   3.370000      3.8827808E-26
   3.380000      4.0425427E-26
   3.390000      4.2024944E-26
   3.400000      4.3633813E-26
   3.410000      4.5262173E-26
   3.420000      4.6922852E-26
   3.430000      4.8631287E-26
   3.440000      5.0405337E-26
   3.450000      5.2265006E-26
   3.460000      5.4232055E-26
   3.470000      5.6329587E-26
   3.480000      5.8581544E-26
   3.490000      6.1012203E-26
   3.500000      6.3645705E-26
   3.510000      6.6505572E-26
   3.520000      6.9614276E-26
   3.530000      7.2992936E-26
   3.540000      7.6661108E-26
   3.550000      8.0636671E-26
   3.560000      8.4935889E-26
   3.570000      8.9573560E-26
   3.580000      9.4563296E-26
   3.590000      9.9917991E-26
   3.600000      1.0565030E-25
   3.610000      1.1177323E-25
   3.620000      1.1830071E-25
   3.630000      1.2524825E-25
   3.640000      1.3263340E-25
   3.650000      1.4047633E-25
   3.660000      1.4880005E-25
   3.670000      1.5763056E-25
   3.680000      1.6699690E-25
   3.690000      1.7693085E-25
   3.700000      1.8746640E-25
   3.710000      1.9863912E-25
   3.720000      2.1048517E-25
   3.730000      2.2304019E-25
   3.740000      2.3633802E-25
   3.750000      2.5040930E-25
   3.760000      2.6527999E-25
   3.770000      2.8096987E-25
   3.780000      2.9749108E-25
   3.790000      3.1484698E-25
   3.800000      3.3303077E-25
   3.810000      3.5202464E-25
   3.820000      3.7179919E-25
   3.830000      3.9231283E-25
   3.840000      4.1351172E-25
   3.850000      4.3532978E-25
   3.860000      4.5768931E-25
   3.870000      4.8050134E-25
   3.880000      5.0366634E-25
   3.890000      5.2707520E-25
   3.900000      5.5061002E-25
   3.910000      5.7414500E-25
   3.920000      5.9754695E-25
   3.930000      6.2067571E-25
   3.940000      6.4338445E-25
   3.950000      6.6551920E-25
   3.960000      6.8691853E-25
   3.970000      7.0741215E-25
   3.980000      7.2681985E-25
   3.990000      7.4494951E-25
   4.000000      7.6159467E-25
   4.010000      7.7653244E-25
   4.020000      7.8952094E-25
   4.030000      8.0029643E-25
   4.040000      8.0857079E-25
   4.050000      8.1402917E-25
   4.060000      8.1632771E-25
   4.070000      8.1509196E-25
   4.080000      8.0991585E-25
   4.090000      8.0036062E-25
   4.100000      7.8595504E-25
   4.110000      7.6619659E-25
   4.120000      7.4055259E-25
   4.130000      7.0846222E-25
   4.140000      6.6933960E-25
   4.150000      6.2257701E-25
   4.160000      5.6754795E-25
   4.170000      5.0361156E-25
   4.180000      4.3011675E-25
   4.190000      3.4640539E-25
   4.200000      2.5181678E-25
   4.210000      1.4569062E-25
   4.220000      2.7369964E-26
   4.230000     -1.0379622E-25
   4.240000     -2.4845137E-25
   4.250000     -4.0722992E-25
   4.260000     -5.8075639E-25
   4.270000     -7.6964544E-25
   4.280000     -9.7450206E-25
   4.290000     -1.1959212E-24
   4.300000     -1.4344884E-24
   4.310000     -1.6907792E-24
   4.320000     -1.9653590E-24
   4.330000     -2.2587819E-24
   4.340000     -2.5715879E-24
   4.350000     -2.9042997E-24
   4.360000     -3.2574177E-24
   4.370000     -3.6314147E-24
   4.380000     -4.0267283E-24
   4.390000     -4.4437497E-24
   4.400000     -4.8828179E-24
   4.410000     -5.3442037E-24
   4.420000     -5.8280996E-24
   4.430000     -6.3346043E-24
   4.440000     -6.8637091E-24
   4.450000     -7.4152870E-24
   4.460000     -7.9890713E-24
   4.470000     -8.5846502E-24
   4.480000     -9.2014471E-24
   4.490000     -9.8387111E-24
   4.500000     -1.0495504E-23
   4.510000     -1.1170693E-23
   4.520000     -1.1862945E-23
   4.530000     -1.2570711E-23
   4.540000     -1.3292229E-23
   4.550000     -1.4025515E-23
   4.560000     -1.4768361E-23
   4.570000     -1.5518334E-23
   4.580000     -1.6272769E-23
   4.590000     -1.7028765E-23
   4.600000     -1.7783189E-23
   4.610000     -1.8532665E-23
   4.620000     -1.9273573E-23
   4.630000     -2.0002043E-23
   4.640000     -2.0713943E-23
   4.650000     -2.1404874E-23
   4.660000     -2.2070156E-23
   4.670000     -2.2704812E-23
   4.680000     -2.3303565E-23
   4.690000     -2.3860815E-23
   4.700000     -2.4370633E-23
   4.710000     -2.4826742E-23
   4.720000     -2.5222494E-23
   4.730000     -2.5550880E-23
   4.740000     -2.5804510E-23
   4.750000     -2.5975599E-23
   4.760000     -2.6055981E-23
   4.770000     -2.6037102E-23
   4.780000     -2.5910023E-23
   4.790000     -2.5665438E-23
   4.800000     -2.5293684E-23
   4.810000     -2.4784765E-23
   4.820000     -2.4128374E-23
   4.830000     -2.3313916E-23
   4.840000     -2.2330557E-23
   4.850000     -2.1167241E-23
   4.860000     -1.9812737E-23
   4.870000     -1.8255674E-23
   4.880000     -1.6484582E-23
   4.890000     -1.4487932E-23
   4.900000     -1.2254185E-23
   4.910000     -9.7718165E-24
   4.920000     -7.0293849E-24
   4.930000     -4.0155568E-24
   4.940000     -7.1914409E-25
   4.950000      2.8708380E-24
   4.960000      6.7651370E-24
   4.970000      1.0974231E-23
   4.980000      1.5508265E-23
   4.990000      2.0377008E-23
   5.000000      2.5589804E-23
   5.010000      3.1155512E-23
   5.020000      3.7082445E-23
   5.030000      4.3378275E-23
   5.040000      5.0049971E-23
   5.050000      5.7103703E-23
   5.060000      6.4544757E-23
   5.070000      7.2377414E-23
   5.080000      8.0604842E-23
   5.090000      8.9228972E-23
   5.100000      9.8250366E-23
   5.110000      1.0766809E-22
   5.120000      1.1747954E-22
   5.130000      1.2768033E-22
   5.140000      1.3826416E-22
   5.150000      1.4922265E-22
   5.160000      1.6054518E-22
   5.170000      1.7221880E-22
   5.180000      1.8422803E-22
   5.190000      1.9655477E-22
   5.200000      2.0917818E-22
   5.210000      2.2207454E-22
   5.220000      2.3521717E-22
   5.230000      2.4857618E-22
   5.240000      2.6211854E-22
   5.250000      2.7580794E-22
   5.260000      2.8960460E-22
   5.270000      3.0346525E-22
   5.280000      3.1734307E-22
   5.290000      3.3118759E-22
   5.300000      3.4494451E-22
   5.310000      3.5855573E-22
   5.320000      3.7195918E-22
   5.330000      3.8508865E-22
   5.340000      3.9787400E-22
   5.350000      4.1024069E-22
   5.360000      4.2211005E-22
   5.370000      4.3339902E-22
   5.380000      4.4402009E-22
   5.390000      4.5388118E-22
   5.400000      4.6288566E-22
   5.410000      4.7093249E-22
   5.420000      4.7791592E-22
   5.430000      4.8372572E-22
   5.440000      4.8824699E-22
   5.450000      4.9136048E-22
   5.460000      4.9294249E-22
   5.470000      4.9286535E-22
   5.480000      4.9099712E-22
   5.490000      4.8720201E-22
   5.500000      4.8134056E-22
   5.510000      4.7327004E-22
   5.520000      4.6284471E-22
   5.530000      4.4991643E-22
   5.540000      4.3433460E-22
   5.550000      4.1594669E-22
   5.560000      3.9459890E-22
   5.570000      3.7013631E-22
   5.580000      3.4240365E-22
   5.590000      3.1124571E-22
   5.600000      2.7650786E-22
   5.610000      2.3803659E-22
   5.620000      1.9568028E-22
   5.630000      1.4928981E-22
   5.640000      9.8718899E-23
   5.650000      4.3824950E-23
   5.660000     -1.5530100E-23
   5.670000     -7.9479150E-23
   5.680000     -1.4814913E-22
   5.690000     -2.2166015E-22
   5.700000     -3.0012452E-22
   5.710000     -3.8364595E-22
   5.720000     -4.7231851E-22
   5.730000     -5.6622563E-22
   5.740000     -6.6543873E-22
   5.750000     -7.7001665E-22
   5.760000     -8.8000395E-22
   5.770000     -9.9542978E-22
   5.780000     -1.1163068E-21
   5.790000     -1.2426296E-21
   5.800000     -1.3743734E-21
   5.810000     -1.5114930E-21
   5.820000     -1.6539208E-21
   5.830000     -1.8015654E-21
   5.840000     -1.9543113E-21
   5.850000     -2.1120161E-21
   5.860000     -2.2745096E-21
   5.870000     -2.4415924E-21
   5.880000     -2.6130349E-21
   5.890000     -2.7885753E-21
   5.900000     -2.9679192E-21
   5.910000     -3.1507364E-21
   5.920000     -3.3366618E-21
   5.930000     -3.5252935E-21
   5.940000     -3.7161901E-21
   5.950000     -3.9088719E-21
   5.960000     -4.1028191E-21
   5.970000     -4.2974707E-21
   5.980000     -4.4922228E-21
   5.990000     -4.6864285E-21
   6.000000     -4.8793971E-21
   6.010000     -5.0703926E-21
   6.020000     -5.2586343E-21
   6.030000     -5.4432943E-21
   6.040000     -5.6234989E-21
   6.050000     -5.7983261E-21
   6.060000     -5.9668076E-21
   6.070000     -6.1279264E-21
   6.080000     -6.2806196E-21
   6.090000     -6.4237744E-21
   6.100000     -6.5562319E-21
   6.110000     -6.6767878E-21
   6.120000     -6.7841896E-21
   6.130000     -6.8771400E-21
   6.140000     -6.9542980E-21
   6.150000     -7.0142783E-21
   6.160000     -7.0556568E-21
   6.170000     -7.0769680E-21
   6.180000     -7.0767127E-21
   6.190000     -7.0533570E-21
   6.200000     -7.0053336E-21
   6.210000     -6.9310481E-21
   6.220000     -6.8288816E-21
   6.230000     -6.6971959E-21
   6.240000     -6.5343359E-21
   6.250000     -6.3386341E-21
   6.260000     -6.1084150E-21
   6.270000     -5.8419998E-21
   6.280000     -5.5377117E-21
   6.290000     -5.1938836E-21
   6.300000     -4.8088622E-21
   6.310000     -4.3810139E-21
   6.320000     -3.9087317E-21
   6.330000     -3.3904425E-21
   6.340000     -2.8246146E-21
   6.350000     -2.2097662E-21
   6.360000     -1.5444699E-21
   6.370000     -8.2736605E-22
   6.380000     -5.7169577E-23
   6.390000      7.6732669E-22
   6.400000      1.6472360E-21
   6.410000      2.5835676E-21
   6.420000      3.5772201E-21
   6.430000      4.6289718E-21
   6.440000      5.7394674E-21
   6.450000      6.9092062E-21
   6.460000      8.1385347E-21
   6.470000      9.4276319E-21
   6.480000      1.0776499E-20
   6.490000      1.2184946E-20
   6.500000      1.3652585E-20
   6.510000      1.5178809E-20
   6.520000      1.6762783E-20
   6.530000      1.8403434E-20
   6.540000      2.0099440E-20
   6.550000      2.1849207E-20
   6.560000      2.3650869E-20
   6.570000      2.5502269E-20
   6.580000      2.7400952E-20
   6.590000      2.9344151E-20
   6.600000      3.1328768E-20
   6.610000      3.3351379E-20
   6.620000      3.5408206E-20
   6.630000      3.7495128E-20
   6.640000      3.9607644E-20
   6.650000      4.1740884E-20
   6.660000      4.3889606E-20
   6.670000      4.6048159E-20
   6.680000      4.8210513E-20
   6.690000      5.0370217E-20
   6.700000      5.2520411E-20
   6.710000      5.4653826E-20
   6.720000      5.6762769E-20
   6.730000      5.8839141E-20
   6.740000      6.0874393E-20
   6.750000      6.2859568E-20
   6.760000      6.4785270E-20
   6.770000      6.6641703E-20
   6.780000      6.8418642E-20
   6.790000      7.0105444E-20
   6.800000      7.1691059E-20
   6.810000      7.3164048E-20
   6.820000      7.4512572E-20
   6.830000      7.5724424E-20
   6.840000      7.6787028E-20
   6.850000      7.7687465E-20
   6.860000      7.8412509E-20
   6.870000      7.8948599E-20
   6.880000      7.9281901E-20
   6.890000      7.9398327E-20
   6.900000      7.9283556E-20
   6.910000      7.8923086E-20
   6.920000      7.8302248E-20
   6.930000      7.7406218E-20
   6.940000      7.6220066E-20
   6.950000      7.4728815E-20
   6.960000      7.2917483E-20
   6.970000      7.0771111E-20
   6.980000      6.8274835E-20
   6.990000      6.5413934E-20
   7.000000      6.2173835E-20
   7.010000      5.8540250E-20
   7.020000      5.4499150E-20
   7.030000      5.0036876E-20
   7.040000      4.5140196E-20
   7.050000      3.9796377E-20
   7.060000      3.3993217E-20