  -2.600000      0.0000000E+00
  -2.590000      0.0000000E+00
  -2.580000      0.0000000E+00
  -2.570000      0.0000000E+00
  -2.560000      0.0000000E+00
  -2.550000      0.0000000E+00
  -2.540000      0.0000000E+00
  -2.530000      0.0000000E+00
  -2.520000      0.0000000E+00
  -2.510000      0.0000000E+00
  -2.500000      0.0000000E+00
  -2.490000      0.0000000E+00
  -2.480000      0.0000000E+00
  -2.470000      0.0000000E+00
  -2.460000      0.0000000E+00
  -2.450000      0.0000000E+00
  -2.440000      0.0000000E+00
  -2.430000      0.0000000E+00
  -2.420000      0.0000000E+00
  -2.410000      0.0000000E+00
  -2.400000      0.0000000E+00
  -2.390000      0.0000000E+00
  -2.380000      0.0000000E+00
  -2.370000      0.0000000E+00
  -2.360000      0.0000000E+00
  -2.350000      0.0000000E+00
  -2.340000      0.0000000E+00
  -2.330000      0.0000000E+00
  -2.320000      0.0000000E+00
  -2.310000      0.0000000E+00
  -2.300000      0.0000000E+00
  -2.290000      0.0000000E+00
  -2.280000      0.0000000E+00
  -2.270000      0.0000000E+00
  -2.260000      0.0000000E+00
  -2.250000      0.0000000E+00
  -2.240000      0.0000000E+00
  -2.230000      0.0000000E+00
  -2.220000      0.0000000E+00
  -2.210000      0.0000000E+00
  -2.200000      0.0000000E+00
  -2.190000      0.0000000E+00
  -2.180000      0.0000000E+00
  -2.170000      0.0000000E+00
  -2.160000      0.0000000E+00
  -2.150000      0.0000000E+00
  -2.140000      0.0000000E+00
  -2.130000      0.0000000E+00
  -2.120000      0.0000000E+00
  -2.110000      0.0000000E+00
  -2.100000      0.0000000E+00
  -2.090000      0.0000000E+00
  -2.080000      0.0000000E+00
  -2.070000      0.0000000E+00
  -2.060000      0.0000000E+00
  -2.050000      0.0000000E+00
  -2.040000      0.0000000E+00
  -2.030000      0.0000000E+00
  -2.020000      0.0000000E+00
  -2.010000      0.0000000E+00
  -2.000000      0.0000000E+00
  -1.990000      0.0000000E+00
  -1.980000      0.0000000E+00
  -1.970000      0.0000000E+00
  -1.960000      0.0000000E+00
  -1.950000      0.0000000E+00
  -1.940000      0.0000000E+00
  -1.930000      0.0000000E+00
  -1.920000      0.0000000E+00
  -1.910000      0.0000000E+00
  -1.900000      0.0000000E+00
  -1.890000      0.0000000E+00
  -1.880000      0.0000000E+00
  -1.870000      0.0000000E+00
  -1.860000      0.0000000E+00
  -1.850000      0.0000000E+00
  -1.840000      0.0000000E+00
  -1.830000      0.0000000E+00
  -1.820000      0.0000000E+00
  -1.810000      0.0000000E+00
  -1.800000      0.0000000E+00
  -1.790000      0.0000000E+00
  -1.780000      0.0000000E+00
  -1.770000      0.0000000E+00
  -1.760000      0.0000000E+00
  -1.750000      0.0000000E+00
  -1.740000      0.0000000E+00
  -1.730000      0.0000000E+00
  -1.720000      0.0000000E+00
  -1.710000      0.0000000E+00
  -1.700000      0.0000000E+00
  -1.690000      0.0000000E+00
  -1.680000      0.0000000E+00
  -1.670000      0.0000000E+00
  -1.660000      0.0000000E+00
  -1.650000      0.0000000E+00
  -1.640000      0.0000000E+00
  -1.630000      0.0000000E+00
  -1.620000      0.0000000E+00
  -1.610000      0.0000000E+00
  -1.600000      0.0000000E+00
  -1.590000      0.0000000E+00
  -1.580000      0.0000000E+00
  -1.570000      0.0000000E+00
  -1.560000      0.0000000E+00
  -1.550000      0.0000000E+00
  -1.540000      0.0000000E+00
  -1.530000      0.0000000E+00
  -1.520000      0.0000000E+00
  -1.510000      0.0000000E+00
  -1.500000      0.0000000E+00
  -1.490000      0.0000000E+00
  -1.480000      0.0000000E+00
  -1.470000      0.0000000E+00
  -1.460000      0.0000000E+00
  -1.450000      0.0000000E+00
  -1.440000      0.0000000E+00
  -1.430000      0.0000000E+00
  -1.420000      0.0000000E+00
  -1.410000      0.0000000E+00
  -1.400000      0.0000000E+00
  -1.390000      0.0000000E+00
  -1.380000      0.0000000E+00
  -1.370000      0.0000000E+00
  -1.360000      0.0000000E+00
  -1.350000      0.0000000E+00
  -1.340000      0.0000000E+00
  -1.330000      0.0000000E+00
  -1.320000      0.0000000E+00
  -1.310000      0.0000000E+00
  -1.300000      0.0000000E+00
  -1.290000      0.0000000E+00
  -1.280000      0.0000000E+00
  -1.270000      0.0000000E+00
  -1.260000      0.0000000E+00
  -1.250000      0.0000000E+00
  -1.240000      0.0000000E+00
  -1.230000      0.0000000E+00
  -1.220000      0.0000000E+00
  -1.210000      0.0000000E+00
  -1.200000      0.0000000E+00
  -1.190000      0.0000000E+00
  -1.180000      0.0000000E+00
  -1.170000      0.0000000E+00
  -1.160000      0.0000000E+00
  -1.150000      0.0000000E+00
  -1.140000      0.0000000E+00
  -1.130000      0.0000000E+00
  -1.120000      0.0000000E+00
  -1.110000      0.0000000E+00
  -1.100000      0.0000000E+00
  -1.090000      0.0000000E+00
  -1.080000      0.0000000E+00
  -1.070000      0.0000000E+00
  -1.060000      0.0000000E+00
  -1.050000      0.0000000E+00
  -1.040000      0.0000000E+00
  -1.030000      0.0000000E+00
  -1.020000      0.0000000E+00
  -1.010000      0.0000000E+00
  -1.000000      0.0000000E+00
 -0.9900000      0.0000000E+00
 -0.9800000      0.0000000E+00
 -0.9700000      0.0000000E+00
 -0.9600000      0.0000000E+00
 -0.9500000      0.0000000E+00
 -0.9400000      0.0000000E+00
 -0.9300000      0.0000000E+00
 -0.9200000      0.0000000E+00
 -0.9100000      0.0000000E+00
 -0.9000000      0.0000000E+00
 -0.8900000      0.0000000E+00
 -0.8800000      0.0000000E+00
 -0.8700000      0.0000000E+00
 -0.8600000      0.0000000E+00
 -0.8500000      0.0000000E+00
 -0.8400000      0.0000000E+00
 -0.8300000      0.0000000E+00
 -0.8200000      0.0000000E+00
 -0.8100000      0.0000000E+00
 -0.8000000      0.0000000E+00
 -0.7900000      0.0000000E+00
 -0.7800000      0.0000000E+00
 -0.7700000      0.0000000E+00
 -0.7600000      0.0000000E+00
 -0.7500000      0.0000000E+00
 -0.7400000      0.0000000E+00
 -0.7300000      0.0000000E+00
 -0.7200000      0.0000000E+00
 -0.7100000      0.0000000E+00
 -0.7000000      0.0000000E+00
 -0.6900000      0.0000000E+00
 -0.6800000      0.0000000E+00
 -0.6700000      0.0000000E+00
 -0.6600000      0.0000000E+00
 -0.6500000      0.0000000E+00
 -0.6400000      0.0000000E+00
 -0.6300000      0.0000000E+00
 -0.6200000      0.0000000E+00
 -0.6100000      0.0000000E+00
 -0.6000000      0.0000000E+00
 -0.5900000      0.0000000E+00
 -0.5800000      0.0000000E+00
 -0.5700000      0.0000000E+00
 -0.5600000      0.0000000E+00
 -0.5500000      0.0000000E+00
 -0.5400000      0.0000000E+00
 -0.5300000      0.0000000E+00
 -0.5200000      0.0000000E+00
 -0.5100000      0.0000000E+00
 -0.5000000      0.0000000E+00
 -0.4900000      0.0000000E+00
 -0.4800000      0.0000000E+00
 -0.4700000      0.0000000E+00
 -0.4600000      0.0000000E+00
 -0.4500000      0.0000000E+00
 -0.4400000      0.0000000E+00
 -0.4300000      0.0000000E+00
 -0.4200000      0.0000000E+00
 -0.4100000      0.0000000E+00
 -0.4000000      0.0000000E+00
 -0.3900000      0.0000000E+00
 -0.3800000      0.0000000E+00
 -0.3700000      0.0000000E+00
 -0.3600000      0.0000000E+00
 -0.3500000      0.0000000E+00
 -0.3400000      0.0000000E+00
 -0.3300000      0.0000000E+00
 -0.3200000      0.0000000E+00
 -0.3100000      0.0000000E+00
 -0.3000000      0.0000000E+00
 -0.2900000      0.0000000E+00
 -0.2800000      0.0000000E+00
 -0.2700000      0.0000000E+00
 -0.2600000      0.0000000E+00
 -0.2500000      0.0000000E+00
 -0.2400000      0.0000000E+00
 -0.2300000      0.0000000E+00
 -0.2200000      0.0000000E+00
 -0.2100000      0.0000000E+00
 -0.2000000      0.0000000E+00
 -0.1900000      0.0000000E+00
 -0.1800000      0.0000000E+00
 -0.1700000      0.0000000E+00
 -0.1600000      0.0000000E+00
 -0.1500000      0.0000000E+00
 -0.1400000      0.0000000E+00
 -0.1300000      0.0000000E+00
 -0.1200000      0.0000000E+00
 -0.1100000      0.0000000E+00
 -0.1000000      0.0000000E+00
 -9.0000004E-02  0.0000000E+00
 -7.9999998E-02  0.0000000E+00
 -7.0000000E-02  0.0000000E+00
 -5.9999999E-02  0.0000000E+00
 -5.0000001E-02  0.0000000E+00
 -3.9999999E-02  0.0000000E+00
 -2.9999999E-02  0.0000000E+00
 -2.0000000E-02  0.0000000E+00
 -9.9999998E-03  0.0000000E+00
 -3.4694470E-17  0.0000000E+00
  9.9999998E-03  0.0000000E+00
  2.0000000E-02  0.0000000E+00
  2.9999999E-02  0.0000000E+00
  3.9999999E-02  0.0000000E+00
  5.0000001E-02  0.0000000E+00
  5.9999999E-02  0.0000000E+00
  7.0000000E-02  0.0000000E+00
  7.9999998E-02  0.0000000E+00
  9.0000004E-02  0.0000000E+00
  0.1000000      0.0000000E+00
  0.1100000      0.0000000E+00
  0.1200000      0.0000000E+00
  0.1300000      0.0000000E+00
  0.1400000      0.0000000E+00
  0.1500000      0.0000000E+00
  0.1600000      0.0000000E+00
  0.1700000      0.0000000E+00
  0.1800000      0.0000000E+00
  0.1900000      0.0000000E+00
  0.2000000      0.0000000E+00
  0.2100000      0.0000000E+00
  0.2200000      0.0000000E+00
  0.2300000      0.0000000E+00
  0.2400000      0.0000000E+00
  0.2500000      0.0000000E+00
  0.2600000      0.0000000E+00
  0.2700000      0.0000000E+00
  0.2800000      0.0000000E+00
  0.2900000      0.0000000E+00
  0.3000000      0.0000000E+00
  0.3100000      0.0000000E+00
  0.3200000      0.0000000E+00
  0.3300000      0.0000000E+00
  0.3400000      0.0000000E+00
  0.3500000      0.0000000E+00
  0.3600000      0.0000000E+00
  0.3700000      0.0000000E+00
  0.3800000      0.0000000E+00
  0.3900000      0.0000000E+00
  0.4000000      0.0000000E+00
  0.4100000      0.0000000E+00
  0.4200000      0.0000000E+00
  0.4300000      0.0000000E+00
  0.4400000      0.0000000E+00
  0.4500000      0.0000000E+00
  0.4600000      0.0000000E+00
  0.4700000      0.0000000E+00
  0.4800000      0.0000000E+00
  0.4900000      0.0000000E+00
  0.5000000      0.0000000E+00
  0.5100000      0.0000000E+00
  0.5200000      0.0000000E+00
  0.5300000      0.0000000E+00
  0.5400000      0.0000000E+00
  0.5500000      0.0000000E+00
  0.5600000      0.0000000E+00
  0.5700000      0.0000000E+00
  0.5800000      0.0000000E+00
  0.5900000      0.0000000E+00
  0.6000000      0.0000000E+00
  0.6100000      0.0000000E+00
  0.6200000      0.0000000E+00
  0.6300000      0.0000000E+00
  0.6400000      0.0000000E+00
  0.6500000      0.0000000E+00
  0.6600000      0.0000000E+00
  0.6700000      0.0000000E+00
  0.6800000      0.0000000E+00
  0.6900000      0.0000000E+00
  0.7000000      0.0000000E+00
  0.7100000      0.0000000E+00
  0.7200000      0.0000000E+00
  0.7300000      0.0000000E+00
  0.7400000      0.0000000E+00
  0.7500000      0.0000000E+00
  0.7600000      0.0000000E+00
  0.7700000      0.0000000E+00
  0.7800000      0.0000000E+00
  0.7900000      0.0000000E+00
  0.8000000      0.0000000E+00
  0.8100000      0.0000000E+00
  0.8200000      0.0000000E+00
  0.8300000      0.0000000E+00
  0.8400000      0.0000000E+00
  0.8500000      0.0000000E+00
  0.8600000      0.0000000E+00
  0.8700000      0.0000000E+00
  0.8800000      0.0000000E+00
  0.8900000      0.0000000E+00
  0.9000000      0.0000000E+00
  0.9100000      0.0000000E+00
  0.9200000      0.0000000E+00
  0.9300000      0.0000000E+00
  0.9400000      0.0000000E+00
  0.9500000      0.0000000E+00
  0.9600000      0.0000000E+00
  0.9700000      0.0000000E+00
  0.9800000      0.0000000E+00
  0.9900000      0.0000000E+00
   1.000000      0.0000000E+00
   1.010000      0.0000000E+00
   1.020000      0.0000000E+00
   1.030000      0.0000000E+00
   1.040000      0.0000000E+00
   1.050000      0.0000000E+00
   1.060000      0.0000000E+00
   1.070000      0.0000000E+00
   1.080000      0.0000000E+00
   1.090000      0.0000000E+00
   1.100000      0.0000000E+00
   1.110000      0.0000000E+00
   1.120000      0.0000000E+00
   1.130000      0.0000000E+00
   1.140000      0.0000000E+00
   1.150000      0.0000000E+00
   1.160000      0.0000000E+00
   1.170000      0.0000000E+00
   1.180000      0.0000000E+00
   1.190000      0.0000000E+00
   1.200000      0.0000000E+00
   1.210000      0.0000000E+00
   1.220000      0.0000000E+00
   1.230000      0.0000000E+00
   1.240000      0.0000000E+00
   1.250000      0.0000000E+00
   1.260000      0.0000000E+00
   1.270000      0.0000000E+00
   1.280000      0.0000000E+00
   1.290000      0.0000000E+00
   1.300000      0.0000000E+00
   1.310000      0.0000000E+00
   1.320000      0.0000000E+00
   1.330000      0.0000000E+00
   1.340000      0.0000000E+00
   1.350000      0.0000000E+00
   1.360000      0.0000000E+00
   1.370000      0.0000000E+00
   1.380000      0.0000000E+00
   1.390000      0.0000000E+00
   1.400000      0.0000000E+00
   1.410000      0.0000000E+00
   1.420000      0.0000000E+00
   1.430000      0.0000000E+00
   1.440000      0.0000000E+00
   1.450000      0.0000000E+00
   1.460000      0.0000000E+00
   1.470000      0.0000000E+00
   1.480000      0.0000000E+00
   1.490000      0.0000000E+00
   1.500000      0.0000000E+00
   1.510000      0.0000000E+00
   1.520000      0.0000000E+00
   1.530000      0.0000000E+00
   1.540000      0.0000000E+00
   1.550000      0.0000000E+00
   1.560000      0.0000000E+00
   1.570000      0.0000000E+00
   1.580000      0.0000000E+00
   1.590000      0.0000000E+00
   1.600000      0.0000000E+00
   1.610000      0.0000000E+00
   1.620000      0.0000000E+00
   1.630000      0.0000000E+00
   1.640000      0.0000000E+00
   1.650000      0.0000000E+00
   1.660000      0.0000000E+00
   1.670000      0.0000000E+00
   1.680000      0.0000000E+00
   1.690000      0.0000000E+00
   1.700000      0.0000000E+00
   1.710000      0.0000000E+00
   1.720000      0.0000000E+00
   1.730000      0.0000000E+00
   1.740000      0.0000000E+00
   1.750000      0.0000000E+00
   1.760000      0.0000000E+00
   1.770000      0.0000000E+00
   1.780000      0.0000000E+00
   1.790000      0.0000000E+00
   1.800000      0.0000000E+00
   1.810000      0.0000000E+00
   1.820000      0.0000000E+00
   1.830000      0.0000000E+00
   1.840000      0.0000000E+00
   1.850000      0.0000000E+00
   1.860000      0.0000000E+00
   1.870000      0.0000000E+00
   1.880000      0.0000000E+00
   1.890000      0.0000000E+00
   1.900000      0.0000000E+00
   1.910000      0.0000000E+00
   1.920000      0.0000000E+00
   1.930000      0.0000000E+00
   1.940000      0.0000000E+00
   1.950000      0.0000000E+00
   1.960000      0.0000000E+00
   1.970000      0.0000000E+00
   1.980000      0.0000000E+00
   1.990000      0.0000000E+00
   2.000000      0.0000000E+00
   2.010000      0.0000000E+00
   2.020000      0.0000000E+00
   2.030000      0.0000000E+00
   2.040000      0.0000000E+00
   2.050000      0.0000000E+00
   2.060000      0.0000000E+00
   2.070000      0.0000000E+00
   2.080000      0.0000000E+00
   2.090000      0.0000000E+00
   2.100000      0.0000000E+00
   2.110000      0.0000000E+00
   2.120000      0.0000000E+00
   2.130000      0.0000000E+00
   2.140000      0.0000000E+00
   2.150000      0.0000000E+00
   2.160000      0.0000000E+00
   2.170000      0.0000000E+00
   2.180000      0.0000000E+00
   2.190000      0.0000000E+00
   2.200000      0.0000000E+00
   2.210000      0.0000000E+00
   2.220000      0.0000000E+00
   2.230000      0.0000000E+00
   2.240000      0.0000000E+00
   2.250000      0.0000000E+00
   2.260000      0.0000000E+00
   2.270000      0.0000000E+00
   2.280000      0.0000000E+00
   2.290000      0.0000000E+00
   2.300000      0.0000000E+00
   2.310000      0.0000000E+00
   2.320000      0.0000000E+00
   2.330000      0.0000000E+00
   2.340000      0.0000000E+00
   2.350000      0.0000000E+00
   2.360000      0.0000000E+00
   2.370000      0.0000000E+00
   2.380000      0.0000000E+00
   2.390000      0.0000000E+00
   2.400000      0.0000000E+00
   2.410000      0.0000000E+00
   2.420000      0.0000000E+00
   2.430000      0.0000000E+00
   2.440000      0.0000000E+00
   2.450000      0.0000000E+00
   2.460000      0.0000000E+00
   2.470000      0.0000000E+00
   2.480000      0.0000000E+00
   2.490000      0.0000000E+00
   2.500000      0.0000000E+00
   2.510000      0.0000000E+00
   2.520000      0.0000000E+00
   2.530000      0.0000000E+00
   2.540000      0.0000000E+00
   2.550000      0.0000000E+00
   2.560000      0.0000000E+00
   2.570000      0.0000000E+00
   2.580000      0.0000000E+00
   2.590000      0.0000000E+00
   2.600000      0.0000000E+00
   2.610000      0.0000000E+00
   2.620000      0.0000000E+00
   2.630000      0.0000000E+00
   2.640000      0.0000000E+00
   2.650000      0.0000000E+00
   2.660000      0.0000000E+00
   2.670000      0.0000000E+00
   2.680000      0.0000000E+00
   2.690000      0.0000000E+00
   2.700000      0.0000000E+00
   2.710000      0.0000000E+00
   2.720000      0.0000000E+00
   2.730000      0.0000000E+00
   2.740000      0.0000000E+00
   2.750000      0.0000000E+00
   2.760000      0.0000000E+00
   2.770000      0.0000000E+00
   2.780000      0.0000000E+00
   2.790000      0.0000000E+00
   2.800000      0.0000000E+00
   2.810000      0.0000000E+00
   2.820000      0.0000000E+00
   2.830000      0.0000000E+00
   2.840000      0.0000000E+00
   2.850000      0.0000000E+00
   2.860000      0.0000000E+00
   2.870000      0.0000000E+00
   2.880000      0.0000000E+00
   2.890000      0.0000000E+00
   2.900000      0.0000000E+00
   2.910000      0.0000000E+00
   2.920000      0.0000000E+00
   2.930000      0.0000000E+00
   2.940000      0.0000000E+00
   2.950000      0.0000000E+00
   2.960000      0.0000000E+00
   2.970000      0.0000000E+00
   2.980000      0.0000000E+00
   2.990000      0.0000000E+00
   3.000000      0.0000000E+00
   3.010000      0.0000000E+00
   3.020000      0.0000000E+00
   3.030000      0.0000000E+00
   3.040000      0.0000000E+00
   3.050000      0.0000000E+00
   3.060000      0.0000000E+00
   3.070000      0.0000000E+00
   3.080000      0.0000000E+00
   3.090000      0.0000000E+00
   3.100000      0.0000000E+00
   3.110000      0.0000000E+00
   3.120000      0.0000000E+00
   3.130000      0.0000000E+00
   3.140000      0.0000000E+00
   3.150000      0.0000000E+00
   3.160000      0.0000000E+00
   3.170000      0.0000000E+00
   3.180000      0.0000000E+00
   3.190000      0.0000000E+00
   3.200000      0.0000000E+00
   3.210000      0.0000000E+00
   3.220000      0.0000000E+00
   3.230000      0.0000000E+00
   3.240000      0.0000000E+00
   3.250000      0.0000000E+00
   3.260000     -1.2763639E-38
   3.270000     -1.5989855E-38
   3.280000     -1.8849112E-38
   3.290000     -2.1561778E-38
   3.300000     -2.4261171E-38
   3.310000     -2.6840594E-38
   3.320000     -2.9307303E-38
   3.330000     -3.1716443E-38
   3.340000     -3.4193095E-38
   3.350000     -3.6987015E-38
   3.360000     -3.9969654E-38
   3.370000     -4.3220038E-38
   3.380000     -4.6812993E-38
   3.390000     -5.0290365E-38
   3.400000     -5.3728535E-38
   3.410000     -5.6756029E-38
   3.420000     -5.8883172E-38
   3.430000     -6.0658920E-38
   3.440000     -6.2191963E-38
   3.450000     -6.3705534E-38
   3.460000     -6.5925852E-38
   3.470000     -6.8569749E-38
   3.480000     -7.0763162E-38
   3.490000     -7.2746695E-38
   3.500000     -7.4764503E-38
   3.510000     -7.6567150E-38
   3.520000     -7.8259207E-38
   3.530000     -7.9945086E-38
   3.540000     -8.1463382E-38
   3.550000     -8.2257453E-38
   3.560000     -8.2039865E-38
   3.570000     -7.9924061E-38
   3.580000     -7.5900580E-38
   3.590000     -7.0728713E-38
   3.600000     -6.4007037E-38
   3.610000     -5.5400436E-38
   3.620000     -4.4539352E-38
   3.630000     -3.1120689E-38
   3.640000     -1.5008340E-38
   3.650000      0.0000000E+00
   3.660000      2.8230379E-38
   3.670000      5.2888014E-38
   3.680000      7.8998543E-38
   3.690000      1.0682149E-37
   3.700000      1.3649482E-37
   3.710000      1.6548638E-37
   3.720000      1.9136291E-37
   3.730000      2.2355858E-37
   3.740000      2.6457434E-37
   3.750000      3.0849615E-37
   3.760000      3.6608360E-37
   3.770000      4.3929909E-37
   3.780000      5.1896625E-37
   3.790000      6.0294891E-37
   3.800000      7.0045807E-37
   3.810000      8.1226810E-37
   3.820000      9.2765833E-37
   3.830000      1.0436667E-36
   3.840000      1.1310810E-36
   3.850000      1.1893317E-36
   3.860000      1.2411224E-36
   3.870000      1.2838540E-36
   3.880000      1.3161218E-36
   3.890000      1.3389557E-36
   3.900000      1.3439635E-36
   3.910000      1.3297928E-36
   3.920000      1.3077454E-36
   3.930000      1.2825530E-36
   3.940000      1.2539920E-36
   3.950000      1.2202256E-36
   3.960000      1.1538149E-36
   3.970000      1.0548939E-36
   3.980000      9.6781044E-37
   3.990000      8.8859004E-37
   4.000000      8.0040581E-37
   4.010000      6.9910377E-37
   4.020000      5.7304529E-37
   4.030000      4.2476823E-37
   4.040000      2.6359740E-37
   4.050000      8.5166627E-38
   4.060000     -1.0539377E-37
   4.070000     -3.0451063E-37
   4.080000     -5.2572947E-37
   4.090000     -8.0908175E-37
   4.100000     -1.1499633E-36
   4.110000     -1.5082987E-36
   4.120000     -1.9042399E-36
   4.130000     -2.3398732E-36
   4.140000     -2.7332755E-36
   4.150000     -3.0818952E-36
   4.160000     -3.4263411E-36
   4.170000     -3.7617096E-36
   4.180000     -4.0961153E-36
   4.190000     -4.3996826E-36
   4.200000     -4.6565303E-36
   4.210000     -4.8801354E-36
   4.220000     -5.0502628E-36
   4.230000     -5.1775568E-36
   4.240000     -5.3050199E-36
   4.250000     -5.4388722E-36
   4.260000     -5.5570010E-36
   4.270000     -5.6671889E-36
   4.280000     -5.7301048E-36
   4.290000     -5.7722197E-36
   4.300000     -5.8482946E-36
   4.310000     -5.9184494E-36
   4.320000     -5.9171544E-36
   4.330000     -5.8816589E-36
   4.340000     -5.8456307E-36
   4.350000     -5.7130557E-36
   4.360000     -5.5081542E-36
   4.370000     -5.2326947E-36
   4.380000     -4.8586897E-36
   4.390000     -4.4561826E-36
   4.400000     -4.0360786E-36
   4.410000     -3.5625909E-36
   4.420000     -3.0181930E-36
   4.430000     -2.3671426E-36
   4.440000     -1.6113991E-36
   4.450000     -7.6383869E-37
   4.460000      1.7479131E-37
   4.470000      1.2040726E-36
   4.480000      2.3260801E-36
   4.490000      3.5426526E-36
   4.500000      4.9876511E-36
   4.510000      6.6751226E-36
   4.520000      8.4784137E-36
   4.530000      1.0374187E-35
   4.540000      1.2380579E-35
   4.550000      1.4573165E-35
   4.560000      1.6958107E-35
   4.570000      1.9552965E-35
   4.580000      2.2396057E-35
   4.590000      2.5227314E-35
   4.600000      2.7900697E-35
   4.610000      3.0642354E-35
   4.620000      3.3171217E-35
   4.630000      3.5175328E-35
   4.640000      3.7134647E-35
   4.650000      3.9220782E-35
   4.660000      4.1196769E-35
   4.670000      4.3113775E-35
   4.680000      4.4924289E-35
   4.690000      4.7717130E-35
   4.700000      5.1355115E-35
   4.710000      5.4863513E-35
   4.720000      5.8494206E-35
   4.730000      6.1848773E-35
   4.740000      6.4704421E-35
   4.750000      6.6537549E-35
   4.760000      6.7093756E-35
   4.770000      6.4522546E-35
   4.780000      5.8028284E-35
   4.790000      4.9733966E-35
   4.800000      4.0453527E-35
   4.810000      3.0410234E-35
   4.820000      2.0285950E-35
   4.830000      1.1157769E-35
   4.840000      3.1955990E-36
   4.850000     -3.9802573E-36
   4.860000     -1.0675394E-35
   4.870000     -1.4691544E-35
   4.880000     -1.6367960E-35
   4.890000     -1.9606016E-35
   4.900000     -2.5217557E-35
   4.910000     -3.2943734E-35
   4.920000     -4.2830919E-35
   4.930000     -5.3667924E-35
   4.940000     -6.6344781E-35
   4.950000     -8.8483822E-35
   4.960000     -1.1970640E-34
   4.970000     -1.5297823E-34
   4.980000     -1.8700391E-34
   4.990000     -2.1771296E-34
   5.000000     -2.4444674E-34
   5.010000     -2.7047053E-34
   5.020000     -2.9559146E-34
   5.030000     -3.1931193E-34
   5.040000     -3.4154888E-34
   5.050000     -3.5944269E-34
   5.060000     -3.7410138E-34
   5.070000     -3.8940716E-34
   5.080000     -4.0405102E-34
   5.090000     -4.1780463E-34
   5.100000     -4.3076248E-34
   5.110000     -4.4261362E-34
   5.120000     -4.5538036E-34
   5.130000     -4.7130670E-34
   5.140000     -4.8748375E-34
   5.150000     -4.9754631E-34
   5.160000     -5.0358352E-34
   5.170000     -5.0947721E-34
   5.180000     -5.1417496E-34
   5.190000     -5.1666072E-34
   5.200000     -5.1548058E-34
   5.210000     -5.1026961E-34
   5.220000     -5.0600904E-34
   5.230000     -5.0300721E-34
   5.240000     -4.9728912E-34
   5.250000     -4.8727285E-34
   5.260000     -4.7124581E-34
   5.270000     -4.4945711E-34
   5.280000     -4.2010106E-34
   5.290000     -3.8392114E-34
   5.300000     -3.4017420E-34
   5.310000     -2.8609044E-34
   5.320000     -2.2180187E-34
   5.330000     -1.4722797E-34
   5.340000     -6.2703452E-35
   5.350000      3.2092215E-35
   5.360000      1.3666377E-34
   5.370000      2.5376671E-34
   5.380000      3.8285362E-34
   5.390000      5.2126369E-34
   5.400000      6.6984990E-34
   5.410000      8.2759128E-34
   5.420000      9.9354188E-34
   5.430000      1.1675673E-33
   5.440000      1.3487723E-33
   5.450000      1.5360479E-33
   5.460000      1.7294000E-33
   5.470000      1.9277712E-33
   5.480000      2.1302990E-33
   5.490000      2.3367101E-33
   5.500000      2.5465236E-33
   5.510000      2.7573295E-33
   5.520000      2.9685312E-33
   5.530000      3.1815368E-33
   5.540000      3.3950812E-33
   5.550000      3.6094943E-33
   5.560000      3.8244499E-33
   5.570000      4.0389765E-33
   5.580000      4.2533335E-33
   5.590000      4.4648659E-33
   5.600000      4.6728031E-33
   5.610000      4.8777704E-33
   5.620000      5.0789382E-33
   5.630000      5.2748946E-33
   5.640000      5.4639556E-33
   5.650000      5.6450501E-33
   5.660000      5.8167946E-33
   5.670000      5.9747641E-33
   5.680000      6.1166470E-33
   5.690000      6.2412439E-33
   5.700000      6.3445023E-33
   5.710000      6.4228233E-33
   5.720000      6.4726392E-33
   5.730000      6.4899726E-33
   5.740000      6.4705593E-33
   5.750000      6.4110948E-33
   5.760000      6.3082001E-33
   5.770000      6.1578856E-33
   5.780000      5.9567133E-33
   5.790000      5.7011814E-33
   5.800000      5.3885535E-33
   5.810000      5.0162576E-33
   5.820000      4.5811263E-33
   5.830000      4.0808150E-33
   5.840000      3.5132180E-33
   5.850000      2.8763269E-33
   5.860000      2.1679896E-33
   5.870000      1.3864224E-33
   5.880000      5.3032928E-34
   5.890000     -4.0178521E-34
   5.900000     -1.4113047E-33
   5.910000     -2.5013673E-33
   5.920000     -3.6713962E-33
   5.930000     -4.9198101E-33
   5.940000     -6.2491623E-33
   5.950000     -7.6608855E-33
   5.960000     -9.1558351E-33
   5.970000     -1.0734634E-32
   5.980000     -1.2398096E-32
   5.990000     -1.4146941E-32
   6.000000     -1.5981351E-32
   6.010000     -1.7901392E-32
   6.020000     -1.9906741E-32
   6.030000     -2.1996979E-32
   6.040000     -2.4170772E-32
   6.050000     -2.6426036E-32
   6.060000     -2.8760089E-32
   6.070000     -3.1169235E-32
   6.080000     -3.3649052E-32
   6.090000     -3.6194026E-32
   6.100000     -3.8797505E-32
   6.110000     -4.1451651E-32
   6.120000     -4.4147747E-32
   6.130000     -4.6875232E-32
   6.140000     -4.9622342E-32
   6.150000     -5.2377448E-32
   6.160000     -5.5125995E-32
   6.170000     -5.7852266E-32
   6.180000     -6.0541004E-32
   6.190000     -6.3175075E-32
   6.200000     -6.5736342E-32
   6.210000     -6.8205856E-32
   6.220000     -7.0563709E-32
   6.230000     -7.2789126E-32
   6.240000     -7.4860505E-32
   6.250000     -7.6755479E-32
   6.260000     -7.8450806E-32
   6.270000     -7.9922660E-32
   6.280000     -8.1146462E-32
   6.290000     -8.2096772E-32
   6.300000     -8.2747497E-32
   6.310000     -8.3071827E-32
   6.320000     -8.3042199E-32
   6.330000     -8.2630329E-32
   6.340000     -8.1807189E-32
   6.350000     -8.0543016E-32
   6.360000     -7.8807292E-32
   6.370000     -7.6568793E-32
   6.380000     -7.3795590E-32
   6.390000     -7.0455117E-32
   6.400000     -6.6514172E-32
   6.410000     -6.1939131E-32
   6.420000     -5.6695967E-32
   6.430000     -5.0750358E-32
   6.440000     -4.4067940E-32
   6.450000     -3.6614468E-32
   6.460000     -2.8356051E-32
   6.470000     -1.9259405E-32
   6.480000     -9.2922241E-33
   6.490000      1.5765934E-33
   6.500000      1.3376710E-32
   6.510000      2.6135865E-32
   6.520000      3.9879595E-32
   6.530000      5.4630882E-32
   6.540000      7.0409808E-32
   6.550000      8.7233195E-32
   6.560000      1.0511429E-31
   6.570000      1.2406247E-31
   6.580000      1.4408274E-31
   6.590000      1.6517555E-31
   6.600000      1.8733664E-31
   6.610000      2.1055650E-31
   6.620000      2.3482014E-31
   6.630000      2.6010690E-31
   6.640000      2.8638999E-31
   6.650000      3.1363640E-31
   6.660000      3.4180644E-31
   6.670000      3.7085352E-31
   6.680000      4.0072386E-31
   6.690000      4.3135621E-31
   6.700000      4.6268149E-31
   6.710000      4.9462244E-31
   6.720000      5.2709345E-31
   6.730000      5.6000010E-31
   6.740000      5.9323885E-31
   6.750000      6.2669671E-31
   6.760000      6.6025091E-31
   6.770000      6.9376858E-31
   6.780000      7.2710640E-31
   6.790000      7.6011019E-31
   6.800000      7.9261487E-31
   6.810000      8.2444406E-31
   6.820000      8.5540940E-31
   6.830000      8.8531125E-31
   6.840000      9.1393755E-31
   6.850000      9.4106457E-31
   6.860000      9.6645610E-31
   6.870000      9.8986404E-31
   6.880000      1.0110282E-30
   6.890000      1.0296763E-30
   6.900000      1.0455249E-30
   6.910000      1.0582788E-30
   6.920000      1.0676317E-30
   6.930000      1.0732674E-30
   6.940000      1.0748595E-30
   6.950000      1.0720726E-30
   6.960000      1.0645627E-30
   6.970000      1.0519782E-30
   6.980000      1.0339610E-30
   6.990000      1.0101472E-30
   7.000000      9.8016828E-31
   7.010000      9.4365254E-31
   7.020000      9.0022602E-31
   7.030000      8.4951406E-31
   7.040000      7.9114240E-31
   7.050000      7.2473910E-31
   7.060000      6.4993600E-31