  -2.600000      0.0000000E+00
  -2.590000      0.0000000E+00
  -2.580000      0.0000000E+00
  -2.570000      0.0000000E+00
  -2.560000      0.0000000E+00
  -2.550000      0.0000000E+00
  -2.540000      0.0000000E+00
  -2.530000      0.0000000E+00
  -2.520000      0.0000000E+00
  -2.510000      0.0000000E+00
  -2.500000      0.0000000E+00
  -2.490000      0.0000000E+00
  -2.480000      0.0000000E+00
  -2.470000      0.0000000E+00
  -2.460000      0.0000000E+00
  -2.450000      0.0000000E+00
  -2.440000      0.0000000E+00
  -2.430000      0.0000000E+00
  -2.420000      0.0000000E+00
  -2.410000      0.0000000E+00
  -2.400000      0.0000000E+00
  -2.390000      0.0000000E+00
  -2.380000      0.0000000E+00
  -2.370000      0.0000000E+00
  -2.360000      0.0000000E+00
  -2.350000      0.0000000E+00
  -2.340000      0.0000000E+00
  -2.330000      0.0000000E+00
  -2.320000      0.0000000E+00
  -2.310000      0.0000000E+00
  -2.300000      0.0000000E+00
  -2.290000      0.0000000E+00
  -2.280000      0.0000000E+00
  -2.270000      0.0000000E+00
  -2.260000      0.0000000E+00
  -2.250000      0.0000000E+00
  -2.240000      0.0000000E+00
  -2.230000      0.0000000E+00
  -2.220000      0.0000000E+00
  -2.210000      0.0000000E+00
  -2.200000      0.0000000E+00
  -2.190000      0.0000000E+00
  -2.180000      0.0000000E+00
  -2.170000      0.0000000E+00
  -2.160000      0.0000000E+00
  -2.150000      0.0000000E+00
  -2.140000      0.0000000E+00
  -2.130000      0.0000000E+00
  -2.120000      0.0000000E+00
  -2.110000      0.0000000E+00
  -2.100000      0.0000000E+00
  -2.090000      0.0000000E+00
  -2.080000      0.0000000E+00
  -2.070000      0.0000000E+00
  -2.060000      0.0000000E+00
  -2.050000      0.0000000E+00
  -2.040000      0.0000000E+00
  -2.030000      0.0000000E+00
  -2.020000      0.0000000E+00
  -2.010000      0.0000000E+00
  -2.000000      0.0000000E+00
  -1.990000      0.0000000E+00
  -1.980000      0.0000000E+00
  -1.970000      0.0000000E+00
  -1.960000      0.0000000E+00
  -1.950000      0.0000000E+00
  -1.940000      0.0000000E+00
  -1.930000      0.0000000E+00
  -1.920000      0.0000000E+00
  -1.910000      0.0000000E+00
  -1.900000      0.0000000E+00
  -1.890000      0.0000000E+00
  -1.880000      0.0000000E+00
  -1.870000      0.0000000E+00
  -1.860000      0.0000000E+00
  -1.850000      0.0000000E+00
  -1.840000      0.0000000E+00
  -1.830000      0.0000000E+00
  -1.820000      0.0000000E+00
  -1.810000      0.0000000E+00
  -1.800000      0.0000000E+00
  -1.790000      0.0000000E+00
  -1.780000      0.0000000E+00
  -1.770000      0.0000000E+00
  -1.760000      0.0000000E+00
  -1.750000      0.0000000E+00
  -1.740000      0.0000000E+00
  -1.730000      0.0000000E+00
  -1.720000      0.0000000E+00
  -1.710000      0.0000000E+00
  -1.700000      0.0000000E+00
  -1.690000      0.0000000E+00
  -1.680000      0.0000000E+00
  -1.670000      0.0000000E+00
  -1.660000      0.0000000E+00
  -1.650000      0.0000000E+00
  -1.640000      0.0000000E+00
  -1.630000      0.0000000E+00
  -1.620000      0.0000000E+00
  -1.610000      0.0000000E+00
  -1.600000      0.0000000E+00
  -1.590000      0.0000000E+00
  -1.580000      0.0000000E+00
  -1.570000      0.0000000E+00
  -1.560000      0.0000000E+00
  -1.550000      0.0000000E+00
  -1.540000      0.0000000E+00
  -1.530000      0.0000000E+00
  -1.520000      0.0000000E+00
  -1.510000      0.0000000E+00
  -1.500000      0.0000000E+00
  -1.490000      0.0000000E+00
  -1.480000      0.0000000E+00
  -1.470000      0.0000000E+00
  -1.460000      0.0000000E+00
  -1.450000      0.0000000E+00
  -1.440000      0.0000000E+00
  -1.430000      0.0000000E+00
  -1.420000      0.0000000E+00
  -1.410000      0.0000000E+00
  -1.400000      0.0000000E+00
  -1.390000      0.0000000E+00
  -1.380000      0.0000000E+00
  -1.370000      0.0000000E+00
  -1.360000      0.0000000E+00
  -1.350000      0.0000000E+00
  -1.340000      0.0000000E+00
  -1.330000      0.0000000E+00
  -1.320000      0.0000000E+00
  -1.310000      0.0000000E+00
  -1.300000      0.0000000E+00
  -1.290000      0.0000000E+00
  -1.280000      0.0000000E+00
  -1.270000      0.0000000E+00
  -1.260000      0.0000000E+00
  -1.250000      0.0000000E+00
  -1.240000      0.0000000E+00
  -1.230000      0.0000000E+00
  -1.220000      0.0000000E+00
  -1.210000      0.0000000E+00
  -1.200000      0.0000000E+00
  -1.190000      0.0000000E+00
  -1.180000      0.0000000E+00
  -1.170000      0.0000000E+00
  -1.160000      0.0000000E+00
  -1.150000      0.0000000E+00
  -1.140000      0.0000000E+00
  -1.130000      0.0000000E+00
  -1.120000      0.0000000E+00
  -1.110000      0.0000000E+00
  -1.100000      0.0000000E+00
  -1.090000      0.0000000E+00
  -1.080000      0.0000000E+00
  -1.070000      0.0000000E+00
  -1.060000      0.0000000E+00
  -1.050000      0.0000000E+00
  -1.040000      0.0000000E+00
  -1.030000      0.0000000E+00
  -1.020000      0.0000000E+00
  -1.010000      0.0000000E+00
  -1.000000      0.0000000E+00
 -0.9900000      0.0000000E+00
 -0.9800000      0.0000000E+00
 -0.9700000      0.0000000E+00
 -0.9600000      0.0000000E+00
 -0.9500000      0.0000000E+00
 -0.9400000      0.0000000E+00
 -0.9300000      0.0000000E+00
 -0.9200000      0.0000000E+00
 -0.9100000      0.0000000E+00
 -0.9000000      0.0000000E+00
 -0.8900000      0.0000000E+00
 -0.8800000      0.0000000E+00
 -0.8700000      0.0000000E+00
 -0.8600000      0.0000000E+00
 -0.8500000      0.0000000E+00
 -0.8400000      0.0000000E+00
 -0.8300000      0.0000000E+00
 -0.8200000      0.0000000E+00
 -0.8100000      0.0000000E+00
 -0.8000000      0.0000000E+00
 -0.7900000      0.0000000E+00
 -0.7800000      0.0000000E+00
 -0.7700000      0.0000000E+00
 -0.7600000      0.0000000E+00
 -0.7500000      0.0000000E+00
 -0.7400000      0.0000000E+00
 -0.7300000      0.0000000E+00
 -0.7200000      0.0000000E+00
 -0.7100000      0.0000000E+00
 -0.7000000      0.0000000E+00
 -0.6900000      0.0000000E+00
 -0.6800000      0.0000000E+00
 -0.6700000      0.0000000E+00
 -0.6600000      0.0000000E+00
 -0.6500000      0.0000000E+00
 -0.6400000      0.0000000E+00
 -0.6300000      0.0000000E+00
 -0.6200000      0.0000000E+00
 -0.6100000      0.0000000E+00
 -0.6000000      0.0000000E+00
 -0.5900000      0.0000000E+00
 -0.5800000      0.0000000E+00
 -0.5700000      0.0000000E+00
 -0.5600000      0.0000000E+00
 -0.5500000      0.0000000E+00
 -0.5400000      0.0000000E+00
 -0.5300000      0.0000000E+00
 -0.5200000      0.0000000E+00
 -0.5100000      0.0000000E+00
 -0.5000000      0.0000000E+00
 -0.4900000      0.0000000E+00
 -0.4800000      0.0000000E+00
 -0.4700000      0.0000000E+00
 -0.4600000      0.0000000E+00
 -0.4500000      0.0000000E+00
 -0.4400000      0.0000000E+00
 -0.4300000      0.0000000E+00
 -0.4200000      0.0000000E+00
 -0.4100000      0.0000000E+00
 -0.4000000      0.0000000E+00
 -0.3900000      0.0000000E+00
 -0.3800000      0.0000000E+00
 -0.3700000      0.0000000E+00
 -0.3600000      0.0000000E+00
 -0.3500000      0.0000000E+00
 -0.3400000      0.0000000E+00
 -0.3300000      0.0000000E+00
 -0.3200000      0.0000000E+00
 -0.3100000      0.0000000E+00
 -0.3000000      0.0000000E+00
 -0.2900000      0.0000000E+00
 -0.2800000      0.0000000E+00
 -0.2700000      0.0000000E+00
 -0.2600000      0.0000000E+00
 -0.2500000      0.0000000E+00
 -0.2400000      0.0000000E+00
 -0.2300000      0.0000000E+00
 -0.2200000      0.0000000E+00
 -0.2100000      0.0000000E+00
 -0.2000000      0.0000000E+00
 -0.1900000      0.0000000E+00
 -0.1800000      0.0000000E+00
 -0.1700000      0.0000000E+00
 -0.1600000      0.0000000E+00
 -0.1500000      0.0000000E+00
 -0.1400000      0.0000000E+00
 -0.1300000      0.0000000E+00
 -0.1200000      0.0000000E+00
 -0.1100000      0.0000000E+00
 -0.1000000      0.0000000E+00
 -9.0000004E-02  0.0000000E+00
 -7.9999998E-02  0.0000000E+00
 -7.0000000E-02  0.0000000E+00
 -5.9999999E-02  0.0000000E+00
 -5.0000001E-02  0.0000000E+00
 -3.9999999E-02  0.0000000E+00
 -2.9999999E-02  0.0000000E+00
 -2.0000000E-02  0.0000000E+00
 -9.9999998E-03  0.0000000E+00
 -3.4694470E-17  0.0000000E+00
  9.9999998E-03  0.0000000E+00
  2.0000000E-02  0.0000000E+00
  2.9999999E-02  0.0000000E+00
  3.9999999E-02  0.0000000E+00
  5.0000001E-02  0.0000000E+00
  5.9999999E-02  0.0000000E+00
  7.0000000E-02  0.0000000E+00
  7.9999998E-02  0.0000000E+00
  9.0000004E-02  0.0000000E+00
  0.1000000      0.0000000E+00
  0.1100000      0.0000000E+00
  0.1200000      0.0000000E+00
  0.1300000      0.0000000E+00
  0.1400000      0.0000000E+00
  0.1500000      0.0000000E+00
  0.1600000      0.0000000E+00
  0.1700000      0.0000000E+00
  0.1800000      0.0000000E+00
  0.1900000      0.0000000E+00
  0.2000000      0.0000000E+00
  0.2100000      0.0000000E+00
  0.2200000      0.0000000E+00
  0.2300000      0.0000000E+00
  0.2400000      0.0000000E+00
  0.2500000      0.0000000E+00
  0.2600000      0.0000000E+00
  0.2700000      0.0000000E+00
  0.2800000      0.0000000E+00
  0.2900000      0.0000000E+00
  0.3000000      0.0000000E+00
  0.3100000      0.0000000E+00
  0.3200000      0.0000000E+00
  0.3300000      0.0000000E+00
  0.3400000      0.0000000E+00
  0.3500000      0.0000000E+00
  0.3600000      0.0000000E+00
  0.3700000      0.0000000E+00
  0.3800000      0.0000000E+00
  0.3900000      0.0000000E+00
  0.4000000      0.0000000E+00
  0.4100000      0.0000000E+00
  0.4200000      0.0000000E+00
  0.4300000      0.0000000E+00
  0.4400000      0.0000000E+00
  0.4500000      0.0000000E+00
  0.4600000      0.0000000E+00
  0.4700000      0.0000000E+00
  0.4800000      0.0000000E+00
  0.4900000      0.0000000E+00
  0.5000000      0.0000000E+00
  0.5100000      0.0000000E+00
  0.5200000      0.0000000E+00
  0.5300000      0.0000000E+00
  0.5400000      0.0000000E+00
  0.5500000      0.0000000E+00
  0.5600000      0.0000000E+00
  0.5700000      0.0000000E+00
  0.5800000      0.0000000E+00
  0.5900000      0.0000000E+00
  0.6000000      0.0000000E+00
  0.6100000      0.0000000E+00
  0.6200000      0.0000000E+00
  0.6300000      0.0000000E+00
  0.6400000      0.0000000E+00
  0.6500000      0.0000000E+00
  0.6600000      0.0000000E+00
  0.6700000      0.0000000E+00
  0.6800000      0.0000000E+00
  0.6900000      0.0000000E+00
  0.7000000      0.0000000E+00
  0.7100000      0.0000000E+00
  0.7200000      0.0000000E+00
  0.7300000      0.0000000E+00
  0.7400000      0.0000000E+00
  0.7500000      0.0000000E+00
  0.7600000      0.0000000E+00
  0.7700000      0.0000000E+00
  0.7800000      0.0000000E+00
  0.7900000      0.0000000E+00
  0.8000000      0.0000000E+00
  0.8100000      0.0000000E+00
  0.8200000      0.0000000E+00
  0.8300000      0.0000000E+00
  0.8400000      0.0000000E+00
  0.8500000      0.0000000E+00
  0.8600000      0.0000000E+00
  0.8700000      0.0000000E+00
  0.8800000      0.0000000E+00
  0.8900000      0.0000000E+00
  0.9000000      0.0000000E+00
  0.9100000      0.0000000E+00
  0.9200000      0.0000000E+00
  0.9300000      0.0000000E+00
  0.9400000      0.0000000E+00
  0.9500000      0.0000000E+00
  0.9600000      0.0000000E+00
  0.9700000      0.0000000E+00
  0.9800000      0.0000000E+00
  0.9900000      0.0000000E+00
   1.000000      0.0000000E+00
   1.010000      0.0000000E+00
   1.020000      0.0000000E+00
   1.030000      0.0000000E+00
   1.040000      0.0000000E+00
   1.050000      0.0000000E+00
   1.060000      0.0000000E+00
   1.070000      0.0000000E+00
   1.080000      0.0000000E+00
   1.090000      0.0000000E+00
   1.100000      0.0000000E+00
   1.110000      0.0000000E+00
   1.120000      0.0000000E+00
   1.130000      0.0000000E+00
   1.140000      0.0000000E+00
   1.150000      0.0000000E+00
   1.160000      0.0000000E+00
   1.170000      0.0000000E+00
   1.180000      0.0000000E+00
   1.190000      0.0000000E+00
   1.200000      0.0000000E+00
   1.210000      0.0000000E+00
   1.220000      0.0000000E+00
   1.230000      0.0000000E+00
   1.240000      0.0000000E+00
   1.250000      0.0000000E+00
   1.260000      0.0000000E+00
   1.270000      0.0000000E+00
   1.280000      0.0000000E+00
   1.290000      0.0000000E+00
   1.300000      0.0000000E+00
   1.310000      0.0000000E+00
   1.320000      0.0000000E+00
   1.330000      0.0000000E+00
   1.340000      0.0000000E+00
   1.350000      0.0000000E+00
   1.360000      0.0000000E+00
   1.370000      0.0000000E+00
   1.380000      0.0000000E+00
   1.390000      0.0000000E+00
   1.400000      0.0000000E+00
   1.410000      0.0000000E+00
   1.420000      0.0000000E+00
   1.430000      0.0000000E+00
   1.440000      0.0000000E+00
   1.450000      0.0000000E+00
   1.460000      0.0000000E+00
   1.470000      0.0000000E+00
   1.480000      0.0000000E+00
   1.490000      0.0000000E+00
   1.500000      0.0000000E+00
   1.510000      0.0000000E+00
   1.520000      0.0000000E+00
   1.530000      0.0000000E+00
   1.540000      0.0000000E+00
   1.550000      0.0000000E+00
   1.560000      0.0000000E+00
   1.570000      0.0000000E+00
   1.580000      0.0000000E+00
   1.590000      0.0000000E+00
   1.600000      0.0000000E+00
   1.610000      0.0000000E+00
   1.620000      0.0000000E+00
   1.630000      0.0000000E+00
   1.640000      0.0000000E+00
   1.650000      0.0000000E+00
   1.660000      0.0000000E+00
   1.670000      0.0000000E+00
   1.680000      0.0000000E+00
   1.690000      0.0000000E+00
   1.700000      0.0000000E+00
   1.710000      0.0000000E+00
   1.720000      0.0000000E+00
   1.730000      0.0000000E+00
   1.740000      0.0000000E+00
   1.750000      0.0000000E+00
   1.760000      0.0000000E+00
   1.770000      0.0000000E+00
   1.780000      0.0000000E+00
   1.790000      0.0000000E+00
   1.800000      0.0000000E+00
   1.810000      0.0000000E+00
   1.820000      0.0000000E+00
   1.830000      0.0000000E+00
   1.840000      0.0000000E+00
   1.850000      0.0000000E+00
   1.860000      0.0000000E+00
   1.870000      0.0000000E+00
   1.880000      0.0000000E+00
   1.890000      0.0000000E+00
   1.900000      0.0000000E+00
   1.910000      0.0000000E+00
   1.920000      0.0000000E+00
   1.930000      0.0000000E+00
   1.940000      0.0000000E+00
   1.950000      0.0000000E+00
   1.960000      0.0000000E+00
   1.970000      0.0000000E+00
   1.980000      0.0000000E+00
   1.990000      0.0000000E+00
   2.000000      0.0000000E+00
   2.010000      0.0000000E+00
   2.020000      0.0000000E+00
   2.030000      0.0000000E+00
   2.040000      0.0000000E+00
   2.050000      0.0000000E+00
   2.060000      0.0000000E+00
   2.070000      0.0000000E+00
   2.080000      0.0000000E+00
   2.090000      0.0000000E+00
   2.100000      0.0000000E+00
   2.110000      0.0000000E+00
   2.120000      0.0000000E+00
   2.130000      0.0000000E+00
   2.140000      0.0000000E+00
   2.150000      0.0000000E+00
   2.160000      0.0000000E+00
   2.170000      0.0000000E+00
   2.180000      0.0000000E+00
   2.190000      0.0000000E+00
   2.200000      0.0000000E+00
   2.210000      0.0000000E+00
   2.220000      0.0000000E+00
   2.230000      0.0000000E+00
   2.240000      0.0000000E+00
   2.250000      0.0000000E+00
   2.260000      0.0000000E+00
   2.270000      0.0000000E+00
   2.280000      0.0000000E+00
   2.290000      0.0000000E+00
   2.300000      0.0000000E+00
   2.310000      0.0000000E+00
   2.320000      0.0000000E+00
   2.330000      0.0000000E+00
   2.340000      0.0000000E+00
   2.350000      0.0000000E+00
   2.360000      0.0000000E+00
   2.370000      0.0000000E+00
   2.380000      0.0000000E+00
   2.390000      0.0000000E+00
   2.400000      0.0000000E+00
   2.410000      0.0000000E+00
   2.420000      0.0000000E+00
   2.430000      0.0000000E+00
   2.440000      0.0000000E+00
   2.450000      0.0000000E+00
   2.460000      0.0000000E+00
   2.470000      0.0000000E+00
   2.480000      0.0000000E+00
   2.490000      0.0000000E+00
   2.500000      0.0000000E+00
   2.510000      0.0000000E+00
   2.520000      0.0000000E+00
   2.530000      0.0000000E+00
   2.540000      0.0000000E+00
   2.550000      0.0000000E+00
   2.560000      0.0000000E+00
   2.570000      0.0000000E+00
   2.580000      0.0000000E+00
   2.590000      0.0000000E+00
   2.600000      0.0000000E+00
   2.610000      0.0000000E+00
   2.620000      0.0000000E+00
   2.630000      0.0000000E+00
   2.640000      0.0000000E+00
   2.650000      0.0000000E+00
   2.660000      0.0000000E+00
   2.670000      0.0000000E+00
   2.680000      0.0000000E+00
   2.690000      0.0000000E+00
   2.700000      0.0000000E+00
   2.710000      0.0000000E+00
   2.720000      0.0000000E+00
   2.730000      0.0000000E+00
   2.740000      0.0000000E+00
   2.750000      0.0000000E+00
   2.760000      0.0000000E+00
   2.770000      0.0000000E+00
   2.780000      0.0000000E+00
   2.790000      0.0000000E+00
   2.800000      0.0000000E+00
   2.810000      0.0000000E+00
   2.820000      0.0000000E+00
   2.830000      0.0000000E+00
   2.840000      0.0000000E+00
   2.850000      0.0000000E+00
   2.860000      0.0000000E+00
   2.870000      0.0000000E+00
   2.880000      0.0000000E+00
   2.890000      0.0000000E+00
   2.900000      0.0000000E+00
   2.910000      0.0000000E+00
   2.920000      0.0000000E+00
   2.930000      0.0000000E+00
   2.940000      0.0000000E+00
   2.950000      0.0000000E+00
   2.960000      0.0000000E+00
   2.970000      0.0000000E+00
   2.980000      0.0000000E+00
   2.990000      0.0000000E+00
   3.000000      0.0000000E+00
   3.010000      0.0000000E+00
   3.020000      0.0000000E+00
   3.030000      0.0000000E+00
   3.040000      0.0000000E+00
   3.050000      0.0000000E+00
   3.060000      0.0000000E+00
   3.070000      0.0000000E+00
   3.080000      0.0000000E+00
   3.090000      0.0000000E+00
   3.100000      0.0000000E+00
   3.110000      0.0000000E+00
   3.120000      0.0000000E+00
   3.130000      0.0000000E+00
   3.140000      0.0000000E+00
   3.150000      0.0000000E+00
   3.160000      0.0000000E+00
   3.170000      0.0000000E+00
   3.180000      1.3248778E-38
   3.190000      1.7130892E-38
   3.200000      2.0736457E-38
   3.210000      2.3617863E-38
   3.220000      2.4820266E-38
   3.230000      2.4717148E-38
   3.240000      2.4454194E-38
   3.250000      2.5562739E-38
   3.260000      2.8312720E-38
   3.270000      3.1079844E-38
   3.280000      3.3725168E-38
   3.290000      3.6428858E-38
   3.300000      3.9103329E-38
   3.310000      4.2008064E-38
   3.320000      4.5153718E-38
   3.330000      4.6761038E-38
   3.340000      4.7150173E-38
   3.350000      4.8523109E-38
   3.360000      5.0618320E-38
   3.370000      5.2843957E-38
   3.380000      5.5611892E-38
   3.390000      5.5834468E-38
   3.400000      5.1802888E-38
   3.410000      4.5415394E-38
   3.420000      3.8737324E-38
   3.430000      3.3014460E-38
   3.440000      2.6937987E-38
   3.450000      2.0876557E-38
   3.460000      1.6894811E-38
   3.470000      1.4023948E-38
   3.480000      0.0000000E+00
   3.490000      0.0000000E+00
   3.500000      0.0000000E+00
   3.510000      0.0000000E+00
   3.520000     -1.5080809E-38
   3.530000     -2.7763419E-38
   3.540000     -4.8698956E-38
   3.550000     -7.5149961E-38
   3.560000     -1.0186095E-37
   3.570000     -1.2639912E-37
   3.580000     -1.4309076E-37
   3.590000     -1.5382362E-37
   3.600000     -1.5773760E-37
   3.610000     -1.5375781E-37
   3.620000     -1.4790501E-37
   3.630000     -1.3711214E-37
   3.640000     -1.1454422E-37
   3.650000     -8.5714524E-38
   3.660000     -6.1117588E-38
   3.670000     -4.1032233E-38
   3.680000     -2.3270589E-38
   3.690000     -5.9113299E-38
   3.700000     -1.6080574E-37
   3.710000     -2.7634395E-37
   3.720000     -3.7635828E-37
   3.730000     -4.5035822E-37
   3.740000     -5.0417181E-37
   3.750000     -5.4292782E-37
   3.760000     -5.3946421E-37
   3.770000     -4.9586374E-37
   3.780000     -4.4104625E-37
   3.790000     -3.8622916E-37
   3.800000     -3.5643421E-37
   3.810000     -3.4721086E-37
   3.820000     -3.4138305E-37
   3.830000     -3.5193071E-37
   3.840000     -3.5536611E-37
   3.850000     -3.3000743E-37
   3.860000     -2.8298189E-37
   3.870000     -2.1154665E-37
   3.880000     -1.8089351E-37
   3.890000     -2.1330440E-37
   3.900000     -1.6845087E-37
   3.910000     -2.6794102E-38
   3.920000      1.0977297E-37
   3.930000      1.2361690E-37
   3.940000      2.1214435E-38
   3.950000     -7.6378238E-38
   3.960000     -1.6797485E-37
   3.970000     -2.2452846E-37
   3.980000     -2.6519047E-37
   3.990000     -3.4188162E-37
   4.000000     -4.3532680E-37
   4.010000     -3.8370386E-37
   4.020000     -9.7205608E-38
   4.030000      3.5931559E-37
   4.040000      9.7112844E-37
   4.050000      1.6965157E-36
   4.060000      2.4305615E-36
   4.070000      2.9821995E-36
   4.080000      3.4165606E-36
   4.090000      3.9312093E-36
   4.100000      4.4548987E-36
   4.110000      4.9230552E-36
   4.120000      5.1088252E-36
   4.130000      5.0110458E-36
   4.140000      4.8320122E-36
   4.150000      4.5727964E-36
   4.160000      4.2633843E-36
   4.170000      3.8606588E-36
   4.180000      3.3972278E-36
   4.190000      3.0521516E-36
   4.200000      3.0515009E-36
   4.210000      3.2825906E-36
   4.220000      3.6613517E-36
   4.230000      4.3389624E-36
   4.240000      5.3150715E-36
   4.250000      6.4800870E-36
   4.260000      7.5286173E-36
   4.270000      8.3908105E-36
   4.280000      9.1502585E-36
   4.290000      9.8046704E-36
   4.300000      1.0286706E-35
   4.310000      1.0072233E-35
   4.320000      9.0587050E-36
   4.330000      7.5652539E-36
   4.340000      5.8619752E-36
   4.350000      4.2300925E-36
   4.360000      2.1523227E-36
   4.370000     -4.9128358E-37
   4.380000     -3.0868612E-36
   4.390000     -5.2775345E-36
   4.400000     -6.7412563E-36
   4.410000     -7.3534282E-36
   4.420000     -7.6629884E-36
   4.430000     -8.0865387E-36
   4.440000     -8.5260684E-36
   4.450000     -9.2838849E-36
   4.460000     -1.0201804E-35
   4.470000     -1.0989104E-35
   4.480000     -1.1978178E-35
   4.490000     -1.3454923E-35
   4.500000     -1.5486764E-35
   4.510000     -1.8346705E-35
   4.520000     -2.1835373E-35
   4.530000     -2.5233114E-35
   4.540000     -2.8406613E-35
   4.550000     -3.1345556E-35
   4.560000     -3.4547871E-35
   4.570000     -3.7790473E-35
   4.580000     -4.0562947E-35
   4.590000     -4.3731857E-35
   4.600000     -4.7362708E-35
   4.610000     -5.1396637E-35
   4.620000     -5.4707398E-35
   4.630000     -5.6838188E-35
   4.640000     -5.9949322E-35
   4.650000     -6.3915950E-35
   4.660000     -6.7553118E-35
   4.670000     -7.0912236E-35
   4.680000     -7.4325727E-35
   4.690000     -7.7731693E-35
   4.700000     -7.9948315E-35
   4.710000     -8.1912258E-35
   4.720000     -7.4855607E-35
   4.730000     -5.7073620E-35
   4.740000     -3.7980412E-35
   4.750000     -2.0273301E-35
   4.760000     -1.0888311E-35
   4.770000     -7.1146853E-36
   4.780000     -3.6459596E-36
   4.790000     -5.3498567E-36
   4.800000     -1.1242689E-35
   4.810000     -1.8218006E-35
   4.820000     -2.6526720E-35
   4.830000     -3.9163508E-35
   4.840000     -5.6577083E-35
   4.850000     -7.6972673E-35
   4.860000     -9.9822349E-35
   4.870000     -1.1981885E-34
   4.880000     -1.2726467E-34
   4.890000     -1.1219929E-34
   4.900000     -7.4744101E-35
   4.910000     -2.2598652E-35
   4.920000      3.6566960E-35
   4.930000      1.0057082E-34
   4.940000      1.6463586E-34
   4.950000      2.2439103E-34
   4.960000      2.7855651E-34
   4.970000      3.2174656E-34
   4.980000      3.4243505E-34
   4.990000      3.4077439E-34
   5.000000      3.2725062E-34
   5.010000      3.0780664E-34
   5.020000      2.8820810E-34
   5.030000      2.7776332E-34
   5.040000      2.8217032E-34
   5.050000      2.9904999E-34
   5.060000      3.2994425E-34
   5.070000      3.7503828E-34
   5.080000      4.3091653E-34
   5.090000      4.9156997E-34
   5.100000      5.5083808E-34
   5.110000      6.0305151E-34
   5.120000      6.4569358E-34
   5.130000      6.6952926E-34
   5.140000      6.7467191E-34
   5.150000      6.7373890E-34
   5.160000      6.6008402E-34
   5.170000      6.2882244E-34
   5.180000      5.9367888E-34
   5.190000      5.6642311E-34
   5.200000      5.5071988E-34
   5.210000      5.4989561E-34
   5.220000      5.6770936E-34
   5.230000      5.9189268E-34
   5.240000      6.1787555E-34
   5.250000      6.4236455E-34
   5.260000      6.5910134E-34
   5.270000      6.6817767E-34
   5.280000      6.6071314E-34
   5.290000      6.3168238E-34
   5.300000      5.7777090E-34
   5.310000      4.9756366E-34
   5.320000      3.9595301E-34
   5.330000      2.7792583E-34
   5.340000      1.4485323E-34
   5.350000      1.0428087E-36
   5.360000     -1.4666790E-34
   5.370000     -2.9218524E-34
   5.380000     -4.3232221E-34
   5.390000     -5.6694037E-34
   5.400000     -6.9704579E-34
   5.410000     -8.2445620E-34
   5.420000     -9.5459224E-34
   5.430000     -1.0921580E-33
   5.440000     -1.2404434E-33
   5.450000     -1.4041505E-33
   5.460000     -1.5867115E-33
   5.470000     -1.7886269E-33
   5.480000     -2.0093371E-33
   5.490000     -2.2472603E-33
   5.500000     -2.4989737E-33
   5.510000     -2.7582497E-33
   5.520000     -3.0199440E-33
   5.530000     -3.2799220E-33
   5.540000     -3.5325853E-33
   5.550000     -3.7752533E-33
   5.560000     -4.0067140E-33
   5.570000     -4.2272838E-33
   5.580000     -4.4402124E-33
   5.590000     -4.6473254E-33
   5.600000     -4.8520726E-33
   5.610000     -5.0599026E-33
   5.620000     -5.2735061E-33
   5.630000     -5.4985923E-33
   5.640000     -5.7308204E-33
   5.650000     -5.9637321E-33
   5.660000     -6.1978094E-33
   5.670000     -6.4277273E-33
   5.680000     -6.6461055E-33
   5.690000     -6.8458278E-33
   5.700000     -7.0187159E-33
   5.710000     -7.1610543E-33
   5.720000     -7.2627029E-33
   5.730000     -7.3145907E-33
   5.740000     -7.3184985E-33
   5.750000     -7.2738988E-33
   5.760000     -7.1816563E-33
   5.770000     -7.0433344E-33
   5.780000     -6.8615236E-33
   5.790000     -6.6385125E-33
   5.800000     -6.3748396E-33
   5.810000     -6.0690189E-33
   5.820000     -5.7203085E-33
   5.830000     -5.3225414E-33
   5.840000     -4.8678117E-33
   5.850000     -4.3524504E-33
   5.860000     -3.7665036E-33
   5.870000     -3.1004343E-33
   5.880000     -2.3488197E-33
   5.890000     -1.5062345E-33
   5.900000     -5.6890767E-34
   5.910000      4.6505679E-34
   5.920000      1.5955484E-33
   5.930000      2.8208402E-33
   5.940000      4.1381710E-33
   5.950000      5.5443741E-33
   5.960000      7.0363262E-33
   5.970000      8.6126811E-33
   5.980000      1.0271404E-32
   5.990000      1.2011962E-32
   6.000000      1.3837380E-32
   6.010000      1.5751035E-32
   6.020000      1.7757135E-32
   6.030000      1.9860009E-32
   6.040000      2.2063366E-32
   6.050000      2.4369608E-32
   6.060000      2.6779222E-32
   6.070000      2.9290172E-32
   6.080000      3.1897677E-32
   6.090000      3.4594390E-32
   6.100000      3.7370420E-32
   6.110000      4.0213926E-32
   6.120000      4.3111846E-32
   6.130000      4.6050420E-32
   6.140000      4.9015904E-32
   6.150000      5.1995230E-32
   6.160000      5.4975684E-32
   6.170000      5.7945541E-32
   6.180000      6.0894246E-32
   6.190000      6.3811358E-32
   6.200000      6.6686271E-32
   6.210000      6.9506458E-32
   6.220000      7.2259466E-32
   6.230000      7.4930630E-32
   6.240000      7.7500601E-32
   6.250000      7.9947798E-32
   6.260000      8.2247618E-32
   6.270000      8.4372641E-32
   6.280000      8.6293211E-32
   6.290000      8.7977982E-32
   6.300000      8.9394735E-32
   6.310000      9.0511026E-32
   6.320000      9.1294757E-32
   6.330000      9.1714585E-32
   6.340000      9.1740117E-32
   6.350000      9.1341871E-32
   6.360000      9.0490913E-32
   6.370000      8.9158396E-32
   6.380000      8.7315003E-32
   6.390000      8.4930301E-32
   6.400000      8.1972205E-32
   6.410000      7.8406637E-32
   6.420000      7.4197362E-32
   6.430000      6.9306107E-32
   6.440000      6.3692939E-32
   6.450000      5.7316858E-32
   6.460000      5.0136597E-32
   6.470000      4.2111503E-32
   6.480000      3.3202340E-32
   6.490000      2.3372137E-32
   6.500000      1.2586797E-32
   6.510000      8.1548525E-34
   6.520000     -1.1969169E-32
   6.530000     -2.5791128E-32
   6.540000     -4.0671208E-32
   6.550000     -5.6627460E-32
   6.560000     -7.3675537E-32
   6.570000     -9.1829007E-32
   6.580000     -1.1109956E-31
   6.590000     -1.3149696E-31
   6.600000     -1.5302878E-31
   6.610000     -1.7569997E-31
   6.620000     -1.9951195E-31
   6.630000     -2.2446173E-31
   6.640000     -2.5054092E-31
   6.650000     -2.7773459E-31
   6.660000     -3.0602035E-31
   6.670000     -3.3536861E-31
   6.680000     -3.6573847E-31
   6.690000     -3.9707969E-31
   6.700000     -4.2933506E-31
   6.710000     -4.6243680E-31
   6.720000     -4.9630806E-31
   6.730000     -5.3086298E-31
   6.740000     -5.6600716E-31
   6.750000     -6.0163771E-31
   6.760000     -6.3764320E-31
   6.770000     -6.7390353E-31
   6.780000     -7.1028945E-31
   6.790000     -7.4666202E-31
   6.800000     -7.8287181E-31
   6.810000     -8.1875777E-31
   6.820000     -8.5414683E-31
   6.830000     -8.8885316E-31
   6.840000     -9.2267693E-31
   6.850000     -9.5540457E-31
   6.860000     -9.8680851E-31
   6.870000     -1.0166472E-30
   6.880000     -1.0446656E-30
   6.890000     -1.0705959E-30
   6.900000     -1.0941579E-30
   6.910000     -1.1150601E-30
   6.920000     -1.1330006E-30
   6.930000     -1.1476669E-30
   6.940000     -1.1587374E-30
   6.950000     -1.1658814E-30
   6.960000     -1.1687589E-30
   6.970000     -1.1670213E-30
   6.980000     -1.1603117E-30
   6.990000     -1.1482638E-30
   7.000000     -1.1305037E-30
   7.010000     -1.1066497E-30
   7.020000     -1.0763130E-30
   7.030000     -1.0390989E-30
   7.040000     -9.9460862E-31
   7.050000     -9.4244037E-31
   7.060000     -8.8219168E-31