  -2.600000      0.0000000E+00
  -2.590000      0.0000000E+00
  -2.580000      0.0000000E+00
  -2.570000      0.0000000E+00
  -2.560000      0.0000000E+00
  -2.550000      0.0000000E+00
  -2.540000      0.0000000E+00
  -2.530000      0.0000000E+00
  -2.520000      0.0000000E+00
  -2.510000      0.0000000E+00
  -2.500000      0.0000000E+00
  -2.490000      0.0000000E+00
  -2.480000      0.0000000E+00
  -2.470000      0.0000000E+00
  -2.460000      0.0000000E+00
  -2.450000      0.0000000E+00
  -2.440000      0.0000000E+00
  -2.430000      0.0000000E+00
  -2.420000      0.0000000E+00
  -2.410000      0.0000000E+00
  -2.400000      0.0000000E+00
  -2.390000      0.0000000E+00
  -2.380000      0.0000000E+00
  -2.370000      0.0000000E+00
  -2.360000      0.0000000E+00
  -2.350000      0.0000000E+00
  -2.340000      0.0000000E+00
  -2.330000      0.0000000E+00
  -2.320000      0.0000000E+00
  -2.310000      0.0000000E+00
  -2.300000      0.0000000E+00
  -2.290000      0.0000000E+00
  -2.280000      0.0000000E+00
  -2.270000      0.0000000E+00
  -2.260000      0.0000000E+00
  -2.250000      0.0000000E+00
  -2.240000      0.0000000E+00
  -2.230000      0.0000000E+00
  -2.220000      0.0000000E+00
  -2.210000      0.0000000E+00
  -2.200000      0.0000000E+00
  -2.190000      0.0000000E+00
  -2.180000      0.0000000E+00
  -2.170000      0.0000000E+00
  -2.160000      0.0000000E+00
  -2.150000      0.0000000E+00
  -2.140000      0.0000000E+00
  -2.130000      0.0000000E+00
  -2.120000      0.0000000E+00
  -2.110000      0.0000000E+00
  -2.100000      0.0000000E+00
  -2.090000      0.0000000E+00
  -2.080000      0.0000000E+00
  -2.070000      0.0000000E+00
  -2.060000      0.0000000E+00
  -2.050000      0.0000000E+00
  -2.040000      0.0000000E+00
  -2.030000      0.0000000E+00
  -2.020000      0.0000000E+00
  -2.010000      0.0000000E+00
  -2.000000      0.0000000E+00
  -1.990000      0.0000000E+00
  -1.980000      0.0000000E+00
  -1.970000      0.0000000E+00
  -1.960000      0.0000000E+00
  -1.950000      0.0000000E+00
  -1.940000      0.0000000E+00
  -1.930000      0.0000000E+00
  -1.920000      0.0000000E+00
  -1.910000      0.0000000E+00
  -1.900000      0.0000000E+00
  -1.890000      0.0000000E+00
  -1.880000      0.0000000E+00
  -1.870000      0.0000000E+00
  -1.860000      0.0000000E+00
  -1.850000      0.0000000E+00
  -1.840000      0.0000000E+00
  -1.830000      0.0000000E+00
  -1.820000      0.0000000E+00
  -1.810000      0.0000000E+00
  -1.800000      0.0000000E+00
  -1.790000      0.0000000E+00
  -1.780000      0.0000000E+00
  -1.770000      0.0000000E+00
  -1.760000      0.0000000E+00
  -1.750000      0.0000000E+00
  -1.740000      0.0000000E+00
  -1.730000      0.0000000E+00
  -1.720000      0.0000000E+00
  -1.710000      0.0000000E+00
  -1.700000      0.0000000E+00
  -1.690000      0.0000000E+00
  -1.680000      0.0000000E+00
  -1.670000      0.0000000E+00
  -1.660000      0.0000000E+00
  -1.650000      0.0000000E+00
  -1.640000      0.0000000E+00
  -1.630000      0.0000000E+00
  -1.620000      0.0000000E+00
  -1.610000      0.0000000E+00
  -1.600000      0.0000000E+00
  -1.590000      0.0000000E+00
  -1.580000      0.0000000E+00
  -1.570000      0.0000000E+00
  -1.560000      0.0000000E+00
  -1.550000      0.0000000E+00
  -1.540000      0.0000000E+00
  -1.530000      0.0000000E+00
  -1.520000      0.0000000E+00
  -1.510000      0.0000000E+00
  -1.500000      0.0000000E+00
  -1.490000      0.0000000E+00
  -1.480000      0.0000000E+00
  -1.470000      0.0000000E+00
  -1.460000      0.0000000E+00
  -1.450000      0.0000000E+00
  -1.440000      0.0000000E+00
  -1.430000      0.0000000E+00
  -1.420000      0.0000000E+00
  -1.410000      0.0000000E+00
  -1.400000      0.0000000E+00
  -1.390000      0.0000000E+00
  -1.380000      0.0000000E+00
  -1.370000      0.0000000E+00
  -1.360000      0.0000000E+00
  -1.350000      0.0000000E+00
  -1.340000      0.0000000E+00
  -1.330000      0.0000000E+00
  -1.320000      0.0000000E+00
  -1.310000      0.0000000E+00
  -1.300000      0.0000000E+00
  -1.290000      0.0000000E+00
  -1.280000      0.0000000E+00
  -1.270000      0.0000000E+00
  -1.260000      0.0000000E+00
  -1.250000      0.0000000E+00
  -1.240000      0.0000000E+00
  -1.230000      0.0000000E+00
  -1.220000      0.0000000E+00
  -1.210000      0.0000000E+00
  -1.200000      0.0000000E+00
  -1.190000      0.0000000E+00
  -1.180000      0.0000000E+00
  -1.170000      0.0000000E+00
  -1.160000      0.0000000E+00
  -1.150000      0.0000000E+00
  -1.140000      0.0000000E+00
  -1.130000      0.0000000E+00
  -1.120000      0.0000000E+00
  -1.110000      0.0000000E+00
  -1.100000      0.0000000E+00
  -1.090000      0.0000000E+00
  -1.080000      0.0000000E+00
  -1.070000      0.0000000E+00
  -1.060000      0.0000000E+00
  -1.050000      0.0000000E+00
  -1.040000      0.0000000E+00
  -1.030000      0.0000000E+00
  -1.020000      0.0000000E+00
  -1.010000      0.0000000E+00
  -1.000000      0.0000000E+00
 -0.9900000      0.0000000E+00
 -0.9800000      0.0000000E+00
 -0.9700000      0.0000000E+00
 -0.9600000      0.0000000E+00
 -0.9500000      0.0000000E+00
 -0.9400000      0.0000000E+00
 -0.9300000      0.0000000E+00
 -0.9200000      0.0000000E+00
 -0.9100000      0.0000000E+00
 -0.9000000      0.0000000E+00
 -0.8900000      0.0000000E+00
 -0.8800000      0.0000000E+00
 -0.8700000      0.0000000E+00
 -0.8600000      0.0000000E+00
 -0.8500000      0.0000000E+00
 -0.8400000      0.0000000E+00
 -0.8300000      0.0000000E+00
 -0.8200000      0.0000000E+00
 -0.8100000      0.0000000E+00
 -0.8000000      0.0000000E+00
 -0.7900000      0.0000000E+00
 -0.7800000      0.0000000E+00
 -0.7700000      0.0000000E+00
 -0.7600000      0.0000000E+00
 -0.7500000      0.0000000E+00
 -0.7400000      0.0000000E+00
 -0.7300000      0.0000000E+00
 -0.7200000      0.0000000E+00
 -0.7100000      0.0000000E+00
 -0.7000000      0.0000000E+00
 -0.6900000      0.0000000E+00
 -0.6800000      0.0000000E+00
 -0.6700000      0.0000000E+00
 -0.6600000      0.0000000E+00
 -0.6500000      0.0000000E+00
 -0.6400000      0.0000000E+00
 -0.6300000      0.0000000E+00
 -0.6200000      0.0000000E+00
 -0.6100000      0.0000000E+00
 -0.6000000      0.0000000E+00
 -0.5900000      0.0000000E+00
 -0.5800000      0.0000000E+00
 -0.5700000      0.0000000E+00
 -0.5600000      0.0000000E+00
 -0.5500000      0.0000000E+00
 -0.5400000      0.0000000E+00
 -0.5300000      0.0000000E+00
 -0.5200000      0.0000000E+00
 -0.5100000      0.0000000E+00
 -0.5000000      0.0000000E+00
 -0.4900000      0.0000000E+00
 -0.4800000      0.0000000E+00
 -0.4700000      0.0000000E+00
 -0.4600000      0.0000000E+00
 -0.4500000      0.0000000E+00
 -0.4400000      0.0000000E+00
 -0.4300000      0.0000000E+00
 -0.4200000      0.0000000E+00
 -0.4100000      0.0000000E+00
 -0.4000000      0.0000000E+00
 -0.3900000      0.0000000E+00
 -0.3800000      0.0000000E+00
 -0.3700000      0.0000000E+00
 -0.3600000      0.0000000E+00
 -0.3500000      0.0000000E+00
 -0.3400000      0.0000000E+00
 -0.3300000      0.0000000E+00
 -0.3200000      0.0000000E+00
 -0.3100000      0.0000000E+00
 -0.3000000      0.0000000E+00
 -0.2900000      0.0000000E+00
 -0.2800000      0.0000000E+00
 -0.2700000      0.0000000E+00
 -0.2600000      0.0000000E+00
 -0.2500000      0.0000000E+00
 -0.2400000      0.0000000E+00
 -0.2300000      0.0000000E+00
 -0.2200000      0.0000000E+00
 -0.2100000      0.0000000E+00
 -0.2000000      0.0000000E+00
 -0.1900000      0.0000000E+00
 -0.1800000      0.0000000E+00
 -0.1700000      0.0000000E+00
 -0.1600000      0.0000000E+00
 -0.1500000      0.0000000E+00
 -0.1400000      0.0000000E+00
 -0.1300000      0.0000000E+00
 -0.1200000      0.0000000E+00
 -0.1100000      0.0000000E+00
 -0.1000000      0.0000000E+00
 -9.0000004E-02  0.0000000E+00
 -7.9999998E-02  0.0000000E+00
 -7.0000000E-02  0.0000000E+00
 -5.9999999E-02  0.0000000E+00
 -5.0000001E-02  0.0000000E+00
 -3.9999999E-02  0.0000000E+00
 -2.9999999E-02  0.0000000E+00
 -2.0000000E-02  0.0000000E+00
 -9.9999998E-03  0.0000000E+00
 -3.4694470E-17  0.0000000E+00
  9.9999998E-03  0.0000000E+00
  2.0000000E-02  0.0000000E+00
  2.9999999E-02  0.0000000E+00
  3.9999999E-02  0.0000000E+00
  5.0000001E-02  0.0000000E+00
  5.9999999E-02  0.0000000E+00
  7.0000000E-02  0.0000000E+00
  7.9999998E-02  0.0000000E+00
  9.0000004E-02  0.0000000E+00
  0.1000000      0.0000000E+00
  0.1100000      0.0000000E+00
  0.1200000      0.0000000E+00
  0.1300000      0.0000000E+00
  0.1400000      0.0000000E+00
  0.1500000      0.0000000E+00
  0.1600000      0.0000000E+00
  0.1700000      0.0000000E+00
  0.1800000      0.0000000E+00
  0.1900000      0.0000000E+00
  0.2000000      0.0000000E+00
  0.2100000      0.0000000E+00
  0.2200000      0.0000000E+00
  0.2300000      0.0000000E+00
  0.2400000      0.0000000E+00
  0.2500000      0.0000000E+00
  0.2600000      0.0000000E+00
  0.2700000      0.0000000E+00
  0.2800000      0.0000000E+00
  0.2900000      0.0000000E+00
  0.3000000      0.0000000E+00
  0.3100000      0.0000000E+00
  0.3200000      0.0000000E+00
  0.3300000      0.0000000E+00
  0.3400000      0.0000000E+00
  0.3500000      0.0000000E+00
  0.3600000      0.0000000E+00
  0.3700000      0.0000000E+00
  0.3800000      0.0000000E+00
  0.3900000      0.0000000E+00
  0.4000000      0.0000000E+00
  0.4100000      0.0000000E+00
  0.4200000      0.0000000E+00
  0.4300000      0.0000000E+00
  0.4400000      0.0000000E+00
  0.4500000      0.0000000E+00
  0.4600000      0.0000000E+00
  0.4700000      0.0000000E+00
  0.4800000      0.0000000E+00
  0.4900000      0.0000000E+00
  0.5000000      0.0000000E+00
  0.5100000      0.0000000E+00
  0.5200000      0.0000000E+00
  0.5300000      0.0000000E+00
  0.5400000      0.0000000E+00
  0.5500000      0.0000000E+00
  0.5600000      0.0000000E+00
  0.5700000      0.0000000E+00
  0.5800000      0.0000000E+00
  0.5900000      0.0000000E+00
  0.6000000      0.0000000E+00
  0.6100000      0.0000000E+00
  0.6200000      0.0000000E+00
  0.6300000      0.0000000E+00
  0.6400000      0.0000000E+00
  0.6500000      0.0000000E+00
  0.6600000      0.0000000E+00
  0.6700000      0.0000000E+00
  0.6800000      0.0000000E+00
  0.6900000      0.0000000E+00
  0.7000000      0.0000000E+00
  0.7100000      0.0000000E+00
  0.7200000      0.0000000E+00
  0.7300000      0.0000000E+00
  0.7400000      0.0000000E+00
  0.7500000      0.0000000E+00
  0.7600000      0.0000000E+00
  0.7700000      0.0000000E+00
  0.7800000      0.0000000E+00
  0.7900000      0.0000000E+00
  0.8000000      0.0000000E+00
  0.8100000      0.0000000E+00
  0.8200000      0.0000000E+00
  0.8300000      0.0000000E+00
  0.8400000      0.0000000E+00
  0.8500000      0.0000000E+00
  0.8600000      0.0000000E+00
  0.8700000      0.0000000E+00
  0.8800000      0.0000000E+00
  0.8900000      0.0000000E+00
  0.9000000      0.0000000E+00
  0.9100000      0.0000000E+00
  0.9200000      0.0000000E+00
  0.9300000      0.0000000E+00
  0.9400000      0.0000000E+00
  0.9500000      0.0000000E+00
  0.9600000      0.0000000E+00
  0.9700000      0.0000000E+00
  0.9800000      0.0000000E+00
  0.9900000      0.0000000E+00
   1.000000      0.0000000E+00
   1.010000      0.0000000E+00
   1.020000      0.0000000E+00
   1.030000      0.0000000E+00
   1.040000      0.0000000E+00
   1.050000      0.0000000E+00
   1.060000      0.0000000E+00
   1.070000      0.0000000E+00
   1.080000      0.0000000E+00
   1.090000      0.0000000E+00
   1.100000      0.0000000E+00
   1.110000      0.0000000E+00
   1.120000      0.0000000E+00
   1.130000      0.0000000E+00
   1.140000      0.0000000E+00
   1.150000      0.0000000E+00
   1.160000      0.0000000E+00
   1.170000      0.0000000E+00
   1.180000      0.0000000E+00
   1.190000      0.0000000E+00
   1.200000      0.0000000E+00
   1.210000      0.0000000E+00
   1.220000      0.0000000E+00
   1.230000      0.0000000E+00
   1.240000      0.0000000E+00
   1.250000      0.0000000E+00
   1.260000      0.0000000E+00
   1.270000      0.0000000E+00
   1.280000      0.0000000E+00
   1.290000      0.0000000E+00
   1.300000      0.0000000E+00
   1.310000      0.0000000E+00
   1.320000      0.0000000E+00
   1.330000      0.0000000E+00
   1.340000      0.0000000E+00
   1.350000      0.0000000E+00
   1.360000      0.0000000E+00
   1.370000      0.0000000E+00
   1.380000      0.0000000E+00
   1.390000      0.0000000E+00
   1.400000      0.0000000E+00
   1.410000      0.0000000E+00
   1.420000      0.0000000E+00
   1.430000      0.0000000E+00
   1.440000      0.0000000E+00
   1.450000      0.0000000E+00
   1.460000      0.0000000E+00
   1.470000      0.0000000E+00
   1.480000      0.0000000E+00
   1.490000      0.0000000E+00
   1.500000      0.0000000E+00
   1.510000      0.0000000E+00
   1.520000      0.0000000E+00
   1.530000      0.0000000E+00
   1.540000      0.0000000E+00
   1.550000      0.0000000E+00
   1.560000      0.0000000E+00
   1.570000      0.0000000E+00
   1.580000      0.0000000E+00
   1.590000      0.0000000E+00
   1.600000      0.0000000E+00
   1.610000      0.0000000E+00
   1.620000      0.0000000E+00
   1.630000     -1.2639638E-38
   1.640000     -1.3616392E-38
   1.650000     -1.4415121E-38
   1.660000     -1.4666480E-38
   1.670000     -1.4461082E-38
   1.680000     -1.4165138E-38
   1.690000     -1.3978108E-38
   1.700000     -1.3946452E-38
   1.710000     -1.3989559E-38
   1.720000     -1.3956058E-38
   1.730000     -1.3709290E-38
   1.740000     -1.3292607E-38
   1.750000     -1.2416960E-38
   1.760000      0.0000000E+00
   1.770000      0.0000000E+00
   1.780000      0.0000000E+00
   1.790000      0.0000000E+00
   1.800000      0.0000000E+00
   1.810000      1.9636325E-38
   1.820000      2.9599658E-38
   1.830000      4.0623584E-38
   1.840000      5.2457165E-38
   1.850000      6.3216396E-38
   1.860000      7.1909822E-38
   1.870000      7.9671519E-38
   1.880000      8.7143400E-38
   1.890000      9.4143356E-38
   1.900000      1.0381854E-37
   1.910000      1.1741330E-37
   1.920000      1.3394196E-37
   1.930000      1.5487821E-37
   1.940000      1.7871341E-37
   1.950000      2.0399594E-37
   1.960000      2.2544126E-37
   1.970000      2.4261174E-37
   1.980000      2.5566910E-37
   1.990000      2.6401923E-37
   2.000000      2.6996132E-37
   2.010000      2.7365330E-37
   2.020000      2.8923076E-37
   2.030000      3.1593070E-37
   2.040000      3.5279758E-37
   2.050000      4.0669847E-37
   2.060000      4.7176468E-37
   2.070000      5.4595920E-37
   2.080000      6.1305933E-37
   2.090000      6.7359476E-37
   2.100000      7.7014063E-37
   2.110000      9.0263289E-37
   2.120000      1.0351903E-36
   2.130000      1.1653881E-36
   2.140000      1.2631651E-36
   2.150000      1.3138661E-36
   2.160000      1.3285494E-36
   2.170000      1.3019703E-36
   2.180000      1.2606112E-36
   2.190000      1.2035553E-36
   2.200000      1.1211339E-36
   2.210000      1.0067469E-36
   2.220000      7.6541756E-37
   2.230000      4.1379904E-37
   2.240000      3.8437367E-38
   2.250000     -3.5785954E-37
   2.260000     -7.6035082E-37
   2.270000     -1.1711295E-36
   2.280000     -1.6257295E-36
   2.290000     -2.0772717E-36
   2.300000     -2.5087596E-36
   2.310000     -3.0142713E-36
   2.320000     -3.6070059E-36
   2.330000     -4.2596980E-36
   2.340000     -4.9621280E-36
   2.350000     -5.8996830E-36
   2.360000     -7.1025666E-36
   2.370000     -8.3281048E-36
   2.380000     -9.6262261E-36
   2.390000     -1.1021558E-35
   2.400000     -1.2116039E-35
   2.410000     -1.2860970E-35
   2.420000     -1.3540061E-35
   2.430000     -1.4113260E-35
   2.440000     -1.4412654E-35
   2.450000     -1.4442957E-35
   2.460000     -1.4366943E-35
   2.470000     -1.3982164E-35
   2.480000     -1.3205943E-35
   2.490000     -1.2341548E-35
   2.500000     -1.1537235E-35
   2.510000     -1.0658095E-35
   2.520000     -9.4524583E-36
   2.530000     -8.0853808E-36
   2.540000     -6.7151693E-36
   2.550000     -5.5281320E-36
   2.560000     -4.3840350E-36
   2.570000     -2.9364273E-36
   2.580000     -1.4071045E-36
   2.590000      1.4803575E-37
   2.600000      1.8321494E-36
   2.610000      3.7270242E-36
   2.620000      5.8840692E-36
   2.630000      8.3272633E-36
   2.640000      1.0916130E-35
   2.650000      1.3685496E-35
   2.660000      1.6856863E-35
   2.670000      2.0542374E-35
   2.680000      2.4745844E-35
   2.690000      2.9171844E-35
   2.700000      3.4166159E-35
   2.710000      3.9828868E-35
   2.720000      4.5665648E-35
   2.730000      5.1771572E-35
   2.740000      5.8279391E-35
   2.750000      6.5207788E-35
   2.760000      7.2435454E-35
   2.770000      7.9540371E-35
   2.780000      8.6243220E-35
   2.790000      9.1941273E-35
   2.800000      9.6316770E-35
   2.810000      9.9765572E-35
   2.820000      1.0236481E-34
   2.830000      1.0431780E-34
   2.840000      1.0576450E-34
   2.850000      1.0645193E-34
   2.860000      1.0614436E-34
   2.870000      1.0485866E-34
   2.880000      1.0297947E-34
   2.890000      1.0059698E-34
   2.900000      9.6368175E-35
   2.910000      9.0084957E-35
   2.920000      8.2994912E-35
   2.930000      7.5019843E-35
   2.940000      6.5943586E-35
   2.950000      5.5338566E-35
   2.960000      4.3174062E-35
   2.970000      3.0091786E-35
   2.980000      1.6441200E-35
   2.990000      2.0329114E-36
   3.000000     -1.4036107E-35
   3.010000     -3.2171946E-35
   3.020000     -5.2093513E-35
   3.030000     -7.3459919E-35
   3.040000     -9.5436245E-35
   3.050000     -1.1916605E-34
   3.060000     -1.4521667E-34
   3.070000     -1.7001887E-34
   3.080000     -1.9315475E-34
   3.090000     -2.1692111E-34
   3.100000     -2.4308500E-34
   3.110000     -2.7151146E-34
   3.120000     -3.0108511E-34
   3.130000     -3.3079630E-34
   3.140000     -3.6115863E-34
   3.150000     -3.9429166E-34
   3.160000     -4.2941640E-34
   3.170000     -4.6611285E-34
   3.180000     -5.0324254E-34
   3.190000     -5.3824647E-34
   3.200000     -5.7089784E-34
   3.210000     -6.0119832E-34
   3.220000     -6.2852907E-34
   3.230000     -6.5257353E-34
   3.240000     -6.7466024E-34
   3.250000     -6.9482245E-34
   3.260000     -7.1018910E-34
   3.270000     -7.2039395E-34
   3.280000     -7.2606011E-34
   3.290000     -7.2363611E-34
   3.300000     -7.1287295E-34
   3.310000     -6.9496755E-34
   3.320000     -6.6881882E-34
   3.330000     -6.3419807E-34
   3.340000     -5.9273077E-34
   3.350000     -5.4465672E-34
   3.360000     -4.9264679E-34
   3.370000     -4.3500518E-34
   3.380000     -3.6521595E-34
   3.390000     -2.8470707E-34
   3.400000     -1.9369658E-34
   3.410000     -9.5216764E-35
   3.420000      1.1100143E-35
   3.430000      1.2484028E-34
   3.440000      2.4239509E-34
   3.450000      3.6792757E-34
   3.460000      5.0188764E-34
   3.470000      6.3885946E-34
   3.480000      7.7977456E-34
   3.490000      9.2616484E-34
   3.500000      1.0766381E-33
   3.510000      1.2327267E-33
   3.520000      1.3946156E-33
   3.530000      1.5615605E-33
   3.540000      1.7343620E-33
   3.550000      1.9137740E-33
   3.560000      2.0982343E-33
   3.570000      2.2856667E-33
   3.580000      2.4736973E-33
   3.590000      2.6617211E-33
   3.600000      2.8493158E-33
   3.610000      3.0320815E-33
   3.620000      3.2064591E-33
   3.630000      3.3738859E-33
   3.640000      3.5375687E-33
   3.650000      3.6962325E-33
   3.660000      3.8443272E-33
   3.670000      3.9745378E-33
   3.680000      4.0870965E-33
   3.690000      4.1864471E-33
   3.700000      4.2685862E-33
   3.710000      4.3296781E-33
   3.720000      4.3665170E-33
   3.730000      4.3794265E-33
   3.740000      4.3638564E-33
   3.750000      4.3126195E-33
   3.760000      4.2231468E-33
   3.770000      4.0913393E-33
   3.780000      3.9157014E-33
   3.790000      3.6957733E-33
   3.800000      3.4323072E-33
   3.810000      3.1237866E-33
   3.820000      2.7694384E-33
   3.830000      2.3651883E-33
   3.840000      1.9082189E-33
   3.850000      1.4047993E-33
   3.860000      8.5442892E-34
   3.870000      2.5394381E-34
   3.880000     -3.9595329E-34
   3.890000     -1.0971386E-33
   3.900000     -1.8485394E-33
   3.910000     -2.6470250E-33
   3.920000     -3.4909012E-33
   3.930000     -4.3819601E-33
   3.940000     -5.3208660E-33
   3.950000     -6.3024115E-33
   3.960000     -7.3212124E-33
   3.970000     -8.3769474E-33
   3.980000     -9.4701939E-33
   3.990000     -1.0595606E-32
   4.000000     -1.1748837E-32
   4.010000     -1.2926409E-32
   4.020000     -1.4122552E-32
   4.030000     -1.5332821E-32
   4.040000     -1.6550994E-32
   4.050000     -1.7769797E-32
   4.060000     -1.8982432E-32
   4.070000     -2.0183267E-32
   4.080000     -2.1364237E-32
   4.090000     -2.2514255E-32
   4.100000     -2.3624540E-32
   4.110000     -2.4684215E-32
   4.120000     -2.5682309E-32
   4.130000     -2.6610365E-32
   4.140000     -2.7455701E-32
   4.150000     -2.8203031E-32
   4.160000     -2.8839808E-32
   4.170000     -2.9351644E-32
   4.180000     -2.9724279E-32
   4.190000     -2.9946130E-32
   4.200000     -3.0006165E-32
   4.210000     -2.9887767E-32
   4.220000     -2.9572840E-32
   4.230000     -2.9050633E-32
   4.240000     -2.8309710E-32
   4.250000     -2.7334840E-32
   4.260000     -2.6110286E-32
   4.270000     -2.4623436E-32
   4.280000     -2.2862190E-32
   4.290000     -2.0813700E-32
   4.300000     -1.8466625E-32
   4.310000     -1.5808624E-32
   4.320000     -1.2830236E-32
   4.330000     -9.5235503E-33
   4.340000     -5.8791887E-33
   4.350000     -1.8885336E-33
   4.360000      2.4542326E-33
   4.370000      7.1531146E-33
   4.380000      1.2212148E-32
   4.390000      1.7633413E-32
   4.400000      2.3417417E-32
   4.410000      2.9562625E-32
   4.420000      3.6065119E-32
   4.430000      4.2919362E-32
   4.440000      5.0117972E-32
   4.450000      5.7650733E-32
   4.460000      6.5505445E-32
   4.470000      7.3667438E-32
   4.480000      8.2117102E-32
   4.490000      9.0834263E-32
   4.500000      9.9797354E-32
   4.510000      1.0897891E-31
   4.520000      1.1834709E-31
   4.530000      1.2786764E-31
   4.540000      1.3750397E-31
   4.550000      1.4721522E-31
   4.560000      1.5695573E-31
   4.570000      1.6667753E-31
   4.580000      1.7632927E-31
   4.590000      1.8585397E-31
   4.600000      1.9519107E-31
   4.610000      2.0427628E-31
   4.620000      2.1304131E-31
   4.630000      2.2141348E-31
   4.640000      2.2931732E-31
   4.650000      2.3667340E-31
   4.660000      2.4339842E-31
   4.670000      2.4940468E-31
   4.680000      2.5460034E-31
   4.690000      2.5889280E-31
   4.700000      2.6218583E-31
   4.710000      2.6437916E-31
   4.720000      2.6537055E-31
   4.730000      2.6505543E-31
   4.740000      2.6332696E-31
   4.750000      2.6007655E-31
   4.760000      2.5519453E-31
   4.770000      2.4856999E-31
   4.780000      2.4009117E-31
   4.790000      2.2964693E-31
   4.800000      2.1712634E-31
   4.810000      2.0241853E-31
   4.820000      1.8541449E-31
   4.830000      1.6600682E-31
   4.840000      1.4409057E-31
   4.850000      1.1956434E-31
   4.860000      9.2330462E-32
   4.870000      6.2295711E-32
   4.880000      2.9372307E-32
   4.890000     -6.5212929E-33
   4.900000     -4.5459787E-32
   4.910000     -8.7509900E-32
   4.920000     -1.3272952E-31
   4.930000     -1.8116660E-31
   4.940000     -2.3285854E-31
   4.950000     -2.8783084E-31
   4.960000     -3.4609575E-31
   4.970000     -4.0765152E-31
   4.980000     -4.7248130E-31
   4.990000     -5.4055183E-31
   5.000000     -6.1181227E-31
   5.010000     -6.8619313E-31
   5.020000     -7.6360527E-31
   5.030000     -8.4393818E-31
   5.040000     -9.2705954E-31
   5.050000     -1.0128130E-30
   5.060000     -1.1010180E-30
   5.070000     -1.1914696E-30
   5.080000     -1.2839349E-30
   5.090000     -1.3781532E-30
   5.100000     -1.4738357E-30
   5.110000     -1.5706637E-30
   5.120000     -1.6682879E-30
   5.130000     -1.7663275E-30
   5.140000     -1.8643694E-30
   5.150000     -1.9619674E-30
   5.160000     -2.0586414E-30
   5.170000     -2.1538773E-30
   5.180000     -2.2471260E-30
   5.190000     -2.3378034E-30
   5.200000     -2.4252895E-30
   5.210000     -2.5089285E-30
   5.220000     -2.5880291E-30
   5.230000     -2.6618637E-30
   5.240000     -2.7296696E-30
   5.250000     -2.7906482E-30
   5.260000     -2.8439671E-30
   5.270000     -2.8887595E-30
   5.280000     -2.9241251E-30
   5.290000     -2.9491325E-30
   5.300000     -2.9628194E-30
   5.310000     -2.9641946E-30
   5.320000     -2.9522401E-30
   5.330000     -2.9259134E-30
   5.340000     -2.8841497E-30
   5.350000     -2.8258645E-30
   5.360000     -2.7499575E-30
   5.370000     -2.6553152E-30
   5.380000     -2.5408152E-30
   5.390000     -2.4053298E-30
   5.400000     -2.2477310E-30
   5.410000     -2.0668952E-30
   5.420000     -1.8617075E-30
   5.430000     -1.6310678E-30
   5.440000     -1.3738969E-30
   5.450000     -1.0891427E-30
   5.460000     -7.7578565E-31
   5.470000     -4.3284631E-31
   5.480000     -5.9392898E-32
   5.490000      3.4545200E-31
   5.500000      7.8250280E-31
   5.510000      1.2525030E-30
   5.520000      1.7561160E-30
   5.530000      2.2939167E-30
   5.540000      2.8663820E-30
   5.550000      3.4738815E-30
   5.560000      4.1166666E-30
   5.570000      4.7948614E-30
   5.580000      5.5084515E-30
   5.590000      6.2572738E-30
   5.600000      7.0410035E-30
   5.610000      7.8591446E-30
   5.620000      8.7110188E-30
   5.630000      9.5957511E-30
   5.640000      1.0512261E-29
   5.650000      1.1459247E-29
   5.660000      1.2435179E-29
   5.670000      1.3438283E-29
   5.680000      1.4466531E-29
   5.690000      1.5517627E-29
   5.700000      1.6588995E-29
   5.710000      1.7677775E-29
   5.720000      1.8780804E-29
   5.730000      1.9894607E-29
   5.740000      2.1015388E-29
   5.750000      2.2139022E-29
   5.760000      2.3261042E-29
   5.770000      2.4376640E-29
   5.780000      2.5480646E-29
   5.790000      2.6567536E-29
   5.800000      2.7631413E-29
   5.810000      2.8666014E-29
   5.820000      2.9664705E-29
   5.830000      3.0620475E-29
   5.840000      3.1525938E-29
   5.850000      3.2373339E-29
   5.860000      3.3154538E-29
   5.870000      3.3861041E-29
   5.880000      3.4483992E-29
   5.890000      3.5014183E-29
   5.900000      3.5442052E-29
   5.910000      3.5757724E-29
   5.920000      3.5951000E-29
   5.930000      3.6011381E-29
   5.940000      3.5928091E-29
   5.950000      3.5690094E-29
   5.960000      3.5286121E-29
   5.970000      3.4704707E-29
   5.980000      3.3934203E-29
   5.990000      3.2962821E-29
   6.000000      3.1778678E-29
   6.010000      3.0369815E-29
   6.020000      2.8724267E-29
   6.030000      2.6830088E-29
   6.040000      2.4675415E-29
   6.050000      2.2248510E-29
   6.060000      1.9537836E-29
   6.070000      1.6532104E-29
   6.080000      1.3220341E-29
   6.090000      9.5919609E-30
   6.100000      5.6368396E-30
   6.110000      1.3453765E-30
   6.120000     -3.2914049E-30
   6.130000     -8.2817824E-30
   6.140000     -1.3633264E-29
   6.150000     -1.9352480E-29
   6.160000     -2.5445098E-29
   6.170000     -3.1915720E-29
   6.180000     -3.8767802E-29
   6.190000     -4.6003542E-29
   6.200000     -5.3623770E-29
   6.210000     -6.1627850E-29
   6.220000     -7.0013590E-29
   6.230000     -7.8777113E-29
   6.240000     -8.7912738E-29
   6.250000     -9.7412881E-29
   6.260000     -1.0726797E-28
   6.270000     -1.1746630E-28
   6.280000     -1.2799390E-28
   6.290000     -1.3883448E-28
   6.300000     -1.4996925E-28
   6.310000     -1.6137691E-28
   6.320000     -1.7303343E-28
   6.330000     -1.8491204E-28
   6.340000     -1.9698307E-28
   6.350000     -2.0921387E-28
   6.360000     -2.2156871E-28
   6.370000     -2.3400872E-28
   6.380000     -2.4649178E-28
   6.390000     -2.5897248E-28
   6.400000     -2.7140200E-28
   6.410000     -2.8372812E-28
   6.420000     -2.9589511E-28
   6.430000     -3.0784372E-28
   6.440000     -3.1951122E-28
   6.450000     -3.3083121E-28
   6.460000     -3.4173386E-28
   6.470000     -3.5214565E-28
   6.480000     -3.6198966E-28
   6.490000     -3.7118539E-28
   6.500000     -3.7964899E-28
   6.510000     -3.8729327E-28
   6.520000     -3.9402779E-28
   6.530000     -3.9975897E-28
   6.540000     -4.0439021E-28
   6.550000     -4.0782217E-28
   6.560000     -4.0995273E-28
   6.570000     -4.1067736E-28
   6.580000     -4.0988941E-28
   6.590000     -4.0748007E-28
   6.600000     -4.0333889E-28
   6.610000     -3.9735397E-28
   6.620000     -3.8941237E-28
   6.630000     -3.7940040E-28
   6.640000     -3.6720397E-28
   6.650000     -3.5270910E-28
   6.660000     -3.3580228E-28
   6.670000     -3.1637095E-28
   6.680000     -2.9430388E-28
   6.690000     -2.6949193E-28
   6.700000     -2.4182843E-28
   6.710000     -2.1120983E-28
   6.720000     -1.7753623E-28
   6.730000     -1.4071206E-28
   6.740000     -1.0064682E-28
   6.750000     -5.7255658E-29
   6.760000     -1.0460172E-29
   6.770000      3.9810820E-29
   6.780000      9.3620688E-29
   6.790000      1.5102410E-28
   6.800000      2.1206602E-28
   6.810000      2.7678122E-28
   6.820000      3.4519319E-28
   6.830000      4.1731339E-28
   6.840000      4.9314024E-28
   6.850000      5.7265837E-28
   6.860000      6.5583774E-28
   6.870000      7.4263247E-28
   6.880000      8.3298040E-28
   6.890000      9.2680159E-28
   6.900000      1.0239981E-27
   6.910000      1.1244522E-27
   6.920000      1.2280266E-27
   6.930000      1.3345627E-27
   6.940000      1.4438800E-27
   6.950000      1.5557755E-27
   6.960000      1.6700226E-27
   6.970000      1.7863705E-27
   6.980000      1.9045435E-27
   6.990000      2.0242398E-27
   7.000000      2.1451316E-27
   7.010000      2.2668640E-27
   7.020000      2.3890556E-27
   7.030000      2.5112957E-27
   7.040000      2.6331461E-27
   7.050000      2.7541399E-27
   7.060000      2.8737814E-27