  -2.600000      0.0000000E+00
  -2.590000      0.0000000E+00
  -2.580000      0.0000000E+00
  -2.570000      0.0000000E+00
  -2.560000      0.0000000E+00
  -2.550000      0.0000000E+00
  -2.540000      0.0000000E+00
  -2.530000      0.0000000E+00
  -2.520000      0.0000000E+00
  -2.510000      0.0000000E+00
  -2.500000      0.0000000E+00
  -2.490000      0.0000000E+00
  -2.480000      0.0000000E+00
  -2.470000      0.0000000E+00
  -2.460000      0.0000000E+00
  -2.450000      0.0000000E+00
  -2.440000      0.0000000E+00
  -2.430000      0.0000000E+00
  -2.420000      0.0000000E+00
  -2.410000      0.0000000E+00
  -2.400000      0.0000000E+00
  -2.390000      0.0000000E+00
  -2.380000      0.0000000E+00
  -2.370000      0.0000000E+00
  -2.360000      0.0000000E+00
  -2.350000      0.0000000E+00
  -2.340000      0.0000000E+00
  -2.330000      0.0000000E+00
  -2.320000      0.0000000E+00
  -2.310000      0.0000000E+00
  -2.300000      0.0000000E+00
  -2.290000      0.0000000E+00
  -2.280000      0.0000000E+00
  -2.270000      0.0000000E+00
  -2.260000      0.0000000E+00
  -2.250000      0.0000000E+00
  -2.240000      0.0000000E+00
  -2.230000      0.0000000E+00
  -2.220000      0.0000000E+00
  -2.210000      0.0000000E+00
  -2.200000      0.0000000E+00
  -2.190000      0.0000000E+00
  -2.180000      0.0000000E+00
  -2.170000      0.0000000E+00
  -2.160000      0.0000000E+00
  -2.150000      0.0000000E+00
  -2.140000      0.0000000E+00
  -2.130000      0.0000000E+00
  -2.120000      0.0000000E+00
  -2.110000      0.0000000E+00
  -2.100000      0.0000000E+00
  -2.090000      0.0000000E+00
  -2.080000      0.0000000E+00
  -2.070000      0.0000000E+00
  -2.060000      0.0000000E+00
  -2.050000      0.0000000E+00
  -2.040000      0.0000000E+00
  -2.030000      0.0000000E+00
  -2.020000      0.0000000E+00
  -2.010000      0.0000000E+00
  -2.000000      0.0000000E+00
  -1.990000      0.0000000E+00
  -1.980000      0.0000000E+00
  -1.970000      0.0000000E+00
  -1.960000      0.0000000E+00
  -1.950000      0.0000000E+00
  -1.940000      0.0000000E+00
  -1.930000      0.0000000E+00
  -1.920000      0.0000000E+00
  -1.910000      0.0000000E+00
  -1.900000      0.0000000E+00
  -1.890000      0.0000000E+00
  -1.880000      0.0000000E+00
  -1.870000      0.0000000E+00
  -1.860000      0.0000000E+00
  -1.850000      0.0000000E+00
  -1.840000      0.0000000E+00
  -1.830000      0.0000000E+00
  -1.820000      0.0000000E+00
  -1.810000      0.0000000E+00
  -1.800000      0.0000000E+00
  -1.790000      0.0000000E+00
  -1.780000      0.0000000E+00
  -1.770000      0.0000000E+00
  -1.760000      0.0000000E+00
  -1.750000      0.0000000E+00
  -1.740000      0.0000000E+00
  -1.730000      0.0000000E+00
  -1.720000      0.0000000E+00
  -1.710000      0.0000000E+00
  -1.700000      0.0000000E+00
  -1.690000      0.0000000E+00
  -1.680000      0.0000000E+00
  -1.670000      0.0000000E+00
  -1.660000      0.0000000E+00
  -1.650000      0.0000000E+00
  -1.640000      0.0000000E+00
  -1.630000      0.0000000E+00
  -1.620000      0.0000000E+00
  -1.610000      0.0000000E+00
  -1.600000      0.0000000E+00
  -1.590000      0.0000000E+00
  -1.580000      0.0000000E+00
  -1.570000      0.0000000E+00
  -1.560000      0.0000000E+00
  -1.550000      0.0000000E+00
  -1.540000      0.0000000E+00
  -1.530000      0.0000000E+00
  -1.520000      0.0000000E+00
  -1.510000      0.0000000E+00
  -1.500000      0.0000000E+00
  -1.490000      0.0000000E+00
  -1.480000      0.0000000E+00
  -1.470000      0.0000000E+00
  -1.460000      0.0000000E+00
  -1.450000      0.0000000E+00
  -1.440000      0.0000000E+00
  -1.430000      0.0000000E+00
  -1.420000      0.0000000E+00
  -1.410000      0.0000000E+00
  -1.400000      0.0000000E+00
  -1.390000      0.0000000E+00
  -1.380000      0.0000000E+00
  -1.370000      0.0000000E+00
  -1.360000      0.0000000E+00
  -1.350000      0.0000000E+00
  -1.340000      0.0000000E+00
  -1.330000      0.0000000E+00
  -1.320000      0.0000000E+00
  -1.310000      0.0000000E+00
  -1.300000      0.0000000E+00
  -1.290000      0.0000000E+00
  -1.280000      0.0000000E+00
  -1.270000      0.0000000E+00
  -1.260000      0.0000000E+00
  -1.250000      0.0000000E+00
  -1.240000      0.0000000E+00
  -1.230000      0.0000000E+00
  -1.220000      0.0000000E+00
  -1.210000      0.0000000E+00
  -1.200000      0.0000000E+00
  -1.190000      0.0000000E+00
  -1.180000      0.0000000E+00
  -1.170000      0.0000000E+00
  -1.160000      0.0000000E+00
  -1.150000      0.0000000E+00
  -1.140000      0.0000000E+00
  -1.130000      0.0000000E+00
  -1.120000      0.0000000E+00
  -1.110000      0.0000000E+00
  -1.100000      0.0000000E+00
  -1.090000      0.0000000E+00
  -1.080000      0.0000000E+00
  -1.070000      0.0000000E+00
  -1.060000      0.0000000E+00
  -1.050000      0.0000000E+00
  -1.040000      0.0000000E+00
  -1.030000      0.0000000E+00
  -1.020000      0.0000000E+00
  -1.010000      0.0000000E+00
  -1.000000      0.0000000E+00
 -0.9900000      0.0000000E+00
 -0.9800000      0.0000000E+00
 -0.9700000      0.0000000E+00
 -0.9600000      0.0000000E+00
 -0.9500000      0.0000000E+00
 -0.9400000      0.0000000E+00
 -0.9300000      0.0000000E+00
 -0.9200000      0.0000000E+00
 -0.9100000      0.0000000E+00
 -0.9000000      0.0000000E+00
 -0.8900000      0.0000000E+00
 -0.8800000      0.0000000E+00
 -0.8700000      0.0000000E+00
 -0.8600000      0.0000000E+00
 -0.8500000      0.0000000E+00
 -0.8400000      0.0000000E+00
 -0.8300000      0.0000000E+00
 -0.8200000      0.0000000E+00
 -0.8100000      0.0000000E+00
 -0.8000000      0.0000000E+00
 -0.7900000      0.0000000E+00
 -0.7800000      0.0000000E+00
 -0.7700000      0.0000000E+00
 -0.7600000      0.0000000E+00
 -0.7500000      0.0000000E+00
 -0.7400000      0.0000000E+00
 -0.7300000      0.0000000E+00
 -0.7200000      0.0000000E+00
 -0.7100000      0.0000000E+00
 -0.7000000      0.0000000E+00
 -0.6900000      0.0000000E+00
 -0.6800000      0.0000000E+00
 -0.6700000      0.0000000E+00
 -0.6600000      0.0000000E+00
 -0.6500000      0.0000000E+00
 -0.6400000      0.0000000E+00
 -0.6300000      0.0000000E+00
 -0.6200000      0.0000000E+00
 -0.6100000      0.0000000E+00
 -0.6000000      0.0000000E+00
 -0.5900000      0.0000000E+00
 -0.5800000      0.0000000E+00
 -0.5700000      0.0000000E+00
 -0.5600000      0.0000000E+00
 -0.5500000      0.0000000E+00
 -0.5400000      0.0000000E+00
 -0.5300000      0.0000000E+00
 -0.5200000      0.0000000E+00
 -0.5100000      0.0000000E+00
 -0.5000000      0.0000000E+00
 -0.4900000      0.0000000E+00
 -0.4800000      0.0000000E+00
 -0.4700000      0.0000000E+00
 -0.4600000      0.0000000E+00
 -0.4500000      0.0000000E+00
 -0.4400000      0.0000000E+00
 -0.4300000      0.0000000E+00
 -0.4200000      0.0000000E+00
 -0.4100000      0.0000000E+00
 -0.4000000      0.0000000E+00
 -0.3900000      0.0000000E+00
 -0.3800000      0.0000000E+00
 -0.3700000      0.0000000E+00
 -0.3600000      0.0000000E+00
 -0.3500000      0.0000000E+00
 -0.3400000      0.0000000E+00
 -0.3300000      0.0000000E+00
 -0.3200000      0.0000000E+00
 -0.3100000      0.0000000E+00
 -0.3000000      0.0000000E+00
 -0.2900000      0.0000000E+00
 -0.2800000      0.0000000E+00
 -0.2700000      0.0000000E+00
 -0.2600000      0.0000000E+00
 -0.2500000      0.0000000E+00
 -0.2400000      0.0000000E+00
 -0.2300000      0.0000000E+00
 -0.2200000      0.0000000E+00
 -0.2100000      0.0000000E+00
 -0.2000000      0.0000000E+00
 -0.1900000      0.0000000E+00
 -0.1800000      0.0000000E+00
 -0.1700000      0.0000000E+00
 -0.1600000      0.0000000E+00
 -0.1500000      0.0000000E+00
 -0.1400000      0.0000000E+00
 -0.1300000      0.0000000E+00
 -0.1200000      0.0000000E+00
 -0.1100000      0.0000000E+00
 -0.1000000      0.0000000E+00
 -9.0000004E-02  0.0000000E+00
 -7.9999998E-02  0.0000000E+00
 -7.0000000E-02  0.0000000E+00
 -5.9999999E-02  0.0000000E+00
 -5.0000001E-02  0.0000000E+00
 -3.9999999E-02  0.0000000E+00
 -2.9999999E-02  0.0000000E+00
 -2.0000000E-02  0.0000000E+00
 -9.9999998E-03  0.0000000E+00
 -3.4694470E-17  0.0000000E+00
  9.9999998E-03  0.0000000E+00
  2.0000000E-02  0.0000000E+00
  2.9999999E-02  0.0000000E+00
  3.9999999E-02  0.0000000E+00
  5.0000001E-02  0.0000000E+00
  5.9999999E-02  0.0000000E+00
  7.0000000E-02  0.0000000E+00
  7.9999998E-02  0.0000000E+00
  9.0000004E-02  0.0000000E+00
  0.1000000      0.0000000E+00
  0.1100000      0.0000000E+00
  0.1200000      0.0000000E+00
  0.1300000      0.0000000E+00
  0.1400000      0.0000000E+00
  0.1500000      0.0000000E+00
  0.1600000      0.0000000E+00
  0.1700000      0.0000000E+00
  0.1800000      0.0000000E+00
  0.1900000      0.0000000E+00
  0.2000000      0.0000000E+00
  0.2100000      0.0000000E+00
  0.2200000      0.0000000E+00
  0.2300000      0.0000000E+00
  0.2400000      0.0000000E+00
  0.2500000      0.0000000E+00
  0.2600000      0.0000000E+00
  0.2700000      0.0000000E+00
  0.2800000      0.0000000E+00
  0.2900000      0.0000000E+00
  0.3000000      0.0000000E+00
  0.3100000      0.0000000E+00
  0.3200000      0.0000000E+00
  0.3300000      0.0000000E+00
  0.3400000      0.0000000E+00
  0.3500000      0.0000000E+00
  0.3600000      0.0000000E+00
  0.3700000      0.0000000E+00
  0.3800000      0.0000000E+00
  0.3900000      0.0000000E+00
  0.4000000      0.0000000E+00
  0.4100000      0.0000000E+00
  0.4200000      0.0000000E+00
  0.4300000      0.0000000E+00
  0.4400000      0.0000000E+00
  0.4500000      0.0000000E+00
  0.4600000      0.0000000E+00
  0.4700000      0.0000000E+00
  0.4800000      0.0000000E+00
  0.4900000      0.0000000E+00
  0.5000000      0.0000000E+00
  0.5100000      0.0000000E+00
  0.5200000      0.0000000E+00
  0.5300000      0.0000000E+00
  0.5400000      0.0000000E+00
  0.5500000      0.0000000E+00
  0.5600000      0.0000000E+00
  0.5700000      0.0000000E+00
  0.5800000      0.0000000E+00
  0.5900000      0.0000000E+00
  0.6000000      0.0000000E+00
  0.6100000      0.0000000E+00
  0.6200000      0.0000000E+00
  0.6300000      0.0000000E+00
  0.6400000      0.0000000E+00
  0.6500000      0.0000000E+00
  0.6600000      0.0000000E+00
  0.6700000      0.0000000E+00
  0.6800000      0.0000000E+00
  0.6900000      0.0000000E+00
  0.7000000      0.0000000E+00
  0.7100000      0.0000000E+00
  0.7200000      0.0000000E+00
  0.7300000      0.0000000E+00
  0.7400000      0.0000000E+00
  0.7500000      0.0000000E+00
  0.7600000      0.0000000E+00
  0.7700000      0.0000000E+00
  0.7800000      0.0000000E+00
  0.7900000      0.0000000E+00
  0.8000000      0.0000000E+00
  0.8100000      0.0000000E+00
  0.8200000      0.0000000E+00
  0.8300000      0.0000000E+00
  0.8400000      0.0000000E+00
  0.8500000      0.0000000E+00
  0.8600000      0.0000000E+00
  0.8700000      0.0000000E+00
  0.8800000      0.0000000E+00
  0.8900000      0.0000000E+00
  0.9000000      0.0000000E+00
  0.9100000      0.0000000E+00
  0.9200000      0.0000000E+00
  0.9300000      0.0000000E+00
  0.9400000      0.0000000E+00
  0.9500000      0.0000000E+00
  0.9600000      0.0000000E+00
  0.9700000      0.0000000E+00
  0.9800000      0.0000000E+00
  0.9900000      0.0000000E+00
   1.000000      0.0000000E+00
   1.010000      0.0000000E+00
   1.020000      0.0000000E+00
   1.030000      0.0000000E+00
   1.040000      0.0000000E+00
   1.050000      0.0000000E+00
   1.060000      0.0000000E+00
   1.070000      0.0000000E+00
   1.080000      0.0000000E+00
   1.090000      0.0000000E+00
   1.100000      0.0000000E+00
   1.110000      0.0000000E+00
   1.120000      0.0000000E+00
   1.130000      0.0000000E+00
   1.140000      0.0000000E+00
   1.150000      0.0000000E+00
   1.160000      0.0000000E+00
   1.170000      0.0000000E+00
   1.180000      0.0000000E+00
   1.190000      0.0000000E+00
   1.200000      0.0000000E+00
   1.210000      0.0000000E+00
   1.220000      0.0000000E+00
   1.230000      0.0000000E+00
   1.240000      0.0000000E+00
   1.250000      0.0000000E+00
   1.260000      0.0000000E+00
   1.270000      0.0000000E+00
   1.280000      0.0000000E+00
   1.290000      0.0000000E+00
   1.300000      0.0000000E+00
   1.310000      0.0000000E+00
   1.320000      0.0000000E+00
   1.330000      0.0000000E+00
   1.340000      0.0000000E+00
   1.350000      0.0000000E+00
   1.360000      0.0000000E+00
   1.370000      0.0000000E+00
   1.380000      0.0000000E+00
   1.390000      0.0000000E+00
   1.400000      0.0000000E+00
   1.410000      0.0000000E+00
   1.420000      0.0000000E+00
   1.430000      0.0000000E+00
   1.440000      0.0000000E+00
   1.450000      0.0000000E+00
   1.460000      0.0000000E+00
   1.470000      0.0000000E+00
   1.480000      0.0000000E+00
   1.490000      0.0000000E+00
   1.500000      0.0000000E+00
   1.510000      0.0000000E+00
   1.520000      0.0000000E+00
   1.530000      0.0000000E+00
   1.540000      0.0000000E+00
   1.550000      0.0000000E+00
   1.560000      0.0000000E+00
   1.570000      0.0000000E+00
   1.580000     -1.2912120E-38
   1.590000     -1.4216701E-38
   1.600000     -1.5551275E-38
   1.610000     -1.7009781E-38
   1.620000     -1.8683528E-38
   1.630000     -2.0486623E-38
   1.640000     -2.2222691E-38
   1.650000     -2.3857493E-38
   1.660000     -2.5353617E-38
   1.670000     -2.6534497E-38
   1.680000     -2.7129758E-38
   1.690000     -2.7130719E-38
   1.700000     -2.6568451E-38
   1.710000     -2.5475763E-38
   1.720000     -2.3850885E-38
   1.730000     -2.1707161E-38
   1.740000     -1.8986358E-38
   1.750000     -1.5605508E-38
   1.760000     -1.1920246E-38
   1.770000      0.0000000E+00
   1.780000      0.0000000E+00
   1.790000      0.0000000E+00
   1.800000      0.0000000E+00
   1.810000      1.2968343E-38
   1.820000      2.0933226E-38
   1.830000      2.9627482E-38
   1.840000      3.9581046E-38
   1.850000      5.1043670E-38
   1.860000      6.4486399E-38
   1.870000      7.9821228E-38
   1.880000      9.5343283E-38
   1.890000      1.1073714E-37
   1.900000      1.2519530E-37
   1.910000      1.3843711E-37
   1.920000      1.4928478E-37
   1.930000      1.5749511E-37
   1.940000      1.6344856E-37
   1.950000      1.6690679E-37
   1.960000      1.6823069E-37
   1.970000      1.6723782E-37
   1.980000      1.6759734E-37
   1.990000      1.6938810E-37
   2.000000      1.5787606E-37
   2.010000      1.2278601E-37
   2.020000      7.1555714E-38
   2.030000      0.0000000E+00
   2.040000     -6.5025663E-38
   2.050000     -1.5696141E-37
   2.060000     -2.6156346E-37
   2.070000     -3.7582948E-37
   2.080000     -4.9645435E-37
   2.090000     -6.2147609E-37
   2.100000     -7.3549959E-37
   2.110000     -8.3846194E-37
   2.120000     -9.3544461E-37
   2.130000     -1.0058074E-36
   2.140000     -1.0535496E-36
   2.150000     -1.0902926E-36
   2.160000     -1.1058766E-36
   2.170000     -1.0951343E-36
   2.180000     -1.0538208E-36
   2.190000     -9.8603073E-37
   2.200000     -8.9252399E-37
   2.210000     -7.7187914E-37
   2.220000     -6.2933910E-37
   2.230000     -4.5046019E-37
   2.240000     -2.4393909E-37
   2.250000     -3.0546558E-38
   2.260000      2.0882372E-37
   2.270000      4.6382486E-37
   2.280000      6.8617102E-37
   2.290000      9.0316524E-37
   2.300000      1.1337775E-36
   2.310000      1.3533568E-36
   2.320000      1.5609968E-36
   2.330000      1.7635995E-36
   2.340000      1.9654986E-36
   2.350000      2.1828589E-36
   2.360000      2.4101338E-36
   2.370000      2.6231303E-36
   2.380000      2.8348269E-36
   2.390000      3.0635909E-36
   2.400000      3.3146455E-36
   2.410000      3.5882848E-36
   2.420000      3.8903331E-36
   2.430000      4.1914535E-36
   2.440000      4.4890019E-36
   2.450000      4.8156027E-36
   2.460000      5.1074074E-36
   2.470000      5.2078328E-36
   2.480000      5.1341409E-36
   2.490000      4.9515834E-36
   2.500000      4.6737075E-36
   2.510000      4.3386191E-36
   2.520000      3.9441380E-36
   2.530000      3.6663421E-36
   2.540000      3.5023099E-36
   2.550000      3.2940370E-36
   2.560000      3.0655883E-36
   2.570000      2.7802859E-36
   2.580000      2.3528564E-36
   2.590000      1.7249294E-36
   2.600000      8.6616908E-37
   2.610000     -1.4328336E-37
   2.620000     -1.2644850E-36
   2.630000     -2.5593548E-36
   2.640000     -3.9400588E-36
   2.650000     -5.3921638E-36
   2.660000     -6.8296624E-36
   2.670000     -8.3137570E-36
   2.680000     -1.0104317E-35
   2.690000     -1.2063974E-35
   2.700000     -1.4145503E-35
   2.710000     -1.6216721E-35
   2.720000     -1.8581621E-35
   2.730000     -2.1568535E-35
   2.740000     -2.4608136E-35
   2.750000     -2.7357565E-35
   2.760000     -2.9775777E-35
   2.770000     -3.2018351E-35
   2.780000     -3.4226972E-35
   2.790000     -3.6570843E-35
   2.800000     -3.8793684E-35
   2.810000     -4.0569926E-35
   2.820000     -4.2036206E-35
   2.830000     -4.2578819E-35
   2.840000     -4.2132137E-35
   2.850000     -4.1534351E-35
   2.860000     -4.0824328E-35
   2.870000     -3.9936029E-35
   2.880000     -3.8884917E-35
   2.890000     -3.7413465E-35
   2.900000     -3.5481554E-35
   2.910000     -3.3078580E-35
   2.920000     -3.0095367E-35
   2.930000     -2.6306743E-35
   2.940000     -2.2272831E-35
   2.950000     -1.8028819E-35
   2.960000     -1.3510329E-35
   2.970000     -9.1422387E-36
   2.980000     -4.1808156E-36
   2.990000      1.8117936E-36
   3.000000      8.3458743E-36
   3.010000      1.5484928E-35
   3.020000      2.3096131E-35
   3.030000      3.0890846E-35
   3.040000      3.9709749E-35
   3.050000      4.9932228E-35
   3.060000      6.0983407E-35
   3.070000      7.2719352E-35
   3.080000      8.5545304E-35
   3.090000      1.0004845E-34
   3.100000      1.1619238E-34
   3.110000      1.3308877E-34
   3.120000      1.4916902E-34
   3.130000      1.6315691E-34
   3.140000      1.7440410E-34
   3.150000      1.8306942E-34
   3.160000      1.9028043E-34
   3.170000      1.9641606E-34
   3.180000      2.0285834E-34
   3.190000      2.0946444E-34
   3.200000      2.1516834E-34
   3.210000      2.2168212E-34
   3.220000      2.2944465E-34
   3.230000      2.3627815E-34
   3.240000      2.4222625E-34
   3.250000      2.4909240E-34
   3.260000      2.5513395E-34
   3.270000      2.5875259E-34
   3.280000      2.5987200E-34
   3.290000      2.5803991E-34
   3.300000      2.5344108E-34
   3.310000      2.4474210E-34
   3.320000      2.3154417E-34
   3.330000      2.1533465E-34
   3.340000      1.9872159E-34
   3.350000      1.8123731E-34
   3.360000      1.6030002E-34
   3.370000      1.3595880E-34
   3.380000      1.0712604E-34
   3.390000      7.2229134E-35
   3.400000      3.2005781E-35
   3.410000     -1.1365742E-35
   3.420000     -5.8615262E-35
   3.430000     -1.1028620E-34
   3.440000     -1.6516461E-34
   3.450000     -2.2369017E-34
   3.460000     -2.8622061E-34
   3.470000     -3.5153700E-34
   3.480000     -4.1749881E-34
   3.490000     -4.8412528E-34
   3.500000     -5.5428609E-34
   3.510000     -6.2765411E-34
   3.520000     -6.9859097E-34
   3.530000     -7.6706269E-34
   3.540000     -8.3674471E-34
   3.550000     -9.0654482E-34
   3.560000     -9.7502288E-34
   3.570000     -1.0393251E-33
   3.580000     -1.1016197E-33
   3.590000     -1.1641758E-33
   3.600000     -1.2247942E-33
   3.610000     -1.2857195E-33
   3.620000     -1.3457899E-33
   3.630000     -1.3998848E-33
   3.640000     -1.4470754E-33
   3.650000     -1.4889793E-33
   3.660000     -1.5262348E-33
   3.670000     -1.5597376E-33
   3.680000     -1.5861632E-33
   3.690000     -1.6031618E-33
   3.700000     -1.6140930E-33
   3.710000     -1.6179038E-33
   3.720000     -1.6127678E-33
   3.730000     -1.5963744E-33
   3.740000     -1.5641269E-33
   3.750000     -1.5120317E-33
   3.760000     -1.4397916E-33
   3.770000     -1.3519825E-33
   3.780000     -1.2502596E-33
   3.790000     -1.1286593E-33
   3.800000     -9.8648046E-34
   3.810000     -8.2310291E-34
   3.820000     -6.3444447E-34
   3.830000     -4.2313480E-34
   3.840000     -1.9194094E-34
   3.850000      5.8364626E-35
   3.860000      3.3209584E-34
   3.870000      6.2611283E-34
   3.880000      9.3558606E-34
   3.890000      1.2649340E-33
   3.900000      1.6148403E-33
   3.910000      1.9815868E-33
   3.920000      2.3632667E-33
   3.930000      2.7597378E-33
   3.940000      3.1720987E-33
   3.950000      3.5994610E-33
   3.960000      4.0396132E-33
   3.970000      4.4915613E-33
   3.980000      4.9526696E-33
   3.990000      5.4209762E-33
   4.000000      5.8953227E-33
   4.010000      6.3735017E-33
   4.020000      6.8513754E-33
   4.030000      7.3248139E-33
   4.040000      7.7918701E-33
   4.050000      8.2502923E-33
   4.060000      8.6968994E-33
   4.070000      9.1281486E-33
   4.080000      9.5422855E-33
   4.090000      9.9329640E-33
   4.100000      1.0293826E-32
   4.110000      1.0621821E-32
   4.120000      1.0913255E-32
   4.130000      1.1163933E-32
   4.140000      1.1367610E-32
   4.150000      1.1518416E-32
   4.160000      1.1610873E-32
   4.170000      1.1637501E-32
   4.180000      1.1595393E-32
   4.190000      1.1480800E-32
   4.200000      1.1285736E-32
   4.210000      1.1003242E-32
   4.220000      1.0626499E-32
   4.230000      1.0150734E-32
   4.240000      9.5695761E-33
   4.250000      8.8772011E-33
   4.260000      8.0684294E-33
   4.270000      7.1372740E-33
   4.280000      6.0789882E-33
   4.290000      4.8896814E-33
   4.300000      3.5655238E-33
   4.310000      2.1009080E-33
   4.320000      4.9180773E-34
   4.330000     -1.2638626E-33
   4.340000     -3.1682996E-33
   4.350000     -5.2222953E-33
   4.360000     -7.4283632E-33
   4.370000     -9.7859479E-33
   4.380000     -1.2293431E-32
   4.390000     -1.4948499E-32
   4.400000     -1.7747229E-32
   4.410000     -2.0688540E-32
   4.420000     -2.3770071E-32
   4.430000     -2.6986323E-32
   4.440000     -3.0331216E-32
   4.450000     -3.3796556E-32
   4.460000     -3.7372824E-32
   4.470000     -4.1050858E-32
   4.480000     -4.4820089E-32
   4.490000     -4.8668237E-32
   4.500000     -5.2581097E-32
   4.510000     -5.6543153E-32
   4.520000     -6.0537894E-32
   4.530000     -6.4547271E-32
   4.540000     -6.8551492E-32
   4.550000     -7.2529001E-32
   4.560000     -7.6456662E-32
   4.570000     -8.0309333E-32
   4.580000     -8.4060706E-32
   4.590000     -8.7682974E-32
   4.600000     -9.1145928E-32
   4.610000     -9.4417710E-32
   4.620000     -9.7464892E-32
   4.630000     -1.0025248E-31
   4.640000     -1.0274372E-31
   4.650000     -1.0490035E-31
   4.660000     -1.0668240E-31
   4.670000     -1.0804841E-31
   4.680000     -1.0895594E-31
   4.690000     -1.0936115E-31
   4.700000     -1.0921912E-31
   4.710000     -1.0848387E-31
   4.720000     -1.0710869E-31
   4.730000     -1.0504623E-31
   4.740000     -1.0224845E-31
   4.750000     -9.8667117E-32
   4.760000     -9.4253835E-32
   4.770000     -8.8960231E-32
   4.780000     -8.2738210E-32
   4.790000     -7.5540229E-32
   4.800000     -6.7319509E-32
   4.810000     -5.8030312E-32
   4.820000     -4.7628166E-32
   4.830000     -3.6070329E-32
   4.840000     -2.3316088E-32
   4.850000     -9.3267976E-33
   4.860000      5.9335487E-33
   4.870000      2.2497908E-32
   4.880000      4.0395763E-32
   4.890000      5.9652841E-32
   4.900000      8.0290737E-32
   4.910000      1.0232636E-31
   4.920000      1.2577164E-31
   4.930000      1.5063290E-31
   4.940000      1.7691047E-31
   4.950000      2.0459822E-31
   4.960000      2.3368308E-31
   4.970000      2.6414444E-31
   4.980000      2.9595381E-31
   4.990000      3.2907410E-31
   5.000000      3.6345923E-31
   5.010000      3.9905358E-31
   5.020000      4.3579140E-31
   5.030000      4.7359628E-31
   5.040000      5.1238045E-31
   5.050000      5.5204492E-31
   5.060000      5.9247854E-31
   5.070000      6.3355699E-31
   5.080000      6.7514297E-31
   5.090000      7.1708574E-31
   5.100000      7.5922030E-31
   5.110000      8.0136741E-31
   5.120000      8.4333303E-31
   5.130000      8.8490792E-31
   5.140000      9.2586769E-31
   5.150000      9.6597198E-31
   5.160000      1.0049647E-30
   5.170000      1.0425741E-30
   5.180000      1.0785116E-30
   5.190000      1.1124734E-30
   5.200000      1.1441388E-30
   5.210000      1.1731719E-30
   5.220000      1.1992202E-30
   5.230000      1.2219158E-30
   5.240000      1.2408762E-30
   5.250000      1.2557033E-30
   5.260000      1.2659851E-30
   5.270000      1.2712961E-30
   5.280000      1.2711975E-30
   5.290000      1.2652388E-30
   5.300000      1.2529583E-30
   5.310000      1.2338842E-30
   5.320000      1.2075362E-30
   5.330000      1.1734260E-30
   5.340000      1.1310600E-30
   5.350000      1.0799395E-30
   5.360000      1.0195637E-30
   5.370000      9.4943080E-31
   5.380000      8.6904034E-31
   5.390000      7.7789556E-31
   5.400000      6.7550563E-31
   5.410000      5.6138789E-31
   5.420000      4.3507115E-31
   5.430000      2.9609840E-31
   5.440000      1.4402914E-31
   5.450000     -2.1556361E-32
   5.460000     -2.0105378E-31
   5.470000     -3.9483134E-31
   5.480000     -6.0322618E-31
   5.490000     -8.2654020E-31
   5.500000     -1.0650357E-30
   5.510000     -1.3189315E-30
   5.520000     -1.5883985E-30
   5.530000     -1.8735554E-30
   5.540000     -2.1744631E-30
   5.550000     -2.4911210E-30
   5.560000     -2.8234605E-30
   5.570000     -3.1713419E-30
   5.580000     -3.5345486E-30
   5.590000     -3.9127806E-30
   5.600000     -4.3056504E-30
   5.610000     -4.7126776E-30
   5.620000     -5.1332841E-30
   5.630000     -5.5667873E-30
   5.640000     -6.0123948E-30
   5.650000     -6.4692002E-30
   5.660000     -6.9361788E-30
   5.670000     -7.4121791E-30
   5.680000     -7.8959193E-30
   5.690000     -8.3859850E-30
   5.700000     -8.8808188E-30
   5.710000     -9.3787206E-30
   5.720000     -9.8778412E-30
   5.730000     -1.0376177E-29
   5.740000     -1.0871570E-29
   5.750000     -1.1361700E-29
   5.760000     -1.1844084E-29
   5.770000     -1.2316074E-29
   5.780000     -1.2774850E-29
   5.790000     -1.3217425E-29
   5.800000     -1.3640643E-29
   5.810000     -1.4041167E-29
   5.820000     -1.4415497E-29
   5.830000     -1.4759957E-29
   5.840000     -1.5070706E-29
   5.850000     -1.5343730E-29
   5.860000     -1.5574857E-29
   5.870000     -1.5759752E-29
   5.880000     -1.5893928E-29
   5.890000     -1.5972744E-29
   5.900000     -1.5991427E-29
   5.910000     -1.5945069E-29
   5.920000     -1.5828637E-29
   5.930000     -1.5636989E-29
   5.940000     -1.5364883E-29
   5.950000     -1.5006994E-29
   5.960000     -1.4557924E-29
   5.970000     -1.4012221E-29
   5.980000     -1.3364398E-29
   5.990000     -1.2608956E-29
   6.000000     -1.1740394E-29
   6.010000     -1.0753243E-29
   6.020000     -9.6420818E-30
   6.030000     -8.4015730E-30
   6.040000     -7.0264748E-30
   6.050000     -5.5116839E-30
   6.060000     -3.8522616E-30
   6.070000     -2.0434683E-30
   6.080000     -8.0791227E-32
   6.090000      2.0400101E-30
   6.100000      4.3228739E-30
   6.110000      6.7714012E-30
   6.120000      9.3887964E-30
   6.130000      1.2177840E-29
   6.140000      1.5140855E-29
   6.150000      1.8279635E-29
   6.160000      2.1595412E-29
   6.170000      2.5088813E-29
   6.180000      2.8759798E-29
   6.190000      3.2607622E-29
   6.200000      3.6630784E-29
   6.210000      4.0826961E-29
   6.220000      4.5192972E-29
   6.230000      4.9724713E-29
   6.240000      5.4417108E-29
   6.250000      5.9264054E-29
   6.260000      6.4258358E-29
   6.270000      6.9391719E-29
   6.280000      7.4654636E-29
   6.290000      8.0036364E-29
   6.300000      8.5524879E-29
   6.310000      9.1106826E-29
   6.320000      9.6767453E-29
   6.330000      1.0249058E-28
   6.340000      1.0825854E-28
   6.350000      1.1405219E-28
   6.360000      1.1985078E-28
   6.370000      1.2563201E-28
   6.380000      1.3137195E-28
   6.390000      1.3704503E-28
   6.400000      1.4262402E-28
   6.410000      1.4807996E-28
   6.420000      1.5338224E-28
   6.430000      1.5849853E-28
   6.440000      1.6339481E-28
   6.450000      1.6803531E-28
   6.460000      1.7238262E-28
   6.470000      1.7639766E-28
   6.480000      1.8003969E-28
   6.490000      1.8326639E-28
   6.500000      1.8603384E-28
   6.510000      1.8829670E-28
   6.520000      1.9000812E-28
   6.530000      1.9111991E-28
   6.540000      1.9158264E-28
   6.550000      1.9134564E-28
   6.560000      1.9035723E-28
   6.570000      1.8856473E-28
   6.580000      1.8591468E-28
   6.590000      1.8235291E-28
   6.600000      1.7782477E-28
   6.610000      1.7227529E-28
   6.620000      1.6564926E-28
   6.630000      1.5789156E-28
   6.640000      1.4894737E-28
   6.650000      1.3876224E-28
   6.660000      1.2728248E-28
   6.670000      1.1445538E-28
   6.680000      1.0022951E-28
   6.690000      8.4554927E-29
   6.700000      6.7383474E-29
   6.710000      4.8669204E-29
   6.720000      2.8368626E-29
   6.730000      6.4410147E-30
   6.740000     -1.7151268E-29
   6.750000     -4.2442329E-29
   6.760000     -6.9462311E-29
   6.770000     -9.8237112E-29
   6.780000     -1.2878796E-28
   6.790000     -1.6113099E-28
   6.800000     -1.9527686E-28
   6.810000     -2.3123035E-28
   6.820000     -2.6898982E-28
   6.830000     -3.0854686E-28
   6.840000     -3.4988576E-28
   6.850000     -3.9298321E-28
   6.860000     -4.3780764E-28
   6.870000     -4.8431904E-28
   6.880000     -5.3246816E-28
   6.890000     -5.8219639E-28
   6.900000     -6.3343508E-28
   6.910000     -6.8610527E-28
   6.920000     -7.4011726E-28
   6.930000     -7.9537002E-28
   6.940000     -8.5175070E-28
   6.950000     -9.0913485E-28
   6.960000     -9.6738527E-28
   6.970000     -1.0263519E-27
   6.980000     -1.0858719E-27
   6.990000     -1.1457688E-27
   7.000000     -1.2058526E-27
   7.010000     -1.2659191E-27
   7.020000     -1.3257505E-27
   7.030000     -1.3851141E-27
   7.040000     -1.4437629E-27
   7.050000     -1.5014354E-27
   7.060000     -1.5578556E-27