  -2.600000      0.0000000E+00
  -2.590000      0.0000000E+00
  -2.580000      0.0000000E+00
  -2.570000      0.0000000E+00
  -2.560000      0.0000000E+00
  -2.550000      0.0000000E+00
  -2.540000      0.0000000E+00
  -2.530000      0.0000000E+00
  -2.520000      0.0000000E+00
  -2.510000      0.0000000E+00
  -2.500000      0.0000000E+00
  -2.490000      0.0000000E+00
  -2.480000      0.0000000E+00
  -2.470000      0.0000000E+00
  -2.460000      0.0000000E+00
  -2.450000      0.0000000E+00
  -2.440000      0.0000000E+00
  -2.430000      0.0000000E+00
  -2.420000      0.0000000E+00
  -2.410000      0.0000000E+00
  -2.400000      0.0000000E+00
  -2.390000      0.0000000E+00
  -2.380000      0.0000000E+00
  -2.370000      0.0000000E+00
  -2.360000      0.0000000E+00
  -2.350000      0.0000000E+00
  -2.340000      0.0000000E+00
  -2.330000      0.0000000E+00
  -2.320000      0.0000000E+00
  -2.310000      0.0000000E+00
  -2.300000      0.0000000E+00
  -2.290000      0.0000000E+00
  -2.280000      0.0000000E+00
  -2.270000      0.0000000E+00
  -2.260000      0.0000000E+00
  -2.250000      0.0000000E+00
  -2.240000      0.0000000E+00
  -2.230000      0.0000000E+00
  -2.220000      0.0000000E+00
  -2.210000      0.0000000E+00
  -2.200000      0.0000000E+00
  -2.190000      0.0000000E+00
  -2.180000      0.0000000E+00
  -2.170000      0.0000000E+00
  -2.160000      0.0000000E+00
  -2.150000      0.0000000E+00
  -2.140000      0.0000000E+00
  -2.130000      0.0000000E+00
  -2.120000      0.0000000E+00
  -2.110000      0.0000000E+00
  -2.100000      0.0000000E+00
  -2.090000      0.0000000E+00
  -2.080000      0.0000000E+00
  -2.070000      0.0000000E+00
  -2.060000      0.0000000E+00
  -2.050000      0.0000000E+00
  -2.040000      0.0000000E+00
  -2.030000      0.0000000E+00
  -2.020000      0.0000000E+00
  -2.010000      0.0000000E+00
  -2.000000      0.0000000E+00
  -1.990000      0.0000000E+00
  -1.980000      0.0000000E+00
  -1.970000      0.0000000E+00
  -1.960000      0.0000000E+00
  -1.950000      0.0000000E+00
  -1.940000      0.0000000E+00
  -1.930000      0.0000000E+00
  -1.920000      0.0000000E+00
  -1.910000      0.0000000E+00
  -1.900000      0.0000000E+00
  -1.890000      0.0000000E+00
  -1.880000      0.0000000E+00
  -1.870000      0.0000000E+00
  -1.860000      0.0000000E+00
  -1.850000      0.0000000E+00
  -1.840000      0.0000000E+00
  -1.830000      0.0000000E+00
  -1.820000      0.0000000E+00
  -1.810000      0.0000000E+00
  -1.800000      0.0000000E+00
  -1.790000      0.0000000E+00
  -1.780000      0.0000000E+00
  -1.770000      0.0000000E+00
  -1.760000      0.0000000E+00
  -1.750000      0.0000000E+00
  -1.740000      0.0000000E+00
  -1.730000      0.0000000E+00
  -1.720000      0.0000000E+00
  -1.710000      0.0000000E+00
  -1.700000      0.0000000E+00
  -1.690000      0.0000000E+00
  -1.680000      0.0000000E+00
  -1.670000      0.0000000E+00
  -1.660000      0.0000000E+00
  -1.650000      0.0000000E+00
  -1.640000      0.0000000E+00
  -1.630000      0.0000000E+00
  -1.620000      0.0000000E+00
  -1.610000      0.0000000E+00
  -1.600000      0.0000000E+00
  -1.590000      0.0000000E+00
  -1.580000      0.0000000E+00
  -1.570000      0.0000000E+00
  -1.560000      0.0000000E+00
  -1.550000      0.0000000E+00
  -1.540000      0.0000000E+00
  -1.530000      0.0000000E+00
  -1.520000      0.0000000E+00
  -1.510000      0.0000000E+00
  -1.500000      0.0000000E+00
  -1.490000      0.0000000E+00
  -1.480000      0.0000000E+00
  -1.470000      0.0000000E+00
  -1.460000      0.0000000E+00
  -1.450000      0.0000000E+00
  -1.440000      0.0000000E+00
  -1.430000      0.0000000E+00
  -1.420000      0.0000000E+00
  -1.410000      0.0000000E+00
  -1.400000      0.0000000E+00
  -1.390000      0.0000000E+00
  -1.380000      0.0000000E+00
  -1.370000      0.0000000E+00
  -1.360000      0.0000000E+00
  -1.350000      0.0000000E+00
  -1.340000      0.0000000E+00
  -1.330000      0.0000000E+00
  -1.320000      0.0000000E+00
  -1.310000      0.0000000E+00
  -1.300000      0.0000000E+00
  -1.290000      0.0000000E+00
  -1.280000      0.0000000E+00
  -1.270000      0.0000000E+00
  -1.260000      0.0000000E+00
  -1.250000      0.0000000E+00
  -1.240000      0.0000000E+00
  -1.230000      0.0000000E+00
  -1.220000      0.0000000E+00
  -1.210000      0.0000000E+00
  -1.200000      0.0000000E+00
  -1.190000      0.0000000E+00
  -1.180000      0.0000000E+00
  -1.170000      0.0000000E+00
  -1.160000      0.0000000E+00
  -1.150000      0.0000000E+00
  -1.140000      0.0000000E+00
  -1.130000      0.0000000E+00
  -1.120000      0.0000000E+00
  -1.110000      0.0000000E+00
  -1.100000      0.0000000E+00
  -1.090000      0.0000000E+00
  -1.080000      0.0000000E+00
  -1.070000      0.0000000E+00
  -1.060000      0.0000000E+00
  -1.050000      0.0000000E+00
  -1.040000      0.0000000E+00
  -1.030000      0.0000000E+00
  -1.020000      0.0000000E+00
  -1.010000      0.0000000E+00
  -1.000000      0.0000000E+00
 -0.9900000      0.0000000E+00
 -0.9800000      0.0000000E+00
 -0.9700000      0.0000000E+00
 -0.9600000      0.0000000E+00
 -0.9500000      0.0000000E+00
 -0.9400000      0.0000000E+00
 -0.9300000      0.0000000E+00
 -0.9200000      0.0000000E+00
 -0.9100000      0.0000000E+00
 -0.9000000      0.0000000E+00
 -0.8900000      0.0000000E+00
 -0.8800000      0.0000000E+00
 -0.8700000      0.0000000E+00
 -0.8600000      0.0000000E+00
 -0.8500000      0.0000000E+00
 -0.8400000      0.0000000E+00
 -0.8300000      0.0000000E+00
 -0.8200000      0.0000000E+00
 -0.8100000      0.0000000E+00
 -0.8000000      0.0000000E+00
 -0.7900000      0.0000000E+00
 -0.7800000      0.0000000E+00
 -0.7700000      0.0000000E+00
 -0.7600000      0.0000000E+00
 -0.7500000      0.0000000E+00
 -0.7400000      0.0000000E+00
 -0.7300000      0.0000000E+00
 -0.7200000      0.0000000E+00
 -0.7100000      0.0000000E+00
 -0.7000000      0.0000000E+00
 -0.6900000      0.0000000E+00
 -0.6800000      0.0000000E+00
 -0.6700000      0.0000000E+00
 -0.6600000      0.0000000E+00
 -0.6500000      0.0000000E+00
 -0.6400000      0.0000000E+00
 -0.6300000      0.0000000E+00
 -0.6200000      0.0000000E+00
 -0.6100000      0.0000000E+00
 -0.6000000      0.0000000E+00
 -0.5900000      0.0000000E+00
 -0.5800000      0.0000000E+00
 -0.5700000     -1.9906941E-38
 -0.5600000     -2.8983014E-38
 -0.5500000     -3.8642450E-38
 -0.5400000     -4.9050810E-38
 -0.5300000     -6.0810950E-38
 -0.5200000     -7.3602210E-38
 -0.5100000     -8.7214328E-38
 -0.5000000     -1.0055003E-37
 -0.4900000     -1.1114089E-37
 -0.4800000     -1.1855179E-37
 -0.4700000     -1.1953622E-37
 -0.4600000     -1.1151893E-37
 -0.4500000     -9.2584003E-38
 -0.4400000     -3.7448575E-38
 -0.4300000      6.1557360E-38
 -0.4200000      2.4265185E-37
 -0.4100000      5.1881764E-37
 -0.4000000      8.7604256E-37
 -0.3900000      1.3144293E-36
 -0.3800000      1.7919579E-36
 -0.3700000      2.2086849E-36
 -0.3600000      2.4553827E-36
 -0.3500000      2.5369217E-36
 -0.3400000      2.4233983E-36
 -0.3300000      2.0086387E-36
 -0.3200000      1.2478834E-36
 -0.3100000      1.3833491E-37
 -0.3000000     -1.2435538E-36
 -0.2900000     -2.8022484E-36
 -0.2800000     -4.5431745E-36
 -0.2700000     -6.5671434E-36
 -0.2600000     -8.7741965E-36
 -0.2500000     -1.0915256E-35
 -0.2400000     -1.2825026E-35
 -0.2300000     -1.4349263E-35
 -0.2200000     -1.5382859E-35
 -0.2100000     -1.5862062E-35
 -0.2000000     -1.5626002E-35
 -0.1900000     -1.4431291E-35
 -0.1800000     -1.2013576E-35
 -0.1700000     -8.4551779E-36
 -0.1600000     -3.5902886E-36
 -0.1500000      2.9485838E-36
 -0.1400000      1.1243756E-35
 -0.1300000      2.1467275E-35
 -0.1200000      3.6289247E-35
 -0.1100000      5.6814144E-35
 -0.1000000      7.9787374E-35
 -9.0000004E-02  1.0048709E-34
 -7.9999998E-02  1.1863242E-34
 -7.0000000E-02  1.3638768E-34
 -5.9999999E-02  1.5177095E-34
 -5.0000001E-02  1.6419880E-34
 -3.9999999E-02  1.6932656E-34
 -2.9999999E-02  1.6455833E-34
 -2.0000000E-02  1.4496785E-34
 -9.9999998E-03  9.9934239E-35
 -3.4694470E-17  2.8370464E-35
  9.9999998E-03 -6.6208135E-35
  2.0000000E-02 -1.8176574E-34
  2.9999999E-02 -3.1593360E-34
  3.9999999E-02 -4.6492670E-34
  5.0000001E-02 -6.2425670E-34
  5.9999999E-02 -7.8450160E-34
  7.0000000E-02 -9.4041155E-34
  7.9999998E-02 -1.0870963E-33
  9.0000004E-02 -1.2044073E-33
  0.1000000     -1.2811804E-33
  0.1100000     -1.3119688E-33
  0.1200000     -1.2826419E-33
  0.1300000     -1.1815204E-33
  0.1400000     -9.9913144E-34
  0.1500000     -7.2660603E-34
  0.1600000     -3.6086524E-34
  0.1700000      9.7185465E-35
  0.1800000      6.4478524E-34
  0.1900000      1.2715660E-33
  0.2000000      1.9602483E-33
  0.2100000      2.6855570E-33
  0.2200000      3.4122816E-33
  0.2300000      4.0970912E-33
  0.2400000      4.6856362E-33
  0.2500000      5.1101950E-33
  0.2600000      5.2913398E-33
  0.2700000      5.1359993E-33
  0.2800000      4.5372113E-33
  0.2900000      3.3731894E-33
  0.3000000      1.5067212E-33
  0.3100000     -1.2154579E-33
  0.3200000     -4.9633963E-33
  0.3300000     -9.9245739E-33
  0.3400000     -1.6304680E-32
  0.3500000     -2.4328523E-32
  0.3600000     -3.4240837E-32
  0.3700000     -4.6307181E-32
  0.3800000     -6.0815070E-32
  0.3900000     -7.8074871E-32
  0.4000000     -9.8420933E-32
  0.4100000     -1.2221259E-31
  0.4200000     -1.4983503E-31
  0.4300000     -1.8170006E-31
  0.4400000     -2.1824663E-31
  0.4500000     -2.5994106E-31
  0.4600000     -3.0727697E-31
  0.4700000     -3.6077483E-31
  0.4800000     -4.2098083E-31
  0.4900000     -4.8846553E-31
  0.5000000     -5.6382192E-31
  0.5100000     -6.4766283E-31
  0.5200000     -7.4061810E-31
  0.5300000     -8.4333134E-31
  0.5400000     -9.5645650E-31
  0.5500000     -1.0806542E-30
  0.5600000     -1.2165883E-30
  0.5700000     -1.3649231E-30
  0.5800000     -1.5263205E-30
  0.5900000     -1.7014382E-30
  0.6000000     -1.8909299E-30
  0.6100000     -2.0954451E-30
  0.6200000     -2.3156321E-30
  0.6300000     -2.5521423E-30
  0.6400000     -2.8056353E-30
  0.6500000     -3.0767880E-30
  0.6600000     -3.3663029E-30
  0.6700000     -3.6749203E-30
  0.6800000     -4.0034328E-30
  0.6900000     -4.3526968E-30
  0.7000000     -4.7236509E-30
  0.7100000     -5.1173275E-30
  0.7200000     -5.5348721E-30
  0.7300000     -5.9775558E-30
  0.7400000     -6.4467902E-30
  0.7500000     -6.9441375E-30
  0.7600000     -7.4713210E-30
  0.7700000     -8.0302326E-30
  0.7800000     -8.6229376E-30
  0.7900000     -9.2516724E-30
  0.8000000     -9.9188462E-30
  0.8100000     -1.0627035E-29
  0.8200000     -1.1378979E-29
  0.8300000     -1.2177569E-29
  0.8400000     -1.3025841E-29
  0.8500000     -1.3926967E-29
  0.8600000     -1.4884250E-29
  0.8700000     -1.5901122E-29
  0.8800000     -1.6981132E-29
  0.8900000     -1.8127966E-29
  0.9000000     -1.9345444E-29
  0.9100000     -2.0637542E-29
  0.9200000     -2.2008409E-29
  0.9300000     -2.3462408E-29
  0.9400000     -2.5004135E-29
  0.9500000     -2.6638467E-29
  0.9600000     -2.8370615E-29
  0.9700000     -3.0206153E-29
  0.9800000     -3.2151086E-29
  0.9900000     -3.4211889E-29
   1.000000     -3.6395547E-29
   1.010000     -3.8709609E-29
   1.020000     -4.1162197E-29
   1.030000     -4.3762045E-29
   1.040000     -4.6518503E-29
   1.050000     -4.9441517E-29
   1.060000     -5.2541632E-29
   1.070000     -5.5829941E-29
   1.080000     -5.9318052E-29
   1.090000     -6.3018047E-29
   1.100000     -6.6942376E-29
   1.110000     -7.1103835E-29
   1.120000     -7.5515454E-29
   1.130000     -8.0190475E-29
   1.140000     -8.5142269E-29
   1.150000     -9.0384290E-29
   1.160000     -9.5930071E-29
   1.170000     -1.0179320E-28
   1.180000     -1.0798734E-28
   1.190000     -1.1452627E-28
   1.200000     -1.2142400E-28
   1.210000     -1.2869484E-28
   1.220000     -1.3635349E-28
   1.230000     -1.4441528E-28
   1.240000     -1.5289621E-28
   1.250000     -1.6181319E-28
   1.260000     -1.7118421E-28
   1.270000     -1.8102842E-28
   1.280000     -1.9136636E-28
   1.290000     -2.0221997E-28
   1.300000     -2.1361271E-28
   1.310000     -2.2556959E-28
   1.320000     -2.3811699E-28
   1.330000     -2.5128289E-28
   1.340000     -2.6509636E-28
   1.350000     -2.7958768E-28
   1.360000     -2.9478789E-28
   1.370000     -3.1072867E-28
   1.380000     -3.2744196E-28
   1.390000     -3.4495972E-28
   1.400000     -3.6331361E-28
   1.410000     -3.8253471E-28
   1.420000     -4.0265331E-28
   1.430000     -4.2369867E-28
   1.440000     -4.4569914E-28
   1.450000     -4.6868184E-28
   1.460000     -4.9267301E-28
   1.470000     -5.1769801E-28
   1.480000     -5.4378160E-28
   1.490000     -5.7094829E-28
   1.500000     -5.9922272E-28
   1.510000     -6.2863018E-28
   1.520000     -6.5919700E-28
   1.530000     -6.9095096E-28
   1.540000     -7.2392182E-28
   1.550000     -7.5814146E-28
   1.560000     -7.9364419E-28
   1.570000     -8.3046696E-28
   1.580000     -8.6864891E-28
   1.590000     -9.0823139E-28
   1.600000     -9.4925745E-28
   1.610000     -9.9177072E-28
   1.620000     -1.0358154E-27
   1.630000     -1.0814340E-27
   1.640000     -1.1286675E-27
   1.650000     -1.1775531E-27
   1.660000     -1.2281237E-27
   1.670000     -1.2804059E-27
   1.680000     -1.3344190E-27
   1.690000     -1.3901745E-27
   1.700000     -1.4476745E-27
   1.710000     -1.5069121E-27
   1.720000     -1.5678699E-27
   1.730000     -1.6305206E-27
   1.740000     -1.6948280E-27
   1.750000     -1.7607464E-27
   1.760000     -1.8282231E-27
   1.770000     -1.8971985E-27
   1.780000     -1.9676086E-27
   1.790000     -2.0393855E-27
   1.800000     -2.1124601E-27
   1.810000     -2.1867627E-27
   1.820000     -2.2622247E-27
   1.830000     -2.3387800E-27
   1.840000     -2.4163649E-27
   1.850000     -2.4949186E-27
   1.860000     -2.5743821E-27
   1.870000     -2.6546974E-27
   1.880000     -2.7358062E-27
   1.890000     -2.8176471E-27
   1.900000     -2.9001524E-27
   1.910000     -2.9832456E-27
   1.920000     -3.0668379E-27
   1.930000     -3.1508227E-27
   1.940000     -3.2350739E-27
   1.950000     -3.3194412E-27
   1.960000     -3.4037472E-27
   1.970000     -3.4877867E-27
   1.980000     -3.5713220E-27
   1.990000     -3.6540850E-27
   2.000000     -3.7357756E-27
   2.010000     -3.8160646E-27
   2.020000     -3.8945936E-27
   2.030000     -3.9709821E-27
   2.040000     -4.0448296E-27
   2.050000     -4.1157204E-27
   2.060000     -4.1832296E-27
   2.070000     -4.2469286E-27
   2.080000     -4.3063917E-27
   2.090000     -4.3611986E-27
   2.100000     -4.4109412E-27
   2.110000     -4.4552241E-27
   2.120000     -4.4936683E-27
   2.130000     -4.5259099E-27
   2.140000     -4.5515995E-27
   2.150000     -4.5703978E-27
   2.160000     -4.5819703E-27
   2.170000     -4.5859828E-27
   2.180000     -4.5820920E-27
   2.190000     -4.5699371E-27
   2.200000     -4.5491317E-27
   2.210000     -4.5192539E-27
   2.220000     -4.4798409E-27
   2.230000     -4.4303804E-27
   2.240000     -4.3703056E-27
   2.250000     -4.2989934E-27
   2.260000     -4.2157636E-27
   2.270000     -4.1198842E-27
   2.280000     -4.0105758E-27
   2.290000     -3.8870220E-27
   2.300000     -3.7483804E-27
   2.310000     -3.5937999E-27
   2.320000     -3.4224357E-27
   2.330000     -3.2334684E-27
   2.340000     -3.0261219E-27
   2.350000     -2.7996824E-27
   2.360000     -2.5535158E-27
   2.370000     -2.2870809E-27
   2.380000     -1.9999417E-27
   2.390000     -1.6917744E-27
   2.400000     -1.3623711E-27
   2.410000     -1.0116383E-27
   2.420000     -6.3958944E-28
   2.430000     -2.4633304E-28
   2.440000      1.6794260E-28
   2.450000      6.0298936E-28
   2.460000      1.0585217E-27
   2.470000      1.5342395E-27
   2.480000      2.0298514E-27
   2.490000      2.5450966E-27
   2.500000      3.0797646E-27
   2.510000      3.6337090E-27
   2.520000      4.2068554E-27
   2.530000      4.7992025E-27
   2.540000      5.4108170E-27
   2.550000      6.0418190E-27
   2.560000      6.6923562E-27
   2.570000      7.3625752E-27
   2.580000      8.0525858E-27
   2.590000      8.7624173E-27
   2.600000      9.4919704E-27
   2.610000      1.0240975E-26
   2.620000      1.1008941E-26
   2.630000      1.1795118E-26
   2.640000      1.2598460E-26
   2.650000      1.3417595E-26
   2.660000      1.4250815E-26
   2.670000      1.5096066E-26
   2.680000      1.5950959E-26
   2.690000      1.6812794E-26
   2.700000      1.7678595E-26
   2.710000      1.8545163E-26
   2.720000      1.9409132E-26
   2.730000      2.0267038E-26
   2.740000      2.1115391E-26
   2.750000      2.1950745E-26
   2.760000      2.2769775E-26
   2.770000      2.3569341E-26
   2.780000      2.4346537E-26
   2.790000      2.5098736E-26
   2.800000      2.5823608E-26
   2.810000      2.6519128E-26
   2.820000      2.7183561E-26
   2.830000      2.7815417E-26
   2.840000      2.8413411E-26
   2.850000      2.8976365E-26
   2.860000      2.9503145E-26
   2.870000      2.9992550E-26
   2.880000      3.0443221E-26
   2.890000      3.0853533E-26
   2.900000      3.1221509E-26
   2.910000      3.1544754E-26
   2.920000      3.1820378E-26
   2.930000      3.2044984E-26
   2.940000      3.2214654E-26
   2.950000      3.2324996E-26
   2.960000      3.2371181E-26
   2.970000      3.2348073E-26
   2.980000      3.2250332E-26
   2.990000      3.2072573E-26
   3.000000      3.1809543E-26
   3.010000      3.1456297E-26
   3.020000      3.1008400E-26
   3.030000      3.0462098E-26
   3.040000      2.9814477E-26
   3.050000      2.9063617E-26
   3.060000      2.8208692E-26
   3.070000      2.7250035E-26
   3.080000      2.6189165E-26
   3.090000      2.5028735E-26
   3.100000      2.3772459E-26
   3.110000      2.2424980E-26
   3.120000      2.0991686E-26
   3.130000      1.9478489E-26
   3.140000      1.7891590E-26
   3.150000      1.6237229E-26
   3.160000      1.4521418E-26
   3.170000      1.2749695E-26
   3.180000      1.0926915E-26
   3.190000      9.0570684E-27
   3.200000      7.1431686E-27
   3.210000      5.1871938E-27
   3.220000      3.1901084E-27
   3.230000      1.1519477E-27
   3.240000     -9.2801445E-28
   3.250000     -3.0510318E-27
   3.260000     -5.2185972E-27
   3.270000     -7.4321005E-27
   3.280000     -9.6924605E-27
   3.290000     -1.1999758E-26
   3.300000     -1.4352874E-26
   3.310000     -1.6749159E-26
   3.320000     -1.9184162E-26
   3.330000     -2.1651451E-26
   3.340000     -2.4142516E-26
   3.350000     -2.6646782E-26
   3.360000     -2.9151748E-26
   3.370000     -3.1643242E-26
   3.380000     -3.4105779E-26
   3.390000     -3.6523061E-26
   3.400000     -3.8878523E-26
   3.410000     -4.1155974E-26
   3.420000     -4.3340283E-26
   3.430000     -4.5418056E-26
   3.440000     -4.7378302E-26
   3.450000     -4.9213029E-26
   3.460000     -5.0917761E-26
   3.470000     -5.2491945E-26
   3.480000     -5.3939184E-26
   3.490000     -5.5267361E-26
   3.500000     -5.6488530E-26
   3.510000     -5.7618703E-26
   3.520000     -5.8677409E-26
   3.530000     -5.9687176E-26
   3.540000     -6.0672876E-26
   3.550000     -6.1660955E-26
   3.560000     -6.2678678E-26
   3.570000     -6.3753353E-26
   3.580000     -6.4911629E-26
   3.590000     -6.6178922E-26
   3.600000     -6.7578910E-26
   3.610000     -6.9133323E-26
   3.620000     -7.0861908E-26
   3.630000     -7.2782624E-26
   3.640000     -7.4912099E-26
   3.650000     -7.7266337E-26
   3.660000     -7.9861671E-26
   3.670000     -8.2715813E-26
   3.680000     -8.5849175E-26
   3.690000     -8.9286131E-26
   3.700000     -9.3056436E-26
   3.710000     -9.7196501E-26
   3.720000     -1.0175052E-25
   3.730000     -1.0677147E-25
   3.740000     -1.1232180E-25
   3.750000     -1.1847374E-25
   3.760000     -1.2530941E-25
   3.770000     -1.3292030E-25
   3.780000     -1.4140661E-25
   3.790000     -1.5087592E-25
   3.800000     -1.6144180E-25
   3.810000     -1.7322190E-25
   3.820000     -1.8633586E-25
   3.830000     -2.0090320E-25
   3.840000     -2.1704103E-25
   3.850000     -2.3486179E-25
   3.860000     -2.5447127E-25
   3.870000     -2.7596684E-25
   3.880000     -2.9943595E-25
   3.890000     -3.2495513E-25
   3.900000     -3.5258939E-25
   3.910000     -3.8239211E-25
   3.920000     -4.1440540E-25
   3.930000     -4.4866094E-25
   3.940000     -4.8518111E-25
   3.950000     -5.2398049E-25
   3.960000     -5.6506767E-25
   3.970000     -6.0844649E-25
   3.980000     -6.5411809E-25
   3.990000     -7.0208197E-25
   4.000000     -7.5233689E-25
   4.010000     -8.0488159E-25
   4.020000     -8.5971403E-25
   4.030000     -9.1683071E-25
   4.040000     -9.7622484E-25
   4.050000     -1.0378834E-24
   4.060000     -1.1017843E-24
   4.070000     -1.1678913E-24
   4.080000     -1.2361504E-24
   4.090000     -1.3064835E-24
   4.100000     -1.3787833E-24
   4.110000     -1.4529076E-24
   4.120000     -1.5286739E-24
   4.130000     -1.6058535E-24
   4.140000     -1.6841675E-24
   4.150000     -1.7632828E-24
   4.160000     -1.8428083E-24
   4.170000     -1.9222933E-24
   4.180000     -2.0012271E-24
   4.190000     -2.0790382E-24
   4.200000     -2.1550960E-24
   4.210000     -2.2287135E-24
   4.220000     -2.2991493E-24
   4.230000     -2.3656126E-24
   4.240000     -2.4272668E-24
   4.250000     -2.4832332E-24
   4.260000     -2.5325963E-24
   4.270000     -2.5744071E-24
   4.280000     -2.6076860E-24
   4.290000     -2.6314250E-24
   4.300000     -2.6445891E-24
   4.310000     -2.6461162E-24
   4.320000     -2.6349159E-24
   4.330000     -2.6098668E-24
   4.340000     -2.5698128E-24
   4.350000     -2.5135591E-24
   4.360000     -2.4398663E-24
   4.370000     -2.3474461E-24
   4.380000     -2.2349552E-24
   4.390000     -2.1009908E-24
   4.400000     -1.9440870E-24
   4.410000     -1.7627115E-24
   4.420000     -1.5552669E-24
   4.430000     -1.3200909E-24
   4.440000     -1.0554604E-24
   4.450000     -7.5959826E-25
   4.460000     -4.3068290E-25
   4.470000     -6.6859703E-26
   4.480000      3.3374417E-25
   4.490000      7.7300332E-25
   4.500000      1.2527757E-24
   4.510000      1.7748824E-24
   4.520000      2.3410869E-24
   4.530000      2.9530740E-24
   4.540000      3.6124284E-24
   4.550000      4.3206144E-24
   4.560000      5.0789583E-24
   4.570000      5.8886289E-24
   4.580000      6.7506236E-24
   4.590000      7.6657535E-24
   4.600000      8.6346356E-24
   4.610000      9.6576801E-24
   4.620000      1.0735086E-23
   4.630000      1.1866835E-23
   4.640000      1.3052687E-23
   4.650000      1.4292173E-23
   4.660000      1.5584599E-23
   4.670000      1.6929024E-23
   4.680000      1.8324275E-23
   4.690000      1.9768911E-23
   4.700000      2.1261234E-23
   4.710000      2.2799257E-23
   4.720000      2.4380688E-23
   4.730000      2.6002903E-23
   4.740000      2.7662922E-23
   4.750000      2.9357373E-23
   4.760000      3.1082454E-23
   4.770000      3.2833905E-23
   4.780000      3.4606962E-23
   4.790000      3.6396319E-23
   4.800000      3.8196077E-23
   4.810000      3.9999735E-23
   4.820000      4.1800130E-23
   4.830000      4.3589421E-23
   4.840000      4.5359063E-23
   4.850000      4.7099783E-23
   4.860000      4.8801570E-23
   4.870000      5.0453679E-23
   4.880000      5.2044619E-23
   4.890000      5.3562172E-23
   4.900000      5.4993412E-23
   4.910000      5.6324713E-23
   4.920000      5.7541780E-23
   4.930000      5.8629682E-23
   4.940000      5.9572882E-23
   4.950000      6.0355275E-23
   4.960000      6.0960224E-23
   4.970000      6.1370564E-23
   4.980000      6.1568656E-23
   4.990000      6.1536427E-23
   5.000000      6.1255371E-23
   5.010000      6.0706583E-23
   5.020000      5.9870769E-23
   5.030000      5.8728284E-23
   5.040000      5.7259128E-23
   5.050000      5.5442987E-23
   5.060000      5.3259237E-23
   5.070000      5.0686986E-23
   5.080000      4.7705098E-23
   5.090000      4.4292240E-23
   5.100000      4.0426935E-23
   5.110000      3.6087644E-23
   5.120000      3.1252826E-23
   5.130000      2.5901047E-23
   5.140000      2.0011087E-23
   5.150000      1.3562060E-23
   5.160000      6.5335819E-24
   5.170000     -1.0940888E-24
   5.180000     -9.3398780E-24
   5.190000     -1.8221706E-23
   5.200000     -2.7756298E-23
   5.210000     -3.7958986E-23
   5.220000     -4.8843506E-23
   5.230000     -6.0421785E-23
   5.240000     -7.2703750E-23
   5.250000     -8.5697116E-23
   5.260000     -9.9407171E-23
   5.270000     -1.1383663E-22
   5.280000     -1.2898541E-22
   5.290000     -1.4485050E-22
   5.300000     -1.6142572E-22
   5.310000     -1.7870166E-22
   5.320000     -1.9666545E-22
   5.330000     -2.1530061E-22
   5.340000     -2.3458699E-22
   5.350000     -2.5450046E-22
   5.360000     -2.7501297E-22
   5.370000     -2.9609211E-22
   5.380000     -3.1770122E-22
   5.390000     -3.3979900E-22
   5.400000     -3.6233952E-22
   5.410000     -3.8527176E-22
   5.420000     -4.0853963E-22
   5.430000     -4.3208156E-22
   5.440000     -4.5583054E-22
   5.450000     -4.7971351E-22
   5.460000     -5.0365146E-22
   5.470000     -5.2755907E-22
   5.480000     -5.5134440E-22
   5.490000     -5.7490885E-22
   5.500000     -5.9814695E-22
   5.510000     -6.2094607E-22
   5.520000     -6.4318644E-22
   5.530000     -6.6474100E-22
   5.540000     -6.8547550E-22
   5.550000     -7.0524816E-22
   5.560000     -7.2391011E-22
   5.570000     -7.4130534E-22
   5.580000     -7.5727067E-22
   5.590000     -7.7163622E-22
   5.600000     -7.8422558E-22
   5.610000     -7.9485600E-22
   5.620000     -8.0333874E-22
   5.630000     -8.0947948E-22
   5.640000     -8.1307876E-22
   5.650000     -8.1393219E-22
   5.660000     -8.1183117E-22
   5.670000     -8.0656325E-22
   5.680000     -7.9791248E-22
   5.690000     -7.8566028E-22
   5.700000     -7.6958549E-22
   5.710000     -7.4946542E-22
   5.720000     -7.2507611E-22
   5.730000     -6.9619330E-22
   5.740000     -6.6259262E-22
   5.750000     -6.2405082E-22
   5.760000     -5.8034616E-22
   5.770000     -5.3125947E-22
   5.780000     -4.7657488E-22
   5.790000     -4.1608096E-22
   5.800000     -3.4957178E-22
   5.810000     -2.7684797E-22
   5.820000     -1.9771801E-22
   5.830000     -1.1199956E-22
   5.840000     -1.9520931E-23
   5.850000      7.9877436E-23
   5.860000      1.8634138E-22
   5.870000      3.0000133E-22
   5.880000      4.2097051E-22
   5.890000      5.4934330E-22
   5.900000      6.8519312E-22
   5.910000      8.2857093E-22
   5.920000      9.7950261E-22
   5.930000      1.1379879E-21
   5.940000      1.3039978E-21
   5.950000      1.4774731E-21
   5.960000      1.6583221E-21
   5.970000      1.8464192E-21
   5.980000      2.0416023E-21
   5.990000      2.2436721E-21
   6.000000      2.4523894E-21
   6.010000      2.6674737E-21
   6.020000      2.8886015E-21
   6.030000      3.1154049E-21
   6.040000      3.3474691E-21
   6.050000      3.5843319E-21
   6.060000      3.8254817E-21
   6.070000      4.0703567E-21
   6.080000      4.3183412E-21
   6.090000      4.5687665E-21
   6.100000      4.8209088E-21
   6.110000      5.0739869E-21
   6.120000      5.3271623E-21
   6.130000      5.5795372E-21
   6.140000      5.8301531E-21
   6.150000      6.0779903E-21
   6.160000      6.3219673E-21
   6.170000      6.5609389E-21
   6.180000      6.7936974E-21
   6.190000      7.0189708E-21
   6.200000      7.2354223E-21
   6.210000      7.4416544E-21
   6.220000      7.6362051E-21
   6.230000      7.8175507E-21
   6.240000      7.9841056E-21
   6.250000      8.1342276E-21
   6.260000      8.2662162E-21
   6.270000      8.3783161E-21
   6.280000      8.4687212E-21
   6.290000      8.5355733E-21
   6.300000      8.5769744E-21
   6.310000      8.5909815E-21
   6.320000      8.5756173E-21
   6.330000      8.5288727E-21
   6.340000      8.4487105E-21
   6.350000      8.3330732E-21
   6.360000      8.1798889E-21
   6.370000      7.9870775E-21
   6.380000      7.7525556E-21
   6.390000      7.4742457E-21
   6.400000      7.1500830E-21
   6.410000      6.7780221E-21
   6.420000      6.3560477E-21
   6.430000      5.8821823E-21
   6.440000      5.3544944E-21
   6.450000      4.7711087E-21
   6.460000      4.1302174E-21
   6.470000      3.4300898E-21
   6.480000      2.6690828E-21
   6.490000      1.8456544E-21
   6.500000      9.5837457E-22
   6.510000      5.9382088E-24
   6.520000     -1.0128224E-21
   6.530000     -2.0989219E-21
   6.540000     -3.2532095E-21
   6.550000     -4.4763537E-21
   6.560000     -5.7688259E-21
   6.570000     -7.1308882E-21
   6.580000     -8.5625755E-21
   6.590000     -1.0063676E-20
   6.600000     -1.1633727E-20
   6.610000     -1.3271983E-20
   6.620000     -1.4977410E-20
   6.630000     -1.6748669E-20
   6.640000     -1.8584094E-20
   6.650000     -2.0481685E-20
   6.660000     -2.2439084E-20
   6.670000     -2.4453562E-20
   6.680000     -2.6522010E-20
   6.690000     -2.8640919E-20
   6.700000     -3.0806364E-20
   6.710000     -3.3014000E-20
   6.720000     -3.5259039E-20
   6.730000     -3.7536245E-20
   6.740000     -3.9839920E-20
   6.750000     -4.2163897E-20
   6.760000     -4.4501532E-20
   6.770000     -4.6845681E-20
   6.780000     -4.9188705E-20
   6.790000     -5.1522476E-20
   6.800000     -5.3838346E-20
   6.810000     -5.6127158E-20
   6.820000     -5.8379235E-20
   6.830000     -6.0584401E-20
   6.840000     -6.2731943E-20
   6.850000     -6.4810654E-20
   6.860000     -6.6808806E-20
   6.870000     -6.8714184E-20
   6.880000     -7.0514065E-20
   6.890000     -7.2195258E-20
   6.900000     -7.3744102E-20
   6.910000     -7.5146470E-20
   6.920000     -7.6387823E-20
   6.930000     -7.7453205E-20
   6.940000     -7.8327257E-20
   6.950000     -7.8994288E-20
   6.960000     -7.9438264E-20
   6.970000     -7.9642869E-20
   6.980000     -7.9591545E-20
   6.990000     -7.9267490E-20
   7.000000     -7.8653761E-20
   7.010000     -7.7733283E-20
   7.020000     -7.6488913E-20
   7.030000     -7.4903505E-20
   7.040000     -7.2959934E-20
   7.050000     -7.0641211E-20
   7.060000     -6.7930508E-20