  -2.600000      0.0000000E+00
  -2.590000      0.0000000E+00
  -2.580000      0.0000000E+00
  -2.570000      0.0000000E+00
  -2.560000      0.0000000E+00
  -2.550000      0.0000000E+00
  -2.540000      0.0000000E+00
  -2.530000      0.0000000E+00
  -2.520000      0.0000000E+00
  -2.510000      0.0000000E+00
  -2.500000      0.0000000E+00
  -2.490000      0.0000000E+00
  -2.480000      0.0000000E+00
  -2.470000      0.0000000E+00
  -2.460000      0.0000000E+00
  -2.450000      0.0000000E+00
  -2.440000      0.0000000E+00
  -2.430000      0.0000000E+00
  -2.420000      0.0000000E+00
  -2.410000      0.0000000E+00
  -2.400000      0.0000000E+00
  -2.390000      0.0000000E+00
  -2.380000      0.0000000E+00
  -2.370000      0.0000000E+00
  -2.360000      0.0000000E+00
  -2.350000      0.0000000E+00
  -2.340000      0.0000000E+00
  -2.330000      0.0000000E+00
  -2.320000      0.0000000E+00
  -2.310000      0.0000000E+00
  -2.300000      0.0000000E+00
  -2.290000      0.0000000E+00
  -2.280000      0.0000000E+00
  -2.270000      0.0000000E+00
  -2.260000      0.0000000E+00
  -2.250000      0.0000000E+00
  -2.240000      0.0000000E+00
  -2.230000      0.0000000E+00
  -2.220000      0.0000000E+00
  -2.210000      0.0000000E+00
  -2.200000      0.0000000E+00
  -2.190000      0.0000000E+00
  -2.180000      0.0000000E+00
  -2.170000      0.0000000E+00
  -2.160000      0.0000000E+00
  -2.150000      0.0000000E+00
  -2.140000      0.0000000E+00
  -2.130000      0.0000000E+00
  -2.120000      0.0000000E+00
  -2.110000      0.0000000E+00
  -2.100000      0.0000000E+00
  -2.090000      0.0000000E+00
  -2.080000      0.0000000E+00
  -2.070000      0.0000000E+00
  -2.060000      0.0000000E+00
  -2.050000      0.0000000E+00
  -2.040000      0.0000000E+00
  -2.030000      0.0000000E+00
  -2.020000      0.0000000E+00
  -2.010000      0.0000000E+00
  -2.000000      0.0000000E+00
  -1.990000      0.0000000E+00
  -1.980000      0.0000000E+00
  -1.970000      0.0000000E+00
  -1.960000      0.0000000E+00
  -1.950000      0.0000000E+00
  -1.940000      0.0000000E+00
  -1.930000      0.0000000E+00
  -1.920000      0.0000000E+00
  -1.910000      0.0000000E+00
  -1.900000      0.0000000E+00
  -1.890000      0.0000000E+00
  -1.880000      0.0000000E+00
  -1.870000      0.0000000E+00
  -1.860000      0.0000000E+00
  -1.850000      0.0000000E+00
  -1.840000      0.0000000E+00
  -1.830000      0.0000000E+00
  -1.820000      0.0000000E+00
  -1.810000      0.0000000E+00
  -1.800000      0.0000000E+00
  -1.790000      0.0000000E+00
  -1.780000      0.0000000E+00
  -1.770000      0.0000000E+00
  -1.760000      0.0000000E+00
  -1.750000      0.0000000E+00
  -1.740000      0.0000000E+00
  -1.730000      0.0000000E+00
  -1.720000      0.0000000E+00
  -1.710000      0.0000000E+00
  -1.700000      0.0000000E+00
  -1.690000      0.0000000E+00
  -1.680000      0.0000000E+00
  -1.670000      0.0000000E+00
  -1.660000      0.0000000E+00
  -1.650000      0.0000000E+00
  -1.640000      0.0000000E+00
  -1.630000      0.0000000E+00
  -1.620000      0.0000000E+00
  -1.610000      0.0000000E+00
  -1.600000      0.0000000E+00
  -1.590000      0.0000000E+00
  -1.580000      0.0000000E+00
  -1.570000      0.0000000E+00
  -1.560000      0.0000000E+00
  -1.550000      0.0000000E+00
  -1.540000      0.0000000E+00
  -1.530000      0.0000000E+00
  -1.520000      0.0000000E+00
  -1.510000      0.0000000E+00
  -1.500000      0.0000000E+00
  -1.490000      0.0000000E+00
  -1.480000      0.0000000E+00
  -1.470000      0.0000000E+00
  -1.460000      0.0000000E+00
  -1.450000      0.0000000E+00
  -1.440000      0.0000000E+00
  -1.430000      0.0000000E+00
  -1.420000      0.0000000E+00
  -1.410000      0.0000000E+00
  -1.400000      0.0000000E+00
  -1.390000      0.0000000E+00
  -1.380000      0.0000000E+00
  -1.370000      0.0000000E+00
  -1.360000      0.0000000E+00
  -1.350000      0.0000000E+00
  -1.340000      0.0000000E+00
  -1.330000      0.0000000E+00
  -1.320000      0.0000000E+00
  -1.310000      0.0000000E+00
  -1.300000      0.0000000E+00
  -1.290000      0.0000000E+00
  -1.280000      0.0000000E+00
  -1.270000      0.0000000E+00
  -1.260000      0.0000000E+00
  -1.250000      0.0000000E+00
  -1.240000      0.0000000E+00
  -1.230000      0.0000000E+00
  -1.220000      0.0000000E+00
  -1.210000      0.0000000E+00
  -1.200000      0.0000000E+00
  -1.190000      0.0000000E+00
  -1.180000      0.0000000E+00
  -1.170000      0.0000000E+00
  -1.160000      0.0000000E+00
  -1.150000      0.0000000E+00
  -1.140000      0.0000000E+00
  -1.130000      0.0000000E+00
  -1.120000      0.0000000E+00
  -1.110000      0.0000000E+00
  -1.100000      0.0000000E+00
  -1.090000      0.0000000E+00
  -1.080000      0.0000000E+00
  -1.070000      0.0000000E+00
  -1.060000      0.0000000E+00
  -1.050000      0.0000000E+00
  -1.040000      0.0000000E+00
  -1.030000      0.0000000E+00
  -1.020000      0.0000000E+00
  -1.010000      0.0000000E+00
  -1.000000      0.0000000E+00
 -0.9900000      0.0000000E+00
 -0.9800000      0.0000000E+00
 -0.9700000      0.0000000E+00
 -0.9600000      0.0000000E+00
 -0.9500000      0.0000000E+00
 -0.9400000      0.0000000E+00
 -0.9300000      0.0000000E+00
 -0.9200000      0.0000000E+00
 -0.9100000      0.0000000E+00
 -0.9000000      0.0000000E+00
 -0.8900000      0.0000000E+00
 -0.8800000      0.0000000E+00
 -0.8700000      0.0000000E+00
 -0.8600000      0.0000000E+00
 -0.8500000      0.0000000E+00
 -0.8400000      0.0000000E+00
 -0.8300000      0.0000000E+00
 -0.8200000      0.0000000E+00
 -0.8100000      0.0000000E+00
 -0.8000000      0.0000000E+00
 -0.7900000      0.0000000E+00
 -0.7800000      0.0000000E+00
 -0.7700000      0.0000000E+00
 -0.7600000      0.0000000E+00
 -0.7500000      0.0000000E+00
 -0.7400000      0.0000000E+00
 -0.7300000      0.0000000E+00
 -0.7200000      0.0000000E+00
 -0.7100000      0.0000000E+00
 -0.7000000      0.0000000E+00
 -0.6900000      0.0000000E+00
 -0.6800000      0.0000000E+00
 -0.6700000      0.0000000E+00
 -0.6600000      0.0000000E+00
 -0.6500000      0.0000000E+00
 -0.6400000      1.2029525E-38
 -0.6300000      0.0000000E+00
 -0.6200000      0.0000000E+00
 -0.6100000      0.0000000E+00
 -0.6000000      0.0000000E+00
 -0.5900000     -1.4997058E-38
 -0.5800000     -2.6413279E-38
 -0.5700000     -3.8787443E-38
 -0.5600000     -5.1583719E-38
 -0.5500000     -6.4501998E-38
 -0.5400000     -7.7035671E-38
 -0.5300000     -8.8742197E-38
 -0.5200000     -9.9127965E-38
 -0.5100000     -1.1066783E-37
 -0.5000000     -1.2292844E-37
 -0.4900000     -1.3140819E-37
 -0.4800000     -1.3495664E-37
 -0.4700000     -1.3741170E-37
 -0.4600000     -1.2807822E-37
 -0.4500000     -9.7552480E-38
 -0.4400000     -3.6298470E-38
 -0.4300000      6.2216088E-38
 -0.4200000      1.8669950E-37
 -0.4100000      3.3580286E-37
 -0.4000000      5.4809473E-37
 -0.3900000      8.3111537E-37
 -0.3800000      1.2269577E-36
 -0.3700000      1.7317314E-36
 -0.3600000      2.1932962E-36
 -0.3500000      2.4254282E-36
 -0.3400000      2.3626054E-36
 -0.3300000      2.0044258E-36
 -0.3200000      1.2616540E-36
 -0.3100000      9.2113962E-38
 -0.3000000     -1.3912316E-36
 -0.2900000     -3.1444933E-36
 -0.2800000     -5.1890492E-36
 -0.2700000     -7.4591645E-36
 -0.2600000     -9.8512439E-36
 -0.2500000     -1.2115937E-35
 -0.2400000     -1.4128073E-35
 -0.2300000     -1.5838735E-35
 -0.2200000     -1.6956335E-35
 -0.2100000     -1.7278177E-35
 -0.2000000     -1.6353330E-35
 -0.1900000     -1.3729422E-35
 -0.1800000     -9.5717555E-36
 -0.1700000     -4.4045262E-36
 -0.1600000      1.6339608E-36
 -0.1500000      8.6265903E-36
 -0.1400000      1.6879839E-35
 -0.1300000      2.6823607E-35
 -0.1200000      3.8269309E-35
 -0.1100000      5.4923246E-35
 -0.1000000      7.3252819E-35
 -9.0000004E-02  8.8821817E-35
 -7.9999998E-02  1.0448259E-34
 -7.0000000E-02  1.2019763E-34
 -5.9999999E-02  1.3466855E-34
 -5.0000001E-02  1.4677804E-34
 -3.9999999E-02  1.5441138E-34
 -2.9999999E-02  1.5359132E-34
 -2.0000000E-02  1.3637509E-34
 -9.9999998E-03  9.4131108E-35
 -3.4694470E-17  2.4819292E-35
  9.9999998E-03 -6.9053176E-35
  2.0000000E-02 -1.8456043E-34
  2.9999999E-02 -3.1933989E-34
  3.9999999E-02 -4.6976042E-34
  5.0000001E-02 -6.2740872E-34
  5.9999999E-02 -7.8719578E-34
  7.0000000E-02 -9.4655443E-34
  7.9999998E-02 -1.0914902E-33
  9.0000004E-02 -1.2072737E-33
  0.1000000     -1.2833829E-33
  0.1100000     -1.3050608E-33
  0.1200000     -1.2646060E-33
  0.1300000     -1.1529925E-33
  0.1400000     -9.5635520E-34
  0.1500000     -6.6635726E-34
  0.1600000     -2.8085471E-34
  0.1700000      1.9807810E-34
  0.1800000      7.6681248E-34
  0.1900000      1.4137088E-33
  0.2000000      2.1201080E-33
  0.2100000      2.8592117E-33
  0.2200000      3.5957700E-33
  0.2300000      4.2823858E-33
  0.2400000      4.8601611E-33
  0.2500000      5.2605003E-33
  0.2600000      5.4012786E-33
  0.2700000      5.1864221E-33
  0.2800000      4.5058087E-33
  0.2900000      3.2345226E-33
  0.3000000      1.2322449E-33
  0.3100000     -1.6573041E-33
  0.3200000     -5.6069211E-33
  0.3300000     -1.0806511E-32
  0.3400000     -1.7463736E-32
  0.3500000     -2.5804534E-32
  0.3600000     -3.6073906E-32
  0.3700000     -4.8536758E-32
  0.3800000     -6.3478446E-32
  0.3900000     -8.1205783E-32
  0.4000000     -1.0204763E-31
  0.4100000     -1.2635540E-31
  0.4200000     -1.5450376E-31
  0.4300000     -1.8689078E-31
  0.4400000     -2.2393800E-31
  0.4500000     -2.6609003E-31
  0.4600000     -3.1381376E-31
  0.4700000     -3.6759700E-31
  0.4800000     -4.2794676E-31
  0.4900000     -4.9538689E-31
  0.5000000     -5.7045500E-31
  0.5100000     -6.5369913E-31
  0.5200000     -7.4567376E-31
  0.5300000     -8.4693522E-31
  0.5400000     -9.5803777E-31
  0.5500000     -1.0795284E-30
  0.5600000     -1.2119424E-30
  0.5700000     -1.3557999E-30
  0.5800000     -1.5116019E-30
  0.5900000     -1.6798283E-30
  0.6000000     -1.8609358E-30
  0.6100000     -2.0553596E-30
  0.6200000     -2.2635141E-30
  0.6300000     -2.4857970E-30
  0.6400000     -2.7225959E-30
  0.6500000     -2.9742952E-30
  0.6600000     -3.2412863E-30
  0.6700000     -3.5239808E-30
  0.6800000     -3.8228220E-30
  0.6900000     -4.1383002E-30
  0.7000000     -4.4709704E-30
  0.7100000     -4.8214652E-30
  0.7200000     -5.1905136E-30
  0.7300000     -5.5789556E-30
  0.7400000     -5.9877553E-30
  0.7500000     -6.4180156E-30
  0.7600000     -6.8709853E-30
  0.7700000     -7.3480690E-30
  0.7800000     -7.8508277E-30
  0.7900000     -8.3809843E-30
  0.8000000     -8.9404203E-30
  0.8100000     -9.5311677E-30
  0.8200000     -1.0155408E-29
  0.8300000     -1.0815458E-29
  0.8400000     -1.1513762E-29
  0.8500000     -1.2252889E-29
  0.8600000     -1.3035514E-29
  0.8700000     -1.3864422E-29
  0.8800000     -1.4742500E-29
  0.8900000     -1.5672744E-29
  0.9000000     -1.6658269E-29
  0.9100000     -1.7702314E-29
  0.9200000     -1.8808275E-29
  0.9300000     -1.9979728E-29
  0.9400000     -2.1220459E-29
  0.9500000     -2.2534509E-29
  0.9600000     -2.3926214E-29
  0.9700000     -2.5400259E-29
  0.9800000     -2.6961707E-29
  0.9900000     -2.8616066E-29
   1.000000     -3.0369315E-29
   1.010000     -3.2227940E-29
   1.020000     -3.4198970E-29
   1.030000     -3.6289976E-29
   1.040000     -3.8509090E-29
   1.050000     -4.0864989E-29
   1.060000     -4.3366866E-29
   1.070000     -4.6024384E-29
   1.080000     -4.8847641E-29
   1.090000     -5.1847093E-29
   1.100000     -5.5033484E-29
   1.110000     -5.8417783E-29
   1.120000     -6.2011086E-29
   1.130000     -6.5824560E-29
   1.140000     -6.9869374E-29
   1.150000     -7.4156669E-29
   1.160000     -7.8697482E-29
   1.170000     -8.3502797E-29
   1.180000     -8.8583521E-29
   1.190000     -9.3950558E-29
   1.200000     -9.9614862E-29
   1.210000     -1.0558756E-28
   1.220000     -1.1188005E-28
   1.230000     -1.1850420E-28
   1.240000     -1.2547246E-28
   1.250000     -1.3279803E-28
   1.260000     -1.4049507E-28
   1.270000     -1.4857879E-28
   1.280000     -1.5706562E-28
   1.290000     -1.6597325E-28
   1.300000     -1.7532077E-28
   1.310000     -1.8512863E-28
   1.320000     -1.9541855E-28
   1.330000     -2.0621351E-28
   1.340000     -2.1753747E-28
   1.350000     -2.2941526E-28
   1.360000     -2.4187222E-28
   1.370000     -2.5493402E-28
   1.380000     -2.6862618E-28
   1.390000     -2.8297390E-28
   1.400000     -2.9800155E-28
   1.410000     -3.1373254E-28
   1.420000     -3.3018892E-28
   1.430000     -3.4739125E-28
   1.440000     -3.6535854E-28
   1.450000     -3.8410807E-28
   1.460000     -4.0365551E-28
   1.470000     -4.2401510E-28
   1.480000     -4.4519994E-28
   1.490000     -4.6722223E-28
   1.500000     -4.9009375E-28
   1.510000     -5.1382626E-28
   1.520000     -5.3843204E-28
   1.530000     -5.6392432E-28
   1.540000     -5.9031761E-28
   1.550000     -6.1762821E-28
   1.560000     -6.4587428E-28
   1.570000     -6.7507600E-28
   1.580000     -7.0525537E-28
   1.590000     -7.3643603E-28
   1.600000     -7.6864273E-28
   1.610000     -8.0190051E-28
   1.620000     -8.3623397E-28
   1.630000     -8.7166626E-28
   1.640000     -9.0821772E-28
   1.650000     -9.4590460E-28
   1.660000     -9.8473800E-28
   1.670000     -1.0247226E-27
   1.680000     -1.0658553E-27
   1.690000     -1.1081240E-27
   1.700000     -1.1515078E-27
   1.710000     -1.1959753E-27
   1.720000     -1.2414856E-27
   1.730000     -1.2879875E-27
   1.740000     -1.3354209E-27
   1.750000     -1.3837171E-27
   1.760000     -1.4328008E-27
   1.770000     -1.4825915E-27
   1.780000     -1.5330048E-27
   1.790000     -1.5839554E-27
   1.800000     -1.6353580E-27
   1.810000     -1.6871300E-27
   1.820000     -1.7391935E-27
   1.830000     -1.7914752E-27
   1.840000     -1.8439090E-27
   1.850000     -1.8964361E-27
   1.860000     -1.9490039E-27
   1.870000     -2.0015670E-27
   1.880000     -2.0540838E-27
   1.890000     -2.1065159E-27
   1.900000     -2.1588248E-27
   1.910000     -2.2109689E-27
   1.920000     -2.2629007E-27
   1.930000     -2.3145622E-27
   1.940000     -2.3658824E-27
   1.950000     -2.4167742E-27
   1.960000     -2.4671305E-27
   1.970000     -2.5168220E-27
   1.980000     -2.5656975E-27
   1.990000     -2.6135819E-27
   2.000000     -2.6602774E-27
   2.010000     -2.7055658E-27
   2.020000     -2.7492111E-27
   2.030000     -2.7909621E-27
   2.040000     -2.8305597E-27
   2.050000     -2.8677409E-27
   2.060000     -2.9022453E-27
   2.070000     -2.9338213E-27
   2.080000     -2.9622314E-27
   2.090000     -2.9872589E-27
   2.100000     -3.0087113E-27
   2.110000     -3.0264240E-27
   2.120000     -3.0402624E-27
   2.130000     -3.0501213E-27
   2.140000     -3.0559229E-27
   2.150000     -3.0576141E-27
   2.160000     -3.0551606E-27
   2.170000     -3.0485389E-27
   2.180000     -3.0377289E-27
   2.190000     -3.0227035E-27
   2.200000     -3.0034194E-27
   2.210000     -2.9798061E-27
   2.220000     -2.9517569E-27
   2.230000     -2.9191207E-27
   2.240000     -2.8816960E-27
   2.250000     -2.8392277E-27
   2.260000     -2.7914043E-27
   2.270000     -2.7378604E-27
   2.280000     -2.6781820E-27
   2.290000     -2.6119152E-27
   2.300000     -2.5385769E-27
   2.310000     -2.4576700E-27
   2.320000     -2.3686976E-27
   2.330000     -2.2711825E-27
   2.340000     -2.1646842E-27
   2.350000     -2.0488164E-27
   2.360000     -1.9232637E-27
   2.370000     -1.7877953E-27
   2.380000     -1.6422751E-27
   2.390000     -1.4866675E-27
   2.400000     -1.3210398E-27
   2.410000     -1.1455578E-27
   2.420000     -9.6047600E-28
   2.430000     -7.6612367E-28
   2.440000     -5.6288654E-28
   2.450000     -3.5118297E-28
   2.460000     -1.3143694E-28
   2.470000      9.5948668E-29
   2.480000      3.3061917E-28
   2.490000      5.7229485E-28
   2.500000      8.2079427E-28
   2.510000      1.0760522E-27
   2.520000      1.3381319E-27
   2.530000      1.6072293E-27
   2.540000      1.8836698E-27
   2.550000      2.1678947E-27
   2.560000      2.4604400E-27
   2.570000      2.7619070E-27
   2.580000      3.0729241E-27
   2.590000      3.3941033E-27
   2.600000      3.7259946E-27
   2.610000      4.0690328E-27
   2.620000      4.4234905E-27
   2.630000      4.7894349E-27
   2.640000      5.1666842E-27
   2.650000      5.5547795E-27
   2.660000      5.9529636E-27
   2.670000      6.3601741E-27
   2.680000      6.7750479E-27
   2.690000      7.1959414E-27
   2.700000      7.6209695E-27
   2.710000      8.0480452E-27
   2.720000      8.4749469E-27
   2.730000      8.8993756E-27
   2.740000      9.3190365E-27
   2.750000      9.7317063E-27
   2.760000      1.0135307E-26
   2.770000      1.0527970E-26
   2.780000      1.0908092E-26
   2.790000      1.1274367E-26
   2.800000      1.1625812E-26
   2.810000      1.1961770E-26
   2.820000      1.2281880E-26
   2.830000      1.2586042E-26
   2.840000      1.2874344E-26
   2.850000      1.3146988E-26
   2.860000      1.3404181E-26
   2.870000      1.3646035E-26
   2.880000      1.3872443E-26
   2.890000      1.4082967E-26
   2.900000      1.4276737E-26
   2.910000      1.4452349E-26
   2.920000      1.4607800E-26
   2.930000      1.4740439E-26
   2.940000      1.4846955E-26
   2.950000      1.4923393E-26
   2.960000      1.4965214E-26
   2.970000      1.4967386E-26
   2.980000      1.4924498E-26
   2.990000      1.4830924E-26
   3.000000      1.4680996E-26
   3.010000      1.4469196E-26
   3.020000      1.4190354E-26
   3.030000      1.3839839E-26
   3.040000      1.3413755E-26
   3.050000      1.2909080E-26
   3.060000      1.2323802E-26
   3.070000      1.1656994E-26
   3.080000      1.0908859E-26
   3.090000      1.0080710E-26
   3.100000      9.1748976E-27
   3.110000      8.1947002E-27
   3.120000      7.1441485E-27
   3.130000      6.0278322E-27
   3.140000      4.8506614E-27
   3.150000      3.6176252E-27
   3.160000      2.3335359E-27
   3.170000      1.0027972E-27
   3.180000     -3.7079701E-28
   3.190000     -1.7842239E-27
   3.200000     -3.2353327E-27
   3.210000     -4.7228767E-27
   3.220000     -6.2464657E-27
   3.230000     -7.8064366E-27
   3.240000     -9.4036472E-27
   3.250000     -1.1039187E-26
   3.260000     -1.2714019E-26
   3.270000     -1.4428573E-26
   3.280000     -1.6182297E-26
   3.290000     -1.7973196E-26
   3.300000     -1.9797367E-26
   3.310000     -2.1648582E-26
   3.320000     -2.3517902E-26
   3.330000     -2.5393385E-26
   3.340000     -2.7259884E-26
   3.350000     -2.9098946E-26
   3.360000     -3.0888856E-26
   3.370000     -3.2604777E-26
   3.380000     -3.4219030E-26
   3.390000     -3.5701490E-26
   3.400000     -3.7020074E-26
   3.410000     -3.8141311E-26
   3.420000     -3.9030952E-26
   3.430000     -3.9654602E-26
   3.440000     -3.9978346E-26
   3.450000     -3.9969308E-26
   3.460000     -3.9596130E-26
   3.470000     -3.8829330E-26
   3.480000     -3.7641533E-26
   3.490000     -3.6007531E-26
   3.500000     -3.3904151E-26
   3.510000     -3.1309988E-26
   3.520000     -2.8204936E-26
   3.530000     -2.4569592E-26
   3.540000     -2.0384534E-26
   3.550000     -1.5629515E-26
   3.560000     -1.0282615E-26
   3.570000     -4.3194133E-27
   3.580000      2.2877771E-27
   3.590000      9.5705722E-27
   3.600000      1.7564999E-26
   3.610000      2.6311765E-26
   3.620000      3.5856301E-26
   3.630000      4.6248499E-26
   3.640000      5.7542208E-26
   3.650000      6.9794401E-26
   3.660000      8.3064120E-26
   3.670000      9.7411121E-26
   3.680000      1.1289440E-25
   3.690000      1.2957056E-25
   3.700000      1.4749209E-25
   3.710000      1.6670561E-25
   3.720000      1.8725037E-25
   3.730000      2.0915661E-25
   3.740000      2.3244452E-25
   3.750000      2.5712310E-25
   3.760000      2.8318965E-25
   3.770000      3.1062944E-25
   3.780000      3.3941584E-25
   3.790000      3.6951076E-25
   3.800000      4.0086546E-25
   3.810000      4.3342168E-25
   3.820000      4.6711279E-25
   3.830000      5.0186527E-25
   3.840000      5.3760008E-25
   3.850000      5.7423384E-25
   3.860000      6.1168033E-25
   3.870000      6.4985075E-25
   3.880000      6.8865471E-25
   3.890000      7.2799974E-25
   3.900000      7.6779107E-25
   3.910000      8.0793009E-25
   3.920000      8.4831291E-25
   3.930000      8.8882812E-25
   3.940000      9.2935378E-25
   3.950000      9.6975480E-25
   3.960000      1.0098791E-24
   3.970000      1.0495546E-24
   3.980000      1.0885853E-24
   3.990000      1.1267484E-24
   4.000000      1.1637909E-24
   4.010000      1.1994280E-24
   4.020000      1.2333403E-24
   4.030000      1.2651736E-24
   4.040000      1.2945381E-24
   4.050000      1.3210091E-24
   4.060000      1.3441292E-24
   4.070000      1.3634097E-24
   4.080000      1.3783344E-24
   4.090000      1.3883628E-24
   4.100000      1.3929343E-24
   4.110000      1.3914727E-24
   4.120000      1.3833908E-24
   4.130000      1.3680940E-24
   4.140000      1.3449850E-24
   4.150000      1.3134665E-24
   4.160000      1.2729444E-24
   4.170000      1.2228287E-24
   4.180000      1.1625349E-24
   4.190000      1.0914840E-24
   4.200000      1.0091011E-24
   4.210000      9.1481399E-25
   4.220000      8.0805054E-25
   4.230000      6.8823608E-25
   4.240000      5.5479044E-25
   4.250000      4.0712532E-25
   4.260000      2.4464159E-25
   4.270000      6.6728117E-26
   4.280000     -1.2723884E-25
   4.290000     -3.3789444E-25
   4.300000     -5.6588286E-25
   4.310000     -8.1185275E-25
   4.320000     -1.0764508E-24
   4.330000     -1.3603140E-24
   4.340000     -1.6640597E-24
   4.350000     -1.9882728E-24
   4.360000     -2.3334943E-24
   4.370000     -2.7002056E-24
   4.380000     -3.0888145E-24
   4.390000     -3.4996394E-24
   4.400000     -3.9328940E-24
   4.410000     -4.3886722E-24
   4.420000     -4.8669349E-24
   4.430000     -5.3674964E-24
   4.440000     -5.8900146E-24
   4.450000     -6.4339811E-24
   4.460000     -6.9987140E-24
   4.470000     -7.5833514E-24
   4.480000     -8.1868513E-24
   4.490000     -8.8079838E-24
   4.500000     -9.4453353E-24
   4.510000     -1.0097308E-23
   4.520000     -1.0762116E-23
   4.530000     -1.1437791E-23
   4.540000     -1.2122176E-23
   4.550000     -1.2812927E-23
   4.560000     -1.3507511E-23
   4.570000     -1.4203193E-23
   4.580000     -1.4897031E-23
   4.590000     -1.5585869E-23
   4.600000     -1.6266321E-23
   4.610000     -1.6934747E-23
   4.620000     -1.7587244E-23
   4.630000     -1.8219621E-23
   4.640000     -1.8827380E-23
   4.650000     -1.9405688E-23
   4.660000     -1.9949361E-23
   4.670000     -2.0452847E-23
   4.680000     -2.0910197E-23
   4.690000     -2.1315063E-23
   4.700000     -2.1660677E-23
   4.710000     -2.1939845E-23
   4.720000     -2.2144955E-23
   4.730000     -2.2267970E-23
   4.740000     -2.2300451E-23
   4.750000     -2.2233562E-23
   4.760000     -2.2058094E-23
   4.770000     -2.1764494E-23
   4.780000     -2.1342898E-23
   4.790000     -2.0783161E-23
   4.800000     -2.0074890E-23
   4.810000     -1.9207499E-23
   4.820000     -1.8170240E-23
   4.830000     -1.6952237E-23
   4.840000     -1.5542535E-23
   4.850000     -1.3930133E-23
   4.860000     -1.2104021E-23
   4.870000     -1.0053215E-23
   4.880000     -7.7667916E-24
   4.890000     -5.2339134E-24
   4.900000     -2.4438649E-24
   4.910000      6.1392055E-25
   4.920000      3.9498234E-24
   4.930000      7.5740090E-24
   4.940000      1.1496386E-23
   4.950000      1.5726557E-23
   4.960000      2.0273769E-23
   4.970000      2.5146854E-23
   4.980000      3.0354159E-23
   4.990000      3.5903458E-23
   5.000000      4.1801859E-23
   5.010000      4.8055702E-23
   5.020000      5.4670434E-23
   5.030000      6.1650477E-23
   5.040000      6.8999133E-23
   5.050000      7.6718364E-23
   5.060000      8.4808700E-23
   5.070000      9.3269038E-23
   5.080000      1.0209651E-22
   5.090000      1.1128631E-22
   5.100000      1.2083150E-22
   5.110000      1.3072291E-22
   5.120000      1.4094893E-22
   5.130000      1.5149540E-22
   5.140000      1.6234540E-22
   5.150000      1.7347923E-22
   5.160000      1.8487424E-22
   5.170000      1.9650463E-22
   5.180000      2.0834147E-22
   5.190000      2.2035253E-22
   5.200000      2.3250220E-22
   5.210000      2.4475138E-22
   5.220000      2.5705743E-22
   5.230000      2.6937406E-22
   5.240000      2.8165114E-22
   5.250000      2.9383483E-22
   5.260000      3.0586725E-22
   5.270000      3.1768643E-22
   5.280000      3.2922637E-22
   5.290000      3.4041668E-22
   5.300000      3.5118265E-22
   5.310000      3.6144504E-22
   5.320000      3.7111995E-22
   5.330000      3.8011882E-22
   5.340000      3.8834822E-22
   5.350000      3.9570985E-22
   5.360000      4.0210048E-22
   5.370000      4.0741192E-22
   5.380000      4.1153086E-22
   5.390000      4.1433918E-22
   5.400000      4.1571377E-22
   5.410000      4.1552671E-22
   5.420000      4.1364554E-22
   5.430000      4.0993322E-22
   5.440000      4.0424863E-22
   5.450000      3.9644660E-22
   5.460000      3.8637849E-22
   5.470000      3.7389230E-22
   5.480000      3.5883324E-22
   5.490000      3.4104418E-22
   5.500000      3.2036598E-22
   5.510000      2.9663816E-22
   5.520000      2.6969933E-22
   5.530000      2.3938791E-22
   5.540000      2.0554248E-22
   5.550000      1.6800253E-22
   5.560000      1.2660911E-22
   5.570000      8.1205417E-23
   5.580000      3.1637566E-23
   5.590000     -2.2244786E-23
   5.600000     -8.0587670E-23
   5.610000     -1.4353197E-22
   5.620000     -2.1121267E-22
   5.630000     -2.8375791E-22
   5.640000     -3.6128800E-22
   5.650000     -4.4391452E-22
   5.660000     -5.3173925E-22
   5.670000     -6.2485306E-22
   5.680000     -7.2333456E-22
   5.690000     -8.2724907E-22
   5.700000     -9.3664704E-22
   5.710000     -1.0515625E-21
   5.720000     -1.1720121E-21
   5.730000     -1.2979932E-21
   5.740000     -1.4294821E-21
   5.750000     -1.5664329E-21
   5.760000     -1.7087754E-21
   5.770000     -1.8564134E-21
   5.780000     -2.0092233E-21
   5.790000     -2.1670521E-21
   5.800000     -2.3297152E-21
   5.810000     -2.4969961E-21
   5.820000     -2.6686434E-21
   5.830000     -2.8443694E-21
   5.840000     -3.0238488E-21
   5.850000     -3.2067171E-21
   5.860000     -3.3925690E-21
   5.870000     -3.5809562E-21
   5.880000     -3.7713878E-21
   5.890000     -3.9633269E-21
   5.900000     -4.1561908E-21
   5.910000     -4.3493492E-21
   5.920000     -4.5421227E-21
   5.930000     -4.7337814E-21
   5.940000     -4.9235454E-21
   5.950000     -5.1105819E-21
   5.960000     -5.2940064E-21
   5.970000     -5.4728790E-21
   5.980000     -5.6462060E-21
   5.990000     -5.8129382E-21
   6.000000     -5.9719710E-21
   6.010000     -6.1221434E-21
   6.020000     -6.2622379E-21
   6.030000     -6.3909804E-21
   6.040000     -6.5070401E-21
   6.050000     -6.6090293E-21
   6.060000     -6.6955068E-21
   6.070000     -6.7649751E-21
   6.080000     -6.8158850E-21
   6.090000     -6.8466337E-21
   6.100000     -6.8555711E-21
   6.110000     -6.8409961E-21
   6.120000     -6.8011646E-21
   6.130000     -6.7342914E-21
   6.140000     -6.6385505E-21
   6.150000     -6.5120820E-21
   6.160000     -6.3529967E-21
   6.170000     -6.1593783E-21
   6.180000     -5.9292908E-21
   6.190000     -5.6607814E-21
   6.200000     -5.3518901E-21
   6.210000     -5.0006513E-21
   6.220000     -4.6051059E-21
   6.230000     -4.1633042E-21
   6.240000     -3.6733140E-21
   6.250000     -3.1332303E-21
   6.260000     -2.5411816E-21
   6.270000     -1.8953408E-21
   6.280000     -1.1939323E-21
   6.290000     -4.3524341E-22
   6.300000      3.8236757E-22
   6.310000      1.2604597E-21
   6.320000      2.2004983E-21
   6.330000      3.2038438E-21
   6.340000      4.2717392E-21
   6.350000      5.4053002E-21
   6.360000      6.6054980E-21
   6.370000      7.8731479E-21
   6.380000      9.2088967E-21
   6.390000      1.0613206E-20
   6.400000      1.2086341E-20
   6.410000      1.3628350E-20
   6.420000      1.5239051E-20
   6.430000      1.6918020E-20
   6.440000      1.8664570E-20
   6.450000      2.0477732E-20
   6.460000      2.2356241E-20
   6.470000      2.4298527E-20
   6.480000      2.6302683E-20
   6.490000      2.8366460E-20
   6.500000      3.0487241E-20
   6.510000      3.2662044E-20
   6.520000      3.4887480E-20
   6.530000      3.7159745E-20
   6.540000      3.9474619E-20
   6.550000      4.1827441E-20
   6.560000      4.4213082E-20
   6.570000      4.6625945E-20
   6.580000      4.9059963E-20
   6.590000      5.1508553E-20
   6.600000      5.3964636E-20
   6.610000      5.6420613E-20
   6.620000      5.8868350E-20
   6.630000      6.1299176E-20
   6.640000      6.3703880E-20
   6.650000      6.6072686E-20
   6.660000      6.8395267E-20
   6.670000      7.0660741E-20
   6.680000      7.2857648E-20
   6.690000      7.4973951E-20
   6.700000      7.6997073E-20
   6.710000      7.8913858E-20
   6.720000      8.0710591E-20
   6.730000      8.2373011E-20
   6.740000      8.3886318E-20
   6.750000      8.5235165E-20
   6.760000      8.6403694E-20
   6.770000      8.7375540E-20
   6.780000      8.8133878E-20
   6.790000      8.8661399E-20
   6.800000      8.8940385E-20
   6.810000      8.8952702E-20
   6.820000      8.8679836E-20
   6.830000      8.8102942E-20
   6.840000      8.7202892E-20
   6.850000      8.5960318E-20
   6.860000      8.4355627E-20
   6.870000      8.2369075E-20
   6.880000      7.9980824E-20
   6.890000      7.7171007E-20
   6.900000      7.3919768E-20
   6.910000      7.0207336E-20
   6.920000      6.6014112E-20
   6.930000      6.1320728E-20
   6.940000      5.6108126E-20
   6.950000      5.0357654E-20
   6.960000      4.4051119E-20
   6.970000      3.7170912E-20
   6.980000      2.9700088E-20
   6.990000      2.1622471E-20
   7.000000      1.2922724E-20
   7.010000      3.5864924E-21
   7.020000     -6.3995083E-21
   7.030000     -1.7047367E-20
   7.040000     -2.8367865E-20
   7.050000     -4.0370362E-20
   7.060000     -5.3062686E-20