  -2.600000      0.0000000E+00
  -2.590000      0.0000000E+00
  -2.580000      0.0000000E+00
  -2.570000      0.0000000E+00
  -2.560000      0.0000000E+00
  -2.550000      0.0000000E+00
  -2.540000      0.0000000E+00
  -2.530000      0.0000000E+00
  -2.520000      0.0000000E+00
  -2.510000      0.0000000E+00
  -2.500000      0.0000000E+00
  -2.490000      0.0000000E+00
  -2.480000      0.0000000E+00
  -2.470000      0.0000000E+00
  -2.460000      0.0000000E+00
  -2.450000      0.0000000E+00
  -2.440000      0.0000000E+00
  -2.430000      0.0000000E+00
  -2.420000      0.0000000E+00
  -2.410000      0.0000000E+00
  -2.400000      0.0000000E+00
  -2.390000      0.0000000E+00
  -2.380000      0.0000000E+00
  -2.370000      0.0000000E+00
  -2.360000      0.0000000E+00
  -2.350000      0.0000000E+00
  -2.340000      0.0000000E+00
  -2.330000      0.0000000E+00
  -2.320000      0.0000000E+00
  -2.310000      0.0000000E+00
  -2.300000      0.0000000E+00
  -2.290000      0.0000000E+00
  -2.280000      0.0000000E+00
  -2.270000      0.0000000E+00
  -2.260000      0.0000000E+00
  -2.250000      0.0000000E+00
  -2.240000      0.0000000E+00
  -2.230000      0.0000000E+00
  -2.220000      0.0000000E+00
  -2.210000      0.0000000E+00
  -2.200000      0.0000000E+00
  -2.190000      0.0000000E+00
  -2.180000      0.0000000E+00
  -2.170000      0.0000000E+00
  -2.160000      0.0000000E+00
  -2.150000      0.0000000E+00
  -2.140000      0.0000000E+00
  -2.130000      0.0000000E+00
  -2.120000      0.0000000E+00
  -2.110000      0.0000000E+00
  -2.100000      0.0000000E+00
  -2.090000      0.0000000E+00
  -2.080000      0.0000000E+00
  -2.070000      0.0000000E+00
  -2.060000      0.0000000E+00
  -2.050000      0.0000000E+00
  -2.040000      0.0000000E+00
  -2.030000      0.0000000E+00
  -2.020000      0.0000000E+00
  -2.010000      0.0000000E+00
  -2.000000      0.0000000E+00
  -1.990000      0.0000000E+00
  -1.980000      0.0000000E+00
  -1.970000      0.0000000E+00
  -1.960000      0.0000000E+00
  -1.950000      0.0000000E+00
  -1.940000      0.0000000E+00
  -1.930000      0.0000000E+00
  -1.920000      0.0000000E+00
  -1.910000      0.0000000E+00
  -1.900000      0.0000000E+00
  -1.890000      0.0000000E+00
  -1.880000      0.0000000E+00
  -1.870000      0.0000000E+00
  -1.860000      0.0000000E+00
  -1.850000      0.0000000E+00
  -1.840000      0.0000000E+00
  -1.830000      0.0000000E+00
  -1.820000      0.0000000E+00
  -1.810000      0.0000000E+00
  -1.800000      0.0000000E+00
  -1.790000      0.0000000E+00
  -1.780000      0.0000000E+00
  -1.770000      0.0000000E+00
  -1.760000      0.0000000E+00
  -1.750000      0.0000000E+00
  -1.740000      0.0000000E+00
  -1.730000      0.0000000E+00
  -1.720000      0.0000000E+00
  -1.710000      0.0000000E+00
  -1.700000      0.0000000E+00
  -1.690000      0.0000000E+00
  -1.680000      0.0000000E+00
  -1.670000      0.0000000E+00
  -1.660000      0.0000000E+00
  -1.650000      0.0000000E+00
  -1.640000      0.0000000E+00
  -1.630000      0.0000000E+00
  -1.620000      0.0000000E+00
  -1.610000      0.0000000E+00
  -1.600000      0.0000000E+00
  -1.590000      0.0000000E+00
  -1.580000      0.0000000E+00
  -1.570000      0.0000000E+00
  -1.560000      0.0000000E+00
  -1.550000      0.0000000E+00
  -1.540000      0.0000000E+00
  -1.530000      0.0000000E+00
  -1.520000      0.0000000E+00
  -1.510000      0.0000000E+00
  -1.500000      0.0000000E+00
  -1.490000      0.0000000E+00
  -1.480000      0.0000000E+00
  -1.470000      0.0000000E+00
  -1.460000      0.0000000E+00
  -1.450000      0.0000000E+00
  -1.440000      0.0000000E+00
  -1.430000      0.0000000E+00
  -1.420000      0.0000000E+00
  -1.410000      0.0000000E+00
  -1.400000      0.0000000E+00
  -1.390000      0.0000000E+00
  -1.380000      0.0000000E+00
  -1.370000      0.0000000E+00
  -1.360000      0.0000000E+00
  -1.350000      0.0000000E+00
  -1.340000      0.0000000E+00
  -1.330000      0.0000000E+00
  -1.320000      0.0000000E+00
  -1.310000      0.0000000E+00
  -1.300000      0.0000000E+00
  -1.290000      0.0000000E+00
  -1.280000      0.0000000E+00
  -1.270000      0.0000000E+00
  -1.260000      0.0000000E+00
  -1.250000      0.0000000E+00
  -1.240000      0.0000000E+00
  -1.230000      0.0000000E+00
  -1.220000      0.0000000E+00
  -1.210000      0.0000000E+00
  -1.200000      0.0000000E+00
  -1.190000      0.0000000E+00
  -1.180000      0.0000000E+00
  -1.170000      0.0000000E+00
  -1.160000      0.0000000E+00
  -1.150000      0.0000000E+00
  -1.140000      0.0000000E+00
  -1.130000      0.0000000E+00
  -1.120000      0.0000000E+00
  -1.110000      0.0000000E+00
  -1.100000      0.0000000E+00
  -1.090000      0.0000000E+00
  -1.080000      0.0000000E+00
  -1.070000      0.0000000E+00
  -1.060000      0.0000000E+00
  -1.050000      0.0000000E+00
  -1.040000      0.0000000E+00
  -1.030000      0.0000000E+00
  -1.020000      0.0000000E+00
  -1.010000      0.0000000E+00
  -1.000000      0.0000000E+00
 -0.9900000      0.0000000E+00
 -0.9800000      0.0000000E+00
 -0.9700000      0.0000000E+00
 -0.9600000      0.0000000E+00
 -0.9500000      0.0000000E+00
 -0.9400000      0.0000000E+00
 -0.9300000      0.0000000E+00
 -0.9200000      0.0000000E+00
 -0.9100000      0.0000000E+00
 -0.9000000      0.0000000E+00
 -0.8900000      0.0000000E+00
 -0.8800000      0.0000000E+00
 -0.8700000      0.0000000E+00
 -0.8600000      0.0000000E+00
 -0.8500000      0.0000000E+00
 -0.8400000      0.0000000E+00
 -0.8300000      0.0000000E+00
 -0.8200000      0.0000000E+00
 -0.8100000      0.0000000E+00
 -0.8000000      0.0000000E+00
 -0.7900000      0.0000000E+00
 -0.7800000      0.0000000E+00
 -0.7700000      0.0000000E+00
 -0.7600000      0.0000000E+00
 -0.7500000      0.0000000E+00
 -0.7400000      0.0000000E+00
 -0.7300000      0.0000000E+00
 -0.7200000      0.0000000E+00
 -0.7100000      0.0000000E+00
 -0.7000000      0.0000000E+00
 -0.6900000      0.0000000E+00
 -0.6800000      0.0000000E+00
 -0.6700000      0.0000000E+00
 -0.6600000      0.0000000E+00
 -0.6500000      0.0000000E+00
 -0.6400000      0.0000000E+00
 -0.6300000      0.0000000E+00
 -0.6200000      0.0000000E+00
 -0.6100000      0.0000000E+00
 -0.6000000      0.0000000E+00
 -0.5900000      0.0000000E+00
 -0.5800000      0.0000000E+00
 -0.5700000      0.0000000E+00
 -0.5600000      0.0000000E+00
 -0.5500000      0.0000000E+00
 -0.5400000      0.0000000E+00
 -0.5300000      0.0000000E+00
 -0.5200000      0.0000000E+00
 -0.5100000      0.0000000E+00
 -0.5000000      0.0000000E+00
 -0.4900000      0.0000000E+00
 -0.4800000      0.0000000E+00
 -0.4700000      0.0000000E+00
 -0.4600000      0.0000000E+00
 -0.4500000      0.0000000E+00
 -0.4400000      0.0000000E+00
 -0.4300000      0.0000000E+00
 -0.4200000      0.0000000E+00
 -0.4100000      0.0000000E+00
 -0.4000000      0.0000000E+00
 -0.3900000      0.0000000E+00
 -0.3800000      0.0000000E+00
 -0.3700000      0.0000000E+00
 -0.3600000      0.0000000E+00
 -0.3500000      0.0000000E+00
 -0.3400000      0.0000000E+00
 -0.3300000      0.0000000E+00
 -0.3200000      0.0000000E+00
 -0.3100000      0.0000000E+00
 -0.3000000      0.0000000E+00
 -0.2900000      0.0000000E+00
 -0.2800000      0.0000000E+00
 -0.2700000      0.0000000E+00
 -0.2600000      0.0000000E+00
 -0.2500000      0.0000000E+00
 -0.2400000      0.0000000E+00
 -0.2300000      0.0000000E+00
 -0.2200000      0.0000000E+00
 -0.2100000      0.0000000E+00
 -0.2000000      0.0000000E+00
 -0.1900000      0.0000000E+00
 -0.1800000      0.0000000E+00
 -0.1700000      0.0000000E+00
 -0.1600000      0.0000000E+00
 -0.1500000      0.0000000E+00
 -0.1400000      0.0000000E+00
 -0.1300000      0.0000000E+00
 -0.1200000      0.0000000E+00
 -0.1100000      0.0000000E+00
 -0.1000000      0.0000000E+00
 -9.0000004E-02  0.0000000E+00
 -7.9999998E-02  0.0000000E+00
 -7.0000000E-02  0.0000000E+00
 -5.9999999E-02  0.0000000E+00
 -5.0000001E-02  0.0000000E+00
 -3.9999999E-02  0.0000000E+00
 -2.9999999E-02  0.0000000E+00
 -2.0000000E-02  0.0000000E+00
 -9.9999998E-03  0.0000000E+00
 -3.4694470E-17  0.0000000E+00
  9.9999998E-03  0.0000000E+00
  2.0000000E-02  0.0000000E+00
  2.9999999E-02  0.0000000E+00
  3.9999999E-02  0.0000000E+00
  5.0000001E-02  0.0000000E+00
  5.9999999E-02  0.0000000E+00
  7.0000000E-02  0.0000000E+00
  7.9999998E-02  0.0000000E+00
  9.0000004E-02  0.0000000E+00
  0.1000000      0.0000000E+00
  0.1100000      0.0000000E+00
  0.1200000      0.0000000E+00
  0.1300000      0.0000000E+00
  0.1400000      0.0000000E+00
  0.1500000      0.0000000E+00
  0.1600000      0.0000000E+00
  0.1700000      0.0000000E+00
  0.1800000      0.0000000E+00
  0.1900000      0.0000000E+00
  0.2000000      0.0000000E+00
  0.2100000      0.0000000E+00
  0.2200000      0.0000000E+00
  0.2300000      0.0000000E+00
  0.2400000      0.0000000E+00
  0.2500000      0.0000000E+00
  0.2600000      0.0000000E+00
  0.2700000      0.0000000E+00
  0.2800000      0.0000000E+00
  0.2900000      0.0000000E+00
  0.3000000      0.0000000E+00
  0.3100000      0.0000000E+00
  0.3200000      0.0000000E+00
  0.3300000      0.0000000E+00
  0.3400000      0.0000000E+00
  0.3500000      0.0000000E+00
  0.3600000      0.0000000E+00
  0.3700000      0.0000000E+00
  0.3800000      0.0000000E+00
  0.3900000      0.0000000E+00
  0.4000000      0.0000000E+00
  0.4100000      0.0000000E+00
  0.4200000      0.0000000E+00
  0.4300000      0.0000000E+00
  0.4400000      0.0000000E+00
  0.4500000      0.0000000E+00
  0.4600000      0.0000000E+00
  0.4700000      0.0000000E+00
  0.4800000      0.0000000E+00
  0.4900000      0.0000000E+00
  0.5000000      0.0000000E+00
  0.5100000      0.0000000E+00
  0.5200000      0.0000000E+00
  0.5300000      0.0000000E+00
  0.5400000      0.0000000E+00
  0.5500000      0.0000000E+00
  0.5600000      0.0000000E+00
  0.5700000      0.0000000E+00
  0.5800000      0.0000000E+00
  0.5900000      0.0000000E+00
  0.6000000      0.0000000E+00
  0.6100000      0.0000000E+00
  0.6200000      0.0000000E+00
  0.6300000      0.0000000E+00
  0.6400000      0.0000000E+00
  0.6500000      0.0000000E+00
  0.6600000      0.0000000E+00
  0.6700000      0.0000000E+00
  0.6800000      0.0000000E+00
  0.6900000      0.0000000E+00
  0.7000000      0.0000000E+00
  0.7100000      0.0000000E+00
  0.7200000      0.0000000E+00
  0.7300000      0.0000000E+00
  0.7400000      0.0000000E+00
  0.7500000      0.0000000E+00
  0.7600000      0.0000000E+00
  0.7700000      0.0000000E+00
  0.7800000      0.0000000E+00
  0.7900000      0.0000000E+00
  0.8000000      0.0000000E+00
  0.8100000      0.0000000E+00
  0.8200000      0.0000000E+00
  0.8300000      0.0000000E+00
  0.8400000      0.0000000E+00
  0.8500000      0.0000000E+00
  0.8600000      0.0000000E+00
  0.8700000      0.0000000E+00
  0.8800000      0.0000000E+00
  0.8900000      0.0000000E+00
  0.9000000      0.0000000E+00
  0.9100000      0.0000000E+00
  0.9200000      0.0000000E+00
  0.9300000      0.0000000E+00
  0.9400000      0.0000000E+00
  0.9500000      0.0000000E+00
  0.9600000      0.0000000E+00
  0.9700000      0.0000000E+00
  0.9800000      0.0000000E+00
  0.9900000      0.0000000E+00
   1.000000      0.0000000E+00
   1.010000      0.0000000E+00
   1.020000      0.0000000E+00
   1.030000      0.0000000E+00
   1.040000      0.0000000E+00
   1.050000      0.0000000E+00
   1.060000      0.0000000E+00
   1.070000      0.0000000E+00
   1.080000      0.0000000E+00
   1.090000      0.0000000E+00
   1.100000      0.0000000E+00
   1.110000      0.0000000E+00
   1.120000      0.0000000E+00
   1.130000      0.0000000E+00
   1.140000      0.0000000E+00
   1.150000      0.0000000E+00
   1.160000      0.0000000E+00
   1.170000      0.0000000E+00
   1.180000      0.0000000E+00
   1.190000      0.0000000E+00
   1.200000      0.0000000E+00
   1.210000      0.0000000E+00
   1.220000      0.0000000E+00
   1.230000      0.0000000E+00
   1.240000      0.0000000E+00
   1.250000      0.0000000E+00
   1.260000      0.0000000E+00
   1.270000      0.0000000E+00
   1.280000      0.0000000E+00
   1.290000      0.0000000E+00
   1.300000      0.0000000E+00
   1.310000      0.0000000E+00
   1.320000      0.0000000E+00
   1.330000      0.0000000E+00
   1.340000      0.0000000E+00
   1.350000      0.0000000E+00
   1.360000      0.0000000E+00
   1.370000      0.0000000E+00
   1.380000      0.0000000E+00
   1.390000      0.0000000E+00
   1.400000      0.0000000E+00
   1.410000      0.0000000E+00
   1.420000      0.0000000E+00
   1.430000      0.0000000E+00
   1.440000      0.0000000E+00
   1.450000      0.0000000E+00
   1.460000      0.0000000E+00
   1.470000      0.0000000E+00
   1.480000      0.0000000E+00
   1.490000      0.0000000E+00
   1.500000      0.0000000E+00
   1.510000      0.0000000E+00
   1.520000      0.0000000E+00
   1.530000      0.0000000E+00
   1.540000      0.0000000E+00
   1.550000      0.0000000E+00
   1.560000      0.0000000E+00
   1.570000      0.0000000E+00
   1.580000      0.0000000E+00
   1.590000      0.0000000E+00
   1.600000      0.0000000E+00
   1.610000      0.0000000E+00
   1.620000      0.0000000E+00
   1.630000      0.0000000E+00
   1.640000      0.0000000E+00
   1.650000      0.0000000E+00
   1.660000      0.0000000E+00
   1.670000      0.0000000E+00
   1.680000      0.0000000E+00
   1.690000      0.0000000E+00
   1.700000      0.0000000E+00
   1.710000      0.0000000E+00
   1.720000      0.0000000E+00
   1.730000      0.0000000E+00
   1.740000      0.0000000E+00
   1.750000      0.0000000E+00
   1.760000      0.0000000E+00
   1.770000      0.0000000E+00
   1.780000      0.0000000E+00
   1.790000      0.0000000E+00
   1.800000      0.0000000E+00
   1.810000      0.0000000E+00
   1.820000      0.0000000E+00
   1.830000      0.0000000E+00
   1.840000      0.0000000E+00
   1.850000      0.0000000E+00
   1.860000      0.0000000E+00
   1.870000      0.0000000E+00
   1.880000      0.0000000E+00
   1.890000      0.0000000E+00
   1.900000      0.0000000E+00
   1.910000      0.0000000E+00
   1.920000      0.0000000E+00
   1.930000      0.0000000E+00
   1.940000      0.0000000E+00
   1.950000      0.0000000E+00
   1.960000      0.0000000E+00
   1.970000      0.0000000E+00
   1.980000      0.0000000E+00
   1.990000      0.0000000E+00
   2.000000      0.0000000E+00
   2.010000      0.0000000E+00
   2.020000      0.0000000E+00
   2.030000      0.0000000E+00
   2.040000      0.0000000E+00
   2.050000      0.0000000E+00
   2.060000      0.0000000E+00
   2.070000      0.0000000E+00
   2.080000      0.0000000E+00
   2.090000      0.0000000E+00
   2.100000      0.0000000E+00
   2.110000      0.0000000E+00
   2.120000      0.0000000E+00
   2.130000      0.0000000E+00
   2.140000      0.0000000E+00
   2.150000      0.0000000E+00
   2.160000      0.0000000E+00
   2.170000      0.0000000E+00
   2.180000      0.0000000E+00
   2.190000      0.0000000E+00
   2.200000      0.0000000E+00
   2.210000      0.0000000E+00
   2.220000      0.0000000E+00
   2.230000      0.0000000E+00
   2.240000      0.0000000E+00
   2.250000      0.0000000E+00
   2.260000      0.0000000E+00
   2.270000      0.0000000E+00
   2.280000      0.0000000E+00
   2.290000      0.0000000E+00
   2.300000      0.0000000E+00
   2.310000      0.0000000E+00
   2.320000      0.0000000E+00
   2.330000      0.0000000E+00
   2.340000      0.0000000E+00
   2.350000      0.0000000E+00
   2.360000      0.0000000E+00
   2.370000      0.0000000E+00
   2.380000      0.0000000E+00
   2.390000      0.0000000E+00
   2.400000      0.0000000E+00
   2.410000      0.0000000E+00
   2.420000      0.0000000E+00
   2.430000      0.0000000E+00
   2.440000      0.0000000E+00
   2.450000      0.0000000E+00
   2.460000      0.0000000E+00
   2.470000      0.0000000E+00
   2.480000      0.0000000E+00
   2.490000      0.0000000E+00
   2.500000      0.0000000E+00
   2.510000      0.0000000E+00
   2.520000      0.0000000E+00
   2.530000      0.0000000E+00
   2.540000      0.0000000E+00
   2.550000      0.0000000E+00
   2.560000      0.0000000E+00
   2.570000      0.0000000E+00
   2.580000      0.0000000E+00
   2.590000      0.0000000E+00
   2.600000      0.0000000E+00
   2.610000      0.0000000E+00
   2.620000      0.0000000E+00
   2.630000      0.0000000E+00
   2.640000      0.0000000E+00
   2.650000      0.0000000E+00
   2.660000      0.0000000E+00
   2.670000      0.0000000E+00
   2.680000      0.0000000E+00
   2.690000      0.0000000E+00
   2.700000      0.0000000E+00
   2.710000      0.0000000E+00
   2.720000      0.0000000E+00
   2.730000      0.0000000E+00
   2.740000      0.0000000E+00
   2.750000      0.0000000E+00
   2.760000      0.0000000E+00
   2.770000      0.0000000E+00
   2.780000      0.0000000E+00
   2.790000      0.0000000E+00
   2.800000      0.0000000E+00
   2.810000      0.0000000E+00
   2.820000      0.0000000E+00
   2.830000      0.0000000E+00
   2.840000      0.0000000E+00
   2.850000      0.0000000E+00
   2.860000      0.0000000E+00
   2.870000      0.0000000E+00
   2.880000      0.0000000E+00
   2.890000      0.0000000E+00
   2.900000      0.0000000E+00
   2.910000      0.0000000E+00
   2.920000      0.0000000E+00
   2.930000      0.0000000E+00
   2.940000      0.0000000E+00
   2.950000      0.0000000E+00
   2.960000      0.0000000E+00
   2.970000      0.0000000E+00
   2.980000      0.0000000E+00
   2.990000      0.0000000E+00
   3.000000      0.0000000E+00
   3.010000      0.0000000E+00
   3.020000      0.0000000E+00
   3.030000      0.0000000E+00
   3.040000      0.0000000E+00
   3.050000      0.0000000E+00
   3.060000      0.0000000E+00
   3.070000      0.0000000E+00
   3.080000      0.0000000E+00
   3.090000      0.0000000E+00
   3.100000      0.0000000E+00
   3.110000      0.0000000E+00
   3.120000      0.0000000E+00
   3.130000      0.0000000E+00
   3.140000      0.0000000E+00
   3.150000      0.0000000E+00
   3.160000      0.0000000E+00
   3.170000      0.0000000E+00
   3.180000      0.0000000E+00
   3.190000      0.0000000E+00
   3.200000      1.2770595E-38
   3.210000      1.6878747E-38
   3.220000      2.0589525E-38
   3.230000      2.3937275E-38
   3.240000      2.7229054E-38
   3.250000      3.0265169E-38
   3.260000      3.2918264E-38
   3.270000      3.5360797E-38
   3.280000      3.7398534E-38
   3.290000      3.9201027E-38
   3.300000      4.1184916E-38
   3.310000      4.3117724E-38
   3.320000      4.4946643E-38
   3.330000      4.6731221E-38
   3.340000      4.8607344E-38
   3.350000      5.1187224E-38
   3.360000      5.4609246E-38
   3.370000      5.8874260E-38
   3.380000      6.3847166E-38
   3.390000      6.7954187E-38
   3.400000      7.0737199E-38
   3.410000      7.2146625E-38
   3.420000      7.2883568E-38
   3.430000      7.3402956E-38
   3.440000      7.2662230E-38
   3.450000      7.1266178E-38
   3.460000      7.0626267E-38
   3.470000      6.9150419E-38
   3.480000      6.5188741E-38
   3.490000      5.9620502E-38
   3.500000      5.2926768E-38
   3.510000      4.4462825E-38
   3.520000      3.3780514E-38
   3.530000      2.0561059E-38
   3.540000      0.0000000E+00
   3.550000      0.0000000E+00
   3.560000     -2.7564794E-38
   3.570000     -4.3969627E-38
   3.580000     -5.9893441E-38
   3.590000     -7.6531742E-38
   3.600000     -9.7337263E-38
   3.610000     -1.2217448E-37
   3.620000     -1.4894611E-37
   3.630000     -1.7589067E-37
   3.640000     -2.0236725E-37
   3.650000     -2.2370959E-37
   3.660000     -2.4184151E-37
   3.670000     -2.6408310E-37
   3.680000     -2.9055204E-37
   3.690000     -3.3941749E-37
   3.700000     -4.1299369E-37
   3.710000     -4.9154487E-37
   3.720000     -5.6428617E-37
   3.730000     -6.2422439E-37
   3.740000     -6.7322185E-37
   3.750000     -7.2300889E-37
   3.760000     -7.6624148E-37
   3.770000     -7.9797692E-37
   3.780000     -8.2924359E-37
   3.790000     -8.6120458E-37
   3.800000     -9.0196663E-37
   3.810000     -9.6126707E-37
   3.820000     -1.0260673E-36
   3.830000     -1.0779106E-36
   3.840000     -1.1143177E-36
   3.850000     -1.1355978E-36
   3.860000     -1.1351843E-36
   3.870000     -1.1039401E-36
   3.880000     -1.0502530E-36
   3.890000     -1.0054741E-36
   3.900000     -9.5982254E-37
   3.910000     -9.0942288E-37
   3.920000     -8.7495139E-37
   3.930000     -8.5719127E-37
   3.940000     -8.4024860E-37
   3.950000     -7.9163704E-37
   3.960000     -7.1656417E-37
   3.970000     -6.2881594E-37
   3.980000     -5.2185633E-37
   3.990000     -3.9858000E-37
   4.000000     -2.2120418E-37
   4.010000      0.0000000E+00
   4.020000      2.5091363E-37
   4.030000      5.4319234E-37
   4.040000      8.9543743E-37
   4.050000      1.3048575E-36
   4.060000      1.7528212E-36
   4.070000      2.2059412E-36
   4.080000      2.6668095E-36
   4.090000      3.1429142E-36
   4.100000      3.6137634E-36
   4.110000      4.0616591E-36
   4.120000      4.4850713E-36
   4.130000      4.8778449E-36
   4.140000      5.2546226E-36
   4.150000      5.6317878E-36
   4.160000      5.9905388E-36
   4.170000      6.3252896E-36
   4.180000      6.7091814E-36
   4.190000      7.2179615E-36
   4.200000      7.8185613E-36
   4.210000      8.4641649E-36
   4.220000      9.1625035E-36
   4.230000      9.9114449E-36
   4.240000      1.0587837E-35
   4.250000      1.1107932E-35
   4.260000      1.1556098E-35
   4.270000      1.1907022E-35
   4.280000      1.2138721E-35
   4.290000      1.2349139E-35
   4.300000      1.2520242E-35
   4.310000      1.2528914E-35
   4.320000      1.2275527E-35
   4.330000      1.1821854E-35
   4.340000      1.1239968E-35
   4.350000      1.0545051E-35
   4.360000      9.7757192E-36
   4.370000      8.9184378E-36
   4.380000      7.9877151E-36
   4.390000      7.1037633E-36
   4.400000      6.3015659E-36
   4.410000      5.4007182E-36
   4.420000      4.0990214E-36
   4.430000      2.4971094E-36
   4.440000      7.3247216E-37
   4.450000     -1.2859492E-36
   4.460000     -3.5431706E-36
   4.470000     -6.1477709E-36
   4.480000     -8.9995751E-36
   4.490000     -1.2016490E-35
   4.500000     -1.5284190E-35
   4.510000     -1.9123230E-35
   4.520000     -2.3216806E-35
   4.530000     -2.7110513E-35
   4.540000     -3.1086416E-35
   4.550000     -3.4929892E-35
   4.560000     -3.8193106E-35
   4.570000     -4.1357189E-35
   4.580000     -4.5087478E-35
   4.590000     -4.9155363E-35
   4.600000     -5.3239505E-35
   4.610000     -5.7329686E-35
   4.620000     -6.1587185E-35
   4.630000     -6.5945319E-35
   4.640000     -7.0487204E-35
   4.650000     -7.5253547E-35
   4.660000     -7.9860073E-35
   4.670000     -8.4418133E-35
   4.680000     -8.9051193E-35
   4.690000     -9.3149576E-35
   4.700000     -9.6503449E-35
   4.710000     -9.9505172E-35
   4.720000     -1.0203956E-34
   4.730000     -1.0405091E-34
   4.740000     -1.0560051E-34
   4.750000     -1.0648274E-34
   4.760000     -1.0656846E-34
   4.770000     -1.1159134E-34
   4.780000     -1.2226587E-34
   4.790000     -1.3038092E-34
   4.800000     -1.3557421E-34
   4.810000     -1.4074243E-34
   4.820000     -1.4598263E-34
   4.830000     -1.4919309E-34
   4.840000     -1.4974525E-34
   4.850000     -1.4235858E-34
   4.860000     -1.2698876E-34
   4.870000     -1.1000106E-34
   4.880000     -9.0576518E-35
   4.890000     -6.8714280E-35
   4.900000     -4.5133717E-35
   4.910000     -2.2083873E-35
   4.920000      2.2625764E-36
   4.930000      2.9691435E-35
   4.940000      5.8444196E-35
   4.950000      8.8605831E-35
   4.960000      1.1780034E-34
   4.970000      1.4391560E-34
   4.980000      1.6941665E-34
   4.990000      1.9676258E-34
   5.000000      2.2938757E-34
   5.010000      2.6788166E-34
   5.020000      3.0910524E-34
   5.030000      3.5289442E-34
   5.040000      3.9970137E-34
   5.050000      4.4757379E-34
   5.060000      4.9571951E-34
   5.070000      5.4568661E-34
   5.080000      5.9976087E-34
   5.090000      6.5918867E-34
   5.100000      7.1771695E-34
   5.110000      7.7183721E-34
   5.120000      8.2247035E-34
   5.130000      8.6830884E-34
   5.140000      9.1599249E-34
   5.150000      9.6451699E-34
   5.160000      1.0081479E-33
   5.170000      1.0534366E-33
   5.180000      1.0949174E-33
   5.190000      1.1295704E-33
   5.200000      1.1641745E-33
   5.210000      1.1960601E-33
   5.220000      1.2238325E-33
   5.230000      1.2505377E-33
   5.240000      1.2753489E-33
   5.250000      1.2961125E-33
   5.260000      1.3116797E-33
   5.270000      1.3206873E-33
   5.280000      1.3226541E-33
   5.290000      1.3158668E-33
   5.300000      1.3012245E-33
   5.310000      1.2798785E-33
   5.320000      1.2482593E-33
   5.330000      1.2050107E-33
   5.340000      1.1475450E-33
   5.350000      1.0750816E-33
   5.360000      9.8925215E-34
   5.370000      8.8873260E-34
   5.380000      7.7416791E-34
   5.390000      6.4481430E-34
   5.400000      4.9940088E-34
   5.410000      3.3764918E-34
   5.420000      1.5750409E-34
   5.430000     -3.9117321E-35
   5.440000     -2.5187223E-34
   5.450000     -4.8394464E-34
   5.460000     -7.3444887E-34
   5.470000     -1.0037778E-33
   5.480000     -1.2926453E-33
   5.490000     -1.6009430E-33
   5.500000     -1.9278743E-33
   5.510000     -2.2731636E-33
   5.520000     -2.6378512E-33
   5.530000     -3.0244796E-33
   5.540000     -3.4335110E-33
   5.550000     -3.8616609E-33
   5.560000     -4.3075208E-33
   5.570000     -4.7708180E-33
   5.580000     -5.2505193E-33
   5.590000     -5.7455133E-33
   5.600000     -6.2547268E-33
   5.610000     -6.7767587E-33
   5.620000     -7.3097822E-33
   5.630000     -7.8518519E-33
   5.640000     -8.4015615E-33
   5.650000     -8.9567027E-33
   5.660000     -9.5118725E-33
   5.670000     -1.0066532E-32
   5.680000     -1.0620561E-32
   5.690000     -1.1169230E-32
   5.700000     -1.1708287E-32
   5.710000     -1.2235752E-32
   5.720000     -1.2749758E-32
   5.730000     -1.3244987E-32
   5.740000     -1.3716625E-32
   5.750000     -1.4160344E-32
   5.760000     -1.4571343E-32
   5.770000     -1.4945295E-32
   5.780000     -1.5276226E-32
   5.790000     -1.5557685E-32
   5.800000     -1.5784507E-32
   5.810000     -1.5950519E-32
   5.820000     -1.6049536E-32
   5.830000     -1.6074575E-32
   5.840000     -1.6018713E-32
   5.850000     -1.5875092E-32
   5.860000     -1.5636238E-32
   5.870000     -1.5295071E-32
   5.880000     -1.4844062E-32
   5.890000     -1.4275672E-32
   5.900000     -1.3582833E-32
   5.910000     -1.2757987E-32
   5.920000     -1.1793661E-32
   5.930000     -1.0682813E-32
   5.940000     -9.4184141E-33
   5.950000     -7.9935600E-33
   5.960000     -6.4015630E-33
   5.970000     -4.6359929E-33
   5.980000     -2.6906153E-33
   5.990000     -5.5952672E-34
   6.000000      1.7628468E-33
   6.010000      4.2817580E-33
   6.020000      7.0020385E-33
   6.030000      9.9280556E-33
   6.040000      1.3063665E-32
   6.050000      1.6412158E-32
   6.060000      1.9976172E-32
   6.070000      2.3757634E-32
   6.080000      2.7757692E-32
   6.090000      3.1977796E-32
   6.100000      3.6415111E-32
   6.110000      4.1067791E-32
   6.120000      4.5935075E-32
   6.130000      5.1011912E-32
   6.140000      5.6293108E-32
   6.150000      6.1771893E-32
   6.160000      6.7440009E-32
   6.170000      7.3288417E-32
   6.180000      7.9304838E-32
   6.190000      8.5475196E-32
   6.200000      9.1785038E-32
   6.210000      9.8217179E-32
   6.220000      1.0475236E-31
   6.230000      1.1136914E-31
   6.240000      1.1804393E-31
   6.250000      1.2475123E-31
   6.260000      1.3146223E-31
   6.270000      1.3814568E-31
   6.280000      1.4476894E-31
   6.290000      1.5129631E-31
   6.300000      1.5768972E-31
   6.310000      1.6390853E-31
   6.320000      1.6990956E-31
   6.330000      1.7564722E-31
   6.340000      1.8107317E-31
   6.350000      1.8613660E-31
   6.360000      1.9078439E-31
   6.370000      1.9496087E-31
   6.380000      1.9860795E-31
   6.390000      2.0166513E-31
   6.400000      2.0406951E-31
   6.410000      2.0575602E-31
   6.420000      2.0665729E-31
   6.430000      2.0670393E-31
   6.440000      2.0582448E-31
   6.450000      2.0394561E-31
   6.460000      2.0099235E-31
   6.470000      1.9688807E-31
   6.480000      1.9155492E-31
   6.490000      1.8491375E-31
   6.500000      1.7688464E-31
   6.510000      1.6738703E-31
   6.520000      1.5634000E-31
   6.530000      1.4366260E-31
   6.540000      1.2927425E-31
   6.550000      1.1309515E-31
   6.560000      9.5046529E-32
   6.570000      7.5051282E-32
   6.580000      5.3034338E-32
   6.590000      2.8923203E-32
   6.600000      2.6484657E-33
   6.610000     -2.5855633E-32
   6.620000     -5.6650576E-32
   6.630000     -8.9792922E-32
   6.640000     -1.2533373E-31
   6.650000     -1.6331782E-31
   6.660000     -2.0378311E-31
   6.670000     -2.4675989E-31
   6.680000     -2.9227012E-31
   6.690000     -3.4032663E-31
   6.700000     -3.9093244E-31
   6.710000     -4.4407985E-31
   6.720000     -4.9974986E-31
   6.730000     -5.5791120E-31
   6.740000     -6.1851960E-31
   6.750000     -6.8151683E-31
   6.760000     -7.4683012E-31
   6.770000     -8.1437120E-31
   6.780000     -8.8403551E-31
   6.790000     -9.5570126E-31
   6.800000     -1.0292288E-30
   6.810000     -1.1044595E-30
   6.820000     -1.1812152E-30
   6.830000     -1.2592973E-30
   6.840000     -1.3384860E-30
   6.850000     -1.4185395E-30
   6.860000     -1.4991930E-30
   6.870000     -1.5801588E-30
   6.880000     -1.6611247E-30
   6.890000     -1.7417541E-30
   6.900000     -1.8216843E-30
   6.910000     -1.9005278E-30
   6.920000     -1.9778701E-30
   6.930000     -2.0532706E-30
   6.940000     -2.1262613E-30
   6.950000     -2.1963474E-30
   6.960000     -2.2630066E-30
   6.970000     -2.3256892E-30
   6.980000     -2.3838190E-30
   6.990000     -2.4367926E-30
   7.000000     -2.4839796E-30
   7.010000     -2.5247243E-30
   7.020000     -2.5583453E-30
   7.030000     -2.5841370E-30
   7.040000     -2.6013698E-30
   7.050000     -2.6092926E-30
   7.060000     -2.6071323E-30