  -2.600000      0.0000000E+00
  -2.590000      0.0000000E+00
  -2.580000      0.0000000E+00
  -2.570000      0.0000000E+00
  -2.560000      0.0000000E+00
  -2.550000      0.0000000E+00
  -2.540000      0.0000000E+00
  -2.530000      0.0000000E+00
  -2.520000      0.0000000E+00
  -2.510000      0.0000000E+00
  -2.500000      0.0000000E+00
  -2.490000      0.0000000E+00
  -2.480000      0.0000000E+00
  -2.470000      0.0000000E+00
  -2.460000      0.0000000E+00
  -2.450000      0.0000000E+00
  -2.440000      0.0000000E+00
  -2.430000      0.0000000E+00
  -2.420000      0.0000000E+00
  -2.410000      0.0000000E+00
  -2.400000      0.0000000E+00
  -2.390000      0.0000000E+00
  -2.380000      0.0000000E+00
  -2.370000      0.0000000E+00
  -2.360000      0.0000000E+00
  -2.350000      0.0000000E+00
  -2.340000      0.0000000E+00
  -2.330000      0.0000000E+00
  -2.320000      0.0000000E+00
  -2.310000      0.0000000E+00
  -2.300000      0.0000000E+00
  -2.290000      0.0000000E+00
  -2.280000      0.0000000E+00
  -2.270000      0.0000000E+00
  -2.260000      0.0000000E+00
  -2.250000      0.0000000E+00
  -2.240000      0.0000000E+00
  -2.230000      0.0000000E+00
  -2.220000      0.0000000E+00
  -2.210000      0.0000000E+00
  -2.200000      0.0000000E+00
  -2.190000      0.0000000E+00
  -2.180000      0.0000000E+00
  -2.170000      0.0000000E+00
  -2.160000      0.0000000E+00
  -2.150000      0.0000000E+00
  -2.140000      0.0000000E+00
  -2.130000      0.0000000E+00
  -2.120000      0.0000000E+00
  -2.110000      0.0000000E+00
  -2.100000      0.0000000E+00
  -2.090000      0.0000000E+00
  -2.080000      0.0000000E+00
  -2.070000      0.0000000E+00
  -2.060000      0.0000000E+00
  -2.050000      0.0000000E+00
  -2.040000      0.0000000E+00
  -2.030000      0.0000000E+00
  -2.020000      0.0000000E+00
  -2.010000      0.0000000E+00
  -2.000000      0.0000000E+00
  -1.990000      0.0000000E+00
  -1.980000      0.0000000E+00
  -1.970000      0.0000000E+00
  -1.960000      0.0000000E+00
  -1.950000      0.0000000E+00
  -1.940000      0.0000000E+00
  -1.930000      0.0000000E+00
  -1.920000      0.0000000E+00
  -1.910000      0.0000000E+00
  -1.900000      0.0000000E+00
  -1.890000      0.0000000E+00
  -1.880000      0.0000000E+00
  -1.870000      0.0000000E+00
  -1.860000      0.0000000E+00
  -1.850000      0.0000000E+00
  -1.840000      0.0000000E+00
  -1.830000      0.0000000E+00
  -1.820000      0.0000000E+00
  -1.810000      0.0000000E+00
  -1.800000      0.0000000E+00
  -1.790000      0.0000000E+00
  -1.780000      0.0000000E+00
  -1.770000      0.0000000E+00
  -1.760000      0.0000000E+00
  -1.750000      0.0000000E+00
  -1.740000      0.0000000E+00
  -1.730000      0.0000000E+00
  -1.720000      0.0000000E+00
  -1.710000      0.0000000E+00
  -1.700000      0.0000000E+00
  -1.690000      0.0000000E+00
  -1.680000      0.0000000E+00
  -1.670000      0.0000000E+00
  -1.660000      0.0000000E+00
  -1.650000      0.0000000E+00
  -1.640000      0.0000000E+00
  -1.630000      0.0000000E+00
  -1.620000      0.0000000E+00
  -1.610000      0.0000000E+00
  -1.600000      0.0000000E+00
  -1.590000      0.0000000E+00
  -1.580000      0.0000000E+00
  -1.570000      0.0000000E+00
  -1.560000      0.0000000E+00
  -1.550000      0.0000000E+00
  -1.540000      0.0000000E+00
  -1.530000      0.0000000E+00
  -1.520000      0.0000000E+00
  -1.510000      0.0000000E+00
  -1.500000      0.0000000E+00
  -1.490000      0.0000000E+00
  -1.480000      0.0000000E+00
  -1.470000      0.0000000E+00
  -1.460000      0.0000000E+00
  -1.450000      0.0000000E+00
  -1.440000      0.0000000E+00
  -1.430000      0.0000000E+00
  -1.420000      0.0000000E+00
  -1.410000      0.0000000E+00
  -1.400000      0.0000000E+00
  -1.390000      0.0000000E+00
  -1.380000      0.0000000E+00
  -1.370000      0.0000000E+00
  -1.360000      0.0000000E+00
  -1.350000      0.0000000E+00
  -1.340000      0.0000000E+00
  -1.330000      0.0000000E+00
  -1.320000      0.0000000E+00
  -1.310000      0.0000000E+00
  -1.300000      0.0000000E+00
  -1.290000      0.0000000E+00
  -1.280000      0.0000000E+00
  -1.270000      0.0000000E+00
  -1.260000      0.0000000E+00
  -1.250000      0.0000000E+00
  -1.240000      0.0000000E+00
  -1.230000      0.0000000E+00
  -1.220000      0.0000000E+00
  -1.210000      0.0000000E+00
  -1.200000      0.0000000E+00
  -1.190000      0.0000000E+00
  -1.180000      0.0000000E+00
  -1.170000      0.0000000E+00
  -1.160000      0.0000000E+00
  -1.150000      0.0000000E+00
  -1.140000      0.0000000E+00
  -1.130000      0.0000000E+00
  -1.120000      0.0000000E+00
  -1.110000      0.0000000E+00
  -1.100000      0.0000000E+00
  -1.090000      0.0000000E+00
  -1.080000      0.0000000E+00
  -1.070000      0.0000000E+00
  -1.060000      0.0000000E+00
  -1.050000      0.0000000E+00
  -1.040000      0.0000000E+00
  -1.030000      0.0000000E+00
  -1.020000      0.0000000E+00
  -1.010000      0.0000000E+00
  -1.000000      0.0000000E+00
 -0.9900000      0.0000000E+00
 -0.9800000      0.0000000E+00
 -0.9700000      0.0000000E+00
 -0.9600000      0.0000000E+00
 -0.9500000      0.0000000E+00
 -0.9400000      0.0000000E+00
 -0.9300000      0.0000000E+00
 -0.9200000      0.0000000E+00
 -0.9100000      0.0000000E+00
 -0.9000000      0.0000000E+00
 -0.8900000      0.0000000E+00
 -0.8800000      0.0000000E+00
 -0.8700000      0.0000000E+00
 -0.8600000      0.0000000E+00
 -0.8500000      0.0000000E+00
 -0.8400000      0.0000000E+00
 -0.8300000      0.0000000E+00
 -0.8200000      0.0000000E+00
 -0.8100000      0.0000000E+00
 -0.8000000      0.0000000E+00
 -0.7900000      0.0000000E+00
 -0.7800000      0.0000000E+00
 -0.7700000      0.0000000E+00
 -0.7600000      0.0000000E+00
 -0.7500000      0.0000000E+00
 -0.7400000      0.0000000E+00
 -0.7300000      0.0000000E+00
 -0.7200000      0.0000000E+00
 -0.7100000      0.0000000E+00
 -0.7000000      0.0000000E+00
 -0.6900000      0.0000000E+00
 -0.6800000      0.0000000E+00
 -0.6700000      0.0000000E+00
 -0.6600000      0.0000000E+00
 -0.6500000      0.0000000E+00
 -0.6400000      0.0000000E+00
 -0.6300000      0.0000000E+00
 -0.6200000      0.0000000E+00
 -0.6100000      0.0000000E+00
 -0.6000000      0.0000000E+00
 -0.5900000      0.0000000E+00
 -0.5800000      0.0000000E+00
 -0.5700000      0.0000000E+00
 -0.5600000      0.0000000E+00
 -0.5500000      0.0000000E+00
 -0.5400000      0.0000000E+00
 -0.5300000      0.0000000E+00
 -0.5200000      0.0000000E+00
 -0.5100000      0.0000000E+00
 -0.5000000      0.0000000E+00
 -0.4900000      0.0000000E+00
 -0.4800000      0.0000000E+00
 -0.4700000      0.0000000E+00
 -0.4600000      0.0000000E+00
 -0.4500000      0.0000000E+00
 -0.4400000      0.0000000E+00
 -0.4300000      0.0000000E+00
 -0.4200000      0.0000000E+00
 -0.4100000      0.0000000E+00
 -0.4000000      0.0000000E+00
 -0.3900000      0.0000000E+00
 -0.3800000      0.0000000E+00
 -0.3700000      0.0000000E+00
 -0.3600000      0.0000000E+00
 -0.3500000      0.0000000E+00
 -0.3400000      0.0000000E+00
 -0.3300000      0.0000000E+00
 -0.3200000      0.0000000E+00
 -0.3100000      0.0000000E+00
 -0.3000000      0.0000000E+00
 -0.2900000      0.0000000E+00
 -0.2800000      0.0000000E+00
 -0.2700000      0.0000000E+00
 -0.2600000      0.0000000E+00
 -0.2500000      0.0000000E+00
 -0.2400000      0.0000000E+00
 -0.2300000      0.0000000E+00
 -0.2200000      0.0000000E+00
 -0.2100000      0.0000000E+00
 -0.2000000      0.0000000E+00
 -0.1900000      0.0000000E+00
 -0.1800000      0.0000000E+00
 -0.1700000      0.0000000E+00
 -0.1600000      0.0000000E+00
 -0.1500000      0.0000000E+00
 -0.1400000      0.0000000E+00
 -0.1300000      0.0000000E+00
 -0.1200000      0.0000000E+00
 -0.1100000      0.0000000E+00
 -0.1000000      0.0000000E+00
 -9.0000004E-02  0.0000000E+00
 -7.9999998E-02  0.0000000E+00
 -7.0000000E-02  0.0000000E+00
 -5.9999999E-02  0.0000000E+00
 -5.0000001E-02  0.0000000E+00
 -3.9999999E-02  0.0000000E+00
 -2.9999999E-02  0.0000000E+00
 -2.0000000E-02  0.0000000E+00
 -9.9999998E-03  0.0000000E+00
 -3.4694470E-17  0.0000000E+00
  9.9999998E-03  0.0000000E+00
  2.0000000E-02  0.0000000E+00
  2.9999999E-02  0.0000000E+00
  3.9999999E-02  0.0000000E+00
  5.0000001E-02  0.0000000E+00
  5.9999999E-02  0.0000000E+00
  7.0000000E-02  0.0000000E+00
  7.9999998E-02  0.0000000E+00
  9.0000004E-02  0.0000000E+00
  0.1000000      0.0000000E+00
  0.1100000      0.0000000E+00
  0.1200000      0.0000000E+00
  0.1300000      0.0000000E+00
  0.1400000      0.0000000E+00
  0.1500000      0.0000000E+00
  0.1600000      0.0000000E+00
  0.1700000      0.0000000E+00
  0.1800000      0.0000000E+00
  0.1900000      0.0000000E+00
  0.2000000      0.0000000E+00
  0.2100000      0.0000000E+00
  0.2200000      0.0000000E+00
  0.2300000      0.0000000E+00
  0.2400000      0.0000000E+00
  0.2500000      0.0000000E+00
  0.2600000      0.0000000E+00
  0.2700000      0.0000000E+00
  0.2800000      0.0000000E+00
  0.2900000      0.0000000E+00
  0.3000000      0.0000000E+00
  0.3100000      0.0000000E+00
  0.3200000      0.0000000E+00
  0.3300000      0.0000000E+00
  0.3400000      0.0000000E+00
  0.3500000      0.0000000E+00
  0.3600000      0.0000000E+00
  0.3700000      0.0000000E+00
  0.3800000      0.0000000E+00
  0.3900000      0.0000000E+00
  0.4000000      0.0000000E+00
  0.4100000      0.0000000E+00
  0.4200000      0.0000000E+00
  0.4300000      0.0000000E+00
  0.4400000      0.0000000E+00
  0.4500000      0.0000000E+00
  0.4600000      0.0000000E+00
  0.4700000      0.0000000E+00
  0.4800000      0.0000000E+00
  0.4900000      0.0000000E+00
  0.5000000      0.0000000E+00
  0.5100000      0.0000000E+00
  0.5200000      0.0000000E+00
  0.5300000      0.0000000E+00
  0.5400000      0.0000000E+00
  0.5500000      0.0000000E+00
  0.5600000      0.0000000E+00
  0.5700000      0.0000000E+00
  0.5800000      0.0000000E+00
  0.5900000      0.0000000E+00
  0.6000000      0.0000000E+00
  0.6100000      0.0000000E+00
  0.6200000      0.0000000E+00
  0.6300000      0.0000000E+00
  0.6400000      0.0000000E+00
  0.6500000      0.0000000E+00
  0.6600000      0.0000000E+00
  0.6700000      0.0000000E+00
  0.6800000      0.0000000E+00
  0.6900000      0.0000000E+00
  0.7000000      0.0000000E+00
  0.7100000      0.0000000E+00
  0.7200000      0.0000000E+00
  0.7300000      0.0000000E+00
  0.7400000      0.0000000E+00
  0.7500000      0.0000000E+00
  0.7600000      0.0000000E+00
  0.7700000      0.0000000E+00
  0.7800000      0.0000000E+00
  0.7900000      0.0000000E+00
  0.8000000      0.0000000E+00
  0.8100000      0.0000000E+00
  0.8200000      0.0000000E+00
  0.8300000      0.0000000E+00
  0.8400000      0.0000000E+00
  0.8500000      0.0000000E+00
  0.8600000      0.0000000E+00
  0.8700000      0.0000000E+00
  0.8800000      0.0000000E+00
  0.8900000      0.0000000E+00
  0.9000000      0.0000000E+00
  0.9100000      0.0000000E+00
  0.9200000      0.0000000E+00
  0.9300000      0.0000000E+00
  0.9400000      0.0000000E+00
  0.9500000      0.0000000E+00
  0.9600000      0.0000000E+00
  0.9700000      0.0000000E+00
  0.9800000      0.0000000E+00
  0.9900000      0.0000000E+00
   1.000000      0.0000000E+00
   1.010000      0.0000000E+00
   1.020000      0.0000000E+00
   1.030000      0.0000000E+00
   1.040000      0.0000000E+00
   1.050000      0.0000000E+00
   1.060000      0.0000000E+00
   1.070000      0.0000000E+00
   1.080000      0.0000000E+00
   1.090000      0.0000000E+00
   1.100000      0.0000000E+00
   1.110000      0.0000000E+00
   1.120000      0.0000000E+00
   1.130000      0.0000000E+00
   1.140000      0.0000000E+00
   1.150000      0.0000000E+00
   1.160000      0.0000000E+00
   1.170000      0.0000000E+00
   1.180000      0.0000000E+00
   1.190000      0.0000000E+00
   1.200000      0.0000000E+00
   1.210000      0.0000000E+00
   1.220000      0.0000000E+00
   1.230000      0.0000000E+00
   1.240000      0.0000000E+00
   1.250000      0.0000000E+00
   1.260000      0.0000000E+00
   1.270000      0.0000000E+00
   1.280000      0.0000000E+00
   1.290000      0.0000000E+00
   1.300000      0.0000000E+00
   1.310000      0.0000000E+00
   1.320000      0.0000000E+00
   1.330000      0.0000000E+00
   1.340000      0.0000000E+00
   1.350000      0.0000000E+00
   1.360000      0.0000000E+00
   1.370000      0.0000000E+00
   1.380000      0.0000000E+00
   1.390000      0.0000000E+00
   1.400000      0.0000000E+00
   1.410000      0.0000000E+00
   1.420000      0.0000000E+00
   1.430000      0.0000000E+00
   1.440000      0.0000000E+00
   1.450000      0.0000000E+00
   1.460000      0.0000000E+00
   1.470000      0.0000000E+00
   1.480000      0.0000000E+00
   1.490000      0.0000000E+00
   1.500000      0.0000000E+00
   1.510000      0.0000000E+00
   1.520000      0.0000000E+00
   1.530000      0.0000000E+00
   1.540000      0.0000000E+00
   1.550000      0.0000000E+00
   1.560000      0.0000000E+00
   1.570000      0.0000000E+00
   1.580000      0.0000000E+00
   1.590000      0.0000000E+00
   1.600000      0.0000000E+00
   1.610000      0.0000000E+00
   1.620000      0.0000000E+00
   1.630000      0.0000000E+00
   1.640000      0.0000000E+00
   1.650000      0.0000000E+00
   1.660000      0.0000000E+00
   1.670000      0.0000000E+00
   1.680000      0.0000000E+00
   1.690000      0.0000000E+00
   1.700000      0.0000000E+00
   1.710000      0.0000000E+00
   1.720000      0.0000000E+00
   1.730000      0.0000000E+00
   1.740000      0.0000000E+00
   1.750000      0.0000000E+00
   1.760000      0.0000000E+00
   1.770000      0.0000000E+00
   1.780000      1.4986978E-38
   1.790000      2.4742018E-38
   1.800000      3.5952593E-38
   1.810000      4.7295213E-38
   1.820000      5.8447296E-38
   1.830000      7.0620207E-38
   1.840000      8.3655943E-38
   1.850000      9.7061936E-38
   1.860000      1.1066269E-37
   1.870000      1.2691033E-37
   1.880000      1.4590163E-37
   1.890000      1.6482883E-37
   1.900000      1.7414871E-37
   1.910000      1.7373111E-37
   1.920000      1.7216429E-37
   1.930000      1.6963368E-37
   1.940000      1.6088017E-37
   1.950000      1.4415660E-37
   1.960000      1.2451184E-37
   1.970000      1.0283112E-37
   1.980000      8.9279096E-38
   1.990000      8.9188359E-38
   2.000000      9.1177984E-38
   2.010000      8.9508674E-38
   2.020000      7.5270674E-38
   2.030000      4.8741617E-38
   2.040000      2.4436574E-38
   2.050000      1.4900260E-38
   2.060000      2.0453117E-38
   2.070000      3.0790818E-38
   2.080000      7.6421308E-38
   2.090000      2.2544170E-37
   2.100000      4.3210121E-37
   2.110000      5.7795710E-37
   2.120000      7.0991484E-37
   2.130000      8.9110332E-37
   2.140000      1.0984892E-36
   2.150000      1.3302077E-36
   2.160000      1.5863047E-36
   2.170000      1.7980879E-36
   2.180000      1.9123164E-36
   2.190000      1.7727160E-36
   2.200000      1.2817415E-36
   2.210000      5.9863058E-37
   2.220000     -1.3562393E-37
   2.230000     -8.5427172E-37
   2.240000     -1.5187821E-36
   2.250000     -1.9272402E-36
   2.260000     -2.0625653E-36
   2.270000     -2.1092343E-36
   2.280000     -2.0757613E-36
   2.290000     -1.9956720E-36
   2.300000     -1.9580560E-36
   2.310000     -1.9650081E-36
   2.320000     -2.0623114E-36
   2.330000     -2.3967362E-36
   2.340000     -2.9401543E-36
   2.350000     -3.6600538E-36
   2.360000     -4.6702737E-36
   2.370000     -6.0314275E-36
   2.380000     -7.3795123E-36
   2.390000     -8.7028080E-36
   2.400000     -1.0224887E-35
   2.410000     -1.1594007E-35
   2.420000     -1.2632000E-35
   2.430000     -1.3416225E-35
   2.440000     -1.3280488E-35
   2.450000     -1.1739301E-35
   2.460000     -9.3359284E-36
   2.470000     -6.5346243E-36
   2.480000     -3.6097879E-36
   2.490000     -1.5496564E-36
   2.500000     -6.2369611E-37
   2.510000     -2.5869012E-37
   2.520000     -3.7884304E-37
   2.530000     -1.3579593E-36
   2.540000     -3.0481471E-36
   2.550000     -4.3070166E-36
   2.560000     -5.1176478E-36
   2.570000     -4.6593284E-36
   2.580000     -1.9701148E-36
   2.590000      1.9761664E-36
   2.600000      6.4579941E-36
   2.610000      1.1313317E-35
   2.620000      1.6158351E-35
   2.630000      2.0870928E-35
   2.640000      2.5951087E-35
   2.650000      3.0849595E-35
   2.660000      3.5092610E-35
   2.670000      3.7995625E-35
   2.680000      3.9205770E-35
   2.690000      4.0216922E-35
   2.700000      4.2148610E-35
   2.710000      4.4206081E-35
   2.720000      4.5320688E-35
   2.730000      4.4779077E-35
   2.740000      4.3971975E-35
   2.750000      4.5368770E-35
   2.760000      4.8474196E-35
   2.770000      5.2290322E-35
   2.780000      5.6176003E-35
   2.790000      6.0652398E-35
   2.800000      6.5148457E-35
   2.810000      6.9111032E-35
   2.820000      7.1545781E-35
   2.830000      7.0768410E-35
   2.840000      6.7523799E-35
   2.850000      6.2234258E-35
   2.860000      5.5143611E-35
   2.870000      4.6584198E-35
   2.880000      3.7125142E-35
   2.890000      2.6267624E-35
   2.900000      1.5404024E-35
   2.910000      6.0232391E-36
   2.920000     -2.1593097E-36
   2.930000     -8.6098590E-36
   2.940000     -1.4449067E-35
   2.950000     -2.0091599E-35
   2.960000     -2.5507120E-35
   2.970000     -3.1371812E-35
   2.980000     -3.9312583E-35
   2.990000     -5.0878300E-35
   3.000000     -6.6516088E-35
   3.010000     -8.4527130E-35
   3.020000     -1.0301449E-34
   3.030000     -1.2326949E-34
   3.040000     -1.4578673E-34
   3.050000     -1.6809551E-34
   3.060000     -1.8831910E-34
   3.070000     -2.0926713E-34
   3.080000     -2.3198601E-34
   3.090000     -2.5448172E-34
   3.100000     -2.7603842E-34
   3.110000     -2.9417667E-34
   3.120000     -3.0817274E-34
   3.130000     -3.1833241E-34
   3.140000     -3.2182113E-34
   3.150000     -3.2096483E-34
   3.160000     -3.2011925E-34
   3.170000     -3.2107427E-34
   3.180000     -3.2311881E-34
   3.190000     -3.2505633E-34
   3.200000     -3.2884291E-34
   3.210000     -3.3284717E-34
   3.220000     -3.3500414E-34
   3.230000     -3.3820669E-34
   3.240000     -3.4398055E-34
   3.250000     -3.4713930E-34
   3.260000     -3.4527201E-34
   3.270000     -3.3713336E-34
   3.280000     -3.2441452E-34
   3.290000     -3.1094730E-34
   3.300000     -2.9146961E-34
   3.310000     -2.6125337E-34
   3.320000     -2.2348097E-34
   3.330000     -1.8050981E-34
   3.340000     -1.3041694E-34
   3.350000     -7.4012970E-35
   3.360000     -8.7994735E-36
   3.370000      6.5597377E-35
   3.380000      1.4223668E-34
   3.390000      2.1961745E-34
   3.400000      2.9415373E-34
   3.410000      3.6338612E-34
   3.420000      4.3393475E-34
   3.430000      5.1250447E-34
   3.440000      5.9547417E-34
   3.450000      6.7132666E-34
   3.460000      7.4486577E-34
   3.470000      8.2454307E-34
   3.480000      9.0936959E-34
   3.490000      1.0035553E-33
   3.500000      1.1052122E-33
   3.510000      1.2105524E-33
   3.520000      1.3122403E-33
   3.530000      1.4134520E-33
   3.540000      1.5258760E-33
   3.550000      1.6471736E-33
   3.560000      1.7708461E-33
   3.570000      1.8912841E-33
   3.580000      2.0088554E-33
   3.590000      2.1112507E-33
   3.600000      2.1925133E-33
   3.610000      2.2566691E-33
   3.620000      2.2974558E-33
   3.630000      2.3233741E-33
   3.640000      2.3418586E-33
   3.650000      2.3508926E-33
   3.660000      2.3514032E-33
   3.670000      2.3415427E-33
   3.680000      2.3223481E-33
   3.690000      2.2901653E-33
   3.700000      2.2473656E-33
   3.710000      2.1945192E-33
   3.720000      2.1243119E-33
   3.730000      2.0337013E-33
   3.740000      1.9130092E-33
   3.750000      1.7695429E-33
   3.760000      1.6091603E-33
   3.770000      1.4163467E-33
   3.780000      1.1765629E-33
   3.790000      8.8346748E-34
   3.800000      5.4833345E-34
   3.810000      1.8366826E-34
   3.820000     -2.0401005E-34
   3.830000     -6.0850466E-34
   3.840000     -1.0317772E-33
   3.850000     -1.4702455E-33
   3.860000     -1.9239639E-33
   3.870000     -2.3988528E-33
   3.880000     -2.8926826E-33
   3.890000     -3.4073397E-33
   3.900000     -3.9424508E-33
   3.910000     -4.4974201E-33
   3.920000     -5.0794426E-33
   3.930000     -5.6885184E-33
   3.940000     -6.3167371E-33
   3.950000     -6.9653389E-33
   3.960000     -7.6353736E-33
   3.970000     -8.3213833E-33
   3.980000     -9.0155678E-33
   3.990000     -9.7087296E-33
   4.000000     -1.0395918E-32
   4.010000     -1.1070863E-32
   4.020000     -1.1726785E-32
   4.030000     -1.2357495E-32
   4.040000     -1.2957934E-32
   4.050000     -1.3522871E-32
   4.060000     -1.4047297E-32
   4.070000     -1.4527745E-32
   4.080000     -1.4959670E-32
   4.090000     -1.5338085E-32
   4.100000     -1.5659323E-32
   4.110000     -1.5917588E-32
   4.120000     -1.6108099E-32
   4.130000     -1.6225811E-32
   4.140000     -1.6261710E-32
   4.150000     -1.6207400E-32
   4.160000     -1.6052161E-32
   4.170000     -1.5785564E-32
   4.180000     -1.5397632E-32
   4.190000     -1.4878748E-32
   4.200000     -1.4214586E-32
   4.210000     -1.3397156E-32
   4.220000     -1.2421813E-32
   4.230000     -1.1279042E-32
   4.240000     -9.9630831E-33
   4.250000     -8.4725041E-33
   4.260000     -6.8031104E-33
   4.270000     -4.9511032E-33
   4.280000     -2.9141155E-33
   4.290000     -6.8817260E-34
   4.300000      1.7254707E-33
   4.310000      4.3309359E-33
   4.320000      7.1344977E-33
   4.330000      1.0136218E-32
   4.340000      1.3336872E-32
   4.350000      1.6740941E-32
   4.360000      2.0349394E-32
   4.370000      2.4159691E-32
   4.380000      2.8170781E-32
   4.390000      3.2378677E-32
   4.400000      3.6775623E-32
   4.410000      4.1350303E-32
   4.420000      4.6089212E-32
   4.430000      5.0978257E-32
   4.440000      5.6000345E-32
   4.450000      6.1136685E-32
   4.460000      6.6367236E-32
   4.470000      7.1670837E-32
   4.480000      7.7025672E-32
   4.490000      8.2408055E-32
   4.500000      8.7795052E-32
   4.510000      9.3162465E-32
   4.520000      9.8482470E-32
   4.530000      1.0372686E-31
   4.540000      1.0886398E-31
   4.550000      1.1385933E-31
   4.560000      1.1867606E-31
   4.570000      1.2327291E-31
   4.580000      1.2760526E-31
   4.590000      1.3162550E-31
   4.600000      1.3528421E-31
   4.610000      1.3852753E-31
   4.620000      1.4129926E-31
   4.630000      1.4354367E-31
   4.640000      1.4520328E-31
   4.650000      1.4621994E-31
   4.660000      1.4653662E-31
   4.670000      1.4609321E-31
   4.680000      1.4482914E-31
   4.690000      1.4268778E-31
   4.700000      1.3960796E-31
   4.710000      1.3552763E-31
   4.720000      1.3038647E-31
   4.730000      1.2412180E-31
   4.740000      1.1666998E-31
   4.750000      1.0796681E-31
   4.760000      9.7947526E-32
   4.770000      8.6546783E-32
   4.780000      7.3700845E-32
   4.790000      5.9348371E-32
   4.800000      4.3430267E-32
   4.810000      2.5891010E-32
   4.820000      6.6799289E-33
   4.830000     -1.4249930E-32
   4.840000     -3.6940013E-32
   4.850000     -6.1424758E-32
   4.860000     -8.7733197E-32
   4.870000     -1.1588812E-31
   4.880000     -1.4590599E-31
   4.890000     -1.7779686E-31
   4.900000     -2.1156416E-31
   4.910000     -2.4720409E-31
   4.920000     -2.8470537E-31
   4.930000     -3.2404860E-31
   4.940000     -3.6520498E-31
   4.950000     -4.0813554E-31
   4.960000     -4.5279003E-31
   4.970000     -4.9910540E-31
   4.980000     -5.4700511E-31
   4.990000     -5.9639769E-31
   5.000000     -6.4717608E-31
   5.010000     -6.9921686E-31
   5.020000     -7.5237944E-31
   5.030000     -8.0650639E-31
   5.040000     -8.6142267E-31
   5.050000     -9.1693515E-31
   5.060000     -9.7283376E-31
   5.070000     -1.0288902E-30
   5.080000     -1.0848587E-30
   5.090000     -1.1404749E-30
   5.100000     -1.1954558E-30
   5.110000     -1.2494992E-30
   5.120000     -1.3022835E-30
   5.130000     -1.3534663E-30
   5.140000     -1.4026844E-30
   5.150000     -1.4495529E-30
   5.160000     -1.4936645E-30
   5.170000     -1.5345894E-30
   5.180000     -1.5718759E-30
   5.190000     -1.6050499E-30
   5.200000     -1.6336161E-30
   5.210000     -1.6570587E-30
   5.220000     -1.6748421E-30
   5.230000     -1.6864129E-30
   5.240000     -1.6912003E-30
   5.250000     -1.6886176E-30
   5.260000     -1.6780641E-30
   5.270000     -1.6589263E-30
   5.280000     -1.6305788E-30
   5.290000     -1.5923861E-30
   5.300000     -1.5437038E-30
   5.310000     -1.4838797E-30
   5.320000     -1.4122571E-30
   5.330000     -1.3281746E-30
   5.340000     -1.2309703E-30
   5.350000     -1.1199833E-30
   5.360000     -9.9455746E-31
   5.370000     -8.5404423E-31
   5.380000     -6.9780707E-31
   5.390000     -5.2522493E-31
   5.400000     -3.3569718E-31
   5.410000     -1.2864736E-31
   5.420000      9.6471281E-32
   5.430000      3.4017123E-31
   5.440000      6.0292648E-31
   5.450000      8.8516643E-31
   5.460000      1.1872715E-30
   5.470000      1.5095686E-30
   5.480000      1.8523261E-30
   5.490000      2.2157482E-30
   5.500000      2.5999686E-30
   5.510000      3.0050456E-30
   5.520000      3.4309554E-30
   5.530000      3.8775865E-30
   5.540000      4.3447313E-30
   5.550000      4.8320811E-30
   5.560000      5.3392180E-30
   5.570000      5.8656066E-30
   5.580000      6.4105865E-30
   5.590000      6.9733650E-30
   5.600000      7.5530120E-30
   5.610000      8.1484478E-30
   5.620000      8.7584418E-30
   5.630000      9.3815997E-30
   5.640000      1.0016362E-29
   5.650000      1.0660995E-29
   5.660000      1.1313585E-29
   5.670000      1.1972033E-29
   5.680000      1.2634051E-29
   5.690000      1.3297150E-29
   5.700000      1.3958642E-29
   5.710000      1.4615636E-29
   5.720000      1.5265020E-29
   5.730000      1.5903476E-29
   5.740000      1.6527463E-29
   5.750000      1.7133217E-29
   5.760000      1.7716754E-29
   5.770000      1.8273857E-29
   5.780000      1.8800086E-29
   5.790000      1.9290772E-29
   5.800000      1.9741024E-29
   5.810000      2.0145727E-29
   5.820000      2.0499552E-29
   5.830000      2.0796954E-29
   5.840000      2.1032184E-29
   5.850000      2.1199296E-29
   5.860000      2.1292152E-29
   5.870000      2.1304437E-29
   5.880000      2.1229664E-29
   5.890000      2.1061196E-29
   5.900000      2.0792255E-29
   5.910000      2.0415938E-29
   5.920000      1.9925230E-29
   5.930000      1.9313037E-29
   5.940000      1.8572194E-29
   5.950000      1.7695500E-29
   5.960000      1.6675738E-29
   5.970000      1.5505706E-29
   5.980000      1.4178242E-29
   5.990000      1.2686266E-29
   6.000000      1.1022809E-29
   6.010000      9.1810487E-30
   6.020000      7.1543550E-30
   6.030000      4.9363247E-30
   6.040000      2.5208269E-30
   6.050000     -9.7953280E-32
   6.060000     -2.9254631E-30
   6.070000     -5.9667333E-30
   6.080000     -9.2263307E-30
   6.090000     -1.2708306E-29
   6.100000     -1.6416133E-29
   6.110000     -2.0352644E-29
   6.120000     -2.4519986E-29
   6.130000     -2.8919547E-29
   6.140000     -3.3551911E-29
   6.150000     -3.8416792E-29
   6.160000     -4.3512944E-29
   6.170000     -4.8838126E-29
   6.180000     -5.4389020E-29
   6.190000     -6.0161182E-29
   6.200000     -6.6148923E-29
   6.210000     -7.2345283E-29
   6.220000     -7.8741959E-29
   6.230000     -8.5329229E-29
   6.240000     -9.2095888E-29
   6.250000     -9.9029169E-29
   6.260000     -1.0611468E-28
   6.270000     -1.1333637E-28
   6.280000     -1.2067641E-28
   6.290000     -1.2811521E-28
   6.300000     -1.3563132E-28
   6.310000     -1.4320135E-28
   6.320000     -1.5079999E-28
   6.330000     -1.5839985E-28
   6.340000     -1.6597155E-28
   6.350000     -1.7348356E-28
   6.360000     -1.8090227E-28
   6.370000     -1.8819194E-28
   6.380000     -1.9531463E-28
   6.390000     -2.0223025E-28
   6.400000     -2.0889647E-28
   6.410000     -2.1526882E-28
   6.420000     -2.2130069E-28
   6.430000     -2.2694330E-28
   6.440000     -2.3214575E-28
   6.450000     -2.3685503E-28
   6.460000     -2.4101615E-28
   6.470000     -2.4457223E-28
   6.480000     -2.4746442E-28
   6.490000     -2.4963213E-28
   6.500000     -2.5101305E-28
   6.510000     -2.5154333E-28
   6.520000     -2.5115766E-28
   6.530000     -2.4978948E-28
   6.540000     -2.4737104E-28
   6.550000     -2.4383371E-28
   6.560000     -2.3910808E-28
   6.570000     -2.3312407E-28
   6.580000     -2.2581141E-28
   6.590000     -2.1709959E-28
   6.600000     -2.0691837E-28
   6.610000     -1.9519786E-28
   6.620000     -1.8186894E-28
   6.630000     -1.6686349E-28
   6.640000     -1.5011478E-28
   6.650000     -1.3155786E-28
   6.660000     -1.1112974E-28
   6.670000     -8.8770035E-29
   6.680000     -6.4421225E-29
   6.690000     -3.8029061E-29
   6.700000     -9.5429874E-30
   6.710000      2.1083354E-29
   6.720000      5.3891691E-29
   6.730000      8.8918645E-29
   6.740000      1.2619526E-28
   6.750000      1.6574641E-28
   6.760000      2.0759045E-28
   6.770000      2.5173852E-28
   6.780000      2.9819402E-28
   6.790000      3.4695211E-28
   6.800000      3.9799910E-28
   6.810000      4.5131197E-28
   6.820000      5.0685786E-28
   6.830000      5.6459339E-28
   6.840000      6.2446420E-28
   6.850000      6.8640408E-28
   6.860000      7.5033475E-28
   6.870000      8.1616520E-28
   6.880000      8.8379105E-28
   6.890000      9.5309439E-28
   6.900000      1.0239426E-27
   6.910000      1.0961890E-27
   6.920000      1.1696707E-27
   6.930000      1.2442098E-27
   6.940000      1.3196119E-27
   6.950000      1.3956663E-27
   6.960000      1.4721453E-27
   6.970000      1.5488037E-27
   6.980000      1.6253788E-27
   6.990000      1.7015903E-27
   7.000000      1.7771399E-27
   7.010000      1.8517112E-27
   7.020000      1.9249697E-27
   7.030000      1.9965625E-27
   7.040000      2.0661184E-27
   7.050000      2.1332488E-27
   7.060000      2.1975467E-27