  -2.600000      0.0000000E+00
  -2.590000      0.0000000E+00
  -2.580000      0.0000000E+00
  -2.570000      0.0000000E+00
  -2.560000      0.0000000E+00
  -2.550000      0.0000000E+00
  -2.540000      0.0000000E+00
  -2.530000      0.0000000E+00
  -2.520000      0.0000000E+00
  -2.510000      0.0000000E+00
  -2.500000      0.0000000E+00
  -2.490000      0.0000000E+00
  -2.480000      0.0000000E+00
  -2.470000      0.0000000E+00
  -2.460000      0.0000000E+00
  -2.450000      0.0000000E+00
  -2.440000      0.0000000E+00
  -2.430000      0.0000000E+00
  -2.420000      0.0000000E+00
  -2.410000      0.0000000E+00
  -2.400000      0.0000000E+00
  -2.390000      0.0000000E+00
  -2.380000      0.0000000E+00
  -2.370000      0.0000000E+00
  -2.360000      0.0000000E+00
  -2.350000      0.0000000E+00
  -2.340000      0.0000000E+00
  -2.330000      0.0000000E+00
  -2.320000      0.0000000E+00
  -2.310000      0.0000000E+00
  -2.300000      0.0000000E+00
  -2.290000      0.0000000E+00
  -2.280000      0.0000000E+00
  -2.270000      0.0000000E+00
  -2.260000      0.0000000E+00
  -2.250000      0.0000000E+00
  -2.240000      0.0000000E+00
  -2.230000      0.0000000E+00
  -2.220000      0.0000000E+00
  -2.210000      0.0000000E+00
  -2.200000      0.0000000E+00
  -2.190000      0.0000000E+00
  -2.180000      0.0000000E+00
  -2.170000      0.0000000E+00
  -2.160000      0.0000000E+00
  -2.150000      0.0000000E+00
  -2.140000      0.0000000E+00
  -2.130000      0.0000000E+00
  -2.120000      0.0000000E+00
  -2.110000      0.0000000E+00
  -2.100000      0.0000000E+00
  -2.090000      0.0000000E+00
  -2.080000      0.0000000E+00
  -2.070000      0.0000000E+00
  -2.060000      0.0000000E+00
  -2.050000      0.0000000E+00
  -2.040000      0.0000000E+00
  -2.030000      0.0000000E+00
  -2.020000      0.0000000E+00
  -2.010000      0.0000000E+00
  -2.000000      0.0000000E+00
  -1.990000      0.0000000E+00
  -1.980000      0.0000000E+00
  -1.970000      0.0000000E+00
  -1.960000      0.0000000E+00
  -1.950000      0.0000000E+00
  -1.940000      0.0000000E+00
  -1.930000      0.0000000E+00
  -1.920000      0.0000000E+00
  -1.910000      0.0000000E+00
  -1.900000      0.0000000E+00
  -1.890000      0.0000000E+00
  -1.880000      0.0000000E+00
  -1.870000      0.0000000E+00
  -1.860000      0.0000000E+00
  -1.850000      0.0000000E+00
  -1.840000      0.0000000E+00
  -1.830000      0.0000000E+00
  -1.820000      0.0000000E+00
  -1.810000      0.0000000E+00
  -1.800000      0.0000000E+00
  -1.790000      0.0000000E+00
  -1.780000      0.0000000E+00
  -1.770000      0.0000000E+00
  -1.760000      0.0000000E+00
  -1.750000      0.0000000E+00
  -1.740000      0.0000000E+00
  -1.730000      0.0000000E+00
  -1.720000      0.0000000E+00
  -1.710000      0.0000000E+00
  -1.700000      0.0000000E+00
  -1.690000      0.0000000E+00
  -1.680000      0.0000000E+00
  -1.670000      0.0000000E+00
  -1.660000      0.0000000E+00
  -1.650000      0.0000000E+00
  -1.640000      0.0000000E+00
  -1.630000      0.0000000E+00
  -1.620000      0.0000000E+00
  -1.610000      0.0000000E+00
  -1.600000      0.0000000E+00
  -1.590000      0.0000000E+00
  -1.580000      0.0000000E+00
  -1.570000      0.0000000E+00
  -1.560000      0.0000000E+00
  -1.550000      0.0000000E+00
  -1.540000      0.0000000E+00
  -1.530000      0.0000000E+00
  -1.520000      0.0000000E+00
  -1.510000      0.0000000E+00
  -1.500000      0.0000000E+00
  -1.490000      0.0000000E+00
  -1.480000      0.0000000E+00
  -1.470000      0.0000000E+00
  -1.460000      0.0000000E+00
  -1.450000      0.0000000E+00
  -1.440000      0.0000000E+00
  -1.430000      0.0000000E+00
  -1.420000      0.0000000E+00
  -1.410000      0.0000000E+00
  -1.400000      0.0000000E+00
  -1.390000      0.0000000E+00
  -1.380000      0.0000000E+00
  -1.370000      0.0000000E+00
  -1.360000      0.0000000E+00
  -1.350000      0.0000000E+00
  -1.340000      0.0000000E+00
  -1.330000      0.0000000E+00
  -1.320000      0.0000000E+00
  -1.310000      0.0000000E+00
  -1.300000      0.0000000E+00
  -1.290000      0.0000000E+00
  -1.280000      0.0000000E+00
  -1.270000      0.0000000E+00
  -1.260000      0.0000000E+00
  -1.250000      0.0000000E+00
  -1.240000      0.0000000E+00
  -1.230000      0.0000000E+00
  -1.220000      0.0000000E+00
  -1.210000      0.0000000E+00
  -1.200000      0.0000000E+00
  -1.190000      0.0000000E+00
  -1.180000      0.0000000E+00
  -1.170000      0.0000000E+00
  -1.160000      0.0000000E+00
  -1.150000      0.0000000E+00
  -1.140000      0.0000000E+00
  -1.130000      0.0000000E+00
  -1.120000      0.0000000E+00
  -1.110000      0.0000000E+00
  -1.100000      0.0000000E+00
  -1.090000      0.0000000E+00
  -1.080000      0.0000000E+00
  -1.070000      0.0000000E+00
  -1.060000      0.0000000E+00
  -1.050000      0.0000000E+00
  -1.040000      0.0000000E+00
  -1.030000      0.0000000E+00
  -1.020000      0.0000000E+00
  -1.010000      0.0000000E+00
  -1.000000      0.0000000E+00
 -0.9900000      0.0000000E+00
 -0.9800000      0.0000000E+00
 -0.9700000      0.0000000E+00
 -0.9600000      0.0000000E+00
 -0.9500000      0.0000000E+00
 -0.9400000      0.0000000E+00
 -0.9300000      0.0000000E+00
 -0.9200000      0.0000000E+00
 -0.9100000      0.0000000E+00
 -0.9000000      0.0000000E+00
 -0.8900000      0.0000000E+00
 -0.8800000      0.0000000E+00
 -0.8700000      0.0000000E+00
 -0.8600000      0.0000000E+00
 -0.8500000      0.0000000E+00
 -0.8400000      0.0000000E+00
 -0.8300000      0.0000000E+00
 -0.8200000      0.0000000E+00
 -0.8100000      0.0000000E+00
 -0.8000000      0.0000000E+00
 -0.7900000      0.0000000E+00
 -0.7800000      0.0000000E+00
 -0.7700000      0.0000000E+00
 -0.7600000      0.0000000E+00
 -0.7500000      0.0000000E+00
 -0.7400000      0.0000000E+00
 -0.7300000      0.0000000E+00
 -0.7200000      0.0000000E+00
 -0.7100000      0.0000000E+00
 -0.7000000      0.0000000E+00
 -0.6900000      0.0000000E+00
 -0.6800000      0.0000000E+00
 -0.6700000      0.0000000E+00
 -0.6600000      0.0000000E+00
 -0.6500000      0.0000000E+00
 -0.6400000      0.0000000E+00
 -0.6300000      0.0000000E+00
 -0.6200000      0.0000000E+00
 -0.6100000      0.0000000E+00
 -0.6000000      0.0000000E+00
 -0.5900000      0.0000000E+00
 -0.5800000      0.0000000E+00
 -0.5700000      0.0000000E+00
 -0.5600000      0.0000000E+00
 -0.5500000      0.0000000E+00
 -0.5400000      0.0000000E+00
 -0.5300000      0.0000000E+00
 -0.5200000      0.0000000E+00
 -0.5100000      0.0000000E+00
 -0.5000000      0.0000000E+00
 -0.4900000      0.0000000E+00
 -0.4800000      0.0000000E+00
 -0.4700000      0.0000000E+00
 -0.4600000      0.0000000E+00
 -0.4500000      0.0000000E+00
 -0.4400000      0.0000000E+00
 -0.4300000      0.0000000E+00
 -0.4200000      0.0000000E+00
 -0.4100000      0.0000000E+00
 -0.4000000      0.0000000E+00
 -0.3900000      0.0000000E+00
 -0.3800000      0.0000000E+00
 -0.3700000      0.0000000E+00
 -0.3600000      0.0000000E+00
 -0.3500000      0.0000000E+00
 -0.3400000      0.0000000E+00
 -0.3300000      0.0000000E+00
 -0.3200000      0.0000000E+00
 -0.3100000      0.0000000E+00
 -0.3000000      0.0000000E+00
 -0.2900000      0.0000000E+00
 -0.2800000      0.0000000E+00
 -0.2700000      0.0000000E+00
 -0.2600000      0.0000000E+00
 -0.2500000      0.0000000E+00
 -0.2400000      0.0000000E+00
 -0.2300000      0.0000000E+00
 -0.2200000      0.0000000E+00
 -0.2100000      0.0000000E+00
 -0.2000000      0.0000000E+00
 -0.1900000      0.0000000E+00
 -0.1800000      0.0000000E+00
 -0.1700000      0.0000000E+00
 -0.1600000      0.0000000E+00
 -0.1500000      0.0000000E+00
 -0.1400000      0.0000000E+00
 -0.1300000      0.0000000E+00
 -0.1200000      0.0000000E+00
 -0.1100000      0.0000000E+00
 -0.1000000      0.0000000E+00
 -9.0000004E-02  0.0000000E+00
 -7.9999998E-02  0.0000000E+00
 -7.0000000E-02  0.0000000E+00
 -5.9999999E-02  0.0000000E+00
 -5.0000001E-02  0.0000000E+00
 -3.9999999E-02  0.0000000E+00
 -2.9999999E-02  0.0000000E+00
 -2.0000000E-02  0.0000000E+00
 -9.9999998E-03  0.0000000E+00
 -3.4694470E-17  0.0000000E+00
  9.9999998E-03  0.0000000E+00
  2.0000000E-02  0.0000000E+00
  2.9999999E-02  0.0000000E+00
  3.9999999E-02  0.0000000E+00
  5.0000001E-02  0.0000000E+00
  5.9999999E-02  0.0000000E+00
  7.0000000E-02  0.0000000E+00
  7.9999998E-02  0.0000000E+00
  9.0000004E-02  0.0000000E+00
  0.1000000      0.0000000E+00
  0.1100000      0.0000000E+00
  0.1200000      0.0000000E+00
  0.1300000      0.0000000E+00
  0.1400000      0.0000000E+00
  0.1500000      0.0000000E+00
  0.1600000      0.0000000E+00
  0.1700000      0.0000000E+00
  0.1800000      0.0000000E+00
  0.1900000      0.0000000E+00
  0.2000000      0.0000000E+00
  0.2100000      0.0000000E+00
  0.2200000      0.0000000E+00
  0.2300000      0.0000000E+00
  0.2400000      0.0000000E+00
  0.2500000      0.0000000E+00
  0.2600000      0.0000000E+00
  0.2700000      0.0000000E+00
  0.2800000      0.0000000E+00
  0.2900000      0.0000000E+00
  0.3000000      0.0000000E+00
  0.3100000      0.0000000E+00
  0.3200000      0.0000000E+00
  0.3300000      0.0000000E+00
  0.3400000      0.0000000E+00
  0.3500000      0.0000000E+00
  0.3600000      0.0000000E+00
  0.3700000      0.0000000E+00
  0.3800000      0.0000000E+00
  0.3900000      0.0000000E+00
  0.4000000      0.0000000E+00
  0.4100000      0.0000000E+00
  0.4200000      0.0000000E+00
  0.4300000      0.0000000E+00
  0.4400000      0.0000000E+00
  0.4500000      0.0000000E+00
  0.4600000      0.0000000E+00
  0.4700000      0.0000000E+00
  0.4800000      0.0000000E+00
  0.4900000      0.0000000E+00
  0.5000000      0.0000000E+00
  0.5100000      0.0000000E+00
  0.5200000      0.0000000E+00
  0.5300000      0.0000000E+00
  0.5400000      0.0000000E+00
  0.5500000      0.0000000E+00
  0.5600000      0.0000000E+00
  0.5700000      0.0000000E+00
  0.5800000      0.0000000E+00
  0.5900000      0.0000000E+00
  0.6000000      0.0000000E+00
  0.6100000      0.0000000E+00
  0.6200000      0.0000000E+00
  0.6300000      0.0000000E+00
  0.6400000      0.0000000E+00
  0.6500000      0.0000000E+00
  0.6600000      0.0000000E+00
  0.6700000      0.0000000E+00
  0.6800000      0.0000000E+00
  0.6900000      0.0000000E+00
  0.7000000      0.0000000E+00
  0.7100000      0.0000000E+00
  0.7200000      0.0000000E+00
  0.7300000      0.0000000E+00
  0.7400000      0.0000000E+00
  0.7500000      0.0000000E+00
  0.7600000      0.0000000E+00
  0.7700000      0.0000000E+00
  0.7800000      0.0000000E+00
  0.7900000      0.0000000E+00
  0.8000000      0.0000000E+00
  0.8100000      0.0000000E+00
  0.8200000      0.0000000E+00
  0.8300000      0.0000000E+00
  0.8400000      0.0000000E+00
  0.8500000      0.0000000E+00
  0.8600000      0.0000000E+00
  0.8700000      0.0000000E+00
  0.8800000      0.0000000E+00
  0.8900000      0.0000000E+00
  0.9000000      0.0000000E+00
  0.9100000      0.0000000E+00
  0.9200000      0.0000000E+00
  0.9300000      0.0000000E+00
  0.9400000      0.0000000E+00
  0.9500000      0.0000000E+00
  0.9600000      0.0000000E+00
  0.9700000      0.0000000E+00
  0.9800000      0.0000000E+00
  0.9900000      0.0000000E+00
   1.000000      0.0000000E+00
   1.010000      0.0000000E+00
   1.020000      0.0000000E+00
   1.030000      0.0000000E+00
   1.040000      0.0000000E+00
   1.050000      0.0000000E+00
   1.060000      0.0000000E+00
   1.070000      0.0000000E+00
   1.080000      0.0000000E+00
   1.090000      0.0000000E+00
   1.100000      0.0000000E+00
   1.110000      0.0000000E+00
   1.120000      0.0000000E+00
   1.130000      0.0000000E+00
   1.140000      0.0000000E+00
   1.150000      0.0000000E+00
   1.160000      0.0000000E+00
   1.170000      0.0000000E+00
   1.180000      0.0000000E+00
   1.190000      0.0000000E+00
   1.200000      0.0000000E+00
   1.210000      0.0000000E+00
   1.220000      0.0000000E+00
   1.230000      0.0000000E+00
   1.240000      0.0000000E+00
   1.250000      0.0000000E+00
   1.260000      0.0000000E+00
   1.270000      0.0000000E+00
   1.280000      0.0000000E+00
   1.290000      0.0000000E+00
   1.300000      0.0000000E+00
   1.310000      0.0000000E+00
   1.320000      0.0000000E+00
   1.330000      0.0000000E+00
   1.340000      0.0000000E+00
   1.350000      0.0000000E+00
   1.360000      0.0000000E+00
   1.370000      0.0000000E+00
   1.380000      0.0000000E+00
   1.390000      0.0000000E+00
   1.400000      0.0000000E+00
   1.410000      0.0000000E+00
   1.420000      0.0000000E+00
   1.430000      0.0000000E+00
   1.440000      0.0000000E+00
   1.450000      0.0000000E+00
   1.460000      0.0000000E+00
   1.470000      0.0000000E+00
   1.480000      0.0000000E+00
   1.490000      0.0000000E+00
   1.500000      0.0000000E+00
   1.510000      0.0000000E+00
   1.520000      0.0000000E+00
   1.530000      0.0000000E+00
   1.540000      0.0000000E+00
   1.550000      0.0000000E+00
   1.560000      0.0000000E+00
   1.570000      0.0000000E+00
   1.580000      0.0000000E+00
   1.590000      0.0000000E+00
   1.600000      0.0000000E+00
   1.610000      0.0000000E+00
   1.620000      0.0000000E+00
   1.630000      0.0000000E+00
   1.640000      0.0000000E+00
   1.650000      0.0000000E+00
   1.660000      0.0000000E+00
   1.670000      0.0000000E+00
   1.680000      0.0000000E+00
   1.690000      0.0000000E+00
   1.700000      0.0000000E+00
   1.710000      0.0000000E+00
   1.720000      0.0000000E+00
   1.730000      0.0000000E+00
   1.740000      0.0000000E+00
   1.750000      0.0000000E+00
   1.760000      0.0000000E+00
   1.770000      0.0000000E+00
   1.780000      0.0000000E+00
   1.790000      0.0000000E+00
   1.800000      0.0000000E+00
   1.810000      0.0000000E+00
   1.820000      0.0000000E+00
   1.830000      0.0000000E+00
   1.840000      0.0000000E+00
   1.850000      0.0000000E+00
   1.860000      0.0000000E+00
   1.870000      0.0000000E+00
   1.880000      0.0000000E+00
   1.890000      0.0000000E+00
   1.900000      0.0000000E+00
   1.910000      0.0000000E+00
   1.920000      0.0000000E+00
   1.930000      0.0000000E+00
   1.940000      0.0000000E+00
   1.950000      0.0000000E+00
   1.960000      0.0000000E+00
   1.970000      0.0000000E+00
   1.980000      0.0000000E+00
   1.990000      0.0000000E+00
   2.000000      0.0000000E+00
   2.010000      0.0000000E+00
   2.020000      0.0000000E+00
   2.030000      0.0000000E+00
   2.040000      0.0000000E+00
   2.050000      0.0000000E+00
   2.060000      0.0000000E+00
   2.070000      0.0000000E+00
   2.080000      0.0000000E+00
   2.090000     -1.2464753E-38
   2.100000     -1.3933119E-38
   2.110000     -1.4772110E-38
   2.120000     -1.4913727E-38
   2.130000     -1.5066671E-38
   2.140000     -1.5301246E-38
   2.150000     -1.5664079E-38
   2.160000     -1.6181498E-38
   2.170000     -1.7822570E-38
   2.180000     -2.0530282E-38
   2.190000     -2.3035877E-38
   2.200000     -2.5368463E-38
   2.210000     -2.7299707E-38
   2.220000     -2.8795750E-38
   2.230000     -3.0291768E-38
   2.240000     -3.0232204E-38
   2.250000     -2.8240651E-38
   2.260000     -2.5050892E-38
   2.270000     -2.0943461E-38
   2.280000     -1.5844891E-38
   2.290000      0.0000000E+00
   2.300000      0.0000000E+00
   2.310000      0.0000000E+00
   2.320000      1.9659036E-38
   2.330000      3.4820056E-38
   2.340000      5.4237072E-38
   2.350000      7.4713041E-38
   2.360000      9.4248913E-38
   2.370000      1.1284769E-37
   2.380000      1.3256820E-37
   2.390000      1.5330945E-37
   2.400000      1.7534497E-37
   2.410000      1.9873123E-37
   2.420000      2.2367901E-37
   2.430000      2.5017767E-37
   2.440000      2.7741860E-37
   2.450000      3.0546248E-37
   2.460000      3.3410875E-37
   2.470000      3.6021886E-37
   2.480000      3.8434630E-37
   2.490000      4.0949901E-37
   2.500000      4.3306091E-37
   2.510000      4.5139469E-37
   2.520000      4.6522257E-37
   2.530000      4.7593575E-37
   2.540000      4.8106419E-37
   2.550000      4.4641997E-37
   2.560000      4.0554829E-37
   2.570000      3.8637229E-37
   2.580000      4.1078260E-37
   2.590000      4.9122910E-37
   2.600000      5.8922533E-37
   2.610000      6.9328342E-37
   2.620000      7.8221512E-37
   2.630000      7.8642143E-37
   2.640000      7.0364259E-37
   2.650000      5.9556638E-37
   2.660000      4.6108109E-37
   2.670000      2.9584139E-37
   2.680000      9.7674830E-38
   2.690000     -1.3428230E-37
   2.700000     -3.9840610E-37
   2.710000     -8.4895495E-37
   2.720000     -1.4854221E-36
   2.730000     -2.1499400E-36
   2.740000     -2.8244046E-36
   2.750000     -3.4675756E-36
   2.760000     -4.0549841E-36
   2.770000     -4.5835828E-36
   2.780000     -4.8525643E-36
   2.790000     -4.9279950E-36
   2.800000     -5.0163256E-36
   2.810000     -5.1253918E-36
   2.820000     -5.2516046E-36
   2.830000     -5.4074717E-36
   2.840000     -5.5457254E-36
   2.850000     -5.5769839E-36
   2.860000     -5.6113282E-36
   2.870000     -5.6268541E-36
   2.880000     -5.6238609E-36
   2.890000     -5.7963541E-36
   2.900000     -6.1531777E-36
   2.910000     -6.5463054E-36
   2.920000     -6.9473582E-36
   2.930000     -7.2244481E-36
   2.940000     -7.3565126E-36
   2.950000     -7.4651956E-36
   2.960000     -7.4418708E-36
   2.970000     -7.2367562E-36
   2.980000     -6.8858693E-36
   2.990000     -6.3480254E-36
   3.000000     -5.5837363E-36
   3.010000     -4.6117035E-36
   3.020000     -3.3231230E-36
   3.030000     -1.4153084E-36
   3.040000      1.0296930E-36
   3.050000      3.6305858E-36
   3.060000      6.3302674E-36
   3.070000      9.1852428E-36
   3.080000      1.2169721E-35
   3.090000      1.5345528E-35
   3.100000      1.8396455E-35
   3.110000      2.1425514E-35
   3.120000      2.4711991E-35
   3.130000      2.8253090E-35
   3.140000      3.2068396E-35
   3.150000      3.5943963E-35
   3.160000      3.9499933E-35
   3.170000      4.2851212E-35
   3.180000      4.6575775E-35
   3.190000      5.0630350E-35
   3.200000      5.5364596E-35
   3.210000      6.0280389E-35
   3.220000      6.4594758E-35
   3.230000      6.8552426E-35
   3.240000      7.2085366E-35
   3.250000      7.5131957E-35
   3.260000      7.7643158E-35
   3.270000      8.1419927E-35
   3.280000      8.6501719E-35
   3.290000      8.8620875E-35
   3.300000      8.7401799E-35
   3.310000      8.3493653E-35
   3.320000      7.7026207E-35
   3.330000      6.9323717E-35
   3.340000      6.0403190E-35
   3.350000      5.0230992E-35
   3.360000      3.8853010E-35
   3.370000      2.6695454E-35
   3.380000      1.4426966E-35
   3.390000      2.1993007E-36
   3.400000     -1.0358911E-35
   3.410000     -2.5054933E-35
   3.420000     -4.1737391E-35
   3.430000     -5.8059026E-35
   3.440000     -7.0995606E-35
   3.450000     -8.0802449E-35
   3.460000     -9.2190549E-35
   3.470000     -1.0712787E-34
   3.480000     -1.2431430E-34
   3.490000     -1.4368748E-34
   3.500000     -1.6541649E-34
   3.510000     -1.8938122E-34
   3.520000     -2.1452744E-34
   3.530000     -2.3950578E-34
   3.540000     -2.6566912E-34
   3.550000     -2.9073901E-34
   3.560000     -3.1338105E-34
   3.570000     -3.3439341E-34
   3.580000     -3.5364261E-34
   3.590000     -3.7112301E-34
   3.600000     -3.8626317E-34
   3.610000     -3.9988591E-34
   3.620000     -4.1208309E-34
   3.630000     -4.2220061E-34
   3.640000     -4.3079691E-34
   3.650000     -4.3740021E-34
   3.660000     -4.4123163E-34
   3.670000     -4.4171841E-34
   3.680000     -4.3809921E-34
   3.690000     -4.3116100E-34
   3.700000     -4.2085219E-34
   3.710000     -4.0558876E-34
   3.720000     -3.8433711E-34
   3.730000     -3.5688640E-34
   3.740000     -3.2217853E-34
   3.750000     -2.8172582E-34
   3.760000     -2.3585642E-34
   3.770000     -1.8237519E-34
   3.780000     -1.2165832E-34
   3.790000     -5.3477991E-35
   3.800000      2.2900967E-35
   3.810000      1.0613079E-34
   3.820000      1.9460529E-34
   3.830000      2.8853113E-34
   3.840000      3.8740294E-34
   3.850000      4.8913307E-34
   3.860000      5.9221323E-34
   3.870000      6.9923248E-34
   3.880000      8.0880412E-34
   3.890000      9.2205272E-34
   3.900000      1.0381580E-33
   3.910000      1.1530847E-33
   3.920000      1.2686082E-33
   3.930000      1.3847400E-33
   3.940000      1.5009911E-33
   3.950000      1.6157326E-33
   3.960000      1.7287314E-33
   3.970000      1.8416729E-33
   3.980000      1.9530201E-33
   3.990000      2.0597846E-33
   4.000000      2.1604152E-33
   4.010000      2.2538727E-33
   4.020000      2.3396944E-33
   4.030000      2.4181721E-33
   4.040000      2.4883291E-33
   4.050000      2.5481788E-33
   4.060000      2.5950116E-33
   4.070000      2.6260180E-33
   4.080000      2.6401667E-33
   4.090000      2.6374881E-33
   4.100000      2.6160838E-33
   4.110000      2.5721457E-33
   4.120000      2.5032046E-33
   4.130000      2.4072117E-33
   4.140000      2.2814922E-33
   4.150000      2.1281658E-33
   4.160000      1.9476141E-33
   4.170000      1.7326506E-33
   4.180000      1.4826701E-33
   4.190000      1.2016288E-33
   4.200000      8.8863553E-34
   4.210000      5.3923526E-34
   4.220000      1.5444963E-34
   4.230000     -2.6521412E-34
   4.240000     -7.2038376E-34
   4.250000     -1.2087307E-33
   4.260000     -1.7300285E-33
   4.270000     -2.2838132E-33
   4.280000     -2.8671683E-33
   4.290000     -3.4790485E-33
   4.300000     -4.1198318E-33
   4.310000     -4.7878065E-33
   4.320000     -5.4789564E-33
   4.330000     -6.1917593E-33
   4.340000     -6.9251605E-33
   4.350000     -7.6761250E-33
   4.360000     -8.4423901E-33
   4.370000     -9.2201942E-33
   4.380000     -1.0005830E-32
   4.390000     -1.0796426E-32
   4.400000     -1.1587895E-32
   4.410000     -1.2373791E-32
   4.420000     -1.3148674E-32
   4.430000     -1.3907243E-32
   4.440000     -1.4643301E-32
   4.450000     -1.5350061E-32
   4.460000     -1.6020646E-32
   4.470000     -1.6648165E-32
   4.480000     -1.7224448E-32
   4.490000     -1.7740249E-32
   4.500000     -1.8186956E-32
   4.510000     -1.8555823E-32
   4.520000     -1.8839035E-32
   4.530000     -1.9027496E-32
   4.540000     -1.9111089E-32
   4.550000     -1.9080817E-32
   4.560000     -1.8925092E-32
   4.570000     -1.8631987E-32
   4.580000     -1.8193245E-32
   4.590000     -1.7600918E-32
   4.600000     -1.6845817E-32
   4.610000     -1.5919301E-32
   4.620000     -1.4813640E-32
   4.630000     -1.3519281E-32
   4.640000     -1.2029094E-32
   4.650000     -1.0337325E-32
   4.660000     -8.4384515E-33
   4.670000     -6.3286728E-33
   4.680000     -4.0039321E-33
   4.690000     -1.4609606E-33
   4.700000      1.3014981E-33
   4.710000      4.2832303E-33
   4.720000      7.4849684E-33
   4.730000      1.0907866E-32
   4.740000      1.4548459E-32
   4.750000      1.8401459E-32
   4.760000      2.2463607E-32
   4.770000      2.6728881E-32
   4.780000      3.1189765E-32
   4.790000      3.5837587E-32
   4.800000      4.0662004E-32
   4.810000      4.5650764E-32
   4.820000      5.0789914E-32
   4.830000      5.6063698E-32
   4.840000      6.1454228E-32
   4.850000      6.6941564E-32
   4.860000      7.2503586E-32
   4.870000      7.8116425E-32
   4.880000      8.3753208E-32
   4.890000      8.9384373E-32
   4.900000      9.4978721E-32
   4.910000      1.0050183E-31
   4.920000      1.0591724E-31
   4.930000      1.1118684E-31
   4.940000      1.1626958E-31
   4.950000      1.2112196E-31
   4.960000      1.2569831E-31
   4.970000      1.2995067E-31
   4.980000      1.3382924E-31
   4.990000      1.3728248E-31
   5.000000      1.4025728E-31
   5.010000      1.4269920E-31
   5.020000      1.4455260E-31
   5.030000      1.4576103E-31
   5.040000      1.4626777E-31
   5.050000      1.4601589E-31
   5.060000      1.4494813E-31
   5.070000      1.4300765E-31
   5.080000      1.4013837E-31
   5.090000      1.3628516E-31
   5.100000      1.3139383E-31
   5.110000      1.2541159E-31
   5.120000      1.1828718E-31
   5.130000      1.0997165E-31
   5.140000      1.0041786E-31
   5.150000      8.9580698E-32
   5.160000      7.7418322E-32
   5.170000      6.3892062E-32
   5.180000      4.8966260E-32
   5.190000      3.2608736E-32
   5.200000      1.4791586E-32
   5.210000     -4.5084073E-33
   5.220000     -2.5309487E-32
   5.230000     -4.7624398E-32
   5.240000     -7.1459906E-32
   5.250000     -9.6816101E-32
   5.260000     -1.2368586E-31
   5.270000     -1.5205437E-31
   5.280000     -1.8189845E-31
   5.290000     -2.1318587E-31
   5.300000     -2.4587481E-31
   5.310000     -2.7991339E-31
   5.320000     -3.1523888E-31
   5.330000     -3.5177712E-31
   5.340000     -3.8944224E-31
   5.350000     -4.2813587E-31
   5.360000     -4.6774735E-31
   5.370000     -5.0815281E-31
   5.380000     -5.4921452E-31
   5.390000     -5.9078155E-31
   5.400000     -6.3268924E-31
   5.410000     -6.7475896E-31
   5.420000     -7.1679845E-31
   5.430000     -7.5860152E-31
   5.440000     -7.9994807E-31
   5.450000     -8.4060532E-31
   5.460000     -8.8032687E-31
   5.470000     -9.1885337E-31
   5.480000     -9.5591285E-31
   5.490000     -9.9122160E-31
   5.500000     -1.0244832E-30
   5.510000     -1.0553898E-30
   5.520000     -1.0836223E-30
   5.530000     -1.1088512E-30
   5.540000     -1.1307368E-30
   5.550000     -1.1489297E-30
   5.560000     -1.1630703E-30
   5.570000     -1.1727910E-30
   5.580000     -1.1777160E-30
   5.590000     -1.1774622E-30
   5.600000     -1.1716404E-30
   5.610000     -1.1598562E-30
   5.620000     -1.1417115E-30
   5.630000     -1.1168053E-30
   5.640000     -1.0847360E-30
   5.650000     -1.0451029E-30
   5.660000     -9.9750805E-31
   5.670000     -9.4155866E-31
   5.680000     -8.7686941E-31
   5.690000     -8.0306464E-31
   5.700000     -7.1978166E-31
   5.710000     -6.2667315E-31
   5.720000     -5.2340992E-31
   5.730000     -4.0968503E-31
   5.740000     -2.8521511E-31
   5.750000     -1.4974437E-31
   5.760000     -3.0489431E-33
   5.770000      1.5506102E-31
   5.780000      3.2473788E-31
   5.790000      5.0609339E-31
   5.800000      6.9919537E-31
   5.810000      9.0406452E-31
   5.820000      1.1206714E-30
   5.830000      1.3489330E-30
   5.840000      1.5887101E-30
   5.850000      1.8398042E-30
   5.860000      2.1019547E-30
   5.870000      2.3748356E-30
   5.880000      2.6580523E-30
   5.890000      2.9511391E-30
   5.900000      3.2535555E-30
   5.910000      3.5646838E-30
   5.920000      3.8838254E-30
   5.930000      4.2101976E-30
   5.940000      4.5429306E-30
   5.950000      4.8810648E-30
   5.960000      5.2235467E-30
   5.970000      5.5692255E-30
   5.980000      5.9168525E-30
   5.990000      6.2650749E-30
   6.000000      6.6124360E-30
   6.010000      6.9573723E-30
   6.020000      7.2982100E-30
   6.030000      7.6331675E-30
   6.040000      7.9603507E-30
   6.050000      8.2777560E-30
   6.060000      8.5832679E-30
   6.070000      8.8746626E-30
   6.080000      9.1496057E-30
   6.090000      9.4056603E-30
   6.100000      9.6402875E-30
   6.110000      9.8508488E-30
   6.120000      1.0034614E-29
   6.130000      1.0188763E-29
   6.140000      1.0310394E-29
   6.150000      1.0396533E-29
   6.160000      1.0444133E-29
   6.170000      1.0450091E-29
   6.180000      1.0411249E-29
   6.190000      1.0324409E-29
   6.200000      1.0186338E-29
   6.210000      9.9937806E-30
   6.220000      9.7434729E-30
   6.230000      9.4321449E-30
   6.240000      9.0565411E-30
   6.250000      8.6134290E-30
   6.260000      8.0996142E-30
   6.270000      7.5119543E-30
   6.280000      6.8473746E-30
   6.290000      6.1028846E-30
   6.300000      5.2755961E-30
   6.310000      4.3627399E-30
   6.320000      3.3616881E-30
   6.330000      2.2699725E-30
   6.340000      1.0853088E-30
   6.350000     -1.9437945E-31
   6.360000     -1.5709388E-30
   6.370000     -3.0459579E-30
   6.380000     -4.6207385E-30
   6.390000     -6.2962705E-30
   6.400000     -8.0732034E-30
   6.410000     -9.9518164E-30
   6.420000     -1.1931985E-29
   6.430000     -1.4013157E-29
   6.440000     -1.6194316E-29
   6.450000     -1.8473955E-29
   6.460000     -2.0850042E-29
   6.470000     -2.3319995E-29
   6.480000     -2.5880650E-29
   6.490000     -2.8528225E-29
   6.500000     -3.1258312E-29
   6.510000     -3.4065828E-29
   6.520000     -3.6944991E-29
   6.530000     -3.9889304E-29
   6.540000     -4.2891531E-29
   6.550000     -4.5943661E-29
   6.560000     -4.9036894E-29
   6.570000     -5.2161616E-29
   6.580000     -5.5307382E-29
   6.590000     -5.8462885E-29
   6.600000     -6.1615964E-29
   6.610000     -6.4753550E-29
   6.620000     -6.7861688E-29
   6.630000     -7.0925500E-29
   6.640000     -7.3929180E-29
   6.650000     -7.6855980E-29
   6.660000     -7.9688228E-29
   6.670000     -8.2407286E-29
   6.680000     -8.4993606E-29
   6.690000     -8.7426681E-29
   6.700000     -8.9685093E-29
   6.710000     -9.1746506E-29
   6.720000     -9.3587719E-29
   6.730000     -9.5184640E-29
   6.740000     -9.6512388E-29
   6.750000     -9.7545276E-29
   6.760000     -9.8256883E-29
   6.770000     -9.8620114E-29
   6.780000     -9.8607252E-29
   6.790000     -9.8190060E-29
   6.800000     -9.7339816E-29
   6.810000     -9.6027415E-29
   6.820000     -9.4223492E-29
   6.830000     -9.1898492E-29
   6.840000     -8.9022783E-29
   6.850000     -8.5566810E-29
   6.860000     -8.1501172E-29
   6.870000     -7.6796800E-29
   6.880000     -7.1425074E-29
   6.890000     -6.5357997E-29
   6.900000     -5.8568330E-29
   6.910000     -5.1029765E-29
   6.920000     -4.2717096E-29
   6.930000     -3.3606424E-29
   6.940000     -2.3675299E-29
   6.950000     -1.2902974E-29
   6.960000     -1.2705608E-30
   6.970000      1.1238726E-29
   6.980000      2.4639362E-29
   6.990000      3.8943269E-29
   7.000000      5.4159612E-29
   7.010000      7.0294505E-29
   7.020000      8.7350799E-29
   7.030000      1.0532781E-28
   7.040000      1.2422109E-28
   7.050000      1.4402209E-28
   7.060000      1.6471795E-28