  -2.600000      0.0000000E+00
  -2.590000      0.0000000E+00
  -2.580000      0.0000000E+00
  -2.570000      0.0000000E+00
  -2.560000      0.0000000E+00
  -2.550000      0.0000000E+00
  -2.540000      0.0000000E+00
  -2.530000      0.0000000E+00
  -2.520000      0.0000000E+00
  -2.510000      0.0000000E+00
  -2.500000      0.0000000E+00
  -2.490000      0.0000000E+00
  -2.480000      0.0000000E+00
  -2.470000      0.0000000E+00
  -2.460000      0.0000000E+00
  -2.450000      0.0000000E+00
  -2.440000      0.0000000E+00
  -2.430000      0.0000000E+00
  -2.420000      0.0000000E+00
  -2.410000      0.0000000E+00
  -2.400000      0.0000000E+00
  -2.390000      0.0000000E+00
  -2.380000      0.0000000E+00
  -2.370000      0.0000000E+00
  -2.360000      0.0000000E+00
  -2.350000      0.0000000E+00
  -2.340000      0.0000000E+00
  -2.330000      0.0000000E+00
  -2.320000      0.0000000E+00
  -2.310000      0.0000000E+00
  -2.300000      0.0000000E+00
  -2.290000      0.0000000E+00
  -2.280000      0.0000000E+00
  -2.270000      0.0000000E+00
  -2.260000      0.0000000E+00
  -2.250000      0.0000000E+00
  -2.240000      0.0000000E+00
  -2.230000      0.0000000E+00
  -2.220000      0.0000000E+00
  -2.210000      0.0000000E+00
  -2.200000      0.0000000E+00
  -2.190000      0.0000000E+00
  -2.180000      0.0000000E+00
  -2.170000      0.0000000E+00
  -2.160000      0.0000000E+00
  -2.150000      0.0000000E+00
  -2.140000      0.0000000E+00
  -2.130000      0.0000000E+00
  -2.120000      0.0000000E+00
  -2.110000      0.0000000E+00
  -2.100000      0.0000000E+00
  -2.090000      0.0000000E+00
  -2.080000      0.0000000E+00
  -2.070000      0.0000000E+00
  -2.060000      0.0000000E+00
  -2.050000      0.0000000E+00
  -2.040000      0.0000000E+00
  -2.030000      0.0000000E+00
  -2.020000      0.0000000E+00
  -2.010000      0.0000000E+00
  -2.000000      0.0000000E+00
  -1.990000      0.0000000E+00
  -1.980000      0.0000000E+00
  -1.970000      0.0000000E+00
  -1.960000      0.0000000E+00
  -1.950000      0.0000000E+00
  -1.940000      0.0000000E+00
  -1.930000      0.0000000E+00
  -1.920000      0.0000000E+00
  -1.910000      0.0000000E+00
  -1.900000      0.0000000E+00
  -1.890000      0.0000000E+00
  -1.880000      0.0000000E+00
  -1.870000      0.0000000E+00
  -1.860000      0.0000000E+00
  -1.850000      0.0000000E+00
  -1.840000      0.0000000E+00
  -1.830000      0.0000000E+00
  -1.820000      0.0000000E+00
  -1.810000      0.0000000E+00
  -1.800000      0.0000000E+00
  -1.790000      0.0000000E+00
  -1.780000      0.0000000E+00
  -1.770000      0.0000000E+00
  -1.760000      0.0000000E+00
  -1.750000      0.0000000E+00
  -1.740000      0.0000000E+00
  -1.730000      0.0000000E+00
  -1.720000      0.0000000E+00
  -1.710000      0.0000000E+00
  -1.700000      0.0000000E+00
  -1.690000      0.0000000E+00
  -1.680000      0.0000000E+00
  -1.670000      0.0000000E+00
  -1.660000      0.0000000E+00
  -1.650000      0.0000000E+00
  -1.640000      0.0000000E+00
  -1.630000      0.0000000E+00
  -1.620000      0.0000000E+00
  -1.610000      0.0000000E+00
  -1.600000      0.0000000E+00
  -1.590000      0.0000000E+00
  -1.580000      0.0000000E+00
  -1.570000      0.0000000E+00
  -1.560000      0.0000000E+00
  -1.550000      0.0000000E+00
  -1.540000      0.0000000E+00
  -1.530000      0.0000000E+00
  -1.520000      0.0000000E+00
  -1.510000      0.0000000E+00
  -1.500000      0.0000000E+00
  -1.490000      0.0000000E+00
  -1.480000      0.0000000E+00
  -1.470000      0.0000000E+00
  -1.460000      0.0000000E+00
  -1.450000      0.0000000E+00
  -1.440000      0.0000000E+00
  -1.430000      0.0000000E+00
  -1.420000      0.0000000E+00
  -1.410000      0.0000000E+00
  -1.400000      0.0000000E+00
  -1.390000      0.0000000E+00
  -1.380000      0.0000000E+00
  -1.370000      0.0000000E+00
  -1.360000      0.0000000E+00
  -1.350000      0.0000000E+00
  -1.340000      0.0000000E+00
  -1.330000      0.0000000E+00
  -1.320000      0.0000000E+00
  -1.310000      0.0000000E+00
  -1.300000      0.0000000E+00
  -1.290000      0.0000000E+00
  -1.280000      0.0000000E+00
  -1.270000      0.0000000E+00
  -1.260000      0.0000000E+00
  -1.250000      0.0000000E+00
  -1.240000      0.0000000E+00
  -1.230000      0.0000000E+00
  -1.220000      0.0000000E+00
  -1.210000      0.0000000E+00
  -1.200000      0.0000000E+00
  -1.190000      0.0000000E+00
  -1.180000      0.0000000E+00
  -1.170000      0.0000000E+00
  -1.160000      0.0000000E+00
  -1.150000      0.0000000E+00
  -1.140000      0.0000000E+00
  -1.130000      0.0000000E+00
  -1.120000      0.0000000E+00
  -1.110000      0.0000000E+00
  -1.100000      0.0000000E+00
  -1.090000      0.0000000E+00
  -1.080000      0.0000000E+00
  -1.070000      0.0000000E+00
  -1.060000      0.0000000E+00
  -1.050000      0.0000000E+00
  -1.040000      0.0000000E+00
  -1.030000      0.0000000E+00
  -1.020000      0.0000000E+00
  -1.010000      0.0000000E+00
  -1.000000      0.0000000E+00
 -0.9900000      0.0000000E+00
 -0.9800000      0.0000000E+00
 -0.9700000      0.0000000E+00
 -0.9600000      0.0000000E+00
 -0.9500000      0.0000000E+00
 -0.9400000      0.0000000E+00
 -0.9300000      0.0000000E+00
 -0.9200000      0.0000000E+00
 -0.9100000      0.0000000E+00
 -0.9000000      0.0000000E+00
 -0.8900000      0.0000000E+00
 -0.8800000      0.0000000E+00
 -0.8700000      0.0000000E+00
 -0.8600000      0.0000000E+00
 -0.8500000      0.0000000E+00
 -0.8400000      0.0000000E+00
 -0.8300000      0.0000000E+00
 -0.8200000      0.0000000E+00
 -0.8100000      0.0000000E+00
 -0.8000000      0.0000000E+00
 -0.7900000      0.0000000E+00
 -0.7800000      0.0000000E+00
 -0.7700000      0.0000000E+00
 -0.7600000      0.0000000E+00
 -0.7500000      0.0000000E+00
 -0.7400000      0.0000000E+00
 -0.7300000      0.0000000E+00
 -0.7200000      0.0000000E+00
 -0.7100000      0.0000000E+00
 -0.7000000      0.0000000E+00
 -0.6900000      0.0000000E+00
 -0.6800000      0.0000000E+00
 -0.6700000      0.0000000E+00
 -0.6600000      0.0000000E+00
 -0.6500000      0.0000000E+00
 -0.6400000      0.0000000E+00
 -0.6300000      0.0000000E+00
 -0.6200000      0.0000000E+00
 -0.6100000      0.0000000E+00
 -0.6000000      0.0000000E+00
 -0.5900000      0.0000000E+00
 -0.5800000      0.0000000E+00
 -0.5700000      0.0000000E+00
 -0.5600000      0.0000000E+00
 -0.5500000      0.0000000E+00
 -0.5400000      0.0000000E+00
 -0.5300000      0.0000000E+00
 -0.5200000      0.0000000E+00
 -0.5100000      0.0000000E+00
 -0.5000000      0.0000000E+00
 -0.4900000      0.0000000E+00
 -0.4800000      0.0000000E+00
 -0.4700000      0.0000000E+00
 -0.4600000      0.0000000E+00
 -0.4500000      0.0000000E+00
 -0.4400000      0.0000000E+00
 -0.4300000      0.0000000E+00
 -0.4200000      0.0000000E+00
 -0.4100000      0.0000000E+00
 -0.4000000      0.0000000E+00
 -0.3900000      0.0000000E+00
 -0.3800000      0.0000000E+00
 -0.3700000      0.0000000E+00
 -0.3600000      0.0000000E+00
 -0.3500000      0.0000000E+00
 -0.3400000      0.0000000E+00
 -0.3300000      0.0000000E+00
 -0.3200000      0.0000000E+00
 -0.3100000      0.0000000E+00
 -0.3000000      0.0000000E+00
 -0.2900000      0.0000000E+00
 -0.2800000      0.0000000E+00
 -0.2700000      0.0000000E+00
 -0.2600000      0.0000000E+00
 -0.2500000      0.0000000E+00
 -0.2400000      0.0000000E+00
 -0.2300000      0.0000000E+00
 -0.2200000      0.0000000E+00
 -0.2100000      0.0000000E+00
 -0.2000000      0.0000000E+00
 -0.1900000      0.0000000E+00
 -0.1800000      0.0000000E+00
 -0.1700000      0.0000000E+00
 -0.1600000      0.0000000E+00
 -0.1500000      0.0000000E+00
 -0.1400000      0.0000000E+00
 -0.1300000      0.0000000E+00
 -0.1200000      0.0000000E+00
 -0.1100000      0.0000000E+00
 -0.1000000      0.0000000E+00
 -9.0000004E-02  0.0000000E+00
 -7.9999998E-02  0.0000000E+00
 -7.0000000E-02  0.0000000E+00
 -5.9999999E-02  0.0000000E+00
 -5.0000001E-02  0.0000000E+00
 -3.9999999E-02  0.0000000E+00
 -2.9999999E-02  0.0000000E+00
 -2.0000000E-02  0.0000000E+00
 -9.9999998E-03  0.0000000E+00
 -3.4694470E-17  0.0000000E+00
  9.9999998E-03  0.0000000E+00
  2.0000000E-02  0.0000000E+00
  2.9999999E-02  0.0000000E+00
  3.9999999E-02  0.0000000E+00
  5.0000001E-02  0.0000000E+00
  5.9999999E-02  0.0000000E+00
  7.0000000E-02  0.0000000E+00
  7.9999998E-02  0.0000000E+00
  9.0000004E-02  0.0000000E+00
  0.1000000      0.0000000E+00
  0.1100000      0.0000000E+00
  0.1200000      0.0000000E+00
  0.1300000      0.0000000E+00
  0.1400000      0.0000000E+00
  0.1500000      0.0000000E+00
  0.1600000      0.0000000E+00
  0.1700000      0.0000000E+00
  0.1800000      0.0000000E+00
  0.1900000      0.0000000E+00
  0.2000000      0.0000000E+00
  0.2100000      0.0000000E+00
  0.2200000      0.0000000E+00
  0.2300000      0.0000000E+00
  0.2400000      0.0000000E+00
  0.2500000      0.0000000E+00
  0.2600000      0.0000000E+00
  0.2700000      0.0000000E+00
  0.2800000      0.0000000E+00
  0.2900000      0.0000000E+00
  0.3000000      0.0000000E+00
  0.3100000      0.0000000E+00
  0.3200000      0.0000000E+00
  0.3300000      0.0000000E+00
  0.3400000      0.0000000E+00
  0.3500000      0.0000000E+00
  0.3600000      0.0000000E+00
  0.3700000      0.0000000E+00
  0.3800000      0.0000000E+00
  0.3900000      0.0000000E+00
  0.4000000      0.0000000E+00
  0.4100000      0.0000000E+00
  0.4200000      0.0000000E+00
  0.4300000      0.0000000E+00
  0.4400000      0.0000000E+00
  0.4500000      0.0000000E+00
  0.4600000      0.0000000E+00
  0.4700000      0.0000000E+00
  0.4800000      0.0000000E+00
  0.4900000      0.0000000E+00
  0.5000000      0.0000000E+00
  0.5100000      0.0000000E+00
  0.5200000      0.0000000E+00
  0.5300000      0.0000000E+00
  0.5400000      0.0000000E+00
  0.5500000      0.0000000E+00
  0.5600000      0.0000000E+00
  0.5700000      0.0000000E+00
  0.5800000      0.0000000E+00
  0.5900000      0.0000000E+00
  0.6000000      0.0000000E+00
  0.6100000      0.0000000E+00
  0.6200000      0.0000000E+00
  0.6300000      0.0000000E+00
  0.6400000      0.0000000E+00
  0.6500000      0.0000000E+00
  0.6600000      0.0000000E+00
  0.6700000      0.0000000E+00
  0.6800000      0.0000000E+00
  0.6900000      0.0000000E+00
  0.7000000      0.0000000E+00
  0.7100000      0.0000000E+00
  0.7200000      0.0000000E+00
  0.7300000      0.0000000E+00
  0.7400000      0.0000000E+00
  0.7500000      0.0000000E+00
  0.7600000      0.0000000E+00
  0.7700000      0.0000000E+00
  0.7800000      0.0000000E+00
  0.7900000      0.0000000E+00
  0.8000000      0.0000000E+00
  0.8100000      0.0000000E+00
  0.8200000      0.0000000E+00
  0.8300000      0.0000000E+00
  0.8400000      0.0000000E+00
  0.8500000      0.0000000E+00
  0.8600000      0.0000000E+00
  0.8700000      0.0000000E+00
  0.8800000      0.0000000E+00
  0.8900000      0.0000000E+00
  0.9000000      0.0000000E+00
  0.9100000      0.0000000E+00
  0.9200000      0.0000000E+00
  0.9300000      0.0000000E+00
  0.9400000      0.0000000E+00
  0.9500000      0.0000000E+00
  0.9600000      0.0000000E+00
  0.9700000      0.0000000E+00
  0.9800000      0.0000000E+00
  0.9900000      0.0000000E+00
   1.000000      0.0000000E+00
   1.010000      0.0000000E+00
   1.020000      0.0000000E+00
   1.030000      0.0000000E+00
   1.040000      0.0000000E+00
   1.050000      0.0000000E+00
   1.060000      0.0000000E+00
   1.070000      0.0000000E+00
   1.080000      0.0000000E+00
   1.090000      0.0000000E+00
   1.100000      0.0000000E+00
   1.110000      0.0000000E+00
   1.120000      0.0000000E+00
   1.130000      0.0000000E+00
   1.140000      0.0000000E+00
   1.150000      0.0000000E+00
   1.160000      0.0000000E+00
   1.170000      0.0000000E+00
   1.180000      0.0000000E+00
   1.190000      0.0000000E+00
   1.200000      0.0000000E+00
   1.210000      0.0000000E+00
   1.220000      0.0000000E+00
   1.230000      0.0000000E+00
   1.240000      0.0000000E+00
   1.250000      0.0000000E+00
   1.260000      0.0000000E+00
   1.270000      0.0000000E+00
   1.280000      0.0000000E+00
   1.290000      0.0000000E+00
   1.300000      0.0000000E+00
   1.310000      0.0000000E+00
   1.320000      0.0000000E+00
   1.330000      0.0000000E+00
   1.340000      0.0000000E+00
   1.350000      0.0000000E+00
   1.360000      0.0000000E+00
   1.370000      0.0000000E+00
   1.380000      0.0000000E+00
   1.390000      0.0000000E+00
   1.400000      0.0000000E+00
   1.410000      0.0000000E+00
   1.420000      0.0000000E+00
   1.430000      0.0000000E+00
   1.440000      0.0000000E+00
   1.450000      0.0000000E+00
   1.460000      0.0000000E+00
   1.470000      0.0000000E+00
   1.480000      0.0000000E+00
   1.490000      0.0000000E+00
   1.500000      0.0000000E+00
   1.510000      0.0000000E+00
   1.520000      0.0000000E+00
   1.530000      0.0000000E+00
   1.540000      0.0000000E+00
   1.550000      0.0000000E+00
   1.560000      0.0000000E+00
   1.570000      0.0000000E+00
   1.580000      0.0000000E+00
   1.590000      0.0000000E+00
   1.600000      0.0000000E+00
   1.610000      0.0000000E+00
   1.620000      0.0000000E+00
   1.630000      0.0000000E+00
   1.640000      0.0000000E+00
   1.650000      0.0000000E+00
   1.660000      0.0000000E+00
   1.670000      0.0000000E+00
   1.680000      0.0000000E+00
   1.690000      0.0000000E+00
   1.700000      0.0000000E+00
   1.710000      0.0000000E+00
   1.720000      0.0000000E+00
   1.730000      0.0000000E+00
   1.740000      0.0000000E+00
   1.750000      0.0000000E+00
   1.760000      0.0000000E+00
   1.770000      0.0000000E+00
   1.780000      0.0000000E+00
   1.790000      0.0000000E+00
   1.800000      0.0000000E+00
   1.810000      0.0000000E+00
   1.820000      0.0000000E+00
   1.830000      0.0000000E+00
   1.840000      0.0000000E+00
   1.850000      0.0000000E+00
   1.860000      0.0000000E+00
   1.870000      0.0000000E+00
   1.880000      0.0000000E+00
   1.890000      0.0000000E+00
   1.900000      0.0000000E+00
   1.910000      0.0000000E+00
   1.920000      0.0000000E+00
   1.930000      0.0000000E+00
   1.940000      0.0000000E+00
   1.950000      0.0000000E+00
   1.960000      0.0000000E+00
   1.970000      0.0000000E+00
   1.980000      1.2899460E-38
   1.990000      1.4604045E-38
   2.000000      1.6225911E-38
   2.010000      1.7732186E-38
   2.020000      1.9086369E-38
   2.030000      2.0041642E-38
   2.040000      2.0152281E-38
   2.050000      1.9490492E-38
   2.060000      1.8580148E-38
   2.070000      1.7671425E-38
   2.080000      1.6796176E-38
   2.090000      1.6037543E-38
   2.100000      1.4884822E-38
   2.110000      1.2962194E-38
   2.120000      0.0000000E+00
   2.130000      0.0000000E+00
   2.140000      0.0000000E+00
   2.150000      0.0000000E+00
   2.160000      0.0000000E+00
   2.170000      0.0000000E+00
   2.180000     -1.2719331E-38
   2.190000     -1.6733271E-38
   2.200000     -2.0892041E-38
   2.210000     -2.5315494E-38
   2.220000     -3.0140327E-38
   2.230000     -3.5564151E-38
   2.240000     -4.1811980E-38
   2.250000     -4.9302187E-38
   2.260000     -5.7666223E-38
   2.270000     -6.6634870E-38
   2.280000     -7.6651609E-38
   2.290000     -8.7183381E-38
   2.300000     -9.6998227E-38
   2.310000     -1.0584388E-37
   2.320000     -1.1404904E-37
   2.330000     -1.2143904E-37
   2.340000     -1.2641013E-37
   2.350000     -1.2836104E-37
   2.360000     -1.2794326E-37
   2.370000     -1.2492362E-37
   2.380000     -1.2072832E-37
   2.390000     -1.1579443E-37
   2.400000     -1.0942897E-37
   2.410000     -1.0169225E-37
   2.420000     -9.2347469E-38
   2.430000     -8.0366552E-38
   2.440000     -6.5770829E-38
   2.450000     -4.9008239E-38
   2.460000     -2.9586122E-38
   2.470000      0.0000000E+00
   2.480000      2.1897409E-38
   2.490000      5.3046109E-38
   2.500000      8.7460396E-38
   2.510000      1.2396573E-37
   2.520000      1.6273341E-37
   2.530000      2.0525038E-37
   2.540000      2.5190376E-37
   2.550000      2.8984238E-37
   2.560000      3.1799437E-37
   2.570000      3.4730532E-37
   2.580000      3.7505942E-37
   2.590000      3.8425689E-37
   2.600000      3.7049161E-37
   2.610000      3.4096838E-37
   2.620000      2.9155860E-37
   2.630000      2.5115082E-37
   2.640000      2.3016621E-37
   2.650000      2.0783592E-37
   2.660000      1.8085409E-37
   2.670000      1.4671564E-37
   2.680000      6.0553610E-38
   2.690000     -1.3992104E-37
   2.700000     -4.4182326E-37
   2.710000     -8.0258242E-37
   2.720000     -1.2241946E-36
   2.730000     -1.7058366E-36
   2.740000     -2.2369190E-36
   2.750000     -2.8221791E-36
   2.760000     -3.4633673E-36
   2.770000     -4.0422369E-36
   2.780000     -4.5113829E-36
   2.790000     -4.8695607E-36
   2.800000     -5.1180708E-36
   2.810000     -5.3336765E-36
   2.820000     -5.5189399E-36
   2.830000     -5.6743930E-36
   2.840000     -5.7943596E-36
   2.850000     -5.8653057E-36
   2.860000     -5.8898340E-36
   2.870000     -5.8502917E-36
   2.880000     -5.7046818E-36
   2.890000     -5.4669420E-36
   2.900000     -5.0609581E-36
   2.910000     -4.4529999E-36
   2.920000     -3.7603436E-36
   2.930000     -3.0414503E-36
   2.940000     -2.2990491E-36
   2.950000     -1.5889519E-36
   2.960000     -9.0700852E-37
   2.970000     -2.1265034E-37
   2.980000      5.5786243E-37
   2.990000      1.4070153E-36
   3.000000      2.3416392E-36
   3.010000      3.4136014E-36
   3.020000      4.5995224E-36
   3.030000      5.8875202E-36
   3.040000      7.2448442E-36
   3.050000      8.7036109E-36
   3.060000      1.0221863E-35
   3.070000      1.1769827E-35
   3.080000      1.3426532E-35
   3.090000      1.5223087E-35
   3.100000      1.7162572E-35
   3.110000      1.9212845E-35
   3.120000      2.1375986E-35
   3.130000      2.3671071E-35
   3.140000      2.6002678E-35
   3.150000      2.8371216E-35
   3.160000      3.0772103E-35
   3.170000      3.3004727E-35
   3.180000      3.4934283E-35
   3.190000      3.6805529E-35
   3.200000      3.8550555E-35
   3.210000      3.9910938E-35
   3.220000      4.0999748E-35
   3.230000      4.1833450E-35
   3.240000      4.2053537E-35
   3.250000      4.1157708E-35
   3.260000      3.9521773E-35
   3.270000      3.7563522E-35
   3.280000      3.5008572E-35
   3.290000      3.1703608E-35
   3.300000      2.7696214E-35
   3.310000      2.3556663E-35
   3.320000      1.9289347E-35
   3.330000      1.4715390E-35
   3.340000      9.9515971E-36
   3.350000      2.7458372E-36
   3.360000     -7.0331612E-36
   3.370000     -1.7564915E-35
   3.380000     -2.8771191E-35
   3.390000     -4.0576656E-35
   3.400000     -5.2956193E-35
   3.410000     -6.5641533E-35
   3.420000     -7.8771403E-35
   3.430000     -9.2576764E-35
   3.440000     -1.0631488E-34
   3.450000     -1.1822330E-34
   3.460000     -1.2649040E-34
   3.470000     -1.3244070E-34
   3.480000     -1.3813092E-34
   3.490000     -1.4307660E-34
   3.500000     -1.4675498E-34
   3.510000     -1.5009981E-34
   3.520000     -1.5390573E-34
   3.530000     -1.5877398E-34
   3.540000     -1.6468894E-34
   3.550000     -1.7138097E-34
   3.560000     -1.7791650E-34
   3.570000     -1.8225407E-34
   3.580000     -1.8393317E-34
   3.590000     -1.8554309E-34
   3.600000     -1.8668319E-34
   3.610000     -1.8448290E-34
   3.620000     -1.8207836E-34
   3.630000     -1.7988913E-34
   3.640000     -1.7507909E-34
   3.650000     -1.6717744E-34
   3.660000     -1.5713862E-34
   3.670000     -1.4608355E-34
   3.680000     -1.3343990E-34
   3.690000     -1.1893720E-34
   3.700000     -1.0193214E-34
   3.710000     -8.1875030E-35
   3.720000     -5.9094230E-35
   3.730000     -3.3609461E-35
   3.740000     -4.8653011E-36
   3.750000      2.4139993E-35
   3.760000      5.5561267E-35
   3.770000      9.3798239E-35
   3.780000      1.3761718E-34
   3.790000      1.8716663E-34
   3.800000      2.4218623E-34
   3.810000      2.9854563E-34
   3.820000      3.5558323E-34
   3.830000      4.1466385E-34
   3.840000      4.7430219E-34
   3.850000      5.3562943E-34
   3.860000      6.0097305E-34
   3.870000      6.6626124E-34
   3.880000      7.2839769E-34
   3.890000      7.9058984E-34
   3.900000      8.5267633E-34
   3.910000      9.1039521E-34
   3.920000      9.6416177E-34
   3.930000      1.0190077E-33
   3.940000      1.0722494E-33
   3.950000      1.1184708E-33
   3.960000      1.1609835E-33
   3.970000      1.2010513E-33
   3.980000      1.2351901E-33
   3.990000      1.2628310E-33
   4.000000      1.2853664E-33
   4.010000      1.3044753E-33
   4.020000      1.3177766E-33
   4.030000      1.3229708E-33
   4.040000      1.3208123E-33
   4.050000      1.3089287E-33
   4.060000      1.2832313E-33
   4.070000      1.2428001E-33
   4.080000      1.1895286E-33
   4.090000      1.1229504E-33
   4.100000      1.0424686E-33
   4.110000      9.4822317E-34
   4.120000      8.3877078E-34
   4.130000      7.1385931E-34
   4.140000      5.7333640E-34
   4.150000      4.1706012E-34
   4.160000      2.4482147E-34
   4.170000      5.6739603E-35
   4.180000     -1.4761755E-34
   4.190000     -3.7073760E-34
   4.200000     -6.1237929E-34
   4.210000     -8.7014867E-34
   4.220000     -1.1450404E-33
   4.230000     -1.4358438E-33
   4.240000     -1.7405820E-33
   4.250000     -2.0584699E-33
   4.260000     -2.3893972E-33
   4.270000     -2.7314694E-33
   4.280000     -3.0796754E-33
   4.290000     -3.4348279E-33
   4.300000     -3.7965555E-33
   4.310000     -4.1625203E-33
   4.320000     -4.5322401E-33
   4.330000     -4.9036595E-33
   4.340000     -5.2750698E-33
   4.350000     -5.6448359E-33
   4.360000     -6.0110009E-33
   4.370000     -6.3706247E-33
   4.380000     -6.7186768E-33
   4.390000     -7.0521095E-33
   4.400000     -7.3687759E-33
   4.410000     -7.6639638E-33
   4.420000     -7.9349564E-33
   4.430000     -8.1761524E-33
   4.440000     -8.3813239E-33
   4.450000     -8.5481538E-33
   4.460000     -8.6746384E-33
   4.470000     -8.7550107E-33
   4.480000     -8.7828544E-33
   4.490000     -8.7549276E-33
   4.500000     -8.6680571E-33
   4.510000     -8.5179671E-33
   4.520000     -8.3002281E-33
   4.530000     -8.0087723E-33
   4.540000     -7.6399117E-33
   4.550000     -7.1901581E-33
   4.560000     -6.6542649E-33
   4.570000     -6.0286833E-33
   4.580000     -5.3095471E-33
   4.590000     -4.4937650E-33
   4.600000     -3.5788205E-33
   4.610000     -2.5624337E-33
   4.620000     -1.4430578E-33
   4.630000     -2.2062472E-34
   4.640000      1.1072915E-33
   4.650000      2.5419013E-33
   4.660000      4.0823185E-33
   4.670000      5.7280455E-33
   4.680000      7.4766363E-33
   4.690000      9.3262238E-33
   4.700000      1.1275018E-32
   4.710000      1.3319144E-32
   4.720000      1.5454098E-32
   4.730000      1.7673080E-32
   4.740000      1.9971211E-32
   4.750000      2.2343009E-32
   4.760000      2.4777387E-32
   4.770000      2.7267125E-32
   4.780000      2.9804839E-32
   4.790000      3.2379136E-32
   4.800000      3.4978130E-32
   4.810000      3.7588401E-32
   4.820000      4.0194128E-32
   4.830000      4.2779601E-32
   4.840000      4.5329525E-32
   4.850000      4.7826295E-32
   4.860000      5.0251067E-32
   4.870000      5.2583512E-32
   4.880000      5.4802387E-32
   4.890000      5.6885839E-32
   4.900000      5.8810682E-32
   4.910000      6.0552747E-32
   4.920000      6.2086555E-32
   4.930000      6.3385906E-32
   4.940000      6.4424067E-32
   4.950000      6.5173603E-32
   4.960000      6.5606679E-32
   4.970000      6.5694865E-32
   4.980000      6.5409437E-32
   4.990000      6.4721496E-32
   5.000000      6.3602226E-32
   5.010000      6.2023085E-32
   5.020000      5.9955543E-32
   5.030000      5.7371477E-32
   5.040000      5.4243381E-32
   5.050000      5.0544394E-32
   5.060000      4.6248803E-32
   5.070000      4.1332098E-32
   5.080000      3.5770610E-32
   5.090000      2.9542392E-32
   5.100000      2.2627633E-32
   5.110000      1.5007792E-32
   5.120000      6.6671843E-33
   5.130000     -2.4080432E-33
   5.140000     -1.2229558E-32
   5.150000     -2.2805040E-32
   5.160000     -3.4139368E-32
   5.170000     -4.6233927E-32
   5.180000     -5.9086247E-32
   5.190000     -7.2689949E-32
   5.200000     -8.7034254E-32
   5.210000     -1.0210365E-31
   5.220000     -1.1787803E-31
   5.230000     -1.3433113E-31
   5.240000     -1.5143207E-31
   5.250000     -1.6914480E-31
   5.260000     -1.8742620E-31
   5.270000     -2.0622727E-31
   5.280000     -2.2549297E-31
   5.290000     -2.4516174E-31
   5.300000     -2.6516489E-31
   5.310000     -2.8542707E-31
   5.320000     -3.0586600E-31
   5.330000     -3.2639232E-31
   5.340000     -3.4690952E-31
   5.350000     -3.6731361E-31
   5.360000     -3.8749304E-31
   5.370000     -4.0733080E-31
   5.380000     -4.2670215E-31
   5.390000     -4.4547376E-31
   5.400000     -4.6350622E-31
   5.410000     -4.8065320E-31
   5.420000     -4.9676137E-31
   5.430000     -5.1167092E-31
   5.440000     -5.2521539E-31
   5.450000     -5.3722231E-31
   5.460000     -5.4751320E-31
   5.470000     -5.5590426E-31
   5.480000     -5.6220627E-31
   5.490000     -5.6622575E-31
   5.500000     -5.6776509E-31
   5.510000     -5.6662265E-31
   5.520000     -5.6259409E-31
   5.530000     -5.5547299E-31
   5.540000     -5.4505157E-31
   5.550000     -5.3112150E-31
   5.560000     -5.1347488E-31
   5.570000     -4.9190531E-31
   5.580000     -4.6620901E-31
   5.590000     -4.3618575E-31
   5.600000     -4.0164032E-31
   5.610000     -3.6238366E-31
   5.620000     -3.1823406E-31
   5.630000     -2.6901868E-31
   5.640000     -2.1457526E-31
   5.650000     -1.5475230E-31
   5.660000     -8.9411409E-32
   5.670000     -1.8429559E-32
   5.680000      5.8300711E-32
   5.690000      1.4086926E-31
   5.700000      2.2934685E-31
   5.710000      3.2378336E-31
   5.720000      4.2420662E-31
   5.730000      5.3062045E-31
   5.740000      6.4300307E-31
   5.750000      7.6130544E-31
   5.760000      8.8544940E-31
   5.770000      1.0153263E-30
   5.780000      1.1507947E-30
   5.790000      1.2916793E-30
   5.800000      1.4377688E-30
   5.810000      1.5888136E-30
   5.820000      1.7445243E-30
   5.830000      1.9045707E-30
   5.840000      2.0685791E-30
   5.850000      2.2361305E-30
   5.860000      2.4067590E-30
   5.870000      2.5799507E-30
   5.880000      2.7551419E-30
   5.890000      2.9317175E-30
   5.900000      3.1090095E-30
   5.910000      3.2862963E-30
   5.920000      3.4628014E-30
   5.930000      3.6376938E-30
   5.940000      3.8100864E-30
   5.950000      3.9790352E-30
   5.960000      4.1435401E-30
   5.970000      4.3025448E-30
   5.980000      4.4549374E-30
   5.990000      4.5995503E-30
   6.000000      4.7351617E-30
   6.010000      4.8604972E-30
   6.020000      4.9742309E-30
   6.030000      5.0749868E-30
   6.040000      5.1613399E-30
   6.050000      5.2318214E-30
   6.060000      5.2849177E-30
   6.070000      5.3190770E-30
   6.080000      5.3327089E-30
   6.090000      5.3241904E-30
   6.100000      5.2918679E-30
   6.110000      5.2340633E-30
   6.120000      5.1490768E-30
   6.130000      5.0351945E-30
   6.140000      4.8906903E-30
   6.150000      4.7138350E-30
   6.160000      4.5029006E-30
   6.170000      4.2561698E-30
   6.180000      3.9719416E-30
   6.190000      3.6485400E-30
   6.200000      3.2843233E-30
   6.210000      2.8776935E-30
   6.220000      2.4271064E-30
   6.230000      1.9310818E-30
   6.240000      1.3882159E-30
   6.250000      7.9719290E-31
   6.260000      1.5679661E-31
   6.270000     -5.3407598E-31
   6.280000     -1.2764008E-30
   6.290000     -2.0710121E-30
   6.300000     -2.9185898E-30
   6.310000     -3.8196408E-30
   6.320000     -4.7744875E-30
   6.330000     -5.7832543E-30
   6.340000     -6.8458466E-30
   6.350000     -7.9619381E-30
   6.360000     -9.1309527E-30
   6.370000     -1.0352052E-29
   6.380000     -1.1624117E-29
   6.390000     -1.2945731E-29
   6.400000     -1.4315168E-29
   6.410000     -1.5730370E-29
   6.420000     -1.7188935E-29
   6.430000     -1.8688105E-29
   6.440000     -2.0224744E-29
   6.450000     -2.1795326E-29
   6.460000     -2.3395922E-29
   6.470000     -2.5022181E-29
   6.480000     -2.6669321E-29
   6.490000     -2.8332112E-29
   6.500000     -3.0004866E-29
   6.510000     -3.1681421E-29
   6.520000     -3.3355136E-29
   6.530000     -3.5018868E-29
   6.540000     -3.6664985E-29
   6.550000     -3.8285345E-29
   6.560000     -3.9871288E-29
   6.570000     -4.1413645E-29
   6.580000     -4.2902723E-29
   6.590000     -4.4328317E-29
   6.600000     -4.5679706E-29
   6.610000     -4.6945668E-29
   6.620000     -4.8114476E-29
   6.630000     -4.9173915E-29
   6.640000     -5.0111301E-29
   6.650000     -5.0913493E-29
   6.660000     -5.1566919E-29
   6.670000     -5.2057604E-29
   6.680000     -5.2371181E-29
   6.690000     -5.2492960E-29
   6.700000     -5.2407912E-29
   6.710000     -5.2100756E-29
   6.720000     -5.1555977E-29
   6.730000     -5.0757872E-29
   6.740000     -4.9690630E-29
   6.750000     -4.8338344E-29
   6.760000     -4.6685111E-29
   6.770000     -4.4715065E-29
   6.780000     -4.2412459E-29
   6.790000     -3.9761739E-29
   6.800000     -3.6747610E-29
   6.810000     -3.3355142E-29
   6.820000     -2.9569814E-29
   6.830000     -2.5377639E-29
   6.840000     -2.0765246E-29
   6.850000     -1.5719973E-29
   6.860000     -1.0229975E-29
   6.870000     -4.2843323E-30
   6.880000      2.1268334E-30
   6.890000      9.0122545E-30
   6.900000      1.6379402E-29
   6.910000      2.4234332E-29
   6.920000      3.2581571E-29
   6.930000      4.1424006E-29
   6.940000      5.0762723E-29
   6.950000      6.0596876E-29
   6.960000      7.0923562E-29
   6.970000      8.1737646E-29
   6.980000      9.3031679E-29
   6.990000      1.0479571E-28
   7.000000      1.1701712E-28
   7.010000      1.2968057E-28
   7.020000      1.4276777E-28
   7.030000      1.5625739E-28
   7.040000      1.7012492E-28
   7.050000      1.8434252E-28
   7.060000      1.9887894E-28