  -2.600000      0.0000000E+00
  -2.590000      0.0000000E+00
  -2.580000      0.0000000E+00
  -2.570000      0.0000000E+00
  -2.560000      0.0000000E+00
  -2.550000      0.0000000E+00
  -2.540000      0.0000000E+00
  -2.530000      0.0000000E+00
  -2.520000      0.0000000E+00
  -2.510000      0.0000000E+00
  -2.500000      0.0000000E+00
  -2.490000      0.0000000E+00
  -2.480000      0.0000000E+00
  -2.470000      0.0000000E+00
  -2.460000      0.0000000E+00
  -2.450000      0.0000000E+00
  -2.440000      0.0000000E+00
  -2.430000      0.0000000E+00
  -2.420000      0.0000000E+00
  -2.410000      0.0000000E+00
  -2.400000      0.0000000E+00
  -2.390000      0.0000000E+00
  -2.380000      0.0000000E+00
  -2.370000      0.0000000E+00
  -2.360000      0.0000000E+00
  -2.350000      0.0000000E+00
  -2.340000      0.0000000E+00
  -2.330000      0.0000000E+00
  -2.320000      0.0000000E+00
  -2.310000      0.0000000E+00
  -2.300000      0.0000000E+00
  -2.290000      0.0000000E+00
  -2.280000      0.0000000E+00
  -2.270000      0.0000000E+00
  -2.260000      0.0000000E+00
  -2.250000      0.0000000E+00
  -2.240000      0.0000000E+00
  -2.230000      0.0000000E+00
  -2.220000      0.0000000E+00
  -2.210000      0.0000000E+00
  -2.200000      0.0000000E+00
  -2.190000      0.0000000E+00
  -2.180000      0.0000000E+00
  -2.170000      0.0000000E+00
  -2.160000      0.0000000E+00
  -2.150000      0.0000000E+00
  -2.140000      0.0000000E+00
  -2.130000      0.0000000E+00
  -2.120000      0.0000000E+00
  -2.110000      0.0000000E+00
  -2.100000      0.0000000E+00
  -2.090000      0.0000000E+00
  -2.080000      0.0000000E+00
  -2.070000      0.0000000E+00
  -2.060000      0.0000000E+00
  -2.050000      0.0000000E+00
  -2.040000      0.0000000E+00
  -2.030000      0.0000000E+00
  -2.020000      0.0000000E+00
  -2.010000      0.0000000E+00
  -2.000000      0.0000000E+00
  -1.990000      0.0000000E+00
  -1.980000      0.0000000E+00
  -1.970000      0.0000000E+00
  -1.960000      0.0000000E+00
  -1.950000      0.0000000E+00
  -1.940000      0.0000000E+00
  -1.930000      0.0000000E+00
  -1.920000      0.0000000E+00
  -1.910000      0.0000000E+00
  -1.900000      0.0000000E+00
  -1.890000      0.0000000E+00
  -1.880000      0.0000000E+00
  -1.870000      0.0000000E+00
  -1.860000      0.0000000E+00
  -1.850000      0.0000000E+00
  -1.840000      0.0000000E+00
  -1.830000      0.0000000E+00
  -1.820000      0.0000000E+00
  -1.810000      0.0000000E+00
  -1.800000      0.0000000E+00
  -1.790000      0.0000000E+00
  -1.780000      0.0000000E+00
  -1.770000      0.0000000E+00
  -1.760000      0.0000000E+00
  -1.750000      0.0000000E+00
  -1.740000      0.0000000E+00
  -1.730000      0.0000000E+00
  -1.720000      0.0000000E+00
  -1.710000      0.0000000E+00
  -1.700000      0.0000000E+00
  -1.690000      0.0000000E+00
  -1.680000      0.0000000E+00
  -1.670000      0.0000000E+00
  -1.660000      0.0000000E+00
  -1.650000      0.0000000E+00
  -1.640000      0.0000000E+00
  -1.630000      0.0000000E+00
  -1.620000      0.0000000E+00
  -1.610000      0.0000000E+00
  -1.600000      0.0000000E+00
  -1.590000      0.0000000E+00
  -1.580000      0.0000000E+00
  -1.570000      0.0000000E+00
  -1.560000      0.0000000E+00
  -1.550000      0.0000000E+00
  -1.540000      0.0000000E+00
  -1.530000      0.0000000E+00
  -1.520000      0.0000000E+00
  -1.510000      0.0000000E+00
  -1.500000      0.0000000E+00
  -1.490000      0.0000000E+00
  -1.480000      0.0000000E+00
  -1.470000      0.0000000E+00
  -1.460000      0.0000000E+00
  -1.450000      0.0000000E+00
  -1.440000      0.0000000E+00
  -1.430000      0.0000000E+00
  -1.420000      0.0000000E+00
  -1.410000      0.0000000E+00
  -1.400000      0.0000000E+00
  -1.390000      0.0000000E+00
  -1.380000      0.0000000E+00
  -1.370000      0.0000000E+00
  -1.360000      0.0000000E+00
  -1.350000      0.0000000E+00
  -1.340000      0.0000000E+00
  -1.330000      0.0000000E+00
  -1.320000      0.0000000E+00
  -1.310000      0.0000000E+00
  -1.300000      0.0000000E+00
  -1.290000      0.0000000E+00
  -1.280000      0.0000000E+00
  -1.270000      0.0000000E+00
  -1.260000      0.0000000E+00
  -1.250000      0.0000000E+00
  -1.240000      0.0000000E+00
  -1.230000      0.0000000E+00
  -1.220000      0.0000000E+00
  -1.210000      0.0000000E+00
  -1.200000      0.0000000E+00
  -1.190000      0.0000000E+00
  -1.180000      0.0000000E+00
  -1.170000      0.0000000E+00
  -1.160000      0.0000000E+00
  -1.150000      0.0000000E+00
  -1.140000      0.0000000E+00
  -1.130000      0.0000000E+00
  -1.120000      0.0000000E+00
  -1.110000      0.0000000E+00
  -1.100000      0.0000000E+00
  -1.090000      0.0000000E+00
  -1.080000      0.0000000E+00
  -1.070000      0.0000000E+00
  -1.060000      0.0000000E+00
  -1.050000      0.0000000E+00
  -1.040000      0.0000000E+00
  -1.030000      0.0000000E+00
  -1.020000      0.0000000E+00
  -1.010000      0.0000000E+00
  -1.000000      0.0000000E+00
 -0.9900000      0.0000000E+00
 -0.9800000      0.0000000E+00
 -0.9700000      0.0000000E+00
 -0.9600000      0.0000000E+00
 -0.9500000      0.0000000E+00
 -0.9400000      0.0000000E+00
 -0.9300000      0.0000000E+00
 -0.9200000      0.0000000E+00
 -0.9100000      0.0000000E+00
 -0.9000000      0.0000000E+00
 -0.8900000      0.0000000E+00
 -0.8800000      0.0000000E+00
 -0.8700000      0.0000000E+00
 -0.8600000      0.0000000E+00
 -0.8500000      0.0000000E+00
 -0.8400000      0.0000000E+00
 -0.8300000      0.0000000E+00
 -0.8200000      0.0000000E+00
 -0.8100000      0.0000000E+00
 -0.8000000      0.0000000E+00
 -0.7900000      0.0000000E+00
 -0.7800000      0.0000000E+00
 -0.7700000      0.0000000E+00
 -0.7600000      0.0000000E+00
 -0.7500000      0.0000000E+00
 -0.7400000      0.0000000E+00
 -0.7300000      0.0000000E+00
 -0.7200000      0.0000000E+00
 -0.7100000      0.0000000E+00
 -0.7000000      0.0000000E+00
 -0.6900000      0.0000000E+00
 -0.6800000      0.0000000E+00
 -0.6700000      0.0000000E+00
 -0.6600000      0.0000000E+00
 -0.6500000      0.0000000E+00
 -0.6400000      0.0000000E+00
 -0.6300000      0.0000000E+00
 -0.6200000      0.0000000E+00
 -0.6100000      0.0000000E+00
 -0.6000000      0.0000000E+00
 -0.5900000      0.0000000E+00
 -0.5800000      0.0000000E+00
 -0.5700000      0.0000000E+00
 -0.5600000      0.0000000E+00
 -0.5500000      0.0000000E+00
 -0.5400000      0.0000000E+00
 -0.5300000      0.0000000E+00
 -0.5200000      0.0000000E+00
 -0.5100000      0.0000000E+00
 -0.5000000      0.0000000E+00
 -0.4900000      0.0000000E+00
 -0.4800000      0.0000000E+00
 -0.4700000      0.0000000E+00
 -0.4600000      0.0000000E+00
 -0.4500000      0.0000000E+00
 -0.4400000      0.0000000E+00
 -0.4300000      0.0000000E+00
 -0.4200000      0.0000000E+00
 -0.4100000      0.0000000E+00
 -0.4000000      0.0000000E+00
 -0.3900000      0.0000000E+00
 -0.3800000      0.0000000E+00
 -0.3700000      0.0000000E+00
 -0.3600000      0.0000000E+00
 -0.3500000      0.0000000E+00
 -0.3400000      0.0000000E+00
 -0.3300000      0.0000000E+00
 -0.3200000      0.0000000E+00
 -0.3100000      0.0000000E+00
 -0.3000000      0.0000000E+00
 -0.2900000      0.0000000E+00
 -0.2800000      0.0000000E+00
 -0.2700000      0.0000000E+00
 -0.2600000      0.0000000E+00
 -0.2500000      0.0000000E+00
 -0.2400000      0.0000000E+00
 -0.2300000      0.0000000E+00
 -0.2200000      0.0000000E+00
 -0.2100000      0.0000000E+00
 -0.2000000      0.0000000E+00
 -0.1900000      0.0000000E+00
 -0.1800000      0.0000000E+00
 -0.1700000      0.0000000E+00
 -0.1600000      0.0000000E+00
 -0.1500000      0.0000000E+00
 -0.1400000      0.0000000E+00
 -0.1300000      0.0000000E+00
 -0.1200000      0.0000000E+00
 -0.1100000      0.0000000E+00
 -0.1000000      0.0000000E+00
 -9.0000004E-02  0.0000000E+00
 -7.9999998E-02  0.0000000E+00
 -7.0000000E-02  0.0000000E+00
 -5.9999999E-02  0.0000000E+00
 -5.0000001E-02  0.0000000E+00
 -3.9999999E-02  0.0000000E+00
 -2.9999999E-02  0.0000000E+00
 -2.0000000E-02  0.0000000E+00
 -9.9999998E-03  0.0000000E+00
 -3.4694470E-17  0.0000000E+00
  9.9999998E-03  0.0000000E+00
  2.0000000E-02  0.0000000E+00
  2.9999999E-02  0.0000000E+00
  3.9999999E-02  0.0000000E+00
  5.0000001E-02  0.0000000E+00
  5.9999999E-02  0.0000000E+00
  7.0000000E-02  0.0000000E+00
  7.9999998E-02  0.0000000E+00
  9.0000004E-02  0.0000000E+00
  0.1000000      0.0000000E+00
  0.1100000      0.0000000E+00
  0.1200000      0.0000000E+00
  0.1300000      0.0000000E+00
  0.1400000      0.0000000E+00
  0.1500000      0.0000000E+00
  0.1600000      0.0000000E+00
  0.1700000      0.0000000E+00
  0.1800000      0.0000000E+00
  0.1900000      0.0000000E+00
  0.2000000      0.0000000E+00
  0.2100000      0.0000000E+00
  0.2200000      0.0000000E+00
  0.2300000      0.0000000E+00
  0.2400000      0.0000000E+00
  0.2500000      0.0000000E+00
  0.2600000      0.0000000E+00
  0.2700000      0.0000000E+00
  0.2800000      0.0000000E+00
  0.2900000      0.0000000E+00
  0.3000000      0.0000000E+00
  0.3100000      0.0000000E+00
  0.3200000      0.0000000E+00
  0.3300000      0.0000000E+00
  0.3400000      0.0000000E+00
  0.3500000      0.0000000E+00
  0.3600000      0.0000000E+00
  0.3700000      0.0000000E+00
  0.3800000      0.0000000E+00
  0.3900000      0.0000000E+00
  0.4000000      0.0000000E+00
  0.4100000      0.0000000E+00
  0.4200000      0.0000000E+00
  0.4300000      0.0000000E+00
  0.4400000      0.0000000E+00
  0.4500000      0.0000000E+00
  0.4600000      0.0000000E+00
  0.4700000      0.0000000E+00
  0.4800000      0.0000000E+00
  0.4900000      0.0000000E+00
  0.5000000      0.0000000E+00
  0.5100000      0.0000000E+00
  0.5200000      0.0000000E+00
  0.5300000      0.0000000E+00
  0.5400000      0.0000000E+00
  0.5500000      0.0000000E+00
  0.5600000      0.0000000E+00
  0.5700000      0.0000000E+00
  0.5800000      0.0000000E+00
  0.5900000      0.0000000E+00
  0.6000000      0.0000000E+00
  0.6100000      0.0000000E+00
  0.6200000      0.0000000E+00
  0.6300000      0.0000000E+00
  0.6400000      0.0000000E+00
  0.6500000      0.0000000E+00
  0.6600000      0.0000000E+00
  0.6700000      0.0000000E+00
  0.6800000      0.0000000E+00
  0.6900000      0.0000000E+00
  0.7000000      0.0000000E+00
  0.7100000      0.0000000E+00
  0.7200000      0.0000000E+00
  0.7300000      0.0000000E+00
  0.7400000      0.0000000E+00
  0.7500000      0.0000000E+00
  0.7600000      0.0000000E+00
  0.7700000      0.0000000E+00
  0.7800000      0.0000000E+00
  0.7900000      0.0000000E+00
  0.8000000      0.0000000E+00
  0.8100000      0.0000000E+00
  0.8200000      0.0000000E+00
  0.8300000      0.0000000E+00
  0.8400000      0.0000000E+00
  0.8500000      0.0000000E+00
  0.8600000      0.0000000E+00
  0.8700000      0.0000000E+00
  0.8800000      0.0000000E+00
  0.8900000      0.0000000E+00
  0.9000000      0.0000000E+00
  0.9100000      0.0000000E+00
  0.9200000      0.0000000E+00
  0.9300000      0.0000000E+00
  0.9400000      0.0000000E+00
  0.9500000      0.0000000E+00
  0.9600000      0.0000000E+00
  0.9700000      0.0000000E+00
  0.9800000      0.0000000E+00
  0.9900000      0.0000000E+00
   1.000000      0.0000000E+00
   1.010000      0.0000000E+00
   1.020000      0.0000000E+00
   1.030000      0.0000000E+00
   1.040000      0.0000000E+00
   1.050000      0.0000000E+00
   1.060000      0.0000000E+00
   1.070000      0.0000000E+00
   1.080000      0.0000000E+00
   1.090000      0.0000000E+00
   1.100000      0.0000000E+00
   1.110000      0.0000000E+00
   1.120000      0.0000000E+00
   1.130000      0.0000000E+00
   1.140000      0.0000000E+00
   1.150000      0.0000000E+00
   1.160000      0.0000000E+00
   1.170000      0.0000000E+00
   1.180000      0.0000000E+00
   1.190000      0.0000000E+00
   1.200000      0.0000000E+00
   1.210000      0.0000000E+00
   1.220000      0.0000000E+00
   1.230000      0.0000000E+00
   1.240000      0.0000000E+00
   1.250000      0.0000000E+00
   1.260000      0.0000000E+00
   1.270000      0.0000000E+00
   1.280000      0.0000000E+00
   1.290000      0.0000000E+00
   1.300000      0.0000000E+00
   1.310000      0.0000000E+00
   1.320000      0.0000000E+00
   1.330000      0.0000000E+00
   1.340000      0.0000000E+00
   1.350000      0.0000000E+00
   1.360000      0.0000000E+00
   1.370000      0.0000000E+00
   1.380000      0.0000000E+00
   1.390000      0.0000000E+00
   1.400000      0.0000000E+00
   1.410000      0.0000000E+00
   1.420000      0.0000000E+00
   1.430000      0.0000000E+00
   1.440000      0.0000000E+00
   1.450000      0.0000000E+00
   1.460000      0.0000000E+00
   1.470000      0.0000000E+00
   1.480000      0.0000000E+00
   1.490000      0.0000000E+00
   1.500000      0.0000000E+00
   1.510000      0.0000000E+00
   1.520000      0.0000000E+00
   1.530000      0.0000000E+00
   1.540000      0.0000000E+00
   1.550000      0.0000000E+00
   1.560000      0.0000000E+00
   1.570000      0.0000000E+00
   1.580000      0.0000000E+00
   1.590000      0.0000000E+00
   1.600000      0.0000000E+00
   1.610000      0.0000000E+00
   1.620000      0.0000000E+00
   1.630000      0.0000000E+00
   1.640000      0.0000000E+00
   1.650000      0.0000000E+00
   1.660000      0.0000000E+00
   1.670000      0.0000000E+00
   1.680000      0.0000000E+00
   1.690000      0.0000000E+00
   1.700000      0.0000000E+00
   1.710000      0.0000000E+00
   1.720000      0.0000000E+00
   1.730000      0.0000000E+00
   1.740000      0.0000000E+00
   1.750000      0.0000000E+00
   1.760000      0.0000000E+00
   1.770000      0.0000000E+00
   1.780000      0.0000000E+00
   1.790000      0.0000000E+00
   1.800000      0.0000000E+00
   1.810000      0.0000000E+00
   1.820000      0.0000000E+00
   1.830000      0.0000000E+00
   1.840000      0.0000000E+00
   1.850000      0.0000000E+00
   1.860000      0.0000000E+00
   1.870000      0.0000000E+00
   1.880000      0.0000000E+00
   1.890000      0.0000000E+00
   1.900000      0.0000000E+00
   1.910000      0.0000000E+00
   1.920000      0.0000000E+00
   1.930000      0.0000000E+00
   1.940000      0.0000000E+00
   1.950000      0.0000000E+00
   1.960000      0.0000000E+00
   1.970000      0.0000000E+00
   1.980000      0.0000000E+00
   1.990000      0.0000000E+00
   2.000000      0.0000000E+00
   2.010000      0.0000000E+00
   2.020000      0.0000000E+00
   2.030000      0.0000000E+00
   2.040000      0.0000000E+00
   2.050000      0.0000000E+00
   2.060000      0.0000000E+00
   2.070000      0.0000000E+00
   2.080000      0.0000000E+00
   2.090000      0.0000000E+00
   2.100000      0.0000000E+00
   2.110000      0.0000000E+00
   2.120000      0.0000000E+00
   2.130000      0.0000000E+00
   2.140000      0.0000000E+00
   2.150000      0.0000000E+00
   2.160000      0.0000000E+00
   2.170000      0.0000000E+00
   2.180000      0.0000000E+00
   2.190000      1.3528268E-38
   2.200000      1.5534468E-38
   2.210000      1.7394976E-38
   2.220000      1.8991421E-38
   2.230000      2.0201798E-38
   2.240000      2.0695193E-38
   2.250000      2.1163173E-38
   2.260000      2.2409649E-38
   2.270000      2.4037254E-38
   2.280000      2.5828859E-38
   2.290000      2.7835878E-38
   2.300000      3.0113346E-38
   2.310000      3.2706399E-38
   2.320000      3.5638641E-38
   2.330000      3.8917228E-38
   2.340000      4.2537956E-38
   2.350000      4.6482690E-38
   2.360000      5.0720104E-38
   2.370000      5.3579420E-38
   2.380000      5.5420934E-38
   2.390000      5.7975148E-38
   2.400000      6.2481914E-38
   2.410000      6.8421957E-38
   2.420000      7.4201411E-38
   2.430000      8.0212684E-38
   2.440000      8.6333785E-38
   2.450000      9.2410993E-38
   2.460000      9.5371062E-38
   2.470000      9.4142482E-38
   2.480000      9.0571575E-38
   2.490000      8.4804655E-38
   2.500000      7.5556668E-38
   2.510000      6.2416406E-38
   2.520000      4.7690693E-38
   2.530000      3.1175811E-38
   2.540000      0.0000000E+00
   2.550000      2.3612681E-38
   2.560000      6.8454467E-38
   2.570000      1.6873150E-37
   2.580000      3.3584006E-37
   2.590000      5.1157282E-37
   2.600000      6.9357489E-37
   2.610000      8.9443890E-37
   2.620000      1.1165819E-36
   2.630000      1.1252413E-36
   2.640000      8.5566907E-37
   2.650000      4.8944463E-37
   2.660000      5.5437800E-38
   2.670000     -4.0577348E-37
   2.680000     -8.5576423E-37
   2.690000     -1.2351951E-36
   2.700000     -1.5482021E-36
   2.710000     -1.7936669E-36
   2.720000     -1.7162113E-36
   2.730000     -1.3751794E-36
   2.740000     -1.0358313E-36
   2.750000     -1.0130178E-36
   2.760000     -1.3962528E-36
   2.770000     -1.9219987E-36
   2.780000     -2.4822351E-36
   2.790000     -3.1021267E-36
   2.800000     -3.8449617E-36
   2.810000     -4.6118592E-36
   2.820000     -5.3438218E-36
   2.830000     -5.4717594E-36
   2.840000     -5.0600766E-36
   2.850000     -4.7067636E-36
   2.860000     -4.3989848E-36
   2.870000     -4.4060146E-36
   2.880000     -4.9876471E-36
   2.890000     -5.8801447E-36
   2.900000     -6.9343182E-36
   2.910000     -8.2231720E-36
   2.920000     -9.6165138E-36
   2.930000     -1.0755000E-35
   2.940000     -1.1607654E-35
   2.950000     -1.2039130E-35
   2.960000     -1.0913809E-35
   2.970000     -8.3192033E-36
   2.980000     -5.2281159E-36
   2.990000     -1.9731439E-36
   3.000000      5.4457256E-37
   3.010000      2.4201096E-36
   3.020000      4.3790106E-36
   3.030000      6.3276400E-36
   3.040000      8.2107391E-36
   3.050000      9.9351313E-36
   3.060000      1.1429956E-35
   3.070000      1.2818294E-35
   3.080000      1.4006345E-35
   3.090000      1.4889306E-35
   3.100000      1.5661770E-35
   3.110000      1.6492292E-35
   3.120000      1.7700795E-35
   3.130000      1.9385896E-35
   3.140000      2.1475531E-35
   3.150000      2.4213496E-35
   3.160000      2.8761064E-35
   3.170000      3.4754765E-35
   3.180000      4.1196109E-35
   3.190000      4.8591642E-35
   3.200000      5.6560805E-35
   3.210000      6.4872164E-35
   3.220000      7.2977249E-35
   3.230000      7.5227948E-35
   3.240000      7.1172360E-35
   3.250000      6.5213321E-35
   3.260000      5.7790230E-35
   3.270000      4.9310151E-35
   3.280000      4.0564261E-35
   3.290000      3.2681636E-35
   3.300000      3.1650759E-35
   3.310000      3.6416531E-35
   3.320000      4.0832234E-35
   3.330000      4.5112207E-35
   3.340000      4.9256818E-35
   3.350000      5.3376053E-35
   3.360000      4.9617255E-35
   3.370000      3.5581611E-35
   3.380000      1.7964824E-35
   3.390000     -8.2738932E-36
   3.400000     -3.6813263E-35
   3.410000     -6.0448948E-35
   3.420000     -8.3083987E-35
   3.430000     -1.0449937E-34
   3.440000     -1.1985753E-34
   3.450000     -1.3071460E-34
   3.460000     -1.4369392E-34
   3.470000     -1.5633880E-34
   3.480000     -1.6436476E-34
   3.490000     -1.6748210E-34
   3.500000     -1.7113246E-34
   3.510000     -1.8553652E-34
   3.520000     -2.0993516E-34
   3.530000     -2.3514504E-34
   3.540000     -2.5574246E-34
   3.550000     -2.6316299E-34
   3.560000     -2.6048877E-34
   3.570000     -2.5763080E-34
   3.580000     -2.5635222E-34
   3.590000     -2.5690872E-34
   3.600000     -2.5926063E-34
   3.610000     -2.6104318E-34
   3.620000     -2.5870045E-34
   3.630000     -2.5339920E-34
   3.640000     -2.4787390E-34
   3.650000     -2.4027433E-34
   3.660000     -2.2963415E-34
   3.670000     -2.1617249E-34
   3.680000     -1.9899425E-34
   3.690000     -1.7787746E-34
   3.700000     -1.5297166E-34
   3.710000     -1.2573820E-34
   3.720000     -9.5831930E-35
   3.730000     -6.0230655E-35
   3.740000     -1.7767606E-35
   3.750000      2.9791960E-35
   3.760000      7.7917006E-35
   3.770000      1.2537003E-34
   3.780000      1.7338619E-34
   3.790000      2.2181347E-34
   3.800000      2.7341450E-34
   3.810000      3.2943718E-34
   3.820000      3.8679834E-34
   3.830000      4.4494445E-34
   3.840000      4.9998592E-34
   3.850000      5.5884388E-34
   3.860000      6.3351280E-34
   3.870000      7.2502535E-34
   3.880000      8.1446927E-34
   3.890000      8.9158170E-34
   3.900000      9.6359111E-34
   3.910000      1.0281337E-33
   3.920000      1.0858306E-33
   3.930000      1.1345012E-33
   3.940000      1.1793752E-33
   3.950000      1.2278528E-33
   3.960000      1.2738711E-33
   3.970000      1.3133564E-33
   3.980000      1.3548822E-33
   3.990000      1.3980081E-33
   4.000000      1.4353482E-33
   4.010000      1.4652182E-33
   4.020000      1.4854185E-33
   4.030000      1.4948372E-33
   4.040000      1.4893651E-33
   4.050000      1.4663591E-33
   4.060000      1.4265416E-33
   4.070000      1.3709365E-33
   4.080000      1.2992475E-33
   4.090000      1.2086439E-33
   4.100000      1.0995165E-33
   4.110000      9.7722005E-34
   4.120000      8.4795102E-34
   4.130000      7.0971087E-34
   4.140000      5.5917761E-34
   4.150000      3.9769807E-34
   4.160000      2.2147918E-34
   4.170000      2.6031113E-35
   4.180000     -1.9352338E-34
   4.190000     -4.3365791E-34
   4.200000     -6.8981783E-34
   4.210000     -9.7265610E-34
   4.220000     -1.2829491E-33
   4.230000     -1.6129105E-33
   4.240000     -1.9633061E-33
   4.250000     -2.3306999E-33
   4.260000     -2.7086380E-33
   4.270000     -3.0970041E-33
   4.280000     -3.4950610E-33
   4.290000     -3.9020462E-33
   4.300000     -4.3158117E-33
   4.310000     -4.7363026E-33
   4.320000     -5.1628803E-33
   4.330000     -5.5877939E-33
   4.340000     -6.0088119E-33
   4.350000     -6.4313375E-33
   4.360000     -6.8551488E-33
   4.370000     -7.2807835E-33
   4.380000     -7.7088464E-33
   4.390000     -8.1333306E-33
   4.400000     -8.5493734E-33
   4.410000     -8.9504682E-33
   4.420000     -9.3293668E-33
   4.430000     -9.6784952E-33
   4.440000     -9.9900908E-33
   4.450000     -1.0256887E-32
   4.460000     -1.0473151E-32
   4.470000     -1.0633185E-32
   4.480000     -1.0732220E-32
   4.490000     -1.0768304E-32
   4.500000     -1.0738902E-32
   4.510000     -1.0641930E-32
   4.520000     -1.0476848E-32
   4.530000     -1.0239959E-32
   4.540000     -9.9263217E-33
   4.550000     -9.5295057E-33
   4.560000     -9.0424940E-33
   4.570000     -8.4587942E-33
   4.580000     -7.7722452E-33
   4.590000     -6.9764135E-33
   4.600000     -6.0650178E-33
   4.610000     -5.0309828E-33
   4.620000     -3.8683844E-33
   4.630000     -2.5721646E-33
   4.640000     -1.1387516E-33
   4.650000      4.2848000E-34
   4.660000      2.1261203E-33
   4.670000      3.9523904E-33
   4.680000      5.9102838E-33
   4.690000      7.9983200E-33
   4.700000      1.0211314E-32
   4.710000      1.2547025E-32
   4.720000      1.5002050E-32
   4.730000      1.7573718E-32
   4.740000      2.0258036E-32
   4.750000      2.3051578E-32
   4.760000      2.5950545E-32
   4.770000      2.8947847E-32
   4.780000      3.2037285E-32
   4.790000      3.5211122E-32
   4.800000      3.8455713E-32
   4.810000      4.1759901E-32
   4.820000      4.5110524E-32
   4.830000      4.8489027E-32
   4.840000      5.1876035E-32
   4.850000      5.5251062E-32
   4.860000      5.8591370E-32
   4.870000      6.1873462E-32
   4.880000      6.5074115E-32
   4.890000      6.8169110E-32
   4.900000      7.1133313E-32
   4.910000      7.3941163E-32
   4.920000      7.6566524E-32
   4.930000      7.8982500E-32
   4.940000      8.1161384E-32
   4.950000      8.3074125E-32
   4.960000      8.4690077E-32
   4.970000      8.5977373E-32
   4.980000      8.6902276E-32
   4.990000      8.7429520E-32
   5.000000      8.7523371E-32
   5.010000      8.7147066E-32
   5.020000      8.6262683E-32
   5.030000      8.4831960E-32
   5.040000      8.2817556E-32
   5.050000      8.0183708E-32
   5.060000      7.6895480E-32
   5.070000      7.2919188E-32
   5.080000      6.8222554E-32
   5.090000      6.2774725E-32
   5.100000      5.6545645E-32
   5.110000      4.9510076E-32
   5.120000      4.1641588E-32
   5.130000      3.2913301E-32
   5.140000      2.3302849E-32
   5.150000      1.2788880E-32
   5.160000      1.3527978E-33
   5.170000     -1.1022901E-32
   5.180000     -2.4352790E-32
   5.190000     -3.8647959E-32
   5.200000     -5.3915959E-32
   5.210000     -7.0158975E-32
   5.220000     -8.7373796E-32
   5.230000     -1.0555189E-31
   5.240000     -1.2467836E-31
   5.250000     -1.4473157E-31
   5.260000     -1.6568308E-31
   5.270000     -1.8749736E-31
   5.280000     -2.1013168E-31
   5.290000     -2.3353624E-31
   5.300000     -2.5765397E-31
   5.310000     -2.8242053E-31
   5.320000     -3.0776422E-31
   5.330000     -3.3360567E-31
   5.340000     -3.5985780E-31
   5.350000     -3.8642538E-31
   5.360000     -4.1320474E-31
   5.370000     -4.4008308E-31
   5.380000     -4.6693894E-31
   5.390000     -4.9364105E-31
   5.400000     -5.2004829E-31
   5.410000     -5.4601007E-31
   5.420000     -5.7136577E-31
   5.430000     -5.9594507E-31
   5.440000     -6.1956832E-31
   5.450000     -6.4204683E-31
   5.460000     -6.6318288E-31
   5.470000     -6.8277033E-31
   5.480000     -7.0059501E-31
   5.490000     -7.1643517E-31
   5.500000     -7.3006178E-31
   5.510000     -7.4123857E-31
   5.520000     -7.4972263E-31
   5.530000     -7.5526481E-31
   5.540000     -7.5760978E-31
   5.550000     -7.5649677E-31
   5.560000     -7.5165999E-31
   5.570000     -7.4282958E-31
   5.580000     -7.2973119E-31
   5.590000     -7.1208838E-31
   5.600000     -6.8962389E-31
   5.610000     -6.6206019E-31
   5.620000     -6.2912213E-31
   5.630000     -5.9053733E-31
   5.640000     -5.4603955E-31
   5.650000     -4.9536987E-31
   5.660000     -4.3827724E-31
   5.670000     -3.7452320E-31
   5.680000     -3.0387942E-31
   5.690000     -2.2613234E-31
   5.700000     -1.4108753E-31
   5.710000     -4.8567838E-32
   5.720000      5.1583355E-32
   5.730000      1.5950048E-31
   5.740000      2.7529391E-31
   5.750000      3.9904732E-31
   5.760000      5.3081592E-31
   5.770000      6.7062432E-31
   5.780000      8.1846380E-31
   5.790000      9.7428978E-31
   5.800000      1.1380196E-30
   5.810000      1.3095302E-30
   5.820000      1.4886551E-30
   5.830000      1.6751821E-30
   5.840000      1.8688508E-30
   5.850000      2.0693493E-30
   5.860000      2.2763121E-30
   5.870000      2.4893186E-30
   5.880000      2.7078893E-30
   5.890000      2.9314841E-30
   5.900000      3.1594997E-30
   5.910000      3.3912685E-30
   5.920000      3.6260548E-30
   5.930000      3.8630529E-30
   5.940000      4.1013874E-30
   5.950000      4.3401076E-30
   5.960000      4.5781901E-30
   5.970000      4.8145345E-30
   5.980000      5.0479628E-30
   5.990000      5.2772196E-30
   6.000000      5.5009713E-30
   6.010000      5.7178050E-30
   6.020000      5.9262313E-30
   6.030000      6.1246822E-30
   6.040000      6.3115139E-30
   6.050000      6.4850094E-30
   6.060000      6.6433780E-30
   6.070000      6.7847608E-30
   6.080000      6.9072341E-30
   6.090000      7.0088074E-30
   6.100000      7.0874327E-30
   6.110000      7.1410082E-30
   6.120000      7.1673799E-30
   6.130000      7.1643496E-30
   6.140000      7.1296791E-30
   6.150000      7.0610956E-30
   6.160000      6.9562972E-30
   6.170000      6.8129629E-30
   6.180000      6.6287545E-30
   6.190000      6.4013322E-30
   6.200000      6.1283554E-30
   6.210000      5.8074962E-30
   6.220000      5.4364477E-30
   6.230000      5.0129387E-30
   6.240000      4.5347409E-30
   6.250000      3.9996863E-30
   6.260000      3.4056753E-30
   6.270000      2.7506936E-30
   6.280000      2.0328283E-30
   6.290000      1.2502793E-30
   6.300000      4.0137871E-31
   6.310000     -5.1539221E-31
   6.320000     -1.5013851E-30
   6.330000     -2.5577666E-30
   6.340000     -3.6854987E-30
   6.350000     -4.8853210E-30
   6.360000     -6.1577326E-30
   6.370000     -7.5029664E-30
   6.380000     -8.9209699E-30
   6.390000     -1.0411388E-29
   6.400000     -1.1973540E-29
   6.410000     -1.3606394E-29
   6.420000     -1.5308551E-29
   6.430000     -1.7078220E-29
   6.440000     -1.8913199E-29
   6.450000     -2.0810853E-29
   6.460000     -2.2768088E-29
   6.470000     -2.4781336E-29
   6.480000     -2.6846543E-29
   6.490000     -2.8959128E-29
   6.500000     -3.1113976E-29
   6.510000     -3.3305423E-29
   6.520000     -3.5527229E-29
   6.530000     -3.7772563E-29
   6.540000     -4.0033975E-29
   6.550000     -4.2303403E-29
   6.560000     -4.4572137E-29
   6.570000     -4.6830810E-29
   6.580000     -4.9069397E-29
   6.590000     -5.1277187E-29
   6.600000     -5.3442780E-29
   6.610000     -5.5554081E-29
   6.620000     -5.7598293E-29
   6.630000     -5.9561923E-29
   6.640000     -6.1430786E-29
   6.650000     -6.3189978E-29
   6.660000     -6.4823925E-29
   6.670000     -6.6316364E-29
   6.680000     -6.7650402E-29
   6.690000     -6.8808469E-29
   6.700000     -6.9772397E-29
   6.710000     -7.0523432E-29
   6.720000     -7.1042271E-29
   6.730000     -7.1309079E-29
   6.740000     -7.1303572E-29
   6.750000     -7.1005017E-29
   6.760000     -7.0392360E-29
   6.770000     -6.9444231E-29
   6.780000     -6.8139016E-29
   6.790000     -6.6454935E-29
   6.800000     -6.4370110E-29
   6.810000     -6.1862657E-29
   6.820000     -5.8910772E-29
   6.830000     -5.5492813E-29
   6.840000     -5.1587436E-29
   6.850000     -4.7173674E-29
   6.860000     -4.2231061E-29
   6.870000     -3.6739741E-29
   6.880000     -3.0680597E-29
   6.890000     -2.4035416E-29
   6.900000     -1.6787013E-29
   6.910000     -8.9193547E-30
   6.920000     -4.1772795E-31
   6.930000      8.7310815E-30
   6.940000      1.8538671E-29
   6.950000      2.9014812E-29
   6.960000      4.0167270E-29
   6.970000      5.2001667E-29
   6.980000      6.4521247E-29
   6.990000      7.7726711E-29
   7.000000      9.1616012E-29
   7.010000      1.0618415E-28
   7.020000      1.2142301E-28
   7.030000      1.3732107E-28
   7.040000      1.5386331E-28
   7.050000      1.7103093E-28
   7.060000      1.8880122E-28