  -2.600000      0.0000000E+00
  -2.590000      0.0000000E+00
  -2.580000      0.0000000E+00
  -2.570000      0.0000000E+00
  -2.560000      0.0000000E+00
  -2.550000      0.0000000E+00
  -2.540000      0.0000000E+00
  -2.530000      0.0000000E+00
  -2.520000      0.0000000E+00
  -2.510000      0.0000000E+00
  -2.500000      0.0000000E+00
  -2.490000      0.0000000E+00
  -2.480000      0.0000000E+00
  -2.470000      0.0000000E+00
  -2.460000      0.0000000E+00
  -2.450000      0.0000000E+00
  -2.440000      0.0000000E+00
  -2.430000      0.0000000E+00
  -2.420000      0.0000000E+00
  -2.410000      0.0000000E+00
  -2.400000      0.0000000E+00
  -2.390000      0.0000000E+00
  -2.380000      0.0000000E+00
  -2.370000      0.0000000E+00
  -2.360000      0.0000000E+00
  -2.350000      0.0000000E+00
  -2.340000      0.0000000E+00
  -2.330000      0.0000000E+00
  -2.320000      0.0000000E+00
  -2.310000      0.0000000E+00
  -2.300000      0.0000000E+00
  -2.290000      0.0000000E+00
  -2.280000      0.0000000E+00
  -2.270000      0.0000000E+00
  -2.260000      0.0000000E+00
  -2.250000      0.0000000E+00
  -2.240000      0.0000000E+00
  -2.230000      0.0000000E+00
  -2.220000      0.0000000E+00
  -2.210000      0.0000000E+00
  -2.200000      0.0000000E+00
  -2.190000      0.0000000E+00
  -2.180000      0.0000000E+00
  -2.170000      0.0000000E+00
  -2.160000      0.0000000E+00
  -2.150000      0.0000000E+00
  -2.140000      0.0000000E+00
  -2.130000      0.0000000E+00
  -2.120000      0.0000000E+00
  -2.110000      0.0000000E+00
  -2.100000      0.0000000E+00
  -2.090000      0.0000000E+00
  -2.080000      0.0000000E+00
  -2.070000      0.0000000E+00
  -2.060000      0.0000000E+00
  -2.050000      0.0000000E+00
  -2.040000      0.0000000E+00
  -2.030000      0.0000000E+00
  -2.020000      0.0000000E+00
  -2.010000      0.0000000E+00
  -2.000000      0.0000000E+00
  -1.990000      0.0000000E+00
  -1.980000      0.0000000E+00
  -1.970000      0.0000000E+00
  -1.960000      0.0000000E+00
  -1.950000      0.0000000E+00
  -1.940000      0.0000000E+00
  -1.930000      0.0000000E+00
  -1.920000      0.0000000E+00
  -1.910000      0.0000000E+00
  -1.900000      0.0000000E+00
  -1.890000      0.0000000E+00
  -1.880000      0.0000000E+00
  -1.870000      0.0000000E+00
  -1.860000      0.0000000E+00
  -1.850000      0.0000000E+00
  -1.840000      0.0000000E+00
  -1.830000      0.0000000E+00
  -1.820000      0.0000000E+00
  -1.810000      0.0000000E+00
  -1.800000      0.0000000E+00
  -1.790000      0.0000000E+00
  -1.780000      0.0000000E+00
  -1.770000      0.0000000E+00
  -1.760000      0.0000000E+00
  -1.750000      0.0000000E+00
  -1.740000      0.0000000E+00
  -1.730000      0.0000000E+00
  -1.720000      0.0000000E+00
  -1.710000      0.0000000E+00
  -1.700000      0.0000000E+00
  -1.690000      0.0000000E+00
  -1.680000      0.0000000E+00
  -1.670000      0.0000000E+00
  -1.660000      0.0000000E+00
  -1.650000      0.0000000E+00
  -1.640000      0.0000000E+00
  -1.630000      0.0000000E+00
  -1.620000      0.0000000E+00
  -1.610000      0.0000000E+00
  -1.600000      0.0000000E+00
  -1.590000      0.0000000E+00
  -1.580000      0.0000000E+00
  -1.570000      0.0000000E+00
  -1.560000      0.0000000E+00
  -1.550000      0.0000000E+00
  -1.540000      0.0000000E+00
  -1.530000      0.0000000E+00
  -1.520000      0.0000000E+00
  -1.510000      0.0000000E+00
  -1.500000      0.0000000E+00
  -1.490000      0.0000000E+00
  -1.480000      0.0000000E+00
  -1.470000      0.0000000E+00
  -1.460000      0.0000000E+00
  -1.450000      0.0000000E+00
  -1.440000      0.0000000E+00
  -1.430000      0.0000000E+00
  -1.420000      0.0000000E+00
  -1.410000      0.0000000E+00
  -1.400000      0.0000000E+00
  -1.390000      0.0000000E+00
  -1.380000      0.0000000E+00
  -1.370000      0.0000000E+00
  -1.360000      0.0000000E+00
  -1.350000      0.0000000E+00
  -1.340000      0.0000000E+00
  -1.330000      0.0000000E+00
  -1.320000      0.0000000E+00
  -1.310000      0.0000000E+00
  -1.300000      0.0000000E+00
  -1.290000      0.0000000E+00
  -1.280000      0.0000000E+00
  -1.270000      0.0000000E+00
  -1.260000      0.0000000E+00
  -1.250000      0.0000000E+00
  -1.240000      0.0000000E+00
  -1.230000      0.0000000E+00
  -1.220000      0.0000000E+00
  -1.210000      0.0000000E+00
  -1.200000      0.0000000E+00
  -1.190000      0.0000000E+00
  -1.180000      0.0000000E+00
  -1.170000      0.0000000E+00
  -1.160000      0.0000000E+00
  -1.150000      0.0000000E+00
  -1.140000      0.0000000E+00
  -1.130000      0.0000000E+00
  -1.120000      0.0000000E+00
  -1.110000      0.0000000E+00
  -1.100000      0.0000000E+00
  -1.090000      0.0000000E+00
  -1.080000      0.0000000E+00
  -1.070000      0.0000000E+00
  -1.060000      0.0000000E+00
  -1.050000      0.0000000E+00
  -1.040000      0.0000000E+00
  -1.030000      0.0000000E+00
  -1.020000      0.0000000E+00
  -1.010000      0.0000000E+00
  -1.000000      0.0000000E+00
 -0.9900000      0.0000000E+00
 -0.9800000      0.0000000E+00
 -0.9700000      0.0000000E+00
 -0.9600000      0.0000000E+00
 -0.9500000      0.0000000E+00
 -0.9400000      0.0000000E+00
 -0.9300000      0.0000000E+00
 -0.9200000      0.0000000E+00
 -0.9100000      0.0000000E+00
 -0.9000000      0.0000000E+00
 -0.8900000      0.0000000E+00
 -0.8800000      0.0000000E+00
 -0.8700000      0.0000000E+00
 -0.8600000      0.0000000E+00
 -0.8500000      0.0000000E+00
 -0.8400000      0.0000000E+00
 -0.8300000      0.0000000E+00
 -0.8200000      0.0000000E+00
 -0.8100000      0.0000000E+00
 -0.8000000      0.0000000E+00
 -0.7900000      0.0000000E+00
 -0.7800000      0.0000000E+00
 -0.7700000      0.0000000E+00
 -0.7600000      0.0000000E+00
 -0.7500000      0.0000000E+00
 -0.7400000      0.0000000E+00
 -0.7300000      0.0000000E+00
 -0.7200000      0.0000000E+00
 -0.7100000      0.0000000E+00
 -0.7000000      0.0000000E+00
 -0.6900000      0.0000000E+00
 -0.6800000      0.0000000E+00
 -0.6700000      0.0000000E+00
 -0.6600000      0.0000000E+00
 -0.6500000      0.0000000E+00
 -0.6400000      0.0000000E+00
 -0.6300000      0.0000000E+00
 -0.6200000      0.0000000E+00
 -0.6100000      0.0000000E+00
 -0.6000000      0.0000000E+00
 -0.5900000      0.0000000E+00
 -0.5800000      0.0000000E+00
 -0.5700000      0.0000000E+00
 -0.5600000      0.0000000E+00
 -0.5500000      0.0000000E+00
 -0.5400000      0.0000000E+00
 -0.5300000      0.0000000E+00
 -0.5200000      0.0000000E+00
 -0.5100000      0.0000000E+00
 -0.5000000      0.0000000E+00
 -0.4900000      0.0000000E+00
 -0.4800000      0.0000000E+00
 -0.4700000      0.0000000E+00
 -0.4600000      0.0000000E+00
 -0.4500000      0.0000000E+00
 -0.4400000      0.0000000E+00
 -0.4300000      0.0000000E+00
 -0.4200000      0.0000000E+00
 -0.4100000      0.0000000E+00
 -0.4000000      0.0000000E+00
 -0.3900000      0.0000000E+00
 -0.3800000      0.0000000E+00
 -0.3700000      0.0000000E+00
 -0.3600000      0.0000000E+00
 -0.3500000      0.0000000E+00
 -0.3400000      0.0000000E+00
 -0.3300000      0.0000000E+00
 -0.3200000      0.0000000E+00
 -0.3100000      0.0000000E+00
 -0.3000000      0.0000000E+00
 -0.2900000      0.0000000E+00
 -0.2800000      0.0000000E+00
 -0.2700000      0.0000000E+00
 -0.2600000      0.0000000E+00
 -0.2500000      0.0000000E+00
 -0.2400000      0.0000000E+00
 -0.2300000      0.0000000E+00
 -0.2200000      0.0000000E+00
 -0.2100000      0.0000000E+00
 -0.2000000      0.0000000E+00
 -0.1900000      0.0000000E+00
 -0.1800000      0.0000000E+00
 -0.1700000      0.0000000E+00
 -0.1600000      0.0000000E+00
 -0.1500000      0.0000000E+00
 -0.1400000      0.0000000E+00
 -0.1300000      0.0000000E+00
 -0.1200000      0.0000000E+00
 -0.1100000      0.0000000E+00
 -0.1000000      0.0000000E+00
 -9.0000004E-02  0.0000000E+00
 -7.9999998E-02  0.0000000E+00
 -7.0000000E-02  0.0000000E+00
 -5.9999999E-02  0.0000000E+00
 -5.0000001E-02  0.0000000E+00
 -3.9999999E-02  0.0000000E+00
 -2.9999999E-02  0.0000000E+00
 -2.0000000E-02  0.0000000E+00
 -9.9999998E-03  0.0000000E+00
 -3.4694470E-17  0.0000000E+00
  9.9999998E-03  0.0000000E+00
  2.0000000E-02  0.0000000E+00
  2.9999999E-02  0.0000000E+00
  3.9999999E-02  0.0000000E+00
  5.0000001E-02  0.0000000E+00
  5.9999999E-02  0.0000000E+00
  7.0000000E-02  0.0000000E+00
  7.9999998E-02  0.0000000E+00
  9.0000004E-02  0.0000000E+00
  0.1000000      0.0000000E+00
  0.1100000      0.0000000E+00
  0.1200000      0.0000000E+00
  0.1300000      0.0000000E+00
  0.1400000      0.0000000E+00
  0.1500000      0.0000000E+00
  0.1600000      0.0000000E+00
  0.1700000      0.0000000E+00
  0.1800000      0.0000000E+00
  0.1900000      0.0000000E+00
  0.2000000      0.0000000E+00
  0.2100000      0.0000000E+00
  0.2200000      0.0000000E+00
  0.2300000      0.0000000E+00
  0.2400000      0.0000000E+00
  0.2500000      0.0000000E+00
  0.2600000      0.0000000E+00
  0.2700000      0.0000000E+00
  0.2800000      0.0000000E+00
  0.2900000      0.0000000E+00
  0.3000000      0.0000000E+00
  0.3100000      0.0000000E+00
  0.3200000      0.0000000E+00
  0.3300000      0.0000000E+00
  0.3400000      0.0000000E+00
  0.3500000      0.0000000E+00
  0.3600000      0.0000000E+00
  0.3700000      0.0000000E+00
  0.3800000      0.0000000E+00
  0.3900000      0.0000000E+00
  0.4000000      0.0000000E+00
  0.4100000      0.0000000E+00
  0.4200000      0.0000000E+00
  0.4300000      0.0000000E+00
  0.4400000      0.0000000E+00
  0.4500000      0.0000000E+00
  0.4600000      0.0000000E+00
  0.4700000      0.0000000E+00
  0.4800000      0.0000000E+00
  0.4900000      0.0000000E+00
  0.5000000      0.0000000E+00
  0.5100000      0.0000000E+00
  0.5200000      0.0000000E+00
  0.5300000      0.0000000E+00
  0.5400000      0.0000000E+00
  0.5500000      0.0000000E+00
  0.5600000      0.0000000E+00
  0.5700000      0.0000000E+00
  0.5800000      0.0000000E+00
  0.5900000      0.0000000E+00
  0.6000000      0.0000000E+00
  0.6100000      0.0000000E+00
  0.6200000      0.0000000E+00
  0.6300000      0.0000000E+00
  0.6400000      0.0000000E+00
  0.6500000      0.0000000E+00
  0.6600000      0.0000000E+00
  0.6700000      0.0000000E+00
  0.6800000      0.0000000E+00
  0.6900000      0.0000000E+00
  0.7000000      0.0000000E+00
  0.7100000      0.0000000E+00
  0.7200000      0.0000000E+00
  0.7300000      0.0000000E+00
  0.7400000      0.0000000E+00
  0.7500000      0.0000000E+00
  0.7600000      0.0000000E+00
  0.7700000      0.0000000E+00
  0.7800000      0.0000000E+00
  0.7900000      0.0000000E+00
  0.8000000      0.0000000E+00
  0.8100000      0.0000000E+00
  0.8200000      0.0000000E+00
  0.8300000      0.0000000E+00
  0.8400000      0.0000000E+00
  0.8500000      0.0000000E+00
  0.8600000      0.0000000E+00
  0.8700000      0.0000000E+00
  0.8800000      0.0000000E+00
  0.8900000      0.0000000E+00
  0.9000000      0.0000000E+00
  0.9100000      0.0000000E+00
  0.9200000      0.0000000E+00
  0.9300000      0.0000000E+00
  0.9400000      0.0000000E+00
  0.9500000      0.0000000E+00
  0.9600000      0.0000000E+00
  0.9700000      0.0000000E+00
  0.9800000      0.0000000E+00
  0.9900000      0.0000000E+00
   1.000000      0.0000000E+00
   1.010000      0.0000000E+00
   1.020000      0.0000000E+00
   1.030000      0.0000000E+00
   1.040000      0.0000000E+00
   1.050000      0.0000000E+00
   1.060000      0.0000000E+00
   1.070000      0.0000000E+00
   1.080000      0.0000000E+00
   1.090000      0.0000000E+00
   1.100000      0.0000000E+00
   1.110000      0.0000000E+00
   1.120000      0.0000000E+00
   1.130000      0.0000000E+00
   1.140000      0.0000000E+00
   1.150000      0.0000000E+00
   1.160000      0.0000000E+00
   1.170000      0.0000000E+00
   1.180000      0.0000000E+00
   1.190000      0.0000000E+00
   1.200000      0.0000000E+00
   1.210000      0.0000000E+00
   1.220000      0.0000000E+00
   1.230000      0.0000000E+00
   1.240000      0.0000000E+00
   1.250000      0.0000000E+00
   1.260000      0.0000000E+00
   1.270000      0.0000000E+00
   1.280000      0.0000000E+00
   1.290000      0.0000000E+00
   1.300000      0.0000000E+00
   1.310000      0.0000000E+00
   1.320000      0.0000000E+00
   1.330000      0.0000000E+00
   1.340000      0.0000000E+00
   1.350000      0.0000000E+00
   1.360000      0.0000000E+00
   1.370000      0.0000000E+00
   1.380000      0.0000000E+00
   1.390000      0.0000000E+00
   1.400000      0.0000000E+00
   1.410000      0.0000000E+00
   1.420000      0.0000000E+00
   1.430000      0.0000000E+00
   1.440000      0.0000000E+00
   1.450000      0.0000000E+00
   1.460000      0.0000000E+00
   1.470000      0.0000000E+00
   1.480000      0.0000000E+00
   1.490000      0.0000000E+00
   1.500000      0.0000000E+00
   1.510000      0.0000000E+00
   1.520000      0.0000000E+00
   1.530000      0.0000000E+00
   1.540000      0.0000000E+00
   1.550000      0.0000000E+00
   1.560000      0.0000000E+00
   1.570000      0.0000000E+00
   1.580000      0.0000000E+00
   1.590000      0.0000000E+00
   1.600000      0.0000000E+00
   1.610000      0.0000000E+00
   1.620000      0.0000000E+00
   1.630000      0.0000000E+00
   1.640000      0.0000000E+00
   1.650000      0.0000000E+00
   1.660000      0.0000000E+00
   1.670000      0.0000000E+00
   1.680000      0.0000000E+00
   1.690000      0.0000000E+00
   1.700000      0.0000000E+00
   1.710000      0.0000000E+00
   1.720000      0.0000000E+00
   1.730000      0.0000000E+00
   1.740000      0.0000000E+00
   1.750000      0.0000000E+00
   1.760000      0.0000000E+00
   1.770000      0.0000000E+00
   1.780000      0.0000000E+00
   1.790000      0.0000000E+00
   1.800000      0.0000000E+00
   1.810000      0.0000000E+00
   1.820000      0.0000000E+00
   1.830000      0.0000000E+00
   1.840000      0.0000000E+00
   1.850000      0.0000000E+00
   1.860000      0.0000000E+00
   1.870000      0.0000000E+00
   1.880000      0.0000000E+00
   1.890000      0.0000000E+00
   1.900000      0.0000000E+00
   1.910000      0.0000000E+00
   1.920000      0.0000000E+00
   1.930000      0.0000000E+00
   1.940000      0.0000000E+00
   1.950000      0.0000000E+00
   1.960000      0.0000000E+00
   1.970000      0.0000000E+00
   1.980000      0.0000000E+00
   1.990000      0.0000000E+00
   2.000000      0.0000000E+00
   2.010000      0.0000000E+00
   2.020000      0.0000000E+00
   2.030000      0.0000000E+00
   2.040000      0.0000000E+00
   2.050000      0.0000000E+00
   2.060000      0.0000000E+00
   2.070000      0.0000000E+00
   2.080000      0.0000000E+00
   2.090000      0.0000000E+00
   2.100000      0.0000000E+00
   2.110000      0.0000000E+00
   2.120000      0.0000000E+00
   2.130000      0.0000000E+00
   2.140000      0.0000000E+00
   2.150000      0.0000000E+00
   2.160000      0.0000000E+00
   2.170000      0.0000000E+00
   2.180000      0.0000000E+00
   2.190000      0.0000000E+00
   2.200000      0.0000000E+00
   2.210000      0.0000000E+00
   2.220000      0.0000000E+00
   2.230000      0.0000000E+00
   2.240000      0.0000000E+00
   2.250000      0.0000000E+00
   2.260000      0.0000000E+00
   2.270000      0.0000000E+00
   2.280000      0.0000000E+00
   2.290000      0.0000000E+00
   2.300000      0.0000000E+00
   2.310000      0.0000000E+00
   2.320000      0.0000000E+00
   2.330000      0.0000000E+00
   2.340000      0.0000000E+00
   2.350000      0.0000000E+00
   2.360000      0.0000000E+00
   2.370000      0.0000000E+00
   2.380000      0.0000000E+00
   2.390000      0.0000000E+00
   2.400000      0.0000000E+00
   2.410000      0.0000000E+00
   2.420000      0.0000000E+00
   2.430000      0.0000000E+00
   2.440000      0.0000000E+00
   2.450000      0.0000000E+00
   2.460000      0.0000000E+00
   2.470000      0.0000000E+00
   2.480000      0.0000000E+00
   2.490000      0.0000000E+00
   2.500000      0.0000000E+00
   2.510000      0.0000000E+00
   2.520000      0.0000000E+00
   2.530000      0.0000000E+00
   2.540000      0.0000000E+00
   2.550000      0.0000000E+00
   2.560000      0.0000000E+00
   2.570000      0.0000000E+00
   2.580000      0.0000000E+00
   2.590000      0.0000000E+00
   2.600000      0.0000000E+00
   2.610000      0.0000000E+00
   2.620000      0.0000000E+00
   2.630000      0.0000000E+00
   2.640000      0.0000000E+00
   2.650000      0.0000000E+00
   2.660000      0.0000000E+00
   2.670000      0.0000000E+00
   2.680000      0.0000000E+00
   2.690000      0.0000000E+00
   2.700000      0.0000000E+00
   2.710000      0.0000000E+00
   2.720000      0.0000000E+00
   2.730000     -1.3108053E-38
   2.740000     -1.4165681E-38
   2.750000     -1.4823249E-38
   2.760000     -1.5493126E-38
   2.770000     -1.6196348E-38
   2.780000     -1.6955277E-38
   2.790000     -1.7649196E-38
   2.800000     -1.8320656E-38
   2.810000     -1.8968933E-38
   2.820000     -1.9431649E-38
   2.830000     -1.9738956E-38
   2.840000     -1.9921959E-38
   2.850000     -1.9984072E-38
   2.860000     -1.9891154E-38
   2.870000     -1.9688070E-38
   2.880000     -1.9466962E-38
   2.890000     -1.9273952E-38
   2.900000     -1.8767349E-38
   2.910000     -1.7806028E-38
   2.920000     -1.6336992E-38
   2.930000     -1.3960060E-38
   2.940000      0.0000000E+00
   2.950000      0.0000000E+00
   2.960000      0.0000000E+00
   2.970000      0.0000000E+00
   2.980000      1.2059025E-38
   2.990000      1.9031563E-38
   3.000000      2.5430580E-38
   3.010000      3.1173322E-38
   3.020000      3.6656715E-38
   3.030000      4.2038217E-38
   3.040000      4.7716326E-38
   3.050000      5.4776701E-38
   3.060000      6.0932919E-38
   3.070000      6.6025680E-38
   3.080000      7.1828721E-38
   3.090000      7.6170678E-38
   3.100000      7.9516093E-38
   3.110000      8.4268210E-38
   3.120000      9.0227949E-38
   3.130000      9.5411386E-38
   3.140000      9.9238321E-38
   3.150000      1.0095325E-37
   3.160000      1.0066847E-37
   3.170000      9.9329371E-38
   3.180000      9.9380984E-38
   3.190000      1.0410249E-37
   3.200000      1.1103439E-37
   3.210000      1.1483615E-37
   3.220000      1.1527569E-37
   3.230000      1.1382384E-37
   3.240000      1.0991070E-37
   3.250000      1.0284543E-37
   3.260000      9.2456535E-38
   3.270000      6.0243480E-38
   3.280000      0.0000000E+00
   3.290000     -6.0743923E-38
   3.300000     -1.3053133E-37
   3.310000     -2.0310198E-37
   3.320000     -2.8000838E-37
   3.330000     -3.6318746E-37
   3.340000     -4.5213673E-37
   3.350000     -5.4645465E-37
   3.360000     -6.3097654E-37
   3.370000     -6.9937156E-37
   3.380000     -7.5100585E-37
   3.390000     -7.8867768E-37
   3.400000     -8.2402941E-37
   3.410000     -8.5021338E-37
   3.420000     -8.5673774E-37
   3.430000     -8.4387557E-37
   3.440000     -8.1820477E-37
   3.450000     -7.9118065E-37
   3.460000     -7.6516170E-37
   3.470000     -7.3220096E-37
   3.480000     -7.0458327E-37
   3.490000     -6.7870378E-37
   3.500000     -6.2701071E-37
   3.510000     -5.6229870E-37
   3.520000     -5.0493577E-37
   3.530000     -4.3862234E-37
   3.540000     -3.5971045E-37
   3.550000     -2.8976523E-37
   3.560000     -2.1688984E-37
   3.570000     -1.3349321E-37
   3.580000     -4.5999214E-38
   3.590000      4.4495130E-38
   3.600000      1.2835137E-37
   3.610000      2.1991397E-37
   3.620000      3.1852016E-37
   3.630000      4.1830858E-37
   3.640000      5.2813818E-37
   3.650000      6.4801722E-37
   3.660000      7.7728918E-37
   3.670000      9.2265051E-37
   3.680000      1.0923275E-36
   3.690000      1.2782545E-36
   3.700000      1.4744656E-36
   3.710000      1.6967290E-36
   3.720000      1.9499644E-36
   3.730000      2.2344292E-36
   3.740000      2.5597023E-36
   3.750000      2.9235075E-36
   3.760000      3.2990144E-36
   3.770000      3.6638643E-36
   3.780000      3.9838238E-36
   3.790000      4.2372302E-36
   3.800000      4.4661338E-36
   3.810000      4.7079499E-36
   3.820000      4.9443460E-36
   3.830000      5.1575073E-36
   3.840000      5.3383160E-36
   3.850000      5.3683802E-36
   3.860000      5.2406550E-36
   3.870000      5.0313171E-36
   3.880000      4.7517974E-36
   3.890000      4.3796556E-36
   3.900000      4.0343172E-36
   3.910000      3.7330552E-36
   3.920000      3.3971539E-36
   3.930000      3.0650226E-36
   3.940000      2.7018182E-36
   3.950000      2.3357664E-36
   3.960000      1.9459985E-36
   3.970000      1.5391500E-36
   3.980000      1.1290039E-36
   3.990000      6.6532140E-37
   4.000000      1.6174833E-37
   4.010000     -4.4316510E-37
   4.020000     -1.1603161E-36
   4.030000     -1.9693503E-36
   4.040000     -2.9031333E-36
   4.050000     -3.8850296E-36
   4.060000     -4.9468980E-36
   4.070000     -6.1700152E-36
   4.080000     -7.5527306E-36
   4.090000     -9.1840289E-36
   4.100000     -1.1001176E-35
   4.110000     -1.2775859E-35
   4.120000     -1.4653391E-35
   4.130000     -1.6780180E-35
   4.140000     -1.8751976E-35
   4.150000     -2.0089831E-35
   4.160000     -2.0936467E-35
   4.170000     -2.1631323E-35
   4.180000     -2.2406677E-35
   4.190000     -2.3052460E-35
   4.200000     -2.3246999E-35
   4.210000     -2.3251581E-35
   4.220000     -2.3254098E-35
   4.230000     -2.3159611E-35
   4.240000     -2.2553191E-35
   4.250000     -2.1538536E-35
   4.260000     -2.0740543E-35
   4.270000     -2.0181939E-35
   4.280000     -1.9831821E-35
   4.290000     -1.9788561E-35
   4.300000     -2.0120516E-35
   4.310000     -2.0698002E-35
   4.320000     -2.1248283E-35
   4.330000     -2.1774427E-35
   4.340000     -2.2201062E-35
   4.350000     -2.2427148E-35
   4.360000     -2.2194220E-35
   4.370000     -2.1323552E-35
   4.380000     -2.0053053E-35
   4.390000     -1.8097661E-35
   4.400000     -1.5371770E-35
   4.410000     -1.2473588E-35
   4.420000     -9.4917345E-36
   4.430000     -6.2846108E-36
   4.440000     -2.7330667E-36
   4.450000      1.0647904E-36
   4.460000      5.2282206E-36
   4.470000      1.0112404E-35
   4.480000      1.5462096E-35
   4.490000      2.1119158E-35
   4.500000      2.7189569E-35
   4.510000      3.3681713E-35
   4.520000      4.0854237E-35
   4.530000      4.8533929E-35
   4.540000      5.6364300E-35
   4.550000      6.4353408E-35
   4.560000      7.2547241E-35
   4.570000      8.0854049E-35
   4.580000      8.9225577E-35
   4.590000      9.6414288E-35
   4.600000      1.0368238E-34
   4.610000      1.1012723E-34
   4.620000      1.1428651E-34
   4.630000      1.1824432E-34
   4.640000      1.2184395E-34
   4.650000      1.2465852E-34
   4.660000      1.2663469E-34
   4.670000      1.2761118E-34
   4.680000      1.2757854E-34
   4.690000      1.2774891E-34
   4.700000      1.2996391E-34
   4.710000      1.3423955E-34
   4.720000      1.3898834E-34
   4.730000      1.4498014E-34
   4.740000      1.5295464E-34
   4.750000      1.6151881E-34
   4.760000      1.6879814E-34
   4.770000      1.7490179E-34
   4.780000      1.8067617E-34
   4.790000      1.8430142E-34
   4.800000      1.8556061E-34
   4.810000      1.8531990E-34
   4.820000      1.8412394E-34
   4.830000      1.8092139E-34
   4.840000      1.7428387E-34
   4.850000      1.6498899E-34
   4.860000      1.5370994E-34
   4.870000      1.4251201E-34
   4.880000      1.3057116E-34
   4.890000      1.1692034E-34
   4.900000      1.0178847E-34
   4.910000      8.3198970E-35
   4.920000      6.2856708E-35
   4.930000      4.1409655E-35
   4.940000      1.5172702E-35
   4.950000     -1.4091846E-35
   4.960000     -4.5278596E-35
   4.970000     -8.0208985E-35
   4.980000     -1.1722678E-34
   4.990000     -1.5355228E-34
   5.000000     -1.9091135E-34
   5.010000     -2.2741031E-34
   5.020000     -2.6380752E-34
   5.030000     -3.0172481E-34
   5.040000     -3.3830408E-34
   5.050000     -3.7690424E-34
   5.060000     -4.1815048E-34
   5.070000     -4.6131716E-34
   5.080000     -5.0334870E-34
   5.090000     -5.4280867E-34
   5.100000     -5.8391001E-34
   5.110000     -6.3041799E-34
   5.120000     -6.8085992E-34
   5.130000     -7.2993603E-34
   5.140000     -7.8076050E-34
   5.150000     -8.3734393E-34
   5.160000     -8.9632666E-34
   5.170000     -9.5391578E-34
   5.180000     -1.0113878E-33
   5.190000     -1.0705461E-33
   5.200000     -1.1312848E-33
   5.210000     -1.1935028E-33
   5.220000     -1.2580679E-33
   5.230000     -1.3264329E-33
   5.240000     -1.3966435E-33
   5.250000     -1.4686225E-33
   5.260000     -1.5412592E-33
   5.270000     -1.6092663E-33
   5.280000     -1.6703852E-33
   5.290000     -1.7250005E-33
   5.300000     -1.7727215E-33
   5.310000     -1.8154785E-33
   5.320000     -1.8513197E-33
   5.330000     -1.8778996E-33
   5.340000     -1.8954025E-33
   5.350000     -1.9046818E-33
   5.360000     -1.9078446E-33
   5.370000     -1.9025247E-33
   5.380000     -1.8859181E-33
   5.390000     -1.8575663E-33
   5.400000     -1.8175202E-33
   5.410000     -1.7652713E-33
   5.420000     -1.7007983E-33
   5.430000     -1.6225312E-33
   5.440000     -1.5307724E-33
   5.450000     -1.4269448E-33
   5.460000     -1.3109443E-33
   5.470000     -1.1805750E-33
   5.480000     -1.0372977E-33
   5.490000     -8.7895285E-34
   5.500000     -7.0345104E-34
   5.510000     -5.1247430E-34
   5.520000     -3.0588967E-34
   5.530000     -8.2143786E-35
   5.540000      1.6279435E-34
   5.550000      4.2754286E-34
   5.560000      7.1201511E-34
   5.570000      1.0187729E-33
   5.580000      1.3468245E-33
   5.590000      1.6967366E-33
   5.600000      2.0717256E-33
   5.610000      2.4723085E-33
   5.620000      2.9001429E-33
   5.630000      3.3566568E-33
   5.640000      3.8411287E-33
   5.650000      4.3522906E-33
   5.660000      4.8897542E-33
   5.670000      5.4502317E-33
   5.680000      6.0327347E-33
   5.690000      6.6385713E-33
   5.700000      7.2658143E-33
   5.710000      7.9124795E-33
   5.720000      8.5768667E-33
   5.730000      9.2588283E-33
   5.740000      9.9556408E-33
   5.750000      1.0663979E-32
   5.760000      1.1382691E-32
   5.770000      1.2109269E-32
   5.780000      1.2841377E-32
   5.790000      1.3576933E-32
   5.800000      1.4313820E-32
   5.810000      1.5047890E-32
   5.820000      1.5775628E-32
   5.830000      1.6495067E-32
   5.840000      1.7202978E-32
   5.850000      1.7895791E-32
   5.860000      1.8569662E-32
   5.870000      1.9220777E-32
   5.880000      1.9844894E-32
   5.890000      2.0437399E-32
   5.900000      2.0994166E-32
   5.910000      2.1509362E-32
   5.920000      2.1976798E-32
   5.930000      2.2391179E-32
   5.940000      2.2745714E-32
   5.950000      2.3034504E-32
   5.960000      2.3251164E-32
   5.970000      2.3387600E-32
   5.980000      2.3436148E-32
   5.990000      2.3388962E-32
   6.000000      2.3237964E-32
   6.010000      2.2974789E-32
   6.020000      2.2590418E-32
   6.030000      2.2076373E-32
   6.040000      2.1423781E-32
   6.050000      2.0623493E-32
   6.060000      1.9667001E-32
   6.070000      1.8545851E-32
   6.080000      1.7251360E-32
   6.090000      1.5774955E-32
   6.100000      1.4108772E-32
   6.110000      1.2244779E-32
   6.120000      1.0175347E-32
   6.130000      7.8933682E-33
   6.140000      5.3918846E-33
   6.150000      2.6643250E-33
   6.160000     -2.9524797E-34
   6.170000     -3.4926288E-33
   6.180000     -6.9332427E-33
   6.190000     -1.0621737E-32
   6.200000     -1.4562384E-32
   6.210000     -1.8758864E-32
   6.220000     -2.3214219E-32
   6.230000     -2.7930874E-32
   6.240000     -3.2910445E-32
   6.250000     -3.8153875E-32
   6.260000     -4.3661284E-32
   6.270000     -4.9431789E-32
   6.280000     -5.5462075E-32
   6.290000     -6.1749688E-32
   6.300000     -6.8290815E-32
   6.310000     -7.5079312E-32
   6.320000     -8.2108468E-32
   6.330000     -8.9368804E-32
   6.340000     -9.6849767E-32
   6.350000     -1.0453900E-31
   6.360000     -1.1242228E-31
   6.370000     -1.2048363E-31
   6.380000     -1.2870445E-31
   6.390000     -1.3706396E-31
   6.400000     -1.4553964E-31
   6.410000     -1.5410632E-31
   6.420000     -1.6273655E-31
   6.430000     -1.7140041E-31
   6.440000     -1.8006541E-31
   6.450000     -1.8869662E-31
   6.460000     -1.9725651E-31
   6.470000     -2.0570495E-31
   6.480000     -2.1399929E-31
   6.490000     -2.2209428E-31
   6.500000     -2.2994221E-31
   6.510000     -2.3749269E-31
   6.520000     -2.4469295E-31
   6.530000     -2.5148771E-31
   6.540000     -2.5781925E-31
   6.550000     -2.6362746E-31
   6.560000     -2.6884988E-31
   6.570000     -2.7342163E-31
   6.580000     -2.7727575E-31
   6.590000     -2.8034294E-31
   6.600000     -2.8255141E-31
   6.610000     -2.8382831E-31
   6.620000     -2.8409888E-31
   6.630000     -2.8328558E-31
   6.640000     -2.8130972E-31
   6.650000     -2.7809112E-31
   6.660000     -2.7354837E-31
   6.670000     -2.6759894E-31
   6.680000     -2.6015940E-31
   6.690000     -2.5114580E-31
   6.700000     -2.4047389E-31
   6.710000     -2.2805942E-31
   6.720000     -2.1381857E-31
   6.730000     -1.9766812E-31
   6.740000     -1.7952602E-31
   6.750000     -1.5931174E-31
   6.760000     -1.3694664E-31
   6.770000     -1.1235458E-31
   6.780000     -8.5462236E-32
   6.790000     -5.6199756E-32
   6.800000     -2.4501243E-32
   6.810000      9.6947082E-33
   6.820000      4.6444381E-32
   6.830000      8.5798345E-32
   6.840000      1.2780096E-31
   6.850000      1.7248961E-31
   6.860000      2.1989404E-31
   6.870000      2.7003590E-31
   6.880000      3.2292798E-31
   6.890000      3.7857357E-31
   6.900000      4.3696572E-31
   6.910000      4.9808677E-31
   6.920000      5.6190760E-31
   6.930000      6.2838717E-31
   6.940000      6.9747130E-31
   6.950000      7.6909248E-31
   6.960000      8.4316893E-31
   6.970000      9.1960437E-31
   6.980000      9.9828679E-31
   6.990000      1.0790881E-30
   7.000000      1.1618634E-30
   7.010000      1.2464505E-30
   7.020000      1.3326689E-30
   7.030000      1.4203194E-30
   7.040000      1.5091840E-30
   7.050000      1.5990244E-30
   7.060000      1.6895820E-30