  -2.600000      0.0000000E+00
  -2.590000      0.0000000E+00
  -2.580000      0.0000000E+00
  -2.570000      0.0000000E+00
  -2.560000      0.0000000E+00
  -2.550000      0.0000000E+00
  -2.540000      0.0000000E+00
  -2.530000      0.0000000E+00
  -2.520000      0.0000000E+00
  -2.510000      0.0000000E+00
  -2.500000      0.0000000E+00
  -2.490000      0.0000000E+00
  -2.480000      0.0000000E+00
  -2.470000      0.0000000E+00
  -2.460000      0.0000000E+00
  -2.450000      0.0000000E+00
  -2.440000      0.0000000E+00
  -2.430000      0.0000000E+00
  -2.420000      0.0000000E+00
  -2.410000      0.0000000E+00
  -2.400000      0.0000000E+00
  -2.390000      0.0000000E+00
  -2.380000      0.0000000E+00
  -2.370000      0.0000000E+00
  -2.360000      0.0000000E+00
  -2.350000      0.0000000E+00
  -2.340000      0.0000000E+00
  -2.330000      0.0000000E+00
  -2.320000      0.0000000E+00
  -2.310000      0.0000000E+00
  -2.300000      0.0000000E+00
  -2.290000      0.0000000E+00
  -2.280000      0.0000000E+00
  -2.270000      0.0000000E+00
  -2.260000      0.0000000E+00
  -2.250000      0.0000000E+00
  -2.240000      0.0000000E+00
  -2.230000      0.0000000E+00
  -2.220000      0.0000000E+00
  -2.210000      0.0000000E+00
  -2.200000      0.0000000E+00
  -2.190000      0.0000000E+00
  -2.180000      0.0000000E+00
  -2.170000      0.0000000E+00
  -2.160000      0.0000000E+00
  -2.150000      0.0000000E+00
  -2.140000      0.0000000E+00
  -2.130000      0.0000000E+00
  -2.120000      0.0000000E+00
  -2.110000      0.0000000E+00
  -2.100000      0.0000000E+00
  -2.090000      0.0000000E+00
  -2.080000      0.0000000E+00
  -2.070000      0.0000000E+00
  -2.060000      0.0000000E+00
  -2.050000      0.0000000E+00
  -2.040000      0.0000000E+00
  -2.030000      0.0000000E+00
  -2.020000      0.0000000E+00
  -2.010000      0.0000000E+00
  -2.000000      0.0000000E+00
  -1.990000      0.0000000E+00
  -1.980000      0.0000000E+00
  -1.970000      0.0000000E+00
  -1.960000      0.0000000E+00
  -1.950000      0.0000000E+00
  -1.940000      0.0000000E+00
  -1.930000      0.0000000E+00
  -1.920000      0.0000000E+00
  -1.910000      0.0000000E+00
  -1.900000      0.0000000E+00
  -1.890000      0.0000000E+00
  -1.880000      0.0000000E+00
  -1.870000      0.0000000E+00
  -1.860000      0.0000000E+00
  -1.850000      0.0000000E+00
  -1.840000      0.0000000E+00
  -1.830000      0.0000000E+00
  -1.820000      0.0000000E+00
  -1.810000      0.0000000E+00
  -1.800000      0.0000000E+00
  -1.790000      0.0000000E+00
  -1.780000      0.0000000E+00
  -1.770000      0.0000000E+00
  -1.760000      0.0000000E+00
  -1.750000      0.0000000E+00
  -1.740000      0.0000000E+00
  -1.730000      0.0000000E+00
  -1.720000      0.0000000E+00
  -1.710000      0.0000000E+00
  -1.700000      0.0000000E+00
  -1.690000      0.0000000E+00
  -1.680000      0.0000000E+00
  -1.670000      0.0000000E+00
  -1.660000      0.0000000E+00
  -1.650000      0.0000000E+00
  -1.640000      0.0000000E+00
  -1.630000      0.0000000E+00
  -1.620000      0.0000000E+00
  -1.610000      0.0000000E+00
  -1.600000      0.0000000E+00
  -1.590000      0.0000000E+00
  -1.580000      0.0000000E+00
  -1.570000      0.0000000E+00
  -1.560000      0.0000000E+00
  -1.550000      0.0000000E+00
  -1.540000      0.0000000E+00
  -1.530000      0.0000000E+00
  -1.520000      0.0000000E+00
  -1.510000      0.0000000E+00
  -1.500000      0.0000000E+00
  -1.490000      0.0000000E+00
  -1.480000      0.0000000E+00
  -1.470000      0.0000000E+00
  -1.460000      0.0000000E+00
  -1.450000      0.0000000E+00
  -1.440000      0.0000000E+00
  -1.430000      0.0000000E+00
  -1.420000      0.0000000E+00
  -1.410000      0.0000000E+00
  -1.400000      0.0000000E+00
  -1.390000      0.0000000E+00
  -1.380000      0.0000000E+00
  -1.370000      0.0000000E+00
  -1.360000      0.0000000E+00
  -1.350000      0.0000000E+00
  -1.340000      0.0000000E+00
  -1.330000      0.0000000E+00
  -1.320000      0.0000000E+00
  -1.310000      0.0000000E+00
  -1.300000      0.0000000E+00
  -1.290000      0.0000000E+00
  -1.280000      0.0000000E+00
  -1.270000      0.0000000E+00
  -1.260000      0.0000000E+00
  -1.250000      0.0000000E+00
  -1.240000      0.0000000E+00
  -1.230000      0.0000000E+00
  -1.220000      0.0000000E+00
  -1.210000      0.0000000E+00
  -1.200000      0.0000000E+00
  -1.190000      0.0000000E+00
  -1.180000      0.0000000E+00
  -1.170000      0.0000000E+00
  -1.160000      0.0000000E+00
  -1.150000      0.0000000E+00
  -1.140000      0.0000000E+00
  -1.130000      0.0000000E+00
  -1.120000      0.0000000E+00
  -1.110000      0.0000000E+00
  -1.100000      0.0000000E+00
  -1.090000      0.0000000E+00
  -1.080000      0.0000000E+00
  -1.070000      0.0000000E+00
  -1.060000      0.0000000E+00
  -1.050000      0.0000000E+00
  -1.040000      0.0000000E+00
  -1.030000      0.0000000E+00
  -1.020000      0.0000000E+00
  -1.010000      0.0000000E+00
  -1.000000      0.0000000E+00
 -0.9900000      0.0000000E+00
 -0.9800000      0.0000000E+00
 -0.9700000      0.0000000E+00
 -0.9600000      0.0000000E+00
 -0.9500000      0.0000000E+00
 -0.9400000      0.0000000E+00
 -0.9300000      0.0000000E+00
 -0.9200000      0.0000000E+00
 -0.9100000      0.0000000E+00
 -0.9000000      0.0000000E+00
 -0.8900000      0.0000000E+00
 -0.8800000      0.0000000E+00
 -0.8700000      0.0000000E+00
 -0.8600000      0.0000000E+00
 -0.8500000      0.0000000E+00
 -0.8400000      0.0000000E+00
 -0.8300000      0.0000000E+00
 -0.8200000      0.0000000E+00
 -0.8100000      0.0000000E+00
 -0.8000000      0.0000000E+00
 -0.7900000      0.0000000E+00
 -0.7800000      0.0000000E+00
 -0.7700000      0.0000000E+00
 -0.7600000      0.0000000E+00
 -0.7500000      0.0000000E+00
 -0.7400000      0.0000000E+00
 -0.7300000      0.0000000E+00
 -0.7200000      0.0000000E+00
 -0.7100000      0.0000000E+00
 -0.7000000      0.0000000E+00
 -0.6900000      0.0000000E+00
 -0.6800000      0.0000000E+00
 -0.6700000      0.0000000E+00
 -0.6600000      0.0000000E+00
 -0.6500000      0.0000000E+00
 -0.6400000      0.0000000E+00
 -0.6300000      0.0000000E+00
 -0.6200000      0.0000000E+00
 -0.6100000      0.0000000E+00
 -0.6000000      0.0000000E+00
 -0.5900000      0.0000000E+00
 -0.5800000      0.0000000E+00
 -0.5700000      0.0000000E+00
 -0.5600000      0.0000000E+00
 -0.5500000      0.0000000E+00
 -0.5400000      0.0000000E+00
 -0.5300000      0.0000000E+00
 -0.5200000      0.0000000E+00
 -0.5100000      0.0000000E+00
 -0.5000000      0.0000000E+00
 -0.4900000      0.0000000E+00
 -0.4800000      0.0000000E+00
 -0.4700000      0.0000000E+00
 -0.4600000      0.0000000E+00
 -0.4500000      0.0000000E+00
 -0.4400000      0.0000000E+00
 -0.4300000      0.0000000E+00
 -0.4200000      0.0000000E+00
 -0.4100000      0.0000000E+00
 -0.4000000      0.0000000E+00
 -0.3900000      0.0000000E+00
 -0.3800000      0.0000000E+00
 -0.3700000      0.0000000E+00
 -0.3600000      0.0000000E+00
 -0.3500000      0.0000000E+00
 -0.3400000      0.0000000E+00
 -0.3300000      0.0000000E+00
 -0.3200000      0.0000000E+00
 -0.3100000      0.0000000E+00
 -0.3000000      0.0000000E+00
 -0.2900000      0.0000000E+00
 -0.2800000      0.0000000E+00
 -0.2700000      0.0000000E+00
 -0.2600000      0.0000000E+00
 -0.2500000      0.0000000E+00
 -0.2400000      0.0000000E+00
 -0.2300000      0.0000000E+00
 -0.2200000      0.0000000E+00
 -0.2100000      0.0000000E+00
 -0.2000000      0.0000000E+00
 -0.1900000      0.0000000E+00
 -0.1800000      0.0000000E+00
 -0.1700000      0.0000000E+00
 -0.1600000      0.0000000E+00
 -0.1500000      0.0000000E+00
 -0.1400000      0.0000000E+00
 -0.1300000      0.0000000E+00
 -0.1200000      0.0000000E+00
 -0.1100000      0.0000000E+00
 -0.1000000      0.0000000E+00
 -9.0000004E-02  0.0000000E+00
 -7.9999998E-02  0.0000000E+00
 -7.0000000E-02  0.0000000E+00
 -5.9999999E-02  0.0000000E+00
 -5.0000001E-02  0.0000000E+00
 -3.9999999E-02  0.0000000E+00
 -2.9999999E-02  0.0000000E+00
 -2.0000000E-02  0.0000000E+00
 -9.9999998E-03  0.0000000E+00
 -3.4694470E-17  0.0000000E+00
  9.9999998E-03  0.0000000E+00
  2.0000000E-02  0.0000000E+00
  2.9999999E-02  0.0000000E+00
  3.9999999E-02  0.0000000E+00
  5.0000001E-02  0.0000000E+00
  5.9999999E-02  0.0000000E+00
  7.0000000E-02  0.0000000E+00
  7.9999998E-02  0.0000000E+00
  9.0000004E-02  0.0000000E+00
  0.1000000      0.0000000E+00
  0.1100000      0.0000000E+00
  0.1200000      0.0000000E+00
  0.1300000      0.0000000E+00
  0.1400000      0.0000000E+00
  0.1500000      0.0000000E+00
  0.1600000      0.0000000E+00
  0.1700000      0.0000000E+00
  0.1800000      0.0000000E+00
  0.1900000      0.0000000E+00
  0.2000000      0.0000000E+00
  0.2100000      0.0000000E+00
  0.2200000      0.0000000E+00
  0.2300000      0.0000000E+00
  0.2400000      0.0000000E+00
  0.2500000      0.0000000E+00
  0.2600000      0.0000000E+00
  0.2700000      0.0000000E+00
  0.2800000      0.0000000E+00
  0.2900000      0.0000000E+00
  0.3000000      0.0000000E+00
  0.3100000      0.0000000E+00
  0.3200000      0.0000000E+00
  0.3300000      0.0000000E+00
  0.3400000      0.0000000E+00
  0.3500000      0.0000000E+00
  0.3600000      0.0000000E+00
  0.3700000      0.0000000E+00
  0.3800000      0.0000000E+00
  0.3900000      0.0000000E+00
  0.4000000      0.0000000E+00
  0.4100000      0.0000000E+00
  0.4200000      0.0000000E+00
  0.4300000      0.0000000E+00
  0.4400000      0.0000000E+00
  0.4500000      0.0000000E+00
  0.4600000      0.0000000E+00
  0.4700000      0.0000000E+00
  0.4800000      0.0000000E+00
  0.4900000      0.0000000E+00
  0.5000000      0.0000000E+00
  0.5100000      0.0000000E+00
  0.5200000      0.0000000E+00
  0.5300000      0.0000000E+00
  0.5400000      0.0000000E+00
  0.5500000      0.0000000E+00
  0.5600000      0.0000000E+00
  0.5700000      0.0000000E+00
  0.5800000      0.0000000E+00
  0.5900000      0.0000000E+00
  0.6000000      0.0000000E+00
  0.6100000      0.0000000E+00
  0.6200000      0.0000000E+00
  0.6300000      0.0000000E+00
  0.6400000      0.0000000E+00
  0.6500000      0.0000000E+00
  0.6600000      0.0000000E+00
  0.6700000      0.0000000E+00
  0.6800000      0.0000000E+00
  0.6900000      0.0000000E+00
  0.7000000      0.0000000E+00
  0.7100000      0.0000000E+00
  0.7200000      0.0000000E+00
  0.7300000      0.0000000E+00
  0.7400000      0.0000000E+00
  0.7500000      0.0000000E+00
  0.7600000      0.0000000E+00
  0.7700000      0.0000000E+00
  0.7800000      0.0000000E+00
  0.7900000      0.0000000E+00
  0.8000000      0.0000000E+00
  0.8100000      0.0000000E+00
  0.8200000      0.0000000E+00
  0.8300000      0.0000000E+00
  0.8400000      0.0000000E+00
  0.8500000      0.0000000E+00
  0.8600000      0.0000000E+00
  0.8700000      0.0000000E+00
  0.8800000      0.0000000E+00
  0.8900000      0.0000000E+00
  0.9000000      0.0000000E+00
  0.9100000      0.0000000E+00
  0.9200000      0.0000000E+00
  0.9300000      0.0000000E+00
  0.9400000      0.0000000E+00
  0.9500000      0.0000000E+00
  0.9600000      0.0000000E+00
  0.9700000      0.0000000E+00
  0.9800000      0.0000000E+00
  0.9900000      0.0000000E+00
   1.000000      0.0000000E+00
   1.010000      0.0000000E+00
   1.020000      0.0000000E+00
   1.030000      0.0000000E+00
   1.040000      0.0000000E+00
   1.050000      0.0000000E+00
   1.060000      0.0000000E+00
   1.070000      0.0000000E+00
   1.080000      0.0000000E+00
   1.090000      0.0000000E+00
   1.100000      0.0000000E+00
   1.110000      0.0000000E+00
   1.120000      0.0000000E+00
   1.130000      0.0000000E+00
   1.140000      0.0000000E+00
   1.150000      0.0000000E+00
   1.160000      0.0000000E+00
   1.170000      0.0000000E+00
   1.180000      0.0000000E+00
   1.190000      0.0000000E+00
   1.200000      0.0000000E+00
   1.210000      0.0000000E+00
   1.220000      0.0000000E+00
   1.230000      0.0000000E+00
   1.240000      0.0000000E+00
   1.250000      0.0000000E+00
   1.260000      0.0000000E+00
   1.270000      0.0000000E+00
   1.280000      0.0000000E+00
   1.290000      0.0000000E+00
   1.300000      0.0000000E+00
   1.310000      0.0000000E+00
   1.320000      0.0000000E+00
   1.330000      0.0000000E+00
   1.340000      0.0000000E+00
   1.350000      0.0000000E+00
   1.360000      0.0000000E+00
   1.370000      0.0000000E+00
   1.380000      0.0000000E+00
   1.390000      0.0000000E+00
   1.400000      0.0000000E+00
   1.410000      0.0000000E+00
   1.420000      0.0000000E+00
   1.430000      0.0000000E+00
   1.440000      0.0000000E+00
   1.450000      0.0000000E+00
   1.460000      0.0000000E+00
   1.470000      0.0000000E+00
   1.480000      0.0000000E+00
   1.490000      0.0000000E+00
   1.500000      0.0000000E+00
   1.510000      0.0000000E+00
   1.520000      0.0000000E+00
   1.530000      0.0000000E+00
   1.540000      0.0000000E+00
   1.550000      0.0000000E+00
   1.560000      0.0000000E+00
   1.570000      0.0000000E+00
   1.580000      0.0000000E+00
   1.590000      0.0000000E+00
   1.600000      0.0000000E+00
   1.610000      0.0000000E+00
   1.620000      0.0000000E+00
   1.630000      0.0000000E+00
   1.640000      0.0000000E+00
   1.650000      0.0000000E+00
   1.660000      0.0000000E+00
   1.670000      0.0000000E+00
   1.680000      0.0000000E+00
   1.690000      0.0000000E+00
   1.700000      0.0000000E+00
   1.710000      0.0000000E+00
   1.720000      0.0000000E+00
   1.730000      0.0000000E+00
   1.740000      0.0000000E+00
   1.750000      0.0000000E+00
   1.760000      0.0000000E+00
   1.770000      0.0000000E+00
   1.780000      0.0000000E+00
   1.790000      0.0000000E+00
   1.800000      0.0000000E+00
   1.810000      0.0000000E+00
   1.820000      0.0000000E+00
   1.830000      0.0000000E+00
   1.840000      0.0000000E+00
   1.850000      0.0000000E+00
   1.860000      0.0000000E+00
   1.870000      0.0000000E+00
   1.880000      0.0000000E+00
   1.890000      0.0000000E+00
   1.900000      0.0000000E+00
   1.910000      0.0000000E+00
   1.920000      0.0000000E+00
   1.930000      0.0000000E+00
   1.940000      0.0000000E+00
   1.950000      0.0000000E+00
   1.960000      0.0000000E+00
   1.970000      0.0000000E+00
   1.980000      0.0000000E+00
   1.990000      0.0000000E+00
   2.000000      0.0000000E+00
   2.010000      0.0000000E+00
   2.020000      0.0000000E+00
   2.030000      0.0000000E+00
   2.040000      0.0000000E+00
   2.050000      0.0000000E+00
   2.060000      0.0000000E+00
   2.070000      0.0000000E+00
   2.080000      0.0000000E+00
   2.090000      0.0000000E+00
   2.100000      0.0000000E+00
   2.110000      0.0000000E+00
   2.120000      0.0000000E+00
   2.130000      0.0000000E+00
   2.140000      0.0000000E+00
   2.150000      0.0000000E+00
   2.160000      0.0000000E+00
   2.170000      0.0000000E+00
   2.180000      0.0000000E+00
   2.190000      0.0000000E+00
   2.200000      0.0000000E+00
   2.210000      0.0000000E+00
   2.220000      0.0000000E+00
   2.230000      0.0000000E+00
   2.240000      0.0000000E+00
   2.250000      0.0000000E+00
   2.260000      0.0000000E+00
   2.270000      0.0000000E+00
   2.280000      0.0000000E+00
   2.290000      0.0000000E+00
   2.300000      0.0000000E+00
   2.310000      0.0000000E+00
   2.320000      0.0000000E+00
   2.330000      0.0000000E+00
   2.340000      0.0000000E+00
   2.350000      0.0000000E+00
   2.360000      0.0000000E+00
   2.370000      0.0000000E+00
   2.380000      0.0000000E+00
   2.390000      0.0000000E+00
   2.400000      0.0000000E+00
   2.410000      0.0000000E+00
   2.420000      0.0000000E+00
   2.430000      0.0000000E+00
   2.440000      0.0000000E+00
   2.450000      0.0000000E+00
   2.460000      0.0000000E+00
   2.470000      0.0000000E+00
   2.480000      0.0000000E+00
   2.490000      0.0000000E+00
   2.500000      0.0000000E+00
   2.510000      0.0000000E+00
   2.520000      0.0000000E+00
   2.530000      0.0000000E+00
   2.540000      0.0000000E+00
   2.550000      0.0000000E+00
   2.560000      0.0000000E+00
   2.570000      0.0000000E+00
   2.580000      0.0000000E+00
   2.590000      0.0000000E+00
   2.600000      0.0000000E+00
   2.610000      0.0000000E+00
   2.620000      0.0000000E+00
   2.630000      0.0000000E+00
   2.640000      0.0000000E+00
   2.650000      0.0000000E+00
   2.660000      0.0000000E+00
   2.670000      0.0000000E+00
   2.680000      0.0000000E+00
   2.690000      0.0000000E+00
   2.700000      0.0000000E+00
   2.710000      0.0000000E+00
   2.720000      0.0000000E+00
   2.730000      0.0000000E+00
   2.740000      0.0000000E+00
   2.750000      0.0000000E+00
   2.760000      0.0000000E+00
   2.770000      0.0000000E+00
   2.780000      0.0000000E+00
   2.790000      0.0000000E+00
   2.800000      0.0000000E+00
   2.810000      0.0000000E+00
   2.820000      0.0000000E+00
   2.830000      0.0000000E+00
   2.840000      0.0000000E+00
   2.850000      0.0000000E+00
   2.860000      0.0000000E+00
   2.870000      0.0000000E+00
   2.880000      0.0000000E+00
   2.890000      0.0000000E+00
   2.900000      0.0000000E+00
   2.910000      0.0000000E+00
   2.920000      0.0000000E+00
   2.930000      0.0000000E+00
   2.940000      0.0000000E+00
   2.950000      0.0000000E+00
   2.960000      0.0000000E+00
   2.970000      0.0000000E+00
   2.980000      0.0000000E+00
   2.990000      0.0000000E+00
   3.000000      0.0000000E+00
   3.010000      0.0000000E+00
   3.020000      0.0000000E+00
   3.030000      0.0000000E+00
   3.040000      0.0000000E+00
   3.050000      0.0000000E+00
   3.060000      0.0000000E+00
   3.070000      0.0000000E+00
   3.080000      0.0000000E+00
   3.090000      0.0000000E+00
   3.100000      0.0000000E+00
   3.110000      0.0000000E+00
   3.120000      0.0000000E+00
   3.130000      0.0000000E+00
   3.140000      0.0000000E+00
   3.150000      0.0000000E+00
   3.160000      0.0000000E+00
   3.170000      0.0000000E+00
   3.180000      0.0000000E+00
   3.190000      0.0000000E+00
   3.200000      1.3913439E-38
   3.210000      1.7128868E-38
   3.220000      1.9833770E-38
   3.230000      2.2111547E-38
   3.240000      2.4372596E-38
   3.250000      2.6488392E-38
   3.260000      2.8372729E-38
   3.270000      3.0119050E-38
   3.280000      3.1598291E-38
   3.290000      3.2918746E-38
   3.300000      3.4333914E-38
   3.310000      3.5687185E-38
   3.320000      3.6943855E-38
   3.330000      3.8144275E-38
   3.340000      3.9370831E-38
   3.350000      4.0996377E-38
   3.360000      4.3102175E-38
   3.370000      4.5882954E-38
   3.380000      4.9246409E-38
   3.390000      5.1427609E-38
   3.400000      5.1858284E-38
   3.410000      5.1041523E-38
   3.420000      4.9909352E-38
   3.430000      4.8358659E-38
   3.440000      4.5348756E-38
   3.450000      4.1767388E-38
   3.460000      3.9230600E-38
   3.470000      3.6607989E-38
   3.480000      3.2143396E-38
   3.490000      2.6336286E-38
   3.500000      1.9537188E-38
   3.510000      0.0000000E+00
   3.520000      0.0000000E+00
   3.530000      0.0000000E+00
   3.540000     -2.5663960E-38
   3.550000     -4.1312440E-38
   3.560000     -5.7195364E-38
   3.570000     -7.3294081E-38
   3.580000     -8.8773990E-38
   3.590000     -1.0474135E-37
   3.600000     -1.2336268E-37
   3.610000     -1.4424561E-37
   3.620000     -1.6635406E-37
   3.630000     -1.8796160E-37
   3.640000     -2.0852507E-37
   3.650000     -2.2718458E-37
   3.660000     -2.4538523E-37
   3.670000     -2.6722188E-37
   3.680000     -2.9272961E-37
   3.690000     -3.3730741E-37
   3.700000     -4.0326253E-37
   3.710000     -4.7112237E-37
   3.720000     -5.2895708E-37
   3.730000     -5.7310749E-37
   3.740000     -6.0673044E-37
   3.750000     -6.3383788E-37
   3.760000     -6.4948964E-37
   3.770000     -6.5438585E-37
   3.780000     -6.5788174E-37
   3.790000     -6.6201559E-37
   3.800000     -6.7545608E-37
   3.810000     -7.0048803E-37
   3.820000     -7.2614816E-37
   3.830000     -7.4160405E-37
   3.840000     -7.4455534E-37
   3.850000     -7.3734070E-37
   3.860000     -7.1248628E-37
   3.870000     -6.6606312E-37
   3.880000     -6.0584249E-37
   3.890000     -5.5571851E-37
   3.900000     -5.0297584E-37
   3.910000     -4.3711696E-37
   3.920000     -3.7760900E-37
   3.930000     -3.3110044E-37
   3.940000     -2.8488472E-37
   3.950000     -2.1629934E-37
   3.960000     -1.3118502E-37
   3.970000     -3.4817410E-38
   3.980000      7.5506574E-38
   3.990000      1.9632698E-37
   4.000000      3.6239078E-37
   4.010000      5.7047421E-37
   4.020000      7.9156090E-37
   4.030000      1.0516817E-36
   4.040000      1.3606529E-36
   4.050000      1.7168070E-36
   4.060000      2.1016164E-36
   4.070000      2.4815686E-36
   4.080000      2.8561602E-36
   4.090000      3.2349570E-36
   4.100000      3.6051620E-36
   4.110000      3.9518349E-36
   4.120000      4.2700349E-36
   4.130000      4.5472791E-36
   4.140000      4.7967463E-36
   4.150000      5.0371339E-36
   4.160000      5.2386587E-36
   4.170000      5.3970534E-36
   4.180000      5.6120360E-36
   4.190000      5.9706381E-36
   4.200000      6.4227034E-36
   4.210000      6.9065272E-36
   4.220000      7.4402565E-36
   4.230000      8.0255234E-36
   4.240000      8.5102089E-36
   4.250000      8.8175378E-36
   4.260000      9.0624889E-36
   4.270000      9.1977497E-36
   4.280000      9.1912423E-36
   4.290000      9.1720838E-36
   4.300000      9.1319797E-36
   4.310000      8.9356914E-36
   4.320000      8.4701865E-36
   4.330000      7.8043433E-36
   4.340000      7.0373555E-36
   4.350000      6.1790280E-36
   4.360000      5.2687018E-36
   4.370000      4.2997491E-36
   4.380000      3.2847369E-36
   4.390000      2.3334320E-36
   4.400000      1.4563402E-36
   4.410000      4.7054486E-37
   4.420000     -8.8168704E-37
   4.430000     -2.5110110E-36
   4.440000     -4.3181018E-36
   4.450000     -6.3690571E-36
   4.460000     -8.6366291E-36
   4.470000     -1.1188594E-35
   4.480000     -1.3889901E-35
   4.490000     -1.6688095E-35
   4.500000     -1.9678453E-35
   4.510000     -2.3262895E-35
   4.520000     -2.7139346E-35
   4.530000     -3.0758463E-35
   4.540000     -3.4406522E-35
   4.550000     -3.7810109E-35
   4.560000     -4.0425047E-35
   4.570000     -4.2780923E-35
   4.580000     -4.5617980E-35
   4.590000     -4.8724097E-35
   4.600000     -5.1768961E-35
   4.610000     -5.4743168E-35
   4.620000     -5.7807810E-35
   4.630000     -6.0877320E-35
   4.640000     -6.4003285E-35
   4.650000     -6.7218062E-35
   4.660000     -7.0271443E-35
   4.670000     -7.3333422E-35
   4.680000     -7.6449033E-35
   4.690000     -7.8931777E-35
   4.700000     -8.0581969E-35
   4.710000     -8.1877842E-35
   4.720000     -8.2790555E-35
   4.730000     -8.3266010E-35
   4.740000     -8.3230613E-35
   4.750000     -8.2460647E-35
   4.760000     -8.0830298E-35
   4.770000     -8.3603661E-35
   4.780000     -9.1526607E-35
   4.790000     -9.7006638E-35
   4.800000     -9.9683608E-35
   4.810000     -1.0236731E-34
   4.820000     -1.0517185E-34
   4.830000     -1.0604884E-34
   4.840000     -1.0464363E-34
   4.850000     -9.5822018E-35
   4.860000     -7.8834620E-35
   4.870000     -5.9896924E-35
   4.880000     -3.8562158E-35
   4.890000     -1.4753768E-35
   4.900000      1.0674848E-35
   4.910000      3.5282572E-35
   4.920000      6.0669680E-35
   4.930000      8.8473249E-35
   4.940000      1.1709881E-34
   4.950000      1.4677936E-34
   4.960000      1.7474718E-34
   4.970000      1.9909793E-34
   4.980000      2.2246754E-34
   4.990000      2.4700722E-34
   5.000000      2.7612966E-34
   5.010000      3.1039753E-34
   5.020000      3.4663664E-34
   5.030000      3.8469070E-34
   5.040000      4.2524261E-34
   5.050000      4.6634262E-34
   5.060000      5.0695251E-34
   5.070000      5.4853737E-34
   5.080000      5.9328196E-34
   5.090000      6.4199330E-34
   5.100000      6.8875933E-34
   5.110000      7.3063591E-34
   5.120000      7.6796896E-34
   5.130000      7.9941863E-34
   5.140000      8.3151458E-34
   5.150000      8.6350814E-34
   5.160000      8.9016523E-34
   5.170000      9.1751788E-34
   5.180000      9.4046197E-34
   5.190000      9.5614472E-34
   5.200000      9.7127572E-34
   5.210000      9.8344658E-34
   5.220000      9.9101888E-34
   5.230000      9.9667126E-34
   5.240000      9.9993050E-34
   5.250000      9.9921860E-34
   5.260000      9.9302411E-34
   5.270000      9.7979796E-34
   5.280000      9.5927291E-34
   5.290000      9.2956578E-34
   5.300000      8.9216926E-34
   5.310000      8.4893164E-34
   5.320000      7.9557210E-34
   5.330000      7.3048227E-34
   5.340000      6.5204658E-34
   5.350000      5.5968124E-34
   5.360000      4.5454952E-34
   5.370000      3.3560157E-34
   5.380000      2.0388412E-34
   5.390000      5.8874904E-35
   5.400000     -1.0038775E-34
   5.410000     -2.7387740E-34
   5.420000     -4.6331816E-34
   5.430000     -6.6666165E-34
   5.440000     -8.8321778E-34
   5.450000     -1.1157268E-33
   5.460000     -1.3629335E-33
   5.470000     -1.6249768E-33
   5.480000     -1.9023765E-33
   5.490000     -2.1945739E-33
   5.500000     -2.5002179E-33
   5.510000     -2.8187646E-33
   5.520000     -3.1513211E-33
   5.530000     -3.4998978E-33
   5.540000     -3.8644619E-33
   5.550000     -4.2416994E-33
   5.560000     -4.6299743E-33
   5.570000     -5.0287527E-33
   5.580000     -5.4367826E-33
   5.590000     -5.8527239E-33
   5.600000     -6.2752635E-33
   5.610000     -6.7027981E-33
   5.620000     -7.1334111E-33
   5.630000     -7.5650335E-33
   5.640000     -7.9962129E-33
   5.650000     -8.4244837E-33
   5.660000     -8.8441440E-33
   5.670000     -9.2545414E-33
   5.680000     -9.6555290E-33
   5.690000     -1.0042492E-32
   5.700000     -1.0411371E-32
   5.710000     -1.0760174E-32
   5.720000     -1.1087011E-32
   5.730000     -1.1386892E-32
   5.740000     -1.1655182E-32
   5.750000     -1.1887732E-32
   5.760000     -1.2080062E-32
   5.770000     -1.2228210E-32
   5.780000     -1.2326738E-32
   5.790000     -1.2369762E-32
   5.800000     -1.2352750E-32
   5.810000     -1.2270256E-32
   5.820000     -1.2116991E-32
   5.830000     -1.1886797E-32
   5.840000     -1.1573736E-32
   5.850000     -1.1172132E-32
   5.860000     -1.0675702E-32
   5.870000     -1.0078737E-32
   5.880000     -9.3751787E-33
   5.890000     -8.5590322E-33
   5.900000     -7.6248816E-33
   5.910000     -6.5669433E-33
   5.920000     -5.3796043E-33
   5.930000     -4.0578274E-33
   5.940000     -2.5966656E-33
   5.950000     -9.9139320E-34
   5.960000      7.6240153E-34
   5.970000      2.6687902E-33
   5.980000      4.7315459E-33
   5.990000      6.9540505E-33
   6.000000      9.3392791E-33
   6.010000      1.1889790E-32
   6.020000      1.4607657E-32
   6.030000      1.7494424E-32
   6.040000      2.0551062E-32
   6.050000      2.3777913E-32
   6.060000      2.7174620E-32
   6.070000      3.0740074E-32
   6.080000      3.4472333E-32
   6.090000      3.8369661E-32
   6.100000      4.2426245E-32
   6.110000      4.6637115E-32
   6.120000      5.0998229E-32
   6.130000      5.5501489E-32
   6.140000      6.0138585E-32
   6.150000      6.4899743E-32
   6.160000      6.9773765E-32
   6.170000      7.4748939E-32
   6.180000      7.9810007E-32
   6.190000      8.4940046E-32
   6.200000      9.0122366E-32
   6.210000      9.5337511E-32
   6.220000      1.0056418E-31
   6.230000      1.0577914E-31
   6.240000      1.1095723E-31
   6.250000      1.1607191E-31
   6.260000      1.2109332E-31
   6.270000      1.2598958E-31
   6.280000      1.3072804E-31
   6.290000      1.3527341E-31
   6.300000      1.3958836E-31
   6.310000      1.4363357E-31
   6.320000      1.4736772E-31
   6.330000      1.5074764E-31
   6.340000      1.5372801E-31
   6.350000      1.5626163E-31
   6.360000      1.5829973E-31
   6.370000      1.5979169E-31
   6.380000      1.6068514E-31
   6.390000      1.6092609E-31
   6.400000      1.6045900E-31
   6.410000      1.5922687E-31
   6.420000      1.5717138E-31
   6.430000      1.5423295E-31
   6.440000      1.5035092E-31
   6.450000      1.4546370E-31
   6.460000      1.3950895E-31
   6.470000      1.3242374E-31
   6.480000      1.2414486E-31
   6.490000      1.1460892E-31
   6.500000      1.0375274E-31
   6.510000      9.1513587E-32
   6.520000      7.7829422E-32
   6.530000      6.2639320E-32
   6.540000      4.5883794E-32
   6.550000      2.7505181E-32
   6.560000      7.4480027E-33
   6.570000     -1.4340526E-32
   6.580000     -3.7910075E-32
   6.590000     -6.3306718E-32
   6.600000     -9.0572433E-32
   6.610000     -1.1974459E-31
   6.620000     -1.5085535E-31
   6.630000     -1.8393112E-31
   6.640000     -2.1899194E-31
   6.650000     -2.5605093E-31
   6.660000     -2.9511364E-31
   6.670000     -3.3617742E-31
   6.680000     -3.7923082E-31
   6.690000     -4.2425293E-31
   6.700000     -4.7121271E-31
   6.710000     -5.2006842E-31
   6.720000     -5.7076683E-31
   6.730000     -6.2324273E-31
   6.740000     -6.7741816E-31
   6.750000     -7.3320181E-31
   6.760000     -7.9048835E-31
   6.770000     -8.4915784E-31
   6.780000     -9.0907486E-31
   6.790000     -9.7008837E-31
   6.800000     -1.0320307E-30
   6.810000     -1.0947169E-30
   6.820000     -1.1579445E-30
   6.830000     -1.2214926E-30
   6.840000     -1.2851215E-30
   6.850000     -1.3485722E-30
   6.860000     -1.4115660E-30
   6.870000     -1.4738040E-30
   6.880000     -1.5349666E-30
   6.890000     -1.5947136E-30
   6.900000     -1.6526834E-30
   6.910000     -1.7084930E-30
   6.920000     -1.7617380E-30
   6.930000     -1.8119929E-30
   6.940000     -1.8588102E-30
   6.950000     -1.9017212E-30
   6.960000     -1.9402362E-30
   6.970000     -1.9738450E-30
   6.980000     -2.0020164E-30
   6.990000     -2.0242007E-30
   7.000000     -2.0398282E-30
   7.010000     -2.0483111E-30
   7.020000     -2.0490456E-30
   7.030000     -2.0414105E-30
   7.040000     -2.0247710E-30
   7.050000     -1.9984788E-30
   7.060000     -1.9618736E-30