  -2.600000      0.0000000E+00
  -2.590000      0.0000000E+00
  -2.580000      0.0000000E+00
  -2.570000      0.0000000E+00
  -2.560000      0.0000000E+00
  -2.550000      0.0000000E+00
  -2.540000      0.0000000E+00
  -2.530000      0.0000000E+00
  -2.520000      0.0000000E+00
  -2.510000      0.0000000E+00
  -2.500000      0.0000000E+00
  -2.490000      0.0000000E+00
  -2.480000      0.0000000E+00
  -2.470000      0.0000000E+00
  -2.460000      0.0000000E+00
  -2.450000      0.0000000E+00
  -2.440000      0.0000000E+00
  -2.430000      0.0000000E+00
  -2.420000      0.0000000E+00
  -2.410000      0.0000000E+00
  -2.400000      0.0000000E+00
  -2.390000      0.0000000E+00
  -2.380000      0.0000000E+00
  -2.370000      0.0000000E+00
  -2.360000      0.0000000E+00
  -2.350000      0.0000000E+00
  -2.340000      0.0000000E+00
  -2.330000      0.0000000E+00
  -2.320000      0.0000000E+00
  -2.310000      0.0000000E+00
  -2.300000      0.0000000E+00
  -2.290000      0.0000000E+00
  -2.280000      0.0000000E+00
  -2.270000      0.0000000E+00
  -2.260000      0.0000000E+00
  -2.250000      0.0000000E+00
  -2.240000      0.0000000E+00
  -2.230000      0.0000000E+00
  -2.220000      0.0000000E+00
  -2.210000      0.0000000E+00
  -2.200000      0.0000000E+00
  -2.190000      0.0000000E+00
  -2.180000      0.0000000E+00
  -2.170000      0.0000000E+00
  -2.160000      0.0000000E+00
  -2.150000      0.0000000E+00
  -2.140000      0.0000000E+00
  -2.130000      0.0000000E+00
  -2.120000      0.0000000E+00
  -2.110000      0.0000000E+00
  -2.100000      0.0000000E+00
  -2.090000      0.0000000E+00
  -2.080000      0.0000000E+00
  -2.070000      0.0000000E+00
  -2.060000      0.0000000E+00
  -2.050000      0.0000000E+00
  -2.040000      0.0000000E+00
  -2.030000      0.0000000E+00
  -2.020000      0.0000000E+00
  -2.010000      0.0000000E+00
  -2.000000      0.0000000E+00
  -1.990000      0.0000000E+00
  -1.980000      0.0000000E+00
  -1.970000      0.0000000E+00
  -1.960000      0.0000000E+00
  -1.950000      0.0000000E+00
  -1.940000      0.0000000E+00
  -1.930000      0.0000000E+00
  -1.920000      0.0000000E+00
  -1.910000      0.0000000E+00
  -1.900000      0.0000000E+00
  -1.890000      0.0000000E+00
  -1.880000      0.0000000E+00
  -1.870000      0.0000000E+00
  -1.860000      0.0000000E+00
  -1.850000      0.0000000E+00
  -1.840000      0.0000000E+00
  -1.830000      0.0000000E+00
  -1.820000      0.0000000E+00
  -1.810000      0.0000000E+00
  -1.800000      0.0000000E+00
  -1.790000      0.0000000E+00
  -1.780000      0.0000000E+00
  -1.770000      0.0000000E+00
  -1.760000      0.0000000E+00
  -1.750000      0.0000000E+00
  -1.740000      0.0000000E+00
  -1.730000      0.0000000E+00
  -1.720000      0.0000000E+00
  -1.710000      0.0000000E+00
  -1.700000      0.0000000E+00
  -1.690000      0.0000000E+00
  -1.680000      0.0000000E+00
  -1.670000      0.0000000E+00
  -1.660000      0.0000000E+00
  -1.650000      0.0000000E+00
  -1.640000      0.0000000E+00
  -1.630000      0.0000000E+00
  -1.620000      0.0000000E+00
  -1.610000      0.0000000E+00
  -1.600000      0.0000000E+00
  -1.590000      0.0000000E+00
  -1.580000      0.0000000E+00
  -1.570000      0.0000000E+00
  -1.560000      0.0000000E+00
  -1.550000      0.0000000E+00
  -1.540000      0.0000000E+00
  -1.530000      0.0000000E+00
  -1.520000      0.0000000E+00
  -1.510000      0.0000000E+00
  -1.500000      0.0000000E+00
  -1.490000      0.0000000E+00
  -1.480000      0.0000000E+00
  -1.470000      0.0000000E+00
  -1.460000      0.0000000E+00
  -1.450000      0.0000000E+00
  -1.440000      0.0000000E+00
  -1.430000      0.0000000E+00
  -1.420000      0.0000000E+00
  -1.410000      0.0000000E+00
  -1.400000      0.0000000E+00
  -1.390000      0.0000000E+00
  -1.380000      0.0000000E+00
  -1.370000      0.0000000E+00
  -1.360000      0.0000000E+00
  -1.350000      0.0000000E+00
  -1.340000      0.0000000E+00
  -1.330000      0.0000000E+00
  -1.320000      0.0000000E+00
  -1.310000      0.0000000E+00
  -1.300000      0.0000000E+00
  -1.290000      0.0000000E+00
  -1.280000      0.0000000E+00
  -1.270000      0.0000000E+00
  -1.260000      0.0000000E+00
  -1.250000      0.0000000E+00
  -1.240000      0.0000000E+00
  -1.230000      0.0000000E+00
  -1.220000      0.0000000E+00
  -1.210000      0.0000000E+00
  -1.200000      0.0000000E+00
  -1.190000      0.0000000E+00
  -1.180000      0.0000000E+00
  -1.170000      0.0000000E+00
  -1.160000      0.0000000E+00
  -1.150000      0.0000000E+00
  -1.140000      0.0000000E+00
  -1.130000      0.0000000E+00
  -1.120000      0.0000000E+00
  -1.110000      0.0000000E+00
  -1.100000      0.0000000E+00
  -1.090000      0.0000000E+00
  -1.080000      0.0000000E+00
  -1.070000      0.0000000E+00
  -1.060000      0.0000000E+00
  -1.050000      0.0000000E+00
  -1.040000      0.0000000E+00
  -1.030000      0.0000000E+00
  -1.020000      0.0000000E+00
  -1.010000      0.0000000E+00
  -1.000000      0.0000000E+00
 -0.9900000      0.0000000E+00
 -0.9800000      0.0000000E+00
 -0.9700000      0.0000000E+00
 -0.9600000      0.0000000E+00
 -0.9500000      0.0000000E+00
 -0.9400000      0.0000000E+00
 -0.9300000      0.0000000E+00
 -0.9200000      0.0000000E+00
 -0.9100000      0.0000000E+00
 -0.9000000      0.0000000E+00
 -0.8900000      0.0000000E+00
 -0.8800000      0.0000000E+00
 -0.8700000      0.0000000E+00
 -0.8600000      0.0000000E+00
 -0.8500000      0.0000000E+00
 -0.8400000      0.0000000E+00
 -0.8300000      0.0000000E+00
 -0.8200000      0.0000000E+00
 -0.8100000      0.0000000E+00
 -0.8000000      0.0000000E+00
 -0.7900000      0.0000000E+00
 -0.7800000      0.0000000E+00
 -0.7700000      0.0000000E+00
 -0.7600000      0.0000000E+00
 -0.7500000      0.0000000E+00
 -0.7400000      0.0000000E+00
 -0.7300000      0.0000000E+00
 -0.7200000      0.0000000E+00
 -0.7100000      0.0000000E+00
 -0.7000000      0.0000000E+00
 -0.6900000      0.0000000E+00
 -0.6800000      0.0000000E+00
 -0.6700000      0.0000000E+00
 -0.6600000      0.0000000E+00
 -0.6500000      0.0000000E+00
 -0.6400000      0.0000000E+00
 -0.6300000      0.0000000E+00
 -0.6200000      0.0000000E+00
 -0.6100000      0.0000000E+00
 -0.6000000      0.0000000E+00
 -0.5900000      0.0000000E+00
 -0.5800000      0.0000000E+00
 -0.5700000      0.0000000E+00
 -0.5600000      0.0000000E+00
 -0.5500000      0.0000000E+00
 -0.5400000      0.0000000E+00
 -0.5300000      0.0000000E+00
 -0.5200000      0.0000000E+00
 -0.5100000      0.0000000E+00
 -0.5000000      0.0000000E+00
 -0.4900000      0.0000000E+00
 -0.4800000      0.0000000E+00
 -0.4700000      0.0000000E+00
 -0.4600000      0.0000000E+00
 -0.4500000      0.0000000E+00
 -0.4400000      0.0000000E+00
 -0.4300000      0.0000000E+00
 -0.4200000      0.0000000E+00
 -0.4100000      0.0000000E+00
 -0.4000000      0.0000000E+00
 -0.3900000      0.0000000E+00
 -0.3800000      0.0000000E+00
 -0.3700000      0.0000000E+00
 -0.3600000      0.0000000E+00
 -0.3500000      0.0000000E+00
 -0.3400000      0.0000000E+00
 -0.3300000      0.0000000E+00
 -0.3200000      0.0000000E+00
 -0.3100000      0.0000000E+00
 -0.3000000      0.0000000E+00
 -0.2900000      0.0000000E+00
 -0.2800000      0.0000000E+00
 -0.2700000      0.0000000E+00
 -0.2600000      0.0000000E+00
 -0.2500000      0.0000000E+00
 -0.2400000      0.0000000E+00
 -0.2300000      0.0000000E+00
 -0.2200000      0.0000000E+00
 -0.2100000      0.0000000E+00
 -0.2000000      0.0000000E+00
 -0.1900000      0.0000000E+00
 -0.1800000      0.0000000E+00
 -0.1700000      0.0000000E+00
 -0.1600000      0.0000000E+00
 -0.1500000      0.0000000E+00
 -0.1400000      0.0000000E+00
 -0.1300000      0.0000000E+00
 -0.1200000      0.0000000E+00
 -0.1100000      0.0000000E+00
 -0.1000000      0.0000000E+00
 -9.0000004E-02  0.0000000E+00
 -7.9999998E-02  0.0000000E+00
 -7.0000000E-02  0.0000000E+00
 -5.9999999E-02  0.0000000E+00
 -5.0000001E-02  0.0000000E+00
 -3.9999999E-02  0.0000000E+00
 -2.9999999E-02  0.0000000E+00
 -2.0000000E-02  0.0000000E+00
 -9.9999998E-03  0.0000000E+00
 -3.4694470E-17  0.0000000E+00
  9.9999998E-03  0.0000000E+00
  2.0000000E-02  0.0000000E+00
  2.9999999E-02  0.0000000E+00
  3.9999999E-02  0.0000000E+00
  5.0000001E-02  0.0000000E+00
  5.9999999E-02  0.0000000E+00
  7.0000000E-02  0.0000000E+00
  7.9999998E-02  0.0000000E+00
  9.0000004E-02  0.0000000E+00
  0.1000000      0.0000000E+00
  0.1100000      0.0000000E+00
  0.1200000      0.0000000E+00
  0.1300000      0.0000000E+00
  0.1400000      0.0000000E+00
  0.1500000      0.0000000E+00
  0.1600000      0.0000000E+00
  0.1700000      0.0000000E+00
  0.1800000      0.0000000E+00
  0.1900000      0.0000000E+00
  0.2000000      0.0000000E+00
  0.2100000      0.0000000E+00
  0.2200000      0.0000000E+00
  0.2300000      0.0000000E+00
  0.2400000      0.0000000E+00
  0.2500000      0.0000000E+00
  0.2600000      0.0000000E+00
  0.2700000      0.0000000E+00
  0.2800000      0.0000000E+00
  0.2900000      0.0000000E+00
  0.3000000      0.0000000E+00
  0.3100000      0.0000000E+00
  0.3200000      0.0000000E+00
  0.3300000      0.0000000E+00
  0.3400000      0.0000000E+00
  0.3500000      0.0000000E+00
  0.3600000      0.0000000E+00
  0.3700000      0.0000000E+00
  0.3800000      0.0000000E+00
  0.3900000      0.0000000E+00
  0.4000000      0.0000000E+00
  0.4100000      0.0000000E+00
  0.4200000      0.0000000E+00
  0.4300000      0.0000000E+00
  0.4400000      0.0000000E+00
  0.4500000      0.0000000E+00
  0.4600000      0.0000000E+00
  0.4700000      0.0000000E+00
  0.4800000      0.0000000E+00
  0.4900000      0.0000000E+00
  0.5000000      0.0000000E+00
  0.5100000      0.0000000E+00
  0.5200000      0.0000000E+00
  0.5300000      0.0000000E+00
  0.5400000      0.0000000E+00
  0.5500000      0.0000000E+00
  0.5600000      0.0000000E+00
  0.5700000      0.0000000E+00
  0.5800000      0.0000000E+00
  0.5900000      0.0000000E+00
  0.6000000      0.0000000E+00
  0.6100000      0.0000000E+00
  0.6200000      0.0000000E+00
  0.6300000      0.0000000E+00
  0.6400000      0.0000000E+00
  0.6500000      0.0000000E+00
  0.6600000      0.0000000E+00
  0.6700000      0.0000000E+00
  0.6800000      0.0000000E+00
  0.6900000      0.0000000E+00
  0.7000000      0.0000000E+00
  0.7100000      0.0000000E+00
  0.7200000      0.0000000E+00
  0.7300000      0.0000000E+00
  0.7400000      0.0000000E+00
  0.7500000      0.0000000E+00
  0.7600000      0.0000000E+00
  0.7700000      0.0000000E+00
  0.7800000      0.0000000E+00
  0.7900000      0.0000000E+00
  0.8000000      0.0000000E+00
  0.8100000      0.0000000E+00
  0.8200000      0.0000000E+00
  0.8300000      0.0000000E+00
  0.8400000      0.0000000E+00
  0.8500000      0.0000000E+00
  0.8600000      0.0000000E+00
  0.8700000      0.0000000E+00
  0.8800000      0.0000000E+00
  0.8900000      0.0000000E+00
  0.9000000      0.0000000E+00
  0.9100000      0.0000000E+00
  0.9200000      0.0000000E+00
  0.9300000      0.0000000E+00
  0.9400000      0.0000000E+00
  0.9500000      0.0000000E+00
  0.9600000      0.0000000E+00
  0.9700000      0.0000000E+00
  0.9800000      0.0000000E+00
  0.9900000      0.0000000E+00
   1.000000      0.0000000E+00
   1.010000      0.0000000E+00
   1.020000      0.0000000E+00
   1.030000      0.0000000E+00
   1.040000      0.0000000E+00
   1.050000      0.0000000E+00
   1.060000      0.0000000E+00
   1.070000      0.0000000E+00
   1.080000      0.0000000E+00
   1.090000      0.0000000E+00
   1.100000      0.0000000E+00
   1.110000      0.0000000E+00
   1.120000      0.0000000E+00
   1.130000      0.0000000E+00
   1.140000      0.0000000E+00
   1.150000      0.0000000E+00
   1.160000      0.0000000E+00
   1.170000      0.0000000E+00
   1.180000      0.0000000E+00
   1.190000      0.0000000E+00
   1.200000      0.0000000E+00
   1.210000      0.0000000E+00
   1.220000      0.0000000E+00
   1.230000      0.0000000E+00
   1.240000      0.0000000E+00
   1.250000      0.0000000E+00
   1.260000      0.0000000E+00
   1.270000      0.0000000E+00
   1.280000      0.0000000E+00
   1.290000      0.0000000E+00
   1.300000      0.0000000E+00
   1.310000      0.0000000E+00
   1.320000      0.0000000E+00
   1.330000      0.0000000E+00
   1.340000      0.0000000E+00
   1.350000      0.0000000E+00
   1.360000      0.0000000E+00
   1.370000      0.0000000E+00
   1.380000      0.0000000E+00
   1.390000      0.0000000E+00
   1.400000      0.0000000E+00
   1.410000      0.0000000E+00
   1.420000      0.0000000E+00
   1.430000      0.0000000E+00
   1.440000      0.0000000E+00
   1.450000      0.0000000E+00
   1.460000      0.0000000E+00
   1.470000      0.0000000E+00
   1.480000      0.0000000E+00
   1.490000      0.0000000E+00
   1.500000      0.0000000E+00
   1.510000      0.0000000E+00
   1.520000      0.0000000E+00
   1.530000      0.0000000E+00
   1.540000      0.0000000E+00
   1.550000      0.0000000E+00
   1.560000      0.0000000E+00
   1.570000      0.0000000E+00
   1.580000      0.0000000E+00
   1.590000      0.0000000E+00
   1.600000      0.0000000E+00
   1.610000      0.0000000E+00
   1.620000      0.0000000E+00
   1.630000      0.0000000E+00
   1.640000      0.0000000E+00
   1.650000      0.0000000E+00
   1.660000      0.0000000E+00
   1.670000      0.0000000E+00
   1.680000      0.0000000E+00
   1.690000      0.0000000E+00
   1.700000      0.0000000E+00
   1.710000      0.0000000E+00
   1.720000      0.0000000E+00
   1.730000      0.0000000E+00
   1.740000      0.0000000E+00
   1.750000      0.0000000E+00
   1.760000      0.0000000E+00
   1.770000      0.0000000E+00
   1.780000      0.0000000E+00
   1.790000      0.0000000E+00
   1.800000      0.0000000E+00
   1.810000      0.0000000E+00
   1.820000      0.0000000E+00
   1.830000      0.0000000E+00
   1.840000      0.0000000E+00
   1.850000      0.0000000E+00
   1.860000      0.0000000E+00
   1.870000      0.0000000E+00
   1.880000      0.0000000E+00
   1.890000      0.0000000E+00
   1.900000      0.0000000E+00
   1.910000      0.0000000E+00
   1.920000      0.0000000E+00
   1.930000      0.0000000E+00
   1.940000      0.0000000E+00
   1.950000      0.0000000E+00
   1.960000      0.0000000E+00
   1.970000      0.0000000E+00
   1.980000      0.0000000E+00
   1.990000      0.0000000E+00
   2.000000      0.0000000E+00
   2.010000      0.0000000E+00
   2.020000      0.0000000E+00
   2.030000      0.0000000E+00
   2.040000      0.0000000E+00
   2.050000      0.0000000E+00
   2.060000      0.0000000E+00
   2.070000      0.0000000E+00
   2.080000      0.0000000E+00
   2.090000      0.0000000E+00
   2.100000      0.0000000E+00
   2.110000      0.0000000E+00
   2.120000      0.0000000E+00
   2.130000      0.0000000E+00
   2.140000      0.0000000E+00
   2.150000      0.0000000E+00
   2.160000      0.0000000E+00
   2.170000      0.0000000E+00
   2.180000      0.0000000E+00
   2.190000      0.0000000E+00
   2.200000      0.0000000E+00
   2.210000      0.0000000E+00
   2.220000      0.0000000E+00
   2.230000      0.0000000E+00
   2.240000      0.0000000E+00
   2.250000      0.0000000E+00
   2.260000      0.0000000E+00
   2.270000      0.0000000E+00
   2.280000      0.0000000E+00
   2.290000      0.0000000E+00
   2.300000      0.0000000E+00
   2.310000      0.0000000E+00
   2.320000      0.0000000E+00
   2.330000      0.0000000E+00
   2.340000      0.0000000E+00
   2.350000      0.0000000E+00
   2.360000      0.0000000E+00
   2.370000      0.0000000E+00
   2.380000      0.0000000E+00
   2.390000      0.0000000E+00
   2.400000      0.0000000E+00
   2.410000      0.0000000E+00
   2.420000      0.0000000E+00
   2.430000      0.0000000E+00
   2.440000      0.0000000E+00
   2.450000      0.0000000E+00
   2.460000      0.0000000E+00
   2.470000      0.0000000E+00
   2.480000      0.0000000E+00
   2.490000      0.0000000E+00
   2.500000      0.0000000E+00
   2.510000      0.0000000E+00
   2.520000      0.0000000E+00
   2.530000      0.0000000E+00
   2.540000      0.0000000E+00
   2.550000      0.0000000E+00
   2.560000      0.0000000E+00
   2.570000      0.0000000E+00
   2.580000      0.0000000E+00
   2.590000      0.0000000E+00
   2.600000      0.0000000E+00
   2.610000      0.0000000E+00
   2.620000      0.0000000E+00
   2.630000      0.0000000E+00
   2.640000      0.0000000E+00
   2.650000      0.0000000E+00
   2.660000      0.0000000E+00
   2.670000      0.0000000E+00
   2.680000      0.0000000E+00
   2.690000      0.0000000E+00
   2.700000      0.0000000E+00
   2.710000      0.0000000E+00
   2.720000      0.0000000E+00
   2.730000      0.0000000E+00
   2.740000      0.0000000E+00
   2.750000      0.0000000E+00
   2.760000      0.0000000E+00
   2.770000      0.0000000E+00
   2.780000      0.0000000E+00
   2.790000      0.0000000E+00
   2.800000      0.0000000E+00
   2.810000      0.0000000E+00
   2.820000      0.0000000E+00
   2.830000      0.0000000E+00
   2.840000      0.0000000E+00
   2.850000      0.0000000E+00
   2.860000      0.0000000E+00
   2.870000      0.0000000E+00
   2.880000      0.0000000E+00
   2.890000      0.0000000E+00
   2.900000      0.0000000E+00
   2.910000      0.0000000E+00
   2.920000      0.0000000E+00
   2.930000      0.0000000E+00
   2.940000      0.0000000E+00
   2.950000      0.0000000E+00
   2.960000      0.0000000E+00
   2.970000      0.0000000E+00
   2.980000      0.0000000E+00
   2.990000      0.0000000E+00
   3.000000      0.0000000E+00
   3.010000      0.0000000E+00
   3.020000      0.0000000E+00
   3.030000      0.0000000E+00
   3.040000      0.0000000E+00
   3.050000      0.0000000E+00
   3.060000      0.0000000E+00
   3.070000      0.0000000E+00
   3.080000      0.0000000E+00
   3.090000      0.0000000E+00
   3.100000      0.0000000E+00
   3.110000      0.0000000E+00
   3.120000      0.0000000E+00
   3.130000      0.0000000E+00
   3.140000      0.0000000E+00
   3.150000      0.0000000E+00
   3.160000      0.0000000E+00
   3.170000      0.0000000E+00
   3.180000      1.3879844E-38
   3.190000      1.7153381E-38
   3.200000      2.0241325E-38
   3.210000      2.2842034E-38
   3.220000      2.4336342E-38
   3.230000      2.4937530E-38
   3.240000      2.5342514E-38
   3.250000      2.6490141E-38
   3.260000      2.8522514E-38
   3.270000      3.0316179E-38
   3.280000      3.1869361E-38
   3.290000      3.3469117E-38
   3.300000      3.5060636E-38
   3.310000      3.6806996E-38
   3.320000      3.8714939E-38
   3.330000      3.9465133E-38
   3.340000      3.9224617E-38
   3.350000      3.9551708E-38
   3.360000      4.0298303E-38
   3.370000      4.1104358E-38
   3.380000      4.2234427E-38
   3.390000      4.1765681E-38
   3.400000      3.8627524E-38
   3.410000      3.3440463E-38
   3.420000      2.7366877E-38
   3.430000      2.1627786E-38
   3.440000      1.5408169E-38
   3.450000      0.0000000E+00
   3.460000      0.0000000E+00
   3.470000      0.0000000E+00
   3.480000      0.0000000E+00
   3.490000     -1.5514224E-38
   3.500000     -2.3378301E-38
   3.510000     -3.2239514E-38
   3.520000     -4.2253622E-38
   3.530000     -5.5013902E-38
   3.540000     -7.2956021E-38
   3.550000     -9.4290425E-38
   3.560000     -1.1547059E-37
   3.570000     -1.3441787E-37
   3.580000     -1.4781100E-37
   3.590000     -1.5739746E-37
   3.600000     -1.6377061E-37
   3.610000     -1.6634618E-37
   3.620000     -1.6783207E-37
   3.630000     -1.6578651E-37
   3.640000     -1.5734215E-37
   3.650000     -1.4629118E-37
   3.660000     -1.3763672E-37
   3.670000     -1.3181890E-37
   3.680000     -1.2779966E-37
   3.690000     -1.4941528E-37
   3.700000     -2.0224423E-37
   3.710000     -2.6092998E-37
   3.720000     -3.0827712E-37
   3.730000     -3.3771336E-37
   3.740000     -3.5434771E-37
   3.750000     -3.6467555E-37
   3.760000     -3.5610440E-37
   3.770000     -3.2666610E-37
   3.780000     -2.8876643E-37
   3.790000     -2.4978217E-37
   3.800000     -2.2635609E-37
   3.810000     -2.1366495E-37
   3.820000     -1.9933491E-37
   3.830000     -1.9028301E-37
   3.840000     -1.7154125E-37
   3.850000     -1.3154809E-37
   3.860000     -7.4665027E-38
   3.870000      0.0000000E+00
   3.880000      6.5499992E-38
   3.890000      9.5110914E-38
   3.900000      1.5460715E-37
   3.910000      2.5463373E-37
   3.920000      3.4979358E-37
   3.930000      3.4450434E-37
   3.940000      2.3947132E-37
   3.950000      1.3915322E-37
   3.960000      4.6502622E-38
   3.970000     -2.4331508E-38
   3.980000     -8.0474822E-38
   3.990000     -1.5416807E-37
   4.000000     -2.3985174E-37
   4.010000     -1.2688834E-37
   4.020000      3.0220407E-37
   4.030000      9.0880335E-37
   4.040000      1.6081149E-36
   4.050000      2.3476078E-36
   4.060000      3.0416103E-36
   4.070000      3.4726631E-36
   4.080000      3.7145912E-36
   4.090000      4.0459620E-36
   4.100000      4.4270413E-36
   4.110000      4.7794223E-36
   4.120000      4.8320706E-36
   4.130000      4.6119689E-36
   4.140000      4.3414004E-36
   4.150000      3.9779090E-36
   4.160000      3.5589365E-36
   4.170000      3.0382834E-36
   4.180000      2.4675235E-36
   4.190000      2.0186242E-36
   4.200000      1.9272436E-36
   4.210000      2.0852439E-36
   4.220000      2.4028919E-36
   4.230000      3.0713101E-36
   4.240000      4.0946768E-36
   4.250000      5.3388286E-36
   4.260000      6.4378964E-36
   4.270000      7.3293113E-36
   4.280000      8.1573568E-36
   4.290000      8.8994730E-36
   4.300000      9.4396975E-36
   4.310000      9.2406986E-36
   4.320000      8.1718066E-36
   4.330000      6.5183257E-36
   4.340000      4.6004960E-36
   4.350000      2.7433715E-36
   4.360000      3.5743698E-37
   4.370000     -2.6756170E-36
   4.380000     -5.6475863E-36
   4.390000     -8.1588470E-36
   4.400000     -9.8274456E-36
   4.410000     -1.0456743E-35
   4.420000     -1.0666640E-35
   4.430000     -1.0975537E-35
   4.440000     -1.1280418E-35
   4.450000     -1.1936508E-35
   4.460000     -1.2642166E-35
   4.470000     -1.2985426E-35
   4.480000     -1.3428059E-35
   4.490000     -1.4293209E-35
   4.500000     -1.5666575E-35
   4.510000     -1.7913191E-35
   4.520000     -2.0933474E-35
   4.530000     -2.4120590E-35
   4.540000     -2.7311613E-35
   4.550000     -3.0302494E-35
   4.560000     -3.3553462E-35
   4.570000     -3.6948026E-35
   4.580000     -3.9827350E-35
   4.590000     -4.2933132E-35
   4.600000     -4.6509108E-35
   4.610000     -5.0484021E-35
   4.620000     -5.3429851E-35
   4.630000     -5.4778616E-35
   4.640000     -5.6685471E-35
   4.650000     -5.9012325E-35
   4.660000     -6.0936841E-35
   4.670000     -6.2502837E-35
   4.680000     -6.3913000E-35
   4.690000     -6.5517900E-35
   4.700000     -6.6287757E-35
   4.710000     -6.7208562E-35
   4.720000     -5.9256521E-35
   4.730000     -4.0662499E-35
   4.740000     -2.1084209E-35
   4.750000     -3.7174173E-36
   4.760000      5.2505176E-36
   4.770000      9.4089118E-36
   4.780000      1.3775284E-35
   4.790000      1.3497212E-35
   4.800000      9.4020298E-36
   4.810000      4.7008374E-36
   4.820000     -7.8290317E-37
   4.830000     -1.1106586E-35
   4.840000     -2.7184176E-35
   4.850000     -4.6641664E-35
   4.860000     -6.8681764E-35
   4.870000     -8.7238969E-35
   4.880000     -9.3734413E-35
   4.890000     -7.9672464E-35
   4.900000     -4.4173611E-35
   4.910000      5.9405674E-36
   4.920000      6.3247267E-35
   4.930000      1.2588746E-34
   4.940000      1.8982508E-34
   4.950000      2.5106674E-34
   4.960000      3.0797858E-34
   4.970000      3.5423049E-34
   4.980000      3.7630497E-34
   4.990000      3.7285287E-34
   5.000000      3.5436324E-34
   5.010000      3.2776015E-34
   5.020000      2.9920971E-34
   5.030000      2.7818797E-34
   5.040000      2.7155325E-34
   5.050000      2.7776769E-34
   5.060000      2.9871745E-34
   5.070000      3.3518133E-34
   5.080000      3.8324858E-34
   5.090000      4.3644829E-34
   5.100000      4.8878961E-34
   5.110000      5.3449108E-34
   5.120000      5.7126114E-34
   5.130000      5.9041243E-34
   5.140000      5.8995963E-34
   5.150000      5.8028729E-34
   5.160000      5.5595616E-34
   5.170000      5.1277424E-34
   5.180000      4.6364964E-34
   5.190000      4.1990082E-34
   5.200000      3.8573957E-34
   5.210000      3.6562925E-34
   5.220000      3.6463855E-34
   5.230000      3.7168408E-34
   5.240000      3.8354216E-34
   5.250000      3.9573027E-34
   5.260000      4.0152830E-34
   5.270000      4.0216839E-34
   5.280000      3.8828773E-34
   5.290000      3.5340661E-34
   5.300000      2.9339985E-34
   5.310000      2.0686602E-34
   5.320000      9.8663224E-35
   5.330000     -2.6105683E-35
   5.340000     -1.6669709E-34
   5.350000     -3.1887773E-34
   5.360000     -4.7488447E-34
   5.370000     -6.2788617E-34
   5.380000     -7.7408884E-34
   5.390000     -9.1246381E-34
   5.400000     -1.0432035E-33
   5.410000     -1.1671979E-33
   5.420000     -1.2896824E-33
   5.430000     -1.4150860E-33
   5.440000     -1.5464183E-33
   5.450000     -1.6887122E-33
   5.460000     -1.8460612E-33
   5.470000     -2.0195235E-33
   5.480000     -2.2090020E-33
   5.490000     -2.4135880E-33
   5.500000     -2.6302035E-33
   5.510000     -2.8530866E-33
   5.520000     -3.0768884E-33
   5.530000     -3.2969972E-33
   5.540000     -3.5074768E-33
   5.550000     -3.7048390E-33
   5.560000     -3.8870590E-33
   5.570000     -4.0537430E-33
   5.580000     -4.2072607E-33
   5.590000     -4.3488053E-33
   5.600000     -4.4817250E-33
   5.610000     -4.6114647E-33
   5.620000     -4.7409744E-33
   5.630000     -4.8761915E-33
   5.640000     -5.0137758E-33
   5.650000     -5.1483207E-33
   5.660000     -5.2808463E-33
   5.670000     -5.4066701E-33
   5.680000     -5.5187686E-33
   5.690000     -5.6103458E-33
   5.700000     -5.6732652E-33
   5.710000     -5.7033006E-33
   5.720000     -5.6902791E-33
   5.730000     -5.6250196E-33
   5.740000     -5.5086156E-33
   5.750000     -5.3402334E-33
   5.760000     -5.1206584E-33
   5.770000     -4.8516586E-33
   5.780000     -4.5362805E-33
   5.790000     -4.1776261E-33
   5.800000     -3.7773920E-33
   5.810000     -3.3354909E-33
   5.820000     -2.8532106E-33
   5.830000     -2.3253093E-33
   5.840000     -1.7449134E-33
   5.850000     -1.1108233E-33
   5.860000     -4.1371850E-34
   5.870000      3.5550184E-34
   5.880000      1.2009984E-33
   5.890000      2.1275539E-33
   5.900000      3.1384913E-33
   5.910000      4.2352540E-33
   5.920000      5.4171518E-33
   5.930000      6.6818052E-33
   5.940000      8.0255128E-33
   5.950000      9.4438643E-33
   5.960000      1.0932230E-32
   5.970000      1.2487692E-32
   5.980000      1.4105909E-32
   5.990000      1.5783877E-32
   6.000000      1.7522567E-32
   6.010000      1.9323085E-32
   6.020000      2.1187503E-32
   6.030000      2.3118199E-32
   6.040000      2.5117179E-32
   6.050000      2.7185390E-32
   6.060000      2.9322095E-32
   6.070000      3.1524225E-32
   6.080000      3.3786094E-32
   6.090000      3.6099461E-32
   6.100000      3.8453506E-32
   6.110000      4.0835337E-32
   6.120000      4.3230653E-32
   6.130000      4.5624268E-32
   6.140000      4.8000845E-32
   6.150000      5.0345588E-32
   6.160000      5.2644033E-32
   6.170000      5.4882773E-32
   6.180000      5.7049691E-32
   6.190000      5.9133096E-32
   6.200000      6.1121480E-32
   6.210000      6.3001925E-32
   6.220000      6.4761928E-32
   6.230000      6.6387260E-32
   6.240000      6.7859590E-32
   6.250000      6.9158676E-32
   6.260000      7.0261584E-32
   6.270000      7.1142799E-32
   6.280000      7.1774745E-32
   6.290000      7.2128251E-32
   6.300000      7.2173390E-32
   6.310000      7.1880098E-32
   6.320000      7.1218783E-32
   6.330000      7.0160838E-32
   6.340000      6.8678927E-32
   6.350000      6.6747026E-32
   6.360000      6.4340207E-32
   6.370000      6.1434279E-32
   6.380000      5.8005280E-32
   6.390000      5.4028906E-32
   6.400000      4.9479990E-32
   6.410000      4.4332103E-32
   6.420000      3.8557376E-32
   6.430000      3.2126510E-32
   6.440000      2.5009098E-32
   6.450000      1.7174105E-32
   6.460000      8.5906053E-33
   6.470000     -7.7138878E-34
   6.480000     -1.0940130E-32
   6.490000     -2.1941285E-32
   6.500000     -3.3797288E-32
   6.510000     -4.6526860E-32
   6.520000     -6.0144744E-32
   6.530000     -7.4661671E-32
   6.540000     -9.0084533E-32
   6.550000     -1.0641672E-31
   6.560000     -1.2365846E-31
   6.570000     -1.4180718E-31
   6.580000     -1.6085773E-31
   6.590000     -1.8080242E-31
   6.600000     -2.0163095E-31
   6.610000     -2.2332996E-31
   6.620000     -2.4588253E-31
   6.630000     -2.6926711E-31
   6.640000     -2.9345695E-31
   6.650000     -3.1841885E-31
   6.660000     -3.4411245E-31
   6.670000     -3.7049038E-31
   6.680000     -3.9749431E-31
   6.690000     -4.2505702E-31
   6.700000     -4.5310422E-31
   6.710000     -4.8155165E-31
   6.720000     -5.1030612E-31
   6.730000     -5.3926598E-31
   6.740000     -5.6832124E-31
   6.750000     -5.9735426E-31
   6.760000     -6.2623949E-31
   6.770000     -6.5484369E-31
   6.780000     -6.8302579E-31
   6.790000     -7.1063636E-31
   6.800000     -7.3751710E-31
   6.810000     -7.6350018E-31
   6.820000     -7.8840768E-31
   6.830000     -8.1205125E-31
   6.840000     -8.3423094E-31
   6.850000     -8.5473551E-31
   6.860000     -8.7334256E-31
   6.870000     -8.8981810E-31
   6.880000     -9.0391773E-31
   6.890000     -9.1538689E-31
   6.900000     -9.2396179E-31
   6.910000     -9.2937075E-31
   6.920000     -9.3133430E-31
   6.930000     -9.2956673E-31
   6.940000     -9.2377653E-31
   6.950000     -9.1366737E-31
   6.960000     -8.9893796E-31
   6.970000     -8.7928322E-31
   6.980000     -8.5439406E-31
   6.990000     -8.2395778E-31
   7.000000     -7.8765880E-31
   7.010000     -7.4517939E-31
   7.020000     -6.9620007E-31
   7.030000     -6.4040105E-31
   7.040000     -5.7746404E-31
   7.050000     -5.0707314E-31
   7.060000     -4.2891753E-31