  -2.600000      0.0000000E+00
  -2.590000      0.0000000E+00
  -2.580000      0.0000000E+00
  -2.570000      0.0000000E+00
  -2.560000      0.0000000E+00
  -2.550000      0.0000000E+00
  -2.540000      0.0000000E+00
  -2.530000      0.0000000E+00
  -2.520000      0.0000000E+00
  -2.510000      0.0000000E+00
  -2.500000      0.0000000E+00
  -2.490000      0.0000000E+00
  -2.480000      0.0000000E+00
  -2.470000      0.0000000E+00
  -2.460000      0.0000000E+00
  -2.450000      0.0000000E+00
  -2.440000      0.0000000E+00
  -2.430000      0.0000000E+00
  -2.420000      0.0000000E+00
  -2.410000      0.0000000E+00
  -2.400000      0.0000000E+00
  -2.390000      0.0000000E+00
  -2.380000      0.0000000E+00
  -2.370000      0.0000000E+00
  -2.360000      0.0000000E+00
  -2.350000      0.0000000E+00
  -2.340000      0.0000000E+00
  -2.330000      0.0000000E+00
  -2.320000      0.0000000E+00
  -2.310000      0.0000000E+00
  -2.300000      0.0000000E+00
  -2.290000      0.0000000E+00
  -2.280000      0.0000000E+00
  -2.270000      0.0000000E+00
  -2.260000      0.0000000E+00
  -2.250000      0.0000000E+00
  -2.240000      0.0000000E+00
  -2.230000      0.0000000E+00
  -2.220000      0.0000000E+00
  -2.210000      0.0000000E+00
  -2.200000      0.0000000E+00
  -2.190000      0.0000000E+00
  -2.180000      0.0000000E+00
  -2.170000      0.0000000E+00
  -2.160000      0.0000000E+00
  -2.150000      0.0000000E+00
  -2.140000      0.0000000E+00
  -2.130000      0.0000000E+00
  -2.120000      0.0000000E+00
  -2.110000      0.0000000E+00
  -2.100000      0.0000000E+00
  -2.090000      0.0000000E+00
  -2.080000      0.0000000E+00
  -2.070000      0.0000000E+00
  -2.060000      0.0000000E+00
  -2.050000      0.0000000E+00
  -2.040000      0.0000000E+00
  -2.030000      0.0000000E+00
  -2.020000      0.0000000E+00
  -2.010000      0.0000000E+00
  -2.000000      0.0000000E+00
  -1.990000      0.0000000E+00
  -1.980000      0.0000000E+00
  -1.970000      0.0000000E+00
  -1.960000      0.0000000E+00
  -1.950000      0.0000000E+00
  -1.940000      0.0000000E+00
  -1.930000      0.0000000E+00
  -1.920000      0.0000000E+00
  -1.910000      0.0000000E+00
  -1.900000      0.0000000E+00
  -1.890000      0.0000000E+00
  -1.880000      0.0000000E+00
  -1.870000      0.0000000E+00
  -1.860000      0.0000000E+00
  -1.850000      0.0000000E+00
  -1.840000      0.0000000E+00
  -1.830000      0.0000000E+00
  -1.820000      0.0000000E+00
  -1.810000      0.0000000E+00
  -1.800000      0.0000000E+00
  -1.790000      0.0000000E+00
  -1.780000      0.0000000E+00
  -1.770000      0.0000000E+00
  -1.760000      0.0000000E+00
  -1.750000      0.0000000E+00
  -1.740000      0.0000000E+00
  -1.730000      0.0000000E+00
  -1.720000      0.0000000E+00
  -1.710000      0.0000000E+00
  -1.700000      0.0000000E+00
  -1.690000      0.0000000E+00
  -1.680000      0.0000000E+00
  -1.670000      0.0000000E+00
  -1.660000      0.0000000E+00
  -1.650000      0.0000000E+00
  -1.640000      0.0000000E+00
  -1.630000      0.0000000E+00
  -1.620000      0.0000000E+00
  -1.610000      0.0000000E+00
  -1.600000      0.0000000E+00
  -1.590000      0.0000000E+00
  -1.580000      0.0000000E+00
  -1.570000      0.0000000E+00
  -1.560000      0.0000000E+00
  -1.550000      0.0000000E+00
  -1.540000      0.0000000E+00
  -1.530000      0.0000000E+00
  -1.520000      0.0000000E+00
  -1.510000      0.0000000E+00
  -1.500000      0.0000000E+00
  -1.490000      0.0000000E+00
  -1.480000      0.0000000E+00
  -1.470000      0.0000000E+00
  -1.460000      0.0000000E+00
  -1.450000      0.0000000E+00
  -1.440000      0.0000000E+00
  -1.430000      0.0000000E+00
  -1.420000      0.0000000E+00
  -1.410000      0.0000000E+00
  -1.400000      0.0000000E+00
  -1.390000      0.0000000E+00
  -1.380000      0.0000000E+00
  -1.370000      0.0000000E+00
  -1.360000      0.0000000E+00
  -1.350000      0.0000000E+00
  -1.340000      0.0000000E+00
  -1.330000      0.0000000E+00
  -1.320000      0.0000000E+00
  -1.310000      0.0000000E+00
  -1.300000      0.0000000E+00
  -1.290000      0.0000000E+00
  -1.280000      0.0000000E+00
  -1.270000      0.0000000E+00
  -1.260000      0.0000000E+00
  -1.250000      0.0000000E+00
  -1.240000      0.0000000E+00
  -1.230000      0.0000000E+00
  -1.220000      0.0000000E+00
  -1.210000      0.0000000E+00
  -1.200000      0.0000000E+00
  -1.190000      0.0000000E+00
  -1.180000      0.0000000E+00
  -1.170000      0.0000000E+00
  -1.160000      0.0000000E+00
  -1.150000      0.0000000E+00
  -1.140000      0.0000000E+00
  -1.130000      0.0000000E+00
  -1.120000      0.0000000E+00
  -1.110000      0.0000000E+00
  -1.100000      0.0000000E+00
  -1.090000      0.0000000E+00
  -1.080000      0.0000000E+00
  -1.070000      0.0000000E+00
  -1.060000      0.0000000E+00
  -1.050000      0.0000000E+00
  -1.040000      0.0000000E+00
  -1.030000      0.0000000E+00
  -1.020000      0.0000000E+00
  -1.010000      0.0000000E+00
  -1.000000      0.0000000E+00
 -0.9900000      0.0000000E+00
 -0.9800000      0.0000000E+00
 -0.9700000      0.0000000E+00
 -0.9600000      0.0000000E+00
 -0.9500000      0.0000000E+00
 -0.9400000      0.0000000E+00
 -0.9300000      0.0000000E+00
 -0.9200000      0.0000000E+00
 -0.9100000      0.0000000E+00
 -0.9000000      0.0000000E+00
 -0.8900000      0.0000000E+00
 -0.8800000      0.0000000E+00
 -0.8700000      0.0000000E+00
 -0.8600000      0.0000000E+00
 -0.8500000      0.0000000E+00
 -0.8400000      0.0000000E+00
 -0.8300000      0.0000000E+00
 -0.8200000      0.0000000E+00
 -0.8100000      0.0000000E+00
 -0.8000000      0.0000000E+00
 -0.7900000      0.0000000E+00
 -0.7800000      0.0000000E+00
 -0.7700000      0.0000000E+00
 -0.7600000      0.0000000E+00
 -0.7500000      0.0000000E+00
 -0.7400000      0.0000000E+00
 -0.7300000      0.0000000E+00
 -0.7200000      0.0000000E+00
 -0.7100000      0.0000000E+00
 -0.7000000      0.0000000E+00
 -0.6900000      0.0000000E+00
 -0.6800000      0.0000000E+00
 -0.6700000      0.0000000E+00
 -0.6600000      0.0000000E+00
 -0.6500000      0.0000000E+00
 -0.6400000      0.0000000E+00
 -0.6300000      0.0000000E+00
 -0.6200000      0.0000000E+00
 -0.6100000      0.0000000E+00
 -0.6000000      0.0000000E+00
 -0.5900000      0.0000000E+00
 -0.5800000      0.0000000E+00
 -0.5700000      0.0000000E+00
 -0.5600000      0.0000000E+00
 -0.5500000      0.0000000E+00
 -0.5400000      0.0000000E+00
 -0.5300000      0.0000000E+00
 -0.5200000      0.0000000E+00
 -0.5100000      0.0000000E+00
 -0.5000000      0.0000000E+00
 -0.4900000      0.0000000E+00
 -0.4800000      0.0000000E+00
 -0.4700000      0.0000000E+00
 -0.4600000      0.0000000E+00
 -0.4500000      0.0000000E+00
 -0.4400000      0.0000000E+00
 -0.4300000      0.0000000E+00
 -0.4200000      0.0000000E+00
 -0.4100000      0.0000000E+00
 -0.4000000      0.0000000E+00
 -0.3900000      0.0000000E+00
 -0.3800000      0.0000000E+00
 -0.3700000      0.0000000E+00
 -0.3600000      0.0000000E+00
 -0.3500000      0.0000000E+00
 -0.3400000      0.0000000E+00
 -0.3300000      0.0000000E+00
 -0.3200000      0.0000000E+00
 -0.3100000      0.0000000E+00
 -0.3000000      0.0000000E+00
 -0.2900000      0.0000000E+00
 -0.2800000      0.0000000E+00
 -0.2700000      0.0000000E+00
 -0.2600000      0.0000000E+00
 -0.2500000      0.0000000E+00
 -0.2400000      0.0000000E+00
 -0.2300000      0.0000000E+00
 -0.2200000      0.0000000E+00
 -0.2100000      0.0000000E+00
 -0.2000000      0.0000000E+00
 -0.1900000      0.0000000E+00
 -0.1800000      0.0000000E+00
 -0.1700000      0.0000000E+00
 -0.1600000      0.0000000E+00
 -0.1500000      0.0000000E+00
 -0.1400000      0.0000000E+00
 -0.1300000      0.0000000E+00
 -0.1200000      0.0000000E+00
 -0.1100000      0.0000000E+00
 -0.1000000      0.0000000E+00
 -9.0000004E-02  0.0000000E+00
 -7.9999998E-02  0.0000000E+00
 -7.0000000E-02  0.0000000E+00
 -5.9999999E-02  0.0000000E+00
 -5.0000001E-02  0.0000000E+00
 -3.9999999E-02  0.0000000E+00
 -2.9999999E-02  0.0000000E+00
 -2.0000000E-02  0.0000000E+00
 -9.9999998E-03  0.0000000E+00
 -3.4694470E-17  0.0000000E+00
  9.9999998E-03  0.0000000E+00
  2.0000000E-02  0.0000000E+00
  2.9999999E-02  0.0000000E+00
  3.9999999E-02  0.0000000E+00
  5.0000001E-02  0.0000000E+00
  5.9999999E-02  0.0000000E+00
  7.0000000E-02  0.0000000E+00
  7.9999998E-02  0.0000000E+00
  9.0000004E-02  0.0000000E+00
  0.1000000      0.0000000E+00
  0.1100000      0.0000000E+00
  0.1200000      0.0000000E+00
  0.1300000      0.0000000E+00
  0.1400000      0.0000000E+00
  0.1500000      0.0000000E+00
  0.1600000      0.0000000E+00
  0.1700000      0.0000000E+00
  0.1800000      0.0000000E+00
  0.1900000      0.0000000E+00
  0.2000000      0.0000000E+00
  0.2100000      0.0000000E+00
  0.2200000      0.0000000E+00
  0.2300000      0.0000000E+00
  0.2400000      0.0000000E+00
  0.2500000      0.0000000E+00
  0.2600000      0.0000000E+00
  0.2700000      0.0000000E+00
  0.2800000      0.0000000E+00
  0.2900000      0.0000000E+00
  0.3000000      0.0000000E+00
  0.3100000      0.0000000E+00
  0.3200000      0.0000000E+00
  0.3300000      0.0000000E+00
  0.3400000      0.0000000E+00
  0.3500000      0.0000000E+00
  0.3600000      0.0000000E+00
  0.3700000      0.0000000E+00
  0.3800000      0.0000000E+00
  0.3900000      0.0000000E+00
  0.4000000      0.0000000E+00
  0.4100000      0.0000000E+00
  0.4200000      0.0000000E+00
  0.4300000      0.0000000E+00
  0.4400000      0.0000000E+00
  0.4500000      0.0000000E+00
  0.4600000      0.0000000E+00
  0.4700000      0.0000000E+00
  0.4800000      0.0000000E+00
  0.4900000      0.0000000E+00
  0.5000000      0.0000000E+00
  0.5100000      0.0000000E+00
  0.5200000      0.0000000E+00
  0.5300000      0.0000000E+00
  0.5400000      0.0000000E+00
  0.5500000      0.0000000E+00
  0.5600000      0.0000000E+00
  0.5700000      0.0000000E+00
  0.5800000      0.0000000E+00
  0.5900000      0.0000000E+00
  0.6000000      0.0000000E+00
  0.6100000      0.0000000E+00
  0.6200000      0.0000000E+00
  0.6300000      0.0000000E+00
  0.6400000      0.0000000E+00
  0.6500000      0.0000000E+00
  0.6600000      0.0000000E+00
  0.6700000      0.0000000E+00
  0.6800000      0.0000000E+00
  0.6900000      0.0000000E+00
  0.7000000      0.0000000E+00
  0.7100000      0.0000000E+00
  0.7200000      0.0000000E+00
  0.7300000      0.0000000E+00
  0.7400000      0.0000000E+00
  0.7500000      0.0000000E+00
  0.7600000      0.0000000E+00
  0.7700000      0.0000000E+00
  0.7800000      0.0000000E+00
  0.7900000      0.0000000E+00
  0.8000000      0.0000000E+00
  0.8100000      0.0000000E+00
  0.8200000      0.0000000E+00
  0.8300000      0.0000000E+00
  0.8400000      0.0000000E+00
  0.8500000      0.0000000E+00
  0.8600000      0.0000000E+00
  0.8700000      0.0000000E+00
  0.8800000      0.0000000E+00
  0.8900000      0.0000000E+00
  0.9000000      0.0000000E+00
  0.9100000      0.0000000E+00
  0.9200000      0.0000000E+00
  0.9300000      0.0000000E+00
  0.9400000      0.0000000E+00
  0.9500000      0.0000000E+00
  0.9600000      0.0000000E+00
  0.9700000      0.0000000E+00
  0.9800000      0.0000000E+00
  0.9900000      0.0000000E+00
   1.000000      0.0000000E+00
   1.010000      0.0000000E+00
   1.020000      0.0000000E+00
   1.030000      0.0000000E+00
   1.040000      0.0000000E+00
   1.050000      0.0000000E+00
   1.060000      0.0000000E+00
   1.070000      0.0000000E+00
   1.080000      0.0000000E+00
   1.090000      0.0000000E+00
   1.100000      0.0000000E+00
   1.110000      0.0000000E+00
   1.120000      0.0000000E+00
   1.130000      0.0000000E+00
   1.140000      0.0000000E+00
   1.150000      0.0000000E+00
   1.160000      0.0000000E+00
   1.170000      0.0000000E+00
   1.180000      0.0000000E+00
   1.190000      0.0000000E+00
   1.200000      0.0000000E+00
   1.210000      0.0000000E+00
   1.220000      0.0000000E+00
   1.230000      0.0000000E+00
   1.240000      0.0000000E+00
   1.250000      0.0000000E+00
   1.260000      0.0000000E+00
   1.270000      0.0000000E+00
   1.280000      0.0000000E+00
   1.290000      0.0000000E+00
   1.300000      0.0000000E+00
   1.310000      0.0000000E+00
   1.320000      0.0000000E+00
   1.330000      0.0000000E+00
   1.340000      0.0000000E+00
   1.350000      0.0000000E+00
   1.360000      0.0000000E+00
   1.370000      0.0000000E+00
   1.380000      0.0000000E+00
   1.390000      0.0000000E+00
   1.400000      0.0000000E+00
   1.410000      0.0000000E+00
   1.420000      0.0000000E+00
   1.430000      0.0000000E+00
   1.440000      0.0000000E+00
   1.450000      0.0000000E+00
   1.460000      0.0000000E+00
   1.470000      0.0000000E+00
   1.480000      0.0000000E+00
   1.490000      0.0000000E+00
   1.500000      0.0000000E+00
   1.510000      0.0000000E+00
   1.520000      0.0000000E+00
   1.530000      0.0000000E+00
   1.540000      0.0000000E+00
   1.550000      0.0000000E+00
   1.560000      0.0000000E+00
   1.570000      0.0000000E+00
   1.580000      0.0000000E+00
   1.590000      0.0000000E+00
   1.600000      0.0000000E+00
   1.610000      0.0000000E+00
   1.620000      0.0000000E+00
   1.630000      0.0000000E+00
   1.640000      0.0000000E+00
   1.650000      0.0000000E+00
   1.660000      0.0000000E+00
   1.670000      0.0000000E+00
   1.680000      0.0000000E+00
   1.690000      0.0000000E+00
   1.700000      0.0000000E+00
   1.710000      0.0000000E+00
   1.720000      0.0000000E+00
   1.730000      0.0000000E+00
   1.740000      0.0000000E+00
   1.750000      0.0000000E+00
   1.760000      0.0000000E+00
   1.770000      0.0000000E+00
   1.780000      0.0000000E+00
   1.790000      0.0000000E+00
   1.800000      0.0000000E+00
   1.810000      0.0000000E+00
   1.820000      0.0000000E+00
   1.830000      0.0000000E+00
   1.840000      0.0000000E+00
   1.850000      0.0000000E+00
   1.860000      0.0000000E+00
   1.870000      0.0000000E+00
   1.880000      0.0000000E+00
   1.890000      0.0000000E+00
   1.900000      0.0000000E+00
   1.910000      0.0000000E+00
   1.920000      0.0000000E+00
   1.930000      0.0000000E+00
   1.940000      0.0000000E+00
   1.950000      0.0000000E+00
   1.960000      0.0000000E+00
   1.970000      0.0000000E+00
   1.980000      0.0000000E+00
   1.990000      0.0000000E+00
   2.000000      0.0000000E+00
   2.010000      0.0000000E+00
   2.020000      0.0000000E+00
   2.030000      0.0000000E+00
   2.040000      0.0000000E+00
   2.050000      0.0000000E+00
   2.060000      0.0000000E+00
   2.070000      0.0000000E+00
   2.080000      0.0000000E+00
   2.090000      0.0000000E+00
   2.100000      0.0000000E+00
   2.110000      0.0000000E+00
   2.120000      0.0000000E+00
   2.130000      0.0000000E+00
   2.140000      0.0000000E+00
   2.150000      0.0000000E+00
   2.160000      0.0000000E+00
   2.170000      0.0000000E+00
   2.180000      0.0000000E+00
   2.190000      0.0000000E+00
   2.200000      0.0000000E+00
   2.210000      0.0000000E+00
   2.220000      0.0000000E+00
   2.230000      0.0000000E+00
   2.240000      0.0000000E+00
   2.250000      0.0000000E+00
   2.260000      0.0000000E+00
   2.270000      0.0000000E+00
   2.280000      0.0000000E+00
   2.290000      0.0000000E+00
   2.300000      0.0000000E+00
   2.310000      0.0000000E+00
   2.320000      0.0000000E+00
   2.330000      0.0000000E+00
   2.340000      0.0000000E+00
   2.350000      0.0000000E+00
   2.360000      0.0000000E+00
   2.370000      0.0000000E+00
   2.380000      0.0000000E+00
   2.390000      0.0000000E+00
   2.400000      0.0000000E+00
   2.410000      0.0000000E+00
   2.420000      0.0000000E+00
   2.430000      0.0000000E+00
   2.440000      0.0000000E+00
   2.450000      0.0000000E+00
   2.460000      0.0000000E+00
   2.470000      0.0000000E+00
   2.480000      0.0000000E+00
   2.490000      0.0000000E+00
   2.500000      0.0000000E+00
   2.510000      0.0000000E+00
   2.520000      0.0000000E+00
   2.530000      0.0000000E+00
   2.540000      0.0000000E+00
   2.550000      0.0000000E+00
   2.560000      0.0000000E+00
   2.570000      0.0000000E+00
   2.580000      0.0000000E+00
   2.590000      0.0000000E+00
   2.600000      0.0000000E+00
   2.610000      0.0000000E+00
   2.620000      0.0000000E+00
   2.630000      0.0000000E+00
   2.640000      0.0000000E+00
   2.650000      0.0000000E+00
   2.660000      0.0000000E+00
   2.670000      0.0000000E+00
   2.680000      0.0000000E+00
   2.690000      0.0000000E+00
   2.700000      0.0000000E+00
   2.710000      0.0000000E+00
   2.720000      0.0000000E+00
   2.730000      0.0000000E+00
   2.740000      1.2949337E-38
   2.750000      1.5459457E-38
   2.760000      1.7981731E-38
   2.770000      2.0504804E-38
   2.780000      2.3022298E-38
   2.790000      2.5295220E-38
   2.800000      2.7419997E-38
   2.810000      2.9727975E-38
   2.820000      3.2215686E-38
   2.830000      3.4877321E-38
   2.840000      3.7702782E-38
   2.850000      4.0679120E-38
   2.860000      4.3883054E-38
   2.870000      4.6586913E-38
   2.880000      4.8299815E-38
   2.890000      4.9652819E-38
   2.900000      5.0953426E-38
   2.910000      5.2187724E-38
   2.920000      5.3321918E-38
   2.930000      5.4280552E-38
   2.940000      5.5846777E-38
   2.950000      5.7726031E-38
   2.960000      5.8948372E-38
   2.970000      5.9727023E-38
   2.980000      6.0043644E-38
   2.990000      5.9642463E-38
   3.000000      5.8412908E-38
   3.010000      5.6044293E-38
   3.020000      5.2140393E-38
   3.030000      4.7124782E-38
   3.040000      4.0957499E-38
   3.050000      3.3137606E-38
   3.060000      2.2738084E-38
   3.070000      0.0000000E+00
   3.080000      0.0000000E+00
   3.090000     -1.5374842E-38
   3.100000     -1.7380975E-38
   3.110000     -1.8725776E-38
   3.120000     -1.8003981E-38
   3.130000      0.0000000E+00
   3.140000      2.5669860E-38
   3.150000      5.7681873E-38
   3.160000      9.2742736E-38
   3.170000      1.3300477E-37
   3.180000      1.2111178E-37
   3.190000      4.2544172E-38
   3.200000     -5.5115944E-38
   3.210000     -1.5947013E-37
   3.220000     -2.6071736E-37
   3.230000     -3.5310295E-37
   3.240000     -4.2958807E-37
   3.250000     -4.8474833E-37
   3.260000     -5.1288053E-37
   3.270000     -4.7230884E-37
   3.280000     -3.7839727E-37
   3.290000     -2.8406181E-37
   3.300000     -1.8903709E-37
   3.310000     -1.3966312E-37
   3.320000     -2.0815715E-37
   3.330000     -3.5909995E-37
   3.340000     -5.5050030E-37
   3.350000     -7.8648116E-37
   3.360000     -1.0139853E-36
   3.370000     -1.1695769E-36
   3.380000     -1.3090544E-36
   3.390000     -1.4253369E-36
   3.400000     -1.5023815E-36
   3.410000     -1.6001463E-36
   3.420000     -1.7332018E-36
   3.430000     -1.7413859E-36
   3.440000     -1.5628349E-36
   3.450000     -1.3426167E-36
   3.460000     -1.1172390E-36
   3.470000     -9.2406275E-37
   3.480000     -7.8541017E-37
   3.490000     -7.3611249E-37
   3.500000     -7.5055075E-37
   3.510000     -8.3176243E-37
   3.520000     -9.3785808E-37
   3.530000     -9.8495175E-37
   3.540000     -9.7877276E-37
   3.550000     -9.1993921E-37
   3.560000     -6.6034771E-37
   3.570000     -4.7961385E-38
   3.580000      7.6101484E-37
   3.590000      1.5886264E-36
   3.600000      2.4131949E-36
   3.610000      3.0505119E-36
   3.620000      3.4222770E-36
   3.630000      3.6881932E-36
   3.640000      3.7301713E-36
   3.650000      3.5919097E-36
   3.660000      3.4833473E-36
   3.670000      3.4459028E-36
   3.680000      3.3897482E-36
   3.690000      3.4181681E-36
   3.700000      3.7855869E-36
   3.710000      4.5902172E-36
   3.720000      5.8991187E-36
   3.730000      7.4359108E-36
   3.740000      8.9685182E-36
   3.750000      1.0387088E-35
   3.760000      1.1030012E-35
   3.770000      1.1072213E-35
   3.780000      1.0915906E-35
   3.790000      1.0361945E-35
   3.800000      9.4822862E-36
   3.810000      8.2880014E-36
   3.820000      6.9503364E-36
   3.830000      5.6892050E-36
   3.840000      4.5630264E-36
   3.850000      3.3849129E-36
   3.860000      2.1301941E-36
   3.870000      1.0384961E-36
   3.880000      2.4774538E-37
   3.890000     -3.3286316E-37
   3.900000     -8.5610368E-37
   3.910000     -1.4552250E-36
   3.920000     -1.6917427E-36
   3.930000     -1.4341845E-36
   3.940000     -5.9799051E-37
   3.950000      6.1378025E-37
   3.960000      7.2984933E-37
   3.970000     -1.0363712E-36
   3.980000     -3.9724287E-36
   3.990000     -7.7380603E-36
   4.000000     -1.1952981E-35
   4.010000     -1.5309029E-35
   4.020000     -1.8063369E-35
   4.030000     -2.0498293E-35
   4.040000     -2.1953737E-35
   4.050000     -2.2469882E-35
   4.060000     -2.2568346E-35
   4.070000     -2.2393334E-35
   4.080000     -2.2409546E-35
   4.090000     -2.3313564E-35
   4.100000     -2.5046014E-35
   4.110000     -2.6081869E-35
   4.120000     -2.7540005E-35
   4.130000     -3.0807945E-35
   4.140000     -3.3795087E-35
   4.150000     -3.6226265E-35
   4.160000     -3.8956913E-35
   4.170000     -4.1704545E-35
   4.180000     -4.3764191E-35
   4.190000     -4.5033906E-35
   4.200000     -4.5818764E-35
   4.210000     -4.6249487E-35
   4.220000     -4.5699386E-35
   4.230000     -4.4888878E-35
   4.240000     -4.4667749E-35
   4.250000     -4.4491620E-35
   4.260000     -4.3735398E-35
   4.270000     -4.1406918E-35
   4.280000     -3.7978274E-35
   4.290000     -3.4028174E-35
   4.300000     -3.0046517E-35
   4.310000     -2.6050261E-35
   4.320000     -2.0703938E-35
   4.330000     -1.4367900E-35
   4.340000     -9.5051625E-36
   4.350000     -6.8474368E-36
   4.360000     -4.6852985E-36
   4.370000     -2.1803271E-36
   4.380000      3.3959909E-36
   4.390000      1.2213297E-35
   4.400000      2.1829273E-35
   4.410000      3.3115211E-35
   4.420000      4.4218447E-35
   4.430000      5.4113360E-35
   4.440000      6.4850807E-35
   4.450000      7.6268123E-35
   4.460000      8.7794338E-35
   4.470000      9.8895453E-35
   4.480000      1.1135758E-34
   4.490000      1.2364243E-34
   4.500000      1.3266193E-34
   4.510000      1.4030629E-34
   4.520000      1.4803944E-34
   4.530000      1.5829383E-34
   4.540000      1.7256201E-34
   4.550000      1.8967222E-34
   4.560000      2.0683863E-34
   4.570000      2.2000741E-34
   4.580000      2.2851668E-34
   4.590000      2.3357075E-34
   4.600000      2.3700358E-34
   4.610000      2.4078131E-34
   4.620000      2.4426017E-34
   4.630000      2.4404337E-34
   4.640000      2.3784158E-34
   4.650000      2.3115376E-34
   4.660000      2.2565657E-34
   4.670000      2.2678723E-34
   4.680000      2.3941057E-34
   4.690000      2.5916599E-34
   4.700000      2.8142363E-34
   4.710000      3.0419082E-34
   4.720000      3.2921795E-34
   4.730000      3.5263260E-34
   4.740000      3.6437818E-34
   4.750000      3.6128867E-34
   4.760000      3.5064099E-34
   4.770000      3.3085188E-34
   4.780000      2.9468192E-34
   4.790000      2.4763563E-34
   4.800000      2.0746956E-34
   4.810000      1.8014715E-34
   4.820000      1.5488028E-34
   4.830000      1.2882185E-34
   4.840000      1.0687941E-34
   4.850000      8.7444279E-35
   4.860000      7.7556810E-35
   4.870000      7.7256284E-35
   4.880000      7.9820853E-35
   4.890000      8.3214531E-35
   4.900000      7.9740997E-35
   4.910000      6.3983925E-35
   4.920000      2.2577938E-35
   4.930000     -3.6584174E-35
   4.940000     -9.9422084E-35
   4.950000     -1.7310800E-34
   4.960000     -2.5906137E-34
   4.970000     -3.5406209E-34
   4.980000     -4.5661091E-34
   4.990000     -5.6299475E-34
   5.000000     -6.6508006E-34
   5.010000     -7.5811952E-34
   5.020000     -8.4095408E-34
   5.030000     -9.1925146E-34
   5.040000     -9.9469937E-34
   5.050000     -1.0696790E-33
   5.060000     -1.1488706E-33
   5.070000     -1.2351860E-33
   5.080000     -1.3346051E-33
   5.090000     -1.4468205E-33
   5.100000     -1.5737427E-33
   5.110000     -1.7189116E-33
   5.120000     -1.8730353E-33
   5.130000     -2.0255634E-33
   5.140000     -2.1771391E-33
   5.150000     -2.3262826E-33
   5.160000     -2.4727881E-33
   5.170000     -2.6055095E-33
   5.180000     -2.7192272E-33
   5.190000     -2.8216500E-33
   5.200000     -2.9129914E-33
   5.210000     -2.9960388E-33
   5.220000     -3.0750767E-33
   5.230000     -3.1546562E-33
   5.240000     -3.2379826E-33
   5.250000     -3.3298221E-33
   5.260000     -3.4306446E-33
   5.270000     -3.5359924E-33
   5.280000     -3.6406169E-33
   5.290000     -3.7403951E-33
   5.300000     -3.8279191E-33
   5.310000     -3.8950993E-33
   5.320000     -3.9399367E-33
   5.330000     -3.9545474E-33
   5.340000     -3.9321506E-33
   5.350000     -3.8719157E-33
   5.360000     -3.7744962E-33
   5.370000     -3.6480189E-33
   5.380000     -3.4998192E-33
   5.390000     -3.3311776E-33
   5.400000     -3.1441307E-33
   5.410000     -2.9366901E-33
   5.420000     -2.7155494E-33
   5.430000     -2.4871468E-33
   5.440000     -2.2380189E-33
   5.450000     -1.9651053E-33
   5.460000     -1.6752323E-33
   5.470000     -1.3609041E-33
   5.480000     -1.0051440E-33
   5.490000     -5.9882446E-34
   5.500000     -1.3917229E-34
   5.510000      3.8096925E-34
   5.520000      9.6727307E-34
   5.530000      1.6239811E-33
   5.540000      2.3407672E-33
   5.550000      3.1036265E-33
   5.560000      3.9043905E-33
   5.570000      4.7391866E-33
   5.580000      5.6086678E-33
   5.590000      6.5090281E-33
   5.600000      7.4390183E-33
   5.610000      8.3974143E-33
   5.620000      9.3880922E-33
   5.630000      1.0413997E-32
   5.640000      1.1476697E-32
   5.650000      1.2584716E-32
   5.660000      1.3745602E-32
   5.670000      1.4960092E-32
   5.680000      1.6227623E-32
   5.690000      1.7548511E-32
   5.700000      1.8918146E-32
   5.710000      2.0330304E-32
   5.720000      2.1776748E-32
   5.730000      2.3246556E-32
   5.740000      2.4729095E-32
   5.750000      2.6212792E-32
   5.760000      2.7687262E-32
   5.770000      2.9144134E-32
   5.780000      3.0576554E-32
   5.790000      3.1981975E-32
   5.800000      3.3357929E-32
   5.810000      3.4702806E-32
   5.820000      3.6016703E-32
   5.830000      3.7296646E-32
   5.840000      3.8541642E-32
   5.850000      3.9744507E-32
   5.860000      4.0895090E-32
   5.870000      4.1985352E-32
   5.880000      4.3002064E-32
   5.890000      4.3929958E-32
   5.900000      4.4751699E-32
   5.910000      4.5448682E-32
   5.920000      4.6002116E-32
   5.930000      4.6395592E-32
   5.940000      4.6609512E-32
   5.950000      4.6624940E-32
   5.960000      4.6434107E-32
   5.970000      4.6028092E-32
   5.980000      4.5394756E-32
   5.990000      4.4525607E-32
   6.000000      4.3411594E-32
   6.010000      4.2042822E-32
   6.020000      4.0409731E-32
   6.030000      3.8499474E-32
   6.040000      3.6296550E-32
   6.050000      3.3783960E-32
   6.060000      3.0941527E-32
   6.070000      2.7748823E-32
   6.080000      2.4184913E-32
   6.090000      2.0227930E-32
   6.100000      1.5858985E-32
   6.110000      1.1058451E-32
   6.120000      5.8049610E-33
   6.130000      9.2276881E-35
   6.140000     -6.0840531E-33
   6.150000     -1.2734345E-32
   6.160000     -1.9862648E-32
   6.170000     -2.7471038E-32
   6.180000     -3.5560024E-32
   6.190000     -4.4129845E-32
   6.200000     -5.3181574E-32
   6.210000     -6.2716497E-32
   6.220000     -7.2735764E-32
   6.230000     -8.3241175E-32
   6.240000     -9.4234275E-32
   6.250000     -1.0571562E-31
   6.260000     -1.1768392E-31
   6.270000     -1.3013483E-31
   6.280000     -1.4306024E-31
   6.290000     -1.5644746E-31
   6.300000     -1.7027851E-31
   6.310000     -1.8452981E-31
   6.320000     -1.9917315E-31
   6.330000     -2.1417528E-31
   6.340000     -2.2949750E-31
   6.350000     -2.4509777E-31
   6.360000     -2.6093092E-31
   6.370000     -2.7694934E-31
   6.380000     -2.9310366E-31
   6.390000     -3.0934251E-31
   6.400000     -3.2561255E-31
   6.410000     -3.4185856E-31
   6.420000     -3.5802231E-31
   6.430000     -3.7404183E-31
   6.440000     -3.8985066E-31
   6.450000     -4.0537647E-31
   6.460000     -4.2054063E-31
   6.470000     -4.3525786E-31
   6.480000     -4.4943541E-31
   6.490000     -4.6297353E-31
   6.500000     -4.7576577E-31
   6.510000     -4.8769963E-31
   6.520000     -4.9865740E-31
   6.530000     -5.0851716E-31
   6.540000     -5.1715385E-31
   6.550000     -5.2443989E-31
   6.560000     -5.3024613E-31
   6.570000     -5.3444185E-31
   6.580000     -5.3689510E-31
   6.590000     -5.3747232E-31
   6.600000     -5.3603821E-31
   6.610000     -5.3245498E-31
   6.620000     -5.2658197E-31
   6.630000     -5.1827508E-31
   6.640000     -5.0738667E-31
   6.650000     -4.9376565E-31
   6.660000     -4.7725790E-31
   6.670000     -4.5770708E-31
   6.680000     -4.3495581E-31
   6.690000     -4.0884657E-31
   6.700000     -3.7922482E-31
   6.710000     -3.4593943E-31
   6.720000     -3.0884299E-31
   6.730000     -2.6779496E-31
   6.740000     -2.2266226E-31
   6.750000     -1.7331995E-31
   6.760000     -1.1965198E-31
   6.770000     -6.1551265E-32
   6.780000      1.0801700E-33
   6.790000      6.8331034E-32
   6.800000      1.4028053E-31
   6.810000      2.1699818E-31
   6.820000      2.9854319E-31
   6.830000      3.8496354E-31
   6.840000      4.7629498E-31
   6.850000      5.7255894E-31
   6.860000      6.7376120E-31
   6.870000      7.7988953E-31
   6.880000      8.9091131E-31
   6.890000      1.0067718E-30
   6.900000      1.1273920E-30
   6.910000      1.2526675E-30
   6.920000      1.3824667E-30
   6.930000      1.5166298E-30
   6.940000      1.6549691E-30
   6.950000      1.7972673E-30
   6.960000      1.9432774E-30
   6.970000      2.0927232E-30
   6.980000      2.2452990E-30
   6.990000      2.4006681E-30
   7.000000      2.5584638E-30
   7.010000      2.7182869E-30
   7.020000      2.8797059E-30
   7.030000      3.0422548E-30
   7.040000      3.2054313E-30
   7.050000      3.3686952E-30
   7.060000      3.5314675E-30