  -2.600000      0.0000000E+00
  -2.590000      0.0000000E+00
  -2.580000      0.0000000E+00
  -2.570000      0.0000000E+00
  -2.560000      0.0000000E+00
  -2.550000      0.0000000E+00
  -2.540000      0.0000000E+00
  -2.530000      0.0000000E+00
  -2.520000      0.0000000E+00
  -2.510000      0.0000000E+00
  -2.500000      0.0000000E+00
  -2.490000      0.0000000E+00
  -2.480000      0.0000000E+00
  -2.470000      0.0000000E+00
  -2.460000      0.0000000E+00
  -2.450000      0.0000000E+00
  -2.440000      0.0000000E+00
  -2.430000      0.0000000E+00
  -2.420000      0.0000000E+00
  -2.410000      0.0000000E+00
  -2.400000      0.0000000E+00
  -2.390000      0.0000000E+00
  -2.380000      0.0000000E+00
  -2.370000      0.0000000E+00
  -2.360000      0.0000000E+00
  -2.350000      0.0000000E+00
  -2.340000      0.0000000E+00
  -2.330000      0.0000000E+00
  -2.320000      0.0000000E+00
  -2.310000      0.0000000E+00
  -2.300000      0.0000000E+00
  -2.290000      0.0000000E+00
  -2.280000      0.0000000E+00
  -2.270000      0.0000000E+00
  -2.260000      0.0000000E+00
  -2.250000      0.0000000E+00
  -2.240000      0.0000000E+00
  -2.230000      0.0000000E+00
  -2.220000      0.0000000E+00
  -2.210000      0.0000000E+00
  -2.200000      0.0000000E+00
  -2.190000      0.0000000E+00
  -2.180000      0.0000000E+00
  -2.170000      0.0000000E+00
  -2.160000      0.0000000E+00
  -2.150000      0.0000000E+00
  -2.140000      0.0000000E+00
  -2.130000      0.0000000E+00
  -2.120000      0.0000000E+00
  -2.110000      0.0000000E+00
  -2.100000      0.0000000E+00
  -2.090000      0.0000000E+00
  -2.080000      0.0000000E+00
  -2.070000      0.0000000E+00
  -2.060000      0.0000000E+00
  -2.050000      0.0000000E+00
  -2.040000      0.0000000E+00
  -2.030000      0.0000000E+00
  -2.020000      0.0000000E+00
  -2.010000      0.0000000E+00
  -2.000000      0.0000000E+00
  -1.990000      0.0000000E+00
  -1.980000      0.0000000E+00
  -1.970000      0.0000000E+00
  -1.960000      0.0000000E+00
  -1.950000      0.0000000E+00
  -1.940000      0.0000000E+00
  -1.930000      0.0000000E+00
  -1.920000      0.0000000E+00
  -1.910000      0.0000000E+00
  -1.900000      0.0000000E+00
  -1.890000      0.0000000E+00
  -1.880000      0.0000000E+00
  -1.870000      0.0000000E+00
  -1.860000      0.0000000E+00
  -1.850000      0.0000000E+00
  -1.840000      0.0000000E+00
  -1.830000      0.0000000E+00
  -1.820000      0.0000000E+00
  -1.810000      0.0000000E+00
  -1.800000      0.0000000E+00
  -1.790000      0.0000000E+00
  -1.780000      0.0000000E+00
  -1.770000      0.0000000E+00
  -1.760000      0.0000000E+00
  -1.750000      0.0000000E+00
  -1.740000      0.0000000E+00
  -1.730000      0.0000000E+00
  -1.720000      0.0000000E+00
  -1.710000      0.0000000E+00
  -1.700000      0.0000000E+00
  -1.690000      0.0000000E+00
  -1.680000      0.0000000E+00
  -1.670000      0.0000000E+00
  -1.660000      0.0000000E+00
  -1.650000      0.0000000E+00
  -1.640000      0.0000000E+00
  -1.630000      0.0000000E+00
  -1.620000      0.0000000E+00
  -1.610000      0.0000000E+00
  -1.600000      0.0000000E+00
  -1.590000      0.0000000E+00
  -1.580000      0.0000000E+00
  -1.570000      0.0000000E+00
  -1.560000      0.0000000E+00
  -1.550000      0.0000000E+00
  -1.540000      0.0000000E+00
  -1.530000      0.0000000E+00
  -1.520000      0.0000000E+00
  -1.510000      0.0000000E+00
  -1.500000      0.0000000E+00
  -1.490000      0.0000000E+00
  -1.480000      0.0000000E+00
  -1.470000      0.0000000E+00
  -1.460000      0.0000000E+00
  -1.450000      0.0000000E+00
  -1.440000      0.0000000E+00
  -1.430000      0.0000000E+00
  -1.420000      0.0000000E+00
  -1.410000      0.0000000E+00
  -1.400000      0.0000000E+00
  -1.390000      0.0000000E+00
  -1.380000      0.0000000E+00
  -1.370000      0.0000000E+00
  -1.360000      0.0000000E+00
  -1.350000      0.0000000E+00
  -1.340000      0.0000000E+00
  -1.330000      0.0000000E+00
  -1.320000      0.0000000E+00
  -1.310000      0.0000000E+00
  -1.300000      0.0000000E+00
  -1.290000      0.0000000E+00
  -1.280000      0.0000000E+00
  -1.270000      0.0000000E+00
  -1.260000      0.0000000E+00
  -1.250000      0.0000000E+00
  -1.240000      0.0000000E+00
  -1.230000      0.0000000E+00
  -1.220000      0.0000000E+00
  -1.210000      0.0000000E+00
  -1.200000      0.0000000E+00
  -1.190000      0.0000000E+00
  -1.180000      0.0000000E+00
  -1.170000      0.0000000E+00
  -1.160000      0.0000000E+00
  -1.150000      0.0000000E+00
  -1.140000      0.0000000E+00
  -1.130000      0.0000000E+00
  -1.120000      0.0000000E+00
  -1.110000      0.0000000E+00
  -1.100000      0.0000000E+00
  -1.090000      0.0000000E+00
  -1.080000      0.0000000E+00
  -1.070000      0.0000000E+00
  -1.060000      0.0000000E+00
  -1.050000      0.0000000E+00
  -1.040000      0.0000000E+00
  -1.030000      0.0000000E+00
  -1.020000      0.0000000E+00
  -1.010000      0.0000000E+00
  -1.000000      0.0000000E+00
 -0.9900000      0.0000000E+00
 -0.9800000      0.0000000E+00
 -0.9700000      0.0000000E+00
 -0.9600000      0.0000000E+00
 -0.9500000      0.0000000E+00
 -0.9400000      0.0000000E+00
 -0.9300000      0.0000000E+00
 -0.9200000      0.0000000E+00
 -0.9100000      0.0000000E+00
 -0.9000000      0.0000000E+00
 -0.8900000      0.0000000E+00
 -0.8800000      0.0000000E+00
 -0.8700000      0.0000000E+00
 -0.8600000      0.0000000E+00
 -0.8500000      0.0000000E+00
 -0.8400000      0.0000000E+00
 -0.8300000      0.0000000E+00
 -0.8200000      0.0000000E+00
 -0.8100000      0.0000000E+00
 -0.8000000      0.0000000E+00
 -0.7900000      0.0000000E+00
 -0.7800000      0.0000000E+00
 -0.7700000      0.0000000E+00
 -0.7600000      0.0000000E+00
 -0.7500000      0.0000000E+00
 -0.7400000      0.0000000E+00
 -0.7300000      0.0000000E+00
 -0.7200000      0.0000000E+00
 -0.7100000      0.0000000E+00
 -0.7000000      0.0000000E+00
 -0.6900000      0.0000000E+00
 -0.6800000      0.0000000E+00
 -0.6700000      0.0000000E+00
 -0.6600000      0.0000000E+00
 -0.6500000      0.0000000E+00
 -0.6400000      0.0000000E+00
 -0.6300000      0.0000000E+00
 -0.6200000      0.0000000E+00
 -0.6100000      0.0000000E+00
 -0.6000000      0.0000000E+00
 -0.5900000      0.0000000E+00
 -0.5800000      0.0000000E+00
 -0.5700000      0.0000000E+00
 -0.5600000      0.0000000E+00
 -0.5500000      0.0000000E+00
 -0.5400000      0.0000000E+00
 -0.5300000      0.0000000E+00
 -0.5200000      0.0000000E+00
 -0.5100000      0.0000000E+00
 -0.5000000      0.0000000E+00
 -0.4900000      0.0000000E+00
 -0.4800000      0.0000000E+00
 -0.4700000      0.0000000E+00
 -0.4600000      0.0000000E+00
 -0.4500000      0.0000000E+00
 -0.4400000      0.0000000E+00
 -0.4300000      0.0000000E+00
 -0.4200000      0.0000000E+00
 -0.4100000      0.0000000E+00
 -0.4000000      0.0000000E+00
 -0.3900000      0.0000000E+00
 -0.3800000      0.0000000E+00
 -0.3700000      0.0000000E+00
 -0.3600000      0.0000000E+00
 -0.3500000      0.0000000E+00
 -0.3400000      0.0000000E+00
 -0.3300000      0.0000000E+00
 -0.3200000      0.0000000E+00
 -0.3100000      0.0000000E+00
 -0.3000000      0.0000000E+00
 -0.2900000      0.0000000E+00
 -0.2800000      0.0000000E+00
 -0.2700000      0.0000000E+00
 -0.2600000      0.0000000E+00
 -0.2500000      0.0000000E+00
 -0.2400000      0.0000000E+00
 -0.2300000      0.0000000E+00
 -0.2200000      0.0000000E+00
 -0.2100000      0.0000000E+00
 -0.2000000      0.0000000E+00
 -0.1900000      0.0000000E+00
 -0.1800000      0.0000000E+00
 -0.1700000      0.0000000E+00
 -0.1600000      0.0000000E+00
 -0.1500000      0.0000000E+00
 -0.1400000      0.0000000E+00
 -0.1300000      0.0000000E+00
 -0.1200000      0.0000000E+00
 -0.1100000      0.0000000E+00
 -0.1000000      0.0000000E+00
 -9.0000004E-02  0.0000000E+00
 -7.9999998E-02  0.0000000E+00
 -7.0000000E-02  0.0000000E+00
 -5.9999999E-02  0.0000000E+00
 -5.0000001E-02  0.0000000E+00
 -3.9999999E-02  0.0000000E+00
 -2.9999999E-02  0.0000000E+00
 -2.0000000E-02  0.0000000E+00
 -9.9999998E-03  0.0000000E+00
 -3.4694470E-17  0.0000000E+00
  9.9999998E-03  0.0000000E+00
  2.0000000E-02  0.0000000E+00
  2.9999999E-02  0.0000000E+00
  3.9999999E-02  0.0000000E+00
  5.0000001E-02  0.0000000E+00
  5.9999999E-02  0.0000000E+00
  7.0000000E-02  0.0000000E+00
  7.9999998E-02  0.0000000E+00
  9.0000004E-02  0.0000000E+00
  0.1000000      0.0000000E+00
  0.1100000      0.0000000E+00
  0.1200000      0.0000000E+00
  0.1300000      0.0000000E+00
  0.1400000      0.0000000E+00
  0.1500000      0.0000000E+00
  0.1600000      0.0000000E+00
  0.1700000      0.0000000E+00
  0.1800000      0.0000000E+00
  0.1900000      0.0000000E+00
  0.2000000      0.0000000E+00
  0.2100000      0.0000000E+00
  0.2200000      0.0000000E+00
  0.2300000      0.0000000E+00
  0.2400000      0.0000000E+00
  0.2500000      0.0000000E+00
  0.2600000      0.0000000E+00
  0.2700000      0.0000000E+00
  0.2800000      0.0000000E+00
  0.2900000      0.0000000E+00
  0.3000000      0.0000000E+00
  0.3100000      0.0000000E+00
  0.3200000      0.0000000E+00
  0.3300000      0.0000000E+00
  0.3400000      0.0000000E+00
  0.3500000      0.0000000E+00
  0.3600000      0.0000000E+00
  0.3700000      0.0000000E+00
  0.3800000      0.0000000E+00
  0.3900000      0.0000000E+00
  0.4000000      0.0000000E+00
  0.4100000      0.0000000E+00
  0.4200000      0.0000000E+00
  0.4300000      0.0000000E+00
  0.4400000      0.0000000E+00
  0.4500000      0.0000000E+00
  0.4600000      0.0000000E+00
  0.4700000      0.0000000E+00
  0.4800000      0.0000000E+00
  0.4900000      0.0000000E+00
  0.5000000      0.0000000E+00
  0.5100000      0.0000000E+00
  0.5200000      0.0000000E+00
  0.5300000      0.0000000E+00
  0.5400000      0.0000000E+00
  0.5500000      0.0000000E+00
  0.5600000      0.0000000E+00
  0.5700000      0.0000000E+00
  0.5800000      0.0000000E+00
  0.5900000      0.0000000E+00
  0.6000000      0.0000000E+00
  0.6100000      0.0000000E+00
  0.6200000      0.0000000E+00
  0.6300000      0.0000000E+00
  0.6400000      0.0000000E+00
  0.6500000      0.0000000E+00
  0.6600000      0.0000000E+00
  0.6700000      0.0000000E+00
  0.6800000      0.0000000E+00
  0.6900000      0.0000000E+00
  0.7000000      0.0000000E+00
  0.7100000      0.0000000E+00
  0.7200000      0.0000000E+00
  0.7300000      0.0000000E+00
  0.7400000      0.0000000E+00
  0.7500000      0.0000000E+00
  0.7600000      0.0000000E+00
  0.7700000      0.0000000E+00
  0.7800000      0.0000000E+00
  0.7900000      0.0000000E+00
  0.8000000      0.0000000E+00
  0.8100000      0.0000000E+00
  0.8200000      0.0000000E+00
  0.8300000      0.0000000E+00
  0.8400000      0.0000000E+00
  0.8500000      0.0000000E+00
  0.8600000      0.0000000E+00
  0.8700000      0.0000000E+00
  0.8800000      0.0000000E+00
  0.8900000      0.0000000E+00
  0.9000000      0.0000000E+00
  0.9100000      0.0000000E+00
  0.9200000      0.0000000E+00
  0.9300000      0.0000000E+00
  0.9400000      0.0000000E+00
  0.9500000      0.0000000E+00
  0.9600000      0.0000000E+00
  0.9700000      0.0000000E+00
  0.9800000      0.0000000E+00
  0.9900000      0.0000000E+00
   1.000000      0.0000000E+00
   1.010000      0.0000000E+00
   1.020000      0.0000000E+00
   1.030000      0.0000000E+00
   1.040000      0.0000000E+00
   1.050000      0.0000000E+00
   1.060000      0.0000000E+00
   1.070000      0.0000000E+00
   1.080000      0.0000000E+00
   1.090000      0.0000000E+00
   1.100000      0.0000000E+00
   1.110000      0.0000000E+00
   1.120000      0.0000000E+00
   1.130000      0.0000000E+00
   1.140000      0.0000000E+00
   1.150000      0.0000000E+00
   1.160000      0.0000000E+00
   1.170000      0.0000000E+00
   1.180000      0.0000000E+00
   1.190000      0.0000000E+00
   1.200000      0.0000000E+00
   1.210000      0.0000000E+00
   1.220000      0.0000000E+00
   1.230000      0.0000000E+00
   1.240000      0.0000000E+00
   1.250000      0.0000000E+00
   1.260000      0.0000000E+00
   1.270000      0.0000000E+00
   1.280000      0.0000000E+00
   1.290000      0.0000000E+00
   1.300000      0.0000000E+00
   1.310000      0.0000000E+00
   1.320000      0.0000000E+00
   1.330000      0.0000000E+00
   1.340000      0.0000000E+00
   1.350000      0.0000000E+00
   1.360000      0.0000000E+00
   1.370000      0.0000000E+00
   1.380000      0.0000000E+00
   1.390000      0.0000000E+00
   1.400000      0.0000000E+00
   1.410000      0.0000000E+00
   1.420000      0.0000000E+00
   1.430000      0.0000000E+00
   1.440000      0.0000000E+00
   1.450000      0.0000000E+00
   1.460000      0.0000000E+00
   1.470000      0.0000000E+00
   1.480000      0.0000000E+00
   1.490000      0.0000000E+00
   1.500000      0.0000000E+00
   1.510000      0.0000000E+00
   1.520000      0.0000000E+00
   1.530000      0.0000000E+00
   1.540000      0.0000000E+00
   1.550000      0.0000000E+00
   1.560000      0.0000000E+00
   1.570000      0.0000000E+00
   1.580000      0.0000000E+00
   1.590000      0.0000000E+00
   1.600000      0.0000000E+00
   1.610000      0.0000000E+00
   1.620000      0.0000000E+00
   1.630000      0.0000000E+00
   1.640000      0.0000000E+00
   1.650000      0.0000000E+00
   1.660000      0.0000000E+00
   1.670000      0.0000000E+00
   1.680000      0.0000000E+00
   1.690000      0.0000000E+00
   1.700000      0.0000000E+00
   1.710000      0.0000000E+00
   1.720000      0.0000000E+00
   1.730000      0.0000000E+00
   1.740000      0.0000000E+00
   1.750000      0.0000000E+00
   1.760000      0.0000000E+00
   1.770000      0.0000000E+00
   1.780000      0.0000000E+00
   1.790000      0.0000000E+00
   1.800000      0.0000000E+00
   1.810000      0.0000000E+00
   1.820000      0.0000000E+00
   1.830000      0.0000000E+00
   1.840000      0.0000000E+00
   1.850000      0.0000000E+00
   1.860000      0.0000000E+00
   1.870000      0.0000000E+00
   1.880000      0.0000000E+00
   1.890000      0.0000000E+00
   1.900000      0.0000000E+00
   1.910000      0.0000000E+00
   1.920000      0.0000000E+00
   1.930000      0.0000000E+00
   1.940000      0.0000000E+00
   1.950000      0.0000000E+00
   1.960000      0.0000000E+00
   1.970000      0.0000000E+00
   1.980000      0.0000000E+00
   1.990000      0.0000000E+00
   2.000000      0.0000000E+00
   2.010000      0.0000000E+00
   2.020000      0.0000000E+00
   2.030000      0.0000000E+00
   2.040000      0.0000000E+00
   2.050000      0.0000000E+00
   2.060000      0.0000000E+00
   2.070000      0.0000000E+00
   2.080000      0.0000000E+00
   2.090000      0.0000000E+00
   2.100000      0.0000000E+00
   2.110000      0.0000000E+00
   2.120000      0.0000000E+00
   2.130000      0.0000000E+00
   2.140000      0.0000000E+00
   2.150000      0.0000000E+00
   2.160000      0.0000000E+00
   2.170000      0.0000000E+00
   2.180000      0.0000000E+00
   2.190000      0.0000000E+00
   2.200000      0.0000000E+00
   2.210000      0.0000000E+00
   2.220000      0.0000000E+00
   2.230000      0.0000000E+00
   2.240000      0.0000000E+00
   2.250000      0.0000000E+00
   2.260000      0.0000000E+00
   2.270000      0.0000000E+00
   2.280000      0.0000000E+00
   2.290000      0.0000000E+00
   2.300000      0.0000000E+00
   2.310000      0.0000000E+00
   2.320000      0.0000000E+00
   2.330000      0.0000000E+00
   2.340000      0.0000000E+00
   2.350000      0.0000000E+00
   2.360000      0.0000000E+00
   2.370000      0.0000000E+00
   2.380000      0.0000000E+00
   2.390000      0.0000000E+00
   2.400000      0.0000000E+00
   2.410000      0.0000000E+00
   2.420000      0.0000000E+00
   2.430000      0.0000000E+00
   2.440000      0.0000000E+00
   2.450000      0.0000000E+00
   2.460000      0.0000000E+00
   2.470000      0.0000000E+00
   2.480000      0.0000000E+00
   2.490000      0.0000000E+00
   2.500000      0.0000000E+00
   2.510000      0.0000000E+00
   2.520000      0.0000000E+00
   2.530000      0.0000000E+00
   2.540000      0.0000000E+00
   2.550000      0.0000000E+00
   2.560000      0.0000000E+00
   2.570000      0.0000000E+00
   2.580000      0.0000000E+00
   2.590000      0.0000000E+00
   2.600000      0.0000000E+00
   2.610000      0.0000000E+00
   2.620000      0.0000000E+00
   2.630000      0.0000000E+00
   2.640000      0.0000000E+00
   2.650000      0.0000000E+00
   2.660000      0.0000000E+00
   2.670000      0.0000000E+00
   2.680000      0.0000000E+00
   2.690000      0.0000000E+00
   2.700000      0.0000000E+00
   2.710000      0.0000000E+00
   2.720000      0.0000000E+00
   2.730000      0.0000000E+00
   2.740000      0.0000000E+00
   2.750000      0.0000000E+00
   2.760000      0.0000000E+00
   2.770000     -1.5894954E-38
   2.780000     -2.0352519E-38
   2.790000     -2.4426552E-38
   2.800000     -2.7551691E-38
   2.810000     -2.9840696E-38
   2.820000     -3.1523097E-38
   2.830000     -3.2620625E-38
   2.840000     -3.3769589E-38
   2.850000     -3.4904492E-38
   2.860000     -3.6425823E-38
   2.870000     -3.8541293E-38
   2.880000     -4.1076834E-38
   2.890000     -4.3108683E-38
   2.900000     -4.4540221E-38
   2.910000     -4.6694325E-38
   2.920000     -5.0510644E-38
   2.930000     -5.5414667E-38
   2.940000     -6.0070891E-38
   2.950000     -6.3699704E-38
   2.960000     -6.7276496E-38
   2.970000     -7.1194370E-38
   2.980000     -7.3443302E-38
   2.990000     -7.4046399E-38
   3.000000     -7.3266655E-38
   3.010000     -7.1707632E-38
   3.020000     -6.8986630E-38
   3.030000     -6.5046946E-38
   3.040000     -6.0118249E-38
   3.050000     -5.4205980E-38
   3.060000     -6.4374934E-38
   3.070000     -9.3027693E-38
   3.080000     -1.2542841E-37
   3.090000     -1.6095005E-37
   3.100000     -1.9925099E-37
   3.110000     -2.3985279E-37
   3.120000     -2.8229460E-37
   3.130000     -3.0616383E-37
   3.140000     -3.0712536E-37
   3.150000     -2.9984467E-37
   3.160000     -2.8714352E-37
   3.170000     -2.7016404E-37
   3.180000     -2.1701548E-37
   3.190000     -1.2778177E-37
   3.200000     -3.1558301E-38
   3.210000      6.9928302E-38
   3.220000      1.7601420E-37
   3.230000      2.8513794E-37
   3.240000      3.9489510E-37
   3.250000      5.0383352E-37
   3.260000      6.1205287E-37
   3.270000      7.1761288E-37
   3.280000      8.1752560E-37
   3.290000      9.2201843E-37
   3.300000      1.0277579E-36
   3.310000      1.1004043E-36
   3.320000      1.1262901E-36
   3.330000      1.1573818E-36
   3.340000      1.2404564E-36
   3.350000      1.3408332E-36
   3.360000      1.4385344E-36
   3.370000      1.5432442E-36
   3.380000      1.6567369E-36
   3.390000      1.7879390E-36
   3.400000      1.9369317E-36
   3.410000      2.0366846E-36
   3.420000      2.0676197E-36
   3.430000      2.0865319E-36
   3.440000      1.9932261E-36
   3.450000      1.7856706E-36
   3.460000      1.5639223E-36
   3.470000      1.3254727E-36
   3.480000      1.0766366E-36
   3.490000      8.2409040E-37
   3.500000      5.7130885E-37
   3.510000      3.1865751E-37
   3.520000      7.2394733E-38
   3.530000     -1.6374027E-37
   3.540000     -3.9569960E-37
   3.550000     -6.2300151E-37
   3.560000     -8.3857852E-37
   3.570000     -9.4914120E-37
   3.580000     -9.7246992E-37
   3.590000     -1.0262879E-36
   3.600000     -1.1034388E-36
   3.610000     -1.1969390E-36
   3.620000     -1.3459517E-36
   3.630000     -1.5016374E-36
   3.640000     -1.6631509E-36
   3.650000     -1.8927818E-36
   3.660000     -2.1763703E-36
   3.670000     -2.6511493E-36
   3.680000     -3.4125959E-36
   3.690000     -4.3324292E-36
   3.700000     -5.2758093E-36
   3.710000     -6.2653318E-36
   3.720000     -7.2001303E-36
   3.730000     -8.0628301E-36
   3.740000     -9.0077664E-36
   3.750000     -9.7644873E-36
   3.760000     -1.0275114E-35
   3.770000     -1.0578107E-35
   3.780000     -1.0648171E-35
   3.790000     -1.0624757E-35
   3.800000     -1.0467482E-35
   3.810000     -1.0191385E-35
   3.820000     -9.8199244E-36
   3.830000     -9.5344997E-36
   3.840000     -9.4428708E-36
   3.850000     -9.4076368E-36
   3.860000     -9.4299457E-36
   3.870000     -9.5197816E-36
   3.880000     -9.5643362E-36
   3.890000     -9.5356562E-36
   3.900000     -9.1986853E-36
   3.910000     -8.6826673E-36
   3.920000     -8.0919750E-36
   3.930000     -7.5111721E-36
   3.940000     -7.1366950E-36
   3.950000     -6.5663628E-36
   3.960000     -5.6080759E-36
   3.970000     -4.4075370E-36
   3.980000     -3.1188307E-36
   3.990000     -1.5663304E-36
   4.000000      3.1948228E-37
   4.010000      2.5093481E-36
   4.020000      4.9625373E-36
   4.030000      7.5348700E-36
   4.040000      1.0323181E-35
   4.050000      1.3326369E-35
   4.060000      1.6439222E-35
   4.070000      2.0053921E-35
   4.080000      2.4096300E-35
   4.090000      2.8078353E-35
   4.100000      3.1867660E-35
   4.110000      3.5183177E-35
   4.120000      3.8121517E-35
   4.130000      4.1214399E-35
   4.140000      4.4932698E-35
   4.150000      4.9017713E-35
   4.160000      5.3079993E-35
   4.170000      5.6515415E-35
   4.180000      5.9224493E-35
   4.190000      6.1669671E-35
   4.200000      6.3836914E-35
   4.210000      6.5891578E-35
   4.220000      6.7739923E-35
   4.230000      6.9159343E-35
   4.240000      7.0139917E-35
   4.250000      7.0615872E-35
   4.260000      7.0642883E-35
   4.270000      7.0290263E-35
   4.280000      6.9675241E-35
   4.290000      6.8880961E-35
   4.300000      6.7613035E-35
   4.310000      6.5938213E-35
   4.320000      6.4379254E-35
   4.330000      6.3046560E-35
   4.340000      6.1497801E-35
   4.350000      5.9422152E-35
   4.360000      5.6990285E-35
   4.370000      5.4262845E-35
   4.380000      5.0391388E-35
   4.390000      4.5039890E-35
   4.400000      3.8685367E-35
   4.410000      3.1623381E-35
   4.420000      2.3824200E-35
   4.430000      1.4886716E-35
   4.440000      4.9096569E-36
   4.450000     -5.8835394E-36
   4.460000     -1.8058047E-35
   4.470000     -3.1709259E-35
   4.480000     -4.6591238E-35
   4.490000     -6.1761931E-35
   4.500000     -7.8664386E-35
   4.510000     -9.7437140E-35
   4.520000     -1.1562107E-34
   4.530000     -1.3287464E-34
   4.540000     -1.4930942E-34
   4.550000     -1.6601207E-34
   4.560000     -1.8285809E-34
   4.570000     -2.0113599E-34
   4.580000     -2.2138829E-34
   4.590000     -2.4276268E-34
   4.600000     -2.6552135E-34
   4.610000     -2.8658887E-34
   4.620000     -3.0552042E-34
   4.630000     -3.2446213E-34
   4.640000     -3.4125887E-34
   4.650000     -3.5771230E-34
   4.660000     -3.7763261E-34
   4.670000     -3.9933573E-34
   4.680000     -4.2135099E-34
   4.690000     -4.4349896E-34
   4.700000     -4.6512392E-34
   4.710000     -4.8605801E-34
   4.720000     -5.0668931E-34
   4.730000     -5.2747917E-34
   4.740000     -5.4803677E-34
   4.750000     -5.6808258E-34
   4.760000     -5.8702319E-34
   4.770000     -6.0316838E-34
   4.780000     -6.1833088E-34
   4.790000     -6.3175369E-34
   4.800000     -6.3894643E-34
   4.810000     -6.4048835E-34
   4.820000     -6.3870913E-34
   4.830000     -6.3128198E-34
   4.840000     -6.1782505E-34
   4.850000     -6.0193943E-34
   4.860000     -5.8266243E-34
   4.870000     -5.5737428E-34
   4.880000     -5.2465945E-34
   4.890000     -4.8610728E-34
   4.900000     -4.4054034E-34
   4.910000     -3.8459558E-34
   4.920000     -3.2335003E-34
   4.930000     -2.5985650E-34
   4.940000     -1.9072097E-34
   4.950000     -1.1644744E-34
   4.960000     -4.0127684E-35
   4.970000      3.5402348E-35
   4.980000      1.1132367E-34
   4.990000      1.8975655E-34
   5.000000      2.6961699E-34
   5.010000      3.5320042E-34
   5.020000      4.4420898E-34
   5.030000      5.4193371E-34
   5.040000      6.4369598E-34
   5.050000      7.5055314E-34
   5.060000      8.6729268E-34
   5.070000      9.9390426E-34
   5.080000      1.1296928E-33
   5.090000      1.2766685E-33
   5.100000      1.4349881E-33
   5.110000      1.6047364E-33
   5.120000      1.7850435E-33
   5.130000      1.9767429E-33
   5.140000      2.1784838E-33
   5.150000      2.3861648E-33
   5.160000      2.6005384E-33
   5.170000      2.8222066E-33
   5.180000      3.0512074E-33
   5.190000      3.2861474E-33
   5.200000      3.5235094E-33
   5.210000      3.7625197E-33
   5.220000      3.9987394E-33
   5.230000      4.2295014E-33
   5.240000      4.4548856E-33
   5.250000      4.6731873E-33
   5.260000      4.8830891E-33
   5.270000      5.0814531E-33
   5.280000      5.2703627E-33
   5.290000      5.4533225E-33
   5.300000      5.6255743E-33
   5.310000      5.7845298E-33
   5.320000      5.9302816E-33
   5.330000      6.0600800E-33
   5.340000      6.1746220E-33
   5.350000      6.2763030E-33
   5.360000      6.3644041E-33
   5.370000      6.4336003E-33
   5.380000      6.4776645E-33
   5.390000      6.5012904E-33
   5.400000      6.5059689E-33
   5.410000      6.4839019E-33
   5.420000      6.4334262E-33
   5.430000      6.3543933E-33
   5.440000      6.2431578E-33
   5.450000      6.0957791E-33
   5.460000      5.9101744E-33
   5.470000      5.6842613E-33
   5.480000      5.4150455E-33
   5.490000      5.1005155E-33
   5.500000      4.7386785E-33
   5.510000      4.3251444E-33
   5.520000      3.8538597E-33
   5.530000      3.3215161E-33
   5.540000      2.7264714E-33
   5.550000      2.0662698E-33
   5.560000      1.3396272E-33
   5.570000      5.4237158E-34
   5.580000     -3.2945913E-34
   5.590000     -1.2743519E-33
   5.600000     -2.2903391E-33
   5.610000     -3.3784314E-33
   5.620000     -4.5420448E-33
   5.630000     -5.7820014E-33
   5.640000     -7.0971412E-33
   5.650000     -8.4892880E-33
   5.660000     -9.9580755E-33
   5.670000     -1.1502680E-32
   5.680000     -1.3123723E-32
   5.690000     -1.4816420E-32
   5.700000     -1.6577488E-32
   5.710000     -1.8405519E-32
   5.720000     -2.0299978E-32
   5.730000     -2.2260614E-32
   5.740000     -2.4282636E-32
   5.750000     -2.6361757E-32
   5.760000     -2.8495461E-32
   5.770000     -3.0679785E-32
   5.780000     -3.2909416E-32
   5.790000     -3.5180430E-32
   5.800000     -3.7489069E-32
   5.810000     -3.9829475E-32
   5.820000     -4.2194675E-32
   5.830000     -4.4577426E-32
   5.840000     -4.6969716E-32
   5.850000     -4.9362699E-32
   5.860000     -5.1746407E-32
   5.870000     -5.4109756E-32
   5.880000     -5.6440650E-32
   5.890000     -5.8726270E-32
   5.900000     -6.0953214E-32
   5.910000     -6.3107096E-32
   5.920000     -6.5172939E-32
   5.930000     -6.7135309E-32
   5.940000     -6.8977221E-32
   5.950000     -7.0680830E-32
   5.960000     -7.2226011E-32
   5.970000     -7.3594539E-32
   5.980000     -7.4768317E-32
   5.990000     -7.5726404E-32
   6.000000     -7.6447681E-32
   6.010000     -7.6909951E-32
   6.020000     -7.7092716E-32
   6.030000     -7.6972857E-32
   6.040000     -7.6524982E-32
   6.050000     -7.5726616E-32
   6.060000     -7.4554883E-32
   6.070000     -7.2986115E-32
   6.080000     -7.0996321E-32
   6.090000     -6.8560955E-32
   6.100000     -6.5655838E-32
   6.110000     -6.2256761E-32
   6.120000     -5.8338239E-32
   6.130000     -5.3875633E-32
   6.140000     -4.8845857E-32
   6.150000     -4.3225499E-32
   6.160000     -3.6991591E-32
   6.170000     -3.0121476E-32
   6.180000     -2.2593294E-32
   6.190000     -1.4386386E-32
   6.200000     -5.4808445E-33
   6.210000      4.1421387E-33
   6.220000      1.4499386E-32
   6.230000      2.5606108E-32
   6.240000      3.7476582E-32
   6.250000      5.0123238E-32
   6.260000      6.3555741E-32
   6.270000      7.7781391E-32
   6.280000      9.2804903E-32
   6.290000      1.0862819E-31
   6.300000      1.2525005E-31
   6.310000      1.4266595E-31
   6.320000      1.6086789E-31
   6.330000      1.7984408E-31
   6.340000      1.9957872E-31
   6.350000      2.2005188E-31
   6.360000      2.4123904E-31
   6.370000      2.6311088E-31
   6.380000      2.8563377E-31
   6.390000      3.0876835E-31
   6.400000      3.3246956E-31
   6.410000      3.5668754E-31
   6.420000      3.8136627E-31
   6.430000      4.0644372E-31
   6.440000      4.3185185E-31
   6.450000      4.5751580E-31
   6.460000      4.8335420E-31
   6.470000      5.0927959E-31
   6.480000      5.3519755E-31
   6.490000      5.6100661E-31
   6.500000      5.8659829E-31
   6.510000      6.1185718E-31
   6.520000      6.3666048E-31
   6.530000      6.6087825E-31
   6.540000      6.8437342E-31
   6.550000      7.0700145E-31
   6.560000      7.2861071E-31
   6.570000      7.4904221E-31
   6.580000      7.6813003E-31
   6.590000      7.8570089E-31
   6.600000      8.0157421E-31
   6.610000      8.1556466E-31
   6.620000      8.2747947E-31
   6.630000      8.3711815E-31
   6.640000      8.4427606E-31
   6.650000      8.4874322E-31
   6.660000      8.5030362E-31
   6.670000      8.4873664E-31
   6.680000      8.4381903E-31
   6.690000      8.3532293E-31
   6.700000      8.2301757E-31
   6.710000      8.0667096E-31
   6.720000      7.8604950E-31
   6.730000      7.6091870E-31
   6.740000      7.3104459E-31
   6.750000      6.9619448E-31
   6.760000      6.5613795E-31
   6.770000      6.1064773E-31
   6.780000      5.5950117E-31
   6.790000      5.0248100E-31
   6.800000      4.3937684E-31
   6.810000      3.6998633E-31
   6.820000      2.9411659E-31
   6.830000      2.1158557E-31
   6.840000      1.2222349E-31
   6.850000      2.5874435E-32
   6.860000     -7.7602352E-32
   6.870000     -1.8833080E-31
   6.880000     -3.0641628E-31
   6.890000     -4.3194400E-31
   6.900000     -5.6497714E-31
   6.910000     -7.0555550E-31
   6.920000     -8.5369346E-31
   6.930000     -1.0093782E-30
   6.940000     -1.1725683E-30
   6.950000     -1.3431915E-30
   6.960000     -1.5211424E-30
   6.970000     -1.7062818E-30
   6.980000     -1.8984343E-30
   6.990000     -2.0973857E-30
   7.000000     -2.3028828E-30
   7.010000     -2.5146305E-30
   7.020000     -2.7322903E-30
   7.030000     -2.9554785E-30
   7.040000     -3.1837646E-30
   7.050000     -3.4166693E-30
   7.060000     -3.6536651E-30