  -2.600000      0.0000000E+00
  -2.590000      0.0000000E+00
  -2.580000      0.0000000E+00
  -2.570000      0.0000000E+00
  -2.560000      0.0000000E+00
  -2.550000      0.0000000E+00
  -2.540000      0.0000000E+00
  -2.530000      0.0000000E+00
  -2.520000      0.0000000E+00
  -2.510000      0.0000000E+00
  -2.500000      0.0000000E+00
  -2.490000      0.0000000E+00
  -2.480000      0.0000000E+00
  -2.470000      0.0000000E+00
  -2.460000      0.0000000E+00
  -2.450000      0.0000000E+00
  -2.440000      0.0000000E+00
  -2.430000      0.0000000E+00
  -2.420000      0.0000000E+00
  -2.410000      0.0000000E+00
  -2.400000      0.0000000E+00
  -2.390000      0.0000000E+00
  -2.380000      0.0000000E+00
  -2.370000      0.0000000E+00
  -2.360000      0.0000000E+00
  -2.350000      0.0000000E+00
  -2.340000      0.0000000E+00
  -2.330000      0.0000000E+00
  -2.320000      0.0000000E+00
  -2.310000      0.0000000E+00
  -2.300000      0.0000000E+00
  -2.290000      0.0000000E+00
  -2.280000      0.0000000E+00
  -2.270000      0.0000000E+00
  -2.260000      0.0000000E+00
  -2.250000      0.0000000E+00
  -2.240000      0.0000000E+00
  -2.230000      0.0000000E+00
  -2.220000      0.0000000E+00
  -2.210000      0.0000000E+00
  -2.200000      0.0000000E+00
  -2.190000      0.0000000E+00
  -2.180000      0.0000000E+00
  -2.170000      0.0000000E+00
  -2.160000      0.0000000E+00
  -2.150000      0.0000000E+00
  -2.140000      0.0000000E+00
  -2.130000      0.0000000E+00
  -2.120000      0.0000000E+00
  -2.110000      0.0000000E+00
  -2.100000      0.0000000E+00
  -2.090000      0.0000000E+00
  -2.080000      0.0000000E+00
  -2.070000      0.0000000E+00
  -2.060000      0.0000000E+00
  -2.050000      0.0000000E+00
  -2.040000      0.0000000E+00
  -2.030000      0.0000000E+00
  -2.020000      0.0000000E+00
  -2.010000      0.0000000E+00
  -2.000000      0.0000000E+00
  -1.990000      0.0000000E+00
  -1.980000      0.0000000E+00
  -1.970000      0.0000000E+00
  -1.960000      0.0000000E+00
  -1.950000      0.0000000E+00
  -1.940000      0.0000000E+00
  -1.930000      0.0000000E+00
  -1.920000      0.0000000E+00
  -1.910000      0.0000000E+00
  -1.900000      0.0000000E+00
  -1.890000      0.0000000E+00
  -1.880000      0.0000000E+00
  -1.870000      0.0000000E+00
  -1.860000      0.0000000E+00
  -1.850000      0.0000000E+00
  -1.840000      0.0000000E+00
  -1.830000      0.0000000E+00
  -1.820000      0.0000000E+00
  -1.810000      0.0000000E+00
  -1.800000      0.0000000E+00
  -1.790000      0.0000000E+00
  -1.780000      0.0000000E+00
  -1.770000      0.0000000E+00
  -1.760000      0.0000000E+00
  -1.750000      0.0000000E+00
  -1.740000      0.0000000E+00
  -1.730000      0.0000000E+00
  -1.720000      0.0000000E+00
  -1.710000      0.0000000E+00
  -1.700000      0.0000000E+00
  -1.690000      0.0000000E+00
  -1.680000      0.0000000E+00
  -1.670000      0.0000000E+00
  -1.660000      0.0000000E+00
  -1.650000      0.0000000E+00
  -1.640000      0.0000000E+00
  -1.630000      0.0000000E+00
  -1.620000      0.0000000E+00
  -1.610000      0.0000000E+00
  -1.600000      0.0000000E+00
  -1.590000      0.0000000E+00
  -1.580000      0.0000000E+00
  -1.570000      0.0000000E+00
  -1.560000      0.0000000E+00
  -1.550000      0.0000000E+00
  -1.540000      0.0000000E+00
  -1.530000      0.0000000E+00
  -1.520000      0.0000000E+00
  -1.510000      0.0000000E+00
  -1.500000      0.0000000E+00
  -1.490000      0.0000000E+00
  -1.480000      0.0000000E+00
  -1.470000      0.0000000E+00
  -1.460000      0.0000000E+00
  -1.450000      0.0000000E+00
  -1.440000      0.0000000E+00
  -1.430000      0.0000000E+00
  -1.420000      0.0000000E+00
  -1.410000      0.0000000E+00
  -1.400000      0.0000000E+00
  -1.390000      0.0000000E+00
  -1.380000      0.0000000E+00
  -1.370000      0.0000000E+00
  -1.360000      0.0000000E+00
  -1.350000      0.0000000E+00
  -1.340000      0.0000000E+00
  -1.330000      0.0000000E+00
  -1.320000      0.0000000E+00
  -1.310000      0.0000000E+00
  -1.300000      0.0000000E+00
  -1.290000      0.0000000E+00
  -1.280000      0.0000000E+00
  -1.270000      0.0000000E+00
  -1.260000      0.0000000E+00
  -1.250000      0.0000000E+00
  -1.240000      0.0000000E+00
  -1.230000      0.0000000E+00
  -1.220000      0.0000000E+00
  -1.210000      0.0000000E+00
  -1.200000      0.0000000E+00
  -1.190000      0.0000000E+00
  -1.180000      0.0000000E+00
  -1.170000      0.0000000E+00
  -1.160000      0.0000000E+00
  -1.150000      0.0000000E+00
  -1.140000      0.0000000E+00
  -1.130000      0.0000000E+00
  -1.120000      0.0000000E+00
  -1.110000      0.0000000E+00
  -1.100000      0.0000000E+00
  -1.090000      0.0000000E+00
  -1.080000      0.0000000E+00
  -1.070000      0.0000000E+00
  -1.060000      0.0000000E+00
  -1.050000      0.0000000E+00
  -1.040000      0.0000000E+00
  -1.030000      0.0000000E+00
  -1.020000      0.0000000E+00
  -1.010000      0.0000000E+00
  -1.000000      0.0000000E+00
 -0.9900000      0.0000000E+00
 -0.9800000      0.0000000E+00
 -0.9700000      0.0000000E+00
 -0.9600000      0.0000000E+00
 -0.9500000      0.0000000E+00
 -0.9400000      0.0000000E+00
 -0.9300000      0.0000000E+00
 -0.9200000      0.0000000E+00
 -0.9100000      0.0000000E+00
 -0.9000000      0.0000000E+00
 -0.8900000      0.0000000E+00
 -0.8800000      0.0000000E+00
 -0.8700000      0.0000000E+00
 -0.8600000      0.0000000E+00
 -0.8500000      0.0000000E+00
 -0.8400000      0.0000000E+00
 -0.8300000      0.0000000E+00
 -0.8200000      0.0000000E+00
 -0.8100000      0.0000000E+00
 -0.8000000      0.0000000E+00
 -0.7900000      0.0000000E+00
 -0.7800000      0.0000000E+00
 -0.7700000      0.0000000E+00
 -0.7600000      0.0000000E+00
 -0.7500000      0.0000000E+00
 -0.7400000      0.0000000E+00
 -0.7300000      0.0000000E+00
 -0.7200000      0.0000000E+00
 -0.7100000      0.0000000E+00
 -0.7000000      0.0000000E+00
 -0.6900000      0.0000000E+00
 -0.6800000      0.0000000E+00
 -0.6700000      0.0000000E+00
 -0.6600000      0.0000000E+00
 -0.6500000      0.0000000E+00
 -0.6400000      0.0000000E+00
 -0.6300000      0.0000000E+00
 -0.6200000      0.0000000E+00
 -0.6100000      0.0000000E+00
 -0.6000000      0.0000000E+00
 -0.5900000      0.0000000E+00
 -0.5800000      0.0000000E+00
 -0.5700000      0.0000000E+00
 -0.5600000      0.0000000E+00
 -0.5500000      0.0000000E+00
 -0.5400000      0.0000000E+00
 -0.5300000      0.0000000E+00
 -0.5200000      0.0000000E+00
 -0.5100000      0.0000000E+00
 -0.5000000      0.0000000E+00
 -0.4900000      0.0000000E+00
 -0.4800000      0.0000000E+00
 -0.4700000      0.0000000E+00
 -0.4600000      0.0000000E+00
 -0.4500000      0.0000000E+00
 -0.4400000      0.0000000E+00
 -0.4300000      0.0000000E+00
 -0.4200000      0.0000000E+00
 -0.4100000      0.0000000E+00
 -0.4000000      0.0000000E+00
 -0.3900000      0.0000000E+00
 -0.3800000      0.0000000E+00
 -0.3700000      0.0000000E+00
 -0.3600000      0.0000000E+00
 -0.3500000      0.0000000E+00
 -0.3400000      0.0000000E+00
 -0.3300000      0.0000000E+00
 -0.3200000      0.0000000E+00
 -0.3100000      0.0000000E+00
 -0.3000000      0.0000000E+00
 -0.2900000      0.0000000E+00
 -0.2800000      0.0000000E+00
 -0.2700000      0.0000000E+00
 -0.2600000      0.0000000E+00
 -0.2500000      0.0000000E+00
 -0.2400000      0.0000000E+00
 -0.2300000      0.0000000E+00
 -0.2200000      0.0000000E+00
 -0.2100000      0.0000000E+00
 -0.2000000      0.0000000E+00
 -0.1900000      0.0000000E+00
 -0.1800000      0.0000000E+00
 -0.1700000      0.0000000E+00
 -0.1600000      0.0000000E+00
 -0.1500000      0.0000000E+00
 -0.1400000      0.0000000E+00
 -0.1300000      0.0000000E+00
 -0.1200000      0.0000000E+00
 -0.1100000      0.0000000E+00
 -0.1000000      0.0000000E+00
 -9.0000004E-02  0.0000000E+00
 -7.9999998E-02  0.0000000E+00
 -7.0000000E-02  0.0000000E+00
 -5.9999999E-02  0.0000000E+00
 -5.0000001E-02  0.0000000E+00
 -3.9999999E-02  0.0000000E+00
 -2.9999999E-02  0.0000000E+00
 -2.0000000E-02  0.0000000E+00
 -9.9999998E-03  0.0000000E+00
 -3.4694470E-17  0.0000000E+00
  9.9999998E-03  0.0000000E+00
  2.0000000E-02  0.0000000E+00
  2.9999999E-02  0.0000000E+00
  3.9999999E-02  0.0000000E+00
  5.0000001E-02  0.0000000E+00
  5.9999999E-02  0.0000000E+00
  7.0000000E-02  0.0000000E+00
  7.9999998E-02  0.0000000E+00
  9.0000004E-02  0.0000000E+00
  0.1000000      0.0000000E+00
  0.1100000      0.0000000E+00
  0.1200000      0.0000000E+00
  0.1300000      0.0000000E+00
  0.1400000      0.0000000E+00
  0.1500000      0.0000000E+00
  0.1600000      0.0000000E+00
  0.1700000      0.0000000E+00
  0.1800000      0.0000000E+00
  0.1900000      0.0000000E+00
  0.2000000      0.0000000E+00
  0.2100000      0.0000000E+00
  0.2200000      0.0000000E+00
  0.2300000      0.0000000E+00
  0.2400000      0.0000000E+00
  0.2500000      0.0000000E+00
  0.2600000      0.0000000E+00
  0.2700000      0.0000000E+00
  0.2800000      0.0000000E+00
  0.2900000      0.0000000E+00
  0.3000000      0.0000000E+00
  0.3100000      0.0000000E+00
  0.3200000      0.0000000E+00
  0.3300000      0.0000000E+00
  0.3400000      0.0000000E+00
  0.3500000      0.0000000E+00
  0.3600000      0.0000000E+00
  0.3700000      0.0000000E+00
  0.3800000      0.0000000E+00
  0.3900000      0.0000000E+00
  0.4000000      0.0000000E+00
  0.4100000      0.0000000E+00
  0.4200000      0.0000000E+00
  0.4300000      0.0000000E+00
  0.4400000      0.0000000E+00
  0.4500000      0.0000000E+00
  0.4600000      0.0000000E+00
  0.4700000      0.0000000E+00
  0.4800000      0.0000000E+00
  0.4900000      0.0000000E+00
  0.5000000      0.0000000E+00
  0.5100000      0.0000000E+00
  0.5200000      0.0000000E+00
  0.5300000      0.0000000E+00
  0.5400000      0.0000000E+00
  0.5500000      0.0000000E+00
  0.5600000      0.0000000E+00
  0.5700000      0.0000000E+00
  0.5800000      0.0000000E+00
  0.5900000      0.0000000E+00
  0.6000000      0.0000000E+00
  0.6100000      0.0000000E+00
  0.6200000      0.0000000E+00
  0.6300000      0.0000000E+00
  0.6400000      0.0000000E+00
  0.6500000      0.0000000E+00
  0.6600000      0.0000000E+00
  0.6700000      0.0000000E+00
  0.6800000      0.0000000E+00
  0.6900000      0.0000000E+00
  0.7000000      0.0000000E+00
  0.7100000      0.0000000E+00
  0.7200000      0.0000000E+00
  0.7300000      0.0000000E+00
  0.7400000      0.0000000E+00
  0.7500000      0.0000000E+00
  0.7600000      0.0000000E+00
  0.7700000      0.0000000E+00
  0.7800000      0.0000000E+00
  0.7900000      0.0000000E+00
  0.8000000      0.0000000E+00
  0.8100000      0.0000000E+00
  0.8200000      0.0000000E+00
  0.8300000      0.0000000E+00
  0.8400000      0.0000000E+00
  0.8500000      0.0000000E+00
  0.8600000      0.0000000E+00
  0.8700000      0.0000000E+00
  0.8800000      0.0000000E+00
  0.8900000      0.0000000E+00
  0.9000000      0.0000000E+00
  0.9100000      0.0000000E+00
  0.9200000      0.0000000E+00
  0.9300000      0.0000000E+00
  0.9400000      0.0000000E+00
  0.9500000      0.0000000E+00
  0.9600000      0.0000000E+00
  0.9700000      0.0000000E+00
  0.9800000      0.0000000E+00
  0.9900000      0.0000000E+00
   1.000000      0.0000000E+00
   1.010000      0.0000000E+00
   1.020000      0.0000000E+00
   1.030000      0.0000000E+00
   1.040000      0.0000000E+00
   1.050000      0.0000000E+00
   1.060000      0.0000000E+00
   1.070000      0.0000000E+00
   1.080000      0.0000000E+00
   1.090000      0.0000000E+00
   1.100000      0.0000000E+00
   1.110000      0.0000000E+00
   1.120000      0.0000000E+00
   1.130000      0.0000000E+00
   1.140000      0.0000000E+00
   1.150000      0.0000000E+00
   1.160000      0.0000000E+00
   1.170000      0.0000000E+00
   1.180000      0.0000000E+00
   1.190000      0.0000000E+00
   1.200000      0.0000000E+00
   1.210000      0.0000000E+00
   1.220000      0.0000000E+00
   1.230000      0.0000000E+00
   1.240000      0.0000000E+00
   1.250000      0.0000000E+00
   1.260000      0.0000000E+00
   1.270000      0.0000000E+00
   1.280000      0.0000000E+00
   1.290000      0.0000000E+00
   1.300000      0.0000000E+00
   1.310000      0.0000000E+00
   1.320000      0.0000000E+00
   1.330000      0.0000000E+00
   1.340000      0.0000000E+00
   1.350000      0.0000000E+00
   1.360000      0.0000000E+00
   1.370000      0.0000000E+00
   1.380000      0.0000000E+00
   1.390000      0.0000000E+00
   1.400000      0.0000000E+00
   1.410000      0.0000000E+00
   1.420000      0.0000000E+00
   1.430000      0.0000000E+00
   1.440000      0.0000000E+00
   1.450000      0.0000000E+00
   1.460000      0.0000000E+00
   1.470000      0.0000000E+00
   1.480000      0.0000000E+00
   1.490000      0.0000000E+00
   1.500000      0.0000000E+00
   1.510000      0.0000000E+00
   1.520000      0.0000000E+00
   1.530000      0.0000000E+00
   1.540000      0.0000000E+00
   1.550000      0.0000000E+00
   1.560000      0.0000000E+00
   1.570000      0.0000000E+00
   1.580000      0.0000000E+00
   1.590000      0.0000000E+00
   1.600000      0.0000000E+00
   1.610000      0.0000000E+00
   1.620000      0.0000000E+00
   1.630000      0.0000000E+00
   1.640000      0.0000000E+00
   1.650000      0.0000000E+00
   1.660000      0.0000000E+00
   1.670000      0.0000000E+00
   1.680000      0.0000000E+00
   1.690000      0.0000000E+00
   1.700000      0.0000000E+00
   1.710000      0.0000000E+00
   1.720000      0.0000000E+00
   1.730000      0.0000000E+00
   1.740000      0.0000000E+00
   1.750000      0.0000000E+00
   1.760000      0.0000000E+00
   1.770000      0.0000000E+00
   1.780000      0.0000000E+00
   1.790000      0.0000000E+00
   1.800000      0.0000000E+00
   1.810000      0.0000000E+00
   1.820000      0.0000000E+00
   1.830000      0.0000000E+00
   1.840000      0.0000000E+00
   1.850000      0.0000000E+00
   1.860000      0.0000000E+00
   1.870000      0.0000000E+00
   1.880000      0.0000000E+00
   1.890000      0.0000000E+00
   1.900000      0.0000000E+00
   1.910000      0.0000000E+00
   1.920000      0.0000000E+00
   1.930000      0.0000000E+00
   1.940000      0.0000000E+00
   1.950000      0.0000000E+00
   1.960000      0.0000000E+00
   1.970000      0.0000000E+00
   1.980000      0.0000000E+00
   1.990000      0.0000000E+00
   2.000000      0.0000000E+00
   2.010000      0.0000000E+00
   2.020000      0.0000000E+00
   2.030000      0.0000000E+00
   2.040000      0.0000000E+00
   2.050000      0.0000000E+00
   2.060000      0.0000000E+00
   2.070000      0.0000000E+00
   2.080000      0.0000000E+00
   2.090000      0.0000000E+00
   2.100000      0.0000000E+00
   2.110000      0.0000000E+00
   2.120000      0.0000000E+00
   2.130000      0.0000000E+00
   2.140000      0.0000000E+00
   2.150000      0.0000000E+00
   2.160000      0.0000000E+00
   2.170000      0.0000000E+00
   2.180000      0.0000000E+00
   2.190000      0.0000000E+00
   2.200000      0.0000000E+00
   2.210000      0.0000000E+00
   2.220000      0.0000000E+00
   2.230000      0.0000000E+00
   2.240000      0.0000000E+00
   2.250000      0.0000000E+00
   2.260000      0.0000000E+00
   2.270000      0.0000000E+00
   2.280000      0.0000000E+00
   2.290000      0.0000000E+00
   2.300000      0.0000000E+00
   2.310000      0.0000000E+00
   2.320000      0.0000000E+00
   2.330000      0.0000000E+00
   2.340000      0.0000000E+00
   2.350000      0.0000000E+00
   2.360000      0.0000000E+00
   2.370000      0.0000000E+00
   2.380000      0.0000000E+00
   2.390000      0.0000000E+00
   2.400000      0.0000000E+00
   2.410000      0.0000000E+00
   2.420000      0.0000000E+00
   2.430000      0.0000000E+00
   2.440000      0.0000000E+00
   2.450000      0.0000000E+00
   2.460000      0.0000000E+00
   2.470000      0.0000000E+00
   2.480000      0.0000000E+00
   2.490000      0.0000000E+00
   2.500000      0.0000000E+00
   2.510000      0.0000000E+00
   2.520000      0.0000000E+00
   2.530000      0.0000000E+00
   2.540000      0.0000000E+00
   2.550000      0.0000000E+00
   2.560000      0.0000000E+00
   2.570000      0.0000000E+00
   2.580000      0.0000000E+00
   2.590000      0.0000000E+00
   2.600000      0.0000000E+00
   2.610000      0.0000000E+00
   2.620000      0.0000000E+00
   2.630000      0.0000000E+00
   2.640000      0.0000000E+00
   2.650000      0.0000000E+00
   2.660000      0.0000000E+00
   2.670000      0.0000000E+00
   2.680000      0.0000000E+00
   2.690000      0.0000000E+00
   2.700000      0.0000000E+00
   2.710000      0.0000000E+00
   2.720000      0.0000000E+00
   2.730000      0.0000000E+00
   2.740000      0.0000000E+00
   2.750000      0.0000000E+00
   2.760000      0.0000000E+00
   2.770000      0.0000000E+00
   2.780000      0.0000000E+00
   2.790000      0.0000000E+00
   2.800000      0.0000000E+00
   2.810000      0.0000000E+00
   2.820000      0.0000000E+00
   2.830000      0.0000000E+00
   2.840000      0.0000000E+00
   2.850000      0.0000000E+00
   2.860000      0.0000000E+00
   2.870000      0.0000000E+00
   2.880000      0.0000000E+00
   2.890000      0.0000000E+00
   2.900000      0.0000000E+00
   2.910000      0.0000000E+00
   2.920000      0.0000000E+00
   2.930000      0.0000000E+00
   2.940000      0.0000000E+00
   2.950000      0.0000000E+00
   2.960000      0.0000000E+00
   2.970000      0.0000000E+00
   2.980000      0.0000000E+00
   2.990000      0.0000000E+00
   3.000000      0.0000000E+00
   3.010000      0.0000000E+00
   3.020000      0.0000000E+00
   3.030000      0.0000000E+00
   3.040000      0.0000000E+00
   3.050000      0.0000000E+00
   3.060000      0.0000000E+00
   3.070000      0.0000000E+00
   3.080000      0.0000000E+00
   3.090000      0.0000000E+00
   3.100000      0.0000000E+00
   3.110000      0.0000000E+00
   3.120000      0.0000000E+00
   3.130000      0.0000000E+00
   3.140000      0.0000000E+00
   3.150000      0.0000000E+00
   3.160000      0.0000000E+00
   3.170000      0.0000000E+00
   3.180000      0.0000000E+00
   3.190000      0.0000000E+00
   3.200000      0.0000000E+00
   3.210000      0.0000000E+00
   3.220000      0.0000000E+00
   3.230000      0.0000000E+00
   3.240000      0.0000000E+00
   3.250000      0.0000000E+00
   3.260000     -1.1877355E-38
   3.270000     -1.4550063E-38
   3.280000     -1.7023140E-38
   3.290000     -1.9431566E-38
   3.300000     -2.1855818E-38
   3.310000     -2.4202165E-38
   3.320000     -2.6468628E-38
   3.330000     -2.8706468E-38
   3.340000     -3.0990097E-38
   3.350000     -3.3677030E-38
   3.360000     -3.6707417E-38
   3.370000     -3.9948135E-38
   3.380000     -4.3440858E-38
   3.390000     -4.6968758E-38
   3.400000     -5.0643381E-38
   3.410000     -5.4161430E-38
   3.420000     -5.6731675E-38
   3.430000     -5.8431355E-38
   3.440000     -5.9698465E-38
   3.450000     -6.0862097E-38
   3.460000     -6.2321735E-38
   3.470000     -6.3898649E-38
   3.480000     -6.5160558E-38
   3.490000     -6.6263699E-38
   3.500000     -6.7420572E-38
   3.510000     -6.8603419E-38
   3.520000     -6.9728045E-38
   3.530000     -7.1052104E-38
   3.540000     -7.2425169E-38
   3.550000     -7.3122932E-38
   3.560000     -7.2952949E-38
   3.570000     -7.0857783E-38
   3.580000     -6.6745326E-38
   3.590000     -6.1525590E-38
   3.600000     -5.4975175E-38
   3.610000     -4.6894106E-38
   3.620000     -3.6813997E-38
   3.630000     -2.4560065E-38
   3.640000      0.0000000E+00
   3.650000      0.0000000E+00
   3.660000      2.7956030E-38
   3.670000      4.9719022E-38
   3.680000      7.2560580E-38
   3.690000      9.6815700E-38
   3.700000      1.2287117E-37
   3.710000      1.4842280E-37
   3.720000      1.7204588E-37
   3.730000      1.9927437E-37
   3.740000      2.3083982E-37
   3.750000      2.6378686E-37
   3.760000      3.0741829E-37
   3.770000      3.6326414E-37
   3.780000      4.2343957E-37
   3.790000      4.8778070E-37
   3.800000      5.6071593E-37
   3.810000      6.4224047E-37
   3.820000      7.2657003E-37
   3.830000      8.0979850E-37
   3.840000      8.7428182E-37
   3.850000      9.2087972E-37
   3.860000      9.6273536E-37
   3.870000      9.9793042E-37
   3.880000      1.0264312E-36
   3.890000      1.0485277E-36
   3.900000      1.0590034E-36
   3.910000      1.0571198E-36
   3.920000      1.0482788E-36
   3.930000      1.0321067E-36
   3.940000      1.0089377E-36
   3.950000      9.7984618E-37
   3.960000      9.3068119E-37
   3.970000      8.6109239E-37
   3.980000      7.9764716E-37
   3.990000      7.3739576E-37
   4.000000      6.6422556E-37
   4.010000      5.8237108E-37
   4.020000      4.7844433E-37
   4.030000      3.2873363E-37
   4.040000      1.4649519E-37
   4.050000     -5.3231562E-38
   4.060000     -2.6871822E-37
   4.070000     -5.0133657E-37
   4.080000     -7.5864774E-37
   4.090000     -1.0830126E-36
   4.100000     -1.4679906E-36
   4.110000     -1.8661010E-36
   4.120000     -2.3013556E-36
   4.130000     -2.7713634E-36
   4.140000     -3.1743481E-36
   4.150000     -3.5071711E-36
   4.160000     -3.8303922E-36
   4.170000     -4.1356100E-36
   4.180000     -4.4221618E-36
   4.190000     -4.6532985E-36
   4.200000     -4.8093901E-36
   4.210000     -4.9111492E-36
   4.220000     -4.9309104E-36
   4.230000     -4.8809946E-36
   4.240000     -4.8211243E-36
   4.250000     -4.7674837E-36
   4.260000     -4.7167335E-36
   4.270000     -4.6723522E-36
   4.280000     -4.5600360E-36
   4.290000     -4.4038597E-36
   4.300000     -4.2898990E-36
   4.310000     -4.1881783E-36
   4.320000     -4.0230028E-36
   4.330000     -3.8410609E-36
   4.340000     -3.6694724E-36
   4.350000     -3.4013794E-36
   4.360000     -3.0715867E-36
   4.370000     -2.6911913E-36
   4.380000     -2.2282362E-36
   4.390000     -1.7318370E-36
   4.400000     -1.2053488E-36
   4.410000     -6.1530796E-37
   4.420000      5.1383204E-38
   4.430000      8.1948051E-37
   4.440000      1.7023542E-36
   4.450000      2.6674892E-36
   4.460000      3.6954026E-36
   4.470000      4.8073310E-36
   4.480000      5.9997855E-36
   4.490000      7.2567440E-36
   4.500000      8.6711649E-36
   4.510000      1.0260566E-35
   4.520000      1.1925673E-35
   4.530000      1.3625235E-35
   4.540000      1.5384249E-35
   4.550000      1.7300730E-35
   4.560000      1.9347902E-35
   4.570000      2.1525322E-35
   4.580000      2.3888756E-35
   4.590000      2.6201838E-35
   4.600000      2.8327755E-35
   4.610000      3.0443341E-35
   4.620000      3.2265888E-35
   4.630000      3.3476099E-35
   4.640000      3.4429348E-35
   4.650000      3.5338419E-35
   4.660000      3.6086595E-35
   4.670000      3.6745497E-35
   4.680000      3.7251585E-35
   4.690000      3.8592699E-35
   4.700000      4.0594624E-35
   4.710000      4.2421292E-35
   4.720000      4.4471399E-35
   4.730000      4.6292865E-35
   4.740000      4.7595620E-35
   4.750000      4.7964190E-35
   4.760000      4.7105170E-35
   4.770000      4.3262775E-35
   4.780000      3.5776208E-35
   4.790000      2.6609283E-35
   4.800000      1.6475833E-35
   4.810000      5.5990603E-36
   4.820000     -5.2331600E-36
   4.830000     -1.5037035E-35
   4.840000     -2.3718448E-35
   4.850000     -3.1569221E-35
   4.860000     -3.8903324E-35
   4.870000     -4.3454023E-35
   4.880000     -4.5452860E-35
   4.890000     -4.8606525E-35
   4.900000     -5.3677096E-35
   4.910000     -6.0552130E-35
   4.920000     -6.9373349E-35
   4.930000     -7.8865282E-35
   4.940000     -9.0011098E-35
   4.950000     -1.1057519E-34
   4.960000     -1.3994750E-34
   4.970000     -1.7061465E-34
   4.980000     -2.0094105E-34
   4.990000     -2.2696307E-34
   5.000000     -2.4832056E-34
   5.010000     -2.6842071E-34
   5.020000     -2.8702659E-34
   5.030000     -3.0370740E-34
   5.040000     -3.1849195E-34
   5.050000     -3.2858118E-34
   5.060000     -3.3531293E-34
   5.070000     -3.4267474E-34
   5.080000     -3.4930937E-34
   5.090000     -3.5471164E-34
   5.100000     -3.5879249E-34
   5.110000     -3.6160233E-34
   5.120000     -3.6516856E-34
   5.130000     -3.7188139E-34
   5.140000     -3.7903919E-34
   5.150000     -3.8033147E-34
   5.160000     -3.7774612E-34
   5.170000     -3.7472163E-34
   5.180000     -3.7008575E-34
   5.190000     -3.6292086E-34
   5.200000     -3.5223165E-34
   5.210000     -3.3758467E-34
   5.220000     -3.2352977E-34
   5.230000     -3.1060427E-34
   5.240000     -2.9497026E-34
   5.250000     -2.7518791E-34
   5.260000     -2.4988969E-34
   5.270000     -2.1918764E-34
   5.280000     -1.8123463E-34
   5.290000     -1.3692662E-34
   5.300000     -8.5665040E-35
   5.310000     -2.4815102E-35
   5.320000      4.5270635E-35
   5.330000      1.2427400E-34
   5.340000      2.1172182E-34
   5.350000      3.0786362E-34
   5.360000      4.1187550E-34
   5.370000      5.2637494E-34
   5.380000      6.5052794E-34
   5.390000      7.8130858E-34
   5.400000      9.1955608E-34
   5.410000      1.0644381E-33
   5.420000      1.2147872E-33
   5.430000      1.3702697E-33
   5.440000      1.5298673E-33
   5.450000      1.6922125E-33
   5.460000      1.8574537E-33
   5.470000      2.0244456E-33
   5.480000      2.1923868E-33
   5.490000      2.3610124E-33
   5.500000      2.5297786E-33
   5.510000      2.6963943E-33
   5.520000      2.8602584E-33
   5.530000      3.0227093E-33
   5.540000      3.1824662E-33
   5.550000      3.3399788E-33
   5.560000      3.4946286E-33
   5.570000      3.6452348E-33
   5.580000      3.7922664E-33
   5.590000      3.9330303E-33
   5.600000      4.0666793E-33
   5.610000      4.1937440E-33
   5.620000      4.3133538E-33
   5.630000      4.4240038E-33
   5.640000      4.5240553E-33
   5.650000      4.6125278E-33
   5.660000      4.6882098E-33
   5.670000      4.7467935E-33
   5.680000      4.7859018E-33
   5.690000      4.8047149E-33
   5.700000      4.7996298E-33
   5.710000      4.7673874E-33
   5.720000      4.7049055E-33
   5.730000      4.6087556E-33
   5.740000      4.4752117E-33
   5.750000      4.3016474E-33
   5.760000      4.0854240E-33
   5.770000      3.8232608E-33
   5.780000      3.5125130E-33
   5.790000      3.1505350E-33
   5.800000      2.7354525E-33
   5.810000      2.2655747E-33
   5.820000      1.7386862E-33
   5.830000      1.1534494E-33
   5.840000      5.0877425E-34
   5.850000     -1.9634473E-34
   5.860000     -9.6299868E-34
   5.870000     -1.7918966E-33
   5.880000     -2.6832593E-33
   5.890000     -3.6374787E-33
   5.900000     -4.6548103E-33
   5.910000     -5.7371085E-33
   5.920000     -6.8827545E-33
   5.930000     -8.0891644E-33
   5.940000     -9.3575514E-33
   5.950000     -1.0688052E-32
   5.960000     -1.2080231E-32
   5.970000     -1.3533393E-32
   5.980000     -1.5046962E-32
   5.990000     -1.6620231E-32
   6.000000     -1.8251949E-32
   6.010000     -1.9940725E-32
   6.020000     -2.1684718E-32
   6.030000     -2.3481946E-32
   6.040000     -2.5329579E-32
   6.050000     -2.7224064E-32
   6.060000     -2.9161264E-32
   6.070000     -3.1136062E-32
   6.080000     -3.3142675E-32
   6.090000     -3.5174323E-32
   6.100000     -3.7223198E-32
   6.110000     -3.9280422E-32
   6.120000     -4.1336347E-32
   6.130000     -4.3379703E-32
   6.140000     -4.5398183E-32
   6.150000     -4.7379946E-32
   6.160000     -4.9310037E-32
   6.170000     -5.1172578E-32
   6.180000     -5.2952788E-32
   6.190000     -5.4634015E-32
   6.200000     -5.6198869E-32
   6.210000     -5.7629439E-32
   6.220000     -5.8907125E-32
   6.230000     -6.0012736E-32
   6.240000     -6.0926560E-32
   6.250000     -6.1628406E-32
   6.260000     -6.2097576E-32
   6.270000     -6.2313050E-32
   6.280000     -6.2253434E-32
   6.290000     -6.1896825E-32
   6.300000     -6.1221009E-32
   6.310000     -6.0203443E-32
   6.320000     -5.8821208E-32
   6.330000     -5.7051090E-32
   6.340000     -5.4869525E-32
   6.350000     -5.2252669E-32
   6.360000     -4.9176377E-32
   6.370000     -4.5616257E-32
   6.380000     -4.1547724E-32
   6.390000     -3.6946046E-32
   6.400000     -3.1786393E-32
   6.410000     -2.6044032E-32
   6.420000     -1.9694385E-32
   6.430000     -1.2713124E-32
   6.440000     -5.0764444E-33
   6.450000      3.2387889E-33
   6.460000      1.2254796E-32
   6.470000      2.1992662E-32
   6.480000      3.2471962E-32
   6.490000      4.3710563E-32
   6.500000      5.5724404E-32
   6.510000      6.8527054E-32
   6.520000      8.2129445E-32
   6.530000      9.6539578E-32
   6.540000      1.1176222E-31
   6.550000      1.2779855E-31
   6.560000      1.4464596E-31
   6.570000      1.6229773E-31
   6.580000      1.8074268E-31
   6.590000      1.9996497E-31
   6.600000      2.1994402E-31
   6.610000      2.4065404E-31
   6.620000      2.6206393E-31
   6.630000      2.8413704E-31
   6.640000      3.0683097E-31
   6.650000      3.3009729E-31
   6.660000      3.5388147E-31
   6.670000      3.7812256E-31
   6.680000      4.0275305E-31
   6.690000      4.2769859E-31
   6.700000      4.5287796E-31
   6.710000      4.7820262E-31
   6.720000      5.0357680E-31
   6.730000      5.2889690E-31
   6.740000      5.5405168E-31
   6.750000      5.7892180E-31
   6.760000      6.0337975E-31
   6.770000      6.2728958E-31
   6.780000      6.5050682E-31
   6.790000      6.7287807E-31
   6.800000      6.9424127E-31
   6.810000      7.1442526E-31
   6.820000      7.3324982E-31
   6.830000      7.5052559E-31
   6.840000      7.6605425E-31
   6.850000      7.7962829E-31
   6.860000      7.9103134E-31
   6.870000      8.0003835E-31
   6.880000      8.0641583E-31
   6.890000      8.0992210E-31
   6.900000      8.1030775E-31
   6.910000      8.0731626E-31
   6.920000      8.0068412E-31
   6.930000      7.9014201E-31
   6.940000      7.7541527E-31
   6.950000      7.5622472E-31
   6.960000      7.3228756E-31
   6.970000      7.0331825E-31
   6.980000      6.6902960E-31
   6.990000      6.2913393E-31
   7.000000      5.8334415E-31
   7.010000      5.3137503E-31
   7.020000      4.7294468E-31
   7.030000      4.0777556E-31
   7.040000      3.3559616E-31
   7.050000      2.5614236E-31
   7.060000      1.6915939E-31