  -2.600000      0.0000000E+00
  -2.590000      0.0000000E+00
  -2.580000      0.0000000E+00
  -2.570000      0.0000000E+00
  -2.560000      0.0000000E+00
  -2.550000      0.0000000E+00
  -2.540000      0.0000000E+00
  -2.530000      0.0000000E+00
  -2.520000      0.0000000E+00
  -2.510000      0.0000000E+00
  -2.500000      0.0000000E+00
  -2.490000      0.0000000E+00
  -2.480000      0.0000000E+00
  -2.470000      0.0000000E+00
  -2.460000      0.0000000E+00
  -2.450000      0.0000000E+00
  -2.440000      0.0000000E+00
  -2.430000      0.0000000E+00
  -2.420000      0.0000000E+00
  -2.410000      0.0000000E+00
  -2.400000      0.0000000E+00
  -2.390000      0.0000000E+00
  -2.380000      0.0000000E+00
  -2.370000      0.0000000E+00
  -2.360000      0.0000000E+00
  -2.350000      0.0000000E+00
  -2.340000      0.0000000E+00
  -2.330000      0.0000000E+00
  -2.320000      0.0000000E+00
  -2.310000      0.0000000E+00
  -2.300000      0.0000000E+00
  -2.290000      0.0000000E+00
  -2.280000      0.0000000E+00
  -2.270000      0.0000000E+00
  -2.260000      0.0000000E+00
  -2.250000      0.0000000E+00
  -2.240000      0.0000000E+00
  -2.230000      0.0000000E+00
  -2.220000      0.0000000E+00
  -2.210000      0.0000000E+00
  -2.200000      0.0000000E+00
  -2.190000      0.0000000E+00
  -2.180000      0.0000000E+00
  -2.170000      0.0000000E+00
  -2.160000      0.0000000E+00
  -2.150000      0.0000000E+00
  -2.140000      0.0000000E+00
  -2.130000      0.0000000E+00
  -2.120000      0.0000000E+00
  -2.110000      0.0000000E+00
  -2.100000      0.0000000E+00
  -2.090000      0.0000000E+00
  -2.080000      0.0000000E+00
  -2.070000      0.0000000E+00
  -2.060000      0.0000000E+00
  -2.050000      0.0000000E+00
  -2.040000      0.0000000E+00
  -2.030000      0.0000000E+00
  -2.020000      0.0000000E+00
  -2.010000      0.0000000E+00
  -2.000000      0.0000000E+00
  -1.990000      0.0000000E+00
  -1.980000      0.0000000E+00
  -1.970000      0.0000000E+00
  -1.960000      0.0000000E+00
  -1.950000      0.0000000E+00
  -1.940000      0.0000000E+00
  -1.930000      0.0000000E+00
  -1.920000      0.0000000E+00
  -1.910000      0.0000000E+00
  -1.900000      0.0000000E+00
  -1.890000      0.0000000E+00
  -1.880000      0.0000000E+00
  -1.870000      0.0000000E+00
  -1.860000      0.0000000E+00
  -1.850000      0.0000000E+00
  -1.840000      0.0000000E+00
  -1.830000      0.0000000E+00
  -1.820000      0.0000000E+00
  -1.810000      0.0000000E+00
  -1.800000      0.0000000E+00
  -1.790000      0.0000000E+00
  -1.780000      0.0000000E+00
  -1.770000      0.0000000E+00
  -1.760000      0.0000000E+00
  -1.750000      0.0000000E+00
  -1.740000      0.0000000E+00
  -1.730000      0.0000000E+00
  -1.720000      0.0000000E+00
  -1.710000      0.0000000E+00
  -1.700000      0.0000000E+00
  -1.690000      0.0000000E+00
  -1.680000      0.0000000E+00
  -1.670000      0.0000000E+00
  -1.660000      0.0000000E+00
  -1.650000      0.0000000E+00
  -1.640000      0.0000000E+00
  -1.630000      0.0000000E+00
  -1.620000      0.0000000E+00
  -1.610000      0.0000000E+00
  -1.600000      0.0000000E+00
  -1.590000      0.0000000E+00
  -1.580000      0.0000000E+00
  -1.570000      0.0000000E+00
  -1.560000      0.0000000E+00
  -1.550000      0.0000000E+00
  -1.540000      0.0000000E+00
  -1.530000      0.0000000E+00
  -1.520000      0.0000000E+00
  -1.510000      0.0000000E+00
  -1.500000      0.0000000E+00
  -1.490000      0.0000000E+00
  -1.480000      0.0000000E+00
  -1.470000      0.0000000E+00
  -1.460000      0.0000000E+00
  -1.450000      0.0000000E+00
  -1.440000      0.0000000E+00
  -1.430000      0.0000000E+00
  -1.420000      0.0000000E+00
  -1.410000      0.0000000E+00
  -1.400000      0.0000000E+00
  -1.390000      0.0000000E+00
  -1.380000      0.0000000E+00
  -1.370000      0.0000000E+00
  -1.360000      0.0000000E+00
  -1.350000      0.0000000E+00
  -1.340000      0.0000000E+00
  -1.330000      0.0000000E+00
  -1.320000      0.0000000E+00
  -1.310000      0.0000000E+00
  -1.300000      0.0000000E+00
  -1.290000      0.0000000E+00
  -1.280000      0.0000000E+00
  -1.270000      0.0000000E+00
  -1.260000      0.0000000E+00
  -1.250000      0.0000000E+00
  -1.240000      0.0000000E+00
  -1.230000      0.0000000E+00
  -1.220000      0.0000000E+00
  -1.210000      0.0000000E+00
  -1.200000      0.0000000E+00
  -1.190000      0.0000000E+00
  -1.180000      0.0000000E+00
  -1.170000      0.0000000E+00
  -1.160000      0.0000000E+00
  -1.150000      0.0000000E+00
  -1.140000      0.0000000E+00
  -1.130000      0.0000000E+00
  -1.120000      0.0000000E+00
  -1.110000      0.0000000E+00
  -1.100000      0.0000000E+00
  -1.090000      0.0000000E+00
  -1.080000      0.0000000E+00
  -1.070000      0.0000000E+00
  -1.060000      0.0000000E+00
  -1.050000      0.0000000E+00
  -1.040000      0.0000000E+00
  -1.030000      0.0000000E+00
  -1.020000      0.0000000E+00
  -1.010000      0.0000000E+00
  -1.000000      0.0000000E+00
 -0.9900000      0.0000000E+00
 -0.9800000      0.0000000E+00
 -0.9700000      0.0000000E+00
 -0.9600000      0.0000000E+00
 -0.9500000      0.0000000E+00
 -0.9400000      0.0000000E+00
 -0.9300000      0.0000000E+00
 -0.9200000      0.0000000E+00
 -0.9100000      0.0000000E+00
 -0.9000000      0.0000000E+00
 -0.8900000      0.0000000E+00
 -0.8800000      0.0000000E+00
 -0.8700000      0.0000000E+00
 -0.8600000      0.0000000E+00
 -0.8500000      0.0000000E+00
 -0.8400000      0.0000000E+00
 -0.8300000      0.0000000E+00
 -0.8200000      0.0000000E+00
 -0.8100000      0.0000000E+00
 -0.8000000      0.0000000E+00
 -0.7900000      0.0000000E+00
 -0.7800000      0.0000000E+00
 -0.7700000      0.0000000E+00
 -0.7600000      0.0000000E+00
 -0.7500000      0.0000000E+00
 -0.7400000      0.0000000E+00
 -0.7300000      0.0000000E+00
 -0.7200000      0.0000000E+00
 -0.7100000      0.0000000E+00
 -0.7000000      0.0000000E+00
 -0.6900000      0.0000000E+00
 -0.6800000      0.0000000E+00
 -0.6700000      0.0000000E+00
 -0.6600000      0.0000000E+00
 -0.6500000      0.0000000E+00
 -0.6400000      0.0000000E+00
 -0.6300000      0.0000000E+00
 -0.6200000      0.0000000E+00
 -0.6100000      0.0000000E+00
 -0.6000000      0.0000000E+00
 -0.5900000      0.0000000E+00
 -0.5800000      0.0000000E+00
 -0.5700000      0.0000000E+00
 -0.5600000      0.0000000E+00
 -0.5500000      0.0000000E+00
 -0.5400000      0.0000000E+00
 -0.5300000      0.0000000E+00
 -0.5200000      0.0000000E+00
 -0.5100000      0.0000000E+00
 -0.5000000      0.0000000E+00
 -0.4900000      0.0000000E+00
 -0.4800000      0.0000000E+00
 -0.4700000      0.0000000E+00
 -0.4600000      0.0000000E+00
 -0.4500000      0.0000000E+00
 -0.4400000      0.0000000E+00
 -0.4300000      0.0000000E+00
 -0.4200000      0.0000000E+00
 -0.4100000      0.0000000E+00
 -0.4000000      0.0000000E+00
 -0.3900000      0.0000000E+00
 -0.3800000      0.0000000E+00
 -0.3700000      0.0000000E+00
 -0.3600000      0.0000000E+00
 -0.3500000      0.0000000E+00
 -0.3400000      0.0000000E+00
 -0.3300000      0.0000000E+00
 -0.3200000      0.0000000E+00
 -0.3100000      0.0000000E+00
 -0.3000000      0.0000000E+00
 -0.2900000      0.0000000E+00
 -0.2800000      0.0000000E+00
 -0.2700000      0.0000000E+00
 -0.2600000      0.0000000E+00
 -0.2500000      0.0000000E+00
 -0.2400000      0.0000000E+00
 -0.2300000      0.0000000E+00
 -0.2200000      0.0000000E+00
 -0.2100000      0.0000000E+00
 -0.2000000      0.0000000E+00
 -0.1900000      0.0000000E+00
 -0.1800000      0.0000000E+00
 -0.1700000      0.0000000E+00
 -0.1600000      0.0000000E+00
 -0.1500000      0.0000000E+00
 -0.1400000      0.0000000E+00
 -0.1300000      0.0000000E+00
 -0.1200000      0.0000000E+00
 -0.1100000      0.0000000E+00
 -0.1000000      0.0000000E+00
 -9.0000004E-02  0.0000000E+00
 -7.9999998E-02  0.0000000E+00
 -7.0000000E-02  0.0000000E+00
 -5.9999999E-02  0.0000000E+00
 -5.0000001E-02  0.0000000E+00
 -3.9999999E-02  0.0000000E+00
 -2.9999999E-02  0.0000000E+00
 -2.0000000E-02  0.0000000E+00
 -9.9999998E-03  0.0000000E+00
 -3.4694470E-17  0.0000000E+00
  9.9999998E-03  0.0000000E+00
  2.0000000E-02  0.0000000E+00
  2.9999999E-02  0.0000000E+00
  3.9999999E-02  0.0000000E+00
  5.0000001E-02  0.0000000E+00
  5.9999999E-02  0.0000000E+00
  7.0000000E-02  0.0000000E+00
  7.9999998E-02  0.0000000E+00
  9.0000004E-02  0.0000000E+00
  0.1000000      0.0000000E+00
  0.1100000      0.0000000E+00
  0.1200000      0.0000000E+00
  0.1300000      0.0000000E+00
  0.1400000      0.0000000E+00
  0.1500000      0.0000000E+00
  0.1600000      0.0000000E+00
  0.1700000      0.0000000E+00
  0.1800000      0.0000000E+00
  0.1900000      0.0000000E+00
  0.2000000      0.0000000E+00
  0.2100000     -1.2852984E-38
  0.2200000     -1.5842479E-38
  0.2300000     -1.8527716E-38
  0.2400000     -2.1125389E-38
  0.2500000     -2.4830451E-38
  0.2600000     -2.9500326E-38
  0.2700000     -3.3767414E-38
  0.2800000     -3.7541391E-38
  0.2900000     -3.9907021E-38
  0.3000000     -4.1703318E-38
  0.3100000     -4.4889470E-38
  0.3200000     -4.5770062E-38
  0.3300000     -3.8086241E-38
  0.3400000     -2.1986440E-38
  0.3500000      0.0000000E+00
  0.3600000      3.1536965E-38
  0.3700000      7.3094116E-38
  0.3800000      1.2530378E-37
  0.3900000      1.8718779E-37
  0.4000000      2.5040697E-37
  0.4100000      3.1587471E-37
  0.4200000      3.8960196E-37
  0.4300000      4.6542606E-37
  0.4400000      5.2142773E-37
  0.4500000      5.5104064E-37
  0.4600000      5.5062833E-37
  0.4700000      5.0894201E-37
  0.4800000      4.3125411E-37
  0.4900000      3.1223797E-37
  0.5000000      1.3590707E-37
  0.5100000     -8.2358397E-38
  0.5200000     -3.3783149E-37
  0.5300000     -6.0739881E-37
  0.5400000     -8.8068644E-37
  0.5500000     -1.1792887E-36
  0.5600000     -1.4943463E-36
  0.5700000     -1.8285798E-36
  0.5800000     -2.1707077E-36
  0.5900000     -2.6295021E-36
  0.6000000     -3.2884716E-36
  0.6100000     -4.0251032E-36
  0.6200000     -4.7766206E-36
  0.6300000     -5.5570563E-36
  0.6400000     -6.2518313E-36
  0.6500000     -6.8207500E-36
  0.6600000     -7.3340868E-36
  0.6700000     -7.6147626E-36
  0.6800000     -7.6428226E-36
  0.6900000     -7.5956364E-36
  0.7000000     -7.3082860E-36
  0.7100000     -6.6825519E-36
  0.7200000     -5.6946122E-36
  0.7300000     -4.2801242E-36
  0.7400000     -2.4245113E-36
  0.7500000     -3.2610362E-38
  0.7600000      2.8592056E-36
  0.7700000      6.1438255E-36
  0.7800000      9.6527264E-36
  0.7900000      1.3166791E-35
  0.8000000      1.6729899E-35
  0.8100000      2.0443343E-35
  0.8200000      2.4244103E-35
  0.8300000      2.8025240E-35
  0.8400000      3.1955593E-35
  0.8500000      3.6033146E-35
  0.8600000      3.9659753E-35
  0.8700000      4.3026198E-35
  0.8800000      4.6305366E-35
  0.8900000      4.9272901E-35
  0.9000000      5.2008416E-35
  0.9100000      5.4265095E-35
  0.9200000      5.5885923E-35
  0.9300000      5.7348243E-35
  0.9400000      5.8430587E-35
  0.9500000      5.8303292E-35
  0.9600000      5.6973634E-35
  0.9700000      5.4581113E-35
  0.9800000      5.1753980E-35
  0.9900000      4.8718053E-35
   1.000000      4.4931449E-35
   1.010000      4.0065350E-35
   1.020000      3.3670193E-35
   1.030000      2.5930496E-35
   1.040000      1.7229133E-35
   1.050000      7.4101179E-36
   1.060000     -3.7433867E-36
   1.070000     -1.6062958E-35
   1.080000     -2.9636465E-35
   1.090000     -4.4755225E-35
   1.100000     -6.1401000E-35
   1.110000     -8.0053295E-35
   1.120000     -1.0043498E-34
   1.130000     -1.1952189E-34
   1.140000     -1.3721920E-34
   1.150000     -1.5605864E-34
   1.160000     -1.7654008E-34
   1.170000     -1.9995186E-34
   1.180000     -2.2515775E-34
   1.190000     -2.5009258E-34
   1.200000     -2.6896661E-34
   1.210000     -2.8083543E-34
   1.220000     -2.8988924E-34
   1.230000     -2.9593895E-34
   1.240000     -2.9931702E-34
   1.250000     -2.9954787E-34
   1.260000     -3.0084921E-34
   1.270000     -3.0390774E-34
   1.280000     -3.0409320E-34
   1.290000     -3.0349659E-34
   1.300000     -3.0325415E-34
   1.310000     -3.0118682E-34
   1.320000     -3.0097160E-34
   1.330000     -3.0182808E-34
   1.340000     -2.9914591E-34
   1.350000     -2.9147746E-34
   1.360000     -2.7757024E-34
   1.370000     -2.5725102E-34
   1.380000     -2.2989099E-34
   1.390000     -1.9470085E-34
   1.400000     -1.5131061E-34
   1.410000     -1.0200552E-34
   1.420000     -4.8370588E-35
   1.430000      1.4559930E-35
   1.440000      8.2563894E-35
   1.450000      1.5261043E-34
   1.460000      2.3453087E-34
   1.470000      3.2710532E-34
   1.480000      4.2176499E-34
   1.490000      5.1673542E-34
   1.500000      6.1503664E-34
   1.510000      7.1414749E-34
   1.520000      8.1040243E-34
   1.530000      9.0321799E-34
   1.540000      9.9204771E-34
   1.550000      1.0752295E-33
   1.560000      1.1495185E-33
   1.570000      1.2136471E-33
   1.580000      1.2665587E-33
   1.590000      1.3099501E-33
   1.600000      1.3467256E-33
   1.610000      1.3706640E-33
   1.620000      1.3742669E-33
   1.630000      1.3627992E-33
   1.640000      1.3357309E-33
   1.650000      1.2816116E-33
   1.660000      1.1980780E-33
   1.670000      1.0869365E-33
   1.680000      9.4560953E-34
   1.690000      7.6873675E-34
   1.700000      5.5834866E-34
   1.710000      3.1934180E-34
   1.720000      4.4790269E-35
   1.730000     -2.6904056E-34
   1.740000     -6.1937835E-34
   1.750000     -1.0063464E-33
   1.760000     -1.4291735E-33
   1.770000     -1.8866315E-33
   1.780000     -2.3766365E-33
   1.790000     -2.8965898E-33
   1.800000     -3.4439916E-33
   1.810000     -4.0153072E-33
   1.820000     -4.6067657E-33
   1.830000     -5.2132855E-33
   1.840000     -5.8286219E-33
   1.850000     -6.4454530E-33
   1.860000     -7.0565859E-33
   1.870000     -7.6551888E-33
   1.880000     -8.2324858E-33
   1.890000     -8.7792479E-33
   1.900000     -9.2853695E-33
   1.910000     -9.7401006E-33
   1.920000     -1.0132592E-32
   1.930000     -1.0451464E-32
   1.940000     -1.0683705E-32
   1.950000     -1.0816916E-32
   1.960000     -1.0839883E-32
   1.970000     -1.0739665E-32
   1.980000     -1.0503110E-32
   1.990000     -1.0117269E-32
   2.000000     -9.5692176E-33
   2.010000     -8.8464311E-33
   2.020000     -7.9367667E-33
   2.030000     -6.8288985E-33
   2.040000     -5.5101922E-33
   2.050000     -3.9689039E-33
   2.060000     -2.1957478E-33
   2.070000     -1.8163044E-34
   2.080000      2.0813149E-33
   2.090000      4.5996965E-33
   2.100000      7.3784561E-33
   2.110000      1.0420404E-32
   2.120000      1.3726443E-32
   2.130000      1.7295032E-32
   2.140000      2.1121397E-32
   2.150000      2.5197676E-32
   2.160000      2.9512887E-32
   2.170000      3.4052349E-32
   2.180000      3.8797235E-32
   2.190000      4.3724790E-32
   2.200000      4.8807475E-32
   2.210000      5.4012702E-32
   2.220000      5.9304689E-32
   2.230000      6.4642738E-32
   2.240000      6.9980270E-32
   2.250000      7.5266521E-32
   2.260000      8.0446078E-32
   2.270000      8.5459027E-32
   2.280000      9.0241138E-32
   2.290000      9.4724156E-32
   2.300000      9.8836059E-32
   2.310000      1.0250154E-31
   2.320000      1.0564237E-31
   2.330000      1.0817772E-31
   2.340000      1.1002487E-31
   2.350000      1.1109964E-31
   2.360000      1.1131688E-31
   2.370000      1.1059118E-31
   2.380000      1.0883734E-31
   2.390000      1.0597107E-31
   2.400000      1.0190959E-31
   2.410000      9.6572303E-32
   2.420000      8.9881454E-32
   2.430000      8.1762850E-32
   2.440000      7.2146618E-32
   2.450000      6.0968137E-32
   2.460000      4.8168837E-32
   2.470000      3.3697191E-32
   2.480000      1.7509816E-32
   2.490000     -4.2737072E-34
   2.500000     -2.0137870E-32
   2.510000     -4.1633233E-32
   2.520000     -6.4911592E-32
   2.530000     -8.9956139E-32
   2.540000     -1.1673356E-31
   2.550000     -1.4519240E-31
   2.560000     -1.7526140E-31
   2.570000     -2.0684798E-31
   2.580000     -2.3983658E-31
   2.590000     -2.7408731E-31
   2.600000     -3.0943473E-31
   2.610000     -3.4568665E-31
   2.620000     -3.8262315E-31
   2.630000     -4.1999600E-31
   2.640000     -4.5752850E-31
   2.650000     -4.9491505E-31
   2.660000     -5.3182162E-31
   2.670000     -5.6788630E-31
   2.680000     -6.0272001E-31
   2.690000     -6.3590788E-31
   2.700000     -6.6701095E-31
   2.710000     -6.9556766E-31
   2.720000     -7.2109648E-31
   2.730000     -7.4309802E-31
   2.740000     -7.6105755E-31
   2.750000     -7.7444822E-31
   2.760000     -7.8273409E-31
   2.770000     -7.8537312E-31
   2.780000     -7.8182110E-31
   2.790000     -7.7153468E-31
   2.800000     -7.5397557E-31
   2.810000     -7.2861419E-31
   2.820000     -6.9493378E-31
   2.830000     -6.5243501E-31
   2.840000     -6.0064023E-31
   2.850000     -5.3909864E-31
   2.860000     -4.6739094E-31
   2.870000     -3.8513544E-31
   2.880000     -2.9199369E-31
   2.890000     -1.8767722E-31
   2.900000     -7.1953602E-32
   2.910000      5.5345724E-32
   2.920000      1.9431842E-31
   2.930000      3.4498237E-31
   2.940000      5.0726738E-31
   2.950000      6.8100742E-31
   2.960000      8.6593111E-31
   2.970000      1.0616530E-30
   2.980000      1.2676646E-30
   2.990000      1.4833263E-30
   3.000000      1.7078592E-30
   3.010000      1.9403372E-30
   3.020000      2.1796806E-30
   3.030000      2.4246501E-30
   3.040000      2.6738419E-30
   3.050000      2.9256851E-30
   3.060000      3.1784367E-30
   3.070000      3.4301835E-30
   3.080000      3.6788418E-30
   3.090000      3.9221582E-30
   3.100000      4.1577141E-30
   3.110000      4.3829309E-30
   3.120000      4.5950751E-30
   3.130000      4.7912672E-30
   3.140000      4.9684904E-30
   3.150000      5.1236015E-30
   3.160000      5.2533418E-30
   3.170000      5.3543504E-30
   3.180000      5.4231772E-30
   3.190000      5.4563006E-30
   3.200000      5.4501399E-30
   3.210000      5.4010757E-30
   3.220000      5.3054676E-30
   3.230000      5.1596754E-30
   3.240000      4.9600802E-30
   3.250000      4.7031081E-30
   3.260000      4.3852545E-30
   3.270000      4.0031123E-30
   3.280000      3.5533998E-30
   3.290000      3.0329974E-30
   3.300000      2.4389785E-30
   3.310000      1.7686458E-30
   3.320000      1.0195720E-30
   3.330000      1.8964382E-31
   3.340000     -7.2289592E-31
   3.350000     -1.7194012E-30
   3.360000     -2.8007737E-30
   3.370000     -3.9674134E-30
   3.380000     -5.2191644E-30
   3.390000     -6.5552674E-30
   3.400000     -7.9743001E-30
   3.410000     -9.4741339E-30
   3.420000     -1.1051883E-29
   3.430000     -1.2703849E-29
   3.440000     -1.4425480E-29
   3.450000     -1.6211327E-29
   3.460000     -1.8054996E-29
   3.470000     -1.9949125E-29
   3.480000     -2.1885347E-29
   3.490000     -2.3854255E-29
   3.500000     -2.5845396E-29
   3.510000     -2.7847232E-29
   3.520000     -2.9847150E-29
   3.530000     -3.1831448E-29
   3.540000     -3.3785325E-29
   3.550000     -3.5692893E-29
   3.560000     -3.7537178E-29
   3.570000     -3.9300150E-29
   3.580000     -4.0962727E-29
   3.590000     -4.2504798E-29
   3.600000     -4.3905268E-29
   3.610000     -4.5142092E-29
   3.620000     -4.6192310E-29
   3.630000     -4.7032097E-29
   3.640000     -4.7636836E-29
   3.650000     -4.7981168E-29
   3.660000     -4.8039091E-29
   3.670000     -4.7784022E-29
   3.680000     -4.7188919E-29
   3.690000     -4.6226384E-29
   3.700000     -4.4868802E-29
   3.710000     -4.3088451E-29
   3.720000     -4.0857698E-29
   3.730000     -3.8149136E-29
   3.740000     -3.4935785E-29
   3.750000     -3.1191296E-29
   3.760000     -2.6890177E-29
   3.770000     -2.2008008E-29
   3.780000     -1.6521697E-29
   3.790000     -1.0409736E-29
   3.800000     -3.6524701E-30
   3.810000      3.7676057E-30
   3.820000      1.1865558E-29
   3.830000      2.0653737E-29
   3.840000      3.0141466E-29
   3.850000      4.0334700E-29
   3.860000      5.1235791E-29
   3.870000      6.2843106E-29
   3.880000      7.5150749E-29
   3.890000      8.8148231E-29
   3.900000      1.0182016E-28
   3.910000      1.1614605E-28
   3.920000      1.3109988E-28
   3.930000      1.4664988E-28
   3.940000      1.6275822E-28
   3.950000      1.7938077E-28
   3.960000      1.9646673E-28
   3.970000      2.1395849E-28
   3.980000      2.3179135E-28
   3.990000      2.4989314E-28
   4.000000      2.6818418E-28
   4.010000      2.8657698E-28
   4.020000      3.0497597E-28
   4.030000      3.2327733E-28
   4.040000      3.4136894E-28
   4.050000      3.5913011E-28
   4.060000      3.7643146E-28
   4.070000      3.9313498E-28
   4.080000      4.0909381E-28
   4.090000      4.2415246E-28
   4.100000      4.3814665E-28
   4.110000      4.5090353E-28
   4.120000      4.6224192E-28
   4.130000      4.7197229E-28
   4.140000      4.7989740E-28
   4.150000      4.8581241E-28
   4.160000      4.8950548E-28
   4.170000      4.9075820E-28
   4.180000      4.8934611E-28
   4.190000      4.8503963E-28
   4.200000      4.7760458E-28
   4.210000      4.6680334E-28
   4.220000      4.5239536E-28
   4.230000      4.3413851E-28
   4.240000      4.1178992E-28
   4.250000      3.8510719E-28
   4.260000      3.5384988E-28
   4.270000      3.1778056E-28
   4.280000      2.7666624E-28
   4.290000      2.3027986E-28
   4.300000      1.7840188E-28
   4.310000      1.2082199E-28
   4.320000      5.7340459E-29
   4.330000     -1.2229694E-29
   4.340000     -8.8060968E-29
   4.350000     -1.7030962E-28
   4.360000     -2.5911336E-28
   4.370000     -3.5458934E-28
   4.380000     -4.5683212E-28
   4.390000     -5.6591131E-28
   4.400000     -6.8186895E-28
   4.410000     -8.0471709E-28
   4.420000     -9.3443559E-28
   4.430000     -1.0709692E-27
   4.440000     -1.2142251E-27
   4.450000     -1.3640701E-27
   4.460000     -1.5203278E-27
   4.470000     -1.6827759E-27
   4.480000     -1.8511432E-27
   4.490000     -2.0251071E-27
   4.500000     -2.2042898E-27
   4.510000     -2.3882577E-27
   4.520000     -2.5765162E-27
   4.530000     -2.7685089E-27
   4.540000     -2.9636137E-27
   4.550000     -3.1611413E-27
   4.560000     -3.3603325E-27
   4.570000     -3.5603565E-27
   4.580000     -3.7603081E-27
   4.590000     -3.9592066E-27
   4.600000     -4.1559939E-27
   4.610000     -4.3495333E-27
   4.620000     -4.5386084E-27
   4.630000     -4.7219215E-27
   4.640000     -4.8980936E-27
   4.650000     -5.0656641E-27
   4.660000     -5.2230912E-27
   4.670000     -5.3687504E-27
   4.680000     -5.5009366E-27
   4.690000     -5.6178645E-27
   4.700000     -5.7176700E-27
   4.710000     -5.7984119E-27
   4.720000     -5.8580753E-27
   4.730000     -5.8945724E-27
   4.740000     -5.9057467E-27
   4.750000     -5.8893747E-27
   4.760000     -5.8431740E-27
   4.770000     -5.7648071E-27
   4.780000     -5.6518849E-27
   4.790000     -5.5019732E-27
   4.800000     -5.3126023E-27
   4.810000     -5.0812730E-27
   4.820000     -4.8054648E-27
   4.830000     -4.4826466E-27
   4.840000     -4.1102835E-27
   4.850000     -3.6858532E-27
   4.860000     -3.2068544E-27
   4.870000     -2.6708192E-27
   4.880000     -2.0753290E-27
   4.890000     -1.4180286E-27
   4.900000     -6.9664064E-28
   4.910000      9.1015567E-29
   4.920000      9.4701259E-28
   4.930000      1.8732908E-27
   4.940000      2.8716438E-27
   4.950000      3.9436940E-27
   4.960000      5.0908753E-27
   4.970000      6.3144105E-27
   4.980000      7.6152895E-27
   4.990000      8.9942485E-27
   5.000000      1.0451744E-26
   5.010000      1.1987929E-26
   5.020000      1.3602629E-26
   5.030000      1.5295320E-26
   5.040000      1.7065094E-26
   5.050000      1.8910640E-26
   5.060000      2.0830211E-26
   5.070000      2.2821601E-26
   5.080000      2.4882123E-26
   5.090000      2.7008567E-26
   5.100000      2.9197184E-26
   5.110000      3.1443654E-26
   5.120000      3.3743054E-26
   5.130000      3.6089835E-26
   5.140000      3.8477797E-26
   5.150000      4.0900053E-26
   5.160000      4.3349010E-26
   5.170000      4.5816339E-26
   5.180000      4.8292958E-26
   5.190000      5.0768992E-26
   5.200000      5.3233776E-26
   5.210000      5.5675806E-26
   5.220000      5.8082750E-26
   5.230000      6.0441413E-26
   5.240000      6.2737732E-26
   5.250000      6.4956767E-26
   5.260000      6.7082679E-26
   5.270000      6.9098730E-26
   5.280000      7.0987282E-26
   5.290000      7.2729808E-26
   5.300000      7.4306901E-26
   5.310000      7.5698260E-26
   5.320000      7.6882717E-26
   5.330000      7.7838268E-26
   5.340000      7.8542086E-26
   5.350000      7.8970517E-26
   5.360000      7.9099188E-26
   5.370000      7.8902983E-26
   5.380000      7.8356093E-26
   5.390000      7.7432097E-26
   5.400000      7.6103988E-26
   5.410000      7.4344298E-26
   5.420000      7.2125097E-26
   5.430000      6.9418089E-26
   5.440000      6.6194748E-26
   5.450000      6.2426323E-26
   5.460000      5.8084032E-26
   5.470000      5.3139119E-26
   5.480000      4.7563003E-26
   5.490000      4.1327372E-26
   5.500000      3.4404350E-26
   5.510000      2.6766614E-26
   5.520000      1.8387574E-26
   5.530000      9.2415171E-27
   5.540000     -6.9620292E-28
   5.550000     -1.1448964E-26
   5.560000     -2.3038712E-26
   5.570000     -3.5485802E-26
   5.580000     -4.8808707E-26
   5.590000     -6.3023817E-26
   5.600000     -7.8145276E-26
   5.610000     -9.4184661E-26
   5.620000     -1.1115082E-25
   5.630000     -1.2904952E-25
   5.640000     -1.4788330E-25
   5.650000     -1.6765120E-25
   5.660000     -1.8834836E-25
   5.670000     -2.0996583E-25
   5.680000     -2.3249042E-25
   5.690000     -2.5590421E-25
   5.700000     -2.8018436E-25
   5.710000     -3.0530278E-25
   5.720000     -3.3122586E-25
   5.730000     -3.5791425E-25
   5.740000     -3.8532261E-25
   5.750000     -4.1339906E-25
   5.760000     -4.4208510E-25
   5.770000     -4.7131540E-25
   5.780000     -5.0101744E-25
   5.790000     -5.3111116E-25
   5.800000     -5.6150873E-25
   5.810000     -5.9211451E-25
   5.820000     -6.2282457E-25
   5.830000     -6.5352659E-25
   5.840000     -6.8409959E-25
   5.850000     -7.1441403E-25
   5.860000     -7.4433114E-25
   5.870000     -7.7370314E-25
   5.880000     -8.0237311E-25
   5.890000     -8.3017483E-25
   5.900000     -8.5693270E-25
   5.910000     -8.8246172E-25
   5.920000     -9.0656763E-25
   5.930000     -9.2904691E-25
   5.940000     -9.4968667E-25
   5.950000     -9.6826493E-25
   5.960000     -9.8455087E-25
   5.970000     -9.9830515E-25
   5.980000     -1.0092800E-24
   5.990000     -1.0172194E-24
   6.000000     -1.0218597E-24
   6.010000     -1.0229299E-24
   6.020000     -1.0201527E-24
   6.030000     -1.0132438E-24
   6.040000     -1.0019143E-24
   6.050000     -9.8586965E-25
   6.060000     -9.6481160E-25
   6.070000     -9.3843850E-25
   6.080000     -9.0644634E-25
   6.090000     -8.6852964E-25
   6.100000     -8.2438267E-25
   6.110000     -7.7370072E-25
   6.120000     -7.1618068E-25
   6.130000     -6.5152288E-25
   6.140000     -5.7943249E-25
   6.150000     -4.9962062E-25
   6.160000     -4.1180632E-25
   6.170000     -3.1571752E-25
   6.180000     -2.1109311E-25
   6.190000     -9.7684880E-26
   6.200000      2.4740752E-26
   6.210000      1.5640076E-25
   6.220000      2.9749365E-25
   6.230000      4.4819744E-25
   6.240000      6.0866747E-25
   6.250000      7.7903431E-25
   6.260000      9.5940090E-25
   6.270000      1.1498403E-24
   6.280000      1.3503939E-24
   6.290000      1.5610689E-24
   6.300000      1.7818350E-24
   6.310000      2.0126224E-24
   6.320000      2.2533196E-24
   6.330000      2.5037706E-24
   6.340000      2.7637710E-24
   6.350000      3.0330680E-24
   6.360000      3.3113557E-24
   6.370000      3.5982738E-24
   6.380000      3.8934037E-24
   6.390000      4.1962659E-24
   6.400000      4.5063198E-24
   6.410000      4.8229587E-24
   6.420000      5.1455085E-24
   6.430000      5.4732262E-24
   6.440000      5.8052960E-24
   6.450000      6.1408286E-24
   6.460000      6.4788594E-24
   6.470000      6.8183449E-24
   6.480000      7.1581617E-24
   6.490000      7.4971076E-24
   6.500000      7.8338960E-24
   6.510000      8.1671590E-24
   6.520000      8.4954450E-24
   6.530000      8.8172151E-24
   6.540000      9.1308457E-24
   6.550000      9.4346313E-24
   6.560000      9.7267788E-24
   6.570000      1.0005413E-23
   6.580000      1.0268576E-23
   6.590000      1.0514221E-23
   6.600000      1.0740231E-23
   6.610000      1.0944405E-23
   6.620000      1.1124467E-23
   6.630000      1.1278069E-23
   6.640000      1.1402795E-23
   6.650000      1.1496160E-23
   6.660000      1.1555621E-23
   6.670000      1.1578579E-23
   6.680000      1.1562382E-23
   6.690000      1.1504334E-23
   6.700000      1.1401701E-23
   6.710000      1.1251719E-23
   6.720000      1.1051597E-23
   6.730000      1.0798530E-23
   6.740000      1.0489707E-23
   6.750000      1.0122318E-23
   6.760000      9.6935678E-24
   6.770000      9.2006851E-24
   6.780000      8.6409323E-24
   6.790000      8.0116217E-24
   6.800000      7.3101168E-24
   6.810000      6.5338607E-24
   6.820000      5.6803842E-24
   6.830000      4.7473144E-24
   6.840000      3.7323940E-24
   6.850000      2.6334987E-24
   6.860000      1.4486492E-24
   6.870000      1.7603356E-25
   6.880000     -1.1859788E-24
   6.890000     -2.6388220E-24
   6.900000     -4.1837147E-24
   6.910000     -5.8216444E-24
   6.920000     -7.5533384E-24
   6.930000     -9.3792509E-24
   6.940000     -1.1299547E-23
   6.950000     -1.3314079E-23
   6.960000     -1.5422365E-23
   6.970000     -1.7623572E-23
   6.980000     -1.9916496E-23
   6.990000     -2.2299533E-23
   7.000000     -2.4770676E-23
   7.010000     -2.7327480E-23
   7.020000     -2.9967049E-23
   7.030000     -3.2686019E-23
   7.040000     -3.5480531E-23
   7.050000     -3.8346216E-23
   7.060000     -4.1278176E-23