  -2.600000      0.0000000E+00
  -2.590000      0.0000000E+00
  -2.580000      0.0000000E+00
  -2.570000      0.0000000E+00
  -2.560000      0.0000000E+00
  -2.550000      0.0000000E+00
  -2.540000      0.0000000E+00
  -2.530000      0.0000000E+00
  -2.520000      0.0000000E+00
  -2.510000      0.0000000E+00
  -2.500000      0.0000000E+00
  -2.490000      0.0000000E+00
  -2.480000      0.0000000E+00
  -2.470000      0.0000000E+00
  -2.460000      0.0000000E+00
  -2.450000      0.0000000E+00
  -2.440000      0.0000000E+00
  -2.430000      0.0000000E+00
  -2.420000      0.0000000E+00
  -2.410000      0.0000000E+00
  -2.400000      0.0000000E+00
  -2.390000      0.0000000E+00
  -2.380000      0.0000000E+00
  -2.370000      0.0000000E+00
  -2.360000      0.0000000E+00
  -2.350000      0.0000000E+00
  -2.340000      0.0000000E+00
  -2.330000      0.0000000E+00
  -2.320000      0.0000000E+00
  -2.310000      0.0000000E+00
  -2.300000      0.0000000E+00
  -2.290000      0.0000000E+00
  -2.280000      0.0000000E+00
  -2.270000      0.0000000E+00
  -2.260000      0.0000000E+00
  -2.250000      0.0000000E+00
  -2.240000      0.0000000E+00
  -2.230000      0.0000000E+00
  -2.220000      0.0000000E+00
  -2.210000      0.0000000E+00
  -2.200000      0.0000000E+00
  -2.190000      0.0000000E+00
  -2.180000      0.0000000E+00
  -2.170000      0.0000000E+00
  -2.160000      0.0000000E+00
  -2.150000      0.0000000E+00
  -2.140000      0.0000000E+00
  -2.130000      0.0000000E+00
  -2.120000      0.0000000E+00
  -2.110000      0.0000000E+00
  -2.100000      0.0000000E+00
  -2.090000      0.0000000E+00
  -2.080000      0.0000000E+00
  -2.070000      0.0000000E+00
  -2.060000      0.0000000E+00
  -2.050000      0.0000000E+00
  -2.040000      0.0000000E+00
  -2.030000      0.0000000E+00
  -2.020000      0.0000000E+00
  -2.010000      0.0000000E+00
  -2.000000      0.0000000E+00
  -1.990000      0.0000000E+00
  -1.980000      0.0000000E+00
  -1.970000      0.0000000E+00
  -1.960000      0.0000000E+00
  -1.950000      0.0000000E+00
  -1.940000      0.0000000E+00
  -1.930000      0.0000000E+00
  -1.920000      0.0000000E+00
  -1.910000      0.0000000E+00
  -1.900000      0.0000000E+00
  -1.890000      0.0000000E+00
  -1.880000      0.0000000E+00
  -1.870000      0.0000000E+00
  -1.860000      0.0000000E+00
  -1.850000      0.0000000E+00
  -1.840000      0.0000000E+00
  -1.830000      0.0000000E+00
  -1.820000      0.0000000E+00
  -1.810000      0.0000000E+00
  -1.800000      0.0000000E+00
  -1.790000      0.0000000E+00
  -1.780000      0.0000000E+00
  -1.770000      0.0000000E+00
  -1.760000      0.0000000E+00
  -1.750000      0.0000000E+00
  -1.740000      0.0000000E+00
  -1.730000      0.0000000E+00
  -1.720000      0.0000000E+00
  -1.710000      0.0000000E+00
  -1.700000      0.0000000E+00
  -1.690000      0.0000000E+00
  -1.680000      0.0000000E+00
  -1.670000      0.0000000E+00
  -1.660000      0.0000000E+00
  -1.650000      0.0000000E+00
  -1.640000      0.0000000E+00
  -1.630000      0.0000000E+00
  -1.620000      0.0000000E+00
  -1.610000      0.0000000E+00
  -1.600000      0.0000000E+00
  -1.590000      0.0000000E+00
  -1.580000      0.0000000E+00
  -1.570000      0.0000000E+00
  -1.560000      0.0000000E+00
  -1.550000      0.0000000E+00
  -1.540000      0.0000000E+00
  -1.530000      0.0000000E+00
  -1.520000      0.0000000E+00
  -1.510000      0.0000000E+00
  -1.500000      0.0000000E+00
  -1.490000      0.0000000E+00
  -1.480000      0.0000000E+00
  -1.470000      0.0000000E+00
  -1.460000      0.0000000E+00
  -1.450000      0.0000000E+00
  -1.440000      0.0000000E+00
  -1.430000      0.0000000E+00
  -1.420000      0.0000000E+00
  -1.410000      0.0000000E+00
  -1.400000      0.0000000E+00
  -1.390000      0.0000000E+00
  -1.380000      0.0000000E+00
  -1.370000      0.0000000E+00
  -1.360000      0.0000000E+00
  -1.350000      0.0000000E+00
  -1.340000      0.0000000E+00
  -1.330000      0.0000000E+00
  -1.320000      0.0000000E+00
  -1.310000      0.0000000E+00
  -1.300000      0.0000000E+00
  -1.290000      0.0000000E+00
  -1.280000      0.0000000E+00
  -1.270000      1.3235619E-38
  -1.260000      1.6510541E-38
  -1.250000      2.0945359E-38
  -1.240000      2.5847188E-38
  -1.230000      2.8966552E-38
  -1.220000      2.5328164E-38
  -1.210000      0.0000000E+00
  -1.200000     -1.3478848E-38
  -1.190000     -4.7588864E-38
  -1.180000     -9.2126871E-38
  -1.170000     -1.5267749E-37
  -1.160000     -2.2700145E-37
  -1.150000     -3.0994610E-37
  -1.140000     -3.8221180E-37
  -1.130000     -4.2055352E-37
  -1.120000     -4.0887001E-37
  -1.110000     -3.3296381E-37
  -1.100000     -1.8700052E-37
  -1.090000      3.3192801E-38
  -1.080000      3.3081747E-37
  -1.070000      7.1168205E-37
  -1.060000      1.1824723E-36
  -1.050000      1.7390092E-36
  -1.040000      2.3429965E-36
  -1.030000      2.9538572E-36
  -1.020000      3.5447730E-36
  -1.010000      3.9984755E-36
  -1.000000      4.1952474E-36
 -0.9900000      4.1263098E-36
 -0.9800000      3.6590569E-36
 -0.9700000      2.5751364E-36
 -0.9600000      6.1573176E-37
 -0.9500000     -2.2885651E-36
 -0.9400000     -6.0519492E-36
 -0.9300000     -1.0720440E-35
 -0.9200000     -1.6118256E-35
 -0.9100000     -2.1810933E-35
 -0.9000000     -2.7402863E-35
 -0.8900000     -3.2795982E-35
 -0.8800000     -3.7228282E-35
 -0.8700000     -3.9636146E-35
 -0.8600000     -3.9738407E-35
 -0.8500000     -3.6876061E-35
 -0.8400000     -3.0571379E-35
 -0.8300000     -1.9613163E-35
 -0.8200000     -2.8573409E-36
 -0.8100000      1.9448293E-35
 -0.8000000      4.7638892E-35
 -0.7900000      8.1885453E-35
 -0.7800000      1.2157776E-34
 -0.7700000      1.6488018E-34
 -0.7600000      2.0993434E-34
 -0.7500000      2.5396700E-34
 -0.7400000      2.9260373E-34
 -0.7300000      3.2149369E-34
 -0.7200000      3.3512970E-34
 -0.7100000      3.2805646E-34
 -0.7000000      2.9339120E-34
 -0.6900000      2.2353878E-34
 -0.6800000      1.1336230E-34
 -0.6700000     -3.7988525E-35
 -0.6600000     -2.3006509E-34
 -0.6500000     -4.6211585E-34
 -0.6400000     -7.3417552E-34
 -0.6300000     -1.0396714E-33
 -0.6200000     -1.3654114E-33
 -0.6100000     -1.6959682E-33
 -0.6000000     -2.0054701E-33
 -0.5900000     -2.2636052E-33
 -0.5800000     -2.4392735E-33
 -0.5700000     -2.4963553E-33
 -0.5600000     -2.3977504E-33
 -0.5500000     -2.1046413E-33
 -0.5400000     -1.5763120E-33
 -0.5300000     -7.8092140E-34
 -0.5200000      3.0201506E-34
 -0.5100000      1.6823975E-33
 -0.5000000      3.3507808E-33
 -0.4900000      5.2748369E-33
 -0.4800000      7.3975395E-33
 -0.4700000      9.6316106E-33
 -0.4600000      1.1859409E-32
 -0.4500000      1.3929743E-32
 -0.4400000      1.5664558E-32
 -0.4300000      1.6860227E-32
 -0.4200000      1.7288297E-32
 -0.4100000      1.6714082E-32
 -0.4000000      1.4902978E-32
 -0.3900000      1.1639312E-32
 -0.3800000      6.7449058E-33
 -0.3700000      9.5089268E-35
 -0.3600000     -8.3522562E-33
 -0.3500000     -1.8539778E-32
 -0.3400000     -3.0285910E-32
 -0.3300000     -4.3264795E-32
 -0.3200000     -5.6993426E-32
 -0.3100000     -7.0819773E-32
 -0.3000000     -8.3921674E-32
 -0.2900000     -9.5316993E-32
 -0.2800000     -1.0388063E-31
 -0.2700000     -1.0837699E-31
 -0.2600000     -1.0750960E-31
 -0.2500000     -9.9981037E-32
 -0.2400000     -8.4567056E-32
 -0.2300000     -6.0207392E-32
 -0.2200000     -2.6102678E-32
 -0.2100000      1.8181994E-32
 -0.2000000      7.2605766E-32
 -0.1900000      1.3654768E-31
 -0.1800000      2.0871097E-31
 -0.1700000      2.8704328E-31
 -0.1600000      3.6868240E-31
 -0.1500000      4.4993363E-31
 -0.1400000      5.2628838E-31
 -0.1300000      5.9249105E-31
 -0.1200000      6.4265823E-31
 -0.1100000      6.7045726E-31
 -0.1000000      6.6934440E-31
 -9.0000004E-02  6.3286326E-31
 -7.9999998E-02  5.5499809E-31
 -7.0000000E-02  4.3057479E-31
 -5.9999999E-02  2.5569943E-31
 -5.0000001E-02  2.8216690E-32
 -3.9999999E-02 -2.5183081E-31
 -2.9999999E-02 -5.8176306E-31
 -2.0000000E-02 -9.5587204E-31
 -9.9999998E-03 -1.3651068E-30
 -3.4694470E-17 -1.7968646E-30
  9.9999998E-03 -2.2349172E-30
  2.0000000E-02 -2.6595014E-30
  2.9999999E-02 -3.0476015E-30
  3.9999999E-02 -3.3734412E-30
  5.0000001E-02 -3.6092066E-30
  5.9999999E-02 -3.7260041E-30
  7.0000000E-02 -3.6950553E-30
  7.9999998E-02 -3.4891257E-30
  9.0000004E-02 -3.0841554E-30
  0.1000000     -2.4610742E-30
  0.1100000     -1.6077558E-30
  0.1200000     -5.2106086E-31
  0.1300000      7.9108250E-31
  0.1400000      2.3076336E-30
  0.1500000      3.9924900E-30
  0.1600000      5.7927071E-30
  0.1700000      7.6369577E-30
  0.1800000      9.4342890E-30
  0.1900000      1.1073237E-29
  0.2000000      1.2421354E-29
  0.2100000      1.3325150E-29
  0.2200000      1.3610518E-29
  0.2300000      1.3083587E-29
  0.2400000      1.1532022E-29
  0.2500000      8.7267301E-30
  0.2600000      4.4239213E-30
  0.2700000     -1.6325503E-30
  0.2800000     -9.7086286E-30
  0.2900000     -2.0077355E-29
  0.3000000     -3.3016115E-29
  0.3100000     -4.8803892E-29
  0.3200000     -6.7718664E-29
  0.3300000     -9.0034884E-29
  0.3400000     -1.1602117E-28
  0.3500000     -1.4593818E-28
  0.3600000     -1.8003667E-28
  0.3700000     -2.1855571E-28
  0.3800000     -2.6172102E-28
  0.3900000     -3.0974320E-28
  0.4000000     -3.6281573E-28
  0.4100000     -4.2111330E-28
  0.4200000     -4.8478921E-28
  0.4300000     -5.5397266E-28
  0.4400000     -6.2876538E-28
  0.4500000     -7.0923791E-28
  0.4600000     -7.9542505E-28
  0.4700000     -8.8732109E-28
  0.4800000     -9.8487445E-28
  0.4900000     -1.0879819E-27
  0.5000000     -1.1964832E-27
  0.5100000     -1.3101556E-27
  0.5200000     -1.4287097E-27
  0.5300000     -1.5517855E-27
  0.5400000     -1.6789504E-27
  0.5500000     -1.8096991E-27
  0.5600000     -1.9434563E-27
  0.5700000     -2.0795814E-27
  0.5800000     -2.2173778E-27
  0.5900000     -2.3561035E-27
  0.6000000     -2.4949854E-27
  0.6100000     -2.6332406E-27
  0.6200000     -2.7700962E-27
  0.6300000     -2.9048148E-27
  0.6400000     -3.0367208E-27
  0.6500000     -3.1652302E-27
  0.6600000     -3.2898801E-27
  0.6700000     -3.4103570E-27
  0.6800000     -3.5265268E-27
  0.6900000     -3.6384576E-27
  0.7000000     -3.7464437E-27
  0.7100000     -3.8510240E-27
  0.7200000     -3.9529916E-27
  0.7300000     -4.0534015E-27
  0.7400000     -4.1535664E-27
  0.7500000     -4.2550510E-27
  0.7600000     -4.3596571E-27
  0.7700000     -4.4693955E-27
  0.7800000     -4.5864643E-27
  0.7900000     -4.7132163E-27
  0.8000000     -4.8521197E-27
  0.8100000     -5.0057203E-27
  0.8200000     -5.1766050E-27
  0.8300000     -5.3673684E-27
  0.8400000     -5.5805808E-27
  0.8500000     -5.8187601E-27
  0.8600000     -6.0843578E-27
  0.8700000     -6.3797481E-27
  0.8800000     -6.7072267E-27
  0.8900000     -7.0690203E-27
  0.9000000     -7.4673134E-27
  0.9100000     -7.9042707E-27
  0.9200000     -8.3820724E-27
  0.9300000     -8.9029594E-27
  0.9400000     -9.4692660E-27
  0.9500000     -1.0083467E-26
  0.9600000     -1.0748220E-26
  0.9700000     -1.1466387E-26
  0.9800000     -1.2241059E-26
  0.9900000     -1.3075557E-26
   1.000000     -1.3973421E-26
   1.010000     -1.4938375E-26
   1.020000     -1.5974290E-26
   1.030000     -1.7085111E-26
   1.040000     -1.8274755E-26
   1.050000     -1.9547029E-26
   1.060000     -2.0905507E-26
   1.070000     -2.2353415E-26
   1.080000     -2.3893508E-26
   1.090000     -2.5527941E-26
   1.100000     -2.7258167E-26
   1.110000     -2.9084858E-26
   1.120000     -3.1007826E-26
   1.130000     -3.3025982E-26
   1.140000     -3.5137319E-26
   1.150000     -3.7338978E-26
   1.160000     -3.9627281E-26
   1.170000     -4.1997833E-26
   1.180000     -4.4445699E-26
   1.190000     -4.6965521E-26
   1.200000     -4.9551746E-26
   1.210000     -5.2198791E-26
   1.220000     -5.4901255E-26
   1.230000     -5.7654121E-26
   1.240000     -6.0452944E-26
   1.250000     -6.3293947E-26
   1.260000     -6.6174183E-26
   1.270000     -6.9091557E-26
   1.280000     -7.2044774E-26
   1.290000     -7.5033319E-26
   1.300000     -7.8057331E-26
   1.310000     -8.1117371E-26
   1.320000     -8.4214131E-26
   1.330000     -8.7348208E-26
   1.340000     -9.0519761E-26
   1.350000     -9.3728083E-26
   1.360000     -9.6971281E-26
   1.370000     -1.0024593E-25
   1.380000     -1.0354678E-25
   1.390000     -1.0686656E-25
   1.400000     -1.1019556E-25
   1.410000     -1.1352189E-25
   1.420000     -1.1683121E-25
   1.430000     -1.2010698E-25
   1.440000     -1.2333062E-25
   1.450000     -1.2648174E-25
   1.460000     -1.2953858E-25
   1.470000     -1.3247849E-25
   1.480000     -1.3527844E-25
   1.490000     -1.3791536E-25
   1.500000     -1.4036669E-25
   1.510000     -1.4261083E-25
   1.520000     -1.4462750E-25
   1.530000     -1.4639799E-25
   1.540000     -1.4790513E-25
   1.550000     -1.4913334E-25
   1.560000     -1.5006836E-25
   1.570000     -1.5069683E-25
   1.580000     -1.5100564E-25
   1.590000     -1.5098135E-25
   1.600000     -1.5060929E-25
   1.610000     -1.4987258E-25
   1.620000     -1.4875101E-25
   1.630000     -1.4722045E-25
   1.640000     -1.4525152E-25
   1.650000     -1.4280882E-25
   1.660000     -1.3985064E-25
   1.670000     -1.3632835E-25
   1.680000     -1.3218618E-25
   1.690000     -1.2736142E-25
   1.700000     -1.2178512E-25
   1.710000     -1.1538259E-25
   1.720000     -1.0807451E-25
   1.730000     -9.9778369E-26
   1.740000     -9.0409968E-26
   1.750000     -7.9885405E-26
   1.760000     -6.8122472E-26
   1.770000     -5.5042862E-26
   1.780000     -4.0573720E-26
   1.790000     -2.4649318E-26
   1.800000     -7.2119128E-27
   1.810000      1.1786769E-26
   1.820000      3.2384749E-26
   1.830000      5.4610197E-26
   1.840000      7.8481793E-26
   1.850000      1.0400949E-25
   1.860000      1.3119532E-25
   1.870000      1.6003524E-25
   1.880000      1.9052145E-25
   1.890000      2.2264413E-25
   1.900000      2.5639323E-25
   1.910000      2.9176109E-25
   1.920000      3.2874452E-25
   1.930000      3.6734607E-25
   1.940000      4.0757472E-25
   1.950000      4.4944665E-25
   1.960000      4.9298556E-25
   1.970000      5.3822145E-25
   1.980000      5.8518939E-25
   1.990000      6.3392660E-25
   2.000000      6.8446991E-25
   2.010000      7.3685259E-25
   2.020000      7.9110073E-25
   2.030000      8.4722882E-25
   2.040000      9.0523564E-25
   2.050000      9.6510131E-25
   2.060000      1.0267836E-24
   2.070000      1.0902152E-24
   2.080000      1.1553021E-24
   2.090000      1.2219222E-24
   2.100000      1.2899267E-24
   2.110000      1.3591412E-24
   2.120000      1.4293675E-24
   2.130000      1.5003885E-24
   2.140000      1.5719715E-24
   2.150000      1.6438751E-24
   2.160000      1.7158547E-24
   2.170000      1.7876694E-24
   2.180000      1.8590872E-24
   2.190000      1.9298902E-24
   2.200000      1.9998825E-24
   2.210000      2.0688921E-24
   2.220000      2.1367743E-24
   2.230000      2.2034145E-24
   2.240000      2.2687263E-24
   2.250000      2.3326505E-24
   2.260000      2.3951519E-24
   2.270000      2.4562141E-24
   2.280000      2.5158336E-24
   2.290000      2.5740127E-24
   2.300000      2.6307521E-24
   2.310000      2.6860426E-24
   2.320000      2.7398577E-24
   2.330000      2.7921469E-24
   2.340000      2.8428315E-24
   2.350000      2.8917978E-24
   2.360000      2.9388989E-24
   2.370000      2.9839533E-24
   2.380000      3.0267492E-24
   2.390000      3.0670488E-24
   2.400000      3.1045964E-24
   2.410000      3.1391286E-24
   2.420000      3.1703852E-24
   2.430000      3.1981228E-24
   2.440000      3.2221272E-24
   2.450000      3.2422264E-24
   2.460000      3.2583024E-24
   2.470000      3.2703018E-24
   2.480000      3.2782452E-24
   2.490000      3.2822315E-24
   2.500000      3.2824414E-24
   2.510000      3.2791346E-24
   2.520000      3.2726439E-24
   2.530000      3.2633689E-24
   2.540000      3.2517627E-24
   2.550000      3.2383139E-24
   2.560000      3.2235330E-24
   2.570000      3.2079293E-24
   2.580000      3.1919935E-24
   2.590000      3.1761776E-24
   2.600000      3.1608745E-24
   2.610000      3.1464037E-24
   2.620000      3.1329972E-24
   2.630000      3.1207913E-24
   2.640000      3.1098210E-24
   2.650000      3.1000218E-24
   2.660000      3.0912337E-24
   2.670000      3.0832124E-24
   2.680000      3.0756428E-24
   2.690000      3.0681546E-24
   2.700000      3.0603449E-24
   2.710000      3.0518027E-24
   2.720000      3.0421263E-24
   2.730000      3.0309452E-24
   2.740000      3.0179361E-24
   2.750000      3.0028353E-24
   2.760000      2.9854526E-24
   2.770000      2.9656658E-24
   2.780000      2.9434179E-24
   2.790000      2.9187053E-24
   2.800000      2.8915537E-24
   2.810000      2.8619958E-24
   2.820000      2.8300383E-24
   2.830000      2.7956274E-24
   2.840000      2.7586064E-24
   2.850000      2.7186711E-24
   2.860000      2.6753368E-24
   2.870000      2.6278966E-24
   2.880000      2.5753912E-24
   2.890000      2.5165826E-24
   2.900000      2.4499409E-24
   2.910000      2.3736343E-24
   2.920000      2.2855296E-24
   2.930000      2.1832120E-24
   2.940000      2.0640104E-24
   2.950000      1.9250302E-24
   2.960000      1.7631956E-24
   2.970000      1.5753021E-24
   2.980000      1.3580700E-24
   2.990000      1.1082029E-24
   3.000000      8.2244074E-25
   3.010000      4.9761523E-25
   3.020000      1.3069748E-25
   3.030000     -2.8116117E-25
   3.040000     -7.4059854E-25
   3.050000     -1.2500274E-24
   3.060000     -1.8116240E-24
   3.070000     -2.4273339E-24
   3.080000     -3.0988858E-24
   3.090000     -3.8278138E-24
   3.100000     -4.6154946E-24
   3.110000     -5.4631809E-24
   3.120000     -6.3720393E-24
   3.130000     -7.3431819E-24
   3.140000     -8.3776949E-24
   3.150000     -9.4766563E-24
   3.160000     -1.0641151E-23
   3.170000     -1.1872245E-23
   3.180000     -1.3170970E-23
   3.190000     -1.4538265E-23
   3.200000     -1.5974911E-23
   3.210000     -1.7481454E-23
   3.220000     -1.9058073E-23
   3.230000     -2.0704489E-23
   3.240000     -2.2419809E-23
   3.250000     -2.4202393E-23
   3.260000     -2.6049710E-23
   3.270000     -2.7958177E-23
   3.280000     -2.9923047E-23
   3.290000     -3.1938264E-23
   3.300000     -3.3996361E-23
   3.310000     -3.6088364E-23
   3.320000     -3.8203732E-23
   3.330000     -4.0330309E-23
   3.340000     -4.2454291E-23
   3.350000     -4.4560244E-23
   3.360000     -4.6631133E-23
   3.370000     -4.8648352E-23
   3.380000     -5.0591786E-23
   3.390000     -5.2439898E-23
   3.400000     -5.4169778E-23
   3.410000     -5.5757219E-23
   3.420000     -5.7176796E-23
   3.430000     -5.8401885E-23
   3.440000     -5.9404729E-23
   3.450000     -6.0156425E-23
   3.460000     -6.0626939E-23
   3.470000     -6.0785046E-23
   3.480000     -6.0598263E-23
   3.490000     -6.0032826E-23
   3.500000     -5.9053585E-23
   3.510000     -5.7623878E-23
   3.520000     -5.5705438E-23
   3.530000     -5.3258316E-23
   3.540000     -5.0240828E-23
   3.550000     -4.6609465E-23
   3.560000     -4.2318888E-23
   3.570000     -3.7321969E-23
   3.580000     -3.1569825E-23
   3.590000     -2.5011968E-23
   3.600000     -1.7596491E-23
   3.610000     -9.2702729E-24
   3.620000      2.0716375E-26
   3.630000      1.0331064E-23
   3.640000      2.1715523E-23
   3.650000      3.4228586E-23
   3.660000      4.7924023E-23
   3.670000      6.2854411E-23
   3.680000      7.9070602E-23
   3.690000      9.6621230E-23
   3.700000      1.1555219E-22
   3.710000      1.3590622E-22
   3.720000      1.5772231E-22
   3.730000      1.8103540E-22
   3.740000      2.0587585E-22
   3.750000      2.3226902E-22
   3.760000      2.6023504E-22
   3.770000      2.8978824E-22
   3.780000      3.2093699E-22
   3.790000      3.5368320E-22
   3.800000      3.8802205E-22
   3.810000      4.2394142E-22
   3.820000      4.6142163E-22
   3.830000      5.0043498E-22
   3.840000      5.4094487E-22
   3.850000      5.8290566E-22
   3.860000      6.2626155E-22
   3.870000      6.7094622E-22
   3.880000      7.1688165E-22
   3.890000      7.6397743E-22
   3.900000      8.1212970E-22
   3.910000      8.6122023E-22
   3.920000      9.1111531E-22
   3.930000      9.6166471E-22
   3.940000      1.0127006E-21
   3.950000      1.0640366E-21
   3.960000      1.1154666E-21
   3.970000      1.1667638E-21
   3.980000      1.2176799E-21
   3.990000      1.2679447E-21
   4.000000      1.3172645E-21
   4.010000      1.3653221E-21
   4.020000      1.4117762E-21
   4.030000      1.4562610E-21
   4.040000      1.4983859E-21
   4.050000      1.5377352E-21
   4.060000      1.5738682E-21
   4.070000      1.6063189E-21
   4.080000      1.6345961E-21
   4.090000      1.6581838E-21
   4.100000      1.6765409E-21
   4.110000      1.6891018E-21
   4.120000      1.6952764E-21
   4.130000      1.6944498E-21
   4.140000      1.6859838E-21
   4.150000      1.6692162E-21
   4.160000      1.6434617E-21
   4.170000      1.6080116E-21
   4.180000      1.5621361E-21
   4.190000      1.5050831E-21
   4.200000      1.4360799E-21
   4.210000      1.3543344E-21
   4.220000      1.2590359E-21
   4.230000      1.1493567E-21
   4.240000      1.0244540E-21
   4.250000      8.8347211E-22
   4.260000      7.2554433E-22
   4.270000      5.4979627E-22
   4.280000      3.5534816E-22
   4.290000      1.4131898E-22
   4.300000     -9.3169578E-23
   4.310000     -3.4898984E-22
   4.320000     -6.2700412E-22
   4.330000     -9.2805828E-22
   4.340000     -1.2529772E-21
   4.350000     -1.6025601E-21
   4.360000     -1.9775750E-21
   4.370000     -2.3787515E-21
   4.380000     -2.8067761E-21
   4.390000     -3.2622854E-21
   4.400000     -3.7458579E-21
   4.410000     -4.2580095E-21
   4.420000     -4.7991868E-21
   4.430000     -5.3697564E-21
   4.440000     -5.9700012E-21
   4.450000     -6.6001113E-21
   4.460000     -7.2601747E-21
   4.470000     -7.9501710E-21
   4.480000     -8.6699635E-21
   4.490000     -9.4192890E-21
   4.500000     -1.0197746E-20
   4.510000     -1.1004790E-20
   4.520000     -1.1839721E-20
   4.530000     -1.2701676E-20
   4.540000     -1.3589613E-20
   4.550000     -1.4502307E-20
   4.560000     -1.5438334E-20
   4.570000     -1.6396066E-20
   4.580000     -1.7373651E-20
   4.590000     -1.8369011E-20
   4.600000     -1.9379821E-20
   4.610000     -2.0403508E-20
   4.620000     -2.1437235E-20
   4.630000     -2.2477887E-20
   4.640000     -2.3522068E-20
   4.650000     -2.4566085E-20
   4.660000     -2.5605941E-20
   4.670000     -2.6637326E-20
   4.680000     -2.7655608E-20
   4.690000     -2.8655821E-20
   4.700000     -2.9632673E-20
   4.710000     -3.0580515E-20
   4.720000     -3.1493361E-20
   4.730000     -3.2364866E-20
   4.740000     -3.3188328E-20
   4.750000     -3.3956685E-20
   4.760000     -3.4662516E-20
   4.770000     -3.5298036E-20
   4.780000     -3.5855097E-20
   4.790000     -3.6325194E-20
   4.800000     -3.6699461E-20
   4.810000     -3.6968679E-20
   4.820000     -3.7123291E-20
   4.830000     -3.7153386E-20
   4.840000     -3.7048744E-20
   4.850000     -3.6798807E-20
   4.860000     -3.6392729E-20
   4.870000     -3.5819363E-20
   4.880000     -3.5067304E-20
   4.890000     -3.4124887E-20
   4.900000     -3.2980227E-20
   4.910000     -3.1621241E-20
   4.920000     -3.0035674E-20
   4.930000     -2.8211137E-20
   4.940000     -2.6135133E-20
   4.950000     -2.3795109E-20
   4.960000     -2.1178481E-20
   4.970000     -1.8272694E-20
   4.980000     -1.5065258E-20
   4.990000     -1.1543810E-20
   5.000000     -7.6961635E-21
   5.010000     -3.5103582E-21
   5.020000      1.0252645E-21
   5.030000      5.9219972E-21
   5.040000      1.1190710E-20
   5.050000      1.6841772E-20
   5.060000      2.2884989E-20
   5.070000      2.9329508E-20
   5.080000      3.6183749E-20
   5.090000      4.3455313E-20
   5.100000      5.1150901E-20
   5.110000      5.9276234E-20
   5.120000      6.7835912E-20
   5.130000      7.6833382E-20
   5.140000      8.6270796E-20
   5.150000      9.6148915E-20
   5.160000      1.0646703E-19
   5.170000      1.1722281E-19
   5.180000      1.2841223E-19
   5.190000      1.4002940E-19
   5.200000      1.5206654E-19
   5.210000      1.6451378E-19
   5.220000      1.7735907E-19
   5.230000      1.9058809E-19
   5.240000      2.0418409E-19
   5.250000      2.1812781E-19
   5.260000      2.3239735E-19
   5.270000      2.4696798E-19
   5.280000      2.6181212E-19
   5.290000      2.7689925E-19
   5.300000      2.9219563E-19
   5.310000      3.0766443E-19
   5.320000      3.2326539E-19
   5.330000      3.3895491E-19
   5.340000      3.5468587E-19
   5.350000      3.7040758E-19
   5.360000      3.8606559E-19
   5.370000      4.0160180E-19
   5.380000      4.1695424E-19
   5.390000      4.3205709E-19
   5.400000      4.4684059E-19
   5.410000      4.6123105E-19
   5.420000      4.7515069E-19
   5.430000      4.8851777E-19
   5.440000      5.0124664E-19
   5.450000      5.1324742E-19
   5.460000      5.2442641E-19
   5.470000      5.3468593E-19
   5.480000      5.4392424E-19
   5.490000      5.5203599E-19
   5.500000      5.5891188E-19
   5.510000      5.6443900E-19
   5.520000      5.6850092E-19
   5.530000      5.7097786E-19
   5.540000      5.7174677E-19
   5.550000      5.7068157E-19
   5.560000      5.6765332E-19
   5.570000      5.6253059E-19
   5.580000      5.5517959E-19
   5.590000      5.4546461E-19
   5.600000      5.3324813E-19
   5.610000      5.1839130E-19
   5.620000      5.0075426E-19
   5.630000      4.8019665E-19
   5.640000      4.5657785E-19
   5.650000      4.2975768E-19
   5.660000      3.9959669E-19
   5.670000      3.6595688E-19
   5.680000      3.2870193E-19
   5.690000      2.8769810E-19
   5.700000      2.4281476E-19
   5.710000      1.9392489E-19
   5.720000      1.4090585E-19
   5.730000      8.3639999E-20
   5.740000      2.2015569E-20
   5.750000     -4.4072619E-20
   5.760000     -1.1472251E-19
   5.770000     -1.9002399E-19
   5.780000     -2.7005782E-19
   5.790000     -3.5489515E-19
   5.800000     -4.4459634E-19
   5.810000     -5.3921009E-19
   5.820000     -6.3877260E-19
   5.830000     -7.4330657E-19
   5.840000     -8.5282001E-19
   5.850000     -9.6730563E-19
   5.860000     -1.0867399E-18
   5.870000     -1.2110812E-18
   5.880000     -1.3402698E-18
   5.890000     -1.4742259E-18
   5.900000     -1.6128496E-18
   5.910000     -1.7560186E-18
   5.920000     -1.9035887E-18
   5.930000     -2.0553912E-18
   5.940000     -2.2112327E-18
   5.950000     -2.3708942E-18
   5.960000     -2.5341298E-18
   5.970000     -2.7006659E-18
   5.980000     -2.8702001E-18
   5.990000     -3.0424001E-18
   6.000000     -3.2169033E-18
   6.010000     -3.3933159E-18
   6.020000     -3.5712121E-18
   6.030000     -3.7501333E-18
   6.040000     -3.9295868E-18
   6.050000     -4.1090474E-18
   6.060000     -4.2879537E-18
   6.070000     -4.4657103E-18
   6.080000     -4.6416860E-18
   6.090000     -4.8152140E-18
   6.100000     -4.9855917E-18
   6.110000     -5.1520808E-18
   6.120000     -5.3139067E-18
   6.130000     -5.4702591E-18
   6.140000     -5.6202923E-18
   6.150000     -5.7631253E-18
   6.160000     -5.8978420E-18
   6.170000     -6.0234924E-18
   6.180000     -6.1390934E-18
   6.190000     -6.2436300E-18
   6.200000     -6.3360554E-18
   6.210000     -6.4152923E-18
   6.220000     -6.4802355E-18
   6.230000     -6.5297530E-18
   6.240000     -6.5626872E-18
   6.250000     -6.5778589E-18
   6.260000     -6.5740663E-18
   6.270000     -6.5500909E-18
   6.280000     -6.5046960E-18
   6.290000     -6.4366336E-18
   6.300000     -6.3446461E-18
   6.310000     -6.2274681E-18
   6.320000     -6.0838328E-18
   6.330000     -5.9124728E-18
   6.340000     -5.7121259E-18
   6.350000     -5.4815377E-18
   6.360000     -5.2194683E-18
   6.370000     -4.9246942E-18
   6.380000     -4.5960144E-18
   6.390000     -4.2322572E-18
   6.400000     -3.8322823E-18
   6.410000     -3.3949881E-18
   6.420000     -2.9193164E-18
   6.430000     -2.4042604E-18
   6.440000     -1.8488690E-18
   6.450000     -1.2522523E-18
   6.460000     -6.1359053E-19
   6.470000      6.7862550E-20
   6.480000      7.9277104E-19
   6.490000      1.5617066E-18
   6.500000      2.3751464E-18
   6.510000      3.2334645E-18
   6.520000      4.1369226E-18
   6.530000      5.0856627E-18
   6.540000      6.0797014E-18
   6.550000      7.1189207E-18
   6.560000      8.2030625E-18
   6.570000      9.3317157E-18
   6.580000      1.0504314E-17
   6.590000      1.1720124E-17
   6.600000      1.2978240E-17
   6.610000      1.4277577E-17
   6.620000      1.5616859E-17
   6.630000      1.6994616E-17
   6.640000      1.8409171E-17
   6.650000      1.9858638E-17
   6.660000      2.1340916E-17
   6.670000      2.2853674E-17
   6.680000      2.4394355E-17
   6.690000      2.5960164E-17
   6.700000      2.7548062E-17
   6.710000      2.9154765E-17
   6.720000      3.0776734E-17
   6.730000      3.2410167E-17
   6.740000      3.4051019E-17
   6.750000      3.5694958E-17
   6.760000      3.7337398E-17
   6.770000      3.8973478E-17
   6.780000      4.0598067E-17
   6.790000      4.2205766E-17
   6.800000      4.3790895E-17
   6.810000      4.5347507E-17
   6.820000      4.6869387E-17
   6.830000      4.8350047E-17
   6.840000      4.9782740E-17
   6.850000      5.1160456E-17
   6.860000      5.2475928E-17
   6.870000      5.3721645E-17
   6.880000      5.4889846E-17
   6.890000      5.5972546E-17
   6.900000      5.6961530E-17
   6.910000      5.7848380E-17
   6.920000      5.8624474E-17
   6.930000      5.9280990E-17
   6.940000      5.9808957E-17
   6.950000      6.0199234E-17
   6.960000      6.0442544E-17
   6.970000      6.0529491E-17
   6.980000      6.0450578E-17
   6.990000      6.0196243E-17
   7.000000      5.9756851E-17
   7.010000      5.9122754E-17
   7.020000      5.8284297E-17
   7.030000      5.7231852E-17
   7.040000      5.5955850E-17
   7.050000      5.4446785E-17
   7.060000      5.2695286E-17