  -2.600000      0.0000000E+00
  -2.590000      0.0000000E+00
  -2.580000      0.0000000E+00
  -2.570000      0.0000000E+00
  -2.560000      0.0000000E+00
  -2.550000      0.0000000E+00
  -2.540000      0.0000000E+00
  -2.530000      0.0000000E+00
  -2.520000      0.0000000E+00
  -2.510000      0.0000000E+00
  -2.500000      0.0000000E+00
  -2.490000      0.0000000E+00
  -2.480000      0.0000000E+00
  -2.470000      0.0000000E+00
  -2.460000      0.0000000E+00
  -2.450000      0.0000000E+00
  -2.440000      0.0000000E+00
  -2.430000      0.0000000E+00
  -2.420000      0.0000000E+00
  -2.410000      0.0000000E+00
  -2.400000      0.0000000E+00
  -2.390000      0.0000000E+00
  -2.380000      0.0000000E+00
  -2.370000      0.0000000E+00
  -2.360000      0.0000000E+00
  -2.350000      0.0000000E+00
  -2.340000      0.0000000E+00
  -2.330000      0.0000000E+00
  -2.320000      0.0000000E+00
  -2.310000      0.0000000E+00
  -2.300000      0.0000000E+00
  -2.290000      0.0000000E+00
  -2.280000      0.0000000E+00
  -2.270000      0.0000000E+00
  -2.260000      0.0000000E+00
  -2.250000      0.0000000E+00
  -2.240000      0.0000000E+00
  -2.230000      0.0000000E+00
  -2.220000      0.0000000E+00
  -2.210000      0.0000000E+00
  -2.200000      0.0000000E+00
  -2.190000      0.0000000E+00
  -2.180000      0.0000000E+00
  -2.170000      0.0000000E+00
  -2.160000      0.0000000E+00
  -2.150000      0.0000000E+00
  -2.140000      0.0000000E+00
  -2.130000      0.0000000E+00
  -2.120000      0.0000000E+00
  -2.110000      0.0000000E+00
  -2.100000      0.0000000E+00
  -2.090000      0.0000000E+00
  -2.080000      0.0000000E+00
  -2.070000      0.0000000E+00
  -2.060000      0.0000000E+00
  -2.050000      0.0000000E+00
  -2.040000      0.0000000E+00
  -2.030000      0.0000000E+00
  -2.020000      0.0000000E+00
  -2.010000      0.0000000E+00
  -2.000000      0.0000000E+00
  -1.990000      0.0000000E+00
  -1.980000      0.0000000E+00
  -1.970000      0.0000000E+00
  -1.960000      0.0000000E+00
  -1.950000      0.0000000E+00
  -1.940000      0.0000000E+00
  -1.930000      0.0000000E+00
  -1.920000      0.0000000E+00
  -1.910000      0.0000000E+00
  -1.900000      0.0000000E+00
  -1.890000      0.0000000E+00
  -1.880000      0.0000000E+00
  -1.870000      0.0000000E+00
  -1.860000      0.0000000E+00
  -1.850000      0.0000000E+00
  -1.840000      0.0000000E+00
  -1.830000      0.0000000E+00
  -1.820000      0.0000000E+00
  -1.810000      0.0000000E+00
  -1.800000      0.0000000E+00
  -1.790000      0.0000000E+00
  -1.780000      0.0000000E+00
  -1.770000      0.0000000E+00
  -1.760000      0.0000000E+00
  -1.750000      0.0000000E+00
  -1.740000      0.0000000E+00
  -1.730000      0.0000000E+00
  -1.720000      0.0000000E+00
  -1.710000      0.0000000E+00
  -1.700000      0.0000000E+00
  -1.690000      0.0000000E+00
  -1.680000      0.0000000E+00
  -1.670000      0.0000000E+00
  -1.660000      0.0000000E+00
  -1.650000      0.0000000E+00
  -1.640000      0.0000000E+00
  -1.630000      0.0000000E+00
  -1.620000      0.0000000E+00
  -1.610000      0.0000000E+00
  -1.600000      0.0000000E+00
  -1.590000      0.0000000E+00
  -1.580000      0.0000000E+00
  -1.570000      0.0000000E+00
  -1.560000      0.0000000E+00
  -1.550000      0.0000000E+00
  -1.540000      0.0000000E+00
  -1.530000      0.0000000E+00
  -1.520000      0.0000000E+00
  -1.510000      0.0000000E+00
  -1.500000      0.0000000E+00
  -1.490000      0.0000000E+00
  -1.480000      0.0000000E+00
  -1.470000      0.0000000E+00
  -1.460000      0.0000000E+00
  -1.450000      0.0000000E+00
  -1.440000      0.0000000E+00
  -1.430000      0.0000000E+00
  -1.420000      0.0000000E+00
  -1.410000      0.0000000E+00
  -1.400000      0.0000000E+00
  -1.390000      0.0000000E+00
  -1.380000      0.0000000E+00
  -1.370000      0.0000000E+00
  -1.360000      0.0000000E+00
  -1.350000      0.0000000E+00
  -1.340000      0.0000000E+00
  -1.330000      0.0000000E+00
  -1.320000      0.0000000E+00
  -1.310000      0.0000000E+00
  -1.300000      0.0000000E+00
  -1.290000      0.0000000E+00
  -1.280000      0.0000000E+00
  -1.270000      0.0000000E+00
  -1.260000      0.0000000E+00
  -1.250000      0.0000000E+00
  -1.240000      0.0000000E+00
  -1.230000      0.0000000E+00
  -1.220000      0.0000000E+00
  -1.210000      0.0000000E+00
  -1.200000      0.0000000E+00
  -1.190000      0.0000000E+00
  -1.180000      0.0000000E+00
  -1.170000      0.0000000E+00
  -1.160000      0.0000000E+00
  -1.150000      0.0000000E+00
  -1.140000      0.0000000E+00
  -1.130000      0.0000000E+00
  -1.120000      0.0000000E+00
  -1.110000      0.0000000E+00
  -1.100000      0.0000000E+00
  -1.090000      0.0000000E+00
  -1.080000      0.0000000E+00
  -1.070000      0.0000000E+00
  -1.060000      0.0000000E+00
  -1.050000      0.0000000E+00
  -1.040000      0.0000000E+00
  -1.030000      0.0000000E+00
  -1.020000      0.0000000E+00
  -1.010000      0.0000000E+00
  -1.000000      0.0000000E+00
 -0.9900000      0.0000000E+00
 -0.9800000      0.0000000E+00
 -0.9700000      0.0000000E+00
 -0.9600000      0.0000000E+00
 -0.9500000      0.0000000E+00
 -0.9400000      0.0000000E+00
 -0.9300000      0.0000000E+00
 -0.9200000      0.0000000E+00
 -0.9100000      0.0000000E+00
 -0.9000000      0.0000000E+00
 -0.8900000      0.0000000E+00
 -0.8800000      0.0000000E+00
 -0.8700000      0.0000000E+00
 -0.8600000      0.0000000E+00
 -0.8500000      0.0000000E+00
 -0.8400000      0.0000000E+00
 -0.8300000      0.0000000E+00
 -0.8200000      0.0000000E+00
 -0.8100000      0.0000000E+00
 -0.8000000      0.0000000E+00
 -0.7900000      0.0000000E+00
 -0.7800000      0.0000000E+00
 -0.7700000      0.0000000E+00
 -0.7600000      0.0000000E+00
 -0.7500000      0.0000000E+00
 -0.7400000      0.0000000E+00
 -0.7300000      0.0000000E+00
 -0.7200000      0.0000000E+00
 -0.7100000      0.0000000E+00
 -0.7000000      0.0000000E+00
 -0.6900000      0.0000000E+00
 -0.6800000      0.0000000E+00
 -0.6700000      0.0000000E+00
 -0.6600000      0.0000000E+00
 -0.6500000      0.0000000E+00
 -0.6400000      0.0000000E+00
 -0.6300000      0.0000000E+00
 -0.6200000      0.0000000E+00
 -0.6100000      0.0000000E+00
 -0.6000000      0.0000000E+00
 -0.5900000      0.0000000E+00
 -0.5800000      0.0000000E+00
 -0.5700000      0.0000000E+00
 -0.5600000      0.0000000E+00
 -0.5500000      0.0000000E+00
 -0.5400000      0.0000000E+00
 -0.5300000      0.0000000E+00
 -0.5200000      0.0000000E+00
 -0.5100000      0.0000000E+00
 -0.5000000      0.0000000E+00
 -0.4900000      0.0000000E+00
 -0.4800000      0.0000000E+00
 -0.4700000      0.0000000E+00
 -0.4600000      0.0000000E+00
 -0.4500000      0.0000000E+00
 -0.4400000      0.0000000E+00
 -0.4300000      0.0000000E+00
 -0.4200000      0.0000000E+00
 -0.4100000      0.0000000E+00
 -0.4000000      0.0000000E+00
 -0.3900000      0.0000000E+00
 -0.3800000      0.0000000E+00
 -0.3700000      0.0000000E+00
 -0.3600000      0.0000000E+00
 -0.3500000      0.0000000E+00
 -0.3400000      0.0000000E+00
 -0.3300000      0.0000000E+00
 -0.3200000      0.0000000E+00
 -0.3100000      0.0000000E+00
 -0.3000000      0.0000000E+00
 -0.2900000      0.0000000E+00
 -0.2800000      0.0000000E+00
 -0.2700000      0.0000000E+00
 -0.2600000      0.0000000E+00
 -0.2500000      0.0000000E+00
 -0.2400000      0.0000000E+00
 -0.2300000      0.0000000E+00
 -0.2200000      0.0000000E+00
 -0.2100000      0.0000000E+00
 -0.2000000      0.0000000E+00
 -0.1900000      0.0000000E+00
 -0.1800000      0.0000000E+00
 -0.1700000      0.0000000E+00
 -0.1600000      0.0000000E+00
 -0.1500000      0.0000000E+00
 -0.1400000      0.0000000E+00
 -0.1300000      0.0000000E+00
 -0.1200000      0.0000000E+00
 -0.1100000      0.0000000E+00
 -0.1000000      0.0000000E+00
 -9.0000004E-02  0.0000000E+00
 -7.9999998E-02  0.0000000E+00
 -7.0000000E-02  0.0000000E+00
 -5.9999999E-02  0.0000000E+00
 -5.0000001E-02  0.0000000E+00
 -3.9999999E-02  0.0000000E+00
 -2.9999999E-02  0.0000000E+00
 -2.0000000E-02  0.0000000E+00
 -9.9999998E-03  0.0000000E+00
 -3.4694470E-17  0.0000000E+00
  9.9999998E-03  0.0000000E+00
  2.0000000E-02  0.0000000E+00
  2.9999999E-02  0.0000000E+00
  3.9999999E-02  0.0000000E+00
  5.0000001E-02  0.0000000E+00
  5.9999999E-02  0.0000000E+00
  7.0000000E-02  0.0000000E+00
  7.9999998E-02  0.0000000E+00
  9.0000004E-02  0.0000000E+00
  0.1000000      0.0000000E+00
  0.1100000      0.0000000E+00
  0.1200000      0.0000000E+00
  0.1300000      0.0000000E+00
  0.1400000      0.0000000E+00
  0.1500000      0.0000000E+00
  0.1600000      0.0000000E+00
  0.1700000      0.0000000E+00
  0.1800000      0.0000000E+00
  0.1900000      0.0000000E+00
  0.2000000      0.0000000E+00
  0.2100000     -1.4931281E-38
  0.2200000     -2.3295511E-38
  0.2300000     -3.3187787E-38
  0.2400000     -4.5738449E-38
  0.2500000     -5.8191385E-38
  0.2600000     -6.8926839E-38
  0.2700000     -8.1720481E-38
  0.2800000     -8.8028561E-38
  0.2900000     -8.6964398E-38
  0.3000000     -8.5953092E-38
  0.3100000     -5.6201435E-38
  0.3200000     -2.5953749E-38
  0.3300000     -2.2475492E-38
  0.3400000     -2.9845017E-38
  0.3500000     -5.3998778E-38
  0.3600000     -8.4007439E-38
  0.3700000     -1.1460842E-37
  0.3800000     -1.5662812E-37
  0.3900000     -2.1157611E-37
  0.4000000     -2.7168644E-37
  0.4100000     -3.0127359E-37
  0.4200000     -2.8424393E-37
  0.4300000     -2.3299112E-37
  0.4400000     -9.9187526E-38
  0.4500000      1.1589841E-37
  0.4600000      3.6725665E-37
  0.4700000      6.1985956E-37
  0.4800000      8.7170504E-37
  0.4900000      1.1373301E-36
  0.5000000      1.4005933E-36
  0.5100000      1.6637035E-36
  0.5200000      1.9470917E-36
  0.5300000      2.2467572E-36
  0.5400000      2.5169853E-36
  0.5500000      2.7464483E-36
  0.5600000      2.9376356E-36
  0.5700000      3.0595372E-36
  0.5800000      3.1134206E-36
  0.5900000      3.1166227E-36
  0.6000000      3.0629807E-36
  0.6100000      2.9471464E-36
  0.6200000      2.7828668E-36
  0.6300000      2.9311026E-36
  0.6400000      3.4978350E-36
  0.6500000      4.3441608E-36
  0.6600000      5.3448044E-36
  0.6700000      6.0388002E-36
  0.6800000      6.1794735E-36
  0.6900000      6.1245724E-36
  0.7000000      6.0927822E-36
  0.7100000      5.7032279E-36
  0.7200000      4.6988076E-36
  0.7300000      2.6927353E-36
  0.7400000     -3.9214667E-37
  0.7500000     -4.4229528E-36
  0.7600000     -9.2493576E-36
  0.7700000     -1.4199623E-35
  0.7800000     -1.8921715E-35
  0.7900000     -2.3502549E-35
  0.8000000     -2.7994375E-35
  0.8100000     -3.2153283E-35
  0.8200000     -3.5891063E-35
  0.8300000     -3.9318940E-35
  0.8400000     -4.2735373E-35
  0.8500000     -4.6547573E-35
  0.8600000     -4.8403798E-35
  0.8700000     -4.7231366E-35
  0.8800000     -4.4029409E-35
  0.8900000     -3.9792335E-35
  0.9000000     -3.7059213E-35
  0.9100000     -3.5480004E-35
  0.9200000     -3.3341640E-35
  0.9300000     -3.2332308E-35
  0.9400000     -3.3004836E-35
  0.9500000     -3.5507213E-35
  0.9600000     -3.9754392E-35
  0.9700000     -4.3331052E-35
  0.9800000     -4.7732690E-35
  0.9900000     -5.3103646E-35
   1.000000     -5.7035124E-35
   1.010000     -5.8939172E-35
   1.020000     -5.8257821E-35
   1.030000     -5.3825289E-35
   1.040000     -4.3284661E-35
   1.050000     -2.7052975E-35
   1.060000     -7.5975563E-36
   1.070000      1.4343905E-35
   1.080000      3.7487126E-35
   1.090000      6.3898260E-35
   1.100000      9.3818362E-35
   1.110000      1.2281610E-34
   1.120000      1.4959041E-34
   1.130000      1.6318952E-34
   1.140000      1.6114147E-34
   1.150000      1.5326720E-34
   1.160000      1.4460510E-34
   1.170000      1.3843164E-34
   1.180000      1.3499831E-34
   1.190000      1.3302454E-34
   1.200000      1.3823927E-34
   1.210000      1.5126569E-34
   1.220000      1.7206478E-34
   1.230000      1.9657335E-34
   1.240000      2.2752671E-34
   1.250000      2.6764245E-34
   1.260000      3.0157730E-34
   1.270000      3.2604997E-34
   1.280000      3.4876966E-34
   1.290000      3.7134668E-34
   1.300000      3.9055203E-34
   1.310000      4.0160778E-34
   1.320000      4.0129371E-34
   1.330000      3.9779698E-34
   1.340000      3.9056282E-34
   1.350000      3.6378763E-34
   1.360000      3.1673080E-34
   1.370000      2.7267876E-34
   1.380000      2.5120661E-34
   1.390000      2.4464682E-34
   1.400000      2.3421167E-34
   1.410000      2.3242478E-34
   1.420000      2.4806425E-34
   1.430000      2.7454979E-34
   1.440000      3.0745911E-34
   1.450000      3.4021275E-34
   1.460000      3.7348355E-34
   1.470000      4.0370521E-34
   1.480000      4.2459820E-34
   1.490000      4.3166242E-34
   1.500000      4.3295004E-34
   1.510000      4.2795892E-34
   1.520000      4.0815946E-34
   1.530000      3.7683256E-34
   1.540000      3.3571262E-34
   1.550000      2.9135027E-34
   1.560000      2.5006422E-34
   1.570000      2.1247538E-34
   1.580000      1.7881042E-34
   1.590000      1.4967803E-34
   1.600000      1.1907408E-34
   1.610000      7.9955392E-35
   1.620000      2.9486845E-35
   1.630000     -4.1593413E-35
   1.640000     -1.4058213E-34
   1.650000     -2.7035853E-34
   1.660000     -4.3152489E-34
   1.670000     -6.2674985E-34
   1.680000     -8.5638492E-34
   1.690000     -1.1128590E-33
   1.700000     -1.4005080E-33
   1.710000     -1.7194586E-33
   1.720000     -2.0574163E-33
   1.730000     -2.4100005E-33
   1.740000     -2.7758507E-33
   1.750000     -3.1529374E-33
   1.760000     -3.5412623E-33
   1.770000     -3.9409723E-33
   1.780000     -4.3535634E-33
   1.790000     -4.7818405E-33
   1.800000     -5.2280868E-33
   1.810000     -5.6937688E-33
   1.820000     -6.1768121E-33
   1.830000     -6.6758293E-33
   1.840000     -7.1890149E-33
   1.850000     -7.7091733E-33
   1.860000     -8.2220254E-33
   1.870000     -8.7143753E-33
   1.880000     -9.1738628E-33
   1.890000     -9.5839700E-33
   1.900000     -9.9280651E-33
   1.910000     -1.0188929E-32
   1.920000     -1.0351511E-32
   1.930000     -1.0401727E-32
   1.940000     -1.0326136E-32
   1.950000     -1.0113707E-32
   1.960000     -9.7549376E-33
   1.970000     -9.2412304E-33
   1.980000     -8.5623119E-33
   1.990000     -7.7071699E-33
   2.000000     -6.6674517E-33
   2.010000     -5.4300834E-33
   2.020000     -3.9799873E-33
   2.030000     -2.3038055E-33
   2.040000     -3.8634054E-34
   2.050000      1.7880195E-33
   2.060000      4.2337945E-33
   2.070000      6.9635874E-33
   2.080000      9.9870816E-33
   2.090000      1.3310084E-32
   2.100000      1.6934069E-32
   2.110000      2.0855637E-32
   2.120000      2.5066242E-32
   2.130000      2.9553245E-32
   2.140000      3.4297860E-32
   2.150000      3.9277219E-32
   2.160000      4.4466524E-32
   2.170000      4.9837105E-32
   2.180000      5.5357673E-32
   2.190000      6.0994057E-32
   2.200000      6.6709622E-32
   2.210000      7.2464313E-32
   2.220000      7.8213674E-32
   2.230000      8.3908244E-32
   2.240000      8.9492189E-32
   2.250000      9.4902573E-32
   2.260000      1.0006855E-31
   2.270000      1.0491083E-31
   2.280000      1.0934130E-31
   2.290000      1.1326409E-31
   2.300000      1.1657427E-31
   2.310000      1.1916020E-31
   2.320000      1.2090616E-31
   2.330000      1.2169217E-31
   2.340000      1.2139599E-31
   2.350000      1.1989480E-31
   2.360000      1.1706691E-31
   2.370000      1.1279257E-31
   2.380000      1.0695522E-31
   2.390000      9.9442249E-32
   2.400000      9.0145412E-32
   2.410000      7.8960271E-32
   2.420000      6.5789868E-32
   2.430000      5.0542989E-32
   2.440000      3.3132401E-32
   2.450000      1.3479326E-32
   2.460000     -8.4864638E-33
   2.470000     -3.2825027E-32
   2.480000     -5.9584404E-32
   2.490000     -8.8798524E-32
   2.500000     -1.2048479E-31
   2.510000     -1.5464207E-31
   2.520000     -1.9124861E-31
   2.530000     -2.3025981E-31
   2.540000     -2.7160697E-31
   2.550000     -3.1519567E-31
   2.560000     -3.6090451E-31
   2.570000     -4.0858467E-31
   2.580000     -4.5805912E-31
   2.590000     -5.0912198E-31
   2.600000     -5.6153779E-31
   2.610000     -6.1504117E-31
   2.620000     -6.6933537E-31
   2.630000     -7.2409140E-31
   2.640000     -7.7894683E-31
   2.650000     -8.3350402E-31
   2.660000     -8.8732934E-31
   2.670000     -9.3995143E-31
   2.680000     -9.9086068E-31
   2.690000     -1.0395095E-30
   2.700000     -1.0853118E-30
   2.710000     -1.1276454E-30
   2.720000     -1.1658532E-30
   2.730000     -1.1992470E-30
   2.740000     -1.2271112E-30
   2.750000     -1.2487075E-30
   2.760000     -1.2632799E-30
   2.770000     -1.2700606E-30
   2.780000     -1.2682760E-30
   2.790000     -1.2571527E-30
   2.800000     -1.2359231E-30
   2.810000     -1.2038319E-30
   2.820000     -1.1601420E-30
   2.830000     -1.1041395E-30
   2.840000     -1.0351397E-30
   2.850000     -9.5249226E-31
   2.860000     -8.5558704E-31
   2.870000     -7.4386101E-31
   2.880000     -6.1680295E-31
   2.890000     -4.7396134E-31
   2.900000     -3.1495168E-31
   2.910000     -1.3946401E-31
   2.920000      5.2728251E-32
   2.930000      2.6176134E-31
   2.940000      4.8767048E-31
   2.950000      7.3038147E-31
   2.960000      9.8970258E-31
   2.970000      1.2653142E-30
   2.980000      1.5567611E-30
   2.990000      1.8634437E-30
   3.000000      2.1846092E-30
   3.010000      2.5193439E-30
   3.020000      2.8665656E-30
   3.030000      3.2250152E-30
   3.040000      3.5932496E-30
   3.050000      3.9696365E-30
   3.060000      4.3523470E-30
   3.070000      4.7393502E-30
   3.080000      5.1284121E-30
   3.090000      5.5170896E-30
   3.100000      5.9027300E-30
   3.110000      6.2824715E-30
   3.120000      6.6532476E-30
   3.130000      7.0117933E-30
   3.140000      7.3546510E-30
   3.150000      7.6781824E-30
   3.160000      7.9785801E-30
   3.170000      8.2518868E-30
   3.180000      8.4940101E-30
   3.190000      8.7007451E-30
   3.200000      8.8677940E-30
   3.210000      8.9907887E-30
   3.220000      9.0653184E-30
   3.230000      9.0869550E-30
   3.240000      9.0512772E-30
   3.250000      8.9538973E-30
   3.260000      8.7904889E-30
   3.270000      8.5568187E-30
   3.280000      8.2487738E-30
   3.290000      7.8623923E-30
   3.300000      7.3938948E-30
   3.310000      6.8397235E-30
   3.320000      6.1965758E-30
   3.330000      5.4614382E-30
   3.340000      4.6316332E-30
   3.350000      3.7048663E-30
   3.360000      2.6792659E-30
   3.370000      1.5534311E-30
   3.380000      3.2648639E-31
   3.390000     -1.0018699E-30
   3.400000     -2.4313154E-30
   3.410000     -3.9608397E-30
   3.420000     -5.5886921E-30
   3.430000     -7.3123287E-30
   3.440000     -9.1283512E-30
   3.450000     -1.1032463E-29
   3.460000     -1.3019407E-29
   3.470000     -1.5082919E-29
   3.480000     -1.7215689E-29
   3.490000     -1.9409305E-29
   3.500000     -2.1654216E-29
   3.510000     -2.3939705E-29
   3.520000     -2.6253856E-29
   3.530000     -2.8583539E-29
   3.540000     -3.0914402E-29
   3.550000     -3.3230847E-29
   3.560000     -3.5516050E-29
   3.570000     -3.7751958E-29
   3.580000     -3.9919307E-29
   3.590000     -4.1997674E-29
   3.600000     -4.3965514E-29
   3.610000     -4.5800173E-29
   3.620000     -4.7477971E-29
   3.630000     -4.8974232E-29
   3.640000     -5.0263371E-29
   3.650000     -5.1318973E-29
   3.660000     -5.2113853E-29
   3.670000     -5.2620144E-29
   3.680000     -5.2809408E-29
   3.690000     -5.2652746E-29
   3.700000     -5.2120888E-29
   3.710000     -5.1184345E-29
   3.720000     -4.9813531E-29
   3.730000     -4.7978920E-29
   3.740000     -4.5651199E-29
   3.750000     -4.2801431E-29
   3.760000     -3.9401274E-29
   3.770000     -3.5423199E-29
   3.780000     -3.0840684E-29
   3.790000     -2.5628485E-29
   3.800000     -1.9762920E-29
   3.810000     -1.3222097E-29
   3.820000     -5.9862488E-30
   3.830000      1.9619627E-30
   3.840000      1.0637134E-29
   3.850000      2.0050836E-29
   3.860000      3.0211172E-29
   3.870000      4.1122486E-29
   3.880000      5.2785045E-29
   3.890000      6.5194643E-29
   3.900000      7.8342226E-29
   3.910000      9.2213556E-29
   3.920000      1.0678883E-28
   3.930000      1.2204240E-28
   3.940000      1.3794237E-28
   3.950000      1.5445034E-28
   3.960000      1.7152101E-28
   3.970000      1.8910201E-28
   3.980000      2.0713345E-28
   3.990000      2.2554782E-28
   4.000000      2.4426959E-28
   4.010000      2.6321509E-28
   4.020000      2.8229219E-28
   4.030000      3.0140024E-28
   4.040000      3.2042963E-28
   4.050000      3.3926185E-28
   4.060000      3.5776924E-28
   4.070000      3.7581494E-28
   4.080000      3.9325287E-28
   4.090000      4.0992740E-28
   4.100000      4.2567347E-28
   4.110000      4.4031684E-28
   4.120000      4.5367389E-28
   4.130000      4.6555163E-28
   4.140000      4.7574813E-28
   4.150000      4.8405274E-28
   4.160000      4.9024619E-28
   4.170000      4.9410094E-28
   4.180000      4.9538187E-28
   4.190000      4.9384696E-28
   4.200000      4.8924745E-28
   4.210000      4.8132894E-28
   4.220000      4.6983201E-28
   4.230000      4.5449323E-28
   4.240000      4.3504629E-28
   4.250000      4.1122297E-28
   4.260000      3.8275443E-28
   4.270000      3.4937231E-28
   4.280000      3.1081028E-28
   4.290000      2.6680610E-28
   4.300000      2.1710252E-28
   4.310000      1.6144911E-28
   4.320000      9.9604414E-29
   4.330000      3.1337450E-29
   4.340000     -4.3570298E-29
   4.350000     -1.2532256E-28
   4.360000     -2.1410633E-28
   4.370000     -3.1009003E-28
   4.380000     -4.1342094E-28
   4.390000     -5.2422277E-28
   4.400000     -6.4259336E-28
   4.410000     -7.6860186E-28
   4.420000     -9.0228653E-28
   4.430000     -1.0436517E-27
   4.440000     -1.1926651E-27
   4.450000     -1.3492549E-27
   4.460000     -1.5133071E-27
   4.470000     -1.6846612E-27
   4.480000     -1.8631088E-27
   4.490000     -2.0483912E-27
   4.500000     -2.2401936E-27
   4.510000     -2.4381431E-27
   4.520000     -2.6418064E-27
   4.530000     -2.8506854E-27
   4.540000     -3.0642146E-27
   4.550000     -3.2817580E-27
   4.560000     -3.5026060E-27
   4.570000     -3.7259722E-27
   4.580000     -3.9509906E-27
   4.590000     -4.1767150E-27
   4.600000     -4.4021119E-27
   4.610000     -4.6260633E-27
   4.620000     -4.8473611E-27
   4.630000     -5.0647062E-27
   4.640000     -5.2767068E-27
   4.650000     -5.4818803E-27
   4.660000     -5.6786487E-27
   4.670000     -5.8653391E-27
   4.680000     -6.0401843E-27
   4.690000     -6.2013215E-27
   4.700000     -6.3467931E-27
   4.710000     -6.4745497E-27
   4.720000     -6.5824488E-27
   4.730000     -6.6682605E-27
   4.740000     -6.7296668E-27
   4.750000     -6.7642650E-27
   4.760000     -6.7695706E-27
   4.770000     -6.7430236E-27
   4.780000     -6.6819916E-27
   4.790000     -6.5837753E-27
   4.800000     -6.4456145E-27
   4.810000     -6.2646969E-27
   4.820000     -6.0381602E-27
   4.830000     -5.7631092E-27
   4.840000     -5.4366167E-27
   4.850000     -5.0557364E-27
   4.860000     -4.6175187E-27
   4.870000     -4.1190207E-27
   4.880000     -3.5573151E-27
   4.890000     -2.9295070E-27
   4.900000     -2.2327529E-27
   4.910000     -1.4642710E-27
   4.920000     -6.2136268E-28
   4.930000      2.9857059E-28
   4.940000      1.2980098E-27
   4.950000      2.3792912E-27
   4.960000      3.5445882E-27
   4.970000      4.7958941E-27
   4.980000      6.1349909E-27
   4.990000      7.5634273E-27
   5.000000      9.0824953E-27
   5.010000      1.0693198E-26
   5.020000      1.2396232E-26
   5.030000      1.4191944E-26
   5.040000      1.6080315E-26
   5.050000      1.8060926E-26
   5.060000      2.0132926E-26
   5.070000      2.2295003E-26
   5.080000      2.4545353E-26
   5.090000      2.6881656E-26
   5.100000      2.9301033E-26
   5.110000      3.1800025E-26
   5.120000      3.4374549E-26
   5.130000      3.7019856E-26
   5.140000      3.9730517E-26
   5.150000      4.2500393E-26
   5.160000      4.5322586E-26
   5.170000      4.8189414E-26
   5.180000      5.1092379E-26
   5.190000      5.4022150E-26
   5.200000      5.6968521E-26
   5.210000      5.9920352E-26
   5.220000      6.2865614E-26
   5.230000      6.5791308E-26
   5.240000      6.8683438E-26
   5.250000      7.1527029E-26
   5.260000      7.4306112E-26
   5.270000      7.7003653E-26
   5.280000      7.9601581E-26
   5.290000      8.2080780E-26
   5.300000      8.4421090E-26
   5.310000      8.6601273E-26
   5.320000      8.8599027E-26
   5.330000      9.0391029E-26
   5.340000      9.1952893E-26
   5.350000      9.3259241E-26
   5.360000      9.4283688E-26
   5.370000      9.4998889E-26
   5.380000      9.5376568E-26
   5.390000      9.5387575E-26
   5.400000      9.5001896E-26
   5.410000      9.4188741E-26
   5.420000      9.2916635E-26
   5.430000      9.1153463E-26
   5.440000      8.8866543E-26
   5.450000      8.6022712E-26
   5.460000      8.2588375E-26
   5.470000      7.8529710E-26
   5.480000      7.3812716E-26
   5.490000      6.8403331E-26
   5.500000      6.2267608E-26
   5.510000      5.5371885E-26
   5.520000      4.7682802E-26
   5.530000      3.9167582E-26
   5.540000      2.9794139E-26
   5.550000      1.9531327E-26
   5.560000      8.3490889E-27
   5.570000     -3.7813069E-27
   5.580000     -1.6886994E-26
   5.590000     -3.0993411E-26
   5.600000     -4.6124004E-26
   5.610000     -6.2299951E-26
   5.620000     -7.9539970E-26
   5.630000     -9.7860020E-26
   5.640000     -1.1727305E-25
   5.650000     -1.3778862E-25
   5.660000     -1.5941256E-25
   5.670000     -1.8214682E-25
   5.680000     -2.0598916E-25
   5.690000     -2.3093277E-25
   5.700000     -2.5696592E-25
   5.710000     -2.8407162E-25
   5.720000     -3.1222747E-25
   5.730000     -3.4140517E-25
   5.740000     -3.7157008E-25
   5.750000     -4.0268105E-25
   5.760000     -4.3469012E-25
   5.770000     -4.6754223E-25
   5.780000     -5.0117453E-25
   5.790000     -5.3551640E-25
   5.800000     -5.7048912E-25
   5.810000     -6.0600517E-25
   5.820000     -6.4196840E-25
   5.830000     -6.7827350E-25
   5.840000     -7.1480585E-25
   5.850000     -7.5144119E-25
   5.860000     -7.8804527E-25
   5.870000     -8.2447369E-25
   5.880000     -8.6057191E-25
   5.890000     -8.9617478E-25
   5.900000     -9.3110673E-25
   5.910000     -9.6518098E-25
   5.920000     -9.9820033E-25
   5.930000     -1.0299565E-24
   5.940000     -1.0602299E-24
   5.950000     -1.0887910E-24
   5.960000     -1.1153987E-24
   5.970000     -1.1398015E-24
   5.980000     -1.1617373E-24
   5.990000     -1.1809335E-24
   6.000000     -1.1971079E-24
   6.010000     -1.2099680E-24
   6.020000     -1.2192124E-24
   6.030000     -1.2245310E-24
   6.040000     -1.2256051E-24
   6.050000     -1.2221085E-24
   6.060000     -1.2137081E-24
   6.070000     -1.2000643E-24
   6.080000     -1.1808325E-24
   6.090000     -1.1556637E-24
   6.100000     -1.1242049E-24
   6.110000     -1.0861007E-24
   6.120000     -1.0409947E-24
   6.130000     -9.8852978E-25
   6.140000     -9.2835064E-25
   6.150000     -8.6010461E-25
   6.160000     -7.8344281E-25
   6.170000     -6.9802264E-25
   6.180000     -6.0350911E-25
   6.190000     -4.9957654E-25
   6.200000     -3.8591016E-25
   6.210000     -2.6220901E-25
   6.220000     -1.2818715E-25
   6.230000      1.6423932E-26
   6.240000      1.7187306E-25
   6.250000      3.3838760E-25
   6.260000      5.1616939E-25
   6.270000      7.0539355E-25
   6.280000      9.0620623E-25
   6.290000      1.1187210E-24
   6.300000      1.3430172E-24
   6.310000      1.5791366E-24
   6.320000      1.8270796E-24
   6.330000      2.0868031E-24
   6.340000      2.3582182E-24
   6.350000      2.6411864E-24
   6.360000      2.9355181E-24
   6.370000      3.2409688E-24
   6.380000      3.5572353E-24
   6.390000      3.8839543E-24
   6.400000      4.2206977E-24
   6.410000      4.5669686E-24
   6.420000      4.9222021E-24
   6.430000      5.2857597E-24
   6.440000      5.6569263E-24
   6.450000      6.0349110E-24
   6.460000      6.4188401E-24
   6.470000      6.8077584E-24
   6.480000      7.2006245E-24
   6.490000      7.5963132E-24
   6.500000      7.9936041E-24
   6.510000      8.3911868E-24
   6.520000      8.7876573E-24
   6.530000      9.1815205E-24
   6.540000      9.5711839E-24
   6.550000      9.9549592E-24
   6.560000      1.0331058E-23
   6.570000      1.0697598E-23
   6.580000      1.1052599E-23
   6.590000      1.1393985E-23
   6.600000      1.1719583E-23
   6.610000      1.2027127E-23
   6.620000      1.2314255E-23
   6.630000      1.2578512E-23
   6.640000      1.2817358E-23
   6.650000      1.3028165E-23
   6.660000      1.3208226E-23
   6.670000      1.3354754E-23
   6.680000      1.3464892E-23
   6.690000      1.3535708E-23
   6.700000      1.3564206E-23
   6.710000      1.3547345E-23
   6.720000      1.3482026E-23
   6.730000      1.3365113E-23
   6.740000      1.3193431E-23
   6.750000      1.2963784E-23
   6.760000      1.2672959E-23
   6.770000      1.2317739E-23
   6.780000      1.1894912E-23
   6.790000      1.1401285E-23
   6.800000      1.0833693E-23
   6.810000      1.0189016E-23
   6.820000      9.4641796E-24
   6.830000      8.6561889E-24
   6.840000      7.7621373E-24
   6.850000      6.7792158E-24
   6.860000      5.7047364E-24
   6.870000      4.5361474E-24
   6.880000      3.2710480E-24
   6.890000      1.9072083E-24
   6.900000      4.4258839E-25
   6.910000     -1.1246408E-24
   6.920000     -2.7960772E-24
   6.930000     -4.5730740E-24
   6.940000     -6.4567117E-24
   6.950000     -8.4477828E-24
   6.960000     -1.0546759E-23
   6.970000     -1.2753780E-23
   6.980000     -1.5068625E-23
   6.990000     -1.7490690E-23
   7.000000     -2.0018982E-23
   7.010000     -2.2652067E-23
   7.020000     -2.5388078E-23
   7.030000     -2.8224657E-23
   7.040000     -3.1158955E-23
   7.050000     -3.4187603E-23
   7.060000     -3.7306703E-23