  -2.600000      0.0000000E+00
  -2.590000      0.0000000E+00
  -2.580000      0.0000000E+00
  -2.570000      0.0000000E+00
  -2.560000      0.0000000E+00
  -2.550000      0.0000000E+00
  -2.540000      0.0000000E+00
  -2.530000      0.0000000E+00
  -2.520000      0.0000000E+00
  -2.510000      0.0000000E+00
  -2.500000      0.0000000E+00
  -2.490000      0.0000000E+00
  -2.480000      0.0000000E+00
  -2.470000      0.0000000E+00
  -2.460000      0.0000000E+00
  -2.450000      0.0000000E+00
  -2.440000      0.0000000E+00
  -2.430000      0.0000000E+00
  -2.420000      0.0000000E+00
  -2.410000      0.0000000E+00
  -2.400000      0.0000000E+00
  -2.390000      0.0000000E+00
  -2.380000      0.0000000E+00
  -2.370000      0.0000000E+00
  -2.360000      0.0000000E+00
  -2.350000      0.0000000E+00
  -2.340000      0.0000000E+00
  -2.330000      0.0000000E+00
  -2.320000      0.0000000E+00
  -2.310000      0.0000000E+00
  -2.300000      0.0000000E+00
  -2.290000      0.0000000E+00
  -2.280000      0.0000000E+00
  -2.270000      0.0000000E+00
  -2.260000      0.0000000E+00
  -2.250000      0.0000000E+00
  -2.240000      0.0000000E+00
  -2.230000      0.0000000E+00
  -2.220000      0.0000000E+00
  -2.210000      0.0000000E+00
  -2.200000      0.0000000E+00
  -2.190000      0.0000000E+00
  -2.180000      0.0000000E+00
  -2.170000      0.0000000E+00
  -2.160000      0.0000000E+00
  -2.150000      0.0000000E+00
  -2.140000      0.0000000E+00
  -2.130000      0.0000000E+00
  -2.120000      0.0000000E+00
  -2.110000      0.0000000E+00
  -2.100000      0.0000000E+00
  -2.090000      0.0000000E+00
  -2.080000      0.0000000E+00
  -2.070000      0.0000000E+00
  -2.060000      0.0000000E+00
  -2.050000      0.0000000E+00
  -2.040000      0.0000000E+00
  -2.030000      0.0000000E+00
  -2.020000      0.0000000E+00
  -2.010000      0.0000000E+00
  -2.000000      0.0000000E+00
  -1.990000      0.0000000E+00
  -1.980000      0.0000000E+00
  -1.970000      0.0000000E+00
  -1.960000      0.0000000E+00
  -1.950000      0.0000000E+00
  -1.940000      0.0000000E+00
  -1.930000      0.0000000E+00
  -1.920000      0.0000000E+00
  -1.910000      0.0000000E+00
  -1.900000      0.0000000E+00
  -1.890000      0.0000000E+00
  -1.880000      0.0000000E+00
  -1.870000      0.0000000E+00
  -1.860000      0.0000000E+00
  -1.850000      0.0000000E+00
  -1.840000      0.0000000E+00
  -1.830000      0.0000000E+00
  -1.820000      0.0000000E+00
  -1.810000      0.0000000E+00
  -1.800000      0.0000000E+00
  -1.790000      0.0000000E+00
  -1.780000      0.0000000E+00
  -1.770000      0.0000000E+00
  -1.760000      0.0000000E+00
  -1.750000      0.0000000E+00
  -1.740000      0.0000000E+00
  -1.730000      0.0000000E+00
  -1.720000      0.0000000E+00
  -1.710000      0.0000000E+00
  -1.700000      0.0000000E+00
  -1.690000      0.0000000E+00
  -1.680000      0.0000000E+00
  -1.670000      0.0000000E+00
  -1.660000      0.0000000E+00
  -1.650000      0.0000000E+00
  -1.640000      0.0000000E+00
  -1.630000      0.0000000E+00
  -1.620000      0.0000000E+00
  -1.610000      0.0000000E+00
  -1.600000      0.0000000E+00
  -1.590000      0.0000000E+00
  -1.580000      0.0000000E+00
  -1.570000      0.0000000E+00
  -1.560000      0.0000000E+00
  -1.550000      0.0000000E+00
  -1.540000      0.0000000E+00
  -1.530000      0.0000000E+00
  -1.520000      0.0000000E+00
  -1.510000      0.0000000E+00
  -1.500000      0.0000000E+00
  -1.490000      0.0000000E+00
  -1.480000      0.0000000E+00
  -1.470000      0.0000000E+00
  -1.460000      0.0000000E+00
  -1.450000      0.0000000E+00
  -1.440000      0.0000000E+00
  -1.430000      0.0000000E+00
  -1.420000      0.0000000E+00
  -1.410000      0.0000000E+00
  -1.400000      0.0000000E+00
  -1.390000      0.0000000E+00
  -1.380000      0.0000000E+00
  -1.370000      0.0000000E+00
  -1.360000      0.0000000E+00
  -1.350000      0.0000000E+00
  -1.340000      0.0000000E+00
  -1.330000      0.0000000E+00
  -1.320000      0.0000000E+00
  -1.310000      0.0000000E+00
  -1.300000      0.0000000E+00
  -1.290000      0.0000000E+00
  -1.280000      0.0000000E+00
  -1.270000      0.0000000E+00
  -1.260000      0.0000000E+00
  -1.250000      0.0000000E+00
  -1.240000      0.0000000E+00
  -1.230000      0.0000000E+00
  -1.220000      0.0000000E+00
  -1.210000      0.0000000E+00
  -1.200000      0.0000000E+00
  -1.190000      0.0000000E+00
  -1.180000      0.0000000E+00
  -1.170000      0.0000000E+00
  -1.160000      0.0000000E+00
  -1.150000      0.0000000E+00
  -1.140000      0.0000000E+00
  -1.130000      0.0000000E+00
  -1.120000      0.0000000E+00
  -1.110000      0.0000000E+00
  -1.100000      0.0000000E+00
  -1.090000      0.0000000E+00
  -1.080000      0.0000000E+00
  -1.070000      0.0000000E+00
  -1.060000      0.0000000E+00
  -1.050000      0.0000000E+00
  -1.040000      0.0000000E+00
  -1.030000      0.0000000E+00
  -1.020000      0.0000000E+00
  -1.010000      0.0000000E+00
  -1.000000      0.0000000E+00
 -0.9900000      0.0000000E+00
 -0.9800000      0.0000000E+00
 -0.9700000      0.0000000E+00
 -0.9600000      0.0000000E+00
 -0.9500000      0.0000000E+00
 -0.9400000      0.0000000E+00
 -0.9300000      0.0000000E+00
 -0.9200000      0.0000000E+00
 -0.9100000      0.0000000E+00
 -0.9000000      0.0000000E+00
 -0.8900000      0.0000000E+00
 -0.8800000      0.0000000E+00
 -0.8700000      0.0000000E+00
 -0.8600000      0.0000000E+00
 -0.8500000      0.0000000E+00
 -0.8400000      0.0000000E+00
 -0.8300000      0.0000000E+00
 -0.8200000      0.0000000E+00
 -0.8100000      0.0000000E+00
 -0.8000000      0.0000000E+00
 -0.7900000      0.0000000E+00
 -0.7800000      0.0000000E+00
 -0.7700000      0.0000000E+00
 -0.7600000      0.0000000E+00
 -0.7500000      0.0000000E+00
 -0.7400000      0.0000000E+00
 -0.7300000      0.0000000E+00
 -0.7200000      0.0000000E+00
 -0.7100000      0.0000000E+00
 -0.7000000      0.0000000E+00
 -0.6900000      0.0000000E+00
 -0.6800000      0.0000000E+00
 -0.6700000      0.0000000E+00
 -0.6600000      0.0000000E+00
 -0.6500000      0.0000000E+00
 -0.6400000      0.0000000E+00
 -0.6300000      0.0000000E+00
 -0.6200000      0.0000000E+00
 -0.6100000      0.0000000E+00
 -0.6000000      0.0000000E+00
 -0.5900000      0.0000000E+00
 -0.5800000      0.0000000E+00
 -0.5700000      0.0000000E+00
 -0.5600000      0.0000000E+00
 -0.5500000      0.0000000E+00
 -0.5400000      0.0000000E+00
 -0.5300000      0.0000000E+00
 -0.5200000      0.0000000E+00
 -0.5100000      0.0000000E+00
 -0.5000000      0.0000000E+00
 -0.4900000      0.0000000E+00
 -0.4800000      0.0000000E+00
 -0.4700000      0.0000000E+00
 -0.4600000      0.0000000E+00
 -0.4500000      0.0000000E+00
 -0.4400000      0.0000000E+00
 -0.4300000      0.0000000E+00
 -0.4200000      0.0000000E+00
 -0.4100000      0.0000000E+00
 -0.4000000      0.0000000E+00
 -0.3900000      0.0000000E+00
 -0.3800000      0.0000000E+00
 -0.3700000      0.0000000E+00
 -0.3600000      0.0000000E+00
 -0.3500000      0.0000000E+00
 -0.3400000      0.0000000E+00
 -0.3300000      0.0000000E+00
 -0.3200000      0.0000000E+00
 -0.3100000      0.0000000E+00
 -0.3000000      0.0000000E+00
 -0.2900000      0.0000000E+00
 -0.2800000      0.0000000E+00
 -0.2700000      0.0000000E+00
 -0.2600000      0.0000000E+00
 -0.2500000      0.0000000E+00
 -0.2400000      0.0000000E+00
 -0.2300000      0.0000000E+00
 -0.2200000      0.0000000E+00
 -0.2100000      0.0000000E+00
 -0.2000000      0.0000000E+00
 -0.1900000      0.0000000E+00
 -0.1800000      0.0000000E+00
 -0.1700000      0.0000000E+00
 -0.1600000      0.0000000E+00
 -0.1500000      0.0000000E+00
 -0.1400000      0.0000000E+00
 -0.1300000      0.0000000E+00
 -0.1200000      0.0000000E+00
 -0.1100000      0.0000000E+00
 -0.1000000      0.0000000E+00
 -9.0000004E-02  0.0000000E+00
 -7.9999998E-02  0.0000000E+00
 -7.0000000E-02  0.0000000E+00
 -5.9999999E-02  0.0000000E+00
 -5.0000001E-02  0.0000000E+00
 -3.9999999E-02  0.0000000E+00
 -2.9999999E-02  0.0000000E+00
 -2.0000000E-02  0.0000000E+00
 -9.9999998E-03  0.0000000E+00
 -3.4694470E-17  0.0000000E+00
  9.9999998E-03  0.0000000E+00
  2.0000000E-02  0.0000000E+00
  2.9999999E-02  0.0000000E+00
  3.9999999E-02  0.0000000E+00
  5.0000001E-02  0.0000000E+00
  5.9999999E-02  0.0000000E+00
  7.0000000E-02  0.0000000E+00
  7.9999998E-02  0.0000000E+00
  9.0000004E-02  0.0000000E+00
  0.1000000      0.0000000E+00
  0.1100000      0.0000000E+00
  0.1200000      0.0000000E+00
  0.1300000      0.0000000E+00
  0.1400000      0.0000000E+00
  0.1500000      0.0000000E+00
  0.1600000      0.0000000E+00
  0.1700000      0.0000000E+00
  0.1800000      0.0000000E+00
  0.1900000      0.0000000E+00
  0.2000000      0.0000000E+00
  0.2100000      0.0000000E+00
  0.2200000      0.0000000E+00
  0.2300000      0.0000000E+00
  0.2400000      0.0000000E+00
  0.2500000      0.0000000E+00
  0.2600000      0.0000000E+00
  0.2700000      0.0000000E+00
  0.2800000      0.0000000E+00
  0.2900000      0.0000000E+00
  0.3000000      0.0000000E+00
  0.3100000      0.0000000E+00
  0.3200000      0.0000000E+00
  0.3300000      0.0000000E+00
  0.3400000      0.0000000E+00
  0.3500000      0.0000000E+00
  0.3600000      0.0000000E+00
  0.3700000      0.0000000E+00
  0.3800000      0.0000000E+00
  0.3900000      0.0000000E+00
  0.4000000      0.0000000E+00
  0.4100000      0.0000000E+00
  0.4200000      0.0000000E+00
  0.4300000      0.0000000E+00
  0.4400000      0.0000000E+00
  0.4500000      0.0000000E+00
  0.4600000      0.0000000E+00
  0.4700000      0.0000000E+00
  0.4800000      0.0000000E+00
  0.4900000      0.0000000E+00
  0.5000000      0.0000000E+00
  0.5100000      0.0000000E+00
  0.5200000      0.0000000E+00
  0.5300000      0.0000000E+00
  0.5400000      0.0000000E+00
  0.5500000      0.0000000E+00
  0.5600000      0.0000000E+00
  0.5700000      0.0000000E+00
  0.5800000      0.0000000E+00
  0.5900000      0.0000000E+00
  0.6000000      0.0000000E+00
  0.6100000      0.0000000E+00
  0.6200000      0.0000000E+00
  0.6300000      0.0000000E+00
  0.6400000      0.0000000E+00
  0.6500000      0.0000000E+00
  0.6600000      0.0000000E+00
  0.6700000      0.0000000E+00
  0.6800000      0.0000000E+00
  0.6900000      0.0000000E+00
  0.7000000      0.0000000E+00
  0.7100000      0.0000000E+00
  0.7200000      0.0000000E+00
  0.7300000      0.0000000E+00
  0.7400000      0.0000000E+00
  0.7500000      0.0000000E+00
  0.7600000      0.0000000E+00
  0.7700000      0.0000000E+00
  0.7800000      0.0000000E+00
  0.7900000      0.0000000E+00
  0.8000000      0.0000000E+00
  0.8100000      0.0000000E+00
  0.8200000      0.0000000E+00
  0.8300000      0.0000000E+00
  0.8400000      0.0000000E+00
  0.8500000      0.0000000E+00
  0.8600000      0.0000000E+00
  0.8700000      0.0000000E+00
  0.8800000      0.0000000E+00
  0.8900000      0.0000000E+00
  0.9000000      0.0000000E+00
  0.9100000      0.0000000E+00
  0.9200000      0.0000000E+00
  0.9300000      0.0000000E+00
  0.9400000      0.0000000E+00
  0.9500000      0.0000000E+00
  0.9600000      0.0000000E+00
  0.9700000      0.0000000E+00
  0.9800000      0.0000000E+00
  0.9900000      0.0000000E+00
   1.000000      0.0000000E+00
   1.010000      0.0000000E+00
   1.020000      0.0000000E+00
   1.030000      0.0000000E+00
   1.040000      0.0000000E+00
   1.050000      0.0000000E+00
   1.060000      0.0000000E+00
   1.070000      0.0000000E+00
   1.080000      0.0000000E+00
   1.090000      0.0000000E+00
   1.100000      0.0000000E+00
   1.110000      0.0000000E+00
   1.120000      0.0000000E+00
   1.130000      0.0000000E+00
   1.140000      0.0000000E+00
   1.150000      0.0000000E+00
   1.160000      0.0000000E+00
   1.170000      0.0000000E+00
   1.180000      0.0000000E+00
   1.190000      0.0000000E+00
   1.200000      0.0000000E+00
   1.210000      0.0000000E+00
   1.220000      0.0000000E+00
   1.230000      0.0000000E+00
   1.240000      0.0000000E+00
   1.250000      0.0000000E+00
   1.260000      0.0000000E+00
   1.270000      0.0000000E+00
   1.280000      0.0000000E+00
   1.290000      0.0000000E+00
   1.300000      0.0000000E+00
   1.310000      0.0000000E+00
   1.320000      0.0000000E+00
   1.330000      0.0000000E+00
   1.340000      0.0000000E+00
   1.350000      0.0000000E+00
   1.360000      0.0000000E+00
   1.370000      0.0000000E+00
   1.380000      0.0000000E+00
   1.390000      0.0000000E+00
   1.400000      0.0000000E+00
   1.410000      0.0000000E+00
   1.420000      0.0000000E+00
   1.430000      0.0000000E+00
   1.440000      0.0000000E+00
   1.450000      0.0000000E+00
   1.460000      0.0000000E+00
   1.470000      0.0000000E+00
   1.480000      0.0000000E+00
   1.490000      0.0000000E+00
   1.500000      0.0000000E+00
   1.510000      0.0000000E+00
   1.520000      0.0000000E+00
   1.530000      0.0000000E+00
   1.540000      0.0000000E+00
   1.550000      0.0000000E+00
   1.560000      0.0000000E+00
   1.570000      0.0000000E+00
   1.580000      0.0000000E+00
   1.590000      0.0000000E+00
   1.600000      0.0000000E+00
   1.610000      0.0000000E+00
   1.620000      0.0000000E+00
   1.630000      0.0000000E+00
   1.640000      0.0000000E+00
   1.650000      0.0000000E+00
   1.660000      0.0000000E+00
   1.670000      0.0000000E+00
   1.680000      0.0000000E+00
   1.690000      0.0000000E+00
   1.700000      0.0000000E+00
   1.710000      0.0000000E+00
   1.720000      0.0000000E+00
   1.730000      0.0000000E+00
   1.740000      0.0000000E+00
   1.750000      0.0000000E+00
   1.760000      0.0000000E+00
   1.770000      0.0000000E+00
   1.780000      0.0000000E+00
   1.790000      0.0000000E+00
   1.800000      0.0000000E+00
   1.810000      0.0000000E+00
   1.820000      0.0000000E+00
   1.830000      0.0000000E+00
   1.840000      0.0000000E+00
   1.850000      0.0000000E+00
   1.860000      0.0000000E+00
   1.870000      0.0000000E+00
   1.880000      0.0000000E+00
   1.890000      0.0000000E+00
   1.900000      0.0000000E+00
   1.910000      0.0000000E+00
   1.920000      0.0000000E+00
   1.930000      0.0000000E+00
   1.940000      0.0000000E+00
   1.950000      0.0000000E+00
   1.960000      0.0000000E+00
   1.970000      0.0000000E+00
   1.980000      0.0000000E+00
   1.990000      0.0000000E+00
   2.000000      0.0000000E+00
   2.010000      0.0000000E+00
   2.020000      0.0000000E+00
   2.030000      0.0000000E+00
   2.040000      0.0000000E+00
   2.050000      0.0000000E+00
   2.060000      0.0000000E+00
   2.070000      0.0000000E+00
   2.080000      0.0000000E+00
   2.090000      0.0000000E+00
   2.100000      0.0000000E+00
   2.110000      0.0000000E+00
   2.120000      0.0000000E+00
   2.130000      0.0000000E+00
   2.140000      0.0000000E+00
   2.150000      0.0000000E+00
   2.160000      0.0000000E+00
   2.170000      0.0000000E+00
   2.180000      0.0000000E+00
   2.190000      0.0000000E+00
   2.200000      0.0000000E+00
   2.210000      0.0000000E+00
   2.220000      0.0000000E+00
   2.230000      0.0000000E+00
   2.240000      0.0000000E+00
   2.250000      0.0000000E+00
   2.260000      0.0000000E+00
   2.270000      0.0000000E+00
   2.280000      0.0000000E+00
   2.290000      0.0000000E+00
   2.300000      0.0000000E+00
   2.310000      0.0000000E+00
   2.320000      0.0000000E+00
   2.330000      0.0000000E+00
   2.340000      0.0000000E+00
   2.350000      0.0000000E+00
   2.360000      0.0000000E+00
   2.370000      0.0000000E+00
   2.380000      0.0000000E+00
   2.390000      0.0000000E+00
   2.400000      0.0000000E+00
   2.410000      0.0000000E+00
   2.420000      0.0000000E+00
   2.430000      0.0000000E+00
   2.440000      0.0000000E+00
   2.450000      0.0000000E+00
   2.460000      0.0000000E+00
   2.470000      0.0000000E+00
   2.480000      0.0000000E+00
   2.490000      0.0000000E+00
   2.500000      0.0000000E+00
   2.510000      0.0000000E+00
   2.520000      0.0000000E+00
   2.530000      0.0000000E+00
   2.540000      0.0000000E+00
   2.550000      0.0000000E+00
   2.560000      0.0000000E+00
   2.570000      0.0000000E+00
   2.580000      0.0000000E+00
   2.590000      0.0000000E+00
   2.600000      0.0000000E+00
   2.610000      0.0000000E+00
   2.620000      0.0000000E+00
   2.630000      0.0000000E+00
   2.640000      0.0000000E+00
   2.650000      0.0000000E+00
   2.660000      0.0000000E+00
   2.670000      0.0000000E+00
   2.680000      0.0000000E+00
   2.690000      0.0000000E+00
   2.700000      0.0000000E+00
   2.710000      0.0000000E+00
   2.720000      0.0000000E+00
   2.730000      0.0000000E+00
   2.740000      0.0000000E+00
   2.750000      0.0000000E+00
   2.760000      0.0000000E+00
   2.770000      0.0000000E+00
   2.780000      0.0000000E+00
   2.790000      0.0000000E+00
   2.800000      0.0000000E+00
   2.810000      0.0000000E+00
   2.820000      0.0000000E+00
   2.830000      0.0000000E+00
   2.840000      0.0000000E+00
   2.850000      0.0000000E+00
   2.860000      0.0000000E+00
   2.870000      0.0000000E+00
   2.880000      0.0000000E+00
   2.890000      0.0000000E+00
   2.900000      0.0000000E+00
   2.910000      0.0000000E+00
   2.920000      0.0000000E+00
   2.930000      0.0000000E+00
   2.940000      0.0000000E+00
   2.950000      0.0000000E+00
   2.960000      0.0000000E+00
   2.970000      0.0000000E+00
   2.980000      0.0000000E+00
   2.990000      0.0000000E+00
   3.000000      0.0000000E+00
   3.010000      0.0000000E+00
   3.020000      0.0000000E+00
   3.030000      0.0000000E+00
   3.040000      0.0000000E+00
   3.050000      0.0000000E+00
   3.060000      0.0000000E+00
   3.070000      0.0000000E+00
   3.080000      0.0000000E+00
   3.090000      0.0000000E+00
   3.100000      0.0000000E+00
   3.110000      0.0000000E+00
   3.120000      0.0000000E+00
   3.130000      0.0000000E+00
   3.140000      0.0000000E+00
   3.150000      0.0000000E+00
   3.160000      0.0000000E+00
   3.170000      0.0000000E+00
   3.180000      0.0000000E+00
   3.190000      0.0000000E+00
   3.200000      0.0000000E+00
   3.210000      0.0000000E+00
   3.220000      0.0000000E+00
   3.230000      0.0000000E+00
   3.240000      0.0000000E+00
   3.250000      0.0000000E+00
   3.260000      0.0000000E+00
   3.270000      0.0000000E+00
   3.280000      0.0000000E+00
   3.290000      0.0000000E+00
   3.300000      0.0000000E+00
   3.310000      0.0000000E+00
   3.320000      0.0000000E+00
   3.330000      0.0000000E+00
   3.340000      0.0000000E+00
   3.350000      0.0000000E+00
   3.360000      0.0000000E+00
   3.370000      0.0000000E+00
   3.380000      0.0000000E+00
   3.390000      0.0000000E+00
   3.400000      0.0000000E+00
   3.410000      0.0000000E+00
   3.420000      0.0000000E+00
   3.430000      0.0000000E+00
   3.440000      0.0000000E+00
   3.450000      0.0000000E+00
   3.460000      0.0000000E+00
   3.470000      0.0000000E+00
   3.480000      0.0000000E+00
   3.490000      0.0000000E+00
   3.500000      0.0000000E+00
   3.510000      0.0000000E+00
   3.520000      0.0000000E+00
   3.530000      0.0000000E+00
   3.540000      0.0000000E+00
   3.550000      0.0000000E+00
   3.560000      0.0000000E+00
   3.570000      1.3374416E-38
   3.580000      1.7097250E-38
   3.590000      2.0585243E-38
   3.600000      2.3628824E-38
   3.610000      2.5070564E-38
   3.620000      2.5183494E-38
   3.630000      2.5295293E-38
   3.640000      2.5389393E-38
   3.650000      2.5435784E-38
   3.660000      2.5452717E-38
   3.670000      2.5469146E-38
   3.680000      2.5484221E-38
   3.690000      2.5428200E-38
   3.700000      2.6541058E-38
   3.710000      2.9200529E-38
   3.720000      3.2395927E-38
   3.730000      3.5944645E-38
   3.740000      3.9488812E-38
   3.750000      4.2725439E-38
   3.760000      4.4145080E-38
   3.770000      4.3991579E-38
   3.780000      4.3838717E-38
   3.790000      4.3731212E-38
   3.800000      4.3579628E-38
   3.810000      4.1593097E-38
   3.820000      3.7301996E-38
   3.830000      3.2044364E-38
   3.840000      2.6111484E-38
   3.850000      1.9899671E-38
   3.860000      1.3825251E-38
   3.870000      0.0000000E+00
   3.880000      0.0000000E+00
   3.890000      0.0000000E+00
   3.900000      0.0000000E+00
   3.910000     -1.2632266E-38
   3.920000     -2.1687610E-38
   3.930000     -2.9935404E-38
   3.940000     -3.8630531E-38
   3.950000     -4.9380777E-38
   3.960000     -6.2726900E-38
   3.970000     -7.7606756E-38
   3.980000     -9.3974393E-38
   3.990000     -1.1157950E-37
   4.000000     -1.2999069E-37
   4.010000     -1.4866933E-37
   4.020000     -1.6711320E-37
   4.030000     -1.8492810E-37
   4.040000     -2.0183985E-37
   4.050000     -2.1752026E-37
   4.060000     -2.3185454E-37
   4.070000     -2.4511069E-37
   4.080000     -2.5751312E-37
   4.090000     -2.6579713E-37
   4.100000     -2.7122105E-37
   4.110000     -2.7774547E-37
   4.120000     -2.8462181E-37
   4.130000     -2.9168994E-37
   4.140000     -2.9819932E-37
   4.150000     -3.0401838E-37
   4.160000     -3.0955468E-37
   4.170000     -3.1442256E-37
   4.180000     -3.1399581E-37
   4.190000     -3.0680643E-37
   4.200000     -2.9577292E-37
   4.210000     -2.8173919E-37
   4.220000     -2.6551270E-37
   4.230000     -2.4540234E-37
   4.240000     -2.2093271E-37
   4.250000     -1.9189527E-37
   4.260000     -1.5817650E-37
   4.270000     -1.2324592E-37
   4.280000     -9.7622455E-38
   4.290000     -7.9806918E-38
   4.300000     -6.0094253E-38
   4.310000     -3.8473717E-38
   4.320000     -1.4827262E-38
   4.330000      0.0000000E+00
   4.340000      3.8923130E-38
   4.350000      6.9711146E-38
   4.360000      1.1437380E-37
   4.370000      1.7459942E-37
   4.380000      2.4083729E-37
   4.390000      3.5004476E-37
   4.400000      5.0167646E-37
   4.410000      6.5477251E-37
   4.420000      8.0705850E-37
   4.430000      9.5799651E-37
   4.440000      1.0999728E-36
   4.450000      1.2338029E-36
   4.460000      1.3669419E-36
   4.470000      1.4780434E-36
   4.480000      1.5691341E-36
   4.490000      1.6631340E-36
   4.500000      1.7594321E-36
   4.510000      1.9315785E-36
   4.520000      2.1852041E-36
   4.530000      2.4440261E-36
   4.540000      2.6145763E-36
   4.550000      2.6994802E-36
   4.560000      2.7823486E-36
   4.570000      2.8645168E-36
   4.580000      3.0861150E-36
   4.590000      3.5648254E-36
   4.600000      4.2019912E-36
   4.610000      4.8503915E-36
   4.620000      5.5141831E-36
   4.630000      6.2533810E-36
   4.640000      7.0223411E-36
   4.650000      7.8198965E-36
   4.660000      8.3471887E-36
   4.670000      8.5306552E-36
   4.680000      8.2295151E-36
   4.690000      7.4204136E-36
   4.700000      6.5100361E-36
   4.710000      5.5585461E-36
   4.720000      4.6403206E-36
   4.730000      3.7200235E-36
   4.740000      2.7322319E-36
   4.750000      1.7358030E-36
   4.760000      7.6370040E-37
   4.770000     -1.8048295E-37
   4.780000     -1.0765695E-36
   4.790000     -1.7804128E-36
   4.800000     -2.2440933E-36
   4.810000     -2.6108299E-36
   4.820000     -2.9160557E-36
   4.830000     -3.1531782E-36
   4.840000     -3.3388732E-36
   4.850000     -3.4916573E-36
   4.860000     -3.6536906E-36
   4.870000     -3.8808321E-36
   4.880000     -4.1838189E-36
   4.890000     -4.5127482E-36
   4.900000     -4.8081529E-36
   4.910000     -5.1653373E-36
   4.920000     -5.7192460E-36
   4.930000     -6.6184436E-36
   4.940000     -7.9299908E-36
   4.950000     -9.5218350E-36
   4.960000     -1.1310365E-35
   4.970000     -1.3268532E-35
   4.980000     -1.5428811E-35
   4.990000     -1.7894974E-35
   5.000000     -2.0642094E-35
   5.010000     -2.3371040E-35
   5.020000     -2.5789410E-35
   5.030000     -2.8087686E-35
   5.040000     -3.0619998E-35
   5.050000     -3.3010045E-35
   5.060000     -3.5106492E-35
   5.070000     -3.7340571E-35
   5.080000     -3.9321193E-35
   5.090000     -4.0987944E-35
   5.100000     -4.2463321E-35
   5.110000     -4.3746367E-35
   5.120000     -4.4848889E-35
   5.130000     -4.5552507E-35
   5.140000     -4.6048398E-35
   5.150000     -4.6363638E-35
   5.160000     -4.6372994E-35
   5.170000     -4.5937553E-35
   5.180000     -4.4997551E-35
   5.190000     -4.3697123E-35
   5.200000     -4.2126526E-35
   5.210000     -4.0301554E-35
   5.220000     -3.8267053E-35
   5.230000     -3.5958992E-35
   5.240000     -3.3429449E-35
   5.250000     -3.0741617E-35
   5.260000     -3.0495509E-35
   5.270000     -3.2770831E-35
   5.280000     -3.4911003E-35
   5.290000     -3.6778822E-35
   5.300000     -3.8238323E-35
   5.310000     -3.9220897E-35
   5.320000     -3.9775601E-35
   5.330000     -3.6960249E-35
   5.340000     -3.0609135E-35
   5.350000     -2.3500259E-35
   5.360000     -1.5736190E-35
   5.370000     -7.2592717E-36
   5.380000      7.4791424E-36
   5.390000      2.9094022E-35
   5.400000      5.2067581E-35
   5.410000      7.5325655E-35
   5.420000      9.8359341E-35
   5.430000      1.2089926E-34
   5.440000      1.4261101E-34
   5.450000      1.6339427E-34
   5.460000      1.8099243E-34
   5.470000      1.9608164E-34
   5.480000      2.1157397E-34
   5.490000      2.2711370E-34
   5.500000      2.4286705E-34
   5.510000      2.5220015E-34
   5.520000      2.5765778E-34
   5.530000      2.6332915E-34
   5.540000      2.6563971E-34
   5.550000      2.7118584E-34
   5.560000      2.8050183E-34
   5.570000      2.8960558E-34
   5.580000      3.0139822E-34
   5.590000      3.1559808E-34
   5.600000      3.2912200E-34
   5.610000      3.4192325E-34
   5.620000      3.5377200E-34
   5.630000      3.6466395E-34
   5.640000      3.7499992E-34
   5.650000      3.8393879E-34
   5.660000      3.9121733E-34
   5.670000      3.9762704E-34
   5.680000      4.0413927E-34
   5.690000      4.1056840E-34
   5.700000      4.1588274E-34
   5.710000      4.2102043E-34
   5.720000      4.2607717E-34
   5.730000      4.2999583E-34
   5.740000      4.3237717E-34
   5.750000      4.3591440E-34
   5.760000      4.4206426E-34
   5.770000      4.4791303E-34
   5.780000      4.5158227E-34
   5.790000      4.5222388E-34
   5.800000      4.4877390E-34
   5.810000      4.3822948E-34
   5.820000      4.2054220E-34
   5.830000      3.9858162E-34
   5.840000      3.7280101E-34
   5.850000      3.4299382E-34
   5.860000      3.0848078E-34
   5.870000      2.6620018E-34
   5.880000      2.1562185E-34
   5.890000      1.5777917E-34
   5.900000      9.3351448E-35
   5.910000      2.4255749E-35
   5.920000     -4.8467371E-35
   5.930000     -1.2442460E-34
   5.940000     -2.0800402E-34
   5.950000     -2.9803332E-34
   5.960000     -3.8764502E-34
   5.970000     -4.7825451E-34
   5.980000     -5.7313821E-34
   5.990000     -6.7106810E-34
   6.000000     -7.7198204E-34
   6.010000     -8.7451554E-34
   6.020000     -9.7836413E-34
   6.030000     -1.0825867E-33
   6.040000     -1.1874997E-33
   6.050000     -1.2917466E-33
   6.060000     -1.4003103E-33
   6.070000     -1.5111612E-33
   6.080000     -1.6234380E-33
   6.090000     -1.7440942E-33
   6.100000     -1.8672125E-33
   6.110000     -1.9938215E-33
   6.120000     -2.1261372E-33
   6.130000     -2.2650402E-33
   6.140000     -2.4137101E-33
   6.150000     -2.5694082E-33
   6.160000     -2.7278358E-33
   6.170000     -2.8847305E-33
   6.180000     -3.0414241E-33
   6.190000     -3.2017134E-33
   6.200000     -3.3621666E-33
   6.210000     -3.5208477E-33
   6.220000     -3.6767917E-33
   6.230000     -3.8286035E-33
   6.240000     -3.9732789E-33
   6.250000     -4.1092347E-33
   6.260000     -4.2361676E-33
   6.270000     -4.3528302E-33
   6.280000     -4.4579264E-33
   6.290000     -4.5505796E-33
   6.300000     -4.6297367E-33
   6.310000     -4.6935502E-33
   6.320000     -4.7408881E-33
   6.330000     -4.7708801E-33
   6.340000     -4.7824716E-33
   6.350000     -4.7747692E-33
   6.360000     -4.7468640E-33
   6.370000     -4.6973897E-33
   6.380000     -4.6246802E-33
   6.390000     -4.5298498E-33
   6.400000     -4.4126254E-33
   6.410000     -4.2704971E-33
   6.420000     -4.1044398E-33
   6.430000     -3.9140476E-33
   6.440000     -3.6985060E-33
   6.450000     -3.4580880E-33
   6.460000     -3.1911953E-33
   6.470000     -2.8965329E-33
   6.480000     -2.5725334E-33
   6.490000     -2.2173159E-33
   6.500000     -1.8296461E-33
   6.510000     -1.4080866E-33
   6.520000     -9.5110763E-34
   6.530000     -4.5702343E-34
   6.540000      7.5946096E-35
   6.550000      6.4931516E-34
   6.560000      1.2644607E-33
   6.570000      1.9227133E-33
   6.580000      2.6251564E-33
   6.590000      3.3723475E-33
   6.600000      4.1645667E-33
   6.610000      5.0020183E-33
   6.620000      5.8844380E-33
   6.630000      6.8080151E-33
   6.640000      7.7783651E-33
   6.650000      8.7952574E-33
   6.660000      9.8512789E-33
   6.670000      1.0947267E-32
   6.680000      1.2081447E-32
   6.690000      1.3251536E-32
   6.700000      1.4454613E-32
   6.710000      1.5688431E-32
   6.720000      1.6950626E-32
   6.730000      1.8239307E-32
   6.740000      1.9549514E-32
   6.750000      2.0876205E-32
   6.760000      2.2217457E-32
   6.770000      2.3572196E-32
   6.780000      2.4935462E-32
   6.790000      2.6300064E-32
   6.800000      2.7661557E-32
   6.810000      2.9015000E-32
   6.820000      3.0359572E-32
   6.830000      3.1692174E-32
   6.840000      3.3005451E-32
   6.850000      3.4294248E-32
   6.860000      3.5553256E-32
   6.870000      3.6776481E-32
   6.880000      3.7957456E-32
   6.890000      3.9089163E-32
   6.900000      4.0163974E-32
   6.910000      4.1173635E-32
   6.920000      4.2109470E-32
   6.930000      4.2962379E-32
   6.940000      4.3722680E-32
   6.950000      4.4380231E-32
   6.960000      4.4924755E-32
   6.970000      4.5345047E-32
   6.980000      4.5629702E-32
   6.990000      4.5767523E-32
   7.000000      4.5747093E-32
   7.010000      4.5556513E-32
   7.020000      4.5183878E-32
   7.030000      4.4617158E-32
   7.040000      4.3844670E-32
   7.050000      4.2855497E-32
   7.060000      4.1638167E-32