  -2.600000      0.0000000E+00
  -2.590000      0.0000000E+00
  -2.580000      0.0000000E+00
  -2.570000      0.0000000E+00
  -2.560000      0.0000000E+00
  -2.550000      0.0000000E+00
  -2.540000      0.0000000E+00
  -2.530000      0.0000000E+00
  -2.520000      0.0000000E+00
  -2.510000      0.0000000E+00
  -2.500000      0.0000000E+00
  -2.490000      0.0000000E+00
  -2.480000      0.0000000E+00
  -2.470000      0.0000000E+00
  -2.460000      0.0000000E+00
  -2.450000      0.0000000E+00
  -2.440000      0.0000000E+00
  -2.430000      0.0000000E+00
  -2.420000      0.0000000E+00
  -2.410000      0.0000000E+00
  -2.400000      0.0000000E+00
  -2.390000      0.0000000E+00
  -2.380000      0.0000000E+00
  -2.370000      0.0000000E+00
  -2.360000      0.0000000E+00
  -2.350000      0.0000000E+00
  -2.340000      0.0000000E+00
  -2.330000      0.0000000E+00
  -2.320000      0.0000000E+00
  -2.310000      0.0000000E+00
  -2.300000      0.0000000E+00
  -2.290000      0.0000000E+00
  -2.280000      0.0000000E+00
  -2.270000      0.0000000E+00
  -2.260000      0.0000000E+00
  -2.250000      0.0000000E+00
  -2.240000      0.0000000E+00
  -2.230000      0.0000000E+00
  -2.220000      0.0000000E+00
  -2.210000      0.0000000E+00
  -2.200000      0.0000000E+00
  -2.190000      0.0000000E+00
  -2.180000      0.0000000E+00
  -2.170000      0.0000000E+00
  -2.160000      0.0000000E+00
  -2.150000      0.0000000E+00
  -2.140000      0.0000000E+00
  -2.130000      0.0000000E+00
  -2.120000      0.0000000E+00
  -2.110000      0.0000000E+00
  -2.100000      0.0000000E+00
  -2.090000      0.0000000E+00
  -2.080000      0.0000000E+00
  -2.070000      0.0000000E+00
  -2.060000      0.0000000E+00
  -2.050000      0.0000000E+00
  -2.040000      0.0000000E+00
  -2.030000      0.0000000E+00
  -2.020000      0.0000000E+00
  -2.010000      0.0000000E+00
  -2.000000      0.0000000E+00
  -1.990000      0.0000000E+00
  -1.980000      0.0000000E+00
  -1.970000      0.0000000E+00
  -1.960000      0.0000000E+00
  -1.950000      0.0000000E+00
  -1.940000      0.0000000E+00
  -1.930000      0.0000000E+00
  -1.920000      0.0000000E+00
  -1.910000      0.0000000E+00
  -1.900000      0.0000000E+00
  -1.890000      0.0000000E+00
  -1.880000      0.0000000E+00
  -1.870000      0.0000000E+00
  -1.860000      0.0000000E+00
  -1.850000      0.0000000E+00
  -1.840000      0.0000000E+00
  -1.830000      0.0000000E+00
  -1.820000      0.0000000E+00
  -1.810000      0.0000000E+00
  -1.800000      0.0000000E+00
  -1.790000      0.0000000E+00
  -1.780000      0.0000000E+00
  -1.770000      0.0000000E+00
  -1.760000      0.0000000E+00
  -1.750000      0.0000000E+00
  -1.740000      0.0000000E+00
  -1.730000      0.0000000E+00
  -1.720000      0.0000000E+00
  -1.710000      0.0000000E+00
  -1.700000      0.0000000E+00
  -1.690000      0.0000000E+00
  -1.680000      0.0000000E+00
  -1.670000      0.0000000E+00
  -1.660000      0.0000000E+00
  -1.650000      0.0000000E+00
  -1.640000      0.0000000E+00
  -1.630000      0.0000000E+00
  -1.620000      0.0000000E+00
  -1.610000      0.0000000E+00
  -1.600000      0.0000000E+00
  -1.590000      0.0000000E+00
  -1.580000      0.0000000E+00
  -1.570000      0.0000000E+00
  -1.560000      0.0000000E+00
  -1.550000      0.0000000E+00
  -1.540000      0.0000000E+00
  -1.530000      0.0000000E+00
  -1.520000      0.0000000E+00
  -1.510000      0.0000000E+00
  -1.500000      0.0000000E+00
  -1.490000      0.0000000E+00
  -1.480000      0.0000000E+00
  -1.470000      0.0000000E+00
  -1.460000      0.0000000E+00
  -1.450000      0.0000000E+00
  -1.440000      0.0000000E+00
  -1.430000      0.0000000E+00
  -1.420000      0.0000000E+00
  -1.410000      0.0000000E+00
  -1.400000      0.0000000E+00
  -1.390000      0.0000000E+00
  -1.380000      0.0000000E+00
  -1.370000      0.0000000E+00
  -1.360000      0.0000000E+00
  -1.350000      0.0000000E+00
  -1.340000      0.0000000E+00
  -1.330000      0.0000000E+00
  -1.320000      0.0000000E+00
  -1.310000      0.0000000E+00
  -1.300000      0.0000000E+00
  -1.290000      0.0000000E+00
  -1.280000      0.0000000E+00
  -1.270000      0.0000000E+00
  -1.260000      0.0000000E+00
  -1.250000      0.0000000E+00
  -1.240000      0.0000000E+00
  -1.230000      0.0000000E+00
  -1.220000      0.0000000E+00
  -1.210000      0.0000000E+00
  -1.200000      0.0000000E+00
  -1.190000      0.0000000E+00
  -1.180000      0.0000000E+00
  -1.170000      0.0000000E+00
  -1.160000      0.0000000E+00
  -1.150000      0.0000000E+00
  -1.140000      0.0000000E+00
  -1.130000      0.0000000E+00
  -1.120000      0.0000000E+00
  -1.110000      0.0000000E+00
  -1.100000      0.0000000E+00
  -1.090000      0.0000000E+00
  -1.080000      0.0000000E+00
  -1.070000      0.0000000E+00
  -1.060000      0.0000000E+00
  -1.050000      0.0000000E+00
  -1.040000      0.0000000E+00
  -1.030000      0.0000000E+00
  -1.020000      0.0000000E+00
  -1.010000      0.0000000E+00
  -1.000000      0.0000000E+00
 -0.9900000      0.0000000E+00
 -0.9800000      0.0000000E+00
 -0.9700000      0.0000000E+00
 -0.9600000      0.0000000E+00
 -0.9500000      0.0000000E+00
 -0.9400000      0.0000000E+00
 -0.9300000      0.0000000E+00
 -0.9200000      0.0000000E+00
 -0.9100000      0.0000000E+00
 -0.9000000      0.0000000E+00
 -0.8900000      0.0000000E+00
 -0.8800000      0.0000000E+00
 -0.8700000      0.0000000E+00
 -0.8600000      0.0000000E+00
 -0.8500000      0.0000000E+00
 -0.8400000      0.0000000E+00
 -0.8300000      0.0000000E+00
 -0.8200000      0.0000000E+00
 -0.8100000      0.0000000E+00
 -0.8000000      0.0000000E+00
 -0.7900000      0.0000000E+00
 -0.7800000      0.0000000E+00
 -0.7700000      0.0000000E+00
 -0.7600000      0.0000000E+00
 -0.7500000      0.0000000E+00
 -0.7400000      0.0000000E+00
 -0.7300000      0.0000000E+00
 -0.7200000      0.0000000E+00
 -0.7100000      0.0000000E+00
 -0.7000000      0.0000000E+00
 -0.6900000      0.0000000E+00
 -0.6800000      0.0000000E+00
 -0.6700000      0.0000000E+00
 -0.6600000      0.0000000E+00
 -0.6500000      0.0000000E+00
 -0.6400000      0.0000000E+00
 -0.6300000      0.0000000E+00
 -0.6200000      0.0000000E+00
 -0.6100000      0.0000000E+00
 -0.6000000      0.0000000E+00
 -0.5900000      0.0000000E+00
 -0.5800000      0.0000000E+00
 -0.5700000      0.0000000E+00
 -0.5600000      0.0000000E+00
 -0.5500000      0.0000000E+00
 -0.5400000      0.0000000E+00
 -0.5300000      0.0000000E+00
 -0.5200000      0.0000000E+00
 -0.5100000      0.0000000E+00
 -0.5000000      0.0000000E+00
 -0.4900000      0.0000000E+00
 -0.4800000      0.0000000E+00
 -0.4700000      0.0000000E+00
 -0.4600000      0.0000000E+00
 -0.4500000      0.0000000E+00
 -0.4400000      0.0000000E+00
 -0.4300000      0.0000000E+00
 -0.4200000      0.0000000E+00
 -0.4100000      0.0000000E+00
 -0.4000000      0.0000000E+00
 -0.3900000      0.0000000E+00
 -0.3800000      0.0000000E+00
 -0.3700000      0.0000000E+00
 -0.3600000      0.0000000E+00
 -0.3500000      0.0000000E+00
 -0.3400000      0.0000000E+00
 -0.3300000      0.0000000E+00
 -0.3200000      0.0000000E+00
 -0.3100000      0.0000000E+00
 -0.3000000      0.0000000E+00
 -0.2900000      0.0000000E+00
 -0.2800000      0.0000000E+00
 -0.2700000      0.0000000E+00
 -0.2600000      0.0000000E+00
 -0.2500000      0.0000000E+00
 -0.2400000      0.0000000E+00
 -0.2300000      0.0000000E+00
 -0.2200000      0.0000000E+00
 -0.2100000      0.0000000E+00
 -0.2000000      0.0000000E+00
 -0.1900000      0.0000000E+00
 -0.1800000      0.0000000E+00
 -0.1700000      0.0000000E+00
 -0.1600000      0.0000000E+00
 -0.1500000      0.0000000E+00
 -0.1400000      0.0000000E+00
 -0.1300000      0.0000000E+00
 -0.1200000      0.0000000E+00
 -0.1100000      0.0000000E+00
 -0.1000000      0.0000000E+00
 -9.0000004E-02  0.0000000E+00
 -7.9999998E-02  0.0000000E+00
 -7.0000000E-02  0.0000000E+00
 -5.9999999E-02  0.0000000E+00
 -5.0000001E-02  0.0000000E+00
 -3.9999999E-02  0.0000000E+00
 -2.9999999E-02  0.0000000E+00
 -2.0000000E-02  0.0000000E+00
 -9.9999998E-03  0.0000000E+00
 -3.4694470E-17  0.0000000E+00
  9.9999998E-03  0.0000000E+00
  2.0000000E-02  0.0000000E+00
  2.9999999E-02  0.0000000E+00
  3.9999999E-02  0.0000000E+00
  5.0000001E-02  0.0000000E+00
  5.9999999E-02  0.0000000E+00
  7.0000000E-02  0.0000000E+00
  7.9999998E-02  0.0000000E+00
  9.0000004E-02  0.0000000E+00
  0.1000000      0.0000000E+00
  0.1100000      0.0000000E+00
  0.1200000      0.0000000E+00
  0.1300000      0.0000000E+00
  0.1400000      0.0000000E+00
  0.1500000      0.0000000E+00
  0.1600000      0.0000000E+00
  0.1700000      0.0000000E+00
  0.1800000      0.0000000E+00
  0.1900000      0.0000000E+00
  0.2000000      0.0000000E+00
  0.2100000      0.0000000E+00
  0.2200000      0.0000000E+00
  0.2300000      0.0000000E+00
  0.2400000      0.0000000E+00
  0.2500000      0.0000000E+00
  0.2600000      0.0000000E+00
  0.2700000      0.0000000E+00
  0.2800000      0.0000000E+00
  0.2900000      0.0000000E+00
  0.3000000      0.0000000E+00
  0.3100000      0.0000000E+00
  0.3200000      0.0000000E+00
  0.3300000      0.0000000E+00
  0.3400000      0.0000000E+00
  0.3500000      0.0000000E+00
  0.3600000      0.0000000E+00
  0.3700000      0.0000000E+00
  0.3800000      0.0000000E+00
  0.3900000      0.0000000E+00
  0.4000000      0.0000000E+00
  0.4100000      0.0000000E+00
  0.4200000      0.0000000E+00
  0.4300000      0.0000000E+00
  0.4400000      0.0000000E+00
  0.4500000      0.0000000E+00
  0.4600000      0.0000000E+00
  0.4700000      0.0000000E+00
  0.4800000      0.0000000E+00
  0.4900000      0.0000000E+00
  0.5000000      0.0000000E+00
  0.5100000      0.0000000E+00
  0.5200000      0.0000000E+00
  0.5300000      0.0000000E+00
  0.5400000      0.0000000E+00
  0.5500000      0.0000000E+00
  0.5600000      0.0000000E+00
  0.5700000      0.0000000E+00
  0.5800000      0.0000000E+00
  0.5900000      0.0000000E+00
  0.6000000      0.0000000E+00
  0.6100000      0.0000000E+00
  0.6200000      0.0000000E+00
  0.6300000      0.0000000E+00
  0.6400000      0.0000000E+00
  0.6500000      0.0000000E+00
  0.6600000      0.0000000E+00
  0.6700000      0.0000000E+00
  0.6800000      0.0000000E+00
  0.6900000      0.0000000E+00
  0.7000000      0.0000000E+00
  0.7100000      0.0000000E+00
  0.7200000      0.0000000E+00
  0.7300000      0.0000000E+00
  0.7400000      0.0000000E+00
  0.7500000      0.0000000E+00
  0.7600000      0.0000000E+00
  0.7700000      0.0000000E+00
  0.7800000      0.0000000E+00
  0.7900000      0.0000000E+00
  0.8000000      0.0000000E+00
  0.8100000      0.0000000E+00
  0.8200000      0.0000000E+00
  0.8300000      0.0000000E+00
  0.8400000      0.0000000E+00
  0.8500000      0.0000000E+00
  0.8600000      0.0000000E+00
  0.8700000      0.0000000E+00
  0.8800000      0.0000000E+00
  0.8900000      0.0000000E+00
  0.9000000      0.0000000E+00
  0.9100000      0.0000000E+00
  0.9200000      0.0000000E+00
  0.9300000      0.0000000E+00
  0.9400000      0.0000000E+00
  0.9500000      0.0000000E+00
  0.9600000      0.0000000E+00
  0.9700000      0.0000000E+00
  0.9800000      0.0000000E+00
  0.9900000      0.0000000E+00
   1.000000      0.0000000E+00
   1.010000      0.0000000E+00
   1.020000      0.0000000E+00
   1.030000      0.0000000E+00
   1.040000      0.0000000E+00
   1.050000      0.0000000E+00
   1.060000      0.0000000E+00
   1.070000      0.0000000E+00
   1.080000      0.0000000E+00
   1.090000      0.0000000E+00
   1.100000      0.0000000E+00
   1.110000      0.0000000E+00
   1.120000      0.0000000E+00
   1.130000      0.0000000E+00
   1.140000      0.0000000E+00
   1.150000      0.0000000E+00
   1.160000      0.0000000E+00
   1.170000      0.0000000E+00
   1.180000      0.0000000E+00
   1.190000      0.0000000E+00
   1.200000      0.0000000E+00
   1.210000      0.0000000E+00
   1.220000      0.0000000E+00
   1.230000      0.0000000E+00
   1.240000      0.0000000E+00
   1.250000      0.0000000E+00
   1.260000      0.0000000E+00
   1.270000      0.0000000E+00
   1.280000      0.0000000E+00
   1.290000      0.0000000E+00
   1.300000      0.0000000E+00
   1.310000      0.0000000E+00
   1.320000      0.0000000E+00
   1.330000      0.0000000E+00
   1.340000      0.0000000E+00
   1.350000      0.0000000E+00
   1.360000      0.0000000E+00
   1.370000      0.0000000E+00
   1.380000      0.0000000E+00
   1.390000      0.0000000E+00
   1.400000      0.0000000E+00
   1.410000      0.0000000E+00
   1.420000      0.0000000E+00
   1.430000      0.0000000E+00
   1.440000      0.0000000E+00
   1.450000      0.0000000E+00
   1.460000      0.0000000E+00
   1.470000      0.0000000E+00
   1.480000      0.0000000E+00
   1.490000      0.0000000E+00
   1.500000      0.0000000E+00
   1.510000      0.0000000E+00
   1.520000      0.0000000E+00
   1.530000      0.0000000E+00
   1.540000      0.0000000E+00
   1.550000      0.0000000E+00
   1.560000      0.0000000E+00
   1.570000      0.0000000E+00
   1.580000      0.0000000E+00
   1.590000      0.0000000E+00
   1.600000      0.0000000E+00
   1.610000      0.0000000E+00
   1.620000      0.0000000E+00
   1.630000      0.0000000E+00
   1.640000      0.0000000E+00
   1.650000      0.0000000E+00
   1.660000      0.0000000E+00
   1.670000      0.0000000E+00
   1.680000      0.0000000E+00
   1.690000      0.0000000E+00
   1.700000      0.0000000E+00
   1.710000      0.0000000E+00
   1.720000      0.0000000E+00
   1.730000      0.0000000E+00
   1.740000      0.0000000E+00
   1.750000      0.0000000E+00
   1.760000      0.0000000E+00
   1.770000      0.0000000E+00
   1.780000      0.0000000E+00
   1.790000      0.0000000E+00
   1.800000      0.0000000E+00
   1.810000      0.0000000E+00
   1.820000      0.0000000E+00
   1.830000      0.0000000E+00
   1.840000      0.0000000E+00
   1.850000      0.0000000E+00
   1.860000      0.0000000E+00
   1.870000      0.0000000E+00
   1.880000      0.0000000E+00
   1.890000      0.0000000E+00
   1.900000      0.0000000E+00
   1.910000      0.0000000E+00
   1.920000      0.0000000E+00
   1.930000      0.0000000E+00
   1.940000      0.0000000E+00
   1.950000      0.0000000E+00
   1.960000      0.0000000E+00
   1.970000      0.0000000E+00
   1.980000      0.0000000E+00
   1.990000      0.0000000E+00
   2.000000      0.0000000E+00
   2.010000      0.0000000E+00
   2.020000      0.0000000E+00
   2.030000      0.0000000E+00
   2.040000      0.0000000E+00
   2.050000      0.0000000E+00
   2.060000      0.0000000E+00
   2.070000      0.0000000E+00
   2.080000      0.0000000E+00
   2.090000      0.0000000E+00
   2.100000      0.0000000E+00
   2.110000      0.0000000E+00
   2.120000      0.0000000E+00
   2.130000      0.0000000E+00
   2.140000      0.0000000E+00
   2.150000      0.0000000E+00
   2.160000      0.0000000E+00
   2.170000      0.0000000E+00
   2.180000      0.0000000E+00
   2.190000      0.0000000E+00
   2.200000      0.0000000E+00
   2.210000      0.0000000E+00
   2.220000      0.0000000E+00
   2.230000      0.0000000E+00
   2.240000      0.0000000E+00
   2.250000      0.0000000E+00
   2.260000      0.0000000E+00
   2.270000      0.0000000E+00
   2.280000      0.0000000E+00
   2.290000      0.0000000E+00
   2.300000      0.0000000E+00
   2.310000      0.0000000E+00
   2.320000      0.0000000E+00
   2.330000      0.0000000E+00
   2.340000      0.0000000E+00
   2.350000      0.0000000E+00
   2.360000      0.0000000E+00
   2.370000      0.0000000E+00
   2.380000      0.0000000E+00
   2.390000      0.0000000E+00
   2.400000      0.0000000E+00
   2.410000      0.0000000E+00
   2.420000      0.0000000E+00
   2.430000      0.0000000E+00
   2.440000      0.0000000E+00
   2.450000      0.0000000E+00
   2.460000      0.0000000E+00
   2.470000      0.0000000E+00
   2.480000      0.0000000E+00
   2.490000      0.0000000E+00
   2.500000      0.0000000E+00
   2.510000      0.0000000E+00
   2.520000      0.0000000E+00
   2.530000      0.0000000E+00
   2.540000      0.0000000E+00
   2.550000      0.0000000E+00
   2.560000      0.0000000E+00
   2.570000      0.0000000E+00
   2.580000      0.0000000E+00
   2.590000      0.0000000E+00
   2.600000      0.0000000E+00
   2.610000      0.0000000E+00
   2.620000      0.0000000E+00
   2.630000      0.0000000E+00
   2.640000      0.0000000E+00
   2.650000      0.0000000E+00
   2.660000      0.0000000E+00
   2.670000      0.0000000E+00
   2.680000      0.0000000E+00
   2.690000      0.0000000E+00
   2.700000      0.0000000E+00
   2.710000      0.0000000E+00
   2.720000      0.0000000E+00
   2.730000      0.0000000E+00
   2.740000      0.0000000E+00
   2.750000      0.0000000E+00
   2.760000      0.0000000E+00
   2.770000      0.0000000E+00
   2.780000      0.0000000E+00
   2.790000      0.0000000E+00
   2.800000      0.0000000E+00
   2.810000      0.0000000E+00
   2.820000      0.0000000E+00
   2.830000      0.0000000E+00
   2.840000      0.0000000E+00
   2.850000      0.0000000E+00
   2.860000      0.0000000E+00
   2.870000      0.0000000E+00
   2.880000      0.0000000E+00
   2.890000      0.0000000E+00
   2.900000      0.0000000E+00
   2.910000      0.0000000E+00
   2.920000      0.0000000E+00
   2.930000      0.0000000E+00
   2.940000      0.0000000E+00
   2.950000      0.0000000E+00
   2.960000      0.0000000E+00
   2.970000      0.0000000E+00
   2.980000      0.0000000E+00
   2.990000      0.0000000E+00
   3.000000      0.0000000E+00
   3.010000      0.0000000E+00
   3.020000      0.0000000E+00
   3.030000      0.0000000E+00
   3.040000      0.0000000E+00
   3.050000      0.0000000E+00
   3.060000      0.0000000E+00
   3.070000      0.0000000E+00
   3.080000      0.0000000E+00
   3.090000      0.0000000E+00
   3.100000      0.0000000E+00
   3.110000      0.0000000E+00
   3.120000      0.0000000E+00
   3.130000      0.0000000E+00
   3.140000      0.0000000E+00
   3.150000      0.0000000E+00
   3.160000      0.0000000E+00
   3.170000      0.0000000E+00
   3.180000      0.0000000E+00
   3.190000      0.0000000E+00
   3.200000      0.0000000E+00
   3.210000      0.0000000E+00
   3.220000      0.0000000E+00
   3.230000      0.0000000E+00
   3.240000      0.0000000E+00
   3.250000      0.0000000E+00
   3.260000      0.0000000E+00
   3.270000      0.0000000E+00
   3.280000      0.0000000E+00
   3.290000      0.0000000E+00
   3.300000      0.0000000E+00
   3.310000      0.0000000E+00
   3.320000      0.0000000E+00
   3.330000      0.0000000E+00
   3.340000      0.0000000E+00
   3.350000      0.0000000E+00
   3.360000      0.0000000E+00
   3.370000      0.0000000E+00
   3.380000      0.0000000E+00
   3.390000      0.0000000E+00
   3.400000      0.0000000E+00
   3.410000      0.0000000E+00
   3.420000      0.0000000E+00
   3.430000      0.0000000E+00
   3.440000      0.0000000E+00
   3.450000      0.0000000E+00
   3.460000      0.0000000E+00
   3.470000      0.0000000E+00
   3.480000      0.0000000E+00
   3.490000      0.0000000E+00
   3.500000      0.0000000E+00
   3.510000      0.0000000E+00
   3.520000      1.1872490E-38
   3.530000      1.5991929E-38
   3.540000      2.0486305E-38
   3.550000      2.5267530E-38
   3.560000      3.0206051E-38
   3.570000      3.5160383E-38
   3.580000      4.0025238E-38
   3.590000      4.4715723E-38
   3.600000      4.9116273E-38
   3.610000      5.3067599E-38
   3.620000      5.6416119E-38
   3.630000      5.8969268E-38
   3.640000      5.9886110E-38
   3.650000      5.9608350E-38
   3.660000      5.9285295E-38
   3.670000      5.8924460E-38
   3.680000      5.8533902E-38
   3.690000      5.6755491E-38
   3.700000      5.3212364E-38
   3.710000      4.8939020E-38
   3.720000      4.4025847E-38
   3.730000      3.8571626E-38
   3.740000      3.2697161E-38
   3.750000      2.6507447E-38
   3.760000      2.0079489E-38
   3.770000      1.3481441E-38
   3.780000      0.0000000E+00
   3.790000      0.0000000E+00
   3.800000      0.0000000E+00
   3.810000     -1.3599065E-38
   3.820000     -2.0380093E-38
   3.830000     -2.7152649E-38
   3.840000     -3.3899719E-38
   3.850000     -4.0615403E-38
   3.860000     -4.7298498E-38
   3.870000     -5.3962743E-38
   3.880000     -6.0627778E-38
   3.890000     -6.7314348E-38
   3.900000     -7.4074980E-38
   3.910000     -8.1003958E-38
   3.920000     -8.8207932E-38
   3.930000     -9.5790644E-38
   3.940000     -1.0383735E-37
   3.950000     -1.1246167E-37
   3.960000     -1.2177295E-37
   3.970000     -1.3180511E-37
   3.980000     -1.4256657E-37
   3.990000     -1.5402601E-37
   4.000000     -1.6606819E-37
   4.010000     -1.7861443E-37
   4.020000     -1.9156295E-37
   4.030000     -2.0464065E-37
   4.040000     -2.1756614E-37
   4.050000     -2.3015334E-37
   4.060000     -2.4222747E-37
   4.070000     -2.5354689E-37
   4.080000     -2.6385412E-37
   4.090000     -2.7288552E-37
   4.100000     -2.8034678E-37
   4.110000     -2.8596977E-37
   4.120000     -2.8952252E-37
   4.130000     -2.8872008E-37
   4.140000     -2.8434803E-37
   4.150000     -2.7802741E-37
   4.160000     -2.6865306E-37
   4.170000     -2.5629444E-37
   4.180000     -2.4088099E-37
   4.190000     -2.2253597E-37
   4.200000     -2.0129390E-37
   4.210000     -1.7720327E-37
   4.220000     -1.5036364E-37
   4.230000     -1.2088036E-37
   4.240000     -8.8840439E-38
   4.250000     -5.6701037E-38
   4.260000     -2.7883681E-38
   4.270000      0.0000000E+00
   4.280000      3.0211754E-38
   4.290000      6.1356335E-38
   4.300000      9.7816283E-38
   4.310000      1.3973245E-37
   4.320000      1.8354133E-37
   4.330000      2.2925308E-37
   4.340000      2.7695554E-37
   4.350000      3.2744861E-37
   4.360000      3.9575234E-37
   4.370000      4.8327793E-37
   4.380000      5.7588735E-37
   4.390000      5.5285484E-37
   4.400000      4.0956125E-37
   4.410000      2.4842555E-37
   4.420000      7.2605556E-38
   4.430000     -1.0200462E-37
   4.440000     -2.7551321E-37
   4.450000     -4.4162542E-37
   4.460000     -5.9796984E-37
   4.470000     -6.0285183E-37
   4.480000     -4.6100123E-37
   4.490000     -3.2030679E-37
   4.500000     -2.4256846E-37
   4.510000      5.0392213E-37
   4.520000      1.9949168E-36
   4.530000      3.4373147E-36
   4.540000      4.1405454E-36
   4.550000      4.1750167E-36
   4.560000      4.2095931E-36
   4.570000      4.2292868E-36
   4.580000      4.2249498E-36
   4.590000      4.1570431E-36
   4.600000      4.0339100E-36
   4.610000      3.8919062E-36
   4.620000      3.7020097E-36
   4.630000      3.6284922E-36
   4.640000      3.8556552E-36
   4.650000      4.2843756E-36
   4.660000      4.0591989E-36
   4.670000      3.0780708E-36
   4.680000      2.0672873E-36
   4.690000      1.1061272E-36
   4.700000      2.3752677E-37
   4.710000     -4.5561182E-37
   4.720000     -2.7682194E-37
   4.730000      6.2480872E-37
   4.740000      1.5050453E-36
   4.750000      1.7475757E-36
   4.760000      1.2624991E-36
   4.770000      6.3468565E-37
   4.780000     -9.6396498E-38
   4.790000     -8.5253420E-37
   4.800000     -1.5863979E-36
   4.810000     -2.2250605E-36
   4.820000     -2.7098076E-36
   4.830000     -3.0871026E-36
   4.840000     -4.3310205E-36
   4.850000     -6.4967321E-36
   4.860000     -8.6541237E-36
   4.870000     -1.0674887E-35
   4.880000     -1.2443470E-35
   4.890000     -1.3428819E-35
   4.900000     -1.3699257E-35
   4.910000     -1.3974998E-35
   4.920000     -1.4332780E-35
   4.930000     -1.4702143E-35
   4.940000     -1.5855518E-35
   4.950000     -1.7950720E-35
   4.960000     -2.0536209E-35
   4.970000     -2.3594996E-35
   4.980000     -2.6574300E-35
   4.990000     -2.9215371E-35
   5.000000     -3.1570616E-35
   5.010000     -3.3556507E-35
   5.020000     -3.5138583E-35
   5.030000     -3.6281757E-35
   5.040000     -3.5622957E-35
   5.050000     -3.3497703E-35
   5.060000     -3.2541618E-35
   5.070000     -3.2871024E-35
   5.080000     -3.3826675E-35
   5.090000     -3.5648614E-35
   5.100000     -3.8126505E-35
   5.110000     -4.0984222E-35
   5.120000     -4.4191169E-35
   5.130000     -4.7333022E-35
   5.140000     -5.0056883E-35
   5.150000     -5.2070847E-35
   5.160000     -5.2527975E-35
   5.170000     -5.0386630E-35
   5.180000     -4.5701674E-35
   5.190000     -3.9641722E-35
   5.200000     -3.2925241E-35
   5.210000     -2.5820939E-35
   5.220000     -1.8807681E-35
   5.230000     -1.5283971E-35
   5.240000     -1.5504550E-35
   5.250000     -1.6669133E-35
   5.260000     -1.8975445E-35
   5.270000     -2.2085105E-35
   5.280000     -2.5566741E-35
   5.290000     -2.9279817E-35
   5.300000     -3.2825094E-35
   5.310000     -2.6692366E-35
   5.320000     -8.8257879E-36
   5.330000      1.3277071E-35
   5.340000      3.8701002E-35
   5.350000      6.6565415E-35
   5.360000      9.5171995E-35
   5.370000      1.2120217E-34
   5.380000      1.3567477E-34
   5.390000      1.4056006E-34
   5.400000      1.4477337E-34
   5.410000      1.4767054E-34
   5.420000      1.4884742E-34
   5.430000      1.4664663E-34
   5.440000      1.4242581E-34
   5.450000      1.3845898E-34
   5.460000      1.3390255E-34
   5.470000      1.2925615E-34
   5.480000      1.2504958E-34
   5.490000      1.3005694E-34
   5.500000      1.4720293E-34
   5.510000      1.6726284E-34
   5.520000      1.8801363E-34
   5.530000      2.1104410E-34
   5.540000      2.4077010E-34
   5.550000      2.7587799E-34
   5.560000      3.1080475E-34
   5.570000      3.3407726E-34
   5.580000      3.4416496E-34
   5.590000      3.5028857E-34
   5.600000      3.5229283E-34
   5.610000      3.5182780E-34
   5.620000      3.5323575E-34
   5.630000      3.5687081E-34
   5.640000      3.6468491E-34
   5.650000      3.7894136E-34
   5.660000      3.9846334E-34
   5.670000      4.1419108E-34
   5.680000      4.0870579E-34
   5.690000      3.8486383E-34
   5.700000      3.5372905E-34
   5.710000      3.1751551E-34
   5.720000      2.8170251E-34
   5.730000      2.5027884E-34
   5.740000      2.2394318E-34
   5.750000      2.0457955E-34
   5.760000      1.9407345E-34
   5.770000      2.0188450E-34
   5.780000      2.1158526E-34
   5.790000      2.0473870E-34
   5.800000      1.8645515E-34
   5.810000      1.5328532E-34
   5.820000      1.0287202E-34
   5.830000      3.6981422E-35
   5.840000     -3.9281285E-35
   5.850000     -1.2033370E-34
   5.860000     -2.0407397E-34
   5.870000     -2.8692828E-34
   5.880000     -3.6743664E-34
   5.890000     -4.3951757E-34
   5.900000     -4.9551481E-34
   5.910000     -5.3574960E-34
   5.920000     -5.6125236E-34
   5.930000     -5.7563945E-34
   5.940000     -5.8424406E-34
   5.950000     -5.9424174E-34
   5.960000     -6.2079560E-34
   5.970000     -6.7364353E-34
   5.980000     -7.4990896E-34
   5.990000     -8.4962546E-34
   6.000000     -9.6843120E-34
   6.010000     -1.0997781E-33
   6.020000     -1.2381933E-33
   6.030000     -1.3765281E-33
   6.040000     -1.5109945E-33
   6.050000     -1.6357507E-33
   6.060000     -1.7368919E-33
   6.070000     -1.8215214E-33
   6.080000     -1.9060825E-33
   6.090000     -1.9894505E-33
   6.100000     -2.0566499E-33
   6.110000     -2.1073811E-33
   6.120000     -2.1575925E-33
   6.130000     -2.2097654E-33
   6.140000     -2.2682602E-33
   6.150000     -2.3321369E-33
   6.160000     -2.4051573E-33
   6.170000     -2.4933655E-33
   6.180000     -2.5927276E-33
   6.190000     -2.6982093E-33
   6.200000     -2.8026302E-33
   6.210000     -2.9005742E-33
   6.220000     -2.9864069E-33
   6.230000     -3.0543895E-33
   6.240000     -3.0926334E-33
   6.250000     -3.1105145E-33
   6.260000     -3.1091635E-33
   6.270000     -3.0770888E-33
   6.280000     -3.0222952E-33
   6.290000     -2.9497455E-33
   6.300000     -2.8653371E-33
   6.310000     -2.7744378E-33
   6.320000     -2.6815862E-33
   6.330000     -2.5908913E-33
   6.340000     -2.5038775E-33
   6.350000     -2.4189743E-33
   6.360000     -2.3334459E-33
   6.370000     -2.2420588E-33
   6.380000     -2.1398247E-33
   6.390000     -2.0189180E-33
   6.400000     -1.8704639E-33
   6.410000     -1.6881438E-33
   6.420000     -1.4673052E-33
   6.430000     -1.2059982E-33
   6.440000     -9.0425959E-34
   6.450000     -5.6458714E-34
   6.460000     -1.9021423E-34
   6.470000      2.1047982E-34
   6.480000      6.2860043E-34
   6.490000      1.0593773E-33
   6.500000      1.4994244E-33
   6.510000      1.9470997E-33
   6.520000      2.4018274E-33
   6.530000      2.8658246E-33
   6.540000      3.3431129E-33
   6.550000      3.8405505E-33
   6.560000      4.3665020E-33
   6.570000      4.9287273E-33
   6.580000      5.5306080E-33
   6.590000      6.1767570E-33
   6.600000      6.8719319E-33
   6.610000      7.6138202E-33
   6.620000      8.3988741E-33
   6.630000      9.2232233E-33
   6.640000      1.0076652E-32
   6.650000      1.0945491E-32
   6.660000      1.1825033E-32
   6.670000      1.2711351E-32
   6.680000      1.3596714E-32
   6.690000      1.4486788E-32
   6.700000      1.5370263E-32
   6.710000      1.6236588E-32
   6.720000      1.7099101E-32
   6.730000      1.7962343E-32
   6.740000      1.8830945E-32
   6.750000      1.9710517E-32
   6.760000      2.0602550E-32
   6.770000      2.1506645E-32
   6.780000      2.2420314E-32
   6.790000      2.3336612E-32
   6.800000      2.4245989E-32
   6.810000      2.5137077E-32
   6.820000      2.5996472E-32
   6.830000      2.6811930E-32
   6.840000      2.7569768E-32
   6.850000      2.8257477E-32
   6.860000      2.8867329E-32
   6.870000      2.9393759E-32
   6.880000      2.9834023E-32
   6.890000      3.0187867E-32
   6.900000      3.0456574E-32
   6.910000      3.0641820E-32
   6.920000      3.0745125E-32
   6.930000      3.0766637E-32
   6.940000      3.0703995E-32
   6.950000      3.0551621E-32
   6.960000      3.0300850E-32
   6.970000      2.9939923E-32
   6.980000      2.9454239E-32
   6.990000      2.8827627E-32
   7.000000      2.8043525E-32
   7.010000      2.7085935E-32
   7.020000      2.5940407E-32
   7.030000      2.4595062E-32
   7.040000      2.3041405E-32
   7.050000      2.1274483E-32
   7.060000      1.9292466E-32