  -2.600000      0.0000000E+00
  -2.590000      0.0000000E+00
  -2.580000      0.0000000E+00
  -2.570000      0.0000000E+00
  -2.560000      0.0000000E+00
  -2.550000      0.0000000E+00
  -2.540000      0.0000000E+00
  -2.530000      0.0000000E+00
  -2.520000      0.0000000E+00
  -2.510000      0.0000000E+00
  -2.500000      0.0000000E+00
  -2.490000      0.0000000E+00
  -2.480000      0.0000000E+00
  -2.470000      0.0000000E+00
  -2.460000      0.0000000E+00
  -2.450000      0.0000000E+00
  -2.440000      0.0000000E+00
  -2.430000      0.0000000E+00
  -2.420000      0.0000000E+00
  -2.410000      0.0000000E+00
  -2.400000      0.0000000E+00
  -2.390000      0.0000000E+00
  -2.380000      0.0000000E+00
  -2.370000      0.0000000E+00
  -2.360000      0.0000000E+00
  -2.350000      0.0000000E+00
  -2.340000      0.0000000E+00
  -2.330000      0.0000000E+00
  -2.320000      0.0000000E+00
  -2.310000      0.0000000E+00
  -2.300000      0.0000000E+00
  -2.290000      0.0000000E+00
  -2.280000      0.0000000E+00
  -2.270000      0.0000000E+00
  -2.260000      0.0000000E+00
  -2.250000      0.0000000E+00
  -2.240000      0.0000000E+00
  -2.230000      0.0000000E+00
  -2.220000      0.0000000E+00
  -2.210000      0.0000000E+00
  -2.200000      0.0000000E+00
  -2.190000      0.0000000E+00
  -2.180000      0.0000000E+00
  -2.170000      0.0000000E+00
  -2.160000      0.0000000E+00
  -2.150000      0.0000000E+00
  -2.140000      0.0000000E+00
  -2.130000      0.0000000E+00
  -2.120000      0.0000000E+00
  -2.110000      0.0000000E+00
  -2.100000      0.0000000E+00
  -2.090000      0.0000000E+00
  -2.080000      0.0000000E+00
  -2.070000      0.0000000E+00
  -2.060000      0.0000000E+00
  -2.050000      0.0000000E+00
  -2.040000      0.0000000E+00
  -2.030000      0.0000000E+00
  -2.020000      0.0000000E+00
  -2.010000      0.0000000E+00
  -2.000000      0.0000000E+00
  -1.990000      0.0000000E+00
  -1.980000      0.0000000E+00
  -1.970000      0.0000000E+00
  -1.960000      0.0000000E+00
  -1.950000      0.0000000E+00
  -1.940000      0.0000000E+00
  -1.930000      0.0000000E+00
  -1.920000      0.0000000E+00
  -1.910000      0.0000000E+00
  -1.900000      0.0000000E+00
  -1.890000      0.0000000E+00
  -1.880000      0.0000000E+00
  -1.870000      0.0000000E+00
  -1.860000      0.0000000E+00
  -1.850000      0.0000000E+00
  -1.840000      0.0000000E+00
  -1.830000      0.0000000E+00
  -1.820000      0.0000000E+00
  -1.810000      0.0000000E+00
  -1.800000      0.0000000E+00
  -1.790000      0.0000000E+00
  -1.780000      0.0000000E+00
  -1.770000      0.0000000E+00
  -1.760000      0.0000000E+00
  -1.750000      0.0000000E+00
  -1.740000      0.0000000E+00
  -1.730000      0.0000000E+00
  -1.720000      0.0000000E+00
  -1.710000      0.0000000E+00
  -1.700000      0.0000000E+00
  -1.690000      0.0000000E+00
  -1.680000      0.0000000E+00
  -1.670000      0.0000000E+00
  -1.660000      0.0000000E+00
  -1.650000      0.0000000E+00
  -1.640000      0.0000000E+00
  -1.630000      0.0000000E+00
  -1.620000      0.0000000E+00
  -1.610000      0.0000000E+00
  -1.600000      0.0000000E+00
  -1.590000      0.0000000E+00
  -1.580000      0.0000000E+00
  -1.570000      0.0000000E+00
  -1.560000      0.0000000E+00
  -1.550000      0.0000000E+00
  -1.540000      0.0000000E+00
  -1.530000      0.0000000E+00
  -1.520000      0.0000000E+00
  -1.510000      0.0000000E+00
  -1.500000      0.0000000E+00
  -1.490000      0.0000000E+00
  -1.480000      0.0000000E+00
  -1.470000      0.0000000E+00
  -1.460000      0.0000000E+00
  -1.450000      0.0000000E+00
  -1.440000      0.0000000E+00
  -1.430000      0.0000000E+00
  -1.420000      0.0000000E+00
  -1.410000      0.0000000E+00
  -1.400000      0.0000000E+00
  -1.390000      0.0000000E+00
  -1.380000      0.0000000E+00
  -1.370000      0.0000000E+00
  -1.360000      0.0000000E+00
  -1.350000      0.0000000E+00
  -1.340000      0.0000000E+00
  -1.330000      0.0000000E+00
  -1.320000      0.0000000E+00
  -1.310000      0.0000000E+00
  -1.300000      0.0000000E+00
  -1.290000      0.0000000E+00
  -1.280000      0.0000000E+00
  -1.270000      0.0000000E+00
  -1.260000      0.0000000E+00
  -1.250000      0.0000000E+00
  -1.240000      0.0000000E+00
  -1.230000      0.0000000E+00
  -1.220000      0.0000000E+00
  -1.210000      0.0000000E+00
  -1.200000      0.0000000E+00
  -1.190000      0.0000000E+00
  -1.180000      0.0000000E+00
  -1.170000      0.0000000E+00
  -1.160000      0.0000000E+00
  -1.150000      0.0000000E+00
  -1.140000      0.0000000E+00
  -1.130000      0.0000000E+00
  -1.120000      0.0000000E+00
  -1.110000      0.0000000E+00
  -1.100000      0.0000000E+00
  -1.090000      0.0000000E+00
  -1.080000      0.0000000E+00
  -1.070000      0.0000000E+00
  -1.060000      0.0000000E+00
  -1.050000      0.0000000E+00
  -1.040000      0.0000000E+00
  -1.030000      0.0000000E+00
  -1.020000      0.0000000E+00
  -1.010000      0.0000000E+00
  -1.000000      0.0000000E+00
 -0.9900000      0.0000000E+00
 -0.9800000      0.0000000E+00
 -0.9700000      0.0000000E+00
 -0.9600000      0.0000000E+00
 -0.9500000      0.0000000E+00
 -0.9400000      0.0000000E+00
 -0.9300000      0.0000000E+00
 -0.9200000      0.0000000E+00
 -0.9100000      0.0000000E+00
 -0.9000000      0.0000000E+00
 -0.8900000      0.0000000E+00
 -0.8800000      0.0000000E+00
 -0.8700000      0.0000000E+00
 -0.8600000      0.0000000E+00
 -0.8500000      0.0000000E+00
 -0.8400000      0.0000000E+00
 -0.8300000      0.0000000E+00
 -0.8200000      0.0000000E+00
 -0.8100000      0.0000000E+00
 -0.8000000      0.0000000E+00
 -0.7900000      0.0000000E+00
 -0.7800000      0.0000000E+00
 -0.7700000      0.0000000E+00
 -0.7600000      0.0000000E+00
 -0.7500000      0.0000000E+00
 -0.7400000      0.0000000E+00
 -0.7300000      0.0000000E+00
 -0.7200000      0.0000000E+00
 -0.7100000      0.0000000E+00
 -0.7000000      0.0000000E+00
 -0.6900000      0.0000000E+00
 -0.6800000      0.0000000E+00
 -0.6700000      0.0000000E+00
 -0.6600000      0.0000000E+00
 -0.6500000      0.0000000E+00
 -0.6400000      0.0000000E+00
 -0.6300000      0.0000000E+00
 -0.6200000      0.0000000E+00
 -0.6100000      0.0000000E+00
 -0.6000000      0.0000000E+00
 -0.5900000      0.0000000E+00
 -0.5800000      0.0000000E+00
 -0.5700000      0.0000000E+00
 -0.5600000      0.0000000E+00
 -0.5500000      0.0000000E+00
 -0.5400000      0.0000000E+00
 -0.5300000      0.0000000E+00
 -0.5200000      0.0000000E+00
 -0.5100000      0.0000000E+00
 -0.5000000      0.0000000E+00
 -0.4900000      0.0000000E+00
 -0.4800000      0.0000000E+00
 -0.4700000      0.0000000E+00
 -0.4600000      0.0000000E+00
 -0.4500000      0.0000000E+00
 -0.4400000      0.0000000E+00
 -0.4300000      0.0000000E+00
 -0.4200000      0.0000000E+00
 -0.4100000      0.0000000E+00
 -0.4000000      0.0000000E+00
 -0.3900000      0.0000000E+00
 -0.3800000      0.0000000E+00
 -0.3700000      0.0000000E+00
 -0.3600000      0.0000000E+00
 -0.3500000      0.0000000E+00
 -0.3400000      0.0000000E+00
 -0.3300000      0.0000000E+00
 -0.3200000      0.0000000E+00
 -0.3100000      0.0000000E+00
 -0.3000000      0.0000000E+00
 -0.2900000      0.0000000E+00
 -0.2800000      0.0000000E+00
 -0.2700000      0.0000000E+00
 -0.2600000      0.0000000E+00
 -0.2500000      0.0000000E+00
 -0.2400000      0.0000000E+00
 -0.2300000      0.0000000E+00
 -0.2200000      0.0000000E+00
 -0.2100000      0.0000000E+00
 -0.2000000      0.0000000E+00
 -0.1900000      0.0000000E+00
 -0.1800000      0.0000000E+00
 -0.1700000      0.0000000E+00
 -0.1600000      0.0000000E+00
 -0.1500000      0.0000000E+00
 -0.1400000      0.0000000E+00
 -0.1300000      0.0000000E+00
 -0.1200000      0.0000000E+00
 -0.1100000      0.0000000E+00
 -0.1000000      0.0000000E+00
 -9.0000004E-02  0.0000000E+00
 -7.9999998E-02  0.0000000E+00
 -7.0000000E-02  0.0000000E+00
 -5.9999999E-02  0.0000000E+00
 -5.0000001E-02  0.0000000E+00
 -3.9999999E-02  0.0000000E+00
 -2.9999999E-02  0.0000000E+00
 -2.0000000E-02  0.0000000E+00
 -9.9999998E-03  0.0000000E+00
 -3.4694470E-17  0.0000000E+00
  9.9999998E-03  0.0000000E+00
  2.0000000E-02  0.0000000E+00
  2.9999999E-02  0.0000000E+00
  3.9999999E-02  0.0000000E+00
  5.0000001E-02  0.0000000E+00
  5.9999999E-02  0.0000000E+00
  7.0000000E-02  0.0000000E+00
  7.9999998E-02  0.0000000E+00
  9.0000004E-02  0.0000000E+00
  0.1000000      0.0000000E+00
  0.1100000      0.0000000E+00
  0.1200000      0.0000000E+00
  0.1300000      0.0000000E+00
  0.1400000      0.0000000E+00
  0.1500000      0.0000000E+00
  0.1600000      0.0000000E+00
  0.1700000      0.0000000E+00
  0.1800000      0.0000000E+00
  0.1900000      0.0000000E+00
  0.2000000      0.0000000E+00
  0.2100000      0.0000000E+00
  0.2200000      0.0000000E+00
  0.2300000      0.0000000E+00
  0.2400000      0.0000000E+00
  0.2500000      0.0000000E+00
  0.2600000      0.0000000E+00
  0.2700000      0.0000000E+00
  0.2800000      0.0000000E+00
  0.2900000      0.0000000E+00
  0.3000000      0.0000000E+00
  0.3100000     -2.4573321E-38
  0.3200000     -4.8995930E-38
  0.3300000     -8.2458657E-38
  0.3400000     -1.2741099E-37
  0.3500000     -1.8531141E-37
  0.3600000     -2.5333171E-37
  0.3700000     -3.3136375E-37
  0.3800000     -4.0676695E-37
  0.3900000     -4.6418305E-37
  0.4000000     -4.9599683E-37
  0.4100000     -5.0418445E-37
  0.4200000     -4.9415609E-37
  0.4300000     -4.5484502E-37
  0.4400000     -3.8566613E-37
  0.4500000     -2.8400753E-37
  0.4600000     -1.3048237E-37
  0.4700000      6.4220853E-38
  0.4800000      3.0087250E-37
  0.4900000      5.8110767E-37
  0.5000000      9.0854076E-37
  0.5100000      1.2867751E-36
  0.5200000      1.7101430E-36
  0.5300000      2.1752821E-36
  0.5400000      2.6629191E-36
  0.5500000      3.1857902E-36
  0.5600000      3.7513078E-36
  0.5700000      4.3866333E-36
  0.5800000      5.0947076E-36
  0.5900000      5.8182246E-36
  0.6000000      6.5441314E-36
  0.6100000      7.2747531E-36
  0.6200000      7.9303811E-36
  0.6300000      8.4942022E-36
  0.6400000      9.0644210E-36
  0.6500000      9.5791726E-36
  0.6600000      1.0032745E-35
  0.6700000      1.0450997E-35
  0.6800000      1.0747217E-35
  0.6900000      1.0832032E-35
  0.7000000      1.0649511E-35
  0.7100000      1.0240268E-35
  0.7200000      9.4651768E-36
  0.7300000      8.3288467E-36
  0.7400000      6.8757853E-36
  0.7500000      4.9141407E-36
  0.7600000      2.4190539E-36
  0.7700000     -5.7062398E-37
  0.7800000     -4.3176100E-36
  0.7900000     -8.8466755E-36
  0.8000000     -1.3529852E-35
  0.8100000     -1.8358683E-35
  0.8200000     -2.3296088E-35
  0.8300000     -2.8127077E-35
  0.8400000     -3.3179654E-35
  0.8500000     -3.8234044E-35
  0.8600000     -4.3041271E-35
  0.8700000     -4.7667605E-35
  0.8800000     -5.2354653E-35
  0.8900000     -5.7146457E-35
  0.9000000     -6.1854163E-35
  0.9100000     -6.6691563E-35
  0.9200000     -7.1617539E-35
  0.9300000     -7.6372890E-35
  0.9400000     -8.1250640E-35
  0.9500000     -8.6730326E-35
  0.9600000     -9.2374094E-35
  0.9700000     -9.7215197E-35
  0.9800000     -1.0038775E-34
  0.9900000     -1.0271115E-34
   1.000000     -1.0480261E-34
   1.010000     -1.0620122E-34
   1.020000     -1.0666010E-34
   1.030000     -1.0596700E-34
   1.040000     -1.0427230E-34
   1.050000     -1.0101691E-34
   1.060000     -9.3642296E-35
   1.070000     -8.2507122E-35
   1.080000     -7.0467718E-35
   1.090000     -5.7030480E-35
   1.100000     -4.4941181E-35
   1.110000     -3.4611203E-35
   1.120000     -2.3315850E-35
   1.130000     -1.1170596E-35
   1.140000      2.8706650E-36
   1.150000      1.8786488E-35
   1.160000      3.7036288E-35
   1.170000      6.0800787E-35
   1.180000      8.8816335E-35
   1.190000      1.1853152E-34
   1.200000      1.5086205E-34
   1.210000      1.8243257E-34
   1.220000      2.1277396E-34
   1.230000      2.4417527E-34
   1.240000      2.7207900E-34
   1.250000      2.9985780E-34
   1.260000      3.2788121E-34
   1.270000      3.5273355E-34
   1.280000      3.7865052E-34
   1.290000      4.0904526E-34
   1.300000      4.3887408E-34
   1.310000      4.6544250E-34
   1.320000      4.9097373E-34
   1.330000      5.1651846E-34
   1.340000      5.4440523E-34
   1.350000      5.7529584E-34
   1.360000      6.0716042E-34
   1.370000      6.3624477E-34
   1.380000      6.6557583E-34
   1.390000      6.9312639E-34
   1.400000      7.2006289E-34
   1.410000      7.4869072E-34
   1.420000      7.7700976E-34
   1.430000      8.0425918E-34
   1.440000      8.2910840E-34
   1.450000      8.5307912E-34
   1.460000      8.7670371E-34
   1.470000      9.0031755E-34
   1.480000      9.2328469E-34
   1.490000      9.4557721E-34
   1.500000      9.6514680E-34
   1.510000      9.8000128E-34
   1.520000      9.9173143E-34
   1.530000      1.0000572E-33
   1.540000      1.0061978E-33
   1.550000      1.0094122E-33
   1.560000      1.0066690E-33
   1.570000      9.9758365E-34
   1.580000      9.7879603E-34
   1.590000      9.4902122E-34
   1.600000      9.0777799E-34
   1.610000      8.4977028E-34
   1.620000      7.7184787E-34
   1.630000      6.7345665E-34
   1.640000      5.5368383E-34
   1.650000      4.0867668E-34
   1.660000      2.3504450E-34
   1.670000      3.1645749E-35
   1.680000     -2.0137336E-34
   1.690000     -4.6532320E-34
   1.700000     -7.6333049E-34
   1.710000     -1.0975566E-33
   1.720000     -1.4698117E-33
   1.730000     -1.8820307E-33
   1.740000     -2.3348508E-33
   1.750000     -2.8270975E-33
   1.760000     -3.3591893E-33
   1.770000     -3.9308079E-33
   1.780000     -4.5420172E-33
   1.790000     -5.1926177E-33
   1.800000     -5.8807822E-33
   1.810000     -6.6051057E-33
   1.820000     -7.3604218E-33
   1.830000     -8.1414555E-33
   1.840000     -8.9489672E-33
   1.850000     -9.7797993E-33
   1.860000     -1.0626099E-32
   1.870000     -1.1480959E-32
   1.880000     -1.2336123E-32
   1.890000     -1.3181638E-32
   1.900000     -1.4007152E-32
   1.910000     -1.4800298E-32
   1.920000     -1.5546195E-32
   1.930000     -1.6229886E-32
   1.940000     -1.6833379E-32
   1.950000     -1.7336749E-32
   1.960000     -1.7719993E-32
   1.970000     -1.7960917E-32
   1.980000     -1.8036189E-32
   1.990000     -1.7921067E-32
   2.000000     -1.7589890E-32
   2.010000     -1.7016752E-32
   2.020000     -1.6175350E-32
   2.030000     -1.5039279E-32
   2.040000     -1.3582063E-32
   2.050000     -1.1778120E-32
   2.060000     -9.6026640E-33
   2.070000     -7.0322385E-33
   2.080000     -4.0453187E-33
   2.090000     -6.2237517E-34
   2.100000      3.2537801E-33
   2.110000      7.5973846E-33
   2.120000      1.2421834E-32
   2.130000      1.7732553E-32
   2.140000      2.3531062E-32
   2.150000      2.9819535E-32
   2.160000      3.6593036E-32
   2.170000      4.3842187E-32
   2.180000      5.1552851E-32
   2.190000      5.9704851E-32
   2.200000      6.8271871E-32
   2.210000      7.7220763E-32
   2.220000      8.6511353E-32
   2.230000      9.6096481E-32
   2.240000      1.0592090E-31
   2.250000      1.1592080E-31
   2.260000      1.2602301E-31
   2.270000      1.3614466E-31
   2.280000      1.4619308E-31
   2.290000      1.5606493E-31
   2.300000      1.6564601E-31
   2.310000      1.7481104E-31
   2.320000      1.8342362E-31
   2.330000      1.9133613E-31
   2.340000      1.9839025E-31
   2.350000      2.0441729E-31
   2.360000      2.0923865E-31
   2.370000      2.1266696E-31
   2.380000      2.1450703E-31
   2.390000      2.1455725E-31
   2.400000      2.1261119E-31
   2.410000      2.0845902E-31
   2.420000      2.0188967E-31
   2.430000      1.9269319E-31
   2.440000      1.8066240E-31
   2.450000      1.6559549E-31
   2.460000      1.4729831E-31
   2.470000      1.2558677E-31
   2.480000      1.0028926E-31
   2.490000      7.1249046E-32
   2.500000      3.8326491E-32
   2.510000      1.4014136E-33
   2.520000     -3.9624610E-32
   2.530000     -8.4826311E-32
   2.540000     -1.3425255E-31
   2.550000     -1.8792394E-31
   2.560000     -2.4583118E-31
   2.570000     -3.0793288E-31
   2.580000     -3.7415327E-31
   2.590000     -4.4438031E-31
   2.600000     -5.1846321E-31
   2.610000     -5.9621003E-31
   2.620000     -6.7738553E-31
   2.630000     -7.6170854E-31
   2.640000     -8.4884911E-31
   2.650000     -9.3842601E-31
   2.660000     -1.0300042E-30
   2.670000     -1.1230918E-30
   2.680000     -1.2171379E-30
   2.690000     -1.3115308E-30
   2.700000     -1.4055958E-30
   2.710000     -1.4985935E-30
   2.720000     -1.5897194E-30
   2.730000     -1.6781038E-30
   2.740000     -1.7628125E-30
   2.750000     -1.8428481E-30
   2.760000     -1.9171525E-30
   2.770000     -1.9846108E-30
   2.780000     -2.0440555E-30
   2.790000     -2.0942728E-30
   2.800000     -2.1340086E-30
   2.810000     -2.1619767E-30
   2.820000     -2.1768677E-30
   2.830000     -2.1773575E-30
   2.840000     -2.1621189E-30
   2.850000     -2.1298321E-30
   2.860000     -2.0791950E-30
   2.870000     -2.0089370E-30
   2.880000     -1.9178284E-30
   2.890000     -1.8046947E-30
   2.900000     -1.6684277E-30
   2.910000     -1.5079968E-30
   2.920000     -1.3224610E-30
   2.930000     -1.1109813E-30
   2.940000     -8.7283145E-31
   2.950000     -6.0740939E-31
   2.960000     -3.1424829E-31
   2.970000      6.9720318E-33
   2.980000      3.5641264E-31
   2.990000      7.3406397E-31
   3.000000      1.1397355E-30
   3.010000      1.5730402E-30
   3.020000      2.0333829E-30
   3.030000      2.5199471E-30
   3.040000      3.0316795E-30
   3.050000      3.5672763E-30
   3.060000      4.1251678E-30
   3.070000      4.7035039E-30
   3.080000      5.3001396E-30
   3.090000      5.9126192E-30
   3.100000      6.5381665E-30
   3.110000      7.1736700E-30
   3.120000      7.8156765E-30
   3.130000      8.4603793E-30
   3.140000      9.1036196E-30
   3.150000      9.7408805E-30
   3.160000      1.0367291E-29
   3.170000      1.0977633E-29
   3.180000      1.1566354E-29
   3.190000      1.2127578E-29
   3.200000      1.2655131E-29
   3.210000      1.3142561E-29
   3.220000      1.3583170E-29
   3.230000      1.3970041E-29
   3.240000      1.4296082E-29
   3.250000      1.4554062E-29
   3.260000      1.4736659E-29
   3.270000      1.4836499E-29
   3.280000      1.4846206E-29
   3.290000      1.4758452E-29
   3.300000      1.4566011E-29
   3.310000      1.4261806E-29
   3.320000      1.3838962E-29
   3.330000      1.3290862E-29
   3.340000      1.2611195E-29
   3.350000      1.1794022E-29
   3.360000      1.0833818E-29
   3.370000      9.7255377E-30
   3.380000      8.4646705E-30
   3.390000      7.0473057E-30
   3.400000      5.4701914E-30
   3.410000      3.7308111E-30
   3.420000      1.8274446E-30
   3.430000     -2.4075119E-31
   3.440000     -2.4736654E-30
   3.450000     -4.8701487E-30
   3.460000     -7.4279326E-30
   3.470000     -1.0143533E-29
   3.480000     -1.3012162E-29
   3.490000     -1.6027645E-29
   3.500000     -1.9182304E-29
   3.510000     -2.2466900E-29
   3.520000     -2.5870529E-29
   3.530000     -2.9380546E-29
   3.540000     -3.2982486E-29
   3.550000     -3.6660001E-29
   3.560000     -4.0394816E-29
   3.570000     -4.4166686E-29
   3.580000     -4.7953354E-29
   3.590000     -5.1730545E-29
   3.600000     -5.5471976E-29
   3.610000     -5.9149383E-29
   3.620000     -6.2732528E-29
   3.630000     -6.6189289E-29
   3.640000     -6.9485699E-29
   3.650000     -7.2586037E-29
   3.660000     -7.5452934E-29
   3.670000     -7.8047480E-29
   3.680000     -8.0329352E-29
   3.690000     -8.2256949E-29
   3.700000     -8.3787504E-29
   3.710000     -8.4877285E-29
   3.720000     -8.5481739E-29
   3.730000     -8.5555652E-29
   3.740000     -8.5053388E-29
   3.750000     -8.3928994E-29
   3.760000     -8.2136476E-29
   3.770000     -7.9629993E-29
   3.780000     -7.6364067E-29
   3.790000     -7.2293879E-29
   3.800000     -6.7375511E-29
   3.810000     -6.1566239E-29
   3.820000     -5.4824834E-29
   3.830000     -4.7111975E-29
   3.840000     -3.8390510E-29
   3.850000     -2.8625945E-29
   3.860000     -1.7786828E-29
   3.870000     -5.8451872E-30
   3.880000      7.2229497E-30
   3.890000      2.1437034E-29
   3.900000      3.6811512E-29
   3.910000      5.3355295E-29
   3.920000      7.1071118E-29
   3.930000      8.9955072E-29
   3.940000      1.0999599E-28
   3.950000      1.3117486E-28
   3.960000      1.5346424E-28
   3.970000      1.7682775E-28
   3.980000      2.0121969E-28
   3.990000      2.2658433E-28
   4.000000      2.5285551E-28
   4.010000      2.7995621E-28
   4.020000      3.0779815E-28
   4.030000      3.3628148E-28
   4.040000      3.6529448E-28
   4.050000      3.9471306E-28
   4.060000      4.2440076E-28
   4.070000      4.5420833E-28
   4.080000      4.8397377E-28
   4.090000      5.1352187E-28
   4.100000      5.4266442E-28
   4.110000      5.7119981E-28
   4.120000      5.9891337E-28
   4.130000      6.2557686E-28
   4.140000      6.5094887E-28
   4.150000      6.7477469E-28
   4.160000      6.9678653E-28
   4.170000      7.1670368E-28
   4.180000      7.3423262E-28
   4.190000      7.4906734E-28
   4.200000      7.6088966E-28
   4.210000      7.6937006E-28
   4.220000      7.7416789E-28
   4.230000      7.7493210E-28
   4.240000      7.7130220E-28
   4.250000      7.6290929E-28
   4.260000      7.4937693E-28
   4.270000      7.3032294E-28
   4.280000      7.0536043E-28
   4.290000      6.7409946E-28
   4.300000      6.3614891E-28
   4.310000      5.9111850E-28
   4.320000      5.3862059E-28
   4.330000      4.7827268E-28
   4.340000      4.0969961E-28
   4.350000      3.3253629E-28
   4.360000      2.4643066E-28
   4.370000      1.5104577E-28
   4.380000      4.6062644E-29
   4.390000     -6.8816185E-29
   4.400000     -1.9386351E-28
   4.410000     -3.2932531E-28
   4.420000     -4.7541711E-28
   4.430000     -6.3232069E-28
   4.440000     -8.0018080E-28
   4.450000     -9.7910118E-28
   4.460000     -1.1691422E-27
   4.470000     -1.3703169E-27
   4.480000     -1.5825867E-27
   4.490000     -1.8058588E-27
   4.500000     -2.0399814E-27
   4.510000     -2.2847409E-27
   4.520000     -2.5398569E-27
   4.530000     -2.8049787E-27
   4.540000     -3.0796810E-27
   4.550000     -3.3634598E-27
   4.560000     -3.6557274E-27
   4.570000     -3.9558093E-27
   4.580000     -4.2629381E-27
   4.590000     -4.5762518E-27
   4.600000     -4.8947868E-27
   4.610000     -5.2174760E-27
   4.620000     -5.5431430E-27
   4.630000     -5.8705002E-27
   4.640000     -6.1981441E-27
   4.650000     -6.5245507E-27
   4.660000     -6.8480753E-27
   4.670000     -7.1669477E-27
   4.680000     -7.4792719E-27
   4.690000     -7.7830234E-27
   4.700000     -8.0760490E-27
   4.710000     -8.3560646E-27
   4.720000     -8.6206573E-27
   4.730000     -8.8672842E-27
   4.740000     -9.0932736E-27
   4.750000     -9.2958267E-27
   4.760000     -9.4720247E-27
   4.770000     -9.6188229E-27
   4.780000     -9.7330637E-27
   4.790000     -9.8114752E-27
   4.800000     -9.8506756E-27
   4.810000     -9.8471820E-27
   4.820000     -9.7974182E-27
   4.830000     -9.6977167E-27
   4.840000     -9.5443318E-27
   4.850000     -9.3334455E-27
   4.860000     -9.0611791E-27
   4.870000     -8.7236006E-27
   4.880000     -8.3167417E-27
   4.890000     -7.8366120E-27
   4.900000     -7.2792048E-27
   4.910000     -6.6405163E-27
   4.920000     -5.9165689E-27
   4.930000     -5.1034205E-27
   4.940000     -4.1971872E-27
   4.950000     -3.1940708E-27
   4.960000     -2.0903745E-27
   4.970000     -8.8252100E-28
   4.980000      4.3290432E-28
   4.990000      1.8591354E-27
   5.000000      3.3992016E-27
   5.010000      5.0558939E-27
   5.020000      6.8317226E-27
   5.030000      8.7288954E-27
   5.040000      1.0749288E-26
   5.050000      1.2894394E-26
   5.060000      1.5165296E-26
   5.070000      1.7562637E-26
   5.080000      2.0086563E-26
   5.090000      2.2736698E-26
   5.100000      2.5512098E-26
   5.110000      2.8411217E-26
   5.120000      3.1431864E-26
   5.130000      3.4571151E-26
   5.140000      3.7825464E-26
   5.150000      4.1190421E-26
   5.160000      4.4660824E-26
   5.170000      4.8230617E-26
   5.180000      5.1892848E-26
   5.190000      5.5639623E-26
   5.200000      5.9462079E-26
   5.210000      6.3350338E-26
   5.220000      6.7293447E-26
   5.230000      7.1279351E-26
   5.240000      7.5294875E-26
   5.250000      7.9325652E-26
   5.260000      8.3356109E-26
   5.270000      8.7369439E-26
   5.280000      9.1347535E-26
   5.290000      9.5271015E-26
   5.300000      9.9119152E-26
   5.310000      1.0286988E-25
   5.320000      1.0649977E-25
   5.330000      1.0998401E-25
   5.340000      1.1329639E-25
   5.350000      1.1640929E-25
   5.360000      1.1929376E-25
   5.370000      1.2191943E-25
   5.380000      1.2425457E-25
   5.390000      1.2626611E-25
   5.400000      1.2791971E-25
   5.410000      1.2917973E-25
   5.420000      1.3000931E-25
   5.430000      1.3037042E-25
   5.440000      1.3022395E-25
   5.450000      1.2952979E-25
   5.460000      1.2824683E-25
   5.470000      1.2633317E-25
   5.480000      1.2374613E-25
   5.490000      1.2044244E-25
   5.500000      1.1637830E-25
   5.510000      1.1150957E-25
   5.520000      1.0579187E-25
   5.530000      9.9180751E-26
   5.540000      9.1631926E-26
   5.550000      8.3101356E-26
   5.560000      7.3545515E-26
   5.570000      6.2921567E-26
   5.580000      5.1187628E-26
   5.590000      3.8302904E-26
   5.600000      2.4228126E-26
   5.610000      8.9256322E-27
   5.620000     -7.6403551E-27
   5.630000     -2.5503249E-26
   5.640000     -4.4694015E-26
   5.650000     -6.5240664E-26
   5.660000     -8.7167990E-26
   5.670000     -1.1049737E-25
   5.680000     -1.3524621E-25
   5.690000     -1.6142764E-25
   5.700000     -1.8905017E-25
   5.710000     -2.1811728E-25
   5.720000     -2.4862694E-25
   5.730000     -2.8057122E-25
   5.740000     -3.1393602E-25
   5.750000     -3.4870048E-25
   5.760000     -3.8483655E-25
   5.770000     -4.2230880E-25
   5.780000     -4.6107367E-25
   5.790000     -5.0107937E-25
   5.800000     -5.4226520E-25
   5.810000     -5.8456117E-25
   5.820000     -6.2788748E-25
   5.830000     -6.7215455E-25
   5.840000     -7.1726231E-25
   5.850000     -7.6309962E-25
   5.860000     -8.0954415E-25
   5.870000     -8.5646195E-25
   5.880000     -9.0370722E-25
   5.890000     -9.5112190E-25
   5.900000     -9.9853540E-25
   5.910000     -1.0457643E-24
   5.920000     -1.0926122E-24
   5.930000     -1.1388693E-24
   5.940000     -1.1843123E-24
   5.950000     -1.2287047E-24
   5.960000     -1.2717956E-24
   5.970000     -1.3133212E-24
   5.980000     -1.3530034E-24
   5.990000     -1.3905510E-24
   6.000000     -1.4256585E-24
   6.010000     -1.4580076E-24
   6.020000     -1.4872667E-24
   6.030000     -1.5130914E-24
   6.040000     -1.5351248E-24
   6.050000     -1.5529980E-24
   6.060000     -1.5663310E-24
   6.070000     -1.5747323E-24
   6.080000     -1.5778009E-24
   6.090000     -1.5751259E-24
   6.100000     -1.5662888E-24
   6.110000     -1.5508634E-24
   6.120000     -1.5284170E-24
   6.130000     -1.4985118E-24
   6.140000     -1.4607063E-24
   6.150000     -1.4145566E-24
   6.160000     -1.3596177E-24
   6.170000     -1.2954460E-24
   6.180000     -1.2215993E-24
   6.190000     -1.1376402E-24
   6.200000     -1.0431377E-24
   6.210000     -9.3766936E-25
   6.220000     -8.2082244E-25
   6.230000     -6.9219759E-25
   6.240000     -5.5141072E-25
   6.250000     -3.9809474E-25
   6.260000     -2.3190363E-25
   6.270000     -5.2514390E-26
   6.280000      1.4037029E-25
   6.290000      3.4701856E-25
   6.300000      5.6766781E-25
   6.310000      8.0251944E-25
   6.320000      1.0517370E-24
   6.330000      1.3154428E-24
   6.340000      1.5937140E-24
   6.350000      1.8865792E-24
   6.360000      2.1940158E-24
   6.370000      2.5159454E-24
   6.380000      2.8522305E-24
   6.390000      3.2026709E-24
   6.400000      3.5670010E-24
   6.410000      3.9448859E-24
   6.420000      4.3359164E-24
   6.430000      4.7396061E-24
   6.440000      5.1553890E-24
   6.450000      5.5826144E-24
   6.460000      6.0205446E-24
   6.470000      6.4683518E-24
   6.480000      6.9251125E-24
   6.490000      7.3898076E-24
   6.500000      7.8613168E-24
   6.510000      8.3384183E-24
   6.520000      8.8197844E-24
   6.530000      9.3039801E-24
   6.540000      9.7894609E-24
   6.550000      1.0274569E-23
   6.560000      1.0757536E-23
   6.570000      1.1236476E-23
   6.580000      1.1709388E-23
   6.590000      1.2174157E-23
   6.600000      1.2628551E-23
   6.610000      1.3070220E-23
   6.620000      1.3496700E-23
   6.630000      1.3905414E-23
   6.640000      1.4293669E-23
   6.650000      1.4658665E-23
   6.660000      1.4997494E-23
   6.670000      1.5307139E-23
   6.680000      1.5584484E-23
   6.690000      1.5826315E-23
   6.700000      1.6029330E-23
   6.710000      1.6190136E-23
   6.720000      1.6305264E-23
   6.730000      1.6371164E-23
   6.740000      1.6384231E-23
   6.750000      1.6340796E-23
   6.760000      1.6237146E-23
   6.770000      1.6069532E-23
   6.780000      1.5834171E-23
   6.790000      1.5527272E-23
   6.800000      1.5145047E-23
   6.810000      1.4683705E-23
   6.820000      1.4139489E-23
   6.830000      1.3508673E-23
   6.840000      1.2787591E-23
   6.850000      1.1972651E-23
   6.860000      1.1060354E-23
   6.870000      1.0047295E-23
   6.880000      8.9301965E-24
   6.890000      7.7059357E-24
   6.900000      6.3715546E-24
   6.910000      4.9242800E-24
   6.920000      3.3615410E-24
   6.930000      1.6809987E-24
   6.940000     -1.1942290E-25
   6.950000     -2.0415294E-24
   6.960000     -4.0868312E-24
   6.970000     -6.2564992E-24
   6.980000     -8.5513556E-24
   6.990000     -1.0971845E-23
   7.000000     -1.3518023E-23
   7.010000     -1.6189513E-23
   7.020000     -1.8985473E-23
   7.030000     -2.1904583E-23
   7.040000     -2.4945030E-23
   7.050000     -2.8104476E-23
   7.060000     -3.1380013E-23