  -2.600000      0.0000000E+00
  -2.590000      0.0000000E+00
  -2.580000      0.0000000E+00
  -2.570000      0.0000000E+00
  -2.560000      0.0000000E+00
  -2.550000      0.0000000E+00
  -2.540000      0.0000000E+00
  -2.530000      0.0000000E+00
  -2.520000      0.0000000E+00
  -2.510000      0.0000000E+00
  -2.500000      0.0000000E+00
  -2.490000      0.0000000E+00
  -2.480000      0.0000000E+00
  -2.470000      0.0000000E+00
  -2.460000      0.0000000E+00
  -2.450000      0.0000000E+00
  -2.440000      0.0000000E+00
  -2.430000      0.0000000E+00
  -2.420000      0.0000000E+00
  -2.410000      0.0000000E+00
  -2.400000      0.0000000E+00
  -2.390000      0.0000000E+00
  -2.380000      0.0000000E+00
  -2.370000      0.0000000E+00
  -2.360000      0.0000000E+00
  -2.350000      0.0000000E+00
  -2.340000      0.0000000E+00
  -2.330000      0.0000000E+00
  -2.320000      0.0000000E+00
  -2.310000      0.0000000E+00
  -2.300000      0.0000000E+00
  -2.290000      0.0000000E+00
  -2.280000      0.0000000E+00
  -2.270000      0.0000000E+00
  -2.260000      0.0000000E+00
  -2.250000      0.0000000E+00
  -2.240000      0.0000000E+00
  -2.230000      0.0000000E+00
  -2.220000      0.0000000E+00
  -2.210000      0.0000000E+00
  -2.200000      0.0000000E+00
  -2.190000      0.0000000E+00
  -2.180000      0.0000000E+00
  -2.170000      0.0000000E+00
  -2.160000      0.0000000E+00
  -2.150000      0.0000000E+00
  -2.140000      0.0000000E+00
  -2.130000      0.0000000E+00
  -2.120000      0.0000000E+00
  -2.110000      0.0000000E+00
  -2.100000      0.0000000E+00
  -2.090000      0.0000000E+00
  -2.080000      0.0000000E+00
  -2.070000      0.0000000E+00
  -2.060000      0.0000000E+00
  -2.050000      0.0000000E+00
  -2.040000      0.0000000E+00
  -2.030000      0.0000000E+00
  -2.020000      0.0000000E+00
  -2.010000      0.0000000E+00
  -2.000000      0.0000000E+00
  -1.990000      0.0000000E+00
  -1.980000      0.0000000E+00
  -1.970000      0.0000000E+00
  -1.960000      0.0000000E+00
  -1.950000      0.0000000E+00
  -1.940000      0.0000000E+00
  -1.930000      0.0000000E+00
  -1.920000      0.0000000E+00
  -1.910000      0.0000000E+00
  -1.900000      0.0000000E+00
  -1.890000      0.0000000E+00
  -1.880000      0.0000000E+00
  -1.870000      0.0000000E+00
  -1.860000      0.0000000E+00
  -1.850000      0.0000000E+00
  -1.840000      0.0000000E+00
  -1.830000      0.0000000E+00
  -1.820000      0.0000000E+00
  -1.810000      0.0000000E+00
  -1.800000      0.0000000E+00
  -1.790000      0.0000000E+00
  -1.780000      0.0000000E+00
  -1.770000      0.0000000E+00
  -1.760000      0.0000000E+00
  -1.750000      0.0000000E+00
  -1.740000      0.0000000E+00
  -1.730000      0.0000000E+00
  -1.720000      0.0000000E+00
  -1.710000      0.0000000E+00
  -1.700000      0.0000000E+00
  -1.690000      0.0000000E+00
  -1.680000      0.0000000E+00
  -1.670000      0.0000000E+00
  -1.660000      0.0000000E+00
  -1.650000      0.0000000E+00
  -1.640000      0.0000000E+00
  -1.630000      0.0000000E+00
  -1.620000      0.0000000E+00
  -1.610000      0.0000000E+00
  -1.600000      0.0000000E+00
  -1.590000      0.0000000E+00
  -1.580000      0.0000000E+00
  -1.570000      0.0000000E+00
  -1.560000      0.0000000E+00
  -1.550000      0.0000000E+00
  -1.540000      0.0000000E+00
  -1.530000      0.0000000E+00
  -1.520000      0.0000000E+00
  -1.510000      0.0000000E+00
  -1.500000      0.0000000E+00
  -1.490000      0.0000000E+00
  -1.480000      0.0000000E+00
  -1.470000      0.0000000E+00
  -1.460000      0.0000000E+00
  -1.450000      0.0000000E+00
  -1.440000      0.0000000E+00
  -1.430000      0.0000000E+00
  -1.420000      0.0000000E+00
  -1.410000      0.0000000E+00
  -1.400000      0.0000000E+00
  -1.390000      0.0000000E+00
  -1.380000      0.0000000E+00
  -1.370000      0.0000000E+00
  -1.360000      0.0000000E+00
  -1.350000      0.0000000E+00
  -1.340000      0.0000000E+00
  -1.330000      0.0000000E+00
  -1.320000      0.0000000E+00
  -1.310000      0.0000000E+00
  -1.300000      0.0000000E+00
  -1.290000      0.0000000E+00
  -1.280000     -1.2458276E-38
  -1.270000     -1.5012811E-38
  -1.260000     -1.8122161E-38
  -1.250000     -2.2376535E-38
  -1.240000     -2.6575796E-38
  -1.230000     -2.5980253E-38
  -1.220000     -1.8202483E-38
  -1.210000      0.0000000E+00
  -1.200000      2.5368211E-38
  -1.190000      6.2797072E-38
  -1.180000      1.1512766E-37
  -1.170000      1.8149587E-37
  -1.160000      2.5797454E-37
  -1.150000      3.4256671E-37
  -1.140000      4.1207367E-37
  -1.130000      4.3713714E-37
  -1.120000      4.0775391E-37
  -1.110000      3.1732610E-37
  -1.100000      1.5210088E-37
  -1.090000     -9.6867413E-38
  -1.080000     -4.3008213E-37
  -1.070000     -8.5450875E-37
  -1.060000     -1.3681601E-36
  -1.050000     -1.9714771E-36
  -1.040000     -2.6336567E-36
  -1.030000     -3.3379150E-36
  -1.020000     -3.9982682E-36
  -1.010000     -4.4747559E-36
  -1.000000     -4.7234992E-36
 -0.9900000     -4.6304146E-36
 -0.9800000     -4.0721219E-36
 -0.9700000     -2.8355187E-36
 -0.9600000     -6.6361182E-37
 -0.9500000      2.4941224E-36
 -0.9400000      6.7215304E-36
 -0.9300000      1.2000349E-35
 -0.9200000      1.8099340E-35
 -0.9100000      2.4519437E-35
 -0.9000000      3.0899562E-35
 -0.8900000      3.7100846E-35
 -0.8800000      4.2176812E-35
 -0.8700000      4.5105391E-35
 -0.8600000      4.5350658E-35
 -0.8500000      4.2168042E-35
 -0.8400000      3.4800505E-35
 -0.8300000      2.2312372E-35
 -0.8200000      3.8585394E-36
 -0.8100000     -2.0954009E-35
 -0.8000000     -5.2550050E-35
 -0.7900000     -9.1139027E-35
 -0.7800000     -1.3588004E-34
 -0.7700000     -1.8521158E-34
 -0.7600000     -2.3685167E-34
 -0.7500000     -2.8645023E-34
 -0.7400000     -3.3015540E-34
 -0.7300000     -3.6364425E-34
 -0.7200000     -3.8027766E-34
 -0.7100000     -3.7338377E-34
 -0.7000000     -3.3578008E-34
 -0.6900000     -2.5979061E-34
 -0.6800000     -1.3916758E-34
 -0.6700000      2.9294622E-35
 -0.6600000      2.4791562E-34
 -0.6500000      5.1297444E-34
 -0.6400000      8.2079407E-34
 -0.6300000      1.1651935E-33
 -0.6200000      1.5325219E-33
 -0.6100000      1.9051711E-33
 -0.6000000      2.2543965E-33
 -0.5900000      2.5470773E-33
 -0.5800000      2.7506663E-33
 -0.5700000      2.8265291E-33
 -0.5600000      2.7265847E-33
 -0.5500000      2.4042810E-33
 -0.5400000      1.8184378E-33
 -0.5300000      9.3284826E-34
 -0.5200000     -2.7840491E-34
 -0.5100000     -1.8257618E-33
 -0.5000000     -3.6979925E-33
 -0.4900000     -5.8605130E-33
 -0.4800000     -8.2505017E-33
 -0.4700000     -1.0771479E-32
 -0.4600000     -1.3291882E-32
 -0.4500000     -1.5642994E-32
 -0.4400000     -1.7625834E-32
 -0.4300000     -1.9010258E-32
 -0.4200000     -1.9540703E-32
 -0.4100000     -1.8952207E-32
 -0.4000000     -1.6980028E-32
 -0.3900000     -1.3378698E-32
 -0.3800000     -7.9429909E-33
 -0.3700000     -5.3057182E-34
 -0.3600000      8.9132087E-33
 -0.3500000      2.0329102E-32
 -0.3400000      3.3519509E-32
 -0.3300000      4.8126708E-32
 -0.3200000      6.3614428E-32
 -0.3100000      7.9256719E-32
 -0.3000000      9.4135486E-32
 -0.2900000      1.0714994E-31
 -0.2800000      1.1703731E-31
 -0.2700000      1.2240832E-31
 -0.2600000      1.2180030E-31
 -0.2500000      1.1374514E-31
 -0.2400000      9.6853170E-32
 -0.2300000      6.9911757E-32
 -0.2200000      3.1995831E-32
 -0.2100000     -1.7413648E-32
 -0.2000000     -7.8307284E-32
 -0.1900000     -1.5002813E-31
 -0.1800000     -2.3116292E-31
 -0.1700000     -3.1945119E-31
 -0.1600000     -4.1172212E-31
 -0.1500000     -5.0386719E-31
 -0.1400000     -5.9085833E-31
 -0.1300000     -6.6681948E-31
 -0.1200000     -7.2515819E-31
 -0.1100000     -7.5876228E-31
 -0.1000000     -7.6026480E-31
 -9.0000004E-02 -7.2237589E-31
 -7.9999998E-02 -6.3827679E-31
 -7.0000000E-02 -5.0206929E-31
 -5.9999999E-02 -3.0926612E-31
 -5.0000001E-02 -5.7305967E-32
 -3.9999999E-02  2.5392874E-31
 -2.9999999E-02  6.2161679E-31
 -2.0000000E-02  1.0395553E-30
 -9.9999998E-03  1.4978002E-30
 -3.4694470E-17  1.9824250E-30
  9.9999998E-03  2.4754286E-30
  2.0000000E-02  2.9548281E-30
  2.9999999E-02  3.3949639E-30
  3.9999999E-02  3.7670388E-30
  5.0000001E-02  4.0399183E-30
  5.9999999E-02  4.1811939E-30
  7.0000000E-02  4.1585127E-30
  7.9999998E-02  3.9411704E-30
  9.0000004E-02  3.5019342E-30
  0.1000000      2.8190783E-30
  0.1100000      1.8785752E-30
  0.1200000      6.7639990E-31
  0.1300000     -7.7912480E-31
  0.1400000     -2.4650083E-30
  0.1500000     -4.3413700E-30
  0.1600000     -6.3493983E-30
  0.1700000     -8.4095535E-30
  0.1800000     -1.0420106E-29
  0.1900000     -1.2256053E-29
  0.2000000     -1.3768466E-29
  0.2100000     -1.4784308E-29
  0.2200000     -1.5106757E-29
  0.2300000     -1.4515988E-29
  0.2400000     -1.2770465E-29
  0.2500000     -9.6086262E-30
  0.2600000     -4.7509750E-30
  0.2700000      2.0975215E-30
  0.2800000      1.1244807E-29
  0.2900000      2.3008941E-29
  0.3000000      3.7715263E-29
  0.3100000      5.5693585E-29
  0.3200000      7.7275393E-29
  0.3300000      1.0279125E-28
  0.3400000      1.3256837E-28
  0.3500000      1.6692822E-28
  0.3600000      2.0618445E-28
  0.3700000      2.5064076E-28
  0.3800000      3.0058877E-28
  0.3900000      3.5630580E-28
  0.4000000      4.1805251E-28
  0.4100000      4.8607000E-28
  0.4200000      5.6057653E-28
  0.4300000      6.4176353E-28
  0.4400000      7.2979090E-28
  0.4500000      8.2478171E-28
  0.4600000      9.2681613E-28
  0.4700000      1.0359244E-27
  0.4800000      1.1520793E-27
  0.4900000      1.2751889E-27
  0.5000000      1.4050888E-27
  0.5100000      1.5415341E-27
  0.5200000      1.6841932E-27
  0.5300000      1.8326425E-27
  0.5400000      1.9863633E-27
  0.5500000      2.1447402E-27
  0.5600000      2.3070630E-27
  0.5700000      2.4725320E-27
  0.5800000      2.6402674E-27
  0.5900000      2.8093224E-27
  0.6000000      2.9787008E-27
  0.6100000      3.1473778E-27
  0.6200000      3.3143263E-27
  0.6300000      3.4785473E-27
  0.6400000      3.6391001E-27
  0.6500000      3.7951366E-27
  0.6600000      3.9459400E-27
  0.6700000      4.0909572E-27
  0.6800000      4.2298325E-27
  0.6900000      4.3624416E-27
  0.7000000      4.4889159E-27
  0.7100000      4.6096683E-27
  0.7200000      4.7254070E-27
  0.7300000      4.8371429E-27
  0.7400000      4.9461929E-27
  0.7500000      5.0541694E-27
  0.7600000      5.1629675E-27
  0.7700000      5.2747385E-27
  0.7800000      5.3918627E-27
  0.7900000      5.5169122E-27
  0.8000000      5.6526109E-27
  0.8100000      5.8017908E-27
  0.8200000      5.9673553E-27
  0.8300000      6.1522376E-27
  0.8400000      6.3593629E-27
  0.8500000      6.5916254E-27
  0.8600000      6.8518679E-27
  0.8700000      7.1428682E-27
  0.8800000      7.4673419E-27
  0.8900000      7.8279530E-27
  0.9000000      8.2273370E-27
  0.9100000      8.6681307E-27
  0.9200000      9.1530113E-27
  0.9300000      9.6847359E-27
  0.9400000      1.0266195E-26
  0.9500000      1.0900440E-26
  0.9600000      1.1590724E-26
  0.9700000      1.2340532E-26
  0.9800000      1.3153588E-26
  0.9900000      1.4033843E-26
   1.000000      1.4985453E-26
   1.010000      1.6012736E-26
   1.020000      1.7120086E-26
   1.030000      1.8311877E-26
   1.040000      1.9592353E-26
   1.050000      2.0965501E-26
   1.060000      2.2434878E-26
   1.070000      2.4003466E-26
   1.080000      2.5673512E-26
   1.090000      2.7446381E-26
   1.100000      2.9322397E-26
   1.110000      3.1300753E-26
   1.120000      3.3379414E-26
   1.130000      3.5555070E-26
   1.140000      3.7823092E-26
   1.150000      4.0177580E-26
   1.160000      4.2611447E-26
   1.170000      4.5116573E-26
   1.180000      4.7683921E-26
   1.190000      5.0303749E-26
   1.200000      5.2965828E-26
   1.210000      5.5659714E-26
   1.220000      5.8374980E-26
   1.230000      6.1101419E-26
   1.240000      6.3829263E-26
   1.250000      6.6549403E-26
   1.260000      6.9253489E-26
   1.270000      7.1933970E-26
   1.280000      7.4584075E-26
   1.290000      7.7197805E-26
   1.300000      7.9769732E-26
   1.310000      8.2294771E-26
   1.320000      8.4767850E-26
   1.330000      8.7183662E-26
   1.340000      8.9536175E-26
   1.350000      9.1818276E-26
   1.360000      9.4021392E-26
   1.370000      9.6135027E-26
   1.380000      9.8146524E-26
   1.390000      1.0004080E-25
   1.400000      1.0180018E-25
   1.410000      1.0340431E-25
   1.420000      1.0483026E-25
   1.430000      1.0605278E-25
   1.440000      1.0704452E-25
   1.450000      1.0777648E-25
   1.460000      1.0821864E-25
   1.470000      1.0834046E-25
   1.480000      1.0811156E-25
   1.490000      1.0750243E-25
   1.500000      1.0648499E-25
   1.510000      1.0503329E-25
   1.520000      1.0312392E-25
   1.530000      1.0073613E-25
   1.540000      9.7852254E-26
   1.550000      9.4457576E-26
   1.560000      9.0539803E-26
   1.570000      8.6088890E-26
   1.580000      8.1096201E-26
   1.590000      7.5553332E-26
   1.600000      6.9451413E-26
   1.610000      6.2779702E-26
   1.620000      5.5524258E-26
   1.630000      4.7666874E-26
   1.640000      3.9183806E-26
   1.650000      3.0044535E-26
   1.660000      2.0211032E-26
   1.670000      9.6373742E-27
   1.680000     -1.7308107E-27
   1.690000     -1.3956083E-26
   1.700000     -2.7108564E-26
   1.710000     -4.1265342E-26
   1.720000     -5.6509145E-26
   1.730000     -7.2926906E-26
   1.740000     -9.0607916E-26
   1.750000     -1.0964139E-25
   1.760000     -1.3011488E-25
   1.770000     -1.5211223E-25
   1.780000     -1.7571132E-25
   1.790000     -2.0098268E-25
   1.800000     -2.2798758E-25
   1.810000     -2.5677780E-25
   1.820000     -2.8739522E-25
   1.830000     -3.1987139E-25
   1.840000     -3.5422857E-25
   1.850000     -3.9048132E-25
   1.860000     -4.2863842E-25
   1.870000     -4.6870471E-25
   1.880000     -5.1068459E-25
   1.890000     -5.5458465E-25
   1.900000     -6.0041663E-25
   1.910000     -6.4820020E-25
   1.920000     -6.9796594E-25
   1.930000     -7.4975806E-25
   1.940000     -8.0363489E-25
   1.950000     -8.5967005E-25
   1.960000     -9.1795296E-25
   1.970000     -9.7858708E-25
   1.980000     -1.0416887E-24
   1.990000     -1.1073833E-24
   2.000000     -1.1758022E-24
   2.010000     -1.2470780E-24
   2.020000     -1.3213396E-24
   2.030000     -1.3987071E-24
   2.040000     -1.4792860E-24
   2.050000     -1.5631629E-24
   2.060000     -1.6503999E-24
   2.070000     -1.7410312E-24
   2.080000     -1.8350607E-24
   2.090000     -1.9324597E-24
   2.100000     -2.0331679E-24
   2.110000     -2.1370924E-24
   2.120000     -2.2441123E-24
   2.130000     -2.3540814E-24
   2.140000     -2.4668341E-24
   2.150000     -2.5821914E-24
   2.160000     -2.6999670E-24
   2.170000     -2.8199740E-24
   2.180000     -2.9420329E-24
   2.190000     -3.0659765E-24
   2.200000     -3.1916559E-24
   2.210000     -3.3189437E-24
   2.220000     -3.4477363E-24
   2.230000     -3.5779536E-24
   2.240000     -3.7095364E-24
   2.250000     -3.8424437E-24
   2.260000     -3.9766423E-24
   2.270000     -4.1121023E-24
   2.280000     -4.2487839E-24
   2.290000     -4.3866251E-24
   2.300000     -4.5255313E-24
   2.310000     -4.6653605E-24
   2.320000     -4.8059110E-24
   2.330000     -4.9469108E-24
   2.340000     -5.0880077E-24
   2.350000     -5.2287610E-24
   2.360000     -5.3686386E-24
   2.370000     -5.5070135E-24
   2.380000     -5.6431666E-24
   2.390000     -5.7762920E-24
   2.400000     -5.9055074E-24
   2.410000     -6.0298638E-24
   2.420000     -6.1483602E-24
   2.430000     -6.2599596E-24
   2.440000     -6.3636060E-24
   2.450000     -6.4582437E-24
   2.460000     -6.5428313E-24
   2.470000     -6.6163571E-24
   2.480000     -6.6778519E-24
   2.490000     -6.7264000E-24
   2.500000     -6.7611375E-24
   2.510000     -6.7812605E-24
   2.520000     -6.7860166E-24
   2.530000     -6.7746956E-24
   2.540000     -6.7466201E-24
   2.550000     -6.7011241E-24
   2.560000     -6.6375356E-24
   2.570000     -6.5551572E-24
   2.580000     -6.4532435E-24
   2.590000     -6.3309780E-24
   2.600000     -6.1874589E-24
   2.610000     -6.0216822E-24
   2.620000     -5.8325330E-24
   2.630000     -5.6187841E-24
   2.640000     -5.3790958E-24
   2.650000     -5.1120324E-24
   2.660000     -4.8160763E-24
   2.670000     -4.4896579E-24
   2.680000     -4.1311892E-24
   2.690000     -3.7391009E-24
   2.700000     -3.3118893E-24
   2.710000     -2.8481598E-24
   2.720000     -2.3466774E-24
   2.730000     -1.8064122E-24
   2.740000     -1.2265824E-24
   2.750000     -6.0669187E-25
   2.760000      5.3435071E-26
   2.770000      7.5363274E-25
   2.780000      1.4933805E-24
   2.790000      2.2717981E-24
   2.800000      3.0876535E-24
   2.810000      3.9393777E-24
   2.820000      4.8250894E-24
   2.830000      5.7426285E-24
   2.840000      6.6895925E-24
   2.850000      7.6633759E-24
   2.860000      8.6612115E-24
   2.870000      9.6802068E-24
   2.880000      1.0717374E-23
   2.890000      1.1769652E-23
   2.900000      1.2833927E-23
   2.910000      1.3907025E-23
   2.920000      1.4985703E-23
   2.930000      1.6066623E-23
   2.940000      1.7146319E-23
   2.950000      1.8221133E-23
   2.960000      1.9287160E-23
   2.970000      2.0340187E-23
   2.980000      2.1375609E-23
   2.990000      2.2388358E-23
   3.000000      2.3372841E-23
   3.010000      2.4322866E-23
   3.020000      2.5231602E-23
   3.030000      2.6091535E-23
   3.040000      2.6894458E-23
   3.050000      2.7631478E-23
   3.060000      2.8293036E-23
   3.070000      2.8868968E-23
   3.080000      2.9348567E-23
   3.090000      2.9720694E-23
   3.100000      2.9973874E-23
   3.110000      3.0096426E-23
   3.120000      3.0076616E-23
   3.130000      2.9902779E-23
   3.140000      2.9563468E-23
   3.150000      2.9047597E-23
   3.160000      2.8344561E-23
   3.170000      2.7444345E-23
   3.180000      2.6337614E-23
   3.190000      2.5015786E-23
   3.200000      2.3471073E-23
   3.210000      2.1696513E-23
   3.220000      1.9685954E-23
   3.230000      1.7434055E-23
   3.240000      1.4936237E-23
   3.250000      1.2188658E-23
   3.260000      9.1881635E-24
   3.270000      5.9322486E-24
   3.280000      2.4190370E-24
   3.290000     -1.3527334E-24
   3.300000     -5.3836787E-24
   3.310000     -9.6737177E-24
   3.320000     -1.4221990E-23
   3.330000     -1.9026719E-23
   3.340000     -2.4085058E-23
   3.350000     -2.9392853E-23
   3.360000     -3.4944433E-23
   3.370000     -4.0732322E-23
   3.380000     -4.6746935E-23
   3.390000     -5.2976276E-23
   3.400000     -5.9405600E-23
   3.410000     -6.6017138E-23
   3.420000     -7.2789767E-23
   3.430000     -7.9698737E-23
   3.440000     -8.6715478E-23
   3.450000     -9.3807344E-23
   3.460000     -1.0093753E-22
   3.470000     -1.0806492E-22
   3.480000     -1.1514413E-22
   3.490000     -1.2212550E-22
   3.500000     -1.2895512E-22
   3.510000     -1.3557499E-22
   3.520000     -1.4192318E-22
   3.530000     -1.4793403E-22
   3.540000     -1.5353823E-22
   3.550000     -1.5866316E-22
   3.560000     -1.6323303E-22
   3.570000     -1.6716898E-22
   3.580000     -1.7038932E-22
   3.590000     -1.7280959E-22
   3.600000     -1.7434258E-22
   3.610000     -1.7489840E-22
   3.620000     -1.7438451E-22
   3.630000     -1.7270549E-22
   3.640000     -1.6976309E-22
   3.650000     -1.6545606E-22
   3.660000     -1.5968011E-22
   3.670000     -1.5232773E-22
   3.680000     -1.4328819E-22
   3.690000     -1.3244752E-22
   3.700000     -1.1968861E-22
   3.710000     -1.0489131E-22
   3.720000     -8.7932665E-23
   3.730000     -6.8687419E-23
   3.740000     -4.7028375E-23
   3.750000     -2.2827096E-23
   3.760000      4.0453994E-24
   3.770000      3.3717711E-23
   3.780000      6.6317132E-23
   3.790000      1.0196849E-22
   3.800000      1.4079307E-22
   3.810000      1.8290733E-22
   3.820000      2.2842168E-22
   3.830000      2.7743907E-22
   3.840000      3.3005392E-22
   3.850000      3.8635067E-22
   3.860000      4.4640273E-22
   3.870000      5.1027113E-22
   3.880000      5.7800351E-22
   3.890000      6.4963304E-22
   3.900000      7.2517734E-22
   3.910000      8.0463767E-22
   3.920000      8.8799788E-22
   3.930000      9.7522353E-22
   3.940000      1.0662611E-21
   3.950000      1.1610364E-21
   3.960000      1.2594548E-21
   3.970000      1.3613988E-21
   3.980000      1.4667276E-21
   3.990000      1.5752758E-21
   4.000000      1.6868513E-21
   4.010000      1.8012343E-21
   4.020000      1.9181755E-21
   4.030000      2.0373935E-21
   4.040000      2.1585741E-21
   4.050000      2.2813666E-21
   4.060000      2.4053827E-21
   4.070000      2.5301936E-21
   4.080000      2.6553285E-21
   4.090000      2.7802712E-21
   4.100000      2.9044587E-21
   4.110000      3.0272795E-21
   4.120000      3.1480709E-21
   4.130000      3.2661180E-21
   4.140000      3.3806516E-21
   4.150000      3.4908476E-21
   4.160000      3.5958268E-21
   4.170000      3.6946527E-21
   4.180000      3.7863320E-21
   4.190000      3.8698151E-21
   4.200000      3.9439964E-21
   4.210000      4.0077135E-21
   4.220000      4.0597495E-21
   4.230000      4.0988334E-21
   4.240000      4.1236408E-21
   4.250000      4.1327967E-21
   4.260000      4.1248751E-21
   4.270000      4.0984021E-21
   4.280000      4.0518558E-21
   4.290000      3.9836707E-21
   4.300000      3.8922378E-21
   4.310000      3.7759066E-21
   4.320000      3.6329886E-21
   4.330000      3.4617585E-21
   4.340000      3.2604594E-21
   4.350000      3.0273043E-21
   4.360000      2.7604794E-21
   4.370000      2.4581485E-21
   4.380000      2.1184594E-21
   4.390000      1.7395473E-21
   4.400000      1.3195427E-21
   4.410000      8.5657753E-22
   4.420000      3.4879226E-22
   4.430000     -2.0565541E-22
   4.440000     -8.0858091E-22
   4.450000     -1.4617617E-21
   4.460000     -2.1669287E-21
   4.470000     -2.9257522E-21
   4.480000     -3.7398294E-21
   4.490000     -4.6106724E-21
   4.500000     -5.5396944E-21
   4.510000     -6.5281946E-21
   4.520000     -7.5773428E-21
   4.530000     -8.6881647E-21
   4.540000     -9.8615261E-21
   4.550000     -1.1098117E-20
   4.560000     -1.2398433E-20
   4.570000     -1.3762760E-20
   4.580000     -1.5191161E-20
   4.590000     -1.6683449E-20
   4.600000     -1.8239185E-20
   4.610000     -1.9857642E-20
   4.620000     -2.1537801E-20
   4.630000     -2.3278326E-20
   4.640000     -2.5077544E-20
   4.650000     -2.6933430E-20
   4.660000     -2.8843591E-20
   4.670000     -3.0805230E-20
   4.680000     -3.2815147E-20
   4.690000     -3.4869699E-20
   4.700000     -3.6964792E-20
   4.710000     -3.9095855E-20
   4.720000     -4.1257814E-20
   4.730000     -4.3445083E-20
   4.740000     -4.5651533E-20
   4.750000     -4.7870474E-20
   4.760000     -5.0094627E-20
   4.770000     -5.2316114E-20
   4.780000     -5.4526434E-20
   4.790000     -5.6716453E-20
   4.800000     -5.8876377E-20
   4.810000     -6.0995736E-20
   4.820000     -6.3063390E-20
   4.830000     -6.5067481E-20
   4.840000     -6.6995465E-20
   4.850000     -6.8834067E-20
   4.860000     -7.0569318E-20
   4.870000     -7.2186501E-20
   4.880000     -7.3670205E-20
   4.890000     -7.5004285E-20
   4.900000     -7.6171896E-20
   4.910000     -7.7155485E-20
   4.920000     -7.7936815E-20
   4.930000     -7.8496965E-20
   4.940000     -7.8816386E-20
   4.950000     -7.8874857E-20
   4.960000     -7.8651590E-20
   4.970000     -7.8125186E-20
   4.980000     -7.7273714E-20
   4.990000     -7.6074728E-20
   5.000000     -7.4505321E-20
   5.010000     -7.2542176E-20
   5.020000     -7.0161582E-20
   5.030000     -6.7339526E-20
   5.040000     -6.4051723E-20
   5.050000     -6.0273717E-20
   5.060000     -5.5980941E-20
   5.070000     -5.1148784E-20
   5.080000     -4.5752665E-20
   5.090000     -3.9768162E-20
   5.100000     -3.3171086E-20
   5.110000     -2.5937566E-20
   5.120000     -1.8044204E-20
   5.130000     -9.4681662E-21
   5.140000     -1.8730809E-22
   5.150000      9.8197010E-21
   5.160000      2.0573218E-20
   5.170000      3.2092491E-20
   5.180000      4.4395510E-20
   5.190000      5.7498849E-20
   5.200000      7.1417488E-20
   5.210000      8.6164671E-20
   5.220000      1.0175171E-19
   5.230000      1.1818782E-19
   5.240000      1.3547991E-19
   5.250000      1.5363236E-19
   5.260000      1.7264694E-19
   5.270000      1.9252249E-19
   5.280000      2.1325477E-19
   5.290000      2.3483632E-19
   5.300000      2.5725607E-19
   5.310000      2.8049932E-19
   5.320000      3.0454740E-19
   5.330000      3.2937753E-19
   5.340000      3.5496256E-19
   5.350000      3.8127076E-19
   5.360000      4.0826562E-19
   5.370000      4.3590562E-19
   5.380000      4.6414397E-19
   5.390000      4.9292856E-19
   5.400000      5.2220145E-19
   5.410000      5.5189904E-19
   5.420000      5.8195160E-19
   5.430000      6.1228317E-19
   5.440000      6.4281131E-19
   5.450000      6.7344703E-19
   5.460000      7.0409464E-19
   5.470000      7.3465152E-19
   5.480000      7.6500791E-19
   5.490000      7.9504687E-19
   5.500000      8.2464432E-19
   5.510000      8.5366869E-19
   5.520000      8.8198102E-19
   5.530000      9.0943494E-19
   5.540000      9.3587638E-19
   5.550000      9.6114386E-19
   5.560000      9.8506840E-19
   5.570000      1.0074737E-18
   5.580000      1.0281759E-18
   5.590000      1.0469839E-18
   5.600000      1.0636997E-18
   5.610000      1.0781183E-18
   5.620000      1.0900276E-18
   5.630000      1.0992096E-18
   5.640000      1.1054397E-18
   5.650000      1.1084878E-18
   5.660000      1.1081179E-18
   5.670000      1.1040891E-18
   5.680000      1.0961560E-18
   5.690000      1.0840689E-18
   5.700000      1.0675746E-18
   5.710000      1.0464169E-18
   5.720000      1.0203370E-18
   5.730000      9.8907485E-19
   5.740000      9.5236933E-19
   5.750000      9.0995906E-19
   5.760000      8.6158352E-19
   5.770000      8.0698402E-19
   5.780000      7.4590443E-19
   5.790000      6.7809211E-19
   5.800000      6.0329922E-19
   5.810000      5.2128379E-19
   5.820000      4.3181077E-19
   5.830000      3.3465362E-19
   5.840000      2.2959546E-19
   5.850000      1.1642996E-19
   5.860000     -5.0367108E-21
   5.870000     -1.3498445E-19
   5.880000     -2.7357812E-19
   5.890000     -4.2096563E-19
   5.900000     -5.7727648E-19
   5.910000     -7.4261995E-19
   5.920000     -9.1708387E-19
   5.930000     -1.1007321E-18
   5.940000     -1.2936037E-18
   5.950000     -1.4957104E-18
   5.960000     -1.7070352E-18
   5.970000     -1.9275302E-18
   5.980000     -2.1571152E-18
   5.990000     -2.3956753E-18
   6.000000     -2.6430596E-18
   6.010000     -2.8990786E-18
   6.020000     -3.1635030E-18
   6.030000     -3.4360615E-18
   6.040000     -3.7164394E-18
   6.050000     -4.0042751E-18
   6.060000     -4.2991604E-18
   6.070000     -4.6006379E-18
   6.080000     -4.9081994E-18
   6.090000     -5.2212827E-18
   6.100000     -5.5392725E-18
   6.110000     -5.8614978E-18
   6.120000     -6.1872299E-18
   6.130000     -6.5156810E-18
   6.140000     -6.8460044E-18
   6.150000     -7.1772915E-18
   6.160000     -7.5085724E-18
   6.170000     -7.8388135E-18
   6.180000     -8.1669171E-18
   6.190000     -8.4917228E-18
   6.200000     -8.8120030E-18
   6.210000     -9.1264682E-18
   6.220000     -9.4337591E-18
   6.230000     -9.7324574E-18
   6.240000     -1.0021076E-17
   6.250000     -1.0298065E-17
   6.260000     -1.0561810E-17
   6.270000     -1.0810637E-17
   6.280000     -1.1042808E-17
   6.290000     -1.1256528E-17
   6.300000     -1.1449943E-17
   6.310000     -1.1621146E-17
   6.320000     -1.1768178E-17
   6.330000     -1.1889024E-17
   6.340000     -1.1981628E-17
   6.350000     -1.2043888E-17
   6.360000     -1.2073664E-17
   6.370000     -1.2068779E-17
   6.380000     -1.2027027E-17
   6.390000     -1.1946175E-17
   6.400000     -1.1823969E-17
   6.410000     -1.1658141E-17
   6.420000     -1.1446417E-17
   6.430000     -1.1186515E-17
   6.440000     -1.0876160E-17
   6.450000     -1.0513091E-17
   6.460000     -1.0095064E-17
   6.470000     -9.6198657E-18
   6.480000     -9.0853159E-18
   6.490000     -8.4892802E-18
   6.500000     -7.8296806E-18
   6.510000     -7.1044988E-18
   6.520000     -6.3117967E-18
   6.530000     -5.4497169E-18
   6.540000     -4.5164984E-18
   6.550000     -3.5104879E-18
   6.560000     -2.4301499E-18
   6.570000     -1.2740777E-18
   6.580000     -4.1009237E-20
   6.590000      1.2701643E-18
   6.600000      2.6603857E-18
   6.610000      4.1304184E-18
   6.620000      5.6808295E-18
   6.630000      7.3119813E-18
   6.640000      9.0240152E-18
   6.650000      1.0816839E-17
   6.660000      1.2690111E-17
   6.670000      1.4643231E-17
   6.680000      1.6675319E-17
   6.690000      1.8785209E-17
   6.700000      2.0971434E-17
   6.710000      2.3232205E-17
   6.720000      2.5565406E-17
   6.730000      2.7968581E-17
   6.740000      3.0438910E-17
   6.750000      3.2973213E-17
   6.760000      3.5567919E-17
   6.770000      3.8219070E-17
   6.780000      4.0922302E-17
   6.790000      4.3672833E-17
   6.800000      4.6465458E-17
   6.810000      4.9294542E-17
   6.820000      5.2153999E-17
   6.830000      5.5037293E-17
   6.840000      5.7937437E-17
   6.850000      6.0846962E-17
   6.860000      6.3757950E-17
   6.870000      6.6661996E-17
   6.880000      6.9550213E-17
   6.890000      7.2413250E-17
   6.900000      7.5241282E-17
   6.910000      7.8023990E-17
   6.920000      8.0750589E-17
   6.930000      8.3409829E-17
   6.940000      8.5989997E-17
   6.950000      8.8478924E-17
   6.960000      9.0863990E-17
   6.970000      9.3132153E-17
   6.980000      9.5269931E-17
   6.990000      9.7263463E-17
   7.000000      9.9098481E-17
   7.010000      1.0076034E-16
   7.020000      1.0223407E-16
   7.030000      1.0350438E-16
   7.040000      1.0455566E-16
   7.050000      1.0537204E-16
   7.060000      1.0593745E-16