  -2.600000      0.0000000E+00
  -2.590000      0.0000000E+00
  -2.580000      0.0000000E+00
  -2.570000      0.0000000E+00
  -2.560000      0.0000000E+00
  -2.550000      0.0000000E+00
  -2.540000      0.0000000E+00
  -2.530000      0.0000000E+00
  -2.520000      0.0000000E+00
  -2.510000      0.0000000E+00
  -2.500000      0.0000000E+00
  -2.490000      0.0000000E+00
  -2.480000      0.0000000E+00
  -2.470000      0.0000000E+00
  -2.460000      0.0000000E+00
  -2.450000      0.0000000E+00
  -2.440000      0.0000000E+00
  -2.430000      0.0000000E+00
  -2.420000      0.0000000E+00
  -2.410000      0.0000000E+00
  -2.400000      0.0000000E+00
  -2.390000      0.0000000E+00
  -2.380000      0.0000000E+00
  -2.370000      0.0000000E+00
  -2.360000      0.0000000E+00
  -2.350000      0.0000000E+00
  -2.340000      0.0000000E+00
  -2.330000      0.0000000E+00
  -2.320000      0.0000000E+00
  -2.310000      0.0000000E+00
  -2.300000      0.0000000E+00
  -2.290000      0.0000000E+00
  -2.280000      0.0000000E+00
  -2.270000      0.0000000E+00
  -2.260000      0.0000000E+00
  -2.250000      0.0000000E+00
  -2.240000      0.0000000E+00
  -2.230000      0.0000000E+00
  -2.220000      0.0000000E+00
  -2.210000      0.0000000E+00
  -2.200000      0.0000000E+00
  -2.190000      0.0000000E+00
  -2.180000      0.0000000E+00
  -2.170000      0.0000000E+00
  -2.160000      0.0000000E+00
  -2.150000      0.0000000E+00
  -2.140000      0.0000000E+00
  -2.130000      0.0000000E+00
  -2.120000      0.0000000E+00
  -2.110000      0.0000000E+00
  -2.100000      0.0000000E+00
  -2.090000      0.0000000E+00
  -2.080000      0.0000000E+00
  -2.070000      0.0000000E+00
  -2.060000      0.0000000E+00
  -2.050000      0.0000000E+00
  -2.040000      0.0000000E+00
  -2.030000      0.0000000E+00
  -2.020000      0.0000000E+00
  -2.010000      0.0000000E+00
  -2.000000      0.0000000E+00
  -1.990000      0.0000000E+00
  -1.980000      0.0000000E+00
  -1.970000      0.0000000E+00
  -1.960000      0.0000000E+00
  -1.950000      0.0000000E+00
  -1.940000      0.0000000E+00
  -1.930000      0.0000000E+00
  -1.920000      0.0000000E+00
  -1.910000      0.0000000E+00
  -1.900000      0.0000000E+00
  -1.890000      0.0000000E+00
  -1.880000      0.0000000E+00
  -1.870000      0.0000000E+00
  -1.860000      0.0000000E+00
  -1.850000      0.0000000E+00
  -1.840000      0.0000000E+00
  -1.830000      0.0000000E+00
  -1.820000      0.0000000E+00
  -1.810000      0.0000000E+00
  -1.800000      0.0000000E+00
  -1.790000      0.0000000E+00
  -1.780000      0.0000000E+00
  -1.770000      0.0000000E+00
  -1.760000      0.0000000E+00
  -1.750000      0.0000000E+00
  -1.740000      0.0000000E+00
  -1.730000      0.0000000E+00
  -1.720000      0.0000000E+00
  -1.710000      0.0000000E+00
  -1.700000      0.0000000E+00
  -1.690000      0.0000000E+00
  -1.680000      0.0000000E+00
  -1.670000      0.0000000E+00
  -1.660000      0.0000000E+00
  -1.650000      0.0000000E+00
  -1.640000      0.0000000E+00
  -1.630000      0.0000000E+00
  -1.620000      0.0000000E+00
  -1.610000      0.0000000E+00
  -1.600000      0.0000000E+00
  -1.590000      0.0000000E+00
  -1.580000      0.0000000E+00
  -1.570000      0.0000000E+00
  -1.560000      0.0000000E+00
  -1.550000      0.0000000E+00
  -1.540000      0.0000000E+00
  -1.530000      0.0000000E+00
  -1.520000      0.0000000E+00
  -1.510000      0.0000000E+00
  -1.500000      0.0000000E+00
  -1.490000      0.0000000E+00
  -1.480000      0.0000000E+00
  -1.470000      0.0000000E+00
  -1.460000      0.0000000E+00
  -1.450000      0.0000000E+00
  -1.440000      0.0000000E+00
  -1.430000      0.0000000E+00
  -1.420000      0.0000000E+00
  -1.410000      0.0000000E+00
  -1.400000      0.0000000E+00
  -1.390000      0.0000000E+00
  -1.380000      0.0000000E+00
  -1.370000      0.0000000E+00
  -1.360000      0.0000000E+00
  -1.350000      0.0000000E+00
  -1.340000      0.0000000E+00
  -1.330000      0.0000000E+00
  -1.320000      0.0000000E+00
  -1.310000      0.0000000E+00
  -1.300000      0.0000000E+00
  -1.290000      0.0000000E+00
  -1.280000      0.0000000E+00
  -1.270000      0.0000000E+00
  -1.260000      0.0000000E+00
  -1.250000      0.0000000E+00
  -1.240000      0.0000000E+00
  -1.230000      0.0000000E+00
  -1.220000      0.0000000E+00
  -1.210000      0.0000000E+00
  -1.200000      0.0000000E+00
  -1.190000      0.0000000E+00
  -1.180000      0.0000000E+00
  -1.170000      0.0000000E+00
  -1.160000      0.0000000E+00
  -1.150000      0.0000000E+00
  -1.140000      0.0000000E+00
  -1.130000      0.0000000E+00
  -1.120000      0.0000000E+00
  -1.110000      0.0000000E+00
  -1.100000      0.0000000E+00
  -1.090000      0.0000000E+00
  -1.080000      0.0000000E+00
  -1.070000      0.0000000E+00
  -1.060000      0.0000000E+00
  -1.050000      0.0000000E+00
  -1.040000      0.0000000E+00
  -1.030000      0.0000000E+00
  -1.020000      0.0000000E+00
  -1.010000      0.0000000E+00
  -1.000000      0.0000000E+00
 -0.9900000      0.0000000E+00
 -0.9800000      0.0000000E+00
 -0.9700000      0.0000000E+00
 -0.9600000      0.0000000E+00
 -0.9500000      0.0000000E+00
 -0.9400000      0.0000000E+00
 -0.9300000      0.0000000E+00
 -0.9200000      0.0000000E+00
 -0.9100000      0.0000000E+00
 -0.9000000      0.0000000E+00
 -0.8900000      0.0000000E+00
 -0.8800000      0.0000000E+00
 -0.8700000      0.0000000E+00
 -0.8600000      0.0000000E+00
 -0.8500000      0.0000000E+00
 -0.8400000      0.0000000E+00
 -0.8300000      0.0000000E+00
 -0.8200000      0.0000000E+00
 -0.8100000      0.0000000E+00
 -0.8000000      0.0000000E+00
 -0.7900000      0.0000000E+00
 -0.7800000      0.0000000E+00
 -0.7700000      0.0000000E+00
 -0.7600000      0.0000000E+00
 -0.7500000      0.0000000E+00
 -0.7400000      0.0000000E+00
 -0.7300000      0.0000000E+00
 -0.7200000      0.0000000E+00
 -0.7100000      0.0000000E+00
 -0.7000000      0.0000000E+00
 -0.6900000      0.0000000E+00
 -0.6800000      0.0000000E+00
 -0.6700000      0.0000000E+00
 -0.6600000      0.0000000E+00
 -0.6500000      0.0000000E+00
 -0.6400000      0.0000000E+00
 -0.6300000      0.0000000E+00
 -0.6200000      0.0000000E+00
 -0.6100000      0.0000000E+00
 -0.6000000      0.0000000E+00
 -0.5900000      0.0000000E+00
 -0.5800000      0.0000000E+00
 -0.5700000      0.0000000E+00
 -0.5600000      0.0000000E+00
 -0.5500000      0.0000000E+00
 -0.5400000      0.0000000E+00
 -0.5300000      0.0000000E+00
 -0.5200000      0.0000000E+00
 -0.5100000      0.0000000E+00
 -0.5000000      0.0000000E+00
 -0.4900000      0.0000000E+00
 -0.4800000      0.0000000E+00
 -0.4700000      0.0000000E+00
 -0.4600000      0.0000000E+00
 -0.4500000      0.0000000E+00
 -0.4400000      0.0000000E+00
 -0.4300000      0.0000000E+00
 -0.4200000      0.0000000E+00
 -0.4100000      0.0000000E+00
 -0.4000000      0.0000000E+00
 -0.3900000      0.0000000E+00
 -0.3800000      0.0000000E+00
 -0.3700000      0.0000000E+00
 -0.3600000      0.0000000E+00
 -0.3500000      0.0000000E+00
 -0.3400000      0.0000000E+00
 -0.3300000      0.0000000E+00
 -0.3200000      0.0000000E+00
 -0.3100000      0.0000000E+00
 -0.3000000      0.0000000E+00
 -0.2900000      0.0000000E+00
 -0.2800000      0.0000000E+00
 -0.2700000      0.0000000E+00
 -0.2600000      0.0000000E+00
 -0.2500000      0.0000000E+00
 -0.2400000      0.0000000E+00
 -0.2300000      0.0000000E+00
 -0.2200000      0.0000000E+00
 -0.2100000      0.0000000E+00
 -0.2000000      0.0000000E+00
 -0.1900000      0.0000000E+00
 -0.1800000      0.0000000E+00
 -0.1700000      0.0000000E+00
 -0.1600000      0.0000000E+00
 -0.1500000      0.0000000E+00
 -0.1400000      0.0000000E+00
 -0.1300000      0.0000000E+00
 -0.1200000      0.0000000E+00
 -0.1100000      0.0000000E+00
 -0.1000000      0.0000000E+00
 -9.0000004E-02  0.0000000E+00
 -7.9999998E-02  0.0000000E+00
 -7.0000000E-02  0.0000000E+00
 -5.9999999E-02  0.0000000E+00
 -5.0000001E-02  0.0000000E+00
 -3.9999999E-02  0.0000000E+00
 -2.9999999E-02  0.0000000E+00
 -2.0000000E-02  0.0000000E+00
 -9.9999998E-03  0.0000000E+00
 -3.4694470E-17  0.0000000E+00
  9.9999998E-03  0.0000000E+00
  2.0000000E-02  0.0000000E+00
  2.9999999E-02  0.0000000E+00
  3.9999999E-02  0.0000000E+00
  5.0000001E-02  0.0000000E+00
  5.9999999E-02  0.0000000E+00
  7.0000000E-02  0.0000000E+00
  7.9999998E-02  0.0000000E+00
  9.0000004E-02  0.0000000E+00
  0.1000000      0.0000000E+00
  0.1100000      0.0000000E+00
  0.1200000      0.0000000E+00
  0.1300000      0.0000000E+00
  0.1400000      0.0000000E+00
  0.1500000      0.0000000E+00
  0.1600000      0.0000000E+00
  0.1700000      0.0000000E+00
  0.1800000      0.0000000E+00
  0.1900000      0.0000000E+00
  0.2000000      0.0000000E+00
  0.2100000      0.0000000E+00
  0.2200000      0.0000000E+00
  0.2300000      0.0000000E+00
  0.2400000      0.0000000E+00
  0.2500000      0.0000000E+00
  0.2600000      0.0000000E+00
  0.2700000      0.0000000E+00
  0.2800000      0.0000000E+00
  0.2900000      0.0000000E+00
  0.3000000      0.0000000E+00
  0.3100000      0.0000000E+00
  0.3200000      0.0000000E+00
  0.3300000      0.0000000E+00
  0.3400000      0.0000000E+00
  0.3500000      0.0000000E+00
  0.3600000      0.0000000E+00
  0.3700000      0.0000000E+00
  0.3800000      0.0000000E+00
  0.3900000      0.0000000E+00
  0.4000000      0.0000000E+00
  0.4100000      0.0000000E+00
  0.4200000      0.0000000E+00
  0.4300000      0.0000000E+00
  0.4400000      0.0000000E+00
  0.4500000      0.0000000E+00
  0.4600000      0.0000000E+00
  0.4700000      0.0000000E+00
  0.4800000      0.0000000E+00
  0.4900000      0.0000000E+00
  0.5000000      0.0000000E+00
  0.5100000      0.0000000E+00
  0.5200000      0.0000000E+00
  0.5300000      0.0000000E+00
  0.5400000      0.0000000E+00
  0.5500000      0.0000000E+00
  0.5600000      0.0000000E+00
  0.5700000      0.0000000E+00
  0.5800000      0.0000000E+00
  0.5900000      0.0000000E+00
  0.6000000      0.0000000E+00
  0.6100000      0.0000000E+00
  0.6200000      0.0000000E+00
  0.6300000      0.0000000E+00
  0.6400000      0.0000000E+00
  0.6500000      0.0000000E+00
  0.6600000      0.0000000E+00
  0.6700000      0.0000000E+00
  0.6800000      0.0000000E+00
  0.6900000      0.0000000E+00
  0.7000000      0.0000000E+00
  0.7100000      0.0000000E+00
  0.7200000      0.0000000E+00
  0.7300000      0.0000000E+00
  0.7400000      0.0000000E+00
  0.7500000      0.0000000E+00
  0.7600000      0.0000000E+00
  0.7700000      0.0000000E+00
  0.7800000      0.0000000E+00
  0.7900000      0.0000000E+00
  0.8000000      0.0000000E+00
  0.8100000      0.0000000E+00
  0.8200000      0.0000000E+00
  0.8300000      0.0000000E+00
  0.8400000      0.0000000E+00
  0.8500000      0.0000000E+00
  0.8600000      0.0000000E+00
  0.8700000      0.0000000E+00
  0.8800000      0.0000000E+00
  0.8900000      0.0000000E+00
  0.9000000      0.0000000E+00
  0.9100000      0.0000000E+00
  0.9200000      0.0000000E+00
  0.9300000      0.0000000E+00
  0.9400000      0.0000000E+00
  0.9500000      0.0000000E+00
  0.9600000      0.0000000E+00
  0.9700000      0.0000000E+00
  0.9800000      0.0000000E+00
  0.9900000      0.0000000E+00
   1.000000      0.0000000E+00
   1.010000      0.0000000E+00
   1.020000      0.0000000E+00
   1.030000      0.0000000E+00
   1.040000      0.0000000E+00
   1.050000      0.0000000E+00
   1.060000      0.0000000E+00
   1.070000      0.0000000E+00
   1.080000      0.0000000E+00
   1.090000      0.0000000E+00
   1.100000      0.0000000E+00
   1.110000      0.0000000E+00
   1.120000      0.0000000E+00
   1.130000      0.0000000E+00
   1.140000      0.0000000E+00
   1.150000      0.0000000E+00
   1.160000      0.0000000E+00
   1.170000      0.0000000E+00
   1.180000      0.0000000E+00
   1.190000      0.0000000E+00
   1.200000      0.0000000E+00
   1.210000      0.0000000E+00
   1.220000      0.0000000E+00
   1.230000      0.0000000E+00
   1.240000      0.0000000E+00
   1.250000      0.0000000E+00
   1.260000      0.0000000E+00
   1.270000      0.0000000E+00
   1.280000      0.0000000E+00
   1.290000      0.0000000E+00
   1.300000      0.0000000E+00
   1.310000      0.0000000E+00
   1.320000      0.0000000E+00
   1.330000      0.0000000E+00
   1.340000      0.0000000E+00
   1.350000      0.0000000E+00
   1.360000      0.0000000E+00
   1.370000      0.0000000E+00
   1.380000      0.0000000E+00
   1.390000      0.0000000E+00
   1.400000      0.0000000E+00
   1.410000      0.0000000E+00
   1.420000      0.0000000E+00
   1.430000      0.0000000E+00
   1.440000      0.0000000E+00
   1.450000      0.0000000E+00
   1.460000      0.0000000E+00
   1.470000      0.0000000E+00
   1.480000      0.0000000E+00
   1.490000      0.0000000E+00
   1.500000      0.0000000E+00
   1.510000      0.0000000E+00
   1.520000      0.0000000E+00
   1.530000      0.0000000E+00
   1.540000      0.0000000E+00
   1.550000      0.0000000E+00
   1.560000      0.0000000E+00
   1.570000      0.0000000E+00
   1.580000      0.0000000E+00
   1.590000      0.0000000E+00
   1.600000      0.0000000E+00
   1.610000      0.0000000E+00
   1.620000      0.0000000E+00
   1.630000      0.0000000E+00
   1.640000      0.0000000E+00
   1.650000      0.0000000E+00
   1.660000      0.0000000E+00
   1.670000      0.0000000E+00
   1.680000      0.0000000E+00
   1.690000      0.0000000E+00
   1.700000      0.0000000E+00
   1.710000      0.0000000E+00
   1.720000      0.0000000E+00
   1.730000      0.0000000E+00
   1.740000      0.0000000E+00
   1.750000      0.0000000E+00
   1.760000      0.0000000E+00
   1.770000      0.0000000E+00
   1.780000      0.0000000E+00
   1.790000      0.0000000E+00
   1.800000      0.0000000E+00
   1.810000      0.0000000E+00
   1.820000      0.0000000E+00
   1.830000      0.0000000E+00
   1.840000      0.0000000E+00
   1.850000      0.0000000E+00
   1.860000      0.0000000E+00
   1.870000      0.0000000E+00
   1.880000      0.0000000E+00
   1.890000      0.0000000E+00
   1.900000      0.0000000E+00
   1.910000      0.0000000E+00
   1.920000      0.0000000E+00
   1.930000      0.0000000E+00
   1.940000      0.0000000E+00
   1.950000      0.0000000E+00
   1.960000      0.0000000E+00
   1.970000      0.0000000E+00
   1.980000      0.0000000E+00
   1.990000      0.0000000E+00
   2.000000      0.0000000E+00
   2.010000      0.0000000E+00
   2.020000      0.0000000E+00
   2.030000      0.0000000E+00
   2.040000      0.0000000E+00
   2.050000      0.0000000E+00
   2.060000      0.0000000E+00
   2.070000      0.0000000E+00
   2.080000      0.0000000E+00
   2.090000      0.0000000E+00
   2.100000      0.0000000E+00
   2.110000      0.0000000E+00
   2.120000      0.0000000E+00
   2.130000      0.0000000E+00
   2.140000      0.0000000E+00
   2.150000      0.0000000E+00
   2.160000      0.0000000E+00
   2.170000      0.0000000E+00
   2.180000      0.0000000E+00
   2.190000      0.0000000E+00
   2.200000      0.0000000E+00
   2.210000      0.0000000E+00
   2.220000      0.0000000E+00
   2.230000      0.0000000E+00
   2.240000      0.0000000E+00
   2.250000      0.0000000E+00
   2.260000      0.0000000E+00
   2.270000      0.0000000E+00
   2.280000      0.0000000E+00
   2.290000      0.0000000E+00
   2.300000      0.0000000E+00
   2.310000      0.0000000E+00
   2.320000      0.0000000E+00
   2.330000      0.0000000E+00
   2.340000      0.0000000E+00
   2.350000      0.0000000E+00
   2.360000      0.0000000E+00
   2.370000      0.0000000E+00
   2.380000      0.0000000E+00
   2.390000      0.0000000E+00
   2.400000      0.0000000E+00
   2.410000      0.0000000E+00
   2.420000      0.0000000E+00
   2.430000      0.0000000E+00
   2.440000      0.0000000E+00
   2.450000      0.0000000E+00
   2.460000      0.0000000E+00
   2.470000      0.0000000E+00
   2.480000      0.0000000E+00
   2.490000      0.0000000E+00
   2.500000      0.0000000E+00
   2.510000      0.0000000E+00
   2.520000      0.0000000E+00
   2.530000      0.0000000E+00
   2.540000      0.0000000E+00
   2.550000      0.0000000E+00
   2.560000      0.0000000E+00
   2.570000      0.0000000E+00
   2.580000      0.0000000E+00
   2.590000      0.0000000E+00
   2.600000      0.0000000E+00
   2.610000      0.0000000E+00
   2.620000      0.0000000E+00
   2.630000      0.0000000E+00
   2.640000      0.0000000E+00
   2.650000      0.0000000E+00
   2.660000      0.0000000E+00
   2.670000      0.0000000E+00
   2.680000      0.0000000E+00
   2.690000      0.0000000E+00
   2.700000      0.0000000E+00
   2.710000      0.0000000E+00
   2.720000      0.0000000E+00
   2.730000      0.0000000E+00
   2.740000      0.0000000E+00
   2.750000      0.0000000E+00
   2.760000      0.0000000E+00
   2.770000      0.0000000E+00
   2.780000      0.0000000E+00
   2.790000      0.0000000E+00
   2.800000      0.0000000E+00
   2.810000      0.0000000E+00
   2.820000      0.0000000E+00
   2.830000      0.0000000E+00
   2.840000      0.0000000E+00
   2.850000      0.0000000E+00
   2.860000      0.0000000E+00
   2.870000      0.0000000E+00
   2.880000      0.0000000E+00
   2.890000      0.0000000E+00
   2.900000      0.0000000E+00
   2.910000      0.0000000E+00
   2.920000      0.0000000E+00
   2.930000      0.0000000E+00
   2.940000      0.0000000E+00
   2.950000      0.0000000E+00
   2.960000      0.0000000E+00
   2.970000      0.0000000E+00
   2.980000      0.0000000E+00
   2.990000      0.0000000E+00
   3.000000      0.0000000E+00
   3.010000      0.0000000E+00
   3.020000      0.0000000E+00
   3.030000      0.0000000E+00
   3.040000      0.0000000E+00
   3.050000      0.0000000E+00
   3.060000      0.0000000E+00
   3.070000      0.0000000E+00
   3.080000      0.0000000E+00
   3.090000      0.0000000E+00
   3.100000      0.0000000E+00
   3.110000      0.0000000E+00
   3.120000      0.0000000E+00
   3.130000      0.0000000E+00
   3.140000      0.0000000E+00
   3.150000      0.0000000E+00
   3.160000      0.0000000E+00
   3.170000      0.0000000E+00
   3.180000      0.0000000E+00
   3.190000      0.0000000E+00
   3.200000      0.0000000E+00
   3.210000      0.0000000E+00
   3.220000      0.0000000E+00
   3.230000      0.0000000E+00
   3.240000      0.0000000E+00
   3.250000      0.0000000E+00
   3.260000      0.0000000E+00
   3.270000      0.0000000E+00
   3.280000      0.0000000E+00
   3.290000      0.0000000E+00
   3.300000      0.0000000E+00
   3.310000      0.0000000E+00
   3.320000      0.0000000E+00
   3.330000      0.0000000E+00
   3.340000      0.0000000E+00
   3.350000      0.0000000E+00
   3.360000      0.0000000E+00
   3.370000      0.0000000E+00
   3.380000      0.0000000E+00
   3.390000      0.0000000E+00
   3.400000      0.0000000E+00
   3.410000      0.0000000E+00
   3.420000      0.0000000E+00
   3.430000      0.0000000E+00
   3.440000      0.0000000E+00
   3.450000      0.0000000E+00
   3.460000      0.0000000E+00
   3.470000      0.0000000E+00
   3.480000      0.0000000E+00
   3.490000      0.0000000E+00
   3.500000      0.0000000E+00
   3.510000      0.0000000E+00
   3.520000      0.0000000E+00
   3.530000      0.0000000E+00
   3.540000      0.0000000E+00
   3.550000      0.0000000E+00
   3.560000      0.0000000E+00
   3.570000      0.0000000E+00
   3.580000      0.0000000E+00
   3.590000      0.0000000E+00
   3.600000      0.0000000E+00
   3.610000      0.0000000E+00
   3.620000      0.0000000E+00
   3.630000      0.0000000E+00
   3.640000      0.0000000E+00
   3.650000      0.0000000E+00
   3.660000      0.0000000E+00
   3.670000      0.0000000E+00
   3.680000      0.0000000E+00
   3.690000      0.0000000E+00
   3.700000      0.0000000E+00
   3.710000      0.0000000E+00
   3.720000      0.0000000E+00
   3.730000      0.0000000E+00
   3.740000      0.0000000E+00
   3.750000      0.0000000E+00
   3.760000      0.0000000E+00
   3.770000      0.0000000E+00
   3.780000      0.0000000E+00
   3.790000      0.0000000E+00
   3.800000      0.0000000E+00
   3.810000      0.0000000E+00
   3.820000      1.3921840E-38
   3.830000      1.6620245E-38
   3.840000      1.9348843E-38
   3.850000      2.2099742E-38
   3.860000      2.4863382E-38
   3.870000      2.7638964E-38
   3.880000      2.9850062E-38
   3.890000      3.1417675E-38
   3.900000      3.2897034E-38
   3.910000      3.4345388E-38
   3.920000      3.5768323E-38
   3.930000      3.7168811E-38
   3.940000      3.8537546E-38
   3.950000      3.9876022E-38
   3.960000      4.1195123E-38
   3.970000      4.2490430E-38
   3.980000      4.3754104E-38
   3.990000      4.4975773E-38
   4.000000      4.6141883E-38
   4.010000      4.7231549E-38
   4.020000      4.6970249E-38
   4.030000      4.5204173E-38
   4.040000      4.3032393E-38
   4.050000      4.0439918E-38
   4.060000      3.7473697E-38
   4.070000      3.4124771E-38
   4.080000      3.0321658E-38
   4.090000      2.6046997E-38
   4.100000      2.1319094E-38
   4.110000      1.5437602E-38
   4.120000      0.0000000E+00
   4.130000      0.0000000E+00
   4.140000      0.0000000E+00
   4.150000     -1.8677343E-38
   4.160000     -2.9305288E-38
   4.170000     -4.0722683E-38
   4.180000     -5.2966408E-38
   4.190000     -6.6028287E-38
   4.200000     -7.9897364E-38
   4.210000     -9.4559732E-38
   4.220000     -1.1000234E-37
   4.230000     -1.2620986E-37
   4.240000     -1.4316383E-37
   4.250000     -1.6346443E-37
   4.260000     -1.8708815E-37
   4.270000     -2.1134240E-37
   4.280000     -2.3615390E-37
   4.290000     -2.6146505E-37
   4.300000     -2.8718258E-37
   4.310000     -3.1320386E-37
   4.320000     -3.3943408E-37
   4.330000     -3.6573545E-37
   4.340000     -3.9198058E-37
   4.350000     -4.1806634E-37
   4.360000     -4.3359699E-37
   4.370000     -4.3780654E-37
   4.380000     -4.4046927E-37
   4.390000     -4.4511042E-37
   4.400000     -4.5244201E-37
   4.410000     -4.6943745E-37
   4.420000     -4.9577231E-37
   4.430000     -5.2054346E-37
   4.440000     -5.4302584E-37
   4.450000     -5.6324862E-37
   4.460000     -5.7888415E-37
   4.470000     -5.8992459E-37
   4.480000     -5.9797217E-37
   4.490000     -6.0233418E-37
   4.500000     -6.0263098E-37
   4.510000     -5.8374722E-37
   4.520000     -5.4534837E-37
   4.530000     -4.9607208E-37
   4.540000     -4.3525868E-37
   4.550000     -3.4939386E-37
   4.560000     -2.3651075E-37
   4.570000     -1.1407807E-37
   4.580000      0.0000000E+00
   4.590000      1.1051136E-37
   4.600000      1.9579539E-37
   4.610000      2.8787717E-37
   4.620000      3.8724101E-37
   4.630000      4.9878809E-37
   4.640000      6.2815152E-37
   4.650000      7.5118665E-37
   4.660000      8.6798669E-37
   4.670000      1.0143199E-36
   4.680000      1.1835107E-36
   4.690000      1.4053790E-36
   4.700000      1.7047009E-36
   4.710000      2.0400249E-36
   4.720000      2.3777840E-36
   4.730000      2.7003512E-36
   4.740000      3.0119768E-36
   4.750000      3.3353059E-36
   4.760000      3.6712050E-36
   4.770000      4.0272466E-36
   4.780000      4.4112022E-36
   4.790000      4.7987849E-36
   4.800000      5.1612008E-36
   4.810000      5.4993947E-36
   4.820000      5.8129964E-36
   4.830000      6.1003630E-36
   4.840000      6.4042402E-36
   4.850000      6.7221323E-36
   4.860000      7.0013503E-36
   4.870000      6.8521111E-36
   4.880000      6.2432303E-36
   4.890000      5.5185363E-36
   4.900000      4.7089895E-36
   4.910000      3.3866208E-36
   4.920000      1.5597368E-36
   4.930000     -7.3112288E-38
   4.940000     -1.3292478E-36
   4.950000     -2.4793414E-36
   4.960000     -3.7404515E-36
   4.970000     -4.8931986E-36
   4.980000     -5.9693112E-36
   4.990000     -7.0778320E-36
   5.000000     -8.0729751E-36
   5.010000     -8.7665942E-36
   5.020000     -9.2428043E-36
   5.030000     -9.8208277E-36
   5.040000     -1.0539809E-35
   5.050000     -1.1299261E-35
   5.060000     -1.2078537E-35
   5.070000     -1.3011521E-35
   5.080000     -1.4141396E-35
   5.090000     -1.5518293E-35
   5.100000     -1.7159065E-35
   5.110000     -1.9102924E-35
   5.120000     -2.1243536E-35
   5.130000     -2.3584439E-35
   5.140000     -2.6088214E-35
   5.150000     -2.8609449E-35
   5.160000     -3.1341211E-35
   5.170000     -3.3870142E-35
   5.180000     -3.6052937E-35
   5.190000     -3.8016225E-35
   5.200000     -3.9937814E-35
   5.210000     -4.2068280E-35
   5.220000     -4.4067570E-35
   5.230000     -4.5570065E-35
   5.240000     -4.6605427E-35
   5.250000     -4.7438507E-35
   5.260000     -4.7864795E-35
   5.270000     -4.7693410E-35
   5.280000     -4.7295008E-35
   5.290000     -4.6798835E-35
   5.300000     -4.6195131E-35
   5.310000     -4.5428790E-35
   5.320000     -4.4886381E-35
   5.330000     -4.4630220E-35
   5.340000     -4.4382198E-35
   5.350000     -4.3963268E-35
   5.360000     -4.2859959E-35
   5.370000     -4.1446203E-35
   5.380000     -3.9882721E-35
   5.390000     -3.8093229E-35
   5.400000     -3.5931958E-35
   5.410000     -3.0476083E-35
   5.420000     -2.1779851E-35
   5.430000     -1.2443512E-35
   5.440000     -2.6366749E-36
   5.450000      7.5490744E-36
   5.460000      1.7415937E-35
   5.470000      3.0654901E-35
   5.480000      4.9450981E-35
   5.490000      7.0700045E-35
   5.500000      9.3656806E-35
   5.510000      1.1496376E-34
   5.520000      1.3561449E-34
   5.530000      1.5915060E-34
   5.540000      1.8082592E-34
   5.550000      1.9914263E-34
   5.560000      2.1684177E-34
   5.570000      2.3246634E-34
   5.580000      2.4467743E-34
   5.590000      2.5380856E-34
   5.600000      2.6056228E-34
   5.610000      2.6575664E-34
   5.620000      2.7000368E-34
   5.630000      2.7460104E-34
   5.640000      2.7953761E-34
   5.650000      2.8423417E-34
   5.660000      2.8964883E-34
   5.670000      2.9528850E-34
   5.680000      3.0100252E-34
   5.690000      3.0925514E-34
   5.700000      3.1425528E-34
   5.710000      3.1214548E-34
   5.720000      3.0844809E-34
   5.730000      3.0581787E-34
   5.740000      3.0561735E-34
   5.750000      3.0612065E-34
   5.760000      3.0614242E-34
   5.770000      3.0731780E-34
   5.780000      3.1147035E-34
   5.790000      3.1768387E-34
   5.800000      3.2388646E-34
   5.810000      3.3152433E-34
   5.820000      3.4098951E-34
   5.830000      3.4735061E-34
   5.840000      3.4940839E-34
   5.850000      3.4854195E-34
   5.860000      3.4375608E-34
   5.870000      3.3530359E-34
   5.880000      3.2067874E-34
   5.890000      2.9703390E-34
   5.900000      2.6484976E-34
   5.910000      2.2589335E-34
   5.920000      1.7839914E-34
   5.930000      1.2199907E-34
   5.940000      5.9162091E-35
   5.950000     -9.2399029E-36
   5.960000     -8.2515921E-35
   5.970000     -1.5891831E-34
   5.980000     -2.3759365E-34
   5.990000     -3.1855651E-34
   6.000000     -4.0156457E-34
   6.010000     -4.8641796E-34
   6.020000     -5.7143765E-34
   6.030000     -6.5674699E-34
   6.040000     -7.4060121E-34
   6.050000     -8.2244224E-34
   6.060000     -9.0615994E-34
   6.070000     -9.8842747E-34
   6.080000     -1.0667238E-33
   6.090000     -1.1432961E-33
   6.100000     -1.2183599E-33
   6.110000     -1.2928096E-33
   6.120000     -1.3679655E-33
   6.130000     -1.4421362E-33
   6.140000     -1.5154066E-33
   6.150000     -1.5902521E-33
   6.160000     -1.6681866E-33
   6.170000     -1.7497608E-33
   6.180000     -1.8350113E-33
   6.190000     -1.9246937E-33
   6.200000     -2.0199563E-33
   6.210000     -2.1195320E-33
   6.220000     -2.2199683E-33
   6.230000     -2.3227497E-33
   6.240000     -2.4283528E-33
   6.250000     -2.5334776E-33
   6.260000     -2.6360749E-33
   6.270000     -2.7343754E-33
   6.280000     -2.8267149E-33
   6.290000     -2.9123883E-33
   6.300000     -2.9896715E-33
   6.310000     -3.0557253E-33
   6.320000     -3.1093361E-33
   6.330000     -3.1481484E-33
   6.340000     -3.1726541E-33
   6.350000     -3.1831351E-33
   6.360000     -3.1758650E-33
   6.370000     -3.1508546E-33
   6.380000     -3.1091392E-33
   6.390000     -3.0502717E-33
   6.400000     -2.9742795E-33
   6.410000     -2.8821160E-33
   6.420000     -2.7747799E-33
   6.430000     -2.6524360E-33
   6.440000     -2.5152839E-33
   6.450000     -2.3635733E-33
   6.460000     -2.1979737E-33
   6.470000     -2.0187014E-33
   6.480000     -1.8249440E-33
   6.490000     -1.6172677E-33
   6.500000     -1.3966373E-33
   6.510000     -1.1609248E-33
   6.520000     -9.0731266E-34
   6.530000     -6.3494979E-34
   6.540000     -3.4282338E-34
   6.550000     -2.9654365E-35
   6.560000      3.0600485E-34
   6.570000      6.6582011E-34
   6.580000      1.0519223E-33
   6.590000      1.4677919E-33
   6.600000      1.9154923E-33
   6.610000      2.3944425E-33
   6.620000      2.9071127E-33
   6.630000      3.4552922E-33
   6.640000      4.0386393E-33
   6.650000      4.6567466E-33
   6.660000      5.3086445E-33
   6.670000      5.9944551E-33
   6.680000      6.7116848E-33
   6.690000      7.4576249E-33
   6.700000      8.2308945E-33
   6.710000      9.0290265E-33
   6.720000      9.8491535E-33
   6.730000      1.0688631E-32
   6.740000      1.1544627E-32
   6.750000      1.2414991E-32
   6.760000      1.3296465E-32
   6.770000      1.4186152E-32
   6.780000      1.5082063E-32
   6.790000      1.5981269E-32
   6.800000      1.6880941E-32
   6.810000      1.7778573E-32
   6.820000      1.8672149E-32
   6.830000      1.9558861E-32
   6.840000      2.0436157E-32
   6.850000      2.1302195E-32
   6.860000      2.2154601E-32
   6.870000      2.2992261E-32
   6.880000      2.3810383E-32
   6.890000      2.4603987E-32
   6.900000      2.5371288E-32
   6.910000      2.6108435E-32
   6.920000      2.6811007E-32
   6.930000      2.7474115E-32
   6.940000      2.8092378E-32
   6.950000      2.8659757E-32
   6.960000      2.9169601E-32
   6.970000      2.9614476E-32
   6.980000      2.9986526E-32
   6.990000      3.0277978E-32
   7.000000      3.0479575E-32
   7.010000      3.0581758E-32
   7.020000      3.0575616E-32
   7.030000      3.0451678E-32
   7.040000      3.0200601E-32
   7.050000      2.9812923E-32
   7.060000      2.9279542E-32