  -2.600000      0.0000000E+00
  -2.590000      0.0000000E+00
  -2.580000      0.0000000E+00
  -2.570000      0.0000000E+00
  -2.560000      0.0000000E+00
  -2.550000      0.0000000E+00
  -2.540000      0.0000000E+00
  -2.530000      0.0000000E+00
  -2.520000      0.0000000E+00
  -2.510000      0.0000000E+00
  -2.500000      0.0000000E+00
  -2.490000      0.0000000E+00
  -2.480000      0.0000000E+00
  -2.470000      0.0000000E+00
  -2.460000      0.0000000E+00
  -2.450000      0.0000000E+00
  -2.440000      0.0000000E+00
  -2.430000      0.0000000E+00
  -2.420000      0.0000000E+00
  -2.410000      0.0000000E+00
  -2.400000      0.0000000E+00
  -2.390000      0.0000000E+00
  -2.380000      0.0000000E+00
  -2.370000      0.0000000E+00
  -2.360000      0.0000000E+00
  -2.350000      0.0000000E+00
  -2.340000      0.0000000E+00
  -2.330000      0.0000000E+00
  -2.320000      0.0000000E+00
  -2.310000      0.0000000E+00
  -2.300000      0.0000000E+00
  -2.290000      0.0000000E+00
  -2.280000      0.0000000E+00
  -2.270000      0.0000000E+00
  -2.260000      0.0000000E+00
  -2.250000      0.0000000E+00
  -2.240000      0.0000000E+00
  -2.230000      0.0000000E+00
  -2.220000      0.0000000E+00
  -2.210000      0.0000000E+00
  -2.200000      0.0000000E+00
  -2.190000      0.0000000E+00
  -2.180000      0.0000000E+00
  -2.170000      0.0000000E+00
  -2.160000      0.0000000E+00
  -2.150000      0.0000000E+00
  -2.140000      0.0000000E+00
  -2.130000      0.0000000E+00
  -2.120000      0.0000000E+00
  -2.110000      0.0000000E+00
  -2.100000      0.0000000E+00
  -2.090000      0.0000000E+00
  -2.080000      0.0000000E+00
  -2.070000      0.0000000E+00
  -2.060000      0.0000000E+00
  -2.050000      0.0000000E+00
  -2.040000      0.0000000E+00
  -2.030000      0.0000000E+00
  -2.020000      0.0000000E+00
  -2.010000      0.0000000E+00
  -2.000000      0.0000000E+00
  -1.990000      0.0000000E+00
  -1.980000      0.0000000E+00
  -1.970000      0.0000000E+00
  -1.960000      0.0000000E+00
  -1.950000      0.0000000E+00
  -1.940000      0.0000000E+00
  -1.930000      0.0000000E+00
  -1.920000      0.0000000E+00
  -1.910000      0.0000000E+00
  -1.900000      0.0000000E+00
  -1.890000      0.0000000E+00
  -1.880000      0.0000000E+00
  -1.870000      0.0000000E+00
  -1.860000      0.0000000E+00
  -1.850000      0.0000000E+00
  -1.840000      0.0000000E+00
  -1.830000      0.0000000E+00
  -1.820000      0.0000000E+00
  -1.810000      0.0000000E+00
  -1.800000      0.0000000E+00
  -1.790000      0.0000000E+00
  -1.780000      0.0000000E+00
  -1.770000      0.0000000E+00
  -1.760000      0.0000000E+00
  -1.750000      0.0000000E+00
  -1.740000      0.0000000E+00
  -1.730000      0.0000000E+00
  -1.720000      0.0000000E+00
  -1.710000      0.0000000E+00
  -1.700000      0.0000000E+00
  -1.690000      0.0000000E+00
  -1.680000      0.0000000E+00
  -1.670000      0.0000000E+00
  -1.660000      0.0000000E+00
  -1.650000      0.0000000E+00
  -1.640000      0.0000000E+00
  -1.630000      0.0000000E+00
  -1.620000      0.0000000E+00
  -1.610000      0.0000000E+00
  -1.600000      0.0000000E+00
  -1.590000      0.0000000E+00
  -1.580000      0.0000000E+00
  -1.570000      0.0000000E+00
  -1.560000      0.0000000E+00
  -1.550000      0.0000000E+00
  -1.540000      0.0000000E+00
  -1.530000      0.0000000E+00
  -1.520000      0.0000000E+00
  -1.510000      0.0000000E+00
  -1.500000      0.0000000E+00
  -1.490000      0.0000000E+00
  -1.480000      0.0000000E+00
  -1.470000      0.0000000E+00
  -1.460000      0.0000000E+00
  -1.450000      0.0000000E+00
  -1.440000      0.0000000E+00
  -1.430000      0.0000000E+00
  -1.420000      0.0000000E+00
  -1.410000      0.0000000E+00
  -1.400000      0.0000000E+00
  -1.390000      0.0000000E+00
  -1.380000      0.0000000E+00
  -1.370000      0.0000000E+00
  -1.360000      0.0000000E+00
  -1.350000      0.0000000E+00
  -1.340000      0.0000000E+00
  -1.330000      0.0000000E+00
  -1.320000      0.0000000E+00
  -1.310000      0.0000000E+00
  -1.300000      0.0000000E+00
  -1.290000      0.0000000E+00
  -1.280000      0.0000000E+00
  -1.270000      0.0000000E+00
  -1.260000      0.0000000E+00
  -1.250000      0.0000000E+00
  -1.240000     -2.4649843E-38
  -1.230000     -4.2419816E-38
  -1.220000     -6.2116523E-38
  -1.210000     -4.7226331E-38
  -1.200000      1.5734071E-38
  -1.190000      1.0040552E-37
  -1.180000      2.0685981E-37
  -1.170000      2.8741024E-37
  -1.160000      3.2769784E-37
  -1.150000      3.4644425E-37
  -1.140000      3.0181077E-37
  -1.130000      2.1448835E-37
  -1.120000      7.8961470E-38
  -1.110000     -1.0164335E-37
  -1.100000     -3.2828533E-37
  -1.090000     -6.1126724E-37
  -1.080000     -9.1849890E-37
  -1.070000     -1.2301184E-36
  -1.060000     -1.5203372E-36
  -1.050000     -1.7642282E-36
  -1.040000     -1.9203789E-36
  -1.030000     -2.0747673E-36
  -1.020000     -2.2820556E-36
  -1.010000     -2.4975833E-36
  -1.000000     -2.5903283E-36
 -0.9900000     -2.1750620E-36
 -0.9800000     -1.0005277E-36
 -0.9700000      9.2778388E-37
 -0.9600000      3.8061494E-36
 -0.9500000      7.6365714E-36
 -0.9400000      1.2083486E-35
 -0.9300000      1.7079066E-35
 -0.9200000      2.1287465E-35
 -0.9100000      2.3434918E-35
 -0.9000000      2.3066317E-35
 -0.8900000      2.0892595E-35
 -0.8800000      1.7272621E-35
 -0.8700000      1.1043608E-35
 -0.8600000      1.9028448E-36
 -0.8500000     -1.0251827E-35
 -0.8400000     -2.5243509E-35
 -0.8300000     -4.2388722E-35
 -0.8200000     -6.1507105E-35
 -0.8100000     -8.2412066E-35
 -0.8000000     -1.0334700E-34
 -0.7900000     -1.2257735E-34
 -0.7800000     -1.3897611E-34
 -0.7700000     -1.5096569E-34
 -0.7600000     -1.5638338E-34
 -0.7500000     -1.5218435E-34
 -0.7400000     -1.2992222E-34
 -0.7300000     -8.6787247E-35
 -0.7200000     -2.3632799E-35
 -0.7100000      6.4479143E-35
 -0.7000000      1.6898243E-34
 -0.6900000      2.9045565E-34
 -0.6800000      4.2958234E-34
 -0.6700000      5.7701881E-34
 -0.6600000      7.2584485E-34
 -0.6500000      8.6670888E-34
 -0.6400000      9.8783972E-34
 -0.6300000      1.0699774E-33
 -0.6200000      1.0996594E-33
 -0.6100000      1.0701938E-33
 -0.6000000      9.6837013E-34
 -0.5900000      7.6623038E-34
 -0.5800000      4.4206940E-34
 -0.5700000     -1.4773281E-35
 -0.5600000     -6.1160264E-34
 -0.5500000     -1.3476678E-33
 -0.5400000     -2.2140761E-33
 -0.5300000     -3.1880439E-33
 -0.5200000     -4.2289239E-33
 -0.5100000     -5.2819553E-33
 -0.5000000     -6.2752598E-33
 -0.4900000     -7.1220918E-33
 -0.4800000     -7.7219906E-33
 -0.4700000     -7.9565848E-33
 -0.4600000     -7.7020609E-33
 -0.4500000     -6.8395580E-33
 -0.4400000     -5.2596848E-33
 -0.4300000     -2.8689751E-33
 -0.4200000      3.9384548E-34
 -0.4100000      4.5460389E-33
 -0.4000000      9.5534248E-33
 -0.3900000      1.5313682E-32
 -0.3800000      2.1650211E-32
 -0.3700000      2.8303609E-32
 -0.3600000      3.4926844E-32
 -0.3500000      4.1084891E-32
 -0.3400000      4.6258342E-32
 -0.3300000      4.9858052E-32
 -0.3200000      5.1242467E-32
 -0.3100000      4.9744605E-32
 -0.3000000      4.4704967E-32
 -0.2900000      3.5515901E-32
 -0.2800000      2.1670415E-32
 -0.2700000      2.8141596E-33
 -0.2600000     -2.1193536E-32
 -0.2500000     -5.0219493E-32
 -0.2400000     -8.3801803E-32
 -0.2300000     -1.2109877E-31
 -0.2200000     -1.6084632E-31
 -0.2100000     -2.0133270E-31
 -0.2000000     -2.4039247E-31
 -0.1900000     -2.7542458E-31
 -0.1800000     -3.0343894E-31
 -0.1700000     -3.2113521E-31
 -0.1600000     -3.2501608E-31
 -0.1500000     -3.1153546E-31
 -0.1400000     -2.7728153E-31
 -0.1300000     -2.1919123E-31
 -0.1200000     -1.3479149E-31
 -0.1100000     -2.2460056E-32
 -0.1000000      1.1830478E-31
 -9.0000004E-02  2.8661698E-31
 -7.9999998E-02  4.7995204E-31
 -7.0000000E-02  6.9393024E-31
 -5.9999999E-02  9.2214946E-31
 -5.0000001E-02  1.1560867E-30
 -3.9999999E-02  1.3850857E-30
 -2.9999999E-02  1.5964487E-30
 -2.0000000E-02  1.7756461E-30
 -9.9999998E-03  1.9066590E-30
 -3.4694470E-17  1.9724605E-30
  9.9999998E-03  1.9556444E-30
  2.0000000E-02  1.8391965E-30
  2.9999999E-02  1.6074073E-30
  3.9999999E-02  1.2469093E-30
  5.0000001E-02  7.4782435E-31
  5.9999999E-02  1.0499712E-31
  7.0000000E-02 -6.8071970E-31
  7.9999998E-02 -1.6011548E-30
  9.0000004E-02 -2.6395263E-30
  0.1000000     -3.7692029E-30
  0.1100000     -4.9525601E-30
  0.1200000     -6.1399711E-30
  0.1300000     -7.2689659E-30
  0.1400000     -8.2635906E-30
  0.1500000     -9.0339972E-30
  0.1600000     -9.4762599E-30
  0.1700000     -9.4724562E-30
  0.1800000     -8.8909969E-30
  0.1900000     -7.5871927E-30
  0.2000000     -5.4040394E-30
  0.2100000     -2.1732075E-30
  0.2200000      2.2838082E-30
  0.2300000      8.1544009E-30
  0.2400000      1.5633470E-29
  0.2500000      2.4921988E-29
  0.2600000      3.6225487E-29
  0.2700000      4.9752548E-29
  0.2800000      6.5713307E-29
  0.2900000      8.4317905E-29
  0.3000000      1.0577494E-28
  0.3100000      1.3028974E-28
  0.3200000      1.5806276E-28
  0.3300000      1.8928752E-28
  0.3400000      2.2414854E-28
  0.3500000      2.6281876E-28
  0.3600000      3.0545687E-28
  0.3700000      3.5220398E-28
  0.3800000      4.0318002E-28
  0.3900000      4.5847947E-28
  0.4000000      5.1816688E-28
  0.4100000      5.8227189E-28
  0.4200000      6.5078396E-28
  0.4300000      7.2364714E-28
  0.4400000      8.0075439E-28
  0.4500000      8.8194283E-28
  0.4600000      9.6698930E-28
  0.4700000      1.0556068E-27
  0.4800000      1.1474423E-27
  0.4900000      1.2420757E-27
  0.5000000      1.3390214E-27
  0.5100000      1.4377308E-27
  0.5200000      1.5375990E-27
  0.5300000      1.6379728E-27
  0.5400000      1.7381610E-27
  0.5500000      1.8374504E-27
  0.5600000      1.9351201E-27
  0.5700000      2.0304609E-27
  0.5800000      2.1227966E-27
  0.5900000      2.2115065E-27
  0.6000000      2.2960486E-27
  0.6100000      2.3759836E-27
  0.6200000      2.4509980E-27
  0.6300000      2.5209250E-27
  0.6400000      2.5857651E-27
  0.6500000      2.6457039E-27
  0.6600000      2.7011225E-27
  0.6700000      2.7526088E-27
  0.6800000      2.8009612E-27
  0.6900000      2.8471866E-27
  0.7000000      2.8924960E-27
  0.7100000      2.9382944E-27
  0.7200000      2.9861642E-27
  0.7300000      3.0378490E-27
  0.7400000      3.0952290E-27
  0.7500000      3.1602981E-27
  0.7600000      3.2351386E-27
  0.7700000      3.3218952E-27
  0.7800000      3.4227565E-27
  0.7900000      3.5399293E-27
  0.8000000      3.6756227E-27
  0.8100000      3.8320309E-27
  0.8200000      4.0113350E-27
  0.8300000      4.2156904E-27
  0.8400000      4.4472307E-27
  0.8500000      4.7080752E-27
  0.8600000      5.0003401E-27
  0.8700000      5.3261473E-27
  0.8800000      5.6876397E-27
  0.8900000      6.0869821E-27
  0.9000000      6.5263726E-27
  0.9100000      7.0080446E-27
  0.9200000      7.5342703E-27
  0.9300000      8.1073338E-27
  0.9400000      8.7295094E-27
  0.9500000      9.4030325E-27
  0.9600000      1.0130049E-26
  0.9700000      1.0912561E-26
  0.9800000      1.1752366E-26
  0.9900000      1.2650971E-26
   1.000000      1.3609524E-26
   1.010000      1.4628729E-26
   1.020000      1.5708764E-26
   1.030000      1.6849229E-26
   1.040000      1.8049070E-26
   1.050000      1.9306531E-26
   1.060000      2.0619129E-26
   1.070000      2.1983637E-26
   1.080000      2.3396098E-26
   1.090000      2.4851906E-26
   1.100000      2.6345840E-26
   1.110000      2.7872160E-26
   1.120000      2.9424721E-26
   1.130000      3.0997094E-26
   1.140000      3.2582729E-26
   1.150000      3.4175085E-26
   1.160000      3.5767767E-26
   1.170000      3.7354702E-26
   1.180000      3.8930261E-26
   1.190000      4.0489312E-26
   1.200000      4.2027314E-26
   1.210000      4.3540380E-26
   1.220000      4.5025201E-26
   1.230000      4.6479044E-26
   1.240000      4.7899690E-26
   1.250000      4.9285247E-26
   1.260000      5.0634020E-26
   1.270000      5.1944309E-26
   1.280000      5.3214178E-26
   1.290000      5.4441269E-26
   1.300000      5.5622564E-26
   1.310000      5.6754216E-26
   1.320000      5.7831337E-26
   1.330000      5.8847982E-26
   1.340000      5.9796969E-26
   1.350000      6.0669850E-26
   1.360000      6.1457059E-26
   1.370000      6.2147935E-26
   1.380000      6.2730872E-26
   1.390000      6.3193619E-26
   1.400000      6.3523517E-26
   1.410000      6.3707797E-26
   1.420000      6.3733878E-26
   1.430000      6.3589782E-26
   1.440000      6.3264309E-26
   1.450000      6.2747402E-26
   1.460000      6.2030087E-26
   1.470000      6.1104710E-26
   1.480000      5.9964904E-26
   1.490000      5.8605321E-26
   1.500000      5.7021535E-26
   1.510000      5.5209620E-26
   1.520000      5.3165472E-26
   1.530000      5.0884447E-26
   1.540000      4.8360816E-26
   1.550000      4.5586962E-26
   1.560000      4.2552775E-26
   1.570000      3.9244943E-26
   1.580000      3.5646433E-26
   1.590000      3.1735763E-26
   1.600000      2.7486727E-26
   1.610000      2.2868508E-26
   1.620000      1.7845359E-26
   1.630000      1.2376676E-26
   1.640000      6.4174497E-27
   1.650000     -8.1018390E-29
   1.660000     -7.1703219E-27
   1.670000     -1.4903846E-26
   1.680000     -2.3335878E-26
   1.690000     -3.2520544E-26
   1.700000     -4.2510623E-26
   1.710000     -5.3356814E-26
   1.720000     -6.5106213E-26
   1.730000     -7.7801653E-26
   1.740000     -9.1481518E-26
   1.750000     -1.0617931E-25
   1.760000     -1.2192346E-25
   1.770000     -1.3873729E-25
   1.780000     -1.5663985E-25
   1.790000     -1.7564676E-25
   1.800000     -1.9577114E-25
   1.810000     -2.1702550E-25
   1.820000     -2.3942283E-25
   1.830000     -2.6297812E-25
   1.840000     -2.8771002E-25
   1.850000     -3.1364188E-25
   1.860000     -3.4080278E-25
   1.870000     -3.6922857E-25
   1.880000     -3.9896280E-25
   1.890000     -4.3005669E-25
   1.900000     -4.6256802E-25
   1.910000     -4.9656038E-25
   1.920000     -5.3210211E-25
   1.930000     -5.6926481E-25
   1.940000     -6.0812119E-25
   1.950000     -6.4874245E-25
   1.960000     -6.9119504E-25
   1.970000     -7.3553849E-25
   1.980000     -7.8182362E-25
   1.990000     -8.3008954E-25
   2.000000     -8.8036137E-25
   2.010000     -9.3264934E-25
   2.020000     -9.8694930E-25
   2.030000     -1.0432405E-24
   2.040000     -1.1014874E-24
   2.050000     -1.1616406E-24
   2.060000     -1.2236393E-24
   2.070000     -1.2874137E-24
   2.080000     -1.3528867E-24
   2.090000     -1.4199789E-24
   2.100000     -1.4886116E-24
   2.110000     -1.5587101E-24
   2.120000     -1.6302068E-24
   2.130000     -1.7030430E-24
   2.140000     -1.7771709E-24
   2.150000     -1.8525539E-24
   2.160000     -1.9291670E-24
   2.170000     -2.0069949E-24
   2.180000     -2.0860297E-24
   2.190000     -2.1662681E-24
   2.200000     -2.2477063E-24
   2.210000     -2.3303330E-24
   2.220000     -2.4141236E-24
   2.230000     -2.4990344E-24
   2.240000     -2.5849978E-24
   2.250000     -2.6719115E-24
   2.260000     -2.7596368E-24
   2.270000     -2.8479914E-24
   2.280000     -2.9367465E-24
   2.290000     -3.0256247E-24
   2.300000     -3.1142968E-24
   2.310000     -3.2023877E-24
   2.320000     -3.2894762E-24
   2.330000     -3.3751000E-24
   2.340000     -3.4587610E-24
   2.350000     -3.5399321E-24
   2.360000     -3.6180668E-24
   2.370000     -3.6926050E-24
   2.380000     -3.7629837E-24
   2.390000     -3.8286410E-24
   2.400000     -3.8890279E-24
   2.410000     -3.9436099E-24
   2.420000     -3.9918717E-24
   2.430000     -4.0333196E-24
   2.440000     -4.0674796E-24
   2.450000     -4.0938950E-24
   2.460000     -4.1121240E-24
   2.470000     -4.1217280E-24
   2.480000     -4.1222660E-24
   2.490000     -4.1132856E-24
   2.500000     -4.0943100E-24
   2.510000     -4.0648302E-24
   2.520000     -4.0242950E-24
   2.530000     -3.9721032E-24
   2.540000     -3.9075980E-24
   2.550000     -3.8300633E-24
   2.560000     -3.7387226E-24
   2.570000     -3.6327451E-24
   2.580000     -3.5112503E-24
   2.590000     -3.3733219E-24
   2.600000     -3.2180218E-24
   2.610000     -3.0444061E-24
   2.620000     -2.8515456E-24
   2.630000     -2.6385508E-24
   2.640000     -2.4045944E-24
   2.650000     -2.1489330E-24
   2.660000     -1.8709317E-24
   2.670000     -1.5700841E-24
   2.680000     -1.2460282E-24
   2.690000     -8.9856266E-25
   2.700000     -5.2765590E-25
   2.710000     -1.3344960E-25
   2.720000      2.8373867E-25
   2.730000      7.2341858E-25
   2.740000      1.1849416E-24
   2.750000      1.6675129E-24
   2.760000      2.1702055E-24
   2.770000      2.6919746E-24
   2.780000      3.2316797E-24
   2.790000      3.7881014E-24
   2.800000      4.3599561E-24
   2.810000      4.9459074E-24
   2.820000      5.5445712E-24
   2.830000      6.1545196E-24
   2.840000      6.7742783E-24
   2.850000      7.4023094E-24
   2.860000      8.0369954E-24
   2.870000      8.6766204E-24
   2.880000      9.3193385E-24
   2.890000      9.9631421E-24
   2.900000      1.0605829E-23
   2.910000      1.1244957E-23
   2.920000      1.1877821E-23
   2.930000      1.2501427E-23
   2.940000      1.3112455E-23
   2.950000      1.3707241E-23
   2.960000      1.4281779E-23
   2.970000      1.4831710E-23
   2.980000      1.5352327E-23
   2.990000      1.5838598E-23
   3.000000      1.6285210E-23
   3.010000      1.6686592E-23
   3.020000      1.7036974E-23
   3.030000      1.7330438E-23
   3.040000      1.7560987E-23
   3.050000      1.7722606E-23
   3.060000      1.7809324E-23
   3.070000      1.7815286E-23
   3.080000      1.7734808E-23
   3.090000      1.7562432E-23
   3.100000      1.7292961E-23
   3.110000      1.6921492E-23
   3.120000      1.6443455E-23
   3.130000      1.5854607E-23
   3.140000      1.5151035E-23
   3.150000      1.4329168E-23
   3.160000      1.3385752E-23
   3.170000      1.2317832E-23
   3.180000      1.1122741E-23
   3.190000      9.7980847E-24
   3.200000      8.3417347E-24
   3.210000      6.7518274E-24
   3.220000      5.0267846E-24
   3.230000      3.1653286E-24
   3.240000      1.1665450E-24
   3.250000     -9.7006196E-25
   3.260000     -3.2444847E-24
   3.270000     -5.6561082E-24
   3.280000     -8.2035973E-24
   3.290000     -1.0884761E-23
   3.300000     -1.3696414E-23
   3.310000     -1.6634227E-23
   3.320000     -1.9692576E-23
   3.330000     -2.2864398E-23
   3.340000     -2.6141047E-23
   3.350000     -2.9512173E-23
   3.360000     -3.2965617E-23
   3.370000     -3.6487294E-23
   3.380000     -4.0061152E-23
   3.390000     -4.3669128E-23
   3.400000     -4.7291110E-23
   3.410000     -5.0904958E-23
   3.420000     -5.4486528E-23
   3.430000     -5.8009707E-23
   3.440000     -6.1446490E-23
   3.450000     -6.4767052E-23
   3.460000     -6.7939819E-23
   3.470000     -7.0931539E-23
   3.480000     -7.3707370E-23
   3.490000     -7.6230936E-23
   3.500000     -7.8464365E-23
   3.510000     -8.0368341E-23
   3.520000     -8.1902133E-23
   3.530000     -8.3023533E-23
   3.540000     -8.3688884E-23
   3.550000     -8.3853043E-23
   3.560000     -8.3469328E-23
   3.570000     -8.2489456E-23
   3.580000     -8.0863506E-23
   3.590000     -7.8539894E-23
   3.600000     -7.5465369E-23
   3.610000     -7.1584994E-23
   3.620000     -6.6842248E-23
   3.630000     -6.1179085E-23
   3.640000     -5.4536100E-23
   3.650000     -4.6852715E-23
   3.660000     -3.8067467E-23
   3.670000     -2.8118294E-23
   3.680000     -1.6942935E-23
   3.690000     -4.4793546E-24
   3.700000      9.3337912E-24
   3.710000      2.4556651E-23
   3.720000      4.1247596E-23
   3.730000      5.9462682E-23
   3.740000      7.9255082E-23
   3.750000      1.0067444E-22
   3.760000      1.2376634E-22
   3.770000      1.4857174E-22
   3.780000      1.7512636E-22
   3.790000      2.0346025E-22
   3.800000      2.3359719E-22
   3.810000      2.6555423E-22
   3.820000      2.9934121E-22
   3.830000      3.3496031E-22
   3.840000      3.7240563E-22
   3.850000      4.1166276E-22
   3.860000      4.5270816E-22
   3.870000      4.9550895E-22
   3.880000      5.4002212E-22
   3.890000      5.8619403E-22
   3.900000      6.3395998E-22
   3.910000      6.8324321E-22
   3.920000      7.3395432E-22
   3.930000      7.8599066E-22
   3.940000      8.3923516E-22
   3.950000      8.9355560E-22
   3.960000      9.4880332E-22
   3.970000      1.0048129E-21
   3.980000      1.0614005E-21
   3.990000      1.1183631E-21
   4.000000      1.1754778E-21
   4.010000      1.2325001E-21
   4.020000      1.2891640E-21
   4.030000      1.3451802E-21
   4.040000      1.4002359E-21
   4.050000      1.4539947E-21
   4.060000      1.5060949E-21
   4.070000      1.5561498E-21
   4.080000      1.6037479E-21
   4.090000      1.6484523E-21
   4.100000      1.6898007E-21
   4.110000      1.7273060E-21
   4.120000      1.7604558E-21
   4.130000      1.7887135E-21
   4.140000      1.8115183E-21
   4.150000      1.8282858E-21
   4.160000      1.8384093E-21
   4.170000      1.8412594E-21
   4.180000      1.8361861E-21
   4.190000      1.8225180E-21
   4.200000      1.7995641E-21
   4.210000      1.7666155E-21
   4.220000      1.7229441E-21
   4.230000      1.6678067E-21
   4.240000      1.6004441E-21
   4.250000      1.5200834E-21
   4.260000      1.4259395E-21
   4.270000      1.3172166E-21
   4.280000      1.1931100E-21
   4.290000      1.0528100E-21
   4.300000      8.9550298E-22
   4.310000      7.2037445E-22
   4.320000      5.2661279E-22
   4.330000      3.1341219E-22
   4.340000      7.9977205E-23
   4.350000     -1.7447242E-22
   4.360000     -4.5069858E-22
   4.370000     -7.4943800E-22
   4.380000     -1.0713981E-21
   4.390000     -1.4172519E-21
   4.400000     -1.7876304E-21
   4.410000     -2.1831183E-21
   4.420000     -2.6042463E-21
   4.430000     -3.0514852E-21
   4.440000     -3.5252398E-21
   4.450000     -4.0258396E-21
   4.460000     -4.5535356E-21
   4.470000     -5.1084893E-21
   4.480000     -5.6907688E-21
   4.490000     -6.3003395E-21
   4.500000     -6.9370557E-21
   4.510000     -7.6006573E-21
   4.520000     -8.2907578E-21
   4.530000     -9.0068401E-21
   4.540000     -9.7482468E-21
   4.550000     -1.0514171E-20
   4.560000     -1.1303649E-20
   4.570000     -1.2115553E-20
   4.580000     -1.2948584E-20
   4.590000     -1.3801256E-20
   4.600000     -1.4671896E-20
   4.610000     -1.5558634E-20
   4.620000     -1.6459387E-20
   4.630000     -1.7371856E-20
   4.640000     -1.8293519E-20
   4.650000     -1.9221618E-20
   4.660000     -2.0153154E-20
   4.670000     -2.1084876E-20
   4.680000     -2.2013276E-20
   4.690000     -2.2934587E-20
   4.700000     -2.3844764E-20
   4.710000     -2.4739484E-20
   4.720000     -2.5614147E-20
   4.730000     -2.6463867E-20
   4.740000     -2.7283473E-20
   4.750000     -2.8067489E-20
   4.760000     -2.8810148E-20
   4.770000     -2.9505406E-20
   4.780000     -3.0146914E-20
   4.790000     -3.0728034E-20
   4.800000     -3.1241846E-20
   4.810000     -3.1681150E-20
   4.820000     -3.2038476E-20
   4.830000     -3.2306069E-20
   4.840000     -3.2475922E-20
   4.850000     -3.2539780E-20
   4.860000     -3.2489154E-20
   4.870000     -3.2315326E-20
   4.880000     -3.2009363E-20
   4.890000     -3.1562139E-20
   4.900000     -3.0964362E-20
   4.910000     -3.0206568E-20
   4.920000     -2.9279179E-20
   4.930000     -2.8172489E-20
   4.940000     -2.6876723E-20
   4.950000     -2.5382047E-20
   4.960000     -2.3678602E-20
   4.970000     -2.1756543E-20
   4.980000     -1.9606064E-20
   4.990000     -1.7217438E-20
   5.000000     -1.4581084E-20
   5.010000     -1.1687591E-20
   5.020000     -8.5277604E-21
   5.030000     -5.0926655E-21
   5.040000     -1.3736980E-21
   5.050000      2.6373654E-21
   5.060000      6.9483147E-21
   5.070000      1.1566437E-20
   5.080000      1.6498465E-20
   5.090000      2.1750515E-20
   5.100000      2.7327992E-20
   5.110000      3.3235545E-20
   5.120000      3.9477001E-20
   5.130000      4.6055274E-20
   5.140000      5.2972297E-20
   5.150000      6.0228959E-20
   5.160000      6.7824997E-20
   5.170000      7.5758926E-20
   5.180000      8.4027966E-20
   5.190000      9.2627963E-20
   5.200000      1.0155328E-19
   5.210000      1.1079677E-19
   5.220000      1.2034962E-19
   5.230000      1.3020132E-19
   5.240000      1.4033954E-19
   5.250000      1.5075003E-19
   5.260000      1.6141665E-19
   5.270000      1.7232115E-19
   5.280000      1.8344317E-19
   5.290000      1.9476014E-19
   5.300000      2.0624715E-19
   5.310000      2.1787694E-19
   5.320000      2.2961983E-19
   5.330000      2.4144368E-19
   5.340000      2.5331367E-19
   5.350000      2.6519237E-19
   5.360000      2.7703972E-19
   5.370000      2.8881280E-19
   5.380000      3.0046599E-19
   5.390000      3.1195085E-19
   5.400000      3.2321604E-19
   5.410000      3.3420736E-19
   5.420000      3.4486770E-19
   5.430000      3.5513715E-19
   5.440000      3.6495294E-19
   5.450000      3.7424939E-19
   5.460000      3.8295795E-19
   5.470000      3.9100734E-19
   5.480000      3.9832363E-19
   5.490000      4.0483013E-19
   5.500000      4.1044756E-19
   5.510000      4.1509430E-19
   5.520000      4.1868620E-19
   5.530000      4.2113688E-19
   5.540000      4.2235788E-19
   5.550000      4.2225877E-19
   5.560000      4.2074731E-19
   5.570000      4.1772972E-19
   5.580000      4.1311083E-19
   5.590000      4.0679422E-19
   5.600000      3.9868255E-19
   5.610000      3.8867788E-19
   5.620000      3.7668197E-19
   5.630000      3.6259659E-19
   5.640000      3.4632354E-19
   5.650000      3.2776538E-19
   5.660000      3.0682574E-19
   5.670000      2.8340953E-19
   5.680000      2.5742341E-19
   5.690000      2.2877634E-19
   5.700000      1.9737992E-19
   5.710000      1.6314899E-19
   5.720000      1.2600206E-19
   5.730000      8.5861793E-20
   5.740000      4.2655539E-20
   5.750000     -3.6840338E-21
   5.760000     -5.3218380E-20
   5.770000     -1.0600254E-19
   5.780000     -1.6208454E-19
   5.790000     -2.2150483E-19
   5.800000     -2.8429551E-19
   5.810000     -3.5047971E-19
   5.820000     -4.2007098E-19
   5.830000     -4.9307270E-19
   5.840000     -5.6947740E-19
   5.850000     -6.4926585E-19
   5.860000     -7.3240619E-19
   5.870000     -8.1885375E-19
   5.880000     -9.0855016E-19
   5.890000     -1.0014226E-18
   5.900000     -1.0973834E-18
   5.910000     -1.1963289E-18
   5.920000     -1.2981388E-18
   5.930000     -1.4026757E-18
   5.940000     -1.5097846E-18
   5.950000     -1.6192919E-18
   5.960000     -1.7310048E-18
   5.970000     -1.8447108E-18
   5.980000     -1.9601775E-18
   5.990000     -2.0771514E-18
   6.000000     -2.1953584E-18
   6.010000     -2.3145020E-18
   6.020000     -2.4342639E-18
   6.030000     -2.5543029E-18
   6.040000     -2.6742553E-18
   6.050000     -2.7937339E-18
   6.060000     -2.9123288E-18
   6.070000     -3.0296063E-18
   6.080000     -3.1451082E-18
   6.090000     -3.2583540E-18
   6.100000     -3.3688395E-18
   6.110000     -3.4760367E-18
   6.120000     -3.5793950E-18
   6.130000     -3.6783398E-18
   6.140000     -3.7722757E-18
   6.150000     -3.8605851E-18
   6.160000     -3.9426286E-18
   6.170000     -4.0177473E-18
   6.180000     -4.0852606E-18
   6.190000     -4.1444710E-18
   6.200000     -4.1946631E-18
   6.210000     -4.2351044E-18
   6.220000     -4.2650483E-18
   6.230000     -4.2837331E-18
   6.240000     -4.2903852E-18
   6.250000     -4.2842211E-18
   6.260000     -4.2644482E-18
   6.270000     -4.2302682E-18
   6.280000     -4.1808769E-18
   6.290000     -4.1154688E-18
   6.300000     -4.0332371E-18
   6.310000     -3.9333791E-18
   6.320000     -3.8150960E-18
   6.330000     -3.6775983E-18
   6.340000     -3.5201060E-18
   6.350000     -3.3418550E-18
   6.360000     -3.1420987E-18
   6.370000     -2.9201126E-18
   6.380000     -2.6751939E-18
   6.390000     -2.4066698E-18
   6.400000     -2.1138998E-18
   6.410000     -1.7962785E-18
   6.420000     -1.4532403E-18
   6.430000     -1.0842633E-18
   6.440000     -6.8887379E-19
   6.450000     -2.6665162E-19
   6.460000      1.8276579E-19
   6.470000      6.5968145E-19
   6.480000      1.1643315E-18
   6.490000      1.6968793E-18
   6.500000      2.2574144E-18
   6.510000      2.8459453E-18
   6.520000      3.4623969E-18
   6.530000      4.1066035E-18
   6.540000      4.7783031E-18
   6.550000      5.4771334E-18
   6.560000      6.2026295E-18
   6.570000      6.9542191E-18
   6.580000      7.7312138E-18
   6.590000      8.5328089E-18
   6.600000      9.3580796E-18
   6.610000      1.0205972E-17
   6.620000      1.1075302E-17
   6.630000      1.1964751E-17
   6.640000      1.2872862E-17
   6.650000      1.3798033E-17
   6.660000      1.4738521E-17
   6.670000      1.5692430E-17
   6.680000      1.6657717E-17
   6.690000      1.7632179E-17
   6.700000      1.8613463E-17
   6.710000      1.9599050E-17
   6.720000      2.0586269E-17
   6.730000      2.1572280E-17
   6.740000      2.2554090E-17
   6.750000      2.3528544E-17
   6.760000      2.4492320E-17
   6.770000      2.5441940E-17
   6.780000      2.6373772E-17
   6.790000      2.7284018E-17
   6.800000      2.8168732E-17
   6.810000      2.9023816E-17
   6.820000      2.9845021E-17
   6.830000      3.0627964E-17
   6.840000      3.1368112E-17
   6.850000      3.2060812E-17
   6.860000      3.2701275E-17
   6.870000      3.3284600E-17
   6.880000      3.3805763E-17
   6.890000      3.4259654E-17
   6.900000      3.4641057E-17
   6.910000      3.4944692E-17
   6.920000      3.5165195E-17
   6.930000      3.5297147E-17
   6.940000      3.5335078E-17
   6.950000      3.5273496E-17
   6.960000      3.5106885E-17
   6.970000      3.4829727E-17
   6.980000      3.4436518E-17
   6.990000      3.3921780E-17
   7.000000      3.3280090E-17
   7.010000      3.2506097E-17
   7.020000      3.1594521E-17
   7.030000      3.0540210E-17
   7.040000      2.9338131E-17
   7.050000      2.7983388E-17
   7.060000      2.6471265E-17