  -2.600000      0.0000000E+00
  -2.590000      0.0000000E+00
  -2.580000      0.0000000E+00
  -2.570000      0.0000000E+00
  -2.560000      0.0000000E+00
  -2.550000      0.0000000E+00
  -2.540000      0.0000000E+00
  -2.530000      0.0000000E+00
  -2.520000      0.0000000E+00
  -2.510000      0.0000000E+00
  -2.500000      0.0000000E+00
  -2.490000      0.0000000E+00
  -2.480000      0.0000000E+00
  -2.470000      0.0000000E+00
  -2.460000      0.0000000E+00
  -2.450000      0.0000000E+00
  -2.440000      0.0000000E+00
  -2.430000      0.0000000E+00
  -2.420000      0.0000000E+00
  -2.410000      0.0000000E+00
  -2.400000      0.0000000E+00
  -2.390000      0.0000000E+00
  -2.380000      0.0000000E+00
  -2.370000      0.0000000E+00
  -2.360000      0.0000000E+00
  -2.350000      0.0000000E+00
  -2.340000      0.0000000E+00
  -2.330000      0.0000000E+00
  -2.320000      0.0000000E+00
  -2.310000      0.0000000E+00
  -2.300000      0.0000000E+00
  -2.290000      0.0000000E+00
  -2.280000      0.0000000E+00
  -2.270000      0.0000000E+00
  -2.260000      0.0000000E+00
  -2.250000      0.0000000E+00
  -2.240000      0.0000000E+00
  -2.230000      0.0000000E+00
  -2.220000      0.0000000E+00
  -2.210000      0.0000000E+00
  -2.200000      0.0000000E+00
  -2.190000      0.0000000E+00
  -2.180000      0.0000000E+00
  -2.170000      0.0000000E+00
  -2.160000      0.0000000E+00
  -2.150000      0.0000000E+00
  -2.140000      0.0000000E+00
  -2.130000      0.0000000E+00
  -2.120000      0.0000000E+00
  -2.110000      0.0000000E+00
  -2.100000      0.0000000E+00
  -2.090000      0.0000000E+00
  -2.080000      0.0000000E+00
  -2.070000      0.0000000E+00
  -2.060000      0.0000000E+00
  -2.050000      0.0000000E+00
  -2.040000      0.0000000E+00
  -2.030000      0.0000000E+00
  -2.020000      0.0000000E+00
  -2.010000      0.0000000E+00
  -2.000000      0.0000000E+00
  -1.990000      0.0000000E+00
  -1.980000      0.0000000E+00
  -1.970000      0.0000000E+00
  -1.960000      0.0000000E+00
  -1.950000      0.0000000E+00
  -1.940000      0.0000000E+00
  -1.930000      0.0000000E+00
  -1.920000      0.0000000E+00
  -1.910000      0.0000000E+00
  -1.900000      0.0000000E+00
  -1.890000      0.0000000E+00
  -1.880000      0.0000000E+00
  -1.870000      0.0000000E+00
  -1.860000      0.0000000E+00
  -1.850000      0.0000000E+00
  -1.840000      0.0000000E+00
  -1.830000      0.0000000E+00
  -1.820000      0.0000000E+00
  -1.810000      0.0000000E+00
  -1.800000      0.0000000E+00
  -1.790000      0.0000000E+00
  -1.780000      0.0000000E+00
  -1.770000      0.0000000E+00
  -1.760000      0.0000000E+00
  -1.750000      0.0000000E+00
  -1.740000      0.0000000E+00
  -1.730000      0.0000000E+00
  -1.720000      0.0000000E+00
  -1.710000      0.0000000E+00
  -1.700000      0.0000000E+00
  -1.690000      0.0000000E+00
  -1.680000      0.0000000E+00
  -1.670000      0.0000000E+00
  -1.660000      0.0000000E+00
  -1.650000      0.0000000E+00
  -1.640000      0.0000000E+00
  -1.630000      0.0000000E+00
  -1.620000      0.0000000E+00
  -1.610000      0.0000000E+00
  -1.600000      0.0000000E+00
  -1.590000      0.0000000E+00
  -1.580000      0.0000000E+00
  -1.570000      0.0000000E+00
  -1.560000      0.0000000E+00
  -1.550000      0.0000000E+00
  -1.540000      0.0000000E+00
  -1.530000      0.0000000E+00
  -1.520000      0.0000000E+00
  -1.510000      0.0000000E+00
  -1.500000      0.0000000E+00
  -1.490000      0.0000000E+00
  -1.480000      0.0000000E+00
  -1.470000      0.0000000E+00
  -1.460000      0.0000000E+00
  -1.450000      0.0000000E+00
  -1.440000      0.0000000E+00
  -1.430000      0.0000000E+00
  -1.420000      0.0000000E+00
  -1.410000      0.0000000E+00
  -1.400000      0.0000000E+00
  -1.390000      0.0000000E+00
  -1.380000      0.0000000E+00
  -1.370000      0.0000000E+00
  -1.360000      0.0000000E+00
  -1.350000      0.0000000E+00
  -1.340000      0.0000000E+00
  -1.330000      0.0000000E+00
  -1.320000      0.0000000E+00
  -1.310000      0.0000000E+00
  -1.300000      0.0000000E+00
  -1.290000      0.0000000E+00
  -1.280000      0.0000000E+00
  -1.270000      0.0000000E+00
  -1.260000      0.0000000E+00
  -1.250000      0.0000000E+00
  -1.240000      0.0000000E+00
  -1.230000      0.0000000E+00
  -1.220000      0.0000000E+00
  -1.210000      0.0000000E+00
  -1.200000      0.0000000E+00
  -1.190000      0.0000000E+00
  -1.180000      0.0000000E+00
  -1.170000      0.0000000E+00
  -1.160000      0.0000000E+00
  -1.150000      0.0000000E+00
  -1.140000      0.0000000E+00
  -1.130000      0.0000000E+00
  -1.120000      0.0000000E+00
  -1.110000      0.0000000E+00
  -1.100000      0.0000000E+00
  -1.090000      0.0000000E+00
  -1.080000      0.0000000E+00
  -1.070000      0.0000000E+00
  -1.060000      0.0000000E+00
  -1.050000      0.0000000E+00
  -1.040000      0.0000000E+00
  -1.030000      0.0000000E+00
  -1.020000      0.0000000E+00
  -1.010000      0.0000000E+00
  -1.000000      0.0000000E+00
 -0.9900000      0.0000000E+00
 -0.9800000      0.0000000E+00
 -0.9700000      0.0000000E+00
 -0.9600000      0.0000000E+00
 -0.9500000      0.0000000E+00
 -0.9400000      0.0000000E+00
 -0.9300000      0.0000000E+00
 -0.9200000      0.0000000E+00
 -0.9100000      0.0000000E+00
 -0.9000000      0.0000000E+00
 -0.8900000      0.0000000E+00
 -0.8800000      0.0000000E+00
 -0.8700000      0.0000000E+00
 -0.8600000      0.0000000E+00
 -0.8500000      0.0000000E+00
 -0.8400000      0.0000000E+00
 -0.8300000      0.0000000E+00
 -0.8200000      0.0000000E+00
 -0.8100000      0.0000000E+00
 -0.8000000      0.0000000E+00
 -0.7900000      0.0000000E+00
 -0.7800000      0.0000000E+00
 -0.7700000      0.0000000E+00
 -0.7600000      0.0000000E+00
 -0.7500000      0.0000000E+00
 -0.7400000      0.0000000E+00
 -0.7300000      0.0000000E+00
 -0.7200000      0.0000000E+00
 -0.7100000      0.0000000E+00
 -0.7000000      0.0000000E+00
 -0.6900000      0.0000000E+00
 -0.6800000      0.0000000E+00
 -0.6700000      0.0000000E+00
 -0.6600000      0.0000000E+00
 -0.6500000      0.0000000E+00
 -0.6400000      0.0000000E+00
 -0.6300000      0.0000000E+00
 -0.6200000      0.0000000E+00
 -0.6100000      0.0000000E+00
 -0.6000000      0.0000000E+00
 -0.5900000      0.0000000E+00
 -0.5800000      0.0000000E+00
 -0.5700000      0.0000000E+00
 -0.5600000      0.0000000E+00
 -0.5500000      0.0000000E+00
 -0.5400000      0.0000000E+00
 -0.5300000      0.0000000E+00
 -0.5200000      0.0000000E+00
 -0.5100000      0.0000000E+00
 -0.5000000      0.0000000E+00
 -0.4900000      0.0000000E+00
 -0.4800000      0.0000000E+00
 -0.4700000      0.0000000E+00
 -0.4600000      0.0000000E+00
 -0.4500000      0.0000000E+00
 -0.4400000      0.0000000E+00
 -0.4300000      0.0000000E+00
 -0.4200000      0.0000000E+00
 -0.4100000      0.0000000E+00
 -0.4000000      0.0000000E+00
 -0.3900000      0.0000000E+00
 -0.3800000      0.0000000E+00
 -0.3700000      0.0000000E+00
 -0.3600000      0.0000000E+00
 -0.3500000      0.0000000E+00
 -0.3400000      0.0000000E+00
 -0.3300000      0.0000000E+00
 -0.3200000      0.0000000E+00
 -0.3100000      0.0000000E+00
 -0.3000000      0.0000000E+00
 -0.2900000      0.0000000E+00
 -0.2800000      0.0000000E+00
 -0.2700000      0.0000000E+00
 -0.2600000      0.0000000E+00
 -0.2500000      0.0000000E+00
 -0.2400000      0.0000000E+00
 -0.2300000      0.0000000E+00
 -0.2200000      0.0000000E+00
 -0.2100000      0.0000000E+00
 -0.2000000      0.0000000E+00
 -0.1900000      0.0000000E+00
 -0.1800000      0.0000000E+00
 -0.1700000      0.0000000E+00
 -0.1600000      0.0000000E+00
 -0.1500000      0.0000000E+00
 -0.1400000      0.0000000E+00
 -0.1300000      0.0000000E+00
 -0.1200000      0.0000000E+00
 -0.1100000      0.0000000E+00
 -0.1000000      0.0000000E+00
 -9.0000004E-02  0.0000000E+00
 -7.9999998E-02  0.0000000E+00
 -7.0000000E-02  0.0000000E+00
 -5.9999999E-02  0.0000000E+00
 -5.0000001E-02  0.0000000E+00
 -3.9999999E-02  0.0000000E+00
 -2.9999999E-02  0.0000000E+00
 -2.0000000E-02  0.0000000E+00
 -9.9999998E-03  0.0000000E+00
 -3.4694470E-17  0.0000000E+00
  9.9999998E-03  0.0000000E+00
  2.0000000E-02  0.0000000E+00
  2.9999999E-02  0.0000000E+00
  3.9999999E-02  0.0000000E+00
  5.0000001E-02  0.0000000E+00
  5.9999999E-02  0.0000000E+00
  7.0000000E-02  0.0000000E+00
  7.9999998E-02  0.0000000E+00
  9.0000004E-02  0.0000000E+00
  0.1000000      0.0000000E+00
  0.1100000      0.0000000E+00
  0.1200000      0.0000000E+00
  0.1300000      0.0000000E+00
  0.1400000      0.0000000E+00
  0.1500000      0.0000000E+00
  0.1600000      0.0000000E+00
  0.1700000      0.0000000E+00
  0.1800000      0.0000000E+00
  0.1900000      0.0000000E+00
  0.2000000      0.0000000E+00
  0.2100000      0.0000000E+00
  0.2200000      0.0000000E+00
  0.2300000      0.0000000E+00
  0.2400000      0.0000000E+00
  0.2500000      0.0000000E+00
  0.2600000      0.0000000E+00
  0.2700000      0.0000000E+00
  0.2800000      0.0000000E+00
  0.2900000      0.0000000E+00
  0.3000000      0.0000000E+00
  0.3100000      0.0000000E+00
  0.3200000      0.0000000E+00
  0.3300000      0.0000000E+00
  0.3400000      0.0000000E+00
  0.3500000      0.0000000E+00
  0.3600000      0.0000000E+00
  0.3700000      0.0000000E+00
  0.3800000      0.0000000E+00
  0.3900000      0.0000000E+00
  0.4000000      0.0000000E+00
  0.4100000      0.0000000E+00
  0.4200000      0.0000000E+00
  0.4300000      0.0000000E+00
  0.4400000      0.0000000E+00
  0.4500000      0.0000000E+00
  0.4600000      0.0000000E+00
  0.4700000      0.0000000E+00
  0.4800000      0.0000000E+00
  0.4900000      0.0000000E+00
  0.5000000      0.0000000E+00
  0.5100000      0.0000000E+00
  0.5200000      0.0000000E+00
  0.5300000      0.0000000E+00
  0.5400000      0.0000000E+00
  0.5500000      0.0000000E+00
  0.5600000      0.0000000E+00
  0.5700000      0.0000000E+00
  0.5800000      0.0000000E+00
  0.5900000      0.0000000E+00
  0.6000000      0.0000000E+00
  0.6100000      0.0000000E+00
  0.6200000      0.0000000E+00
  0.6300000      0.0000000E+00
  0.6400000      0.0000000E+00
  0.6500000      0.0000000E+00
  0.6600000      0.0000000E+00
  0.6700000      0.0000000E+00
  0.6800000      0.0000000E+00
  0.6900000      0.0000000E+00
  0.7000000      0.0000000E+00
  0.7100000      0.0000000E+00
  0.7200000      0.0000000E+00
  0.7300000      0.0000000E+00
  0.7400000      0.0000000E+00
  0.7500000      0.0000000E+00
  0.7600000      0.0000000E+00
  0.7700000      0.0000000E+00
  0.7800000      0.0000000E+00
  0.7900000      0.0000000E+00
  0.8000000      0.0000000E+00
  0.8100000      0.0000000E+00
  0.8200000      0.0000000E+00
  0.8300000      0.0000000E+00
  0.8400000      0.0000000E+00
  0.8500000      0.0000000E+00
  0.8600000      0.0000000E+00
  0.8700000      0.0000000E+00
  0.8800000      0.0000000E+00
  0.8900000      0.0000000E+00
  0.9000000      0.0000000E+00
  0.9100000      0.0000000E+00
  0.9200000      0.0000000E+00
  0.9300000      0.0000000E+00
  0.9400000      0.0000000E+00
  0.9500000      0.0000000E+00
  0.9600000      0.0000000E+00
  0.9700000      0.0000000E+00
  0.9800000      0.0000000E+00
  0.9900000      0.0000000E+00
   1.000000      0.0000000E+00
   1.010000      0.0000000E+00
   1.020000      0.0000000E+00
   1.030000      0.0000000E+00
   1.040000      0.0000000E+00
   1.050000      0.0000000E+00
   1.060000      0.0000000E+00
   1.070000      0.0000000E+00
   1.080000      0.0000000E+00
   1.090000      0.0000000E+00
   1.100000      0.0000000E+00
   1.110000      0.0000000E+00
   1.120000      0.0000000E+00
   1.130000      0.0000000E+00
   1.140000      0.0000000E+00
   1.150000      0.0000000E+00
   1.160000      0.0000000E+00
   1.170000      0.0000000E+00
   1.180000      0.0000000E+00
   1.190000      0.0000000E+00
   1.200000      0.0000000E+00
   1.210000      0.0000000E+00
   1.220000      0.0000000E+00
   1.230000      0.0000000E+00
   1.240000      0.0000000E+00
   1.250000      0.0000000E+00
   1.260000      0.0000000E+00
   1.270000      0.0000000E+00
   1.280000      0.0000000E+00
   1.290000      0.0000000E+00
   1.300000      0.0000000E+00
   1.310000      0.0000000E+00
   1.320000      0.0000000E+00
   1.330000      0.0000000E+00
   1.340000      0.0000000E+00
   1.350000      0.0000000E+00
   1.360000      0.0000000E+00
   1.370000      0.0000000E+00
   1.380000      0.0000000E+00
   1.390000      0.0000000E+00
   1.400000      0.0000000E+00
   1.410000      0.0000000E+00
   1.420000      0.0000000E+00
   1.430000      0.0000000E+00
   1.440000      0.0000000E+00
   1.450000      0.0000000E+00
   1.460000      0.0000000E+00
   1.470000      0.0000000E+00
   1.480000      0.0000000E+00
   1.490000      0.0000000E+00
   1.500000      0.0000000E+00
   1.510000      0.0000000E+00
   1.520000      0.0000000E+00
   1.530000      0.0000000E+00
   1.540000      0.0000000E+00
   1.550000      0.0000000E+00
   1.560000      0.0000000E+00
   1.570000      0.0000000E+00
   1.580000      0.0000000E+00
   1.590000      0.0000000E+00
   1.600000      0.0000000E+00
   1.610000      0.0000000E+00
   1.620000      0.0000000E+00
   1.630000      0.0000000E+00
   1.640000      0.0000000E+00
   1.650000      0.0000000E+00
   1.660000      0.0000000E+00
   1.670000      0.0000000E+00
   1.680000      0.0000000E+00
   1.690000      0.0000000E+00
   1.700000      0.0000000E+00
   1.710000      0.0000000E+00
   1.720000      0.0000000E+00
   1.730000      0.0000000E+00
   1.740000      0.0000000E+00
   1.750000      0.0000000E+00
   1.760000      0.0000000E+00
   1.770000      0.0000000E+00
   1.780000      0.0000000E+00
   1.790000      0.0000000E+00
   1.800000      0.0000000E+00
   1.810000      0.0000000E+00
   1.820000      0.0000000E+00
   1.830000      0.0000000E+00
   1.840000      0.0000000E+00
   1.850000      0.0000000E+00
   1.860000      0.0000000E+00
   1.870000      0.0000000E+00
   1.880000      0.0000000E+00
   1.890000      0.0000000E+00
   1.900000      0.0000000E+00
   1.910000      0.0000000E+00
   1.920000      0.0000000E+00
   1.930000      0.0000000E+00
   1.940000      0.0000000E+00
   1.950000      0.0000000E+00
   1.960000      0.0000000E+00
   1.970000      0.0000000E+00
   1.980000      1.3335237E-38
   1.990000      1.6529864E-38
   2.000000      1.9745590E-38
   2.010000      2.2944016E-38
   2.020000      2.6085617E-38
   2.030000      2.9129657E-38
   2.040000      3.2031298E-38
   2.050000      3.4740608E-38
   2.060000      3.8068619E-38
   2.070000      4.2056658E-38
   2.080000      4.5069766E-38
   2.090000      4.7257047E-38
   2.100000      4.9593393E-38
   2.110000      5.2050127E-38
   2.120000      5.4600490E-38
   2.130000      5.7220504E-38
   2.140000      5.8900066E-38
   2.150000      5.9192355E-38
   2.160000      5.8596926E-38
   2.170000      5.7006638E-38
   2.180000      5.4306347E-38
   2.190000      5.0384947E-38
   2.200000      4.5137413E-38
   2.210000      3.8461055E-38
   2.220000      3.0703873E-38
   2.230000      2.2082936E-38
   2.240000      1.2409200E-38
   2.250000      0.0000000E+00
   2.260000      0.0000000E+00
   2.270000     -2.2932888E-38
   2.280000     -3.7884665E-38
   2.290000     -5.5313796E-38
   2.300000     -8.0193665E-38
   2.310000     -1.1133795E-37
   2.320000     -1.4323908E-37
   2.330000     -1.8019955E-37
   2.340000     -2.2225264E-37
   2.350000     -2.6632606E-37
   2.360000     -3.1195545E-37
   2.370000     -3.5863548E-37
   2.380000     -4.0773481E-37
   2.390000     -4.5738185E-37
   2.400000     -5.0603040E-37
   2.410000     -5.3923848E-37
   2.420000     -5.5514876E-37
   2.430000     -5.6863728E-37
   2.440000     -5.8038886E-37
   2.450000     -5.9755398E-37
   2.460000     -6.2117776E-37
   2.470000     -6.6000297E-37
   2.480000     -7.1037366E-37
   2.490000     -7.5506320E-37
   2.500000     -7.9453901E-37
   2.510000     -8.2309931E-37
   2.520000     -8.2639992E-37
   2.530000     -8.0674344E-37
   2.540000     -7.7569237E-37
   2.550000     -7.3121938E-37
   2.560000     -6.5419890E-37
   2.570000     -5.4330624E-37
   2.580000     -3.9432391E-37
   2.590000     -1.9623826E-37
   2.600000      1.7288695E-38
   2.610000      1.9974261E-37
   2.620000      3.4909035E-37
   2.630000      5.1281847E-37
   2.640000      6.9300707E-37
   2.650000      8.7653448E-37
   2.660000      1.0774283E-36
   2.670000      1.2954372E-36
   2.680000      1.5445335E-36
   2.690000      1.8188633E-36
   2.700000      2.1422423E-36
   2.710000      2.5189634E-36
   2.720000      2.9350402E-36
   2.730000      3.3976016E-36
   2.740000      3.8132918E-36
   2.750000      4.1496500E-36
   2.760000      4.4616457E-36
   2.770000      4.7628514E-36
   2.780000      5.0597538E-36
   2.790000      5.3514689E-36
   2.800000      5.6663674E-36
   2.810000      5.9833053E-36
   2.820000      6.2432985E-36
   2.830000      6.2933359E-36
   2.840000      6.1638263E-36
   2.850000      5.8146534E-36
   2.860000      5.1806115E-36
   2.870000      4.4161559E-36
   2.880000      3.1144939E-36
   2.890000      1.2409597E-36
   2.900000     -8.0745652E-37
   2.910000     -3.0252890E-36
   2.920000     -5.4256311E-36
   2.930000     -7.9768097E-36
   2.940000     -1.0228213E-35
   2.950000     -1.1419033E-35
   2.960000     -1.2036211E-35
   2.970000     -1.2941764E-35
   2.980000     -1.4066629E-35
   2.990000     -1.4797486E-35
   3.000000     -1.4931664E-35
   3.010000     -1.4828327E-35
   3.020000     -1.4572409E-35
   3.030000     -1.4222560E-35
   3.040000     -1.3819377E-35
   3.050000     -1.3192825E-35
   3.060000     -1.2121198E-35
   3.070000     -1.0539365E-35
   3.080000     -8.8698776E-36
   3.090000     -7.2940300E-36
   3.100000     -5.7383352E-36
   3.110000     -4.2558635E-36
   3.120000     -2.9659403E-36
   3.130000     -1.9764175E-36
   3.140000     -1.1641987E-36
   3.150000     -9.1871979E-37
   3.160000     -9.5279686E-37
   3.170000     -1.0207906E-36
   3.180000     -1.3868688E-36
   3.190000     -1.7681328E-36
   3.200000     -2.0278788E-36
   3.210000     -2.2053688E-36
   3.220000     -2.2948496E-36
   3.230000     -2.3653446E-36
   3.240000     -2.3190165E-36
   3.250000     -1.6585928E-36
   3.260000     -3.0747856E-37
   3.270000      1.6474709E-36
   3.280000      4.3953907E-36
   3.290000      7.7054401E-36
   3.300000      1.1474539E-35
   3.310000      1.5944609E-35
   3.320000      2.1316520E-35
   3.330000      2.7462008E-35
   3.340000      3.4068128E-35
   3.350000      4.1405681E-35
   3.360000      5.0033333E-35
   3.370000      6.0145075E-35
   3.380000      7.1124043E-35
   3.390000      8.3095644E-35
   3.400000      9.4860994E-35
   3.410000      1.0509265E-34
   3.420000      1.1414306E-34
   3.430000      1.2202193E-34
   3.440000      1.2792212E-34
   3.450000      1.3112817E-34
   3.460000      1.3225268E-34
   3.470000      1.3075036E-34
   3.480000      1.2678743E-34
   3.490000      1.2117184E-34
   3.500000      1.1360950E-34
   3.510000      1.0442931E-34
   3.520000      9.4082309E-35
   3.530000      8.2729111E-35
   3.540000      7.0778277E-35
   3.550000      5.8341570E-35
   3.560000      4.6599044E-35
   3.570000      3.6873349E-35
   3.580000      2.9001630E-35
   3.590000      2.2486646E-35
   3.600000      1.6631339E-35
   3.610000      1.1490125E-35
   3.620000      7.0593738E-36
   3.630000      3.1774913E-36
   3.640000     -5.7057425E-37
   3.650000     -4.6951809E-36
   3.660000     -9.7461095E-36
   3.670000     -1.6867367E-35
   3.680000     -2.6475511E-35
   3.690000     -3.8286962E-35
   3.700000     -5.2535735E-35
   3.710000     -6.8046515E-35
   3.720000     -8.4530074E-35
   3.730000     -1.0279627E-34
   3.740000     -1.2355832E-34
   3.750000     -1.4697099E-34
   3.760000     -1.7242778E-34
   3.770000     -2.0004108E-34
   3.780000     -2.2893542E-34
   3.790000     -2.5919866E-34
   3.800000     -2.9053987E-34
   3.810000     -3.2218172E-34
   3.820000     -3.5405438E-34
   3.830000     -3.8584564E-34
   3.840000     -4.1684467E-34
   3.850000     -4.5022761E-34
   3.860000     -4.8581923E-34
   3.870000     -5.2002796E-34
   3.880000     -5.5366059E-34
   3.890000     -5.8246829E-34
   3.900000     -6.0481081E-34
   3.910000     -6.2366551E-34
   3.920000     -6.3890317E-34
   3.930000     -6.5004374E-34
   3.940000     -6.5922251E-34
   3.950000     -6.6606348E-34
   3.960000     -6.7011076E-34
   3.970000     -6.7182937E-34
   3.980000     -6.7048301E-34
   3.990000     -6.6654171E-34
   4.000000     -6.6250508E-34
   4.010000     -6.6019725E-34
   4.020000     -6.5595253E-34
   4.030000     -6.4895296E-34
   4.040000     -6.3951870E-34
   4.050000     -6.2648931E-34
   4.060000     -6.0960549E-34
   4.070000     -5.8892823E-34
   4.080000     -5.6373986E-34
   4.090000     -5.3452391E-34
   4.100000     -5.0159772E-34
   4.110000     -4.6226834E-34
   4.120000     -4.1540423E-34
   4.130000     -3.6066300E-34
   4.140000     -3.0021588E-34
   4.150000     -2.3536489E-34
   4.160000     -1.6220830E-34
   4.170000     -8.1275585E-35
   4.180000      8.6473882E-36
   4.190000      1.1228164E-34
   4.200000      2.2945117E-34
   4.210000      3.5885400E-34
   4.220000      4.9975587E-34
   4.230000      6.5157335E-34
   4.240000      8.1400100E-34
   4.250000      9.8718971E-34
   4.260000      1.1714496E-33
   4.270000      1.3664039E-33
   4.280000      1.5699669E-33
   4.290000      1.7806445E-33
   4.300000      1.9981312E-33
   4.310000      2.2219613E-33
   4.320000      2.4507096E-33
   4.330000      2.6831311E-33
   4.340000      2.9175129E-33
   4.350000      3.1513692E-33
   4.360000      3.3851684E-33
   4.370000      3.6204568E-33
   4.380000      3.8562408E-33
   4.390000      4.0913503E-33
   4.400000      4.3228790E-33
   4.410000      4.5500510E-33
   4.420000      4.7733659E-33
   4.430000      4.9933931E-33
   4.440000      5.2093248E-33
   4.450000      5.4195208E-33
   4.460000      5.6259960E-33
   4.470000      5.8245286E-33
   4.480000      6.0117841E-33
   4.490000      6.1891996E-33
   4.500000      6.3546446E-33
   4.510000      6.5045194E-33
   4.520000      6.6378109E-33
   4.530000      6.7523217E-33
   4.540000      6.8455825E-33
   4.550000      6.9162120E-33
   4.560000      6.9604679E-33
   4.570000      6.9751983E-33
   4.580000      6.9550180E-33
   4.590000      6.8965894E-33
   4.600000      6.7981608E-33
   4.610000      6.6559943E-33
   4.620000      6.4667860E-33
   4.630000      6.2293839E-33
   4.640000      5.9399599E-33
   4.650000      5.5923831E-33
   4.660000      5.1859545E-33
   4.670000      4.7181948E-33
   4.680000      4.1857080E-33
   4.690000      3.5871900E-33
   4.700000      2.9196986E-33
   4.710000      2.1804770E-33
   4.720000      1.3695385E-33
   4.730000      4.8526184E-34
   4.740000     -4.7472335E-34
   4.750000     -1.5113559E-33
   4.760000     -2.6255849E-33
   4.770000     -3.8187998E-33
   4.780000     -5.0917195E-33
   4.790000     -6.4445163E-33
   4.800000     -7.8778766E-33
   4.810000     -9.3921066E-33
   4.820000     -1.0987199E-32
   4.830000     -1.2662753E-32
   4.840000     -1.4418880E-32
   4.850000     -1.6254252E-32
   4.860000     -1.8167675E-32
   4.870000     -2.0158529E-32
   4.880000     -2.2224446E-32
   4.890000     -2.4363309E-32
   4.900000     -2.6572303E-32
   4.910000     -2.8847675E-32
   4.920000     -3.1185686E-32
   4.930000     -3.3581199E-32
   4.940000     -3.6028643E-32
   4.950000     -3.8522343E-32
   4.960000     -4.1055072E-32
   4.970000     -4.3619448E-32
   4.980000     -4.6205727E-32
   4.990000     -4.8804994E-32
   5.000000     -5.1407865E-32
   5.010000     -5.4001417E-32
   5.020000     -5.6573463E-32
   5.030000     -5.9112472E-32
   5.040000     -6.1604321E-32
   5.050000     -6.4033033E-32
   5.060000     -6.6382870E-32
   5.070000     -6.8637162E-32
   5.080000     -7.0778067E-32
   5.090000     -7.2786869E-32
   5.100000     -7.4644379E-32
   5.110000     -7.6330873E-32
   5.120000     -7.7824350E-32
   5.130000     -7.9101854E-32
   5.140000     -8.0141978E-32
   5.150000     -8.0921108E-32
   5.160000     -8.1414274E-32
   5.170000     -8.1597070E-32
   5.180000     -8.1444038E-32
   5.190000     -8.0928878E-32
   5.200000     -8.0024781E-32
   5.210000     -7.8704366E-32
   5.220000     -7.6939820E-32
   5.230000     -7.4702501E-32
   5.240000     -7.1963923E-32
   5.250000     -6.8695449E-32
   5.260000     -6.4867458E-32
   5.270000     -6.0451031E-32
   5.280000     -5.5416277E-32
   5.290000     -4.9735372E-32
   5.300000     -4.3378739E-32
   5.310000     -3.6316231E-32
   5.320000     -2.8521325E-32
   5.330000     -1.9966728E-32
   5.340000     -1.0626185E-32
   5.350000     -4.7465130E-34
   5.360000      1.0511543E-32
   5.370000      2.2354517E-32
   5.380000      3.5074577E-32
   5.390000      4.8690008E-32
   5.400000      6.3217246E-32
   5.410000      7.8668837E-32
   5.420000      9.5055228E-32
   5.430000      1.1238477E-31
   5.440000      1.3066118E-31
   5.450000      1.4988483E-31
   5.460000      1.7005223E-31
   5.470000      1.9115562E-31
   5.480000      2.1318272E-31
   5.490000      2.3611640E-31
   5.500000      2.5993455E-31
   5.510000      2.8460956E-31
   5.520000      3.1010806E-31
   5.530000      3.3639089E-31
   5.540000      3.6341268E-31
   5.550000      3.9112137E-31
   5.560000      4.1945823E-31
   5.570000      4.4835729E-31
   5.580000      4.7774531E-31
   5.590000      5.0754150E-31
   5.600000      5.3765720E-31
   5.610000      5.6799544E-31
   5.620000      5.9845104E-31
   5.630000      6.2891012E-31
   5.640000      6.5925019E-31
   5.650000      6.8933965E-31
   5.660000      7.1903772E-31
   5.670000      7.4819458E-31
   5.680000      7.7665076E-31
   5.690000      8.0423750E-31
   5.700000      8.3077659E-31
   5.710000      8.5608009E-31
   5.720000      8.7995071E-31
   5.730000      9.0218166E-31
   5.740000      9.2255693E-31
   5.750000      9.4085129E-31
   5.760000      9.5683040E-31
   5.770000      9.7025163E-31
   5.780000      9.8086352E-31
   5.790000      9.8840681E-31
   5.800000      9.9261451E-31
   5.810000      9.9321251E-31
   5.820000      9.8992037E-31
   5.830000      9.8245157E-31
   5.840000      9.7051437E-31
   5.850000      9.5381276E-31
   5.860000      9.3204721E-31
   5.870000      9.0491530E-31
   5.880000      8.7211327E-31
   5.890000      8.3333644E-31
   5.900000      7.8828106E-31
   5.910000      7.3664516E-31
   5.920000      6.7812981E-31
   5.930000      6.1244074E-31
   5.940000      5.3928987E-31
   5.950000      4.5839658E-31
   5.960000      3.6948940E-31
   5.970000      2.7230809E-31
   5.980000      1.6660501E-31
   5.990000      5.2147110E-32
   6.000000     -7.1282101E-32
   6.010000     -2.0388056E-31
   6.020000     -3.4582557E-31
   6.030000     -4.9727135E-31
   6.040000     -6.5834723E-31
   6.050000     -8.2915506E-31
   6.060000     -1.0097670E-30
   6.070000     -1.2002233E-30
   6.080000     -1.4005289E-30
   6.090000     -1.6106520E-30
   6.100000     -1.8305221E-30
   6.110000     -2.0600249E-30
   6.120000     -2.2990021E-30
   6.130000     -2.5472485E-30
   6.140000     -2.8045076E-30
   6.150000     -3.0704712E-30
   6.160000     -3.3447757E-30
   6.170000     -3.6269993E-30
   6.180000     -3.9166607E-30
   6.190000     -4.2132148E-30
   6.200000     -4.5160526E-30
   6.210000     -4.8244955E-30
   6.220000     -5.1377962E-30
   6.230000     -5.4551368E-30
   6.240000     -5.7756224E-30
   6.250000     -6.0982841E-30
   6.260000     -6.4220751E-30
   6.270000     -6.7458706E-30
   6.280000     -7.0684616E-30
   6.290000     -7.3885617E-30
   6.300000     -7.7047994E-30
   6.310000     -8.0157204E-30
   6.320000     -8.3197887E-30
   6.330000     -8.6153828E-30
   6.340000     -8.9007973E-30
   6.350000     -9.1742463E-30
   6.360000     -9.4338601E-30
   6.370000     -9.6776889E-30
   6.380000     -9.9037043E-30
   6.390000     -1.0109798E-29
   6.400000     -1.0293790E-29
   6.410000     -1.0453428E-29
   6.420000     -1.0586392E-29
   6.430000     -1.0690295E-29
   6.440000     -1.0762694E-29
   6.450000     -1.0801085E-29
   6.460000     -1.0802920E-29
   6.470000     -1.0765602E-29
   6.480000     -1.0686502E-29
   6.490000     -1.0562953E-29
   6.500000     -1.0392272E-29
   6.510000     -1.0171758E-29
   6.520000     -9.8987066E-30
   6.530000     -9.5704146E-30
   6.540000     -9.1841949E-30
   6.550000     -8.7373829E-30
   6.560000     -8.2273523E-30
   6.570000     -7.6515226E-30
   6.580000     -7.0073757E-30
   6.590000     -6.2924668E-30
   6.600000     -5.5044368E-30
   6.610000     -4.6410319E-30
   6.620000     -3.7001139E-30
   6.630000     -2.6796782E-30
   6.640000     -1.5778678E-30
   6.650000     -3.9299219E-31
   6.660000      8.7645583E-31
   6.670000      2.2317853E-30
   6.680000      3.6740841E-30
   6.690000      5.2042035E-30
   6.700000      6.8227400E-30
   6.710000      8.5300159E-30
   6.720000      1.0326057E-29
   6.730000      1.2210578E-29
   6.740000      1.4182962E-29
   6.750000      1.6242235E-29
   6.760000      1.8387056E-29
   6.770000      2.0615688E-29
   6.780000      2.2925983E-29
   6.790000      2.5315362E-29
   6.800000      2.7780802E-29
   6.810000      3.0318808E-29
   6.820000      3.2925400E-29
   6.830000      3.5596096E-29
   6.840000      3.8325889E-29
   6.850000      4.1109239E-29
   6.860000      4.3940065E-29
   6.870000      4.6811701E-29
   6.880000      4.9716928E-29
   6.890000      5.2647919E-29
   6.900000      5.5596265E-29
   6.910000      5.8552935E-29
   6.920000      6.1508286E-29
   6.930000      6.4452052E-29
   6.940000      6.7373351E-29
   6.950000      7.0260669E-29
   6.960000      7.3101861E-29
   6.970000      7.5884168E-29
   6.980000      7.8594216E-29
   6.990000      8.1218013E-29
   7.000000      8.3740957E-29
   7.010000      8.6147876E-29
   7.020000      8.8423007E-29
   7.030000      9.0550040E-29
   7.040000      9.2512147E-29
   7.050000      9.4291977E-29
   7.060000      9.5871703E-29