  -2.600000      0.0000000E+00
  -2.590000      0.0000000E+00
  -2.580000      0.0000000E+00
  -2.570000      0.0000000E+00
  -2.560000      0.0000000E+00
  -2.550000      0.0000000E+00
  -2.540000      0.0000000E+00
  -2.530000      0.0000000E+00
  -2.520000      0.0000000E+00
  -2.510000      0.0000000E+00
  -2.500000      0.0000000E+00
  -2.490000      0.0000000E+00
  -2.480000      0.0000000E+00
  -2.470000      0.0000000E+00
  -2.460000      0.0000000E+00
  -2.450000      0.0000000E+00
  -2.440000      0.0000000E+00
  -2.430000      0.0000000E+00
  -2.420000      0.0000000E+00
  -2.410000      0.0000000E+00
  -2.400000      0.0000000E+00
  -2.390000      0.0000000E+00
  -2.380000      0.0000000E+00
  -2.370000      0.0000000E+00
  -2.360000      0.0000000E+00
  -2.350000      0.0000000E+00
  -2.340000      0.0000000E+00
  -2.330000      0.0000000E+00
  -2.320000      0.0000000E+00
  -2.310000      0.0000000E+00
  -2.300000      0.0000000E+00
  -2.290000      0.0000000E+00
  -2.280000      0.0000000E+00
  -2.270000      0.0000000E+00
  -2.260000      0.0000000E+00
  -2.250000      0.0000000E+00
  -2.240000      0.0000000E+00
  -2.230000      0.0000000E+00
  -2.220000      0.0000000E+00
  -2.210000      0.0000000E+00
  -2.200000      0.0000000E+00
  -2.190000      0.0000000E+00
  -2.180000      0.0000000E+00
  -2.170000      0.0000000E+00
  -2.160000      0.0000000E+00
  -2.150000      0.0000000E+00
  -2.140000      0.0000000E+00
  -2.130000      0.0000000E+00
  -2.120000      0.0000000E+00
  -2.110000      0.0000000E+00
  -2.100000      0.0000000E+00
  -2.090000      0.0000000E+00
  -2.080000      0.0000000E+00
  -2.070000      0.0000000E+00
  -2.060000      0.0000000E+00
  -2.050000      0.0000000E+00
  -2.040000      0.0000000E+00
  -2.030000      0.0000000E+00
  -2.020000      0.0000000E+00
  -2.010000      0.0000000E+00
  -2.000000      0.0000000E+00
  -1.990000      0.0000000E+00
  -1.980000      0.0000000E+00
  -1.970000      0.0000000E+00
  -1.960000      0.0000000E+00
  -1.950000      0.0000000E+00
  -1.940000      0.0000000E+00
  -1.930000      0.0000000E+00
  -1.920000      0.0000000E+00
  -1.910000      0.0000000E+00
  -1.900000      0.0000000E+00
  -1.890000      0.0000000E+00
  -1.880000      0.0000000E+00
  -1.870000      0.0000000E+00
  -1.860000      0.0000000E+00
  -1.850000      0.0000000E+00
  -1.840000      0.0000000E+00
  -1.830000      0.0000000E+00
  -1.820000      0.0000000E+00
  -1.810000      0.0000000E+00
  -1.800000      0.0000000E+00
  -1.790000      0.0000000E+00
  -1.780000      0.0000000E+00
  -1.770000      0.0000000E+00
  -1.760000      0.0000000E+00
  -1.750000      0.0000000E+00
  -1.740000      0.0000000E+00
  -1.730000      0.0000000E+00
  -1.720000      0.0000000E+00
  -1.710000      0.0000000E+00
  -1.700000      0.0000000E+00
  -1.690000      0.0000000E+00
  -1.680000      0.0000000E+00
  -1.670000      0.0000000E+00
  -1.660000      0.0000000E+00
  -1.650000      0.0000000E+00
  -1.640000      0.0000000E+00
  -1.630000      0.0000000E+00
  -1.620000      0.0000000E+00
  -1.610000      0.0000000E+00
  -1.600000      0.0000000E+00
  -1.590000      0.0000000E+00
  -1.580000      0.0000000E+00
  -1.570000      0.0000000E+00
  -1.560000      0.0000000E+00
  -1.550000      0.0000000E+00
  -1.540000      0.0000000E+00
  -1.530000      0.0000000E+00
  -1.520000      0.0000000E+00
  -1.510000      0.0000000E+00
  -1.500000      0.0000000E+00
  -1.490000      0.0000000E+00
  -1.480000      0.0000000E+00
  -1.470000      0.0000000E+00
  -1.460000      0.0000000E+00
  -1.450000      0.0000000E+00
  -1.440000      0.0000000E+00
  -1.430000      0.0000000E+00
  -1.420000      0.0000000E+00
  -1.410000      0.0000000E+00
  -1.400000      0.0000000E+00
  -1.390000      0.0000000E+00
  -1.380000      0.0000000E+00
  -1.370000      0.0000000E+00
  -1.360000      0.0000000E+00
  -1.350000      0.0000000E+00
  -1.340000      0.0000000E+00
  -1.330000      0.0000000E+00
  -1.320000      0.0000000E+00
  -1.310000      0.0000000E+00
  -1.300000      0.0000000E+00
  -1.290000      0.0000000E+00
  -1.280000      0.0000000E+00
  -1.270000      0.0000000E+00
  -1.260000      0.0000000E+00
  -1.250000      0.0000000E+00
  -1.240000      0.0000000E+00
  -1.230000      0.0000000E+00
  -1.220000      0.0000000E+00
  -1.210000      0.0000000E+00
  -1.200000      0.0000000E+00
  -1.190000      0.0000000E+00
  -1.180000      0.0000000E+00
  -1.170000      0.0000000E+00
  -1.160000      0.0000000E+00
  -1.150000      0.0000000E+00
  -1.140000      0.0000000E+00
  -1.130000      0.0000000E+00
  -1.120000      0.0000000E+00
  -1.110000      0.0000000E+00
  -1.100000      0.0000000E+00
  -1.090000      0.0000000E+00
  -1.080000      0.0000000E+00
  -1.070000      0.0000000E+00
  -1.060000      0.0000000E+00
  -1.050000      0.0000000E+00
  -1.040000      0.0000000E+00
  -1.030000      0.0000000E+00
  -1.020000      0.0000000E+00
  -1.010000      0.0000000E+00
  -1.000000      0.0000000E+00
 -0.9900000      0.0000000E+00
 -0.9800000      0.0000000E+00
 -0.9700000      0.0000000E+00
 -0.9600000      0.0000000E+00
 -0.9500000      0.0000000E+00
 -0.9400000      0.0000000E+00
 -0.9300000      0.0000000E+00
 -0.9200000      0.0000000E+00
 -0.9100000      0.0000000E+00
 -0.9000000      0.0000000E+00
 -0.8900000      0.0000000E+00
 -0.8800000      0.0000000E+00
 -0.8700000      0.0000000E+00
 -0.8600000      0.0000000E+00
 -0.8500000      0.0000000E+00
 -0.8400000      0.0000000E+00
 -0.8300000      0.0000000E+00
 -0.8200000      0.0000000E+00
 -0.8100000      0.0000000E+00
 -0.8000000      0.0000000E+00
 -0.7900000      0.0000000E+00
 -0.7800000      0.0000000E+00
 -0.7700000      0.0000000E+00
 -0.7600000      0.0000000E+00
 -0.7500000      0.0000000E+00
 -0.7400000      0.0000000E+00
 -0.7300000      0.0000000E+00
 -0.7200000      0.0000000E+00
 -0.7100000      0.0000000E+00
 -0.7000000      0.0000000E+00
 -0.6900000      0.0000000E+00
 -0.6800000      0.0000000E+00
 -0.6700000      0.0000000E+00
 -0.6600000      0.0000000E+00
 -0.6500000      0.0000000E+00
 -0.6400000      0.0000000E+00
 -0.6300000      0.0000000E+00
 -0.6200000      0.0000000E+00
 -0.6100000      0.0000000E+00
 -0.6000000      0.0000000E+00
 -0.5900000      0.0000000E+00
 -0.5800000      0.0000000E+00
 -0.5700000      0.0000000E+00
 -0.5600000      0.0000000E+00
 -0.5500000      0.0000000E+00
 -0.5400000      0.0000000E+00
 -0.5300000      0.0000000E+00
 -0.5200000      0.0000000E+00
 -0.5100000      0.0000000E+00
 -0.5000000      0.0000000E+00
 -0.4900000      0.0000000E+00
 -0.4800000      0.0000000E+00
 -0.4700000      0.0000000E+00
 -0.4600000      0.0000000E+00
 -0.4500000      0.0000000E+00
 -0.4400000      0.0000000E+00
 -0.4300000      0.0000000E+00
 -0.4200000      0.0000000E+00
 -0.4100000      0.0000000E+00
 -0.4000000      0.0000000E+00
 -0.3900000      0.0000000E+00
 -0.3800000      0.0000000E+00
 -0.3700000      0.0000000E+00
 -0.3600000      0.0000000E+00
 -0.3500000      0.0000000E+00
 -0.3400000      0.0000000E+00
 -0.3300000      0.0000000E+00
 -0.3200000      0.0000000E+00
 -0.3100000      0.0000000E+00
 -0.3000000      0.0000000E+00
 -0.2900000      0.0000000E+00
 -0.2800000      0.0000000E+00
 -0.2700000      0.0000000E+00
 -0.2600000      0.0000000E+00
 -0.2500000      0.0000000E+00
 -0.2400000      0.0000000E+00
 -0.2300000      0.0000000E+00
 -0.2200000      0.0000000E+00
 -0.2100000      0.0000000E+00
 -0.2000000      0.0000000E+00
 -0.1900000      0.0000000E+00
 -0.1800000      0.0000000E+00
 -0.1700000      0.0000000E+00
 -0.1600000      0.0000000E+00
 -0.1500000      0.0000000E+00
 -0.1400000      0.0000000E+00
 -0.1300000      0.0000000E+00
 -0.1200000      0.0000000E+00
 -0.1100000      0.0000000E+00
 -0.1000000      0.0000000E+00
 -9.0000004E-02  0.0000000E+00
 -7.9999998E-02  0.0000000E+00
 -7.0000000E-02  0.0000000E+00
 -5.9999999E-02  0.0000000E+00
 -5.0000001E-02  0.0000000E+00
 -3.9999999E-02  0.0000000E+00
 -2.9999999E-02  0.0000000E+00
 -2.0000000E-02  0.0000000E+00
 -9.9999998E-03  0.0000000E+00
 -3.4694470E-17  0.0000000E+00
  9.9999998E-03  0.0000000E+00
  2.0000000E-02  0.0000000E+00
  2.9999999E-02  0.0000000E+00
  3.9999999E-02  0.0000000E+00
  5.0000001E-02  0.0000000E+00
  5.9999999E-02  0.0000000E+00
  7.0000000E-02  0.0000000E+00
  7.9999998E-02  0.0000000E+00
  9.0000004E-02  0.0000000E+00
  0.1000000      0.0000000E+00
  0.1100000      0.0000000E+00
  0.1200000      0.0000000E+00
  0.1300000      0.0000000E+00
  0.1400000      0.0000000E+00
  0.1500000      0.0000000E+00
  0.1600000      0.0000000E+00
  0.1700000      0.0000000E+00
  0.1800000      0.0000000E+00
  0.1900000      0.0000000E+00
  0.2000000      0.0000000E+00
  0.2100000      0.0000000E+00
  0.2200000      0.0000000E+00
  0.2300000      0.0000000E+00
  0.2400000      0.0000000E+00
  0.2500000      0.0000000E+00
  0.2600000      0.0000000E+00
  0.2700000      0.0000000E+00
  0.2800000      0.0000000E+00
  0.2900000      0.0000000E+00
  0.3000000      0.0000000E+00
  0.3100000      0.0000000E+00
  0.3200000      0.0000000E+00
  0.3300000      0.0000000E+00
  0.3400000      0.0000000E+00
  0.3500000      0.0000000E+00
  0.3600000      0.0000000E+00
  0.3700000      0.0000000E+00
  0.3800000      0.0000000E+00
  0.3900000      0.0000000E+00
  0.4000000      0.0000000E+00
  0.4100000      0.0000000E+00
  0.4200000      0.0000000E+00
  0.4300000      0.0000000E+00
  0.4400000      0.0000000E+00
  0.4500000      0.0000000E+00
  0.4600000      0.0000000E+00
  0.4700000      0.0000000E+00
  0.4800000      0.0000000E+00
  0.4900000      0.0000000E+00
  0.5000000      0.0000000E+00
  0.5100000      0.0000000E+00
  0.5200000      0.0000000E+00
  0.5300000      0.0000000E+00
  0.5400000      0.0000000E+00
  0.5500000      0.0000000E+00
  0.5600000      0.0000000E+00
  0.5700000      0.0000000E+00
  0.5800000      0.0000000E+00
  0.5900000      0.0000000E+00
  0.6000000      0.0000000E+00
  0.6100000      0.0000000E+00
  0.6200000      0.0000000E+00
  0.6300000      0.0000000E+00
  0.6400000      0.0000000E+00
  0.6500000      0.0000000E+00
  0.6600000      0.0000000E+00
  0.6700000      0.0000000E+00
  0.6800000      0.0000000E+00
  0.6900000      0.0000000E+00
  0.7000000      0.0000000E+00
  0.7100000      0.0000000E+00
  0.7200000      0.0000000E+00
  0.7300000      0.0000000E+00
  0.7400000      0.0000000E+00
  0.7500000      0.0000000E+00
  0.7600000      0.0000000E+00
  0.7700000      0.0000000E+00
  0.7800000      0.0000000E+00
  0.7900000      0.0000000E+00
  0.8000000      0.0000000E+00
  0.8100000      0.0000000E+00
  0.8200000      0.0000000E+00
  0.8300000      0.0000000E+00
  0.8400000      0.0000000E+00
  0.8500000      0.0000000E+00
  0.8600000      0.0000000E+00
  0.8700000      0.0000000E+00
  0.8800000      0.0000000E+00
  0.8900000      0.0000000E+00
  0.9000000      0.0000000E+00
  0.9100000      0.0000000E+00
  0.9200000      0.0000000E+00
  0.9300000      0.0000000E+00
  0.9400000      0.0000000E+00
  0.9500000      0.0000000E+00
  0.9600000      0.0000000E+00
  0.9700000      0.0000000E+00
  0.9800000      0.0000000E+00
  0.9900000      0.0000000E+00
   1.000000      0.0000000E+00
   1.010000      0.0000000E+00
   1.020000      0.0000000E+00
   1.030000      0.0000000E+00
   1.040000      0.0000000E+00
   1.050000      0.0000000E+00
   1.060000      0.0000000E+00
   1.070000      0.0000000E+00
   1.080000      0.0000000E+00
   1.090000      0.0000000E+00
   1.100000      0.0000000E+00
   1.110000      0.0000000E+00
   1.120000      0.0000000E+00
   1.130000      0.0000000E+00
   1.140000      0.0000000E+00
   1.150000      0.0000000E+00
   1.160000      0.0000000E+00
   1.170000      0.0000000E+00
   1.180000      0.0000000E+00
   1.190000      0.0000000E+00
   1.200000      0.0000000E+00
   1.210000      0.0000000E+00
   1.220000      0.0000000E+00
   1.230000      0.0000000E+00
   1.240000      0.0000000E+00
   1.250000      0.0000000E+00
   1.260000      0.0000000E+00
   1.270000      0.0000000E+00
   1.280000      0.0000000E+00
   1.290000      0.0000000E+00
   1.300000      0.0000000E+00
   1.310000      0.0000000E+00
   1.320000      0.0000000E+00
   1.330000      0.0000000E+00
   1.340000      0.0000000E+00
   1.350000      0.0000000E+00
   1.360000      0.0000000E+00
   1.370000      0.0000000E+00
   1.380000      0.0000000E+00
   1.390000      0.0000000E+00
   1.400000      0.0000000E+00
   1.410000      0.0000000E+00
   1.420000      0.0000000E+00
   1.430000      0.0000000E+00
   1.440000      0.0000000E+00
   1.450000      0.0000000E+00
   1.460000      0.0000000E+00
   1.470000      0.0000000E+00
   1.480000      0.0000000E+00
   1.490000      0.0000000E+00
   1.500000      0.0000000E+00
   1.510000      0.0000000E+00
   1.520000      0.0000000E+00
   1.530000      0.0000000E+00
   1.540000      0.0000000E+00
   1.550000      0.0000000E+00
   1.560000      0.0000000E+00
   1.570000      0.0000000E+00
   1.580000      0.0000000E+00
   1.590000      0.0000000E+00
   1.600000      0.0000000E+00
   1.610000      0.0000000E+00
   1.620000      0.0000000E+00
   1.630000      0.0000000E+00
   1.640000      0.0000000E+00
   1.650000      0.0000000E+00
   1.660000      0.0000000E+00
   1.670000      0.0000000E+00
   1.680000      0.0000000E+00
   1.690000      0.0000000E+00
   1.700000      0.0000000E+00
   1.710000      0.0000000E+00
   1.720000      0.0000000E+00
   1.730000      0.0000000E+00
   1.740000      0.0000000E+00
   1.750000      0.0000000E+00
   1.760000      0.0000000E+00
   1.770000      0.0000000E+00
   1.780000      0.0000000E+00
   1.790000      0.0000000E+00
   1.800000      0.0000000E+00
   1.810000      0.0000000E+00
   1.820000      0.0000000E+00
   1.830000      0.0000000E+00
   1.840000      0.0000000E+00
   1.850000      0.0000000E+00
   1.860000      0.0000000E+00
   1.870000      0.0000000E+00
   1.880000      0.0000000E+00
   1.890000      0.0000000E+00
   1.900000      1.3266811E-38
   1.910000      1.9446117E-38
   1.920000      2.5517553E-38
   1.930000      3.1118579E-38
   1.940000      3.5991575E-38
   1.950000      3.8218529E-38
   1.960000      3.8218529E-38
   1.970000      3.8218529E-38
   1.980000      3.8218529E-38
   1.990000      3.8218529E-38
   2.000000      3.8218529E-38
   2.010000      3.8218529E-38
   2.020000      4.0068538E-38
   2.030000      4.6012526E-38
   2.040000      5.2739443E-38
   2.050000      5.8265648E-38
   2.060000      6.4142212E-38
   2.070000      7.0027884E-38
   2.080000      7.5597222E-38
   2.090000      8.0571018E-38
   2.100000      7.4054852E-38
   2.110000      5.4367611E-38
   2.120000      3.0857259E-38
   2.130000      0.0000000E+00
   2.140000     -2.4739271E-38
   2.150000     -5.2963006E-38
   2.160000     -7.9196647E-38
   2.170000     -1.0433010E-37
   2.180000     -1.2791697E-37
   2.190000     -1.5173380E-37
   2.200000     -1.7562871E-37
   2.210000     -1.9773301E-37
   2.220000     -2.1862305E-37
   2.230000     -2.3910188E-37
   2.240000     -2.6081682E-37
   2.250000     -2.8742389E-37
   2.260000     -3.2561957E-37
   2.270000     -3.7002914E-37
   2.280000     -4.1689939E-37
   2.290000     -4.7043944E-37
   2.300000     -5.2790003E-37
   2.310000     -5.8692223E-37
   2.320000     -6.4514396E-37
   2.330000     -6.9460464E-37
   2.340000     -7.3032080E-37
   2.350000     -7.5238194E-37
   2.360000     -7.6019137E-37
   2.370000     -7.5867653E-37
   2.380000     -7.4756941E-37
   2.390000     -7.3930121E-37
   2.400000     -7.3877388E-37
   2.410000     -7.3431645E-37
   2.420000     -7.2554001E-37
   2.430000     -7.1309541E-37
   2.440000     -6.9763068E-37
   2.450000     -6.2505203E-37
   2.460000     -4.8502967E-37
   2.470000     -3.2664776E-37
   2.480000     -1.4943910E-37
   2.490000      4.9837079E-38
   2.500000      2.6822891E-37
   2.510000      5.0499779E-37
   2.520000      7.6745229E-37
   2.530000      1.0572028E-36
   2.540000      1.3673062E-36
   2.550000      1.6932873E-36
   2.560000      1.9753091E-36
   2.570000      2.2009621E-36
   2.580000      2.3973549E-36
   2.590000      2.5185164E-36
   2.600000      2.5881255E-36
   2.610000      2.6692859E-36
   2.620000      2.8106594E-36
   2.630000      3.3050121E-36
   2.640000      4.3516731E-36
   2.650000      5.7020835E-36
   2.660000      7.1914519E-36
   2.670000      8.8498374E-36
   2.680000      1.0449273E-35
   2.690000      1.1634911E-35
   2.700000      1.2651861E-35
   2.710000      1.3338642E-35
   2.720000      1.3489217E-35
   2.730000      1.3415870E-35
   2.740000      1.3050903E-35
   2.750000      1.2437286E-35
   2.760000      1.1640889E-35
   2.770000      1.0646834E-35
   2.780000      9.4978186E-36
   2.790000      8.2062886E-36
   2.800000      6.8775596E-36
   2.810000      5.4989854E-36
   2.820000      3.9935326E-36
   2.830000      2.4428879E-36
   2.840000      9.3990751E-37
   2.850000     -2.3971905E-37
   2.860000     -9.8523497E-37
   2.870000     -1.3809116E-36
   2.880000     -1.5106754E-36
   2.890000     -1.3862393E-36
   2.900000     -1.2926657E-36
   2.910000     -1.3918242E-36
   2.920000     -2.2690522E-36
   2.930000     -3.9754693E-36
   2.940000     -5.7523333E-36
   2.950000     -7.5897223E-36
   2.960000     -9.7594565E-36
   2.970000     -1.2395465E-35
   2.980000     -1.5391048E-35
   2.990000     -1.8809637E-35
   3.000000     -2.2143901E-35
   3.010000     -2.5552504E-35
   3.020000     -2.9408722E-35
   3.030000     -3.3421979E-35
   3.040000     -3.7119141E-35
   3.050000     -4.0416228E-35
   3.060000     -4.3885764E-35
   3.070000     -4.7661279E-35
   3.080000     -5.1635593E-35
   3.090000     -5.5794857E-35
   3.100000     -5.9995762E-35
   3.110000     -6.3930603E-35
   3.120000     -6.7441417E-35
   3.130000     -7.0388447E-35
   3.140000     -7.2971825E-35
   3.150000     -7.5344521E-35
   3.160000     -7.7421823E-35
   3.170000     -7.8738865E-35
   3.180000     -7.8946183E-35
   3.190000     -7.8048159E-35
   3.200000     -7.6188386E-35
   3.210000     -7.3869311E-35
   3.220000     -7.1023357E-35
   3.230000     -6.7554553E-35
   3.240000     -6.3435421E-35
   3.250000     -5.7880906E-35
   3.260000     -5.1061592E-35
   3.270000     -4.3760156E-35
   3.280000     -3.5671369E-35
   3.290000     -2.6673792E-35
   3.300000     -1.7261358E-35
   3.310000     -7.5345608E-36
   3.320000      2.6891844E-36
   3.330000      1.4584141E-35
   3.340000      2.8366934E-35
   3.350000      4.2843457E-35
   3.360000      5.7398660E-35
   3.370000      6.9863211E-35
   3.380000      7.7364547E-35
   3.390000      8.3299829E-35
   3.400000      9.3070184E-35
   3.410000      1.0554360E-34
   3.420000      1.1819300E-34
   3.430000      1.3038089E-34
   3.440000      1.4238105E-34
   3.450000      1.5494003E-34
   3.460000      1.6784662E-34
   3.470000      1.8078649E-34
   3.480000      1.9382106E-34
   3.490000      2.0706179E-34
   3.500000      2.1952816E-34
   3.510000      2.3094139E-34
   3.520000      2.3985374E-34
   3.530000      2.4748275E-34
   3.540000      2.5738521E-34
   3.550000      2.6801616E-34
   3.560000      2.7780380E-34
   3.570000      2.8650588E-34
   3.580000      2.9599290E-34
   3.590000      3.0523651E-34
   3.600000      3.1184641E-34
   3.610000      3.1555331E-34
   3.620000      3.1790861E-34
   3.630000      3.2056231E-34
   3.640000      3.2133050E-34
   3.650000      3.2265160E-34
   3.660000      3.2362551E-34
   3.670000      3.2008257E-34
   3.680000      3.1007071E-34
   3.690000      2.9555797E-34
   3.700000      2.7368247E-34
   3.710000      2.4521997E-34
   3.720000      2.1529840E-34
   3.730000      1.8059904E-34
   3.740000      1.4013333E-34
   3.750000      9.3789405E-35
   3.760000      4.1504757E-35
   3.770000     -1.4936906E-35
   3.780000     -7.2401234E-35
   3.790000     -1.2869950E-34
   3.800000     -1.8518085E-34
   3.810000     -2.4370262E-34
   3.820000     -3.0390404E-34
   3.830000     -3.6404387E-34
   3.840000     -4.2175709E-34
   3.850000     -4.7956221E-34
   3.860000     -5.4008809E-34
   3.870000     -6.0223597E-34
   3.880000     -6.6349139E-34
   3.890000     -7.2350029E-34
   3.900000     -7.8398145E-34
   3.910000     -8.4524004E-34
   3.920000     -9.0671435E-34
   3.930000     -9.6861139E-34
   3.940000     -1.0309202E-33
   3.950000     -1.0907045E-33
   3.960000     -1.1490928E-33
   3.970000     -1.2115067E-33
   3.980000     -1.2777546E-33
   3.990000     -1.3429966E-33
   4.000000     -1.4096609E-33
   4.010000     -1.4763827E-33
   4.020000     -1.5363019E-33
   4.030000     -1.5932590E-33
   4.040000     -1.6503583E-33
   4.050000     -1.7040732E-33
   4.060000     -1.7518901E-33
   4.070000     -1.7959127E-33
   4.080000     -1.8360388E-33
   4.090000     -1.8690621E-33
   4.100000     -1.8935901E-33
   4.110000     -1.9088825E-33
   4.120000     -1.9146632E-33
   4.130000     -1.9089158E-33
   4.140000     -1.8891269E-33
   4.150000     -1.8569655E-33
   4.160000     -1.8102238E-33
   4.170000     -1.7460038E-33
   4.180000     -1.6676184E-33
   4.190000     -1.5764114E-33
   4.200000     -1.4690506E-33
   4.210000     -1.3464327E-33
   4.220000     -1.2097268E-33
   4.230000     -1.0545559E-33
   4.240000     -8.8251028E-34
   4.250000     -6.9436998E-34
   4.260000     -4.8700869E-34
   4.270000     -2.6128551E-34
   4.280000     -1.8076625E-35
   4.290000      2.4314469E-34
   4.300000      5.2233096E-34
   4.310000      8.1849846E-34
   4.320000      1.1318401E-33
   4.330000      1.4628021E-33
   4.340000      1.8111126E-33
   4.350000      2.1767117E-33
   4.360000      2.5593971E-33
   4.370000      2.9601391E-33
   4.380000      3.3797241E-33
   4.390000      3.8160011E-33
   4.400000      4.2685271E-33
   4.410000      4.7383072E-33
   4.420000      5.2221245E-33
   4.430000      5.7204764E-33
   4.440000      6.2352731E-33
   4.450000      6.7649053E-33
   4.460000      7.3086369E-33
   4.470000      7.8654575E-33
   4.480000      8.4349882E-33
   4.490000      9.0139588E-33
   4.500000      9.5978306E-33
   4.510000      1.0185799E-32
   4.520000      1.0774607E-32
   4.530000      1.1363882E-32
   4.540000      1.1952948E-32
   4.550000      1.2535522E-32
   4.560000      1.3109408E-32
   4.570000      1.3671718E-32
   4.580000      1.4214939E-32
   4.590000      1.4734964E-32
   4.600000      1.5229445E-32
   4.610000      1.5694323E-32
   4.620000      1.6125070E-32
   4.630000      1.6516804E-32
   4.640000      1.6865014E-32
   4.650000      1.7165020E-32
   4.660000      1.7411878E-32
   4.670000      1.7600518E-32
   4.680000      1.7726283E-32
   4.690000      1.7784270E-32
   4.700000      1.7767914E-32
   4.710000      1.7672729E-32
   4.720000      1.7494168E-32
   4.730000      1.7225076E-32
   4.740000      1.6859889E-32
   4.750000      1.6392592E-32
   4.760000      1.5816999E-32
   4.770000      1.5127028E-32
   4.780000      1.4316241E-32
   4.790000      1.3377974E-32
   4.800000      1.2305807E-32
   4.810000      1.1093521E-32
   4.820000      9.7343025E-33
   4.830000      8.2211386E-33
   4.840000      6.5473081E-33
   4.850000      4.7068013E-33
   4.860000      2.6931481E-33
   4.870000      5.0020623E-34
   4.880000     -1.8773025E-33
   4.890000     -4.4449284E-33
   4.900000     -7.2075106E-33
   4.910000     -1.0169484E-32
   4.920000     -1.3335290E-32
   4.930000     -1.6708997E-32
   4.940000     -2.0293682E-32
   4.950000     -2.4091112E-32
   4.960000     -2.8103116E-32
   4.970000     -3.2330720E-32
   4.980000     -3.6773707E-32
   4.990000     -4.1431362E-32
   5.000000     -4.6300842E-32
   5.010000     -5.1379195E-32
   5.020000     -5.6662754E-32
   5.030000     -6.2145489E-32
   5.040000     -6.7821028E-32
   5.050000     -7.3680856E-32
   5.060000     -7.9714786E-32
   5.070000     -8.5912251E-32
   5.080000     -9.2260919E-32
   5.090000     -9.8746639E-32
   5.100000     -1.0535359E-31
   5.110000     -1.1206464E-31
   5.120000     -1.1886010E-31
   5.130000     -1.2571860E-31
   5.140000     -1.3261622E-31
   5.150000     -1.3952670E-31
   5.160000     -1.4642141E-31
   5.170000     -1.5327247E-31
   5.180000     -1.6004927E-31
   5.190000     -1.6671550E-31
   5.200000     -1.7323466E-31
   5.210000     -1.7956752E-31
   5.220000     -1.8567177E-31
   5.230000     -1.9150292E-31
   5.240000     -1.9701446E-31
   5.250000     -2.0215668E-31
   5.260000     -2.0687737E-31
   5.270000     -2.1112226E-31
   5.280000     -2.1483445E-31
   5.290000     -2.1795450E-31
   5.300000     -2.2042127E-31
   5.310000     -2.2217013E-31
   5.320000     -2.2313412E-31
   5.330000     -2.2324573E-31
   5.340000     -2.2243475E-31
   5.350000     -2.2062910E-31
   5.360000     -2.1775497E-31
   5.370000     -2.1373727E-31
   5.380000     -2.0849988E-31
   5.390000     -2.0196559E-31
   5.400000     -1.9405616E-31
   5.410000     -1.8469320E-31
   5.420000     -1.7379809E-31
   5.430000     -1.6129211E-31
   5.440000     -1.4709726E-31
   5.450000     -1.3113619E-31
   5.460000     -1.1333270E-31
   5.470000     -9.3612356E-32
   5.480000     -7.1902668E-32
   5.490000     -4.8133640E-32
   5.500000     -2.2238011E-32
   5.510000      5.8477226E-33
   5.520000      3.6183083E-32
   5.530000      6.8823366E-32
   5.540000      1.0381864E-31
   5.550000      1.4121329E-31
   5.560000      1.8104538E-31
   5.570000      2.2334614E-31
   5.580000      2.6813898E-31
   5.590000      3.1543904E-31
   5.600000      3.6525292E-31
   5.610000      4.1757683E-31
   5.620000      4.7239667E-31
   5.630000      5.2968730E-31
   5.640000      5.8941182E-31
   5.650000      6.5152066E-31
   5.660000      7.1595059E-31
   5.670000      7.8262430E-31
   5.680000      8.5144968E-31
   5.690000      9.2231901E-31
   5.700000      9.9510797E-31
   5.710000      1.0696756E-30
   5.720000      1.1458629E-30
   5.730000      1.2234924E-30
   5.740000      1.3023678E-30
   5.750000      1.3822728E-30
   5.760000      1.4629710E-30
   5.770000      1.5442051E-30
   5.780000      1.6256963E-30
   5.790000      1.7071439E-30
   5.800000      1.7882250E-30
   5.810000      1.8685942E-30
   5.820000      1.9478831E-30
   5.830000      2.0257001E-30
   5.840000      2.1016297E-30
   5.850000      2.1752339E-30
   5.860000      2.2460503E-30
   5.870000      2.3135941E-30
   5.880000      2.3773568E-30
   5.890000      2.4368069E-30
   5.900000      2.4913907E-30
   5.910000      2.5405326E-30
   5.920000      2.5836352E-30
   5.930000      2.6200808E-30
   5.940000      2.6492319E-30
   5.950000      2.6704328E-30
   5.960000      2.6830092E-30
   5.970000      2.6862715E-30
   5.980000      2.6795153E-30
   5.990000      2.6620224E-30
   6.000000      2.6330643E-30
   6.010000      2.5919024E-30
   6.020000      2.5377913E-30
   6.030000      2.4699807E-30
   6.040000      2.3877175E-30
   6.050000      2.2902491E-30
   6.060000      2.1768261E-30
   6.070000      2.0467049E-30
   6.080000      1.8991509E-30
   6.090000      1.7334427E-30
   6.100000      1.5488750E-30
   6.110000      1.3447614E-30
   6.120000      1.1204402E-30
   6.130000      8.7527761E-31
   6.140000      6.0867196E-31
   6.150000      3.2005765E-31
   6.160000      8.9099144E-33
   6.170000     -3.2524774E-31
   6.180000     -6.8284307E-31
   6.190000     -1.0642475E-30
   6.200000     -1.4697702E-30
   6.210000     -1.8996536E-30
   6.220000     -2.3540679E-30
   6.230000     -2.8331058E-30
   6.240000     -3.3367759E-30
   6.250000     -3.8649961E-30
   6.260000     -4.4175898E-30
   6.270000     -4.9942798E-30
   6.280000     -5.5946798E-30
   6.290000     -6.2182914E-30
   6.300000     -6.8644966E-30
   6.310000     -7.5325520E-30
   6.320000     -8.2215805E-30
   6.330000     -8.9305710E-30
   6.340000     -9.6583671E-30
   6.350000     -1.0403667E-29
   6.360000     -1.1165012E-29
   6.370000     -1.1940787E-29
   6.380000     -1.2729214E-29
   6.390000     -1.3528346E-29
   6.400000     -1.4336060E-29
   6.410000     -1.5150060E-29
   6.420000     -1.5967867E-29
   6.430000     -1.6786824E-29
   6.440000     -1.7604082E-29
   6.450000     -1.8416607E-29
   6.460000     -1.9221174E-29
   6.470000     -2.0014366E-29
   6.480000     -2.0792574E-29
   6.490000     -2.1551999E-29
   6.500000     -2.2288649E-29
   6.510000     -2.2998343E-29
   6.520000     -2.3676712E-29
   6.530000     -2.4319202E-29
   6.540000     -2.4921081E-29
   6.550000     -2.5477441E-29
   6.560000     -2.5983211E-29
   6.570000     -2.6433145E-29
   6.580000     -2.6821846E-29
   6.590000     -2.7143780E-29
   6.600000     -2.7393263E-29
   6.610000     -2.7564499E-29
   6.620000     -2.7651581E-29
   6.630000     -2.7648494E-29
   6.640000     -2.7549140E-29
   6.650000     -2.7347360E-29
   6.660000     -2.7036951E-29
   6.670000     -2.6611660E-29
   6.680000     -2.6065244E-29
   6.690000     -2.5391454E-29
   6.700000     -2.4584086E-29
   6.710000     -2.3636986E-29
   6.720000     -2.2544081E-29
   6.730000     -2.1299411E-29
   6.740000     -1.9897155E-29
   6.750000     -1.8331662E-29
   6.760000     -1.6597467E-29
   6.770000     -1.4689336E-29
   6.780000     -1.2602294E-29
   6.790000     -1.0331666E-29
   6.800000     -7.8730985E-30
   6.810000     -5.2226029E-30
   6.820000     -2.3765942E-30
   6.830000      6.6807656E-31
   6.840000      3.9140832E-30
   6.850000      7.3635817E-30
   6.860000      1.1018177E-29
   6.870000      1.4878876E-29
   6.880000      1.8946060E-29
   6.890000      2.3219433E-29
   6.900000      2.7697972E-29
   6.910000      3.2379917E-29
   6.920000      3.7262706E-29
   6.930000      4.2342927E-29
   6.940000      4.7616307E-29
   6.950000      5.3077648E-29
   6.960000      5.8720804E-29
   6.970000      6.4538617E-29
   6.980000      7.0522938E-29
   6.990000      7.6664524E-29
   7.000000      8.2953053E-29
   7.010000      8.9377064E-29
   7.020000      9.5923950E-29
   7.030000      1.0257993E-28
   7.040000      1.0932999E-28
   7.050000      1.1615791E-28
   7.060000      1.2304620E-28