  -2.600000      0.0000000E+00
  -2.590000      0.0000000E+00
  -2.580000      0.0000000E+00
  -2.570000      0.0000000E+00
  -2.560000      0.0000000E+00
  -2.550000      0.0000000E+00
  -2.540000      0.0000000E+00
  -2.530000      0.0000000E+00
  -2.520000      0.0000000E+00
  -2.510000      0.0000000E+00
  -2.500000      0.0000000E+00
  -2.490000      0.0000000E+00
  -2.480000      0.0000000E+00
  -2.470000      0.0000000E+00
  -2.460000      0.0000000E+00
  -2.450000      0.0000000E+00
  -2.440000      0.0000000E+00
  -2.430000      0.0000000E+00
  -2.420000      0.0000000E+00
  -2.410000      0.0000000E+00
  -2.400000      0.0000000E+00
  -2.390000      0.0000000E+00
  -2.380000      0.0000000E+00
  -2.370000      0.0000000E+00
  -2.360000      0.0000000E+00
  -2.350000      0.0000000E+00
  -2.340000      0.0000000E+00
  -2.330000      0.0000000E+00
  -2.320000      0.0000000E+00
  -2.310000      0.0000000E+00
  -2.300000      0.0000000E+00
  -2.290000      0.0000000E+00
  -2.280000      0.0000000E+00
  -2.270000      0.0000000E+00
  -2.260000      0.0000000E+00
  -2.250000      0.0000000E+00
  -2.240000      0.0000000E+00
  -2.230000      0.0000000E+00
  -2.220000      0.0000000E+00
  -2.210000      0.0000000E+00
  -2.200000      0.0000000E+00
  -2.190000      0.0000000E+00
  -2.180000      0.0000000E+00
  -2.170000      0.0000000E+00
  -2.160000      0.0000000E+00
  -2.150000      0.0000000E+00
  -2.140000      0.0000000E+00
  -2.130000      0.0000000E+00
  -2.120000      0.0000000E+00
  -2.110000      0.0000000E+00
  -2.100000      0.0000000E+00
  -2.090000      0.0000000E+00
  -2.080000      0.0000000E+00
  -2.070000      0.0000000E+00
  -2.060000      0.0000000E+00
  -2.050000      0.0000000E+00
  -2.040000      0.0000000E+00
  -2.030000      0.0000000E+00
  -2.020000      0.0000000E+00
  -2.010000      0.0000000E+00
  -2.000000      0.0000000E+00
  -1.990000      0.0000000E+00
  -1.980000      0.0000000E+00
  -1.970000      0.0000000E+00
  -1.960000      0.0000000E+00
  -1.950000      0.0000000E+00
  -1.940000      0.0000000E+00
  -1.930000      0.0000000E+00
  -1.920000      0.0000000E+00
  -1.910000      0.0000000E+00
  -1.900000      0.0000000E+00
  -1.890000      0.0000000E+00
  -1.880000      0.0000000E+00
  -1.870000      0.0000000E+00
  -1.860000      0.0000000E+00
  -1.850000      0.0000000E+00
  -1.840000      0.0000000E+00
  -1.830000      0.0000000E+00
  -1.820000      0.0000000E+00
  -1.810000      0.0000000E+00
  -1.800000      0.0000000E+00
  -1.790000      0.0000000E+00
  -1.780000      0.0000000E+00
  -1.770000      0.0000000E+00
  -1.760000      0.0000000E+00
  -1.750000      0.0000000E+00
  -1.740000      0.0000000E+00
  -1.730000      0.0000000E+00
  -1.720000      0.0000000E+00
  -1.710000      0.0000000E+00
  -1.700000      0.0000000E+00
  -1.690000      0.0000000E+00
  -1.680000      0.0000000E+00
  -1.670000      0.0000000E+00
  -1.660000      0.0000000E+00
  -1.650000      0.0000000E+00
  -1.640000      0.0000000E+00
  -1.630000      0.0000000E+00
  -1.620000      0.0000000E+00
  -1.610000      0.0000000E+00
  -1.600000      0.0000000E+00
  -1.590000      0.0000000E+00
  -1.580000      0.0000000E+00
  -1.570000      0.0000000E+00
  -1.560000      0.0000000E+00
  -1.550000      0.0000000E+00
  -1.540000      0.0000000E+00
  -1.530000      0.0000000E+00
  -1.520000      0.0000000E+00
  -1.510000      0.0000000E+00
  -1.500000      0.0000000E+00
  -1.490000      0.0000000E+00
  -1.480000      0.0000000E+00
  -1.470000      0.0000000E+00
  -1.460000      0.0000000E+00
  -1.450000      0.0000000E+00
  -1.440000      0.0000000E+00
  -1.430000      0.0000000E+00
  -1.420000      0.0000000E+00
  -1.410000      0.0000000E+00
  -1.400000      0.0000000E+00
  -1.390000      0.0000000E+00
  -1.380000      0.0000000E+00
  -1.370000      0.0000000E+00
  -1.360000      0.0000000E+00
  -1.350000      0.0000000E+00
  -1.340000      0.0000000E+00
  -1.330000      0.0000000E+00
  -1.320000      0.0000000E+00
  -1.310000      0.0000000E+00
  -1.300000      0.0000000E+00
  -1.290000      0.0000000E+00
  -1.280000      0.0000000E+00
  -1.270000      0.0000000E+00
  -1.260000      0.0000000E+00
  -1.250000      0.0000000E+00
  -1.240000      0.0000000E+00
  -1.230000      0.0000000E+00
  -1.220000      0.0000000E+00
  -1.210000      0.0000000E+00
  -1.200000      0.0000000E+00
  -1.190000      0.0000000E+00
  -1.180000      0.0000000E+00
  -1.170000      0.0000000E+00
  -1.160000      0.0000000E+00
  -1.150000      0.0000000E+00
  -1.140000      0.0000000E+00
  -1.130000      0.0000000E+00
  -1.120000      0.0000000E+00
  -1.110000      0.0000000E+00
  -1.100000      0.0000000E+00
  -1.090000      0.0000000E+00
  -1.080000      0.0000000E+00
  -1.070000      0.0000000E+00
  -1.060000      0.0000000E+00
  -1.050000      0.0000000E+00
  -1.040000      0.0000000E+00
  -1.030000      0.0000000E+00
  -1.020000      0.0000000E+00
  -1.010000      0.0000000E+00
  -1.000000      0.0000000E+00
 -0.9900000      0.0000000E+00
 -0.9800000      0.0000000E+00
 -0.9700000      0.0000000E+00
 -0.9600000      0.0000000E+00
 -0.9500000      0.0000000E+00
 -0.9400000      0.0000000E+00
 -0.9300000      0.0000000E+00
 -0.9200000      0.0000000E+00
 -0.9100000      0.0000000E+00
 -0.9000000      0.0000000E+00
 -0.8900000      0.0000000E+00
 -0.8800000      0.0000000E+00
 -0.8700000      0.0000000E+00
 -0.8600000      0.0000000E+00
 -0.8500000      0.0000000E+00
 -0.8400000      0.0000000E+00
 -0.8300000      0.0000000E+00
 -0.8200000      0.0000000E+00
 -0.8100000      0.0000000E+00
 -0.8000000      0.0000000E+00
 -0.7900000      0.0000000E+00
 -0.7800000      0.0000000E+00
 -0.7700000      0.0000000E+00
 -0.7600000      0.0000000E+00
 -0.7500000      0.0000000E+00
 -0.7400000      0.0000000E+00
 -0.7300000      0.0000000E+00
 -0.7200000      0.0000000E+00
 -0.7100000      0.0000000E+00
 -0.7000000      0.0000000E+00
 -0.6900000      0.0000000E+00
 -0.6800000      0.0000000E+00
 -0.6700000      0.0000000E+00
 -0.6600000      0.0000000E+00
 -0.6500000      0.0000000E+00
 -0.6400000      0.0000000E+00
 -0.6300000      0.0000000E+00
 -0.6200000      0.0000000E+00
 -0.6100000      0.0000000E+00
 -0.6000000      0.0000000E+00
 -0.5900000      0.0000000E+00
 -0.5800000      0.0000000E+00
 -0.5700000      0.0000000E+00
 -0.5600000      0.0000000E+00
 -0.5500000      0.0000000E+00
 -0.5400000      0.0000000E+00
 -0.5300000      0.0000000E+00
 -0.5200000      0.0000000E+00
 -0.5100000      0.0000000E+00
 -0.5000000      0.0000000E+00
 -0.4900000      0.0000000E+00
 -0.4800000      0.0000000E+00
 -0.4700000      0.0000000E+00
 -0.4600000      0.0000000E+00
 -0.4500000      0.0000000E+00
 -0.4400000      0.0000000E+00
 -0.4300000      0.0000000E+00
 -0.4200000      0.0000000E+00
 -0.4100000      0.0000000E+00
 -0.4000000      0.0000000E+00
 -0.3900000      0.0000000E+00
 -0.3800000      0.0000000E+00
 -0.3700000      0.0000000E+00
 -0.3600000      0.0000000E+00
 -0.3500000      0.0000000E+00
 -0.3400000      0.0000000E+00
 -0.3300000      0.0000000E+00
 -0.3200000      0.0000000E+00
 -0.3100000      0.0000000E+00
 -0.3000000      0.0000000E+00
 -0.2900000      0.0000000E+00
 -0.2800000      0.0000000E+00
 -0.2700000      0.0000000E+00
 -0.2600000      0.0000000E+00
 -0.2500000      0.0000000E+00
 -0.2400000      0.0000000E+00
 -0.2300000      0.0000000E+00
 -0.2200000      0.0000000E+00
 -0.2100000      0.0000000E+00
 -0.2000000      0.0000000E+00
 -0.1900000      0.0000000E+00
 -0.1800000      0.0000000E+00
 -0.1700000      0.0000000E+00
 -0.1600000      0.0000000E+00
 -0.1500000      0.0000000E+00
 -0.1400000      0.0000000E+00
 -0.1300000      0.0000000E+00
 -0.1200000      0.0000000E+00
 -0.1100000      0.0000000E+00
 -0.1000000      0.0000000E+00
 -9.0000004E-02  0.0000000E+00
 -7.9999998E-02  0.0000000E+00
 -7.0000000E-02  0.0000000E+00
 -5.9999999E-02  0.0000000E+00
 -5.0000001E-02  0.0000000E+00
 -3.9999999E-02  0.0000000E+00
 -2.9999999E-02  0.0000000E+00
 -2.0000000E-02  0.0000000E+00
 -9.9999998E-03  0.0000000E+00
 -3.4694470E-17  0.0000000E+00
  9.9999998E-03  0.0000000E+00
  2.0000000E-02  0.0000000E+00
  2.9999999E-02  0.0000000E+00
  3.9999999E-02  0.0000000E+00
  5.0000001E-02  0.0000000E+00
  5.9999999E-02  0.0000000E+00
  7.0000000E-02  0.0000000E+00
  7.9999998E-02  0.0000000E+00
  9.0000004E-02  0.0000000E+00
  0.1000000      0.0000000E+00
  0.1100000      0.0000000E+00
  0.1200000      0.0000000E+00
  0.1300000      0.0000000E+00
  0.1400000      0.0000000E+00
  0.1500000      0.0000000E+00
  0.1600000      0.0000000E+00
  0.1700000      0.0000000E+00
  0.1800000      0.0000000E+00
  0.1900000      0.0000000E+00
  0.2000000      0.0000000E+00
  0.2100000      0.0000000E+00
  0.2200000      0.0000000E+00
  0.2300000      0.0000000E+00
  0.2400000      0.0000000E+00
  0.2500000      0.0000000E+00
  0.2600000      0.0000000E+00
  0.2700000      0.0000000E+00
  0.2800000      0.0000000E+00
  0.2900000      0.0000000E+00
  0.3000000      0.0000000E+00
  0.3100000      0.0000000E+00
  0.3200000      0.0000000E+00
  0.3300000      0.0000000E+00
  0.3400000      0.0000000E+00
  0.3500000      0.0000000E+00
  0.3600000      0.0000000E+00
  0.3700000      0.0000000E+00
  0.3800000      0.0000000E+00
  0.3900000      0.0000000E+00
  0.4000000      0.0000000E+00
  0.4100000      0.0000000E+00
  0.4200000      0.0000000E+00
  0.4300000      0.0000000E+00
  0.4400000      0.0000000E+00
  0.4500000      0.0000000E+00
  0.4600000      0.0000000E+00
  0.4700000      0.0000000E+00
  0.4800000      0.0000000E+00
  0.4900000      0.0000000E+00
  0.5000000      0.0000000E+00
  0.5100000      0.0000000E+00
  0.5200000      0.0000000E+00
  0.5300000      0.0000000E+00
  0.5400000      0.0000000E+00
  0.5500000      0.0000000E+00
  0.5600000      0.0000000E+00
  0.5700000      0.0000000E+00
  0.5800000      0.0000000E+00
  0.5900000      0.0000000E+00
  0.6000000      0.0000000E+00
  0.6100000      0.0000000E+00
  0.6200000      0.0000000E+00
  0.6300000      0.0000000E+00
  0.6400000      0.0000000E+00
  0.6500000      0.0000000E+00
  0.6600000      0.0000000E+00
  0.6700000      0.0000000E+00
  0.6800000      0.0000000E+00
  0.6900000      0.0000000E+00
  0.7000000      0.0000000E+00
  0.7100000      0.0000000E+00
  0.7200000      0.0000000E+00
  0.7300000      0.0000000E+00
  0.7400000      0.0000000E+00
  0.7500000      0.0000000E+00
  0.7600000      0.0000000E+00
  0.7700000      0.0000000E+00
  0.7800000      0.0000000E+00
  0.7900000      0.0000000E+00
  0.8000000      0.0000000E+00
  0.8100000      0.0000000E+00
  0.8200000      0.0000000E+00
  0.8300000      0.0000000E+00
  0.8400000      0.0000000E+00
  0.8500000      0.0000000E+00
  0.8600000      0.0000000E+00
  0.8700000      0.0000000E+00
  0.8800000      0.0000000E+00
  0.8900000      0.0000000E+00
  0.9000000      0.0000000E+00
  0.9100000      0.0000000E+00
  0.9200000      0.0000000E+00
  0.9300000      0.0000000E+00
  0.9400000      0.0000000E+00
  0.9500000      0.0000000E+00
  0.9600000      0.0000000E+00
  0.9700000      0.0000000E+00
  0.9800000      0.0000000E+00
  0.9900000      0.0000000E+00
   1.000000      0.0000000E+00
   1.010000      0.0000000E+00
   1.020000      0.0000000E+00
   1.030000      0.0000000E+00
   1.040000      0.0000000E+00
   1.050000      0.0000000E+00
   1.060000      0.0000000E+00
   1.070000      0.0000000E+00
   1.080000      0.0000000E+00
   1.090000      0.0000000E+00
   1.100000      0.0000000E+00
   1.110000      0.0000000E+00
   1.120000      0.0000000E+00
   1.130000      0.0000000E+00
   1.140000      0.0000000E+00
   1.150000      0.0000000E+00
   1.160000      0.0000000E+00
   1.170000      0.0000000E+00
   1.180000      0.0000000E+00
   1.190000      0.0000000E+00
   1.200000      0.0000000E+00
   1.210000      0.0000000E+00
   1.220000      0.0000000E+00
   1.230000      0.0000000E+00
   1.240000      0.0000000E+00
   1.250000      0.0000000E+00
   1.260000      0.0000000E+00
   1.270000      0.0000000E+00
   1.280000      0.0000000E+00
   1.290000      0.0000000E+00
   1.300000      0.0000000E+00
   1.310000      0.0000000E+00
   1.320000      0.0000000E+00
   1.330000      0.0000000E+00
   1.340000      0.0000000E+00
   1.350000      0.0000000E+00
   1.360000      0.0000000E+00
   1.370000      0.0000000E+00
   1.380000      0.0000000E+00
   1.390000      0.0000000E+00
   1.400000      0.0000000E+00
   1.410000      0.0000000E+00
   1.420000      0.0000000E+00
   1.430000      0.0000000E+00
   1.440000      0.0000000E+00
   1.450000      0.0000000E+00
   1.460000      0.0000000E+00
   1.470000      0.0000000E+00
   1.480000      0.0000000E+00
   1.490000      0.0000000E+00
   1.500000      0.0000000E+00
   1.510000      0.0000000E+00
   1.520000      0.0000000E+00
   1.530000      0.0000000E+00
   1.540000      0.0000000E+00
   1.550000      0.0000000E+00
   1.560000      0.0000000E+00
   1.570000      0.0000000E+00
   1.580000      0.0000000E+00
   1.590000      0.0000000E+00
   1.600000      0.0000000E+00
   1.610000      0.0000000E+00
   1.620000      0.0000000E+00
   1.630000      0.0000000E+00
   1.640000      0.0000000E+00
   1.650000      0.0000000E+00
   1.660000      0.0000000E+00
   1.670000      0.0000000E+00
   1.680000      0.0000000E+00
   1.690000      0.0000000E+00
   1.700000      0.0000000E+00
   1.710000      0.0000000E+00
   1.720000      0.0000000E+00
   1.730000      0.0000000E+00
   1.740000      0.0000000E+00
   1.750000      0.0000000E+00
   1.760000      0.0000000E+00
   1.770000      0.0000000E+00
   1.780000      0.0000000E+00
   1.790000      0.0000000E+00
   1.800000      0.0000000E+00
   1.810000      0.0000000E+00
   1.820000      0.0000000E+00
   1.830000      0.0000000E+00
   1.840000      0.0000000E+00
   1.850000      0.0000000E+00
   1.860000      1.5885786E-38
   1.870000      2.1756888E-38
   1.880000      2.8115877E-38
   1.890000      3.4867843E-38
   1.900000      4.1858971E-38
   1.910000      4.8873709E-38
   1.920000      5.5704332E-38
   1.930000      6.2154072E-38
   1.940000      6.8021157E-38
   1.950000      7.3085304E-38
   1.960000      7.7125085E-38
   1.970000      7.8863318E-38
   1.980000      7.8863318E-38
   1.990000      7.8863318E-38
   2.000000      8.0863951E-38
   2.010000      8.3404449E-38
   2.020000      8.3902286E-38
   2.030000      8.3130983E-38
   2.040000      8.0866429E-38
   2.050000      7.6889505E-38
   2.060000      7.0987779E-38
   2.070000      6.2946377E-38
   2.080000      5.2606594E-38
   2.090000      3.9895371E-38
   2.100000      2.4761504E-38
   2.110000      0.0000000E+00
   2.120000     -1.5968326E-38
   2.130000     -4.4068715E-38
   2.140000     -7.3212273E-38
   2.150000     -1.0302523E-37
   2.160000     -1.3312600E-37
   2.170000     -1.6313755E-37
   2.180000     -1.9557351E-37
   2.190000     -2.2955919E-37
   2.200000     -2.6310805E-37
   2.210000     -2.9771357E-37
   2.220000     -3.3315799E-37
   2.230000     -3.6916937E-37
   2.240000     -4.0542802E-37
   2.250000     -4.4152937E-37
   2.260000     -4.7726096E-37
   2.270000     -5.1212078E-37
   2.280000     -5.4706432E-37
   2.290000     -5.8052491E-37
   2.300000     -6.1021719E-37
   2.310000     -6.3444046E-37
   2.320000     -6.5143662E-37
   2.330000     -6.6136037E-37
   2.340000     -6.6272019E-37
   2.350000     -6.5456795E-37
   2.360000     -6.3517528E-37
   2.370000     -6.0914848E-37
   2.380000     -5.7830148E-37
   2.390000     -5.3731258E-37
   2.400000     -4.8566090E-37
   2.410000     -4.2352419E-37
   2.420000     -3.4363148E-37
   2.430000     -2.4538911E-37
   2.440000     -1.3562443E-37
   2.450000     -1.9338661E-37
   2.460000     -4.2647602E-37
   2.470000     -6.6634836E-37
   2.480000     -9.1090292E-37
   2.490000     -1.1595942E-36
   2.500000     -1.4125083E-36
   2.510000     -1.6642118E-36
   2.520000     -2.0032875E-36
   2.530000     -2.4350910E-36
   2.540000     -2.8728389E-36
   2.550000     -3.3171057E-36
   2.560000     -2.5858388E-36
   2.570000     -4.7573034E-37
   2.580000      1.9252001E-36
   2.590000      4.5740649E-36
   2.600000      7.2273753E-36
   2.610000      9.4579426E-36
   2.620000      1.0373393E-35
   2.630000      1.0051542E-35
   2.640000      9.4939342E-36
   2.650000      8.8736651E-36
   2.660000      8.2096205E-36
   2.670000      7.4072861E-36
   2.680000      6.9061140E-36
   2.690000      5.9845128E-36
   2.700000      4.2610031E-36
   2.710000      2.9292442E-36
   2.720000      2.9390164E-36
   2.730000      4.0131649E-36
   2.740000      6.4426116E-36
   2.750000      9.4030551E-36
   2.760000      1.1691928E-35
   2.770000      1.3949620E-35
   2.780000      1.6019758E-35
   2.790000      1.7784882E-35
   2.800000      1.7376173E-35
   2.810000      1.5021307E-35
   2.820000      1.2619494E-35
   2.830000      1.0167917E-35
   2.840000      7.2627377E-36
   2.850000      3.9316494E-36
   2.860000      9.7013314E-37
   2.870000     -1.3981869E-36
   2.880000     -2.4295602E-36
   2.890000     -1.8734163E-36
   2.900000     -6.6502168E-37
   2.910000     -1.4465939E-37
   2.920000     -6.4522369E-37
   2.930000     -1.5020676E-36
   2.940000     -2.4982962E-36
   2.950000     -4.2136884E-36
   2.960000     -6.5055225E-36
   2.970000     -7.5165926E-36
   2.980000     -7.4269023E-36
   2.990000     -1.0601564E-35
   3.000000     -1.7709934E-35
   3.010000     -2.6018589E-35
   3.020000     -3.3962494E-35
   3.030000     -4.1318431E-35
   3.040000     -4.7542596E-35
   3.050000     -5.1689684E-35
   3.060000     -5.3360539E-35
   3.070000     -5.1526578E-35
   3.080000     -4.6495987E-35
   3.090000     -3.9824618E-35
   3.100000     -3.2646047E-35
   3.110000     -2.6192017E-35
   3.120000     -2.1388193E-35
   3.130000     -1.7868174E-35
   3.140000     -1.6225729E-35
   3.150000     -1.6408204E-35
   3.160000     -1.6510125E-35
   3.170000     -1.6615872E-35
   3.180000     -1.7810968E-35
   3.190000     -1.7508376E-35
   3.200000     -1.5519800E-35
   3.210000     -1.3056158E-35
   3.220000     -9.2717741E-36
   3.230000     -3.4760449E-36
   3.240000      5.1829210E-36
   3.250000      1.6456515E-35
   3.260000      2.8655384E-35
   3.270000      4.1047924E-35
   3.280000      4.9780682E-35
   3.290000      5.1589721E-35
   3.300000      4.9460796E-35
   3.310000      4.7512253E-35
   3.320000      4.6839840E-35
   3.330000      4.6604032E-35
   3.340000      4.9338965E-35
   3.350000      5.4414299E-35
   3.360000      5.9155806E-35
   3.370000      6.2016206E-35
   3.380000      6.2178262E-35
   3.390000      6.9538096E-35
   3.400000      8.6687962E-35
   3.410000      1.0752567E-34
   3.420000      1.3086694E-34
   3.430000      1.5285094E-34
   3.440000      1.6789014E-34
   3.450000      1.7793851E-34
   3.460000      1.8837075E-34
   3.470000      1.9623227E-34
   3.480000      1.9417608E-34
   3.490000      1.8260383E-34
   3.500000      1.6443787E-34
   3.510000      1.3915830E-34
   3.520000      1.0931881E-34
   3.530000      8.2974628E-35
   3.540000      6.4100775E-35
   3.550000      5.4220326E-35
   3.560000      5.2870286E-35
   3.570000      5.9996038E-35
   3.580000      7.3754103E-35
   3.590000      8.8054399E-35
   3.600000      1.0167533E-34
   3.610000      1.1244521E-34
   3.620000      1.1609661E-34
   3.630000      1.1185604E-34
   3.640000      1.0014492E-34
   3.650000      7.2329419E-35
   3.660000      3.1137017E-35
   3.670000     -1.4359675E-35
   3.680000     -6.3135365E-35
   3.690000     -1.0514388E-34
   3.700000     -1.3823981E-34
   3.710000     -1.6862533E-34
   3.720000     -1.9452620E-34
   3.730000     -2.1198144E-34
   3.740000     -2.2301561E-34
   3.750000     -2.3875842E-34
   3.760000     -2.5250528E-34
   3.770000     -2.6018543E-34
   3.780000     -2.7248271E-34
   3.790000     -2.8437559E-34
   3.800000     -3.0126325E-34
   3.810000     -3.3782711E-34
   3.820000     -3.8997829E-34
   3.830000     -4.5365371E-34
   3.840000     -5.2495240E-34
   3.850000     -5.9049425E-34
   3.860000     -6.4694043E-34
   3.870000     -6.9890279E-34
   3.880000     -7.4422742E-34
   3.890000     -7.7915816E-34
   3.900000     -8.0315156E-34
   3.910000     -8.1726970E-34
   3.920000     -8.2604357E-34
   3.930000     -8.3035984E-34
   3.940000     -8.2930548E-34
   3.950000     -8.2816920E-34
   3.960000     -8.3140126E-34
   3.970000     -8.3762734E-34
   3.980000     -8.4614838E-34
   3.990000     -8.5965858E-34
   4.000000     -8.8162682E-34
   4.010000     -9.0690519E-34
   4.020000     -9.2432115E-34
   4.030000     -9.2804682E-34
   4.040000     -9.1802940E-34
   4.050000     -9.0701190E-34
   4.060000     -8.9595234E-34
   4.070000     -8.6744412E-34
   4.080000     -8.2059699E-34
   4.090000     -7.6039639E-34
   4.100000     -6.8655175E-34
   4.110000     -6.0708870E-34
   4.120000     -5.2105720E-34
   4.130000     -4.2538794E-34
   4.140000     -3.1584415E-34
   4.150000     -2.0254913E-34
   4.160000     -9.9778165E-35
   4.170000      4.2931157E-36
   4.180000      1.1729827E-34
   4.190000      2.3940366E-34
   4.200000      3.7050907E-34
   4.210000      5.1389316E-34
   4.220000      6.6831588E-34
   4.230000      8.3588852E-34
   4.240000      1.0237889E-33
   4.250000      1.2304231E-33
   4.260000      1.4544182E-33
   4.270000      1.6889960E-33
   4.280000      1.9331445E-33
   4.290000      2.1885027E-33
   4.300000      2.4486620E-33
   4.310000      2.7119534E-33
   4.320000      2.9755459E-33
   4.330000      3.2364078E-33
   4.340000      3.4996370E-33
   4.350000      3.7668893E-33
   4.360000      4.0351635E-33
   4.370000      4.3065514E-33
   4.380000      4.5804544E-33
   4.390000      4.8546789E-33
   4.400000      5.1311787E-33
   4.410000      5.4112641E-33
   4.420000      5.6937486E-33
   4.430000      5.9781859E-33
   4.440000      6.2629832E-33
   4.450000      6.5449307E-33
   4.460000      6.8206921E-33
   4.470000      7.0852246E-33
   4.480000      7.3361434E-33
   4.490000      7.5626237E-33
   4.500000      7.7649895E-33
   4.510000      7.9480323E-33
   4.520000      8.1015820E-33
   4.530000      8.2250155E-33
   4.540000      8.3191712E-33
   4.550000      8.3829336E-33
   4.560000      8.4158343E-33
   4.570000      8.4165675E-33
   4.580000      8.3835140E-33
   4.590000      8.3140754E-33
   4.600000      8.2058748E-33
   4.610000      8.0573871E-33
   4.620000      7.8647449E-33
   4.630000      7.6227539E-33
   4.640000      7.3266263E-33
   4.650000      6.9719466E-33
   4.660000      6.5522709E-33
   4.670000      6.0629273E-33
   4.680000      5.5015803E-33
   4.690000      4.8644469E-33
   4.700000      4.1489951E-33
   4.710000      3.3505464E-33
   4.720000      2.4694277E-33
   4.730000      1.5073452E-33
   4.740000      4.6175484E-34
   4.750000     -6.6853509E-34
   4.760000     -1.8849024E-33
   4.770000     -3.1885920E-33
   4.780000     -4.5831085E-33
   4.790000     -6.0704258E-33
   4.800000     -7.6515638E-33
   4.810000     -9.3296606E-33
   4.820000     -1.1108008E-32
   4.830000     -1.2989531E-32
   4.840000     -1.4973903E-32
   4.850000     -1.7063201E-32
   4.860000     -1.9259576E-32
   4.870000     -2.1561263E-32
   4.880000     -2.3966521E-32
   4.890000     -2.6472062E-32
   4.900000     -2.9073405E-32
   4.910000     -3.1765255E-32
   4.920000     -3.4541566E-32
   4.930000     -3.7395825E-32
   4.940000     -4.0320855E-32
   4.950000     -4.3308162E-32
   4.960000     -4.6352522E-32
   4.970000     -4.9448316E-32
   4.980000     -5.2586157E-32
   4.990000     -5.5758446E-32
   5.000000     -5.8955996E-32
   5.010000     -6.2168334E-32
   5.020000     -6.5385768E-32
   5.030000     -6.8596631E-32
   5.040000     -7.1786347E-32
   5.050000     -7.4939646E-32
   5.060000     -7.8039683E-32
   5.070000     -8.1061685E-32
   5.080000     -8.3992398E-32
   5.090000     -8.6817105E-32
   5.100000     -8.9504908E-32
   5.110000     -9.2030957E-32
   5.120000     -9.4371055E-32
   5.130000     -9.6498582E-32
   5.140000     -9.8386802E-32
   5.150000     -1.0000899E-31
   5.160000     -1.0133800E-31
   5.170000     -1.0234578E-31
   5.180000     -1.0300327E-31
   5.190000     -1.0328080E-31
   5.200000     -1.0314774E-31
   5.210000     -1.0257178E-31
   5.220000     -1.0151894E-31
   5.230000     -9.9955129E-32
   5.240000     -9.7842666E-32
   5.250000     -9.5141933E-32
   5.260000     -9.1814625E-32
   5.270000     -8.7820172E-32
   5.280000     -8.3117337E-32
   5.290000     -7.7666081E-32
   5.300000     -7.1426916E-32
   5.310000     -6.4360114E-32
   5.320000     -5.6427291E-32
   5.330000     -4.7591781E-32
   5.340000     -3.7818389E-32
   5.350000     -2.7073516E-32
   5.360000     -1.5325168E-32
   5.370000     -2.5429036E-33
   5.380000      1.1302261E-32
   5.390000      2.6237871E-32
   5.400000      4.2289799E-32
   5.410000      5.9482371E-32
   5.420000      7.7837939E-32
   5.430000      9.7376347E-32
   5.440000      1.1811484E-31
   5.450000      1.4006708E-31
   5.460000      1.6324259E-31
   5.470000      1.8764621E-31
   5.480000      2.1327751E-31
   5.490000      2.4013006E-31
   5.500000      2.6819089E-31
   5.510000      2.9744034E-31
   5.520000      3.2785165E-31
   5.530000      3.5939052E-31
   5.540000      3.9201523E-31
   5.550000      4.2567688E-31
   5.560000      4.6031889E-31
   5.570000      4.9587707E-31
   5.580000      5.3227912E-31
   5.590000      5.6944482E-31
   5.600000      6.0728568E-31
   5.610000      6.4570394E-31
   5.620000      6.8459239E-31
   5.630000      7.2383373E-31
   5.640000      7.6329964E-31
   5.650000      8.0285051E-31
   5.660000      8.4233480E-31
   5.670000      8.8158851E-31
   5.680000      9.2043521E-31
   5.690000      9.5868570E-31
   5.700000      9.9613770E-31
   5.710000      1.0325767E-30
   5.720000      1.0677758E-30
   5.730000      1.1014965E-30
   5.740000      1.1334885E-30
   5.750000      1.1634908E-30
   5.760000      1.1912312E-30
   5.770000      1.2164271E-30
   5.780000      1.2387857E-30
   5.790000      1.2580037E-30
   5.800000      1.2737676E-30
   5.810000      1.2857536E-30
   5.820000      1.2936281E-30
   5.830000      1.2970479E-30
   5.840000      1.2956606E-30
   5.850000      1.2891048E-30
   5.860000      1.2770108E-30
   5.870000      1.2590028E-30
   5.880000      1.2346990E-30
   5.890000      1.2037134E-30
   5.900000      1.1656572E-30
   5.910000      1.1201415E-30
   5.920000      1.0667772E-30
   5.930000      1.0051788E-30
   5.940000      9.3496376E-31
   5.950000      8.5575603E-31
   5.960000      7.6718705E-31
   5.970000      6.6889682E-31
   5.980000      5.6053613E-31
   5.990000      4.4176799E-31
   6.000000      3.1226946E-31
   6.010000      1.7173368E-31
   6.020000      1.9872210E-32
   6.030000     -1.4358366E-31
   6.040000     -3.1887924E-31
   6.050000     -5.0623374E-31
   6.060000     -7.0583786E-31
   6.070000     -9.1784978E-31
   6.080000     -1.1423915E-30
   6.090000     -1.3795472E-30
   6.100000     -1.6293599E-30
   6.110000     -1.8918257E-30
   6.120000     -2.1668922E-30
   6.130000     -2.4544561E-30
   6.140000     -2.7543589E-30
   6.150000     -3.0663850E-30
   6.160000     -3.3902592E-30
   6.170000     -3.7256441E-30
   6.180000     -4.0721347E-30
   6.190000     -4.4292586E-30
   6.200000     -4.7964717E-30
   6.210000     -5.1731558E-30
   6.220000     -5.5586126E-30
   6.230000     -5.9520632E-30
   6.240000     -6.3526453E-30
   6.250000     -6.7594085E-30
   6.260000     -7.1713122E-30
   6.270000     -7.5872236E-30
   6.280000     -8.0059125E-30
   6.290000     -8.4260496E-30
   6.300000     -8.8462040E-30
   6.310000     -9.2648462E-30
   6.320000     -9.6803446E-30
   6.330000     -1.0090963E-29
   6.340000     -1.0494861E-29
   6.350000     -1.0890098E-29
   6.360000     -1.1274627E-29
   6.370000     -1.1646301E-29
   6.380000     -1.2002870E-29
   6.390000     -1.2341983E-29
   6.400000     -1.2661187E-29
   6.410000     -1.2957934E-29
   6.420000     -1.3229572E-29
   6.430000     -1.3473364E-29
   6.440000     -1.3686475E-29
   6.450000     -1.3865990E-29
   6.460000     -1.4008907E-29
   6.470000     -1.4112148E-29
   6.480000     -1.4172563E-29
   6.490000     -1.4186942E-29
   6.500000     -1.4152018E-29
   6.510000     -1.4064468E-29
   6.520000     -1.3920938E-29
   6.530000     -1.3718039E-29
   6.540000     -1.3452366E-29
   6.550000     -1.3120508E-29
   6.560000     -1.2719054E-29
   6.570000     -1.2244610E-29
   6.580000     -1.1693816E-29
   6.590000     -1.1063347E-29
   6.600000     -1.0349933E-29
   6.610000     -9.5503781E-30
   6.620000     -8.6615735E-30
   6.630000     -7.6805146E-30
   6.640000     -6.6043177E-30
   6.650000     -5.4302385E-30
   6.660000     -4.1556930E-30
   6.670000     -2.7782754E-30
   6.680000     -1.2957751E-30
   6.690000      2.9379295E-31
   6.700000      1.9921799E-30
   6.710000      3.8008728E-30
   6.720000      5.7210667E-30
   6.730000      7.7536525E-30
   6.740000      9.8991844E-30
   6.750000      1.2157869E-29
   6.760000      1.4529534E-29
   6.770000      1.7013593E-29
   6.780000      1.9609053E-29
   6.790000      2.2314474E-29
   6.800000      2.5127928E-29
   6.810000      2.8047014E-29
   6.820000      3.1068816E-29
   6.830000      3.4189861E-29
   6.840000      3.7406125E-29
   6.850000      4.0713012E-29
   6.860000      4.4105291E-29
   6.870000      4.7577135E-29
   6.880000      5.1122077E-29
   6.890000      5.4732967E-29
   6.900000      5.8401990E-29
   6.910000      6.2120612E-29
   6.920000      6.5879606E-29
   6.930000      6.9669041E-29
   6.940000      7.3478236E-29
   6.950000      7.7295772E-29
   6.960000      8.1109486E-29
   6.970000      8.4906493E-29
   6.980000      8.8673119E-29
   6.990000      9.2394942E-29
   7.000000      9.6056779E-29
   7.010000      9.9642728E-29
   7.020000      1.0313614E-28
   7.030000      1.0651960E-28
   7.040000      1.0977503E-28
   7.050000      1.1288365E-28
   7.060000      1.1582598E-28