  -2.600000      0.0000000E+00
  -2.590000      0.0000000E+00
  -2.580000      0.0000000E+00
  -2.570000      0.0000000E+00
  -2.560000      0.0000000E+00
  -2.550000      0.0000000E+00
  -2.540000      0.0000000E+00
  -2.530000      0.0000000E+00
  -2.520000      0.0000000E+00
  -2.510000      0.0000000E+00
  -2.500000      0.0000000E+00
  -2.490000      0.0000000E+00
  -2.480000      0.0000000E+00
  -2.470000      0.0000000E+00
  -2.460000      0.0000000E+00
  -2.450000      0.0000000E+00
  -2.440000      0.0000000E+00
  -2.430000      0.0000000E+00
  -2.420000      0.0000000E+00
  -2.410000      0.0000000E+00
  -2.400000      0.0000000E+00
  -2.390000      0.0000000E+00
  -2.380000      0.0000000E+00
  -2.370000      0.0000000E+00
  -2.360000      0.0000000E+00
  -2.350000      0.0000000E+00
  -2.340000      0.0000000E+00
  -2.330000      0.0000000E+00
  -2.320000      0.0000000E+00
  -2.310000      0.0000000E+00
  -2.300000      0.0000000E+00
  -2.290000      0.0000000E+00
  -2.280000      0.0000000E+00
  -2.270000      0.0000000E+00
  -2.260000      0.0000000E+00
  -2.250000      0.0000000E+00
  -2.240000      0.0000000E+00
  -2.230000      0.0000000E+00
  -2.220000      0.0000000E+00
  -2.210000      0.0000000E+00
  -2.200000      0.0000000E+00
  -2.190000      0.0000000E+00
  -2.180000      0.0000000E+00
  -2.170000      0.0000000E+00
  -2.160000      0.0000000E+00
  -2.150000      0.0000000E+00
  -2.140000      0.0000000E+00
  -2.130000      0.0000000E+00
  -2.120000      0.0000000E+00
  -2.110000      0.0000000E+00
  -2.100000      0.0000000E+00
  -2.090000      0.0000000E+00
  -2.080000      0.0000000E+00
  -2.070000      0.0000000E+00
  -2.060000      0.0000000E+00
  -2.050000      0.0000000E+00
  -2.040000      0.0000000E+00
  -2.030000      0.0000000E+00
  -2.020000      0.0000000E+00
  -2.010000      0.0000000E+00
  -2.000000      0.0000000E+00
  -1.990000      0.0000000E+00
  -1.980000      0.0000000E+00
  -1.970000      0.0000000E+00
  -1.960000      0.0000000E+00
  -1.950000      0.0000000E+00
  -1.940000      0.0000000E+00
  -1.930000      0.0000000E+00
  -1.920000      0.0000000E+00
  -1.910000      0.0000000E+00
  -1.900000      0.0000000E+00
  -1.890000      0.0000000E+00
  -1.880000      0.0000000E+00
  -1.870000      0.0000000E+00
  -1.860000      0.0000000E+00
  -1.850000      0.0000000E+00
  -1.840000      0.0000000E+00
  -1.830000      0.0000000E+00
  -1.820000      0.0000000E+00
  -1.810000      0.0000000E+00
  -1.800000      0.0000000E+00
  -1.790000      0.0000000E+00
  -1.780000      0.0000000E+00
  -1.770000      0.0000000E+00
  -1.760000      0.0000000E+00
  -1.750000      0.0000000E+00
  -1.740000      0.0000000E+00
  -1.730000      0.0000000E+00
  -1.720000      0.0000000E+00
  -1.710000      0.0000000E+00
  -1.700000      0.0000000E+00
  -1.690000      0.0000000E+00
  -1.680000      0.0000000E+00
  -1.670000      0.0000000E+00
  -1.660000      0.0000000E+00
  -1.650000      0.0000000E+00
  -1.640000      0.0000000E+00
  -1.630000      0.0000000E+00
  -1.620000      0.0000000E+00
  -1.610000      0.0000000E+00
  -1.600000      0.0000000E+00
  -1.590000      0.0000000E+00
  -1.580000      0.0000000E+00
  -1.570000      0.0000000E+00
  -1.560000      0.0000000E+00
  -1.550000      0.0000000E+00
  -1.540000      0.0000000E+00
  -1.530000      0.0000000E+00
  -1.520000      0.0000000E+00
  -1.510000      0.0000000E+00
  -1.500000      0.0000000E+00
  -1.490000      0.0000000E+00
  -1.480000      0.0000000E+00
  -1.470000      0.0000000E+00
  -1.460000      0.0000000E+00
  -1.450000      0.0000000E+00
  -1.440000      0.0000000E+00
  -1.430000      0.0000000E+00
  -1.420000      0.0000000E+00
  -1.410000      0.0000000E+00
  -1.400000      0.0000000E+00
  -1.390000      0.0000000E+00
  -1.380000      0.0000000E+00
  -1.370000      0.0000000E+00
  -1.360000      0.0000000E+00
  -1.350000      0.0000000E+00
  -1.340000      0.0000000E+00
  -1.330000      0.0000000E+00
  -1.320000      0.0000000E+00
  -1.310000      0.0000000E+00
  -1.300000      0.0000000E+00
  -1.290000      0.0000000E+00
  -1.280000      0.0000000E+00
  -1.270000      0.0000000E+00
  -1.260000      0.0000000E+00
  -1.250000      0.0000000E+00
  -1.240000      0.0000000E+00
  -1.230000      0.0000000E+00
  -1.220000      0.0000000E+00
  -1.210000      0.0000000E+00
  -1.200000      0.0000000E+00
  -1.190000      0.0000000E+00
  -1.180000      0.0000000E+00
  -1.170000      0.0000000E+00
  -1.160000      0.0000000E+00
  -1.150000      0.0000000E+00
  -1.140000      0.0000000E+00
  -1.130000      0.0000000E+00
  -1.120000      0.0000000E+00
  -1.110000      0.0000000E+00
  -1.100000      0.0000000E+00
  -1.090000      0.0000000E+00
  -1.080000      0.0000000E+00
  -1.070000      0.0000000E+00
  -1.060000      0.0000000E+00
  -1.050000      0.0000000E+00
  -1.040000      0.0000000E+00
  -1.030000      0.0000000E+00
  -1.020000      0.0000000E+00
  -1.010000      0.0000000E+00
  -1.000000      0.0000000E+00
 -0.9900000      0.0000000E+00
 -0.9800000      0.0000000E+00
 -0.9700000      0.0000000E+00
 -0.9600000      0.0000000E+00
 -0.9500000      0.0000000E+00
 -0.9400000      0.0000000E+00
 -0.9300000      0.0000000E+00
 -0.9200000      0.0000000E+00
 -0.9100000      0.0000000E+00
 -0.9000000      0.0000000E+00
 -0.8900000      0.0000000E+00
 -0.8800000      0.0000000E+00
 -0.8700000      0.0000000E+00
 -0.8600000      0.0000000E+00
 -0.8500000      0.0000000E+00
 -0.8400000      0.0000000E+00
 -0.8300000      0.0000000E+00
 -0.8200000      0.0000000E+00
 -0.8100000      0.0000000E+00
 -0.8000000      0.0000000E+00
 -0.7900000      0.0000000E+00
 -0.7800000      0.0000000E+00
 -0.7700000      0.0000000E+00
 -0.7600000      0.0000000E+00
 -0.7500000      0.0000000E+00
 -0.7400000      0.0000000E+00
 -0.7300000      0.0000000E+00
 -0.7200000      0.0000000E+00
 -0.7100000      0.0000000E+00
 -0.7000000      0.0000000E+00
 -0.6900000      0.0000000E+00
 -0.6800000      0.0000000E+00
 -0.6700000      0.0000000E+00
 -0.6600000      0.0000000E+00
 -0.6500000      0.0000000E+00
 -0.6400000      0.0000000E+00
 -0.6300000      0.0000000E+00
 -0.6200000      0.0000000E+00
 -0.6100000      0.0000000E+00
 -0.6000000      0.0000000E+00
 -0.5900000      0.0000000E+00
 -0.5800000      0.0000000E+00
 -0.5700000      0.0000000E+00
 -0.5600000      0.0000000E+00
 -0.5500000      0.0000000E+00
 -0.5400000      0.0000000E+00
 -0.5300000      0.0000000E+00
 -0.5200000      0.0000000E+00
 -0.5100000      0.0000000E+00
 -0.5000000      0.0000000E+00
 -0.4900000      0.0000000E+00
 -0.4800000      0.0000000E+00
 -0.4700000      0.0000000E+00
 -0.4600000      0.0000000E+00
 -0.4500000      0.0000000E+00
 -0.4400000      0.0000000E+00
 -0.4300000      0.0000000E+00
 -0.4200000      0.0000000E+00
 -0.4100000      0.0000000E+00
 -0.4000000      0.0000000E+00
 -0.3900000      0.0000000E+00
 -0.3800000      0.0000000E+00
 -0.3700000      0.0000000E+00
 -0.3600000      0.0000000E+00
 -0.3500000      0.0000000E+00
 -0.3400000      0.0000000E+00
 -0.3300000      0.0000000E+00
 -0.3200000      0.0000000E+00
 -0.3100000      0.0000000E+00
 -0.3000000      0.0000000E+00
 -0.2900000      0.0000000E+00
 -0.2800000      0.0000000E+00
 -0.2700000      0.0000000E+00
 -0.2600000      0.0000000E+00
 -0.2500000      0.0000000E+00
 -0.2400000      0.0000000E+00
 -0.2300000      0.0000000E+00
 -0.2200000      0.0000000E+00
 -0.2100000      0.0000000E+00
 -0.2000000      0.0000000E+00
 -0.1900000      0.0000000E+00
 -0.1800000      0.0000000E+00
 -0.1700000      0.0000000E+00
 -0.1600000      0.0000000E+00
 -0.1500000      0.0000000E+00
 -0.1400000      0.0000000E+00
 -0.1300000      0.0000000E+00
 -0.1200000      0.0000000E+00
 -0.1100000      0.0000000E+00
 -0.1000000      0.0000000E+00
 -9.0000004E-02  0.0000000E+00
 -7.9999998E-02  0.0000000E+00
 -7.0000000E-02  0.0000000E+00
 -5.9999999E-02  0.0000000E+00
 -5.0000001E-02  0.0000000E+00
 -3.9999999E-02  0.0000000E+00
 -2.9999999E-02  0.0000000E+00
 -2.0000000E-02  0.0000000E+00
 -9.9999998E-03  0.0000000E+00
 -3.4694470E-17  0.0000000E+00
  9.9999998E-03  0.0000000E+00
  2.0000000E-02  0.0000000E+00
  2.9999999E-02  0.0000000E+00
  3.9999999E-02  0.0000000E+00
  5.0000001E-02  0.0000000E+00
  5.9999999E-02  0.0000000E+00
  7.0000000E-02  0.0000000E+00
  7.9999998E-02  0.0000000E+00
  9.0000004E-02  0.0000000E+00
  0.1000000      0.0000000E+00
  0.1100000      0.0000000E+00
  0.1200000      0.0000000E+00
  0.1300000      0.0000000E+00
  0.1400000      0.0000000E+00
  0.1500000      0.0000000E+00
  0.1600000      0.0000000E+00
  0.1700000      0.0000000E+00
  0.1800000      0.0000000E+00
  0.1900000      0.0000000E+00
  0.2000000      0.0000000E+00
  0.2100000      0.0000000E+00
  0.2200000      0.0000000E+00
  0.2300000      0.0000000E+00
  0.2400000      0.0000000E+00
  0.2500000      0.0000000E+00
  0.2600000      0.0000000E+00
  0.2700000      0.0000000E+00
  0.2800000      0.0000000E+00
  0.2900000      0.0000000E+00
  0.3000000      0.0000000E+00
  0.3100000      0.0000000E+00
  0.3200000      0.0000000E+00
  0.3300000      0.0000000E+00
  0.3400000      0.0000000E+00
  0.3500000      0.0000000E+00
  0.3600000      0.0000000E+00
  0.3700000      0.0000000E+00
  0.3800000      0.0000000E+00
  0.3900000      0.0000000E+00
  0.4000000      0.0000000E+00
  0.4100000      0.0000000E+00
  0.4200000      0.0000000E+00
  0.4300000      0.0000000E+00
  0.4400000      0.0000000E+00
  0.4500000      0.0000000E+00
  0.4600000      0.0000000E+00
  0.4700000      0.0000000E+00
  0.4800000      0.0000000E+00
  0.4900000      0.0000000E+00
  0.5000000      0.0000000E+00
  0.5100000      0.0000000E+00
  0.5200000      0.0000000E+00
  0.5300000      0.0000000E+00
  0.5400000      0.0000000E+00
  0.5500000      0.0000000E+00
  0.5600000      0.0000000E+00
  0.5700000      0.0000000E+00
  0.5800000      0.0000000E+00
  0.5900000      0.0000000E+00
  0.6000000      1.4291884E-38
  0.6100000      2.1664600E-38
  0.6200000      3.0872662E-38
  0.6300000      4.0831912E-38
  0.6400000      5.0427491E-38
  0.6500000      5.9098877E-38
  0.6600000      6.8214223E-38
  0.6700000      7.8292557E-38
  0.6800000      8.7684419E-38
  0.6900000      9.4740152E-38
  0.7000000      9.9031758E-38
  0.7100000      1.0048418E-37
  0.7200000      9.8214835E-38
  0.7300000      9.4129713E-38
  0.7400000      8.9186117E-38
  0.7500000      8.4996863E-38
  0.7600000      7.8405967E-38
  0.7700000      6.6753335E-38
  0.7800000      5.1878009E-38
  0.7900000      3.3197181E-38
  0.8000000      1.1977594E-38
  0.8100000     -1.2791349E-38
  0.8200000     -4.2741010E-38
  0.8300000     -8.1145158E-38
  0.8400000     -1.3614674E-37
  0.8500000     -2.1085136E-37
  0.8600000     -2.9693911E-37
  0.8700000     -3.9312659E-37
  0.8800000     -5.0175574E-37
  0.8900000     -6.2014071E-37
  0.9000000     -7.4623887E-37
  0.9100000     -8.6971632E-37
  0.9200000     -9.8036939E-37
  0.9300000     -1.0630412E-36
  0.9400000     -1.0957889E-36
  0.9500000     -1.0630360E-36
  0.9600000     -9.4506851E-37
  0.9700000     -7.1965931E-37
  0.9800000     -4.2829183E-37
  0.9900000     -8.0389276E-38
   1.000000      4.7892090E-37
   1.010000      1.2292046E-36
   1.020000      2.0809880E-36
   1.030000      3.0559205E-36
   1.040000      4.0356316E-36
   1.050000      5.0029779E-36
   1.060000      5.9822844E-36
   1.070000      6.8694666E-36
   1.080000      7.5496340E-36
   1.090000      8.0649617E-36
   1.100000      8.4946643E-36
   1.110000      8.7724222E-36
   1.120000      8.8356595E-36
   1.130000      8.5112385E-36
   1.140000      7.8121859E-36
   1.150000      6.7050523E-36
   1.160000      5.1465875E-36
   1.170000      3.2592636E-36
   1.180000      1.1511919E-36
   1.190000     -1.1250573E-36
   1.200000     -3.6271233E-36
   1.210000     -6.2816477E-36
   1.220000     -9.0425857E-36
   1.230000     -1.1940653E-35
   1.240000     -1.5093281E-35
   1.250000     -1.8569414E-35
   1.260000     -2.2237528E-35
   1.270000     -2.5818761E-35
   1.280000     -2.9569081E-35
   1.290000     -3.3460998E-35
   1.300000     -3.7227593E-35
   1.310000     -4.0596888E-35
   1.320000     -4.3566946E-35
   1.330000     -4.6257841E-35
   1.340000     -4.8544605E-35
   1.350000     -5.0436692E-35
   1.360000     -5.2033866E-35
   1.370000     -5.3392136E-35
   1.380000     -5.3849689E-35
   1.390000     -5.3146367E-35
   1.400000     -5.1592855E-35
   1.410000     -4.8869840E-35
   1.420000     -4.4701390E-35
   1.430000     -3.8784093E-35
   1.440000     -3.0408159E-35
   1.450000     -2.0219496E-35
   1.460000     -8.8922654E-36
   1.470000      4.7715647E-36
   1.480000      2.1696205E-35
   1.490000      4.0773982E-35
   1.500000      6.3546341E-35
   1.510000      8.9062650E-35
   1.520000      1.1621988E-34
   1.530000      1.4658072E-34
   1.540000      1.7905246E-34
   1.550000      2.1102259E-34
   1.560000      2.4225164E-34
   1.570000      2.7486929E-34
   1.580000      3.0781431E-34
   1.590000      3.3975802E-34
   1.600000      3.6712934E-34
   1.610000      3.8728287E-34
   1.620000      4.0221757E-34
   1.630000      4.1325069E-34
   1.640000      4.1893884E-34
   1.650000      4.1952177E-34
   1.660000      4.1638953E-34
   1.670000      4.0648383E-34
   1.680000      3.8990486E-34
   1.690000      3.6738464E-34
   1.700000      3.3521214E-34
   1.710000      2.9539243E-34
   1.720000      2.5013220E-34
   1.730000      1.9855787E-34
   1.740000      1.4087838E-34
   1.750000      7.5402223E-35
   1.760000      3.0478242E-36
   1.770000     -7.6442225E-35
   1.780000     -1.6397755E-34
   1.790000     -2.5931460E-34
   1.800000     -3.6424244E-34
   1.810000     -4.7619685E-34
   1.820000     -5.9418663E-34
   1.830000     -7.2212041E-34
   1.840000     -8.5924266E-34
   1.850000     -1.0030120E-33
   1.860000     -1.1508934E-33
   1.870000     -1.3004526E-33
   1.880000     -1.4529656E-33
   1.890000     -1.6058939E-33
   1.900000     -1.7589971E-33
   1.910000     -1.9144064E-33
   1.920000     -2.0672323E-33
   1.930000     -2.2143882E-33
   1.940000     -2.3532293E-33
   1.950000     -2.4798357E-33
   1.960000     -2.5940857E-33
   1.970000     -2.6923262E-33
   1.980000     -2.7731218E-33
   1.990000     -2.8324477E-33
   2.000000     -2.8655737E-33
   2.010000     -2.8704029E-33
   2.020000     -2.8422168E-33
   2.030000     -2.7811945E-33
   2.040000     -2.6814475E-33
   2.050000     -2.5384387E-33
   2.060000     -2.3528232E-33
   2.070000     -2.1216768E-33
   2.080000     -1.8427512E-33
   2.090000     -1.5145133E-33
   2.100000     -1.1350010E-33
   2.110000     -7.0064620E-34
   2.120000     -2.1277685E-34
   2.130000      3.2599700E-34
   2.140000      9.1790203E-34
   2.150000      1.5631009E-33
   2.160000      2.2593299E-33
   2.170000      3.0043854E-33
   2.180000      3.7955195E-33
   2.190000      4.6299211E-33
   2.200000      5.5043342E-33
   2.210000      6.4128720E-33
   2.220000      7.3503919E-33
   2.230000      8.3116877E-33
   2.240000      9.2895373E-33
   2.250000      1.0276193E-32
   2.260000      1.1263333E-32
   2.270000      1.2241490E-32
   2.280000      1.3201044E-32
   2.290000      1.4131627E-32
   2.300000      1.5021579E-32
   2.310000      1.5859242E-32
   2.320000      1.6632155E-32
   2.330000      1.7326994E-32
   2.340000      1.7929962E-32
   2.350000      1.8427010E-32
   2.360000      1.8803438E-32
   2.370000      1.9044742E-32
   2.380000      1.9136215E-32
   2.390000      1.9061364E-32
   2.400000      1.8807342E-32
   2.410000      1.8361185E-32
   2.420000      1.7707588E-32
   2.430000      1.6833495E-32
   2.440000      1.5726281E-32
   2.450000      1.4374609E-32
   2.460000      1.2768584E-32
   2.470000      1.0899242E-32
   2.480000      8.7591903E-33
   2.490000      6.3433532E-33
   2.500000      3.6484215E-33
   2.510000      6.7323064E-34
   2.520000     -2.5810115E-33
   2.530000     -6.1105613E-33
   2.540000     -9.9089663E-33
   2.550000     -1.3966918E-32
   2.560000     -1.8272133E-32
   2.570000     -2.2809207E-32
   2.580000     -2.7559515E-32
   2.590000     -3.2501129E-32
   2.600000     -3.7608669E-32
   2.610000     -4.2853558E-32
   2.620000     -4.8203847E-32
   2.630000     -5.3624001E-32
   2.640000     -5.9075121E-32
   2.650000     -6.4515215E-32
   2.660000     -6.9899343E-32
   2.670000     -7.5179206E-32
   2.680000     -8.0303591E-32
   2.690000     -8.5218973E-32
   2.700000     -8.9869341E-32
   2.710000     -9.4196236E-32
   2.720000     -9.8139273E-32
   2.730000     -1.0163662E-31
   2.740000     -1.0462503E-31
   2.750000     -1.0704025E-31
   2.760000     -1.0881763E-31
   2.770000     -1.0989226E-31
   2.780000     -1.1019961E-31
   2.790000     -1.0967604E-31
   2.800000     -1.0825928E-31
   2.810000     -1.0588898E-31
   2.820000     -1.0250740E-31
   2.830000     -9.8059821E-32
   2.840000     -9.2495284E-32
   2.850000     -8.5767442E-32
   2.860000     -7.7834988E-32
   2.870000     -6.8662418E-32
   2.880000     -5.8220695E-32
   2.890000     -4.6487972E-32
   2.900000     -3.3450235E-32
   2.910000     -1.9101924E-32
   2.920000     -3.4466354E-33
   2.930000      1.3502281E-32
   2.940000      3.1721135E-32
   2.950000      5.1175358E-32
   2.960000      7.1819002E-32
   2.970000      9.3594271E-32
   2.980000      1.1643112E-31
   2.990000      1.4024690E-31
   3.000000      1.6494617E-31
   3.010000      1.9042042E-31
   3.020000      2.1654802E-31
   3.030000      2.4319415E-31
   3.040000      2.7021089E-31
   3.050000      2.9743724E-31
   3.060000      3.2469949E-31
   3.070000      3.5181145E-31
   3.080000      3.7857489E-31
   3.090000      4.0478007E-31
   3.100000      4.3020620E-31
   3.110000      4.5462225E-31
   3.120000      4.7778777E-31
   3.130000      4.9945354E-31
   3.140000      5.1936279E-31
   3.150000      5.3725208E-31
   3.160000      5.5285258E-31
   3.170000      5.6589135E-31
   3.180000      5.7609248E-31
   3.190000      5.8317902E-31
   3.200000      5.8687411E-31
   3.210000      5.8690303E-31
   3.220000      5.8299465E-31
   3.230000      5.7488360E-31
   3.240000      5.6231216E-31
   3.250000      5.4503220E-31
   3.260000      5.2280751E-31
   3.270000      4.9541581E-31
   3.280000      4.6265121E-31
   3.290000      4.2432624E-31
   3.300000      3.8027426E-31
   3.310000      3.3035193E-31
   3.320000      2.7444128E-31
   3.330000      2.1245177E-31
   3.340000      1.4432349E-31
   3.350000      7.0028736E-32
   3.360000     -1.0426538E-32
   3.370000     -9.6999701E-32
   3.380000     -1.8960973E-31
   3.390000     -2.8813553E-31
   3.400000     -3.9241406E-31
   3.410000     -5.0223880E-31
   3.420000     -6.1735849E-31
   3.430000     -7.3747558E-31
   3.440000     -8.6224504E-31
   3.450000     -9.9127398E-31
   3.460000     -1.1241199E-30
   3.470000     -1.2602909E-30
   3.480000     -1.3992452E-30
   3.490000     -1.5403899E-30
   3.500000     -1.6830820E-30
   3.510000     -1.8266283E-30
   3.520000     -1.9702856E-30
   3.530000     -2.1132607E-30
   3.540000     -2.2547121E-30
   3.550000     -2.3937507E-30
   3.560000     -2.5294410E-30
   3.570000     -2.6608018E-30
   3.580000     -2.7868097E-30
   3.590000     -2.9063994E-30
   3.600000     -3.0184671E-30
   3.610000     -3.1218730E-30
   3.620000     -3.2154439E-30
   3.630000     -3.2979767E-30
   3.640000     -3.3682435E-30
   3.650000     -3.4249922E-30
   3.660000     -3.4669545E-30
   3.670000     -3.4928477E-30
   3.680000     -3.5013824E-30
   3.690000     -3.4912645E-30
   3.700000     -3.4612034E-30
   3.710000     -3.4099169E-30
   3.720000     -3.3361372E-30
   3.730000     -3.2386175E-30
   3.740000     -3.1161373E-30
   3.750000     -2.9675114E-30
   3.760000     -2.7915946E-30
   3.770000     -2.5872905E-30
   3.780000     -2.3535575E-30
   3.790000     -2.0894164E-30
   3.800000     -1.7939579E-30
   3.810000     -1.4663510E-30
   3.820000     -1.1058498E-30
   3.830000     -7.1180184E-31
   3.840000     -2.8365600E-31
   3.850000      1.7902925E-31
   3.860000      6.7657834E-31
   3.870000      1.2091879E-30
   3.880000      1.7769203E-30
   3.890000      2.3796937E-30
   3.900000      3.0172738E-30
   3.910000      3.6892644E-30
   3.920000      4.3950985E-30
   3.930000      5.1340286E-30
   3.940000      5.9051160E-30
   3.950000      6.7072241E-30
   3.960000      7.5390076E-30
   3.970000      8.3989030E-30
   3.980000      9.2851174E-30
   3.990000      1.0195624E-29
   4.000000      1.1128149E-29
   4.010000      1.2080163E-29
   4.020000      1.3048877E-29
   4.030000      1.4031232E-29
   4.040000      1.5023888E-29
   4.050000      1.6023223E-29
   4.060000      1.7025325E-29
   4.070000      1.8025987E-29
   4.080000      1.9020699E-29
   4.090000      2.0004648E-29
   4.100000      2.0972711E-29
   4.110000      2.1919460E-29
   4.120000      2.2839153E-29
   4.130000      2.3725733E-29
   4.140000      2.4572832E-29
   4.150000      2.5373772E-29
   4.160000      2.6121571E-29
   4.170000      2.6808933E-29
   4.180000      2.7428267E-29
   4.190000      2.7971689E-29
   4.200000      2.8431020E-29
   4.210000      2.8797808E-29
   4.220000      2.9063330E-29
   4.230000      2.9218605E-29
   4.240000      2.9254406E-29
   4.250000      2.9161279E-29
   4.260000      2.8929565E-29
   4.270000      2.8549408E-29
   4.280000      2.8010782E-29
   4.290000      2.7303530E-29
   4.300000      2.6417364E-29
   4.310000      2.5341928E-29
   4.320000      2.4066806E-29
   4.330000      2.2581572E-29
   4.340000      2.0875835E-29
   4.350000      1.8939267E-29
   4.360000      1.6761663E-29
   4.370000      1.4332987E-29
   4.380000      1.1643430E-29
   4.390000      8.6834591E-30
   4.400000      5.4438911E-30
   4.410000      1.9159542E-30
   4.420000     -1.9086588E-30
   4.430000     -6.0377061E-30
   4.440000     -1.0478322E-29
   4.450000     -1.5236941E-29
   4.460000     -2.0319217E-29
   4.470000     -2.5729937E-29
   4.480000     -3.1472933E-29
   4.490000     -3.7550994E-29
   4.500000     -4.3965776E-29
   4.510000     -5.0717698E-29
   4.520000     -5.7805842E-29
   4.530000     -6.5227859E-29
   4.540000     -7.2979847E-29
   4.550000     -8.1056240E-29
   4.560000     -8.9449720E-29
   4.570000     -9.8151102E-29
   4.580000     -1.0714918E-28
   4.590000     -1.1643065E-28
   4.600000     -1.2597995E-28
   4.610000     -1.3577920E-28
   4.620000     -1.4580803E-28
   4.630000     -1.5604341E-28
   4.640000     -1.6645967E-28
   4.650000     -1.7702827E-28
   4.660000     -1.8771767E-28
   4.670000     -1.9849331E-28
   4.680000     -2.0931741E-28
   4.690000     -2.2014889E-28
   4.700000     -2.3094332E-28
   4.710000     -2.4165267E-28
   4.720000     -2.5222544E-28
   4.730000     -2.6260645E-28
   4.740000     -2.7273669E-28
   4.750000     -2.8255352E-28
   4.760000     -2.9199036E-28
   4.770000     -3.0097677E-28
   4.780000     -3.0943844E-28
   4.790000     -3.1729715E-28
   4.800000     -3.2447088E-28
   4.810000     -3.3087356E-28
   4.820000     -3.3641552E-28
   4.830000     -3.4100321E-28
   4.840000     -3.4453943E-28
   4.850000     -3.4692349E-28
   4.860000     -3.4805119E-28
   4.870000     -3.4781510E-28
   4.880000     -3.4610471E-28
   4.890000     -3.4280657E-28
   4.900000     -3.3780462E-28
   4.910000     -3.3098043E-28
   4.920000     -3.2221340E-28
   4.930000     -3.1138120E-28
   4.940000     -2.9836011E-28
   4.950000     -2.8302542E-28
   4.960000     -2.6525183E-28
   4.970000     -2.4491396E-28
   4.980000     -2.2188687E-28
   4.990000     -1.9604658E-28
   5.000000     -1.6727072E-28
   5.010000     -1.3543915E-28
   5.020000     -1.0043457E-28
   5.030000     -6.2143440E-29
   5.040000     -2.0456488E-29
   5.050000      2.4730320E-29
   5.060000      7.3514919E-29
   5.070000      1.2598832E-28
   5.080000      1.8223366E-28
   5.090000      2.4232520E-28
   5.100000      3.0632732E-28
   5.110000      3.7429339E-28
   5.120000      4.4626483E-28
   5.130000      5.2227002E-28
   5.140000      6.0232303E-28
   5.150000      6.8642233E-28
   5.160000      7.7454995E-28
   5.170000      8.6666982E-28
   5.180000      9.6272702E-28
   5.190000      1.0626460E-27
   5.200000      1.1663296E-27
   5.210000      1.2736577E-27
   5.220000      1.3844862E-27
   5.230000      1.4986453E-27
   5.240000      1.6159384E-27
   5.250000      1.7361407E-27
   5.260000      1.8589983E-27
   5.270000      1.9842267E-27
   5.280000      2.1115095E-27
   5.290000      2.2404973E-27
   5.300000      2.3708074E-27
   5.310000      2.5020207E-27
   5.320000      2.6336832E-27
   5.330000      2.7653030E-27
   5.340000      2.8963508E-27
   5.350000      3.0262580E-27
   5.360000      3.1544175E-27
   5.370000      3.2801819E-27
   5.380000      3.4028632E-27
   5.390000      3.5217332E-27
   5.400000      3.6360217E-27
   5.410000      3.7449195E-27
   5.420000      3.8475759E-27
   5.430000      3.9430997E-27
   5.440000      4.0305604E-27
   5.450000      4.1089881E-27
   5.460000      4.1773748E-27
   5.470000      4.2346762E-27
   5.480000      4.2798119E-27
   5.490000      4.3116680E-27
   5.500000      4.3290988E-27
   5.510000      4.3309284E-27
   5.520000      4.3159539E-27
   5.530000      4.2829477E-27
   5.540000      4.2306603E-27
   5.550000      4.1578247E-27
   5.560000      4.0631583E-27
   5.570000      3.9453684E-27
   5.580000      3.8031558E-27
   5.590000      3.6352190E-27
   5.600000      3.4402598E-27
   5.610000      3.2169884E-27
   5.620000      2.9641291E-27
   5.630000      2.6804255E-27
   5.640000      2.3646479E-27
   5.650000      2.0155997E-27
   5.660000      1.6321243E-27
   5.670000      1.2131110E-27
   5.680000      7.5750595E-28
   5.690000      2.6431826E-28
   5.700000     -2.6737305E-28
   5.710000     -8.3840748E-28
   5.720000     -1.4495355E-27
   5.730000     -2.1014093E-27
   5.740000     -2.7945731E-27
   5.750000     -3.5294531E-27
   5.760000     -4.3063470E-27
   5.770000     -5.1254153E-27
   5.780000     -5.9866704E-27
   5.790000     -6.8899635E-27
   5.800000     -7.8349765E-27
   5.810000     -8.8212098E-27
   5.820000     -9.8479724E-27
   5.830000     -1.0914371E-26
   5.840000     -1.2019300E-26
   5.850000     -1.3161428E-26
   5.860000     -1.4339188E-26
   5.870000     -1.5550767E-26
   5.880000     -1.6794101E-26
   5.890000     -1.8066856E-26
   5.900000     -1.9366421E-26
   5.910000     -2.0689905E-26
   5.920000     -2.2034118E-26
   5.930000     -2.3395570E-26
   5.940000     -2.4770464E-26
   5.950000     -2.6154677E-26
   5.960000     -2.7543775E-26
   5.970000     -2.8932981E-26
   5.980000     -3.0317194E-26
   5.990000     -3.1690965E-26
   6.000000     -3.3048511E-26
   6.010000     -3.4383701E-26
   6.020000     -3.5690058E-26
   6.030000     -3.6960768E-26
   6.040000     -3.8188667E-26
   6.050000     -3.9366248E-26
   6.060000     -4.0485679E-26
   6.070000     -4.1538796E-26
   6.080000     -4.2517110E-26
   6.090000     -4.3411820E-26
   6.100000     -4.4213833E-26
   6.110000     -4.4913762E-26
   6.120000     -4.5501944E-26
   6.130000     -4.5968469E-26
   6.140000     -4.6303183E-26
   6.150000     -4.6495711E-26
   6.160000     -4.6535496E-26
   6.170000     -4.6411812E-26
   6.180000     -4.6113786E-26
   6.190000     -4.5630436E-26
   6.200000     -4.4950706E-26
   6.210000     -4.4063499E-26
   6.220000     -4.2957707E-26
   6.230000     -4.1622249E-26
   6.240000     -4.0046126E-26
   6.250000     -3.8218459E-26
   6.260000     -3.6128529E-26
   6.270000     -3.3765829E-26
   6.280000     -3.1120131E-26
   6.290000     -2.8181510E-26
   6.300000     -2.4940418E-26
   6.310000     -2.1387746E-26
   6.320000     -1.7514865E-26
   6.330000     -1.3313699E-26
   6.340000     -8.7767956E-27
   6.350000     -3.8973850E-27
   6.360000      1.3305447E-27
   6.370000      6.9121995E-27
   6.380000      1.2851903E-26
   6.390000      1.9152997E-26
   6.400000      2.5817801E-26
   6.410000      3.2847536E-26
   6.420000      4.0242217E-26
   6.430000      4.8000618E-26
   6.440000      5.6120187E-26
   6.450000      6.4596954E-26
   6.460000      7.3425478E-26
   6.470000      8.2598747E-26
   6.480000      9.2108151E-26
   6.490000      1.0194335E-25
   6.500000      1.1209223E-25
   6.510000      1.2254086E-25
   6.520000      1.3327338E-25
   6.530000      1.4427196E-25
   6.540000      1.5551674E-25
   6.550000      1.6698578E-25
   6.560000      1.7865498E-25
   6.570000      1.9049804E-25
   6.580000      2.0248641E-25
   6.590000      2.1458925E-25
   6.600000      2.2677340E-25
   6.610000      2.3900341E-25
   6.620000      2.5124133E-25
   6.630000      2.6344688E-25
   6.640000      2.7557739E-25
   6.650000      2.8758775E-25
   6.660000      2.9943042E-25
   6.670000      3.1105555E-25
   6.680000      3.2241083E-25
   6.690000      3.3344159E-25
   6.700000      3.4409090E-25
   6.710000      3.5429957E-25
   6.720000      3.6400621E-25
   6.730000      3.7314726E-25
   6.740000      3.8165714E-25
   6.750000      3.8946832E-25
   6.760000      3.9651139E-25
   6.770000      4.0271522E-25
   6.780000      4.0800702E-25
   6.790000      4.1231262E-25
   6.800000      4.1555649E-25
   6.810000      4.1766191E-25
   6.820000      4.1855126E-25
   6.830000      4.1814608E-25
   6.840000      4.1636739E-25
   6.850000      4.1313582E-25
   6.860000      4.0837202E-25
   6.870000      4.0199654E-25
   6.880000      3.9393056E-25
   6.890000      3.8409583E-25
   6.900000      3.7241502E-25
   6.910000      3.5881220E-25
   6.920000      3.4321292E-25
   6.930000      3.2554475E-25
   6.940000      3.0573737E-25
   6.950000      2.8372314E-25
   6.960000      2.5943739E-25
   6.970000      2.3281879E-25
   6.980000      2.0380970E-25
   6.990000      1.7235664E-25
   7.000000      1.3841074E-25
   7.010000      1.0192794E-25
   7.020000      6.2869607E-26
   7.030000      2.1202934E-26
   7.040000     -2.3098721E-26
   7.050000     -7.0055310E-26
   7.060000     -1.1967969E-25