  -2.600000      0.0000000E+00
  -2.590000      0.0000000E+00
  -2.580000      0.0000000E+00
  -2.570000      0.0000000E+00
  -2.560000      0.0000000E+00
  -2.550000      0.0000000E+00
  -2.540000      0.0000000E+00
  -2.530000      0.0000000E+00
  -2.520000      0.0000000E+00
  -2.510000      0.0000000E+00
  -2.500000      0.0000000E+00
  -2.490000      0.0000000E+00
  -2.480000      0.0000000E+00
  -2.470000      0.0000000E+00
  -2.460000      0.0000000E+00
  -2.450000      0.0000000E+00
  -2.440000      0.0000000E+00
  -2.430000      0.0000000E+00
  -2.420000      0.0000000E+00
  -2.410000      0.0000000E+00
  -2.400000      0.0000000E+00
  -2.390000      0.0000000E+00
  -2.380000      0.0000000E+00
  -2.370000      0.0000000E+00
  -2.360000      0.0000000E+00
  -2.350000      0.0000000E+00
  -2.340000      0.0000000E+00
  -2.330000      0.0000000E+00
  -2.320000      0.0000000E+00
  -2.310000      0.0000000E+00
  -2.300000      0.0000000E+00
  -2.290000      0.0000000E+00
  -2.280000      0.0000000E+00
  -2.270000      0.0000000E+00
  -2.260000      0.0000000E+00
  -2.250000      0.0000000E+00
  -2.240000      0.0000000E+00
  -2.230000      0.0000000E+00
  -2.220000      0.0000000E+00
  -2.210000      0.0000000E+00
  -2.200000      0.0000000E+00
  -2.190000      0.0000000E+00
  -2.180000      0.0000000E+00
  -2.170000      0.0000000E+00
  -2.160000      0.0000000E+00
  -2.150000      0.0000000E+00
  -2.140000      0.0000000E+00
  -2.130000      0.0000000E+00
  -2.120000      0.0000000E+00
  -2.110000      0.0000000E+00
  -2.100000      0.0000000E+00
  -2.090000      0.0000000E+00
  -2.080000      0.0000000E+00
  -2.070000      0.0000000E+00
  -2.060000      0.0000000E+00
  -2.050000      0.0000000E+00
  -2.040000      0.0000000E+00
  -2.030000      0.0000000E+00
  -2.020000      0.0000000E+00
  -2.010000      0.0000000E+00
  -2.000000      0.0000000E+00
  -1.990000      0.0000000E+00
  -1.980000      0.0000000E+00
  -1.970000      0.0000000E+00
  -1.960000      0.0000000E+00
  -1.950000      0.0000000E+00
  -1.940000      0.0000000E+00
  -1.930000      0.0000000E+00
  -1.920000      0.0000000E+00
  -1.910000      0.0000000E+00
  -1.900000      0.0000000E+00
  -1.890000      0.0000000E+00
  -1.880000      0.0000000E+00
  -1.870000      0.0000000E+00
  -1.860000      0.0000000E+00
  -1.850000      0.0000000E+00
  -1.840000      0.0000000E+00
  -1.830000      0.0000000E+00
  -1.820000      0.0000000E+00
  -1.810000      0.0000000E+00
  -1.800000      0.0000000E+00
  -1.790000      0.0000000E+00
  -1.780000      0.0000000E+00
  -1.770000      0.0000000E+00
  -1.760000      0.0000000E+00
  -1.750000      0.0000000E+00
  -1.740000      0.0000000E+00
  -1.730000      0.0000000E+00
  -1.720000      0.0000000E+00
  -1.710000      0.0000000E+00
  -1.700000      0.0000000E+00
  -1.690000      0.0000000E+00
  -1.680000      0.0000000E+00
  -1.670000      0.0000000E+00
  -1.660000      0.0000000E+00
  -1.650000      0.0000000E+00
  -1.640000      0.0000000E+00
  -1.630000      0.0000000E+00
  -1.620000      0.0000000E+00
  -1.610000      0.0000000E+00
  -1.600000      0.0000000E+00
  -1.590000      0.0000000E+00
  -1.580000      0.0000000E+00
  -1.570000      0.0000000E+00
  -1.560000      0.0000000E+00
  -1.550000      0.0000000E+00
  -1.540000      0.0000000E+00
  -1.530000      0.0000000E+00
  -1.520000      0.0000000E+00
  -1.510000      0.0000000E+00
  -1.500000      0.0000000E+00
  -1.490000      0.0000000E+00
  -1.480000      0.0000000E+00
  -1.470000      0.0000000E+00
  -1.460000      0.0000000E+00
  -1.450000      0.0000000E+00
  -1.440000      0.0000000E+00
  -1.430000      0.0000000E+00
  -1.420000      0.0000000E+00
  -1.410000      0.0000000E+00
  -1.400000      0.0000000E+00
  -1.390000      0.0000000E+00
  -1.380000      0.0000000E+00
  -1.370000      0.0000000E+00
  -1.360000      0.0000000E+00
  -1.350000      0.0000000E+00
  -1.340000      0.0000000E+00
  -1.330000      0.0000000E+00
  -1.320000      0.0000000E+00
  -1.310000      0.0000000E+00
  -1.300000      0.0000000E+00
  -1.290000      0.0000000E+00
  -1.280000      0.0000000E+00
  -1.270000      0.0000000E+00
  -1.260000      0.0000000E+00
  -1.250000      0.0000000E+00
  -1.240000      0.0000000E+00
  -1.230000      0.0000000E+00
  -1.220000      0.0000000E+00
  -1.210000      0.0000000E+00
  -1.200000      0.0000000E+00
  -1.190000      0.0000000E+00
  -1.180000      0.0000000E+00
  -1.170000      0.0000000E+00
  -1.160000      0.0000000E+00
  -1.150000      0.0000000E+00
  -1.140000      0.0000000E+00
  -1.130000      0.0000000E+00
  -1.120000      0.0000000E+00
  -1.110000      0.0000000E+00
  -1.100000      0.0000000E+00
  -1.090000      0.0000000E+00
  -1.080000      0.0000000E+00
  -1.070000      0.0000000E+00
  -1.060000      0.0000000E+00
  -1.050000      0.0000000E+00
  -1.040000      0.0000000E+00
  -1.030000      0.0000000E+00
  -1.020000      0.0000000E+00
  -1.010000      0.0000000E+00
  -1.000000      0.0000000E+00
 -0.9900000      0.0000000E+00
 -0.9800000      0.0000000E+00
 -0.9700000      0.0000000E+00
 -0.9600000      0.0000000E+00
 -0.9500000      0.0000000E+00
 -0.9400000      0.0000000E+00
 -0.9300000      0.0000000E+00
 -0.9200000      0.0000000E+00
 -0.9100000      0.0000000E+00
 -0.9000000      0.0000000E+00
 -0.8900000      0.0000000E+00
 -0.8800000      0.0000000E+00
 -0.8700000      0.0000000E+00
 -0.8600000      0.0000000E+00
 -0.8500000      0.0000000E+00
 -0.8400000      0.0000000E+00
 -0.8300000      0.0000000E+00
 -0.8200000      0.0000000E+00
 -0.8100000      0.0000000E+00
 -0.8000000      0.0000000E+00
 -0.7900000      0.0000000E+00
 -0.7800000      0.0000000E+00
 -0.7700000      0.0000000E+00
 -0.7600000      0.0000000E+00
 -0.7500000      0.0000000E+00
 -0.7400000      0.0000000E+00
 -0.7300000      0.0000000E+00
 -0.7200000      0.0000000E+00
 -0.7100000      0.0000000E+00
 -0.7000000      0.0000000E+00
 -0.6900000      0.0000000E+00
 -0.6800000      0.0000000E+00
 -0.6700000      0.0000000E+00
 -0.6600000      0.0000000E+00
 -0.6500000      0.0000000E+00
 -0.6400000      0.0000000E+00
 -0.6300000      0.0000000E+00
 -0.6200000      0.0000000E+00
 -0.6100000      0.0000000E+00
 -0.6000000      0.0000000E+00
 -0.5900000      0.0000000E+00
 -0.5800000      0.0000000E+00
 -0.5700000      0.0000000E+00
 -0.5600000      0.0000000E+00
 -0.5500000      0.0000000E+00
 -0.5400000      0.0000000E+00
 -0.5300000      0.0000000E+00
 -0.5200000      0.0000000E+00
 -0.5100000      0.0000000E+00
 -0.5000000      0.0000000E+00
 -0.4900000      0.0000000E+00
 -0.4800000      0.0000000E+00
 -0.4700000      0.0000000E+00
 -0.4600000      0.0000000E+00
 -0.4500000      0.0000000E+00
 -0.4400000      0.0000000E+00
 -0.4300000      0.0000000E+00
 -0.4200000      0.0000000E+00
 -0.4100000      0.0000000E+00
 -0.4000000      0.0000000E+00
 -0.3900000      0.0000000E+00
 -0.3800000      0.0000000E+00
 -0.3700000      0.0000000E+00
 -0.3600000      0.0000000E+00
 -0.3500000      0.0000000E+00
 -0.3400000      0.0000000E+00
 -0.3300000      0.0000000E+00
 -0.3200000      0.0000000E+00
 -0.3100000      0.0000000E+00
 -0.3000000      0.0000000E+00
 -0.2900000      0.0000000E+00
 -0.2800000      0.0000000E+00
 -0.2700000      0.0000000E+00
 -0.2600000      0.0000000E+00
 -0.2500000      0.0000000E+00
 -0.2400000      0.0000000E+00
 -0.2300000      0.0000000E+00
 -0.2200000      0.0000000E+00
 -0.2100000      0.0000000E+00
 -0.2000000      0.0000000E+00
 -0.1900000      0.0000000E+00
 -0.1800000      0.0000000E+00
 -0.1700000      0.0000000E+00
 -0.1600000      0.0000000E+00
 -0.1500000      0.0000000E+00
 -0.1400000      0.0000000E+00
 -0.1300000      0.0000000E+00
 -0.1200000      0.0000000E+00
 -0.1100000      0.0000000E+00
 -0.1000000      0.0000000E+00
 -9.0000004E-02  0.0000000E+00
 -7.9999998E-02  0.0000000E+00
 -7.0000000E-02  0.0000000E+00
 -5.9999999E-02  0.0000000E+00
 -5.0000001E-02  0.0000000E+00
 -3.9999999E-02  0.0000000E+00
 -2.9999999E-02  0.0000000E+00
 -2.0000000E-02  0.0000000E+00
 -9.9999998E-03  0.0000000E+00
 -3.4694470E-17  0.0000000E+00
  9.9999998E-03  0.0000000E+00
  2.0000000E-02  0.0000000E+00
  2.9999999E-02  0.0000000E+00
  3.9999999E-02  0.0000000E+00
  5.0000001E-02  0.0000000E+00
  5.9999999E-02  0.0000000E+00
  7.0000000E-02  0.0000000E+00
  7.9999998E-02  0.0000000E+00
  9.0000004E-02  0.0000000E+00
  0.1000000      0.0000000E+00
  0.1100000      0.0000000E+00
  0.1200000      0.0000000E+00
  0.1300000      0.0000000E+00
  0.1400000      0.0000000E+00
  0.1500000      0.0000000E+00
  0.1600000      0.0000000E+00
  0.1700000      0.0000000E+00
  0.1800000      0.0000000E+00
  0.1900000      0.0000000E+00
  0.2000000      0.0000000E+00
  0.2100000      0.0000000E+00
  0.2200000      0.0000000E+00
  0.2300000      0.0000000E+00
  0.2400000      0.0000000E+00
  0.2500000      0.0000000E+00
  0.2600000      1.6903285E-38
  0.2700000      2.4525725E-38
  0.2800000      3.3019415E-38
  0.2900000      4.2051058E-38
  0.3000000      4.7069245E-38
  0.3100000      4.7874958E-38
  0.3200000      4.6060540E-38
  0.3300000      4.0177867E-38
  0.3400000      3.7102597E-38
  0.3500000      3.4836103E-38
  0.3600000      3.7671760E-38
  0.3700000      5.8303780E-38
  0.3800000      7.4079044E-38
  0.3900000      7.1310324E-38
  0.4000000      6.4517440E-38
  0.4100000      5.8099387E-38
  0.4200000      7.9336424E-38
  0.4300000      1.3955205E-37
  0.4400000      2.1735789E-37
  0.4500000      3.0199493E-37
  0.4600000      3.3885036E-37
  0.4700000      3.2248091E-37
  0.4800000      3.0094595E-37
  0.4900000      2.1178703E-37
  0.5000000      0.0000000E+00
  0.5100000     -2.8785025E-37
  0.5200000     -6.3828997E-37
  0.5300000     -1.0619366E-36
  0.5400000     -1.5224706E-36
  0.5500000     -1.9656484E-36
  0.5600000     -2.3941347E-36
  0.5700000     -2.7414506E-36
  0.5800000     -2.9944158E-36
  0.5900000     -3.2446040E-36
  0.6000000     -3.5176783E-36
  0.6100000     -3.8008911E-36
  0.6200000     -4.0865303E-36
  0.6300000     -4.3067580E-36
  0.6400000     -4.5149788E-36
  0.6500000     -4.6860554E-36
  0.6600000     -4.7733271E-36
  0.6700000     -4.8927922E-36
  0.6800000     -4.9853556E-36
  0.6900000     -5.0843865E-36
  0.7000000     -5.3281330E-36
  0.7100000     -5.8031040E-36
  0.7200000     -6.2226426E-36
  0.7300000     -6.4128849E-36
  0.7400000     -6.4928507E-36
  0.7500000     -6.3787716E-36
  0.7600000     -6.6759039E-36
  0.7700000     -7.3988652E-36
  0.7800000     -8.2393975E-36
  0.7900000     -8.6450722E-36
  0.8000000     -7.8656665E-36
  0.8100000     -6.3476128E-36
  0.8200000     -4.3548608E-36
  0.8300000     -1.9514229E-36
  0.8400000      1.0487857E-36
  0.8500000      5.2009778E-36
  0.8600000      1.0494937E-35
  0.8700000      1.6927127E-35
  0.8800000      2.4011313E-35
  0.8900000      3.1213008E-35
  0.9000000      3.9248726E-35
  0.9100000      4.6847815E-35
  0.9200000      5.2585814E-35
  0.9300000      5.6869102E-35
  0.9400000      6.0787815E-35
  0.9500000      6.4883179E-35
  0.9600000      6.9506637E-35
  0.9700000      7.4703923E-35
  0.9800000      7.8491437E-35
  0.9900000      8.1171512E-35
   1.000000      8.3716291E-35
   1.010000      8.4646751E-35
   1.020000      8.5032988E-35
   1.030000      8.7777538E-35
   1.040000      9.1921959E-35
   1.050000      9.5142934E-35
   1.060000      9.7759574E-35
   1.070000      9.9578319E-35
   1.080000      1.0095252E-34
   1.090000      1.0198141E-34
   1.100000      1.0132163E-34
   1.110000      9.9030417E-35
   1.120000      9.4575942E-35
   1.130000      8.7557523E-35
   1.140000      7.9839530E-35
   1.150000      7.2089332E-35
   1.160000      6.5335864E-35
   1.170000      5.8183917E-35
   1.180000      4.6747846E-35
   1.190000      3.4513292E-35
   1.200000      2.1593947E-35
   1.210000      5.6437999E-36
   1.220000     -1.3893135E-35
   1.230000     -3.7987394E-35
   1.240000     -6.9728414E-35
   1.250000     -1.0968374E-34
   1.260000     -1.4606462E-34
   1.270000     -1.7505392E-34
   1.280000     -2.0147663E-34
   1.290000     -2.2619808E-34
   1.300000     -2.4953468E-34
   1.310000     -2.7450847E-34
   1.320000     -3.0238339E-34
   1.330000     -3.3144099E-34
   1.340000     -3.6084850E-34
   1.350000     -3.8428320E-34
   1.360000     -3.9786820E-34
   1.370000     -4.1616894E-34
   1.380000     -4.4415728E-34
   1.390000     -4.6999625E-34
   1.400000     -4.9064294E-34
   1.410000     -5.1928615E-34
   1.420000     -5.5293197E-34
   1.430000     -5.8234504E-34
   1.440000     -6.1592589E-34
   1.450000     -6.5356802E-34
   1.460000     -6.9166083E-34
   1.470000     -7.2721003E-34
   1.480000     -7.5149492E-34
   1.490000     -7.6789467E-34
   1.500000     -7.8072450E-34
   1.510000     -7.8679997E-34
   1.520000     -7.8007770E-34
   1.530000     -7.5326688E-34
   1.540000     -7.1161599E-34
   1.550000     -6.7228157E-34
   1.560000     -6.4073763E-34
   1.570000     -6.1055861E-34
   1.580000     -5.8442888E-34
   1.590000     -5.5861168E-34
   1.600000     -5.3278648E-34
   1.610000     -5.0678000E-34
   1.620000     -4.7371885E-34
   1.630000     -4.2705586E-34
   1.640000     -3.5889659E-34
   1.650000     -2.7050903E-34
   1.660000     -1.6681260E-34
   1.670000     -4.2391078E-35
   1.680000      1.0850411E-34
   1.690000      2.8483551E-34
   1.700000      4.8297614E-34
   1.710000      6.9811136E-34
   1.720000      9.2536816E-34
   1.730000      1.1605082E-33
   1.740000      1.4022672E-33
   1.750000      1.6523909E-33
   1.760000      1.9108744E-33
   1.770000      2.1772830E-33
   1.780000      2.4527509E-33
   1.790000      2.7399330E-33
   1.800000      3.0471108E-33
   1.810000      3.3773202E-33
   1.820000      3.7288661E-33
   1.830000      4.1059243E-33
   1.840000      4.4975534E-33
   1.850000      4.9052773E-33
   1.860000      5.3346942E-33
   1.870000      5.7745407E-33
   1.880000      6.2155028E-33
   1.890000      6.6461444E-33
   1.900000      7.0561436E-33
   1.910000      7.4345830E-33
   1.920000      7.7726824E-33
   1.930000      8.0607115E-33
   1.940000      8.2880764E-33
   1.950000      8.4451702E-33
   1.960000      8.5240686E-33
   1.970000      8.5157821E-33
   1.980000      8.4108847E-33
   1.990000      8.1950654E-33
   2.000000      7.8580982E-33
   2.010000      7.3910192E-33
   2.020000      6.7777616E-33
   2.030000      6.0041316E-33
   2.040000      5.0548325E-33
   2.050000      3.9141695E-33
   2.060000      2.5674883E-33
   2.070000      1.0007579E-33
   2.080000     -7.9882923E-34
   2.090000     -2.8420094E-33
   2.100000     -5.1366737E-33
   2.110000     -7.6887682E-33
   2.120000     -1.0501064E-32
   2.130000     -1.3579271E-32
   2.140000     -1.6920623E-32
   2.150000     -2.0514683E-32
   2.160000     -2.4359686E-32
   2.170000     -2.8452770E-32
   2.180000     -3.2787338E-32
   2.190000     -3.7355036E-32
   2.200000     -4.2144776E-32
   2.210000     -4.7143286E-32
   2.220000     -5.2333679E-32
   2.230000     -5.7693827E-32
   2.240000     -6.3196439E-32
   2.250000     -6.8808626E-32
   2.260000     -7.4489378E-32
   2.270000     -8.0189985E-32
   2.280000     -8.5855845E-32
   2.290000     -9.1422427E-32
   2.300000     -9.6817776E-32
   2.310000     -1.0196412E-31
   2.320000     -1.0677575E-31
   2.330000     -1.1116154E-31
   2.340000     -1.1502454E-31
   2.350000     -1.1826349E-31
   2.360000     -1.2077442E-31
   2.370000     -1.2245036E-31
   2.380000     -1.2318273E-31
   2.390000     -1.2286213E-31
   2.400000     -1.2137923E-31
   2.410000     -1.1862522E-31
   2.420000     -1.1449308E-31
   2.430000     -1.0887827E-31
   2.440000     -1.0167957E-31
   2.450000     -9.2800236E-32
   2.460000     -8.2148829E-32
   2.470000     -6.9640247E-32
   2.480000     -5.5196689E-32
   2.490000     -3.8748734E-32
   2.500000     -2.0236295E-32
   2.510000      3.9097511E-34
   2.520000      2.3172649E-32
   2.530000      4.8136209E-32
   2.540000      7.5296861E-32
   2.550000      1.0465647E-31
   2.560000      1.3620370E-31
   2.570000      1.6991231E-31
   2.580000      2.0573956E-31
   2.590000      2.4362574E-31
   2.600000      2.8349219E-31
   2.610000      3.2523940E-31
   2.620000      3.6874484E-31
   2.630000      4.1386072E-31
   2.640000      4.6041114E-31
   2.650000      5.0819000E-31
   2.660000      5.5695792E-31
   2.670000      6.0644026E-31
   2.680000      6.5632542E-31
   2.690000      7.0626315E-31
   2.700000      7.5586393E-31
   2.710000      8.0469876E-31
   2.720000      8.5229989E-31
   2.730000      8.9816260E-31
   2.740000      9.4174730E-31
   2.750000      9.8248279E-31
   2.760000      1.0197704E-30
   2.770000      1.0529880E-30
   2.780000      1.0814954E-30
   2.790000      1.1046398E-30
   2.800000      1.1217614E-30
   2.810000      1.1321988E-30
   2.820000      1.1352957E-30
   2.830000      1.1304059E-30
   2.840000      1.1168989E-30
   2.850000      1.0941654E-30
   2.860000      1.0616222E-30
   2.870000      1.0187174E-30
   2.880000      9.6493341E-31
   2.890000      8.9979240E-31
   2.900000      8.2285968E-31
   2.910000      7.3374762E-31
   2.920000      6.3211931E-31
   2.930000      5.1769298E-31
   2.940000      3.9024623E-31
   2.950000      2.4962043E-31
   2.960000      9.5726371E-32
   2.970000     -7.1449532E-32
   2.980000     -2.5183843E-31
   2.990000     -4.4528135E-31
   3.000000     -6.5152019E-31
   3.010000     -8.7018819E-31
   3.020000     -1.1007993E-30
   3.030000     -1.3427373E-30
   3.040000     -1.5952438E-30
   3.050000     -1.8574075E-30
   3.060000     -2.1281539E-30
   3.070000     -2.4062332E-30
   3.080000     -2.6902119E-30
   3.090000     -2.9784663E-30
   3.100000     -3.2691758E-30
   3.110000     -3.5603219E-30
   3.120000     -3.8496876E-30
   3.130000     -4.1348599E-30
   3.140000     -4.4132391E-30
   3.150000     -4.6820478E-30
   3.160000     -4.9383424E-30
   3.170000     -5.1790329E-30
   3.180000     -5.4008993E-30
   3.190000     -5.6006171E-30
   3.200000     -5.7747764E-30
   3.210000     -5.9199110E-30
   3.220000     -6.0325208E-30
   3.230000     -6.1090987E-30
   3.240000     -6.1461578E-30
   3.250000     -6.1402551E-30
   3.260000     -6.0880173E-30
   3.270000     -5.9861604E-30
   3.280000     -5.8315146E-30
   3.290000     -5.6210428E-30
   3.300000     -5.3518625E-30
   3.310000     -5.0212612E-30
   3.320000     -4.6267206E-30
   3.330000     -4.1659335E-30
   3.340000     -3.6368272E-30
   3.350000     -3.0375842E-30
   3.360000     -2.3666728E-30
   3.370000     -1.6228738E-30
   3.380000     -8.0531397E-31
   3.390000      8.6492357E-32
   3.400000      1.0526008E-30
   3.410000      2.0925897E-30
   3.420000      3.2055065E-30
   3.430000      4.3898127E-30
   3.440000      5.6433249E-30
   3.450000      6.9631568E-30
   3.460000      8.3456571E-30
   3.470000      9.7863497E-30
   3.480000      1.1279879E-29
   3.490000      1.2819959E-29
   3.500000      1.4399333E-29
   3.510000      1.6009729E-29
   3.520000      1.7641849E-29
   3.530000      1.9285340E-29
   3.540000      2.0928802E-29
   3.550000      2.2559788E-29
   3.560000      2.4164830E-29
   3.570000      2.5729476E-29
   3.580000      2.7238337E-29
   3.590000      2.8675135E-29
   3.600000      3.0022786E-29
   3.610000      3.1263455E-29
   3.620000      3.2378650E-29
   3.630000      3.3349289E-29
   3.640000      3.4155799E-29
   3.650000      3.4778202E-29
   3.660000      3.5196183E-29
   3.670000      3.5389194E-29
   3.680000      3.5336526E-29
   3.690000      3.5017394E-29
   3.700000      3.4411009E-29
   3.710000      3.3496664E-29
   3.720000      3.2253817E-29
   3.730000      3.0662177E-29
   3.740000      2.8701809E-29
   3.750000      2.6353228E-29
   3.760000      2.3597520E-29
   3.770000      2.0416487E-29
   3.780000      1.6792799E-29
   3.790000      1.2710158E-29
   3.800000      8.1535102E-30
   3.810000      3.1092651E-30
   3.820000     -2.4344556E-30
   3.830000     -8.4875642E-30
   3.840000     -1.5057721E-29
   3.850000     -2.2150032E-29
   3.860000     -2.9766731E-29
   3.870000     -3.7906878E-29
   3.880000     -4.6566025E-29
   3.890000     -5.5735919E-29
   3.900000     -6.5404190E-29
   3.910000     -7.5554063E-29
   3.920000     -8.6164108E-29
   3.930000     -9.7207992E-29
   3.940000     -1.0865429E-28
   3.950000     -1.2046628E-28
   3.960000     -1.3260191E-28
   3.970000     -1.4501359E-28
   3.980000     -1.5764818E-28
   3.990000     -1.7044699E-28
   4.000000     -1.8334574E-28
   4.010000     -1.9627463E-28
   4.020000     -2.0915830E-28
   4.030000     -2.2191605E-28
   4.040000     -2.3446170E-28
   4.050000     -2.4670392E-28
   4.060000     -2.5854603E-28
   4.070000     -2.6988639E-28
   4.080000     -2.8061815E-28
   4.090000     -2.9062959E-28
   4.100000     -2.9980412E-28
   4.110000     -3.0802033E-28
   4.120000     -3.1515210E-28
   4.130000     -3.2106863E-28
   4.140000     -3.2563481E-28
   4.150000     -3.2871127E-28
   4.160000     -3.3015464E-28
   4.170000     -3.2981786E-28
   4.180000     -3.2755063E-28
   4.190000     -3.2319984E-28
   4.200000     -3.1661008E-28
   4.210000     -3.0762460E-28
   4.220000     -2.9608573E-28
   4.230000     -2.8183601E-28
   4.240000     -2.6471922E-28
   4.250000     -2.4458121E-28
   4.260000     -2.2127125E-28
   4.270000     -1.9464324E-28
   4.280000     -1.6455703E-28
   4.290000     -1.3087990E-28
   4.300000     -9.3487763E-29
   4.310000     -5.2266639E-29
   4.320000     -7.1141843E-30
   4.330000      4.2058958E-29
   4.340000      9.5327983E-29
   4.350000      1.5275237E-28
   4.360000      2.1437461E-28
   4.370000      2.8021920E-28
   4.380000      3.5029120E-28
   4.390000      4.2457501E-28
   4.400000      5.0303369E-28
   4.410000      5.8560755E-28
   4.420000      6.7221296E-28
   4.430000      7.6274164E-28
   4.440000      8.5705885E-28
   4.450000      9.5500318E-28
   4.460000      1.0563847E-27
   4.470000      1.1609839E-27
   4.480000      1.2685504E-27
   4.490000      1.3788014E-27
   4.500000      1.4914205E-27
   4.510000      1.6060560E-27
   4.520000      1.7223197E-27
   4.530000      1.8397848E-27
   4.540000      1.9579853E-27
   4.550000      2.0764136E-27
   4.560000      2.1945203E-27
   4.570000      2.3117120E-27
   4.580000      2.4273516E-27
   4.590000      2.5407571E-27
   4.600000      2.6512007E-27
   4.610000      2.7579088E-27
   4.620000      2.8600632E-27
   4.630000      2.9568005E-27
   4.640000      3.0472146E-27
   4.650000      3.1303565E-27
   4.660000      3.2052360E-27
   4.670000      3.2708249E-27
   4.680000      3.3260598E-27
   4.690000      3.3698416E-27
   4.700000      3.4010424E-27
   4.710000      3.4185068E-27
   4.720000      3.4210532E-27
   4.730000      3.4074820E-27
   4.740000      3.3765770E-27
   4.750000      3.3271079E-27
   4.760000      3.2578372E-27
   4.770000      3.1675225E-27
   4.780000      3.0549207E-27
   4.790000      2.9187936E-27
   4.800000      2.7579117E-27
   4.810000      2.5710600E-27
   4.820000      2.3570434E-27
   4.830000      2.1146896E-27
   4.840000      1.8428580E-27
   4.850000      1.5404448E-27
   4.860000      1.2063902E-27
   4.870000      8.3968726E-28
   4.880000      4.3938801E-28
   4.890000      4.6129231E-30
   4.900000     -4.6543756E-28
   4.910000     -9.7147595E-28
   4.920000     -1.5141178E-27
   4.930000     -2.0938670E-27
   4.940000     -2.7111044E-27
   4.950000     -3.3660787E-27
   4.960000     -4.0588904E-27
   4.970000     -4.7894815E-27
   4.980000     -5.5576221E-27
   4.990000     -6.3628974E-27
   5.000000     -7.2046959E-27
   5.010000     -8.0821966E-27
   5.020000     -8.9943563E-27
   5.030000     -9.9398955E-27
   5.040000     -1.0917289E-26
   5.050000     -1.1924759E-26
   5.060000     -1.2960259E-26
   5.070000     -1.4021465E-26
   5.080000     -1.5105773E-26
   5.090000     -1.6210284E-26
   5.100000     -1.7331798E-26
   5.110000     -1.8466801E-26
   5.120000     -1.9611466E-26
   5.130000     -2.0761642E-26
   5.140000     -2.1912852E-26
   5.150000     -2.3060276E-26
   5.160000     -2.4198757E-26
   5.170000     -2.5322788E-26
   5.180000     -2.6426508E-26
   5.190000     -2.7503691E-26
   5.200000     -2.8547754E-26
   5.210000     -2.9551762E-26
   5.220000     -3.0508400E-26
   5.230000     -3.1409995E-26
   5.240000     -3.2248489E-26
   5.250000     -3.3015481E-26
   5.260000     -3.3702206E-26
   5.270000     -3.4299549E-26
   5.280000     -3.4798057E-26
   5.290000     -3.5187948E-26
   5.300000     -3.5459128E-26
   5.310000     -3.5601206E-26
   5.320000     -3.5603524E-26
   5.330000     -3.5455175E-26
   5.340000     -3.5145041E-26
   5.350000     -3.4661815E-26
   5.360000     -3.3994035E-26
   5.370000     -3.3130133E-26
   5.380000     -3.2058469E-26
   5.390000     -3.0767369E-26
   5.400000     -2.9245197E-26
   5.410000     -2.7480386E-26
   5.420000     -2.5461500E-26
   5.430000     -2.3177279E-26
   5.440000     -2.0616710E-26
   5.450000     -1.7769078E-26
   5.460000     -1.4624038E-26
   5.470000     -1.1171672E-26
   5.480000     -7.4025606E-27
   5.490000     -3.3078598E-27
   5.500000      1.1206366E-27
   5.510000      5.8904078E-27
   5.520000      1.1008135E-26
   5.530000      1.6479625E-26
   5.540000      2.2309706E-26
   5.550000      2.8502139E-26
   5.560000      3.5059518E-26
   5.570000      4.1983180E-26
   5.580000      4.9273100E-26
   5.590000      5.6927802E-26
   5.600000      6.4944194E-26
   5.610000      7.3317503E-26
   5.620000      8.2041127E-26
   5.630000      9.1106544E-26
   5.640000      1.0050320E-25
   5.650000      1.1021836E-25
   5.660000      1.2023702E-25
   5.670000      1.3054176E-25
   5.680000      1.4111263E-25
   5.690000      1.5192708E-25
   5.700000      1.6295982E-25
   5.710000      1.7418272E-25
   5.720000      1.8556470E-25
   5.730000      1.9707163E-25
   5.740000      2.0866633E-25
   5.750000      2.2030844E-25
   5.760000      2.3195424E-25
   5.770000      2.4355681E-25
   5.780000      2.5506577E-25
   5.790000      2.6642737E-25
   5.800000      2.7758440E-25
   5.810000      2.8847618E-25
   5.820000      2.9903858E-25
   5.830000      3.0920394E-25
   5.840000      3.1890116E-25
   5.850000      3.2805570E-25
   5.860000      3.3658962E-25
   5.870000      3.4442168E-25
   5.880000      3.5146726E-25
   5.890000      3.5763867E-25
   5.900000      3.6284503E-25
   5.910000      3.6699256E-25
   5.920000      3.6998466E-25
   5.930000      3.7172220E-25
   5.940000      3.7210357E-25
   5.950000      3.7102475E-25
   5.960000      3.6837995E-25
   5.970000      3.6406158E-25
   5.980000      3.5796067E-25
   5.990000      3.4996729E-25
   6.000000      3.3997085E-25
   6.010000      3.2786050E-25
   6.020000      3.1352559E-25
   6.030000      2.9685605E-25
   6.040000      2.7774303E-25
   6.050000      2.5607941E-25
   6.060000      2.3176036E-25
   6.070000      2.0468398E-25
   6.080000      1.7475181E-25
   6.090000      1.4186955E-25
   6.100000      1.0594779E-25
   6.110000      6.6902739E-26
   6.120000      2.4656848E-26
   6.130000     -2.0860290E-26
   6.140000     -6.9711219E-26
   6.150000     -1.2194976E-25
   6.160000     -1.7762018E-25
   6.170000     -2.3675636E-25
   6.180000     -2.9938080E-25
   6.190000     -3.6550411E-25
   6.200000     -4.3512384E-25
   6.210000     -5.0822339E-25
   6.220000     -5.8477145E-25
   6.230000     -6.6472077E-25
   6.240000     -7.4800733E-25
   6.250000     -8.3454946E-25
   6.260000     -9.2424669E-25
   6.270000     -1.0169793E-24
   6.280000     -1.1126064E-24
   6.290000     -1.2109659E-24
   6.300000     -1.3118732E-24
   6.310000     -1.4151205E-24
   6.320000     -1.5204757E-24
   6.330000     -1.6276817E-24
   6.340000     -1.7364556E-24
   6.350000     -1.8464879E-24
   6.360000     -1.9574426E-24
   6.370000     -2.0689546E-24
   6.380000     -2.1806316E-24
   6.390000     -2.2920517E-24
   6.400000     -2.4027640E-24
   6.410000     -2.5122883E-24
   6.420000     -2.6201143E-24
   6.430000     -2.7257022E-24
   6.440000     -2.8284823E-24
   6.450000     -2.9278559E-24
   6.460000     -3.0231948E-24
   6.470000     -3.1138423E-24
   6.480000     -3.1991120E-24
   6.490000     -3.2782908E-24
   6.500000     -3.3506394E-24
   6.510000     -3.4153922E-24
   6.520000     -3.4717603E-24
   6.530000     -3.5189302E-24
   6.540000     -3.5560682E-24
   6.550000     -3.5823207E-24
   6.560000     -3.5968160E-24
   6.570000     -3.5986667E-24
   6.580000     -3.5869714E-24
   6.590000     -3.5608183E-24
   6.600000     -3.5192880E-24
   6.610000     -3.4614546E-24
   6.620000     -3.3863909E-24
   6.630000     -3.2931699E-24
   6.640000     -3.1808690E-24
   6.650000     -3.0485760E-24
   6.660000     -2.8953911E-24
   6.670000     -2.7204316E-24
   6.680000     -2.5228356E-24
   6.690000     -2.3017681E-24
   6.700000     -2.0564269E-24
   6.710000     -1.7860452E-24
   6.720000     -1.4898999E-24
   6.730000     -1.1673146E-24
   6.740000     -8.1766759E-25
   6.750000     -4.4039703E-25
   6.760000     -3.5006587E-26
   6.770000      3.9892730E-25
   6.780000      8.6174998E-25
   6.790000      1.3537206E-24
   6.800000      1.8750058E-24
   6.810000      2.4256733E-24
   6.820000      3.0056849E-24
   6.830000      3.6148904E-24
   6.840000      4.2530185E-24
   6.850000      4.9196687E-24
   6.860000      5.6143089E-24
   6.870000      6.3362673E-24
   6.880000      7.0847227E-24
   6.890000      7.8586970E-24
   6.900000      8.6570550E-24
   6.910000      9.4784919E-24
   6.920000      1.0321531E-23
   6.930000      1.1184519E-23
   6.940000      1.2065613E-23
   6.950000      1.2962780E-23
   6.960000      1.3873798E-23
   6.970000      1.4796240E-23
   6.980000      1.5727476E-23
   6.990000      1.6664672E-23
   7.000000      1.7604780E-23
   7.010000      1.8544544E-23
   7.020000      1.9480486E-23
   7.030000      2.0408919E-23
   7.040000      2.1325932E-23
   7.050000      2.2227406E-23
   7.060000      2.3109000E-23