  -2.600000      0.0000000E+00
  -2.590000      0.0000000E+00
  -2.580000      0.0000000E+00
  -2.570000      0.0000000E+00
  -2.560000      0.0000000E+00
  -2.550000      0.0000000E+00
  -2.540000      0.0000000E+00
  -2.530000      0.0000000E+00
  -2.520000      0.0000000E+00
  -2.510000      0.0000000E+00
  -2.500000      0.0000000E+00
  -2.490000      0.0000000E+00
  -2.480000      0.0000000E+00
  -2.470000      0.0000000E+00
  -2.460000      0.0000000E+00
  -2.450000      0.0000000E+00
  -2.440000      0.0000000E+00
  -2.430000      0.0000000E+00
  -2.420000      0.0000000E+00
  -2.410000      0.0000000E+00
  -2.400000      0.0000000E+00
  -2.390000      0.0000000E+00
  -2.380000      0.0000000E+00
  -2.370000      0.0000000E+00
  -2.360000      0.0000000E+00
  -2.350000      0.0000000E+00
  -2.340000      0.0000000E+00
  -2.330000      0.0000000E+00
  -2.320000      0.0000000E+00
  -2.310000      0.0000000E+00
  -2.300000      0.0000000E+00
  -2.290000      0.0000000E+00
  -2.280000      0.0000000E+00
  -2.270000      0.0000000E+00
  -2.260000      0.0000000E+00
  -2.250000      0.0000000E+00
  -2.240000      0.0000000E+00
  -2.230000      0.0000000E+00
  -2.220000      0.0000000E+00
  -2.210000      0.0000000E+00
  -2.200000      0.0000000E+00
  -2.190000      0.0000000E+00
  -2.180000      0.0000000E+00
  -2.170000      0.0000000E+00
  -2.160000      0.0000000E+00
  -2.150000      0.0000000E+00
  -2.140000      0.0000000E+00
  -2.130000      0.0000000E+00
  -2.120000      0.0000000E+00
  -2.110000      0.0000000E+00
  -2.100000      0.0000000E+00
  -2.090000      0.0000000E+00
  -2.080000      0.0000000E+00
  -2.070000      0.0000000E+00
  -2.060000      0.0000000E+00
  -2.050000      0.0000000E+00
  -2.040000      0.0000000E+00
  -2.030000      0.0000000E+00
  -2.020000      0.0000000E+00
  -2.010000      0.0000000E+00
  -2.000000      0.0000000E+00
  -1.990000      0.0000000E+00
  -1.980000      0.0000000E+00
  -1.970000      0.0000000E+00
  -1.960000      0.0000000E+00
  -1.950000      0.0000000E+00
  -1.940000      0.0000000E+00
  -1.930000      0.0000000E+00
  -1.920000      0.0000000E+00
  -1.910000      0.0000000E+00
  -1.900000      0.0000000E+00
  -1.890000      0.0000000E+00
  -1.880000      0.0000000E+00
  -1.870000      0.0000000E+00
  -1.860000      0.0000000E+00
  -1.850000      0.0000000E+00
  -1.840000      0.0000000E+00
  -1.830000      0.0000000E+00
  -1.820000      0.0000000E+00
  -1.810000      0.0000000E+00
  -1.800000      0.0000000E+00
  -1.790000      0.0000000E+00
  -1.780000      0.0000000E+00
  -1.770000      0.0000000E+00
  -1.760000      0.0000000E+00
  -1.750000      0.0000000E+00
  -1.740000      0.0000000E+00
  -1.730000      0.0000000E+00
  -1.720000      0.0000000E+00
  -1.710000      0.0000000E+00
  -1.700000      0.0000000E+00
  -1.690000      0.0000000E+00
  -1.680000      0.0000000E+00
  -1.670000      0.0000000E+00
  -1.660000      0.0000000E+00
  -1.650000      0.0000000E+00
  -1.640000      0.0000000E+00
  -1.630000      0.0000000E+00
  -1.620000      0.0000000E+00
  -1.610000      0.0000000E+00
  -1.600000      0.0000000E+00
  -1.590000      0.0000000E+00
  -1.580000      0.0000000E+00
  -1.570000      0.0000000E+00
  -1.560000      0.0000000E+00
  -1.550000      0.0000000E+00
  -1.540000      0.0000000E+00
  -1.530000      0.0000000E+00
  -1.520000      0.0000000E+00
  -1.510000      0.0000000E+00
  -1.500000      0.0000000E+00
  -1.490000      0.0000000E+00
  -1.480000      0.0000000E+00
  -1.470000      0.0000000E+00
  -1.460000      0.0000000E+00
  -1.450000      0.0000000E+00
  -1.440000      0.0000000E+00
  -1.430000      0.0000000E+00
  -1.420000      0.0000000E+00
  -1.410000      0.0000000E+00
  -1.400000      0.0000000E+00
  -1.390000      0.0000000E+00
  -1.380000      0.0000000E+00
  -1.370000      0.0000000E+00
  -1.360000      0.0000000E+00
  -1.350000      0.0000000E+00
  -1.340000      0.0000000E+00
  -1.330000      0.0000000E+00
  -1.320000      0.0000000E+00
  -1.310000      0.0000000E+00
  -1.300000      0.0000000E+00
  -1.290000      0.0000000E+00
  -1.280000      0.0000000E+00
  -1.270000      0.0000000E+00
  -1.260000      0.0000000E+00
  -1.250000      0.0000000E+00
  -1.240000      0.0000000E+00
  -1.230000      0.0000000E+00
  -1.220000      0.0000000E+00
  -1.210000      0.0000000E+00
  -1.200000      0.0000000E+00
  -1.190000      0.0000000E+00
  -1.180000      0.0000000E+00
  -1.170000      0.0000000E+00
  -1.160000      0.0000000E+00
  -1.150000      0.0000000E+00
  -1.140000      0.0000000E+00
  -1.130000      0.0000000E+00
  -1.120000      0.0000000E+00
  -1.110000      0.0000000E+00
  -1.100000      0.0000000E+00
  -1.090000      0.0000000E+00
  -1.080000      0.0000000E+00
  -1.070000      0.0000000E+00
  -1.060000      0.0000000E+00
  -1.050000      0.0000000E+00
  -1.040000      0.0000000E+00
  -1.030000      0.0000000E+00
  -1.020000      0.0000000E+00
  -1.010000      0.0000000E+00
  -1.000000      0.0000000E+00
 -0.9900000      0.0000000E+00
 -0.9800000      0.0000000E+00
 -0.9700000      0.0000000E+00
 -0.9600000      0.0000000E+00
 -0.9500000      0.0000000E+00
 -0.9400000      0.0000000E+00
 -0.9300000      0.0000000E+00
 -0.9200000      0.0000000E+00
 -0.9100000      0.0000000E+00
 -0.9000000      0.0000000E+00
 -0.8900000      0.0000000E+00
 -0.8800000      0.0000000E+00
 -0.8700000      0.0000000E+00
 -0.8600000      0.0000000E+00
 -0.8500000      0.0000000E+00
 -0.8400000      0.0000000E+00
 -0.8300000      0.0000000E+00
 -0.8200000      0.0000000E+00
 -0.8100000      0.0000000E+00
 -0.8000000      0.0000000E+00
 -0.7900000      0.0000000E+00
 -0.7800000      0.0000000E+00
 -0.7700000      0.0000000E+00
 -0.7600000      0.0000000E+00
 -0.7500000      0.0000000E+00
 -0.7400000      0.0000000E+00
 -0.7300000      0.0000000E+00
 -0.7200000      0.0000000E+00
 -0.7100000      0.0000000E+00
 -0.7000000      0.0000000E+00
 -0.6900000      0.0000000E+00
 -0.6800000      0.0000000E+00
 -0.6700000      0.0000000E+00
 -0.6600000      0.0000000E+00
 -0.6500000      0.0000000E+00
 -0.6400000      0.0000000E+00
 -0.6300000      0.0000000E+00
 -0.6200000      0.0000000E+00
 -0.6100000      0.0000000E+00
 -0.6000000      0.0000000E+00
 -0.5900000      0.0000000E+00
 -0.5800000      0.0000000E+00
 -0.5700000      0.0000000E+00
 -0.5600000      0.0000000E+00
 -0.5500000      0.0000000E+00
 -0.5400000      0.0000000E+00
 -0.5300000      0.0000000E+00
 -0.5200000      0.0000000E+00
 -0.5100000      0.0000000E+00
 -0.5000000      0.0000000E+00
 -0.4900000      0.0000000E+00
 -0.4800000      0.0000000E+00
 -0.4700000      0.0000000E+00
 -0.4600000      0.0000000E+00
 -0.4500000      0.0000000E+00
 -0.4400000      0.0000000E+00
 -0.4300000      0.0000000E+00
 -0.4200000      0.0000000E+00
 -0.4100000      0.0000000E+00
 -0.4000000      0.0000000E+00
 -0.3900000      0.0000000E+00
 -0.3800000      0.0000000E+00
 -0.3700000      0.0000000E+00
 -0.3600000      0.0000000E+00
 -0.3500000      0.0000000E+00
 -0.3400000      0.0000000E+00
 -0.3300000      0.0000000E+00
 -0.3200000      0.0000000E+00
 -0.3100000      0.0000000E+00
 -0.3000000      0.0000000E+00
 -0.2900000      0.0000000E+00
 -0.2800000      0.0000000E+00
 -0.2700000      0.0000000E+00
 -0.2600000      0.0000000E+00
 -0.2500000      0.0000000E+00
 -0.2400000      0.0000000E+00
 -0.2300000      0.0000000E+00
 -0.2200000      0.0000000E+00
 -0.2100000      0.0000000E+00
 -0.2000000      0.0000000E+00
 -0.1900000      0.0000000E+00
 -0.1800000      0.0000000E+00
 -0.1700000      0.0000000E+00
 -0.1600000      0.0000000E+00
 -0.1500000      0.0000000E+00
 -0.1400000      0.0000000E+00
 -0.1300000      0.0000000E+00
 -0.1200000      0.0000000E+00
 -0.1100000      0.0000000E+00
 -0.1000000      0.0000000E+00
 -9.0000004E-02  0.0000000E+00
 -7.9999998E-02  0.0000000E+00
 -7.0000000E-02  0.0000000E+00
 -5.9999999E-02  0.0000000E+00
 -5.0000001E-02  0.0000000E+00
 -3.9999999E-02  0.0000000E+00
 -2.9999999E-02  0.0000000E+00
 -2.0000000E-02  0.0000000E+00
 -9.9999998E-03  0.0000000E+00
 -3.4694470E-17  0.0000000E+00
  9.9999998E-03  0.0000000E+00
  2.0000000E-02  0.0000000E+00
  2.9999999E-02  0.0000000E+00
  3.9999999E-02  0.0000000E+00
  5.0000001E-02  0.0000000E+00
  5.9999999E-02  0.0000000E+00
  7.0000000E-02  0.0000000E+00
  7.9999998E-02  0.0000000E+00
  9.0000004E-02  0.0000000E+00
  0.1000000      0.0000000E+00
  0.1100000      0.0000000E+00
  0.1200000      0.0000000E+00
  0.1300000      0.0000000E+00
  0.1400000      0.0000000E+00
  0.1500000      0.0000000E+00
  0.1600000      0.0000000E+00
  0.1700000      0.0000000E+00
  0.1800000      0.0000000E+00
  0.1900000      0.0000000E+00
  0.2000000      0.0000000E+00
  0.2100000      0.0000000E+00
  0.2200000      0.0000000E+00
  0.2300000      0.0000000E+00
  0.2400000      0.0000000E+00
  0.2500000      0.0000000E+00
  0.2600000      0.0000000E+00
  0.2700000      0.0000000E+00
  0.2800000      0.0000000E+00
  0.2900000      0.0000000E+00
  0.3000000      0.0000000E+00
  0.3100000      0.0000000E+00
  0.3200000      0.0000000E+00
  0.3300000      0.0000000E+00
  0.3400000      0.0000000E+00
  0.3500000      0.0000000E+00
  0.3600000      0.0000000E+00
  0.3700000      0.0000000E+00
  0.3800000      0.0000000E+00
  0.3900000      0.0000000E+00
  0.4000000      0.0000000E+00
  0.4100000      0.0000000E+00
  0.4200000      0.0000000E+00
  0.4300000      0.0000000E+00
  0.4400000      0.0000000E+00
  0.4500000      0.0000000E+00
  0.4600000      0.0000000E+00
  0.4700000      0.0000000E+00
  0.4800000      0.0000000E+00
  0.4900000      0.0000000E+00
  0.5000000      0.0000000E+00
  0.5100000      0.0000000E+00
  0.5200000      0.0000000E+00
  0.5300000      0.0000000E+00
  0.5400000      0.0000000E+00
  0.5500000      1.3132302E-38
  0.5600000      2.5058924E-38
  0.5700000      4.3584412E-38
  0.5800000      6.9898085E-38
  0.5900000      9.9434088E-38
  0.6000000      1.3132464E-37
  0.6100000      1.6740571E-37
  0.6200000      1.9653899E-37
  0.6300000      2.1379700E-37
  0.6400000      2.2553367E-37
  0.6500000      2.1983487E-37
  0.6600000      1.9007035E-37
  0.6700000      1.3769190E-37
  0.6800000      6.3053347E-38
  0.6900000     -3.5799431E-38
  0.7000000     -1.6200803E-37
  0.7100000     -3.1102414E-37
  0.7200000     -4.8232617E-37
  0.7300000     -6.7116013E-37
  0.7400000     -8.7195741E-37
  0.7500000     -1.0672258E-36
  0.7600000     -1.2260512E-36
  0.7700000     -1.3536056E-36
  0.7800000     -1.4572086E-36
  0.7900000     -1.5063837E-36
  0.8000000     -1.4875431E-36
  0.8100000     -1.4188777E-36
  0.8200000     -1.3054733E-36
  0.8300000     -1.1283177E-36
  0.8400000     -8.8552009E-37
  0.8500000     -5.9018602E-37
  0.8600000     -1.9998004E-37
  0.8700000      2.8903066E-37
  0.8800000      8.5348637E-37
  0.8900000      1.5010309E-36
  0.9000000      2.2180044E-36
  0.9100000      2.9400096E-36
  0.9200000      3.6158849E-36
  0.9300000      4.2725704E-36
  0.9400000      4.9067993E-36
  0.9500000      5.4777319E-36
  0.9600000      5.9258479E-36
  0.9700000      6.2633724E-36
  0.9800000      6.4332961E-36
  0.9900000      6.4195925E-36
   1.000000      6.2939988E-36
   1.010000      6.2645720E-36
   1.020000      6.3426114E-36
   1.030000      6.2899882E-36
   1.040000      6.0781739E-36
   1.050000      5.8173367E-36
   1.060000      5.4850199E-36
   1.070000      4.8935577E-36
   1.080000      4.0334910E-36
   1.090000      2.7575034E-36
   1.100000      8.6198052E-37
   1.110000     -1.5762539E-36
   1.120000     -4.3911376E-36
   1.130000     -7.8231517E-36
   1.140000     -1.1844262E-35
   1.150000     -1.5937575E-35
   1.160000     -2.0367928E-35
   1.170000     -2.5286407E-35
   1.180000     -3.0243989E-35
   1.190000     -3.5476856E-35
   1.200000     -4.0943869E-35
   1.210000     -4.6393792E-35
   1.220000     -5.1499475E-35
   1.230000     -5.6146655E-35
   1.240000     -5.9919768E-35
   1.250000     -6.2120635E-35
   1.260000     -6.3161665E-35
   1.270000     -6.3046520E-35
   1.280000     -6.1057019E-35
   1.290000     -5.6984161E-35
   1.300000     -5.0511342E-35
   1.310000     -4.1664663E-35
   1.320000     -3.0404819E-35
   1.330000     -1.6706715E-35
   1.340000     -1.2463055E-36
   1.350000      1.6230518E-35
   1.360000      3.6050386E-35
   1.370000      5.8693460E-35
   1.380000      8.3824284E-35
   1.390000      1.1083716E-34
   1.400000      1.3944531E-34
   1.410000      1.6890145E-34
   1.420000      1.9803620E-34
   1.430000      2.2816125E-34
   1.440000      2.5990756E-34
   1.450000      2.9046987E-34
   1.460000      3.1832752E-34
   1.470000      3.4354821E-34
   1.480000      3.6694133E-34
   1.490000      3.8303254E-34
   1.500000      3.8719360E-34
   1.510000      3.8191164E-34
   1.520000      3.6784022E-34
   1.530000      3.4678142E-34
   1.540000      3.2292520E-34
   1.550000      2.9544200E-34
   1.560000      2.6151542E-34
   1.570000      2.1851949E-34
   1.580000      1.6552632E-34
   1.590000      1.0190084E-34
   1.600000      2.8702662E-35
   1.610000     -5.3544933E-35
   1.620000     -1.4460604E-34
   1.630000     -2.4437088E-34
   1.640000     -3.5364582E-34
   1.650000     -4.7305819E-34
   1.660000     -6.0039347E-34
   1.670000     -7.3271979E-34
   1.680000     -8.6973624E-34
   1.690000     -1.0124660E-33
   1.700000     -1.1610317E-33
   1.710000     -1.3104666E-33
   1.720000     -1.4618029E-33
   1.730000     -1.6172830E-33
   1.740000     -1.7744366E-33
   1.750000     -1.9280497E-33
   1.760000     -2.0711658E-33
   1.770000     -2.2026957E-33
   1.780000     -2.3191752E-33
   1.790000     -2.4171365E-33
   1.800000     -2.4942839E-33
   1.810000     -2.5447517E-33
   1.820000     -2.5639146E-33
   1.830000     -2.5494959E-33
   1.840000     -2.4969923E-33
   1.850000     -2.4039074E-33
   1.860000     -2.2660607E-33
   1.870000     -2.0759893E-33
   1.880000     -1.8318436E-33
   1.890000     -1.5300648E-33
   1.900000     -1.1673216E-33
   1.910000     -7.4129691E-34
   1.920000     -2.5111266E-34
   1.930000      3.0447487E-34
   1.940000      9.2618724E-34
   1.950000      1.6142419E-33
   1.960000      2.3651470E-33
   1.970000      3.1758819E-33
   1.980000      4.0451832E-33
   1.990000      4.9683881E-33
   2.000000      5.9404228E-33
   2.010000      6.9525576E-33
   2.020000      7.9942204E-33
   2.030000      9.0586100E-33
   2.040000      1.0136953E-32
   2.050000      1.1216488E-32
   2.060000      1.2283995E-32
   2.070000      1.3325204E-32
   2.080000      1.4325534E-32
   2.090000      1.5269168E-32
   2.100000      1.6138909E-32
   2.110000      1.6915674E-32
   2.120000      1.7583960E-32
   2.130000      1.8125014E-32
   2.140000      1.8515348E-32
   2.150000      1.8735590E-32
   2.160000      1.8767674E-32
   2.170000      1.8592461E-32
   2.180000      1.8189597E-32
   2.190000      1.7540088E-32
   2.200000      1.6625884E-32
   2.210000      1.5427818E-32
   2.220000      1.3932177E-32
   2.230000      1.2126703E-32
   2.240000      9.9968455E-33
   2.250000      7.5323893E-33
   2.260000      4.7264031E-33
   2.270000      1.5743188E-33
   2.280000     -1.9261577E-33
   2.290000     -5.7733718E-33
   2.300000     -9.9621119E-33
   2.310000     -1.4482985E-32
   2.320000     -1.9321993E-32
   2.330000     -2.4461316E-32
   2.340000     -2.9878442E-32
   2.350000     -3.5545580E-32
   2.360000     -4.1430060E-32
   2.370000     -4.7494080E-32
   2.380000     -5.3694666E-32
   2.390000     -5.9983608E-32
   2.400000     -6.6307509E-32
   2.410000     -7.2607788E-32
   2.420000     -7.8820487E-32
   2.430000     -8.4877569E-32
   2.440000     -9.0706399E-32
   2.450000     -9.6231116E-32
   2.460000     -1.0136733E-31
   2.470000     -1.0602986E-31
   2.480000     -1.1013426E-31
   2.490000     -1.1358934E-31
   2.500000     -1.1630321E-31
   2.510000     -1.1818301E-31
   2.520000     -1.1913596E-31
   2.530000     -1.1906974E-31
   2.540000     -1.1789351E-31
   2.550000     -1.1551897E-31
   2.560000     -1.1186125E-31
   2.570000     -1.0684007E-31
   2.580000     -1.0038080E-31
   2.590000     -9.2415550E-32
   2.600000     -8.2884324E-32
   2.610000     -7.1736212E-32
   2.620000     -5.8930312E-32
   2.630000     -4.4437310E-32
   2.640000     -2.8240426E-32
   2.650000     -1.0336214E-32
   2.660000      9.2641070E-33
   2.670000      3.0533619E-32
   2.680000      5.3428863E-32
   2.690000      7.7888967E-32
   2.700000      1.0383480E-31
   2.710000      1.3116838E-31
   2.720000      1.5977216E-31
   2.730000      1.8950886E-31
   2.740000      2.2022108E-31
   2.750000      2.5173092E-31
   2.760000      2.8384013E-31
   2.770000      3.1633026E-31
   2.780000      3.4896299E-31
   2.790000      3.8148034E-31
   2.800000      4.1360610E-31
   2.810000      4.4504611E-31
   2.820000      4.7548930E-31
   2.830000      5.0460874E-31
   2.840000      5.3206311E-31
   2.850000      5.5749931E-31
   2.860000      5.8055348E-31
   2.870000      6.0085309E-31
   2.880000      6.1801945E-31
   2.890000      6.3166999E-31
   2.900000      6.4142100E-31
   2.910000      6.4689048E-31
   2.920000      6.4770129E-31
   2.930000      6.4348413E-31
   2.940000      6.3388114E-31
   2.950000      6.1854931E-31
   2.960000      5.9716387E-31
   2.970000      5.6942225E-31
   2.980000      5.3504769E-31
   2.990000      4.9379339E-31
   3.000000      4.4544592E-31
   3.010000      3.8982917E-31
   3.020000      3.2680833E-31
   3.030000      2.5629334E-31
   3.040000      1.7824249E-31
   3.050000      9.2665995E-32
   3.060000     -3.7076779E-34
   3.070000     -1.0074427E-31
   3.080000     -2.0826993E-31
   3.090000     -3.2269953E-31
   3.100000     -4.4371893E-31
   3.110000     -5.7094612E-31
   3.120000     -7.0392970E-31
   3.130000     -8.4214738E-31
   3.140000     -9.8500530E-31
   3.150000     -1.1318374E-30
   3.160000     -1.2819054E-30
   3.170000     -1.4343991E-30
   3.180000     -1.5884372E-30
   3.190000     -1.7430687E-30
   3.200000     -1.8972742E-30
   3.210000     -2.0499683E-30
   3.220000     -2.2000024E-30
   3.230000     -2.3461671E-30
   3.240000     -2.4871973E-30
   3.250000     -2.6217746E-30
   3.260000     -2.7485334E-30
   3.270000     -2.8660651E-30
   3.280000     -2.9729245E-30
   3.290000     -3.0676359E-30
   3.300000     -3.1486997E-30
   3.310000     -3.2146001E-30
   3.320000     -3.2638122E-30
   3.330000     -3.2948117E-30
   3.340000     -3.3060826E-30
   3.350000     -3.2961275E-30
   3.360000     -3.2634763E-30
   3.370000     -3.2066974E-30
   3.380000     -3.1244081E-30
   3.390000     -3.0152861E-30
   3.400000     -2.8780792E-30
   3.410000     -2.7116183E-30
   3.420000     -2.5148282E-30
   3.430000     -2.2867398E-30
   3.440000     -2.0265017E-30
   3.450000     -1.7333924E-30
   3.460000     -1.4068313E-30
   3.470000     -1.0463909E-30
   3.480000     -6.5180767E-31
   3.490000     -2.2299330E-31
   3.500000      2.3995453E-31
   3.510000      7.3674160E-31
   3.520000      1.2668676E-30
   3.530000      1.8296167E-30
   3.540000      2.4240482E-30
   3.550000      3.0489888E-30
   3.560000      3.7030235E-30
   3.570000      4.3844897E-30
   3.580000      5.0914715E-30
   3.590000      5.8217909E-30
   3.600000      6.5730063E-30
   3.610000      7.3424040E-30
   3.620000      8.1270001E-30
   3.630000      8.9235331E-30
   3.640000      9.7284635E-30
   3.650000      1.0537977E-29
   3.660000      1.1347980E-29
   3.670000      1.2154104E-29
   3.680000      1.2951704E-29
   3.690000      1.3735871E-29
   3.700000      1.4501428E-29
   3.710000      1.5242947E-29
   3.720000      1.5954748E-29
   3.730000      1.6630918E-29
   3.740000      1.7265312E-29
   3.750000      1.7851580E-29
   3.760000      1.8383174E-29
   3.770000      1.8853363E-29
   3.780000      1.9255263E-29
   3.790000      1.9581845E-29
   3.800000      1.9825965E-29
   3.810000      1.9980390E-29
   3.820000      2.0037818E-29
   3.830000      1.9990914E-29
   3.840000      1.9832330E-29
   3.850000      1.9554745E-29
   3.860000      1.9150892E-29
   3.870000      1.8613597E-29
   3.880000      1.7935809E-29
   3.890000      1.7110639E-29
   3.900000      1.6131400E-29
   3.910000      1.4991643E-29
   3.920000      1.3685205E-29
   3.930000      1.2206236E-29
   3.940000      1.0549258E-29
   3.950000      8.7091966E-30
   3.960000      6.6814332E-30
   3.970000      4.4618493E-30
   3.980000      2.0468693E-30
   3.990000     -5.6648418E-31
   4.000000     -3.3805468E-30
   4.010000     -6.3969590E-30
   4.020000     -9.6166136E-30
   4.030000     -1.3039606E-29
   4.040000     -1.6665185E-29
   4.050000     -2.0491690E-29
   4.060000     -2.4516504E-29
   4.070000     -2.8735997E-29
   4.080000     -3.3145468E-29
   4.090000     -3.7739100E-29
   4.100000     -4.2509893E-29
   4.110000     -4.7449612E-29
   4.120000     -5.2548752E-29
   4.130000     -5.7796465E-29
   4.140000     -6.3180517E-29
   4.150000     -6.8687238E-29
   4.160000     -7.4301487E-29
   4.170000     -8.0006591E-29
   4.180000     -8.5784326E-29
   4.190000     -9.1614850E-29
   4.200000     -9.7476677E-29
   4.210000     -1.0334668E-28
   4.220000     -1.0919999E-28
   4.230000     -1.1501005E-28
   4.240000     -1.2074854E-28
   4.250000     -1.2638537E-28
   4.260000     -1.3188873E-28
   4.270000     -1.3722494E-28
   4.280000     -1.4235860E-28
   4.290000     -1.4725250E-28
   4.300000     -1.5186767E-28
   4.310000     -1.5616336E-28
   4.320000     -1.6009709E-28
   4.330000     -1.6362466E-28
   4.340000     -1.6670018E-28
   4.350000     -1.6927613E-28
   4.360000     -1.7130342E-28
   4.370000     -1.7273138E-28
   4.380000     -1.7350794E-28
   4.390000     -1.7357961E-28
   4.400000     -1.7289162E-28
   4.410000     -1.7138804E-28
   4.420000     -1.6901186E-28
   4.430000     -1.6570516E-28
   4.440000     -1.6140922E-28
   4.450000     -1.5606470E-28
   4.460000     -1.4961185E-28
   4.470000     -1.4199064E-28
   4.480000     -1.3314105E-28
   4.490000     -1.2300324E-28
   4.500000     -1.1151778E-28
   4.510000     -9.8626042E-29
   4.520000     -8.4270335E-29
   4.530000     -6.8394304E-29
   4.540000     -5.0943212E-29
   4.550000     -3.1864282E-29
   4.560000     -1.1107113E-29
   4.570000      1.1375991E-29
   4.580000      3.5629632E-29
   4.590000      6.1694849E-29
   4.600000      8.9608718E-29
   4.610000      1.1940386E-28
   4.620000      1.5110803E-28
   4.630000      1.8474351E-28
   4.640000      2.2032663E-28
   4.650000      2.5786738E-28
   4.660000      2.9736859E-28
   4.670000      3.3882561E-28
   4.680000      3.8222550E-28
   4.690000      4.2754653E-28
   4.700000      4.7475762E-28
   4.710000      5.2381765E-28
   4.720000      5.7467462E-28
   4.730000      6.2726532E-28
   4.740000      6.8151438E-28
   4.750000      7.3733381E-28
   4.760000      7.9462204E-28
   4.770000      8.5326342E-28
   4.780000      9.1312768E-28
   4.790000      9.7406882E-28
   4.800000      1.0359249E-27
   4.810000      1.0985168E-27
   4.820000      1.1616483E-27
   4.830000      1.2251050E-27
   4.840000      1.2886537E-27
   4.850000      1.3520422E-27
   4.860000      1.4149982E-27
   4.870000      1.4772295E-27
   4.880000      1.5384228E-27
   4.890000      1.5982441E-27
   4.900000      1.6563379E-27
   4.910000      1.7123268E-27
   4.920000      1.7658120E-27
   4.930000      1.8163721E-27
   4.940000      1.8635645E-27
   4.950000      1.9069239E-27
   4.960000      1.9459639E-27
   4.970000      1.9801761E-27
   4.980000      2.0090309E-27
   4.990000      2.0319788E-27
   5.000000      2.0484493E-27
   5.010000      2.0578529E-27
   5.020000      2.0595818E-27
   5.030000      2.0530105E-27
   5.040000      2.0374973E-27
   5.050000      2.0123861E-27
   5.060000      1.9770068E-27
   5.070000      1.9306776E-27
   5.080000      1.8727071E-27
   5.090000      1.8023960E-27
   5.100000      1.7190396E-27
   5.110000      1.6219302E-27
   5.120000      1.5103592E-27
   5.130000      1.3836211E-27
   5.140000      1.2410158E-27
   5.150000      1.0818523E-27
   5.160000      9.0545237E-28
   5.170000      7.1115372E-28
   5.180000      4.9831473E-28
   5.190000      2.6631803E-28
   5.200000      1.4575882E-29
   5.210000     -2.5746542E-28
   5.220000     -5.5032110E-28
   5.230000     -8.6446242E-28
   5.240000     -1.2003113E-27
   5.250000     -1.5582345E-27
   5.260000     -1.9385380E-27
   5.270000     -2.3414617E-27
   5.280000     -2.7671717E-27
   5.290000     -3.2157557E-27
   5.300000     -3.6872152E-27
   5.310000     -4.1814605E-27
   5.320000     -4.6983022E-27
   5.330000     -5.2374459E-27
   5.340000     -5.7984828E-27
   5.350000     -6.3808871E-27
   5.360000     -6.9840051E-27
   5.370000     -7.6070496E-27
   5.380000     -8.2490931E-27
   5.390000     -8.9090600E-27
   5.400000     -9.5857216E-27
   5.410000     -1.0277686E-26
   5.420000     -1.0983396E-26
   5.430000     -1.1701118E-26
   5.440000     -1.2428942E-26
   5.450000     -1.3164767E-26
   5.460000     -1.3906300E-26
   5.470000     -1.4651056E-26
   5.480000     -1.5396345E-26
   5.490000     -1.6139268E-26
   5.500000     -1.6876719E-26
   5.510000     -1.7605379E-26
   5.520000     -1.8321709E-26
   5.530000     -1.9021956E-26
   5.540000     -1.9702140E-26
   5.550000     -2.0358072E-26
   5.560000     -2.0985332E-26
   5.570000     -2.1579290E-26
   5.580000     -2.2135092E-26
   5.590000     -2.2647679E-26
   5.600000     -2.3111776E-26
   5.610000     -2.3521908E-26
   5.620000     -2.3872404E-26
   5.630000     -2.4157403E-26
   5.640000     -2.4370867E-26
   5.650000     -2.4506585E-26
   5.660000     -2.4558195E-26
   5.670000     -2.4519187E-26
   5.680000     -2.4382926E-26
   5.690000     -2.4142667E-26
   5.700000     -2.3791570E-26
   5.710000     -2.3322722E-26
   5.720000     -2.2729158E-26
   5.730000     -2.2003888E-26
   5.740000     -2.1139913E-26
   5.750000     -2.0130267E-26
   5.760000     -1.8968026E-26
   5.770000     -1.7646359E-26
   5.780000     -1.6158546E-26
   5.790000     -1.4498015E-26
   5.800000     -1.2658383E-26
   5.810000     -1.0633484E-26
   5.820000     -8.4174217E-27
   5.830000     -6.0046031E-27
   5.840000     -3.3897815E-27
   5.850000     -5.6810215E-28
   5.860000      2.4648519E-27
   5.870000      5.7130135E-27
   5.880000      9.1797756E-27
   5.890000      1.2867947E-26
   5.900000      1.6779695E-26
   5.910000      2.0916505E-26
   5.920000      2.5279114E-26
   5.930000      2.9867457E-26
   5.940000      3.4680612E-26
   5.950000      3.9716758E-26
   5.960000      4.4973102E-26
   5.970000      5.0445821E-26
   5.980000      5.6130030E-26
   5.990000      6.2019684E-26
   6.000000      6.8107570E-26
   6.010000      7.4385214E-26
   6.020000      8.0842854E-26
   6.030000      8.7469378E-26
   6.040000      9.4252269E-26
   6.050000      1.0117757E-25
   6.060000      1.0822981E-25
   6.070000      1.1539200E-25
   6.080000      1.2264554E-25
   6.090000      1.2997025E-25
   6.100000      1.3734426E-25
   6.110000      1.4474406E-25
   6.120000      1.5214437E-25
   6.130000      1.5951825E-25
   6.140000      1.6683694E-25
   6.150000      1.7407000E-25
   6.160000      1.8118517E-25
   6.170000      1.8814842E-25
   6.180000      1.9492403E-25
   6.190000      2.0147450E-25
   6.200000      2.0776060E-25
   6.210000      2.1374142E-25
   6.220000      2.1937445E-25
   6.230000      2.2461552E-25
   6.240000      2.2941892E-25
   6.250000      2.3373751E-25
   6.260000      2.3752269E-25
   6.270000      2.4072458E-25
   6.280000      2.4329200E-25
   6.290000      2.4517277E-25
   6.300000      2.4631361E-25
   6.310000      2.4666036E-25
   6.320000      2.4615820E-25
   6.330000      2.4475166E-25
   6.340000      2.4238488E-25
   6.350000      2.3900168E-25
   6.360000      2.3454590E-25
   6.370000      2.2896143E-25
   6.380000      2.2219256E-25
   6.390000      2.1418409E-25
   6.400000      2.0488170E-25
   6.410000      1.9423199E-25
   6.420000      1.8218290E-25
   6.430000      1.6868400E-25
   6.440000      1.5368661E-25
   6.450000      1.3714420E-25
   6.460000      1.1901265E-25
   6.470000      9.9250609E-26
   6.480000      7.7819766E-26
   6.490000      5.4685175E-26
   6.500000      2.9815608E-26
   6.510000      3.1838759E-27
   6.520000     -2.5232819E-26
   6.530000     -5.5452509E-26
   6.540000     -8.7488101E-26
   6.550000     -1.2134705E-25
   6.560000     -1.5703094E-25
   6.570000     -1.9453519E-25
   6.580000     -2.3384867E-25
   6.590000     -2.7495328E-25
   6.600000     -3.1782358E-25
   6.610000     -3.6242651E-25
   6.620000     -4.0872104E-25
   6.630000     -4.5665777E-25
   6.640000     -5.0617852E-25
   6.650000     -5.5721614E-25
   6.660000     -6.0969418E-25
   6.670000     -6.6352649E-25
   6.680000     -7.1861698E-25
   6.690000     -7.7485931E-25
   6.700000     -8.3213683E-25
   6.710000     -8.9032193E-25
   6.720000     -9.4927646E-25
   6.730000     -1.0088508E-24
   6.740000     -1.0688845E-24
   6.750000     -1.1292054E-24
   6.760000     -1.1896300E-24
   6.770000     -1.2499632E-24
   6.780000     -1.3099987E-24
   6.790000     -1.3695180E-24
   6.800000     -1.4282918E-24
   6.810000     -1.4860791E-24
   6.820000     -1.5426274E-24
   6.830000     -1.5976734E-24
   6.840000     -1.6509431E-24
   6.850000     -1.7021514E-24
   6.860000     -1.7510034E-24
   6.870000     -1.7971942E-24
   6.880000     -1.8404093E-24
   6.890000     -1.8803253E-24
   6.900000     -1.9166105E-24
   6.910000     -1.9489254E-24
   6.920000     -1.9769235E-24
   6.930000     -2.0002515E-24
   6.940000     -2.0185507E-24
   6.950000     -2.0314580E-24
   6.960000     -2.0386059E-24
   6.970000     -2.0396239E-24
   6.980000     -2.0341404E-24
   6.990000     -2.0217827E-24
   7.000000     -2.0021781E-24
   7.010000     -1.9749563E-24
   7.020000     -1.9397496E-24
   7.030000     -1.8961948E-24
   7.040000     -1.8439340E-24
   7.050000     -1.7826174E-24
   7.060000     -1.7119029E-24