  -2.600000      0.0000000E+00
  -2.590000      0.0000000E+00
  -2.580000      0.0000000E+00
  -2.570000      0.0000000E+00
  -2.560000      0.0000000E+00
  -2.550000      0.0000000E+00
  -2.540000      0.0000000E+00
  -2.530000      0.0000000E+00
  -2.520000      0.0000000E+00
  -2.510000      0.0000000E+00
  -2.500000      0.0000000E+00
  -2.490000      0.0000000E+00
  -2.480000      0.0000000E+00
  -2.470000      0.0000000E+00
  -2.460000      0.0000000E+00
  -2.450000      0.0000000E+00
  -2.440000      0.0000000E+00
  -2.430000      0.0000000E+00
  -2.420000      0.0000000E+00
  -2.410000      0.0000000E+00
  -2.400000      0.0000000E+00
  -2.390000      0.0000000E+00
  -2.380000      0.0000000E+00
  -2.370000      0.0000000E+00
  -2.360000      0.0000000E+00
  -2.350000      0.0000000E+00
  -2.340000      0.0000000E+00
  -2.330000      0.0000000E+00
  -2.320000      0.0000000E+00
  -2.310000      0.0000000E+00
  -2.300000      0.0000000E+00
  -2.290000      0.0000000E+00
  -2.280000      0.0000000E+00
  -2.270000      0.0000000E+00
  -2.260000      0.0000000E+00
  -2.250000      0.0000000E+00
  -2.240000      0.0000000E+00
  -2.230000      0.0000000E+00
  -2.220000      0.0000000E+00
  -2.210000      0.0000000E+00
  -2.200000      0.0000000E+00
  -2.190000      0.0000000E+00
  -2.180000      0.0000000E+00
  -2.170000      0.0000000E+00
  -2.160000      0.0000000E+00
  -2.150000      0.0000000E+00
  -2.140000      0.0000000E+00
  -2.130000      0.0000000E+00
  -2.120000      0.0000000E+00
  -2.110000      0.0000000E+00
  -2.100000      0.0000000E+00
  -2.090000      0.0000000E+00
  -2.080000      0.0000000E+00
  -2.070000      0.0000000E+00
  -2.060000      0.0000000E+00
  -2.050000      0.0000000E+00
  -2.040000      0.0000000E+00
  -2.030000      0.0000000E+00
  -2.020000      0.0000000E+00
  -2.010000      0.0000000E+00
  -2.000000      0.0000000E+00
  -1.990000      0.0000000E+00
  -1.980000      0.0000000E+00
  -1.970000      0.0000000E+00
  -1.960000      0.0000000E+00
  -1.950000      0.0000000E+00
  -1.940000      0.0000000E+00
  -1.930000      0.0000000E+00
  -1.920000      0.0000000E+00
  -1.910000      0.0000000E+00
  -1.900000      0.0000000E+00
  -1.890000      0.0000000E+00
  -1.880000      0.0000000E+00
  -1.870000      0.0000000E+00
  -1.860000      0.0000000E+00
  -1.850000      0.0000000E+00
  -1.840000      0.0000000E+00
  -1.830000      0.0000000E+00
  -1.820000      0.0000000E+00
  -1.810000      0.0000000E+00
  -1.800000      0.0000000E+00
  -1.790000      0.0000000E+00
  -1.780000      0.0000000E+00
  -1.770000      0.0000000E+00
  -1.760000      0.0000000E+00
  -1.750000      0.0000000E+00
  -1.740000      0.0000000E+00
  -1.730000      0.0000000E+00
  -1.720000      0.0000000E+00
  -1.710000      0.0000000E+00
  -1.700000      0.0000000E+00
  -1.690000      0.0000000E+00
  -1.680000      0.0000000E+00
  -1.670000      0.0000000E+00
  -1.660000      0.0000000E+00
  -1.650000      0.0000000E+00
  -1.640000      0.0000000E+00
  -1.630000      0.0000000E+00
  -1.620000      0.0000000E+00
  -1.610000      0.0000000E+00
  -1.600000      0.0000000E+00
  -1.590000      0.0000000E+00
  -1.580000      0.0000000E+00
  -1.570000      0.0000000E+00
  -1.560000      0.0000000E+00
  -1.550000      0.0000000E+00
  -1.540000      0.0000000E+00
  -1.530000      0.0000000E+00
  -1.520000      0.0000000E+00
  -1.510000      0.0000000E+00
  -1.500000      0.0000000E+00
  -1.490000      0.0000000E+00
  -1.480000      0.0000000E+00
  -1.470000      0.0000000E+00
  -1.460000      0.0000000E+00
  -1.450000      0.0000000E+00
  -1.440000      0.0000000E+00
  -1.430000      0.0000000E+00
  -1.420000      0.0000000E+00
  -1.410000      0.0000000E+00
  -1.400000      0.0000000E+00
  -1.390000      0.0000000E+00
  -1.380000      0.0000000E+00
  -1.370000      0.0000000E+00
  -1.360000      0.0000000E+00
  -1.350000      0.0000000E+00
  -1.340000      0.0000000E+00
  -1.330000      0.0000000E+00
  -1.320000      0.0000000E+00
  -1.310000      0.0000000E+00
  -1.300000      0.0000000E+00
  -1.290000      0.0000000E+00
  -1.280000      0.0000000E+00
  -1.270000      0.0000000E+00
  -1.260000      0.0000000E+00
  -1.250000      0.0000000E+00
  -1.240000      0.0000000E+00
  -1.230000      0.0000000E+00
  -1.220000      0.0000000E+00
  -1.210000      0.0000000E+00
  -1.200000      0.0000000E+00
  -1.190000      0.0000000E+00
  -1.180000      0.0000000E+00
  -1.170000      0.0000000E+00
  -1.160000      0.0000000E+00
  -1.150000      0.0000000E+00
  -1.140000      0.0000000E+00
  -1.130000      0.0000000E+00
  -1.120000      0.0000000E+00
  -1.110000      0.0000000E+00
  -1.100000      0.0000000E+00
  -1.090000      0.0000000E+00
  -1.080000      0.0000000E+00
  -1.070000      0.0000000E+00
  -1.060000      0.0000000E+00
  -1.050000      0.0000000E+00
  -1.040000      0.0000000E+00
  -1.030000      0.0000000E+00
  -1.020000      0.0000000E+00
  -1.010000      0.0000000E+00
  -1.000000      0.0000000E+00
 -0.9900000      0.0000000E+00
 -0.9800000      0.0000000E+00
 -0.9700000      0.0000000E+00
 -0.9600000      0.0000000E+00
 -0.9500000      0.0000000E+00
 -0.9400000      0.0000000E+00
 -0.9300000      0.0000000E+00
 -0.9200000      0.0000000E+00
 -0.9100000      0.0000000E+00
 -0.9000000      0.0000000E+00
 -0.8900000      0.0000000E+00
 -0.8800000      0.0000000E+00
 -0.8700000      0.0000000E+00
 -0.8600000      0.0000000E+00
 -0.8500000      0.0000000E+00
 -0.8400000      0.0000000E+00
 -0.8300000      0.0000000E+00
 -0.8200000      0.0000000E+00
 -0.8100000      0.0000000E+00
 -0.8000000      0.0000000E+00
 -0.7900000      0.0000000E+00
 -0.7800000      0.0000000E+00
 -0.7700000      0.0000000E+00
 -0.7600000      0.0000000E+00
 -0.7500000      0.0000000E+00
 -0.7400000      0.0000000E+00
 -0.7300000      0.0000000E+00
 -0.7200000      0.0000000E+00
 -0.7100000      0.0000000E+00
 -0.7000000      0.0000000E+00
 -0.6900000      0.0000000E+00
 -0.6800000      0.0000000E+00
 -0.6700000      0.0000000E+00
 -0.6600000      0.0000000E+00
 -0.6500000      0.0000000E+00
 -0.6400000      0.0000000E+00
 -0.6300000      0.0000000E+00
 -0.6200000      0.0000000E+00
 -0.6100000      0.0000000E+00
 -0.6000000      0.0000000E+00
 -0.5900000      0.0000000E+00
 -0.5800000      0.0000000E+00
 -0.5700000      0.0000000E+00
 -0.5600000      0.0000000E+00
 -0.5500000      0.0000000E+00
 -0.5400000      0.0000000E+00
 -0.5300000      0.0000000E+00
 -0.5200000      0.0000000E+00
 -0.5100000      0.0000000E+00
 -0.5000000      0.0000000E+00
 -0.4900000      0.0000000E+00
 -0.4800000      0.0000000E+00
 -0.4700000      0.0000000E+00
 -0.4600000      0.0000000E+00
 -0.4500000      0.0000000E+00
 -0.4400000      0.0000000E+00
 -0.4300000      0.0000000E+00
 -0.4200000      0.0000000E+00
 -0.4100000      0.0000000E+00
 -0.4000000      0.0000000E+00
 -0.3900000      0.0000000E+00
 -0.3800000      0.0000000E+00
 -0.3700000      0.0000000E+00
 -0.3600000      0.0000000E+00
 -0.3500000      0.0000000E+00
 -0.3400000      0.0000000E+00
 -0.3300000      0.0000000E+00
 -0.3200000      0.0000000E+00
 -0.3100000      0.0000000E+00
 -0.3000000      0.0000000E+00
 -0.2900000      0.0000000E+00
 -0.2800000      0.0000000E+00
 -0.2700000      0.0000000E+00
 -0.2600000      0.0000000E+00
 -0.2500000      0.0000000E+00
 -0.2400000      0.0000000E+00
 -0.2300000      0.0000000E+00
 -0.2200000      0.0000000E+00
 -0.2100000      0.0000000E+00
 -0.2000000      0.0000000E+00
 -0.1900000      0.0000000E+00
 -0.1800000      0.0000000E+00
 -0.1700000      0.0000000E+00
 -0.1600000      0.0000000E+00
 -0.1500000      0.0000000E+00
 -0.1400000      0.0000000E+00
 -0.1300000      0.0000000E+00
 -0.1200000      0.0000000E+00
 -0.1100000      0.0000000E+00
 -0.1000000      0.0000000E+00
 -9.0000004E-02  0.0000000E+00
 -7.9999998E-02  0.0000000E+00
 -7.0000000E-02  0.0000000E+00
 -5.9999999E-02  0.0000000E+00
 -5.0000001E-02  0.0000000E+00
 -3.9999999E-02  0.0000000E+00
 -2.9999999E-02  0.0000000E+00
 -2.0000000E-02  0.0000000E+00
 -9.9999998E-03  0.0000000E+00
 -3.4694470E-17  0.0000000E+00
  9.9999998E-03  0.0000000E+00
  2.0000000E-02  0.0000000E+00
  2.9999999E-02  0.0000000E+00
  3.9999999E-02  0.0000000E+00
  5.0000001E-02  0.0000000E+00
  5.9999999E-02  0.0000000E+00
  7.0000000E-02  0.0000000E+00
  7.9999998E-02  0.0000000E+00
  9.0000004E-02  0.0000000E+00
  0.1000000      0.0000000E+00
  0.1100000      0.0000000E+00
  0.1200000      0.0000000E+00
  0.1300000      0.0000000E+00
  0.1400000      0.0000000E+00
  0.1500000      0.0000000E+00
  0.1600000      0.0000000E+00
  0.1700000      0.0000000E+00
  0.1800000      0.0000000E+00
  0.1900000      0.0000000E+00
  0.2000000      0.0000000E+00
  0.2100000      0.0000000E+00
  0.2200000      0.0000000E+00
  0.2300000      0.0000000E+00
  0.2400000      0.0000000E+00
  0.2500000      0.0000000E+00
  0.2600000      0.0000000E+00
  0.2700000      0.0000000E+00
  0.2800000      0.0000000E+00
  0.2900000      0.0000000E+00
  0.3000000      0.0000000E+00
  0.3100000     -1.2129469E-38
  0.3200000     -1.4375495E-38
  0.3300000     -1.6207595E-38
  0.3400000     -3.4789216E-38
  0.3500000     -7.3505049E-38
  0.3600000     -1.1522630E-37
  0.3700000     -1.5780562E-37
  0.3800000     -2.0323996E-37
  0.3900000     -2.5429061E-37
  0.4000000     -3.1551251E-37
  0.4100000     -3.9025678E-37
  0.4200000     -4.5652986E-37
  0.4300000     -5.1469953E-37
  0.4400000     -5.8107063E-37
  0.4500000     -6.4352693E-37
  0.4600000     -6.9367933E-37
  0.4700000     -6.9773493E-37
  0.4800000     -6.6214810E-37
  0.4900000     -6.1790657E-37
  0.5000000     -5.4682711E-37
  0.5100000     -4.2930099E-37
  0.5200000     -2.6261779E-37
  0.5300000     -4.0026017E-38
  0.5400000      2.4316602E-37
  0.5500000      5.8288025E-37
  0.5600000      9.8467239E-37
  0.5700000      1.4807002E-36
  0.5800000      2.0239856E-36
  0.5900000      2.6128074E-36
  0.6000000      3.2800192E-36
  0.6100000      3.9970105E-36
  0.6200000      4.7862975E-36
  0.6300000      5.6303284E-36
  0.6400000      6.5699631E-36
  0.6500000      7.6239748E-36
  0.6600000      8.7218043E-36
  0.6700000      9.9522285E-36
  0.6800000      1.1399362E-35
  0.6900000      1.2978260E-35
  0.7000000      1.4481030E-35
  0.7100000      1.5803009E-35
  0.7200000      1.7038672E-35
  0.7300000      1.8154955E-35
  0.7400000      1.9101978E-35
  0.7500000      1.9839429E-35
  0.7600000      2.0360120E-35
  0.7700000      2.0606175E-35
  0.7800000      2.0456312E-35
  0.7900000      2.0023553E-35
  0.8000000      1.9395450E-35
  0.8100000      1.8446705E-35
  0.8200000      1.7118607E-35
  0.8300000      1.5279060E-35
  0.8400000      1.2767921E-35
  0.8500000      9.5481767E-36
  0.8600000      5.6304088E-36
  0.8700000      1.0118983E-36
  0.8800000     -4.2551500E-36
  0.8900000     -1.0377232E-35
  0.9000000     -1.7082438E-35
  0.9100000     -2.4166341E-35
  0.9200000     -3.2084493E-35
  0.9300000     -4.0492667E-35
  0.9400000     -4.9430812E-35
  0.9500000     -5.9155938E-35
  0.9600000     -6.9851697E-35
  0.9700000     -8.1189363E-35
  0.9800000     -9.2548438E-35
  0.9900000     -1.0391673E-34
   1.000000     -1.1536726E-34
   1.010000     -1.2634381E-34
   1.020000     -1.3693004E-34
   1.030000     -1.4768877E-34
   1.040000     -1.5788961E-34
   1.050000     -1.6714809E-34
   1.060000     -1.7589708E-34
   1.070000     -1.8478796E-34
   1.080000     -1.9342886E-34
   1.090000     -2.0160979E-34
   1.100000     -2.0965422E-34
   1.110000     -2.1607866E-34
   1.120000     -2.2096132E-34
   1.130000     -2.2509654E-34
   1.140000     -2.2771401E-34
   1.150000     -2.2892064E-34
   1.160000     -2.2702573E-34
   1.170000     -2.2187389E-34
   1.180000     -2.1454101E-34
   1.190000     -2.0398392E-34
   1.200000     -1.9014856E-34
   1.210000     -1.7379259E-34
   1.220000     -1.5252105E-34
   1.230000     -1.2897938E-34
   1.240000     -1.0588527E-34
   1.250000     -8.0366356E-35
   1.260000     -5.2332394E-35
   1.270000     -2.0962685E-35
   1.280000      1.4564402E-35
   1.290000      5.6644742E-35
   1.300000      1.0514344E-34
   1.310000      1.5641617E-34
   1.320000      2.0953820E-34
   1.330000      2.6466928E-34
   1.340000      3.2345286E-34
   1.350000      3.8324541E-34
   1.360000      4.4543820E-34
   1.370000      5.1204984E-34
   1.380000      5.7762162E-34
   1.390000      6.4129103E-34
   1.400000      7.0664329E-34
   1.410000      7.7491379E-34
   1.420000      8.4720578E-34
   1.430000      9.2385003E-34
   1.440000      9.9965261E-34
   1.450000      1.0726042E-33
   1.460000      1.1425377E-33
   1.470000      1.2051845E-33
   1.480000      1.2628427E-33
   1.490000      1.3211870E-33
   1.500000      1.3797232E-33
   1.510000      1.4368132E-33
   1.520000      1.4877840E-33
   1.530000      1.5323068E-33
   1.540000      1.5750313E-33
   1.550000      1.6150734E-33
   1.560000      1.6501320E-33
   1.570000      1.6781633E-33
   1.580000      1.6968755E-33
   1.590000      1.7074590E-33
   1.600000      1.7089129E-33
   1.610000      1.6945455E-33
   1.620000      1.6636924E-33
   1.630000      1.6163165E-33
   1.640000      1.5490483E-33
   1.650000      1.4612523E-33
   1.660000      1.3545689E-33
   1.670000      1.2263102E-33
   1.680000      1.0719095E-33
   1.690000      8.9097981E-34
   1.700000      6.8235105E-34
   1.710000      4.4486088E-34
   1.720000      1.7777952E-34
   1.730000     -1.1935046E-34
   1.740000     -4.4851060E-34
   1.750000     -8.0967463E-34
   1.760000     -1.2037165E-33
   1.770000     -1.6305139E-33
   1.780000     -2.0959729E-33
   1.790000     -2.5971510E-33
   1.800000     -3.1279401E-33
   1.810000     -3.6928181E-33
   1.820000     -4.2930740E-33
   1.830000     -4.9276440E-33
   1.840000     -5.5957076E-33
   1.850000     -6.2975163E-33
   1.860000     -7.0300939E-33
   1.870000     -7.7924402E-33
   1.880000     -8.5820697E-33
   1.890000     -9.3946111E-33
   1.900000     -1.0225381E-32
   1.910000     -1.1068131E-32
   1.920000     -1.1916506E-32
   1.930000     -1.2760191E-32
   1.940000     -1.3587520E-32
   1.950000     -1.4386474E-32
   1.960000     -1.5142000E-32
   1.970000     -1.5838094E-32
   1.980000     -1.6456677E-32
   1.990000     -1.6977775E-32
   2.000000     -1.7379328E-32
   2.010000     -1.7641045E-32
   2.020000     -1.7737763E-32
   2.030000     -1.7641062E-32
   2.040000     -1.7327451E-32
   2.050000     -1.6770422E-32
   2.060000     -1.5942276E-32
   2.070000     -1.4818061E-32
   2.080000     -1.3372128E-32
   2.090000     -1.1580261E-32
   2.100000     -9.4191620E-33
   2.110000     -6.8661220E-33
   2.120000     -3.9008328E-33
   2.130000     -5.0433488E-34
   2.140000      3.3392400E-33
   2.150000      7.6442449E-33
   2.160000      1.2423762E-32
   2.170000      1.7687705E-32
   2.180000      2.3444303E-32
   2.190000      2.9698815E-32
   2.200000      3.6451257E-32
   2.210000      4.3699808E-32
   2.220000      5.1439357E-32
   2.230000      5.9661505E-32
   2.240000      6.8352957E-32
   2.250000      7.7493172E-32
   2.260000      8.7055895E-32
   2.270000      9.7007936E-32
   2.280000      1.0730879E-31
   2.290000      1.1790851E-31
   2.300000      1.2874696E-31
   2.310000      1.3975336E-31
   2.320000      1.5084541E-31
   2.330000      1.6192818E-31
   2.340000      1.7289377E-31
   2.350000      1.8362086E-31
   2.360000      1.9397459E-31
   2.370000      2.0380672E-31
   2.380000      2.1295589E-31
   2.390000      2.2124828E-31
   2.400000      2.2849882E-31
   2.410000      2.3451239E-31
   2.420000      2.3908549E-31
   2.430000      2.4200781E-31
   2.440000      2.4306484E-31
   2.450000      2.4203979E-31
   2.460000      2.3871523E-31
   2.470000      2.3287617E-31
   2.480000      2.2431265E-31
   2.490000      2.1282142E-31
   2.500000      1.9820826E-31
   2.510000      1.8028987E-31
   2.520000      1.5889558E-31
   2.530000      1.3386908E-31
   2.540000      1.0506961E-31
   2.550000      7.2373171E-32
   2.560000      3.5673770E-32
   2.570000     -5.1157275E-33
   2.580000     -5.0062629E-32
   2.590000     -9.9213251E-32
   2.600000     -1.5259160E-31
   2.610000     -2.1019790E-31
   2.620000     -2.7200648E-31
   2.630000     -3.3796410E-31
   2.640000     -4.0798668E-31
   2.650000     -4.8195583E-31
   2.660000     -5.5971549E-31
   2.670000     -6.4106774E-31
   2.680000     -7.2576836E-31
   2.690000     -8.1352193E-31
   2.700000     -9.0397688E-31
   2.710000     -9.9672047E-31
   2.720000     -1.0912750E-30
   2.730000     -1.1870924E-30
   2.740000     -1.2835522E-30
   2.750000     -1.3799577E-30
   2.760000     -1.4755354E-30
   2.770000     -1.5694346E-30
   2.780000     -1.6607285E-30
   2.790000     -1.7484173E-30
   2.800000     -1.8314324E-30
   2.810000     -1.9086428E-30
   2.820000     -1.9788624E-30
   2.830000     -2.0408587E-30
   2.840000     -2.0933642E-30
   2.850000     -2.1350857E-30
   2.860000     -2.1647186E-30
   2.870000     -2.1809581E-30
   2.880000     -2.1825120E-30
   2.890000     -2.1681141E-30
   2.900000     -2.1365355E-30
   2.910000     -2.0865965E-30
   2.920000     -2.0171782E-30
   2.930000     -1.9272315E-30
   2.940000     -1.8157867E-30
   2.950000     -1.6819613E-30
   2.960000     -1.5249677E-30
   2.970000     -1.3441199E-30
   2.980000     -1.1388399E-30
   2.990000     -9.0866494E-31
   3.000000     -6.5325400E-31
   3.010000     -3.7239586E-31
   3.020000     -6.6018766E-32
   3.030000      2.6579872E-31
   3.040000      6.2281560E-31
   3.050000      1.0046135E-30
   3.060000      1.4105799E-30
   3.070000      1.8398894E-30
   3.080000      2.2914825E-30
   3.090000      2.7640450E-30
   3.100000      3.2559843E-30
   3.110000      3.7654067E-30
   3.120000      4.2900951E-30
   3.130000      4.8274856E-30
   3.140000      5.3746555E-30
   3.150000      5.9283020E-30
   3.160000      6.4847355E-30
   3.170000      7.0398720E-30
   3.180000      7.5892375E-30
   3.190000      8.1279713E-30
   3.200000      8.6508425E-30
   3.210000      9.1522741E-30
   3.220000      9.6263666E-30
   3.230000      1.0066938E-29
   3.240000      1.0467565E-29
   3.250000      1.0821631E-29
   3.260000      1.1122373E-29
   3.270000      1.1362940E-29
   3.280000      1.1536453E-29
   3.290000      1.1636056E-29
   3.300000      1.1654981E-29
   3.310000      1.1586594E-29
   3.320000      1.1424455E-29
   3.330000      1.1162367E-29
   3.340000      1.0794424E-29
   3.350000      1.0315051E-29
   3.360000      9.7190482E-30
   3.370000      9.0016258E-30
   3.380000      8.1584416E-30
   3.390000      7.1856401E-30
   3.400000      6.0798881E-30
   3.410000      4.8384168E-30
   3.420000      3.4590695E-30
   3.430000      1.9403554E-30
   3.440000      2.8150647E-31
   3.450000     -1.5174499E-30
   3.460000     -3.4556137E-30
   3.470000     -5.5311230E-30
   3.480000     -7.7410565E-30
   3.490000     -1.0081325E-29
   3.500000     -1.2546565E-29
   3.510000     -1.5130020E-29
   3.520000     -1.7823419E-29
   3.530000     -2.0616868E-29
   3.540000     -2.3498733E-29
   3.550000     -2.6455546E-29
   3.560000     -2.9471925E-29
   3.570000     -3.2530498E-29
   3.580000     -3.5611856E-29
   3.590000     -3.8694539E-29
   3.600000     -4.1755031E-29
   3.610000     -4.4767796E-29
   3.620000     -4.7705339E-29
   3.630000     -5.0538292E-29
   3.640000     -5.3235532E-29
   3.650000     -5.5764327E-29
   3.660000     -5.8090477E-29
   3.670000     -6.0178522E-29
   3.680000     -6.1991905E-29
   3.690000     -6.3493216E-29
   3.700000     -6.4644356E-29
   3.710000     -6.5406766E-29
   3.720000     -6.5741619E-29
   3.730000     -6.5610042E-29
   3.740000     -6.4973287E-29
   3.750000     -6.3792921E-29
   3.760000     -6.2031014E-29
   3.770000     -5.9650293E-29
   3.780000     -5.6614312E-29
   3.790000     -5.2887637E-29
   3.800000     -4.8436019E-29
   3.810000     -4.3226583E-29
   3.820000     -3.7228063E-29
   3.830000     -3.0411021E-29
   3.840000     -2.2748143E-29
   3.850000     -1.4214555E-29
   3.860000     -4.7881662E-30
   3.870000      5.5498963E-30
   3.880000      1.6814850E-29
   3.890000      2.9017779E-29
   3.900000      4.2165046E-29
   3.910000      5.6257756E-29
   3.920000      7.1291120E-29
   3.930000      8.7253883E-29
   3.940000      1.0412769E-28
   3.950000      1.2188645E-28
   3.960000      1.4049583E-28
   3.970000      1.5991259E-28
   3.980000      1.8008418E-28
   3.990000      2.0094826E-28
   4.000000      2.2243241E-28
   4.010000      2.4445381E-28
   4.020000      2.6691906E-28
   4.030000      2.8972407E-28
   4.040000      3.1275405E-28
   4.050000      3.3588372E-28
   4.060000      3.5897726E-28
   4.070000      3.8188877E-28
   4.080000      4.0446238E-28
   4.090000      4.2653262E-28
   4.100000      4.4792489E-28
   4.110000      4.6845564E-28
   4.120000      4.8793291E-28
   4.130000      5.0615668E-28
   4.140000      5.2291925E-28
   4.150000      5.3800545E-28
   4.160000      5.5119321E-28
   4.170000      5.6225363E-28
   4.180000      5.7095156E-28
   4.190000      5.7704569E-28
   4.200000      5.8028919E-28
   4.210000      5.8042998E-28
   4.220000      5.7721136E-28
   4.230000      5.7037258E-28
   4.240000      5.5964968E-28
   4.250000      5.4477644E-28
   4.260000      5.2548527E-28
   4.270000      5.0150903E-28
   4.280000      4.7258209E-28
   4.290000      4.3844238E-28
   4.300000      3.9883306E-28
   4.310000      3.5350519E-28
   4.320000      3.0221958E-28
   4.330000      2.4474958E-28
   4.340000      1.8088387E-28
   4.350000      1.1042883E-28
   4.360000      3.3211729E-29
   4.370000     -5.0916689E-29
   4.380000     -1.4207920E-28
   4.390000     -2.4036951E-28
   4.400000     -3.4584964E-28
   4.410000     -4.5854726E-28
   4.420000     -5.7845354E-28
   4.430000     -7.0552115E-28
   4.440000     -8.3966183E-28
   4.450000     -9.8074477E-28
   4.460000     -1.1285954E-27
   4.470000     -1.2829934E-27
   4.480000     -1.4436711E-27
   4.490000     -1.6103131E-27
   4.500000     -1.7825539E-27
   4.510000     -1.9599777E-27
   4.520000     -2.1421164E-27
   4.530000     -2.3284474E-27
   4.540000     -2.5183943E-27
   4.550000     -2.7113228E-27
   4.560000     -2.9065411E-27
   4.570000     -3.1032960E-27
   4.580000     -3.3007724E-27
   4.590000     -3.4980908E-27
   4.600000     -3.6943061E-27
   4.610000     -3.8884033E-27
   4.620000     -4.0792991E-27
   4.630000     -4.2658378E-27
   4.640000     -4.4467920E-27
   4.650000     -4.6208610E-27
   4.660000     -4.7866705E-27
   4.670000     -4.9427744E-27
   4.680000     -5.0876540E-27
   4.690000     -5.2197231E-27
   4.700000     -5.3373277E-27
   4.710000     -5.4387518E-27
   4.720000     -5.5222205E-27
   4.730000     -5.5859056E-27
   4.740000     -5.6279332E-27
   4.750000     -5.6463871E-27
   4.760000     -5.6393189E-27
   4.770000     -5.6047535E-27
   4.780000     -5.5406998E-27
   4.790000     -5.4451559E-27
   4.800000     -5.3161205E-27
   4.810000     -5.1515999E-27
   4.820000     -4.9496184E-27
   4.830000     -4.7082239E-27
   4.840000     -4.4255000E-27
   4.850000     -4.0995738E-27
   4.860000     -3.7286231E-27
   4.870000     -3.3108877E-27
   4.880000     -2.8446758E-27
   4.890000     -2.3283773E-27
   4.900000     -1.7604712E-27
   4.910000     -1.1395348E-27
   4.920000     -4.6425803E-28
   4.930000      2.6654584E-28
   4.940000      1.0539275E-27
   4.950000      1.8987863E-27
   4.960000      2.8018566E-27
   4.970000      3.7636889E-27
   4.980000      4.7846336E-27
   4.990000      5.8648218E-27
   5.000000      7.0041458E-27
   5.010000      8.2022367E-27
   5.020000      9.4584469E-27
   5.030000      1.0771825E-26
   5.040000      1.2141095E-26
   5.050000      1.3564639E-26
   5.060000      1.5040465E-26
   5.070000      1.6566199E-26
   5.080000      1.8139058E-26
   5.090000      1.9755840E-26
   5.100000      2.1412896E-26
   5.110000      2.3106120E-26
   5.120000      2.4830939E-26
   5.130000      2.6582298E-26
   5.140000      2.8354653E-26
   5.150000      3.0141953E-26
   5.160000      3.1937650E-26
   5.170000      3.3734675E-26
   5.180000      3.5525451E-26
   5.190000      3.7301876E-26
   5.200000      3.9055332E-26
   5.210000      4.0776670E-26
   5.220000      4.2456226E-26
   5.230000      4.4083809E-26
   5.240000      4.5648703E-26
   5.250000      4.7139675E-26
   5.260000      4.8544966E-26
   5.270000      4.9852299E-26
   5.280000      5.1048881E-26
   5.290000      5.2121414E-26
   5.300000      5.3056097E-26
   5.310000      5.3838654E-26
   5.320000      5.4454316E-26
   5.330000      5.4887869E-26
   5.340000      5.5123653E-26
   5.350000      5.5145636E-26
   5.360000      5.4937383E-26
   5.370000      5.4482142E-26
   5.380000      5.3762886E-26
   5.390000      5.2762339E-26
   5.400000      5.1463073E-26
   5.410000      4.9847532E-26
   5.420000      4.7898149E-26
   5.430000      4.5597381E-26
   5.440000      4.2927817E-26
   5.450000      3.9872275E-26
   5.460000      3.6413878E-26
   5.470000      3.2536152E-26
   5.480000      2.8223132E-26
   5.490000      2.3459486E-26
   5.500000      1.8230602E-26
   5.510000      1.2522695E-26
   5.520000      6.3229197E-27
   5.530000     -3.8048776E-28
   5.540000     -7.5981295E-27
   5.550000     -1.5339308E-26
   5.560000     -2.3611906E-26
   5.570000     -3.2422263E-26
   5.580000     -4.1775038E-26
   5.590000     -5.1673104E-26
   5.600000     -6.2117385E-26
   5.610000     -7.3106729E-26
   5.620000     -8.4637786E-26
   5.630000     -9.6704801E-26
   5.640000     -1.0929950E-25
   5.650000     -1.2241092E-25
   5.660000     -1.3602522E-25
   5.670000     -1.5012557E-25
   5.680000     -1.6469187E-25
   5.690000     -1.7970068E-25
   5.700000     -1.9512499E-25
   5.710000     -2.1093404E-25
   5.720000     -2.2709316E-25
   5.730000     -2.4356357E-25
   5.740000     -2.6030226E-25
   5.750000     -2.7726185E-25
   5.760000     -2.9439034E-25
   5.770000     -3.1163102E-25
   5.780000     -3.2892243E-25
   5.790000     -3.4619812E-25
   5.800000     -3.6338663E-25
   5.810000     -3.8041146E-25
   5.820000     -3.9719095E-25
   5.830000     -4.1363823E-25
   5.840000     -4.2966133E-25
   5.850000     -4.4516303E-25
   5.860000     -4.6004110E-25
   5.870000     -4.7418814E-25
   5.880000     -4.8749168E-25
   5.890000     -4.9983440E-25
   5.900000     -5.1109425E-25
   5.910000     -5.2114439E-25
   5.920000     -5.2985361E-25
   5.930000     -5.3708633E-25
   5.940000     -5.4270283E-25
   5.950000     -5.4655962E-25
   5.960000     -5.4850963E-25
   5.970000     -5.4840239E-25
   5.980000     -5.4608457E-25
   5.990000     -5.4140032E-25
   6.000000     -5.3419131E-25
   6.010000     -5.2429776E-25
   6.020000     -5.1155860E-25
   6.030000     -4.9581210E-25
   6.040000     -4.7689644E-25
   6.050000     -4.5465032E-25
   6.060000     -4.2891363E-25
   6.070000     -3.9952839E-25
   6.080000     -3.6633949E-25
   6.090000     -3.2919540E-25
   6.100000     -2.8794942E-25
   6.110000     -2.4246037E-25
   6.120000     -1.9259377E-25
   6.130000     -1.3822275E-25
   6.140000     -7.9229473E-26
   6.150000     -1.5506058E-26
   6.160000      5.3044197E-26
   6.170000      1.2650541E-25
   6.180000      2.0494794E-25
   6.190000      2.8842712E-25
   6.200000      3.7698208E-25
   6.210000      4.7063427E-25
   6.220000      5.6938590E-25
   6.230000      6.7321912E-25
   6.240000      7.8209420E-25
   6.250000      8.9594828E-25
   6.260000      1.0146939E-24
   6.270000      1.1382184E-24
   6.280000      1.2663814E-24
   6.290000      1.3990140E-24
   6.300000      1.5359181E-24
   6.310000      1.6768633E-24
   6.320000      1.8215875E-24
   6.330000      1.9697946E-24
   6.340000      2.1211533E-24
   6.350000      2.2752965E-24
   6.360000      2.4318199E-24
   6.370000      2.5902796E-24
   6.380000      2.7501932E-24
   6.390000      2.9110370E-24
   6.400000      3.0722468E-24
   6.410000      3.2332147E-24
   6.420000      3.3932915E-24
   6.430000      3.5517843E-24
   6.440000      3.7079555E-24
   6.450000      3.8610253E-24
   6.460000      4.0101685E-24
   6.470000      4.1545174E-24
   6.480000      4.2931593E-24
   6.490000      4.4251409E-24
   6.500000      4.5494658E-24
   6.510000      4.6650962E-24
   6.520000      4.7709562E-24
   6.530000      4.8659315E-24
   6.540000      4.9488720E-24
   6.550000      5.0185942E-24
   6.560000      5.0738816E-24
   6.570000      5.1134903E-24
   6.580000      5.1361495E-24
   6.590000      5.1405679E-24
   6.600000      5.1254332E-24
   6.610000      5.0894194E-24
   6.620000      5.0311884E-24
   6.630000      4.9493961E-24
   6.640000      4.8426964E-24
   6.650000      4.7097469E-24
   6.660000      4.5492133E-24
   6.670000      4.3597759E-24
   6.680000      4.1401349E-24
   6.690000      3.8890184E-24
   6.700000      3.6051878E-24
   6.710000      3.2874435E-24
   6.720000      2.9346359E-24
   6.730000      2.5456695E-24
   6.740000      2.1195133E-24
   6.750000      1.6552081E-24
   6.760000      1.1518751E-24
   6.770000      6.0872471E-25
   6.780000      2.5067414E-26
   6.790000     -5.9967791E-25
   6.800000     -1.2659750E-24
   6.810000     -1.9741583E-24
   6.820000     -2.7244246E-24
   6.830000     -3.5168216E-24
   6.840000     -4.3512380E-24
   6.850000     -5.2273943E-24
   6.860000     -6.1448289E-24
   6.870000     -7.1028918E-24
   6.880000     -8.1007330E-24
   6.890000     -9.1372915E-24
   6.900000     -1.0211285E-23
   6.910000     -1.1321200E-23
   6.920000     -1.2465283E-23
   6.930000     -1.3641537E-23
   6.940000     -1.4847703E-23
   6.950000     -1.6081255E-23
   6.960000     -1.7339393E-23
   6.970000     -1.8619044E-23
   6.980000     -1.9916840E-23
   6.990000     -2.1229118E-23
   7.000000     -2.2551924E-23
   7.010000     -2.3880992E-23
   7.020000     -2.5211753E-23
   7.030000     -2.6539329E-23
   7.040000     -2.7858528E-23
   7.050000     -2.9163850E-23
   7.060000     -3.0449469E-23