  -2.600000      0.0000000E+00
  -2.590000      0.0000000E+00
  -2.580000      0.0000000E+00
  -2.570000      0.0000000E+00
  -2.560000      0.0000000E+00
  -2.550000      0.0000000E+00
  -2.540000      0.0000000E+00
  -2.530000      0.0000000E+00
  -2.520000      0.0000000E+00
  -2.510000      0.0000000E+00
  -2.500000      0.0000000E+00
  -2.490000      0.0000000E+00
  -2.480000      0.0000000E+00
  -2.470000      0.0000000E+00
  -2.460000      0.0000000E+00
  -2.450000      0.0000000E+00
  -2.440000      0.0000000E+00
  -2.430000      0.0000000E+00
  -2.420000      0.0000000E+00
  -2.410000      0.0000000E+00
  -2.400000      0.0000000E+00
  -2.390000      0.0000000E+00
  -2.380000      0.0000000E+00
  -2.370000      0.0000000E+00
  -2.360000      0.0000000E+00
  -2.350000      0.0000000E+00
  -2.340000      0.0000000E+00
  -2.330000      0.0000000E+00
  -2.320000      0.0000000E+00
  -2.310000      0.0000000E+00
  -2.300000      0.0000000E+00
  -2.290000      0.0000000E+00
  -2.280000      0.0000000E+00
  -2.270000      0.0000000E+00
  -2.260000      0.0000000E+00
  -2.250000      0.0000000E+00
  -2.240000      0.0000000E+00
  -2.230000      0.0000000E+00
  -2.220000      0.0000000E+00
  -2.210000      0.0000000E+00
  -2.200000      0.0000000E+00
  -2.190000      0.0000000E+00
  -2.180000      0.0000000E+00
  -2.170000      0.0000000E+00
  -2.160000      0.0000000E+00
  -2.150000      0.0000000E+00
  -2.140000      0.0000000E+00
  -2.130000      0.0000000E+00
  -2.120000      0.0000000E+00
  -2.110000      0.0000000E+00
  -2.100000      0.0000000E+00
  -2.090000      0.0000000E+00
  -2.080000      0.0000000E+00
  -2.070000      0.0000000E+00
  -2.060000      0.0000000E+00
  -2.050000      0.0000000E+00
  -2.040000      0.0000000E+00
  -2.030000      0.0000000E+00
  -2.020000      0.0000000E+00
  -2.010000      0.0000000E+00
  -2.000000      0.0000000E+00
  -1.990000      0.0000000E+00
  -1.980000      0.0000000E+00
  -1.970000      0.0000000E+00
  -1.960000      0.0000000E+00
  -1.950000      0.0000000E+00
  -1.940000      0.0000000E+00
  -1.930000      0.0000000E+00
  -1.920000      0.0000000E+00
  -1.910000      0.0000000E+00
  -1.900000      0.0000000E+00
  -1.890000      0.0000000E+00
  -1.880000      0.0000000E+00
  -1.870000      0.0000000E+00
  -1.860000      0.0000000E+00
  -1.850000      0.0000000E+00
  -1.840000      0.0000000E+00
  -1.830000      0.0000000E+00
  -1.820000      0.0000000E+00
  -1.810000      0.0000000E+00
  -1.800000      0.0000000E+00
  -1.790000      0.0000000E+00
  -1.780000      0.0000000E+00
  -1.770000      0.0000000E+00
  -1.760000      0.0000000E+00
  -1.750000      0.0000000E+00
  -1.740000      0.0000000E+00
  -1.730000      0.0000000E+00
  -1.720000      0.0000000E+00
  -1.710000      0.0000000E+00
  -1.700000      0.0000000E+00
  -1.690000      0.0000000E+00
  -1.680000      0.0000000E+00
  -1.670000      0.0000000E+00
  -1.660000      0.0000000E+00
  -1.650000      0.0000000E+00
  -1.640000      0.0000000E+00
  -1.630000      0.0000000E+00
  -1.620000      0.0000000E+00
  -1.610000      0.0000000E+00
  -1.600000      0.0000000E+00
  -1.590000      0.0000000E+00
  -1.580000      0.0000000E+00
  -1.570000      0.0000000E+00
  -1.560000      0.0000000E+00
  -1.550000      0.0000000E+00
  -1.540000      0.0000000E+00
  -1.530000      0.0000000E+00
  -1.520000      0.0000000E+00
  -1.510000      0.0000000E+00
  -1.500000      0.0000000E+00
  -1.490000      0.0000000E+00
  -1.480000      0.0000000E+00
  -1.470000      0.0000000E+00
  -1.460000      0.0000000E+00
  -1.450000      0.0000000E+00
  -1.440000      0.0000000E+00
  -1.430000      0.0000000E+00
  -1.420000      0.0000000E+00
  -1.410000      0.0000000E+00
  -1.400000      0.0000000E+00
  -1.390000      0.0000000E+00
  -1.380000      0.0000000E+00
  -1.370000      0.0000000E+00
  -1.360000      0.0000000E+00
  -1.350000      0.0000000E+00
  -1.340000      0.0000000E+00
  -1.330000      0.0000000E+00
  -1.320000      0.0000000E+00
  -1.310000      0.0000000E+00
  -1.300000      0.0000000E+00
  -1.290000      0.0000000E+00
  -1.280000      0.0000000E+00
  -1.270000      0.0000000E+00
  -1.260000      0.0000000E+00
  -1.250000      0.0000000E+00
  -1.240000      0.0000000E+00
  -1.230000      0.0000000E+00
  -1.220000      0.0000000E+00
  -1.210000      0.0000000E+00
  -1.200000      0.0000000E+00
  -1.190000      0.0000000E+00
  -1.180000      0.0000000E+00
  -1.170000      0.0000000E+00
  -1.160000      0.0000000E+00
  -1.150000      0.0000000E+00
  -1.140000      0.0000000E+00
  -1.130000      0.0000000E+00
  -1.120000      0.0000000E+00
  -1.110000      0.0000000E+00
  -1.100000      0.0000000E+00
  -1.090000      0.0000000E+00
  -1.080000      0.0000000E+00
  -1.070000      0.0000000E+00
  -1.060000      0.0000000E+00
  -1.050000      0.0000000E+00
  -1.040000      0.0000000E+00
  -1.030000      0.0000000E+00
  -1.020000      0.0000000E+00
  -1.010000      0.0000000E+00
  -1.000000      0.0000000E+00
 -0.9900000      0.0000000E+00
 -0.9800000      0.0000000E+00
 -0.9700000      0.0000000E+00
 -0.9600000      0.0000000E+00
 -0.9500000      0.0000000E+00
 -0.9400000      0.0000000E+00
 -0.9300000      0.0000000E+00
 -0.9200000      0.0000000E+00
 -0.9100000      0.0000000E+00
 -0.9000000      0.0000000E+00
 -0.8900000      0.0000000E+00
 -0.8800000      0.0000000E+00
 -0.8700000      0.0000000E+00
 -0.8600000      0.0000000E+00
 -0.8500000      0.0000000E+00
 -0.8400000      0.0000000E+00
 -0.8300000      0.0000000E+00
 -0.8200000      0.0000000E+00
 -0.8100000      0.0000000E+00
 -0.8000000      0.0000000E+00
 -0.7900000      0.0000000E+00
 -0.7800000      0.0000000E+00
 -0.7700000      0.0000000E+00
 -0.7600000      0.0000000E+00
 -0.7500000      0.0000000E+00
 -0.7400000      0.0000000E+00
 -0.7300000      0.0000000E+00
 -0.7200000      0.0000000E+00
 -0.7100000      0.0000000E+00
 -0.7000000      0.0000000E+00
 -0.6900000      0.0000000E+00
 -0.6800000      0.0000000E+00
 -0.6700000      0.0000000E+00
 -0.6600000      0.0000000E+00
 -0.6500000      0.0000000E+00
 -0.6400000      0.0000000E+00
 -0.6300000      0.0000000E+00
 -0.6200000      0.0000000E+00
 -0.6100000      0.0000000E+00
 -0.6000000      0.0000000E+00
 -0.5900000      0.0000000E+00
 -0.5800000      0.0000000E+00
 -0.5700000      0.0000000E+00
 -0.5600000      0.0000000E+00
 -0.5500000      0.0000000E+00
 -0.5400000      0.0000000E+00
 -0.5300000      0.0000000E+00
 -0.5200000      0.0000000E+00
 -0.5100000      0.0000000E+00
 -0.5000000      0.0000000E+00
 -0.4900000      0.0000000E+00
 -0.4800000      0.0000000E+00
 -0.4700000      0.0000000E+00
 -0.4600000      0.0000000E+00
 -0.4500000      0.0000000E+00
 -0.4400000      0.0000000E+00
 -0.4300000      0.0000000E+00
 -0.4200000      0.0000000E+00
 -0.4100000      0.0000000E+00
 -0.4000000      0.0000000E+00
 -0.3900000      0.0000000E+00
 -0.3800000      0.0000000E+00
 -0.3700000      0.0000000E+00
 -0.3600000      0.0000000E+00
 -0.3500000      0.0000000E+00
 -0.3400000      0.0000000E+00
 -0.3300000      0.0000000E+00
 -0.3200000      0.0000000E+00
 -0.3100000      0.0000000E+00
 -0.3000000      0.0000000E+00
 -0.2900000      0.0000000E+00
 -0.2800000      0.0000000E+00
 -0.2700000      0.0000000E+00
 -0.2600000      0.0000000E+00
 -0.2500000      0.0000000E+00
 -0.2400000      0.0000000E+00
 -0.2300000      0.0000000E+00
 -0.2200000      0.0000000E+00
 -0.2100000      0.0000000E+00
 -0.2000000      0.0000000E+00
 -0.1900000      0.0000000E+00
 -0.1800000      0.0000000E+00
 -0.1700000      0.0000000E+00
 -0.1600000      0.0000000E+00
 -0.1500000      0.0000000E+00
 -0.1400000      0.0000000E+00
 -0.1300000      0.0000000E+00
 -0.1200000      0.0000000E+00
 -0.1100000      0.0000000E+00
 -0.1000000      0.0000000E+00
 -9.0000004E-02  0.0000000E+00
 -7.9999998E-02  0.0000000E+00
 -7.0000000E-02  0.0000000E+00
 -5.9999999E-02  0.0000000E+00
 -5.0000001E-02  0.0000000E+00
 -3.9999999E-02  0.0000000E+00
 -2.9999999E-02  0.0000000E+00
 -2.0000000E-02  0.0000000E+00
 -9.9999998E-03  0.0000000E+00
 -3.4694470E-17  0.0000000E+00
  9.9999998E-03  0.0000000E+00
  2.0000000E-02  0.0000000E+00
  2.9999999E-02  0.0000000E+00
  3.9999999E-02  0.0000000E+00
  5.0000001E-02  0.0000000E+00
  5.9999999E-02  0.0000000E+00
  7.0000000E-02  0.0000000E+00
  7.9999998E-02  0.0000000E+00
  9.0000004E-02  0.0000000E+00
  0.1000000      0.0000000E+00
  0.1100000      0.0000000E+00
  0.1200000      0.0000000E+00
  0.1300000      0.0000000E+00
  0.1400000      0.0000000E+00
  0.1500000      0.0000000E+00
  0.1600000      0.0000000E+00
  0.1700000      0.0000000E+00
  0.1800000      0.0000000E+00
  0.1900000      0.0000000E+00
  0.2000000      0.0000000E+00
  0.2100000      0.0000000E+00
  0.2200000      0.0000000E+00
  0.2300000      0.0000000E+00
  0.2400000      0.0000000E+00
  0.2500000      1.3325857E-38
  0.2600000      1.5213753E-38
  0.2700000      1.7087555E-38
  0.2800000      1.8745469E-38
  0.2900000      1.9441841E-38
  0.3000000      1.8966586E-38
  0.3100000      1.9555937E-38
  0.3200000      2.1445332E-38
  0.3300000      2.2877240E-38
  0.3400000      2.3736791E-38
  0.3500000      2.2997037E-38
  0.3600000      1.8944785E-38
  0.3700000      0.0000000E+00
  0.3800000      0.0000000E+00
  0.3900000     -4.0551904E-38
  0.4000000     -8.1257548E-38
  0.4100000     -1.3096608E-37
  0.4200000     -1.9209105E-37
  0.4300000     -2.6160561E-37
  0.4400000     -3.3726788E-37
  0.4500000     -4.2013583E-37
  0.4600000     -5.1513193E-37
  0.4700000     -6.2094862E-37
  0.4800000     -7.2458094E-37
  0.4900000     -8.2114323E-37
  0.5000000     -8.9622350E-37
  0.5100000     -9.4229533E-37
  0.5200000     -9.3860119E-37
  0.5300000     -8.7133402E-37
  0.5400000     -7.5341500E-37
  0.5500000     -5.8353014E-37
  0.5600000     -3.6463389E-37
  0.5700000     -9.4601368E-38
  0.5800000      2.2936698E-37
  0.5900000      5.9967485E-37
  0.6000000      1.0298379E-36
  0.6100000      1.5205779E-36
  0.6200000      2.0575515E-36
  0.6300000      2.6250872E-36
  0.6400000      3.2326565E-36
  0.6500000      3.8882783E-36
  0.6600000      4.5820675E-36
  0.6700000      5.3989173E-36
  0.6800000      6.3387442E-36
  0.6900000      7.4459517E-36
  0.7000000      8.5657120E-36
  0.7100000      9.7307478E-36
  0.7200000      1.1084001E-35
  0.7300000      1.2434304E-35
  0.7400000      1.3752443E-35
  0.7500000      1.5002506E-35
  0.7600000      1.5761419E-35
  0.7700000      1.6027802E-35
  0.7800000      1.6156706E-35
  0.7900000      1.5853765E-35
  0.8000000      1.5021937E-35
  0.8100000      1.3775597E-35
  0.8200000      1.1988828E-35
  0.8300000      9.6334438E-36
  0.8400000      6.5261295E-36
  0.8500000      2.6291416E-36
  0.8600000     -1.6202094E-36
  0.8700000     -6.1436010E-36
  0.8800000     -1.1039965E-35
  0.8900000     -1.6400134E-35
  0.9000000     -2.2241271E-35
  0.9100000     -2.8367577E-35
  0.9200000     -3.4617212E-35
  0.9300000     -4.0883478E-35
  0.9400000     -4.7488591E-35
  0.9500000     -5.4330499E-35
  0.9600000     -6.1301571E-35
  0.9700000     -6.8462949E-35
  0.9800000     -7.5331159E-35
  0.9900000     -8.1869910E-35
   1.000000     -8.7901401E-35
   1.010000     -9.3396413E-35
   1.020000     -9.8701416E-35
   1.030000     -1.0383317E-34
   1.040000     -1.0850490E-34
   1.050000     -1.1224666E-34
   1.060000     -1.1539616E-34
   1.070000     -1.1816928E-34
   1.080000     -1.1988692E-34
   1.090000     -1.2053067E-34
   1.100000     -1.2024941E-34
   1.110000     -1.1874059E-34
   1.120000     -1.1579282E-34
   1.130000     -1.1131030E-34
   1.140000     -1.0504426E-34
   1.150000     -9.7139995E-35
   1.160000     -8.7636772E-35
   1.170000     -7.6099891E-35
   1.180000     -6.2680424E-35
   1.190000     -4.7524904E-35
   1.200000     -3.0408690E-35
   1.210000     -1.1125413E-35
   1.220000      1.1654945E-35
   1.230000      3.7956093E-35
   1.240000      6.6726902E-35
   1.250000      9.7894217E-35
   1.260000      1.3171220E-34
   1.270000      1.6929816E-34
   1.280000      2.0803897E-34
   1.290000      2.4596239E-34
   1.300000      2.8444316E-34
   1.310000      3.2259401E-34
   1.320000      3.6288902E-34
   1.330000      4.0714496E-34
   1.340000      4.4902906E-34
   1.350000      4.8402325E-34
   1.360000      5.1382075E-34
   1.370000      5.3941576E-34
   1.380000      5.6077711E-34
   1.390000      5.7493061E-34
   1.400000      5.7880006E-34
   1.410000      5.7572527E-34
   1.420000      5.6717354E-34
   1.430000      5.5145801E-34
   1.440000      5.3225259E-34
   1.450000      5.1005618E-34
   1.460000      4.8142187E-34
   1.470000      4.4562871E-34
   1.480000      4.0283223E-34
   1.490000      3.5591005E-34
   1.500000      3.0804847E-34
   1.510000      2.5692730E-34
   1.520000      1.9869820E-34
   1.530000      1.3462192E-34
   1.540000      6.6779340E-35
   1.550000     -7.4221089E-36
   1.560000     -8.8411473E-35
   1.570000     -1.7503617E-34
   1.580000     -2.6804628E-34
   1.590000     -3.6568461E-34
   1.600000     -4.6544925E-34
   1.610000     -5.6654135E-34
   1.620000     -6.7194692E-34
   1.630000     -7.8181551E-34
   1.640000     -8.9290643E-34
   1.650000     -1.0017547E-33
   1.660000     -1.1054937E-33
   1.670000     -1.1996570E-33
   1.680000     -1.2834726E-33
   1.690000     -1.3572115E-33
   1.700000     -1.4153222E-33
   1.710000     -1.4547966E-33
   1.720000     -1.4722832E-33
   1.730000     -1.4654957E-33
   1.740000     -1.4298049E-33
   1.750000     -1.3595787E-33
   1.760000     -1.2539132E-33
   1.770000     -1.1086910E-33
   1.780000     -9.2256397E-34
   1.790000     -6.9613855E-34
   1.800000     -4.2839656E-34
   1.810000     -1.1971699E-34
   1.820000      2.3047442E-34
   1.830000      6.2173412E-34
   1.840000      1.0536376E-33
   1.850000      1.5225722E-33
   1.860000      2.0225780E-33
   1.870000      2.5538416E-33
   1.880000      3.1126694E-33
   1.890000      3.6919089E-33
   1.900000      4.2876215E-33
   1.910000      4.8934280E-33
   1.920000      5.5025486E-33
   1.930000      6.1090100E-33
   1.940000      6.7066567E-33
   1.950000      7.2868851E-33
   1.960000      7.8442516E-33
   1.970000      8.3709010E-33
   1.980000      8.8558049E-33
   1.990000      9.2923622E-33
   2.000000      9.6729931E-33
   2.010000      9.9886339E-33
   2.020000      1.0230831E-32
   2.030000      1.0390937E-32
   2.040000      1.0458191E-32
   2.050000      1.0422581E-32
   2.060000      1.0274555E-32
   2.070000      1.0003548E-32
   2.080000      9.5983669E-33
   2.090000      9.0473106E-33
   2.100000      8.3392126E-33
   2.110000      7.4630542E-33
   2.120000      6.4096313E-33
   2.130000      5.1662268E-33
   2.140000      3.7213010E-33
   2.150000      2.0684337E-33
   2.160000      2.0093398E-34
   2.170000     -1.8858845E-33
   2.180000     -4.1943376E-33
   2.190000     -6.7238938E-33
   2.200000     -9.4708713E-33
   2.210000     -1.2427576E-32
   2.220000     -1.5582374E-32
   2.230000     -1.8919423E-32
   2.240000     -2.2418305E-32
   2.250000     -2.6053707E-32
   2.260000     -2.9796199E-32
   2.270000     -3.3611601E-32
   2.280000     -3.7460616E-32
   2.290000     -4.1300077E-32
   2.300000     -4.5082589E-32
   2.310000     -4.8756946E-32
   2.320000     -5.2269326E-32
   2.330000     -5.5562685E-32
   2.340000     -5.8577317E-32
   2.350000     -6.1251384E-32
   2.360000     -6.3522480E-32
   2.370000     -6.5327358E-32
   2.380000     -6.6601165E-32
   2.390000     -6.7279014E-32
   2.400000     -6.7296058E-32
   2.410000     -6.6587829E-32
   2.420000     -6.5090114E-32
   2.430000     -6.2739266E-32
   2.440000     -5.9472350E-32
   2.450000     -5.5227205E-32
   2.460000     -4.9942846E-32
   2.470000     -4.3559712E-32
   2.480000     -3.6020118E-32
   2.490000     -2.7268874E-32
   2.500000     -1.7254126E-32
   2.510000     -5.9283651E-33
   2.520000      6.7503241E-33
   2.530000      2.0816794E-32
   2.540000      3.6297158E-32
   2.550000      5.3206548E-32
   2.560000      7.1547151E-32
   2.570000      9.1306230E-32
   2.580000      1.1245344E-31
   2.590000      1.3493848E-31
   2.600000      1.5868876E-31
   2.610000      1.8360716E-31
   2.620000      2.0956993E-31
   2.630000      2.3642509E-31
   2.640000      2.6399090E-31
   2.650000      2.9205484E-31
   2.660000      3.2037311E-31
   2.670000      3.4867048E-31
   2.680000      3.7664087E-31
   2.690000      4.0394834E-31
   2.700000      4.3022830E-31
   2.710000      4.5508949E-31
   2.720000      4.7811690E-31
   2.730000      4.9887369E-31
   2.740000      5.1690399E-31
   2.750000      5.3173666E-31
   2.760000      5.4288787E-31
   2.770000      5.4986447E-31
   2.780000      5.5216694E-31
   2.790000      5.4929234E-31
   2.800000      5.4073704E-31
   2.810000      5.2599921E-31
   2.820000      5.0458128E-31
   2.830000      4.7599194E-31
   2.840000      4.3974872E-31
   2.850000      3.9537988E-31
   2.860000      3.4242712E-31
   2.870000      2.8044817E-31
   2.880000      2.0902006E-31
   2.890000      1.2774283E-31
   2.900000      3.6244411E-32
   2.910000     -6.5814189E-32
   2.920000     -1.7873224E-31
   2.930000     -3.0276162E-31
   2.940000     -4.3809861E-31
   2.950000     -5.8487399E-31
   2.960000     -7.4314250E-31
   2.970000     -9.1287152E-31
   2.980000     -1.0939293E-30
   2.990000     -1.2860728E-30
   3.000000     -1.4889348E-30
   3.010000     -1.7020128E-30
   3.020000     -1.9246565E-30
   3.030000     -2.1560586E-30
   3.040000     -2.3952452E-30
   3.050000     -2.6410682E-30
   3.060000     -2.8921993E-30
   3.070000     -3.1471271E-30
   3.080000     -3.4041564E-30
   3.090000     -3.6614069E-30
   3.100000     -3.9168190E-30
   3.110000     -4.1681578E-30
   3.120000     -4.4130206E-30
   3.130000     -4.6488466E-30
   3.140000     -4.8729278E-30
   3.150000     -5.0824200E-30
   3.160000     -5.2743551E-30
   3.170000     -5.4456553E-30
   3.180000     -5.5931451E-30
   3.190000     -5.7135661E-30
   3.200000     -5.8035886E-30
   3.210000     -5.8598239E-30
   3.220000     -5.8788365E-30
   3.230000     -5.8571570E-30
   3.240000     -5.7912932E-30
   3.250000     -5.6777434E-30
   3.260000     -5.5130087E-30
   3.270000     -5.2936080E-30
   3.280000     -5.0160966E-30
   3.290000     -4.6770840E-30
   3.300000     -4.2732571E-30
   3.310000     -3.8014084E-30
   3.320000     -3.2584651E-30
   3.330000     -2.6415290E-30
   3.340000     -1.9479141E-30
   3.350000     -1.1751933E-30
   3.360000     -3.2124953E-31
   3.370000      6.1566945E-31
   3.380000      1.6368915E-30
   3.390000      2.7432606E-30
   3.400000      3.9350736E-30
   3.410000      5.2120163E-30
   3.420000      6.5731019E-30
   3.430000      8.0166104E-30
   3.440000      9.5400323E-30
   3.450000      1.1140019E-29
   3.460000      1.2812333E-29
   3.470000      1.4551818E-29
   3.480000      1.6352358E-29
   3.490000      1.8206864E-29
   3.500000      2.0107262E-29
   3.510000      2.2044483E-29
   3.520000      2.4008468E-29
   3.530000      2.5988180E-29
   3.540000      2.7971626E-29
   3.550000      2.9945875E-29
   3.560000      3.1897086E-29
   3.570000      3.3810537E-29
   3.580000      3.5670666E-29
   3.590000      3.7461095E-29
   3.600000      3.9164673E-29
   3.610000      4.0763496E-29
   3.620000      4.2238948E-29
   3.630000      4.3571737E-29
   3.640000      4.4741923E-29
   3.650000      4.5728956E-29
   3.660000      4.6511723E-29
   3.670000      4.7068581E-29
   3.680000      4.7377425E-29
   3.690000      4.7415745E-29
   3.700000      4.7160713E-29
   3.710000      4.6589275E-29
   3.720000      4.5678265E-29
   3.730000      4.4404542E-29
   3.740000      4.2745154E-29
   3.750000      4.0677500E-29
   3.760000      3.8179539E-29
   3.770000      3.5230028E-29
   3.780000      3.1808755E-29
   3.790000      2.7896791E-29
   3.800000      2.3476805E-29
   3.810000      1.8533307E-29
   3.820000      1.3052980E-29
   3.830000      7.0249649E-30
   3.840000      4.4115673E-31
   3.850000     -6.7035024E-30
   3.860000     -1.4410747E-29
   3.870000     -2.2678722E-29
   3.880000     -3.1501735E-29
   3.890000     -4.0870042E-29
   3.900000     -5.0769650E-29
   3.910000     -6.1182124E-29
   3.920000     -7.2084440E-29
   3.930000     -8.3448853E-29
   3.940000     -9.5242803E-29
   3.950000     -1.0742878E-28
   3.960000     -1.1996424E-28
   3.970000     -1.3280157E-28
   3.980000     -1.4588798E-28
   3.990000     -1.5916543E-28
   4.000000     -1.7257062E-28
   4.010000     -1.8603479E-28
   4.020000     -1.9948382E-28
   4.030000     -2.1283796E-28
   4.040000     -2.2601190E-28
   4.050000     -2.3891467E-28
   4.060000     -2.5144951E-28
   4.070000     -2.6351392E-28
   4.080000     -2.7499952E-28
   4.090000     -2.8579221E-28
   4.100000     -2.9577216E-28
   4.110000     -3.0481400E-28
   4.120000     -3.1278684E-28
   4.130000     -3.1955485E-28
   4.140000     -3.2497723E-28
   4.150000     -3.2890899E-28
   4.160000     -3.3120133E-28
   4.170000     -3.3170219E-28
   4.180000     -3.3025719E-28
   4.190000     -3.2671033E-28
   4.200000     -3.2090480E-28
   4.210000     -3.1268433E-28
   4.220000     -3.0189376E-28
   4.230000     -2.8838052E-28
   4.240000     -2.7199562E-28
   4.250000     -2.5259493E-28
   4.260000     -2.3004029E-28
   4.270000     -2.0420077E-28
   4.280000     -1.7495387E-28
   4.290000     -1.4218681E-28
   4.300000     -1.0579756E-28
   4.310000     -6.5695980E-29
   4.320000     -2.1805078E-29
   4.330000      2.5937880E-29
   4.340000      7.7580256E-29
   4.350000      1.3315309E-28
   4.360000      1.9266988E-28
   4.370000      2.5612538E-28
   4.380000      3.2349458E-28
   4.390000      3.9473131E-28
   4.400000      4.6976715E-28
   4.410000      5.4851000E-28
   4.420000      6.3084269E-28
   4.430000      7.1662154E-28
   4.440000      8.0567480E-28
   4.450000      8.9780113E-28
   4.460000      9.9276787E-28
   4.470000      1.0903097E-27
   4.480000      1.1901263E-27
   4.490000      1.2918820E-27
   4.500000      1.3952031E-27
   4.510000      1.4996770E-27
   4.520000      1.6048509E-27
   4.530000      1.7102310E-27
   4.540000      1.8152808E-27
   4.550000      1.9194218E-27
   4.560000      2.0220317E-27
   4.570000      2.1224459E-27
   4.580000      2.2199563E-27
   4.590000      2.3138130E-27
   4.600000      2.4032247E-27
   4.610000      2.4873601E-27
   4.620000      2.5653489E-27
   4.630000      2.6362844E-27
   4.640000      2.6992249E-27
   4.650000      2.7531962E-27
   4.660000      2.7971937E-27
   4.670000      2.8301853E-27
   4.680000      2.8511138E-27
   4.690000      2.8589005E-27
   4.700000      2.8524480E-27
   4.710000      2.8306425E-27
   4.720000      2.7923584E-27
   4.730000      2.7364608E-27
   4.740000      2.6618097E-27
   4.750000      2.5672627E-27
   4.760000      2.4516809E-27
   4.770000      2.3139322E-27
   4.780000      2.1528966E-27
   4.790000      1.9674703E-27
   4.800000      1.7565721E-27
   4.810000      1.5191504E-27
   4.820000      1.2541890E-27
   4.830000      9.6071452E-28
   4.840000      6.3780333E-28
   4.850000      2.8459192E-28
   4.860000     -9.9714680E-29
   4.870000     -5.1583443E-28
   4.880000     -9.6439623E-28
   4.890000     -1.4459298E-27
   4.900000     -1.9608559E-27
   4.910000     -2.5094754E-27
   4.920000     -3.0919540E-27
   4.930000     -3.7083153E-27
   4.940000     -4.3584284E-27
   4.950000     -5.0419921E-27
   4.960000     -5.7585286E-27
   4.970000     -6.5073722E-27
   4.980000     -7.2876550E-27
   4.990000     -8.0982989E-27
   5.000000     -8.9380051E-27
   5.010000     -9.8052460E-27
   5.020000     -1.0698253E-26
   5.030000     -1.1615008E-26
   5.040000     -1.2553238E-26
   5.050000     -1.3510406E-26
   5.060000     -1.4483702E-26
   5.070000     -1.5470031E-26
   5.080000     -1.6466015E-26
   5.090000     -1.7467977E-26
   5.100000     -1.8471939E-26
   5.110000     -1.9473614E-26
   5.120000     -2.0468394E-26
   5.130000     -2.1451350E-26
   5.140000     -2.2417228E-26
   5.150000     -2.3360435E-26
   5.160000     -2.4275045E-26
   5.170000     -2.5154785E-26
   5.180000     -2.5993047E-26
   5.190000     -2.6782866E-26
   5.200000     -2.7516941E-26
   5.210000     -2.8187630E-26
   5.220000     -2.8786955E-26
   5.230000     -2.9306605E-26
   5.240000     -2.9737948E-26
   5.250000     -3.0072056E-26
   5.260000     -3.0299694E-26
   5.270000     -3.0411364E-26
   5.280000     -3.0397310E-26
   5.290000     -3.0247556E-26
   5.300000     -2.9951912E-26
   5.310000     -2.9500017E-26
   5.320000     -2.8881384E-26
   5.330000     -2.8085414E-26
   5.340000     -2.7101440E-26
   5.350000     -2.5918780E-26
   5.360000     -2.4526755E-26
   5.370000     -2.2914767E-26
   5.380000     -2.1072325E-26
   5.390000     -1.8989098E-26
   5.400000     -1.6654974E-26
   5.410000     -1.4060105E-26
   5.420000     -1.1194981E-26
   5.430000     -8.0504727E-27
   5.440000     -4.6178970E-27
   5.450000     -8.8909805E-28
   5.460000      3.1435015E-27
   5.470000      7.4868239E-27
   5.480000      1.2147058E-26
   5.490000      1.7129581E-26
   5.500000      2.2438874E-26
   5.510000      2.8078428E-26
   5.520000      3.4050669E-26
   5.530000      4.0356854E-26
   5.540000      4.6996968E-26
   5.550000      5.3969629E-26
   5.560000      6.1271985E-26
   5.570000      6.8899611E-26
   5.580000      7.6846380E-26
   5.590000      8.5104379E-26
   5.600000      9.3663785E-26
   5.610000      1.0251275E-25
   5.620000      1.1163728E-25
   5.630000      1.2102119E-25
   5.640000      1.3064592E-25
   5.650000      1.4049046E-25
   5.660000      1.5053126E-25
   5.670000      1.6074217E-25
   5.680000      1.7109423E-25
   5.690000      1.8155576E-25
   5.700000      1.9209214E-25
   5.710000      2.0266580E-25
   5.720000      2.1323618E-25
   5.730000      2.2375958E-25
   5.740000      2.3418921E-25
   5.750000      2.4447512E-25
   5.760000      2.5456413E-25
   5.770000      2.6439982E-25
   5.780000      2.7392258E-25
   5.790000      2.8306955E-25
   5.800000      2.9177453E-25
   5.810000      2.9996823E-25
   5.820000      3.0757810E-25
   5.830000      3.1452843E-25
   5.840000      3.2074051E-25
   5.850000      3.2613253E-25
   5.860000      3.3061977E-25
   5.870000      3.3411471E-25
   5.880000      3.3652720E-25
   5.890000      3.3776455E-25
   5.900000      3.3773169E-25
   5.910000      3.3633146E-25
   5.920000      3.3346479E-25
   5.930000      3.2903097E-25
   5.940000      3.2292793E-25
   5.950000      3.1505253E-25
   5.960000      3.0530103E-25
   5.970000      2.9356924E-25
   5.980000      2.7975318E-25
   5.990000      2.6374928E-25
   6.000000      2.4545511E-25
   6.010000      2.2476960E-25
   6.020000      2.0159382E-25
   6.030000      1.7583140E-25
   6.040000      1.4738913E-25
   6.050000      1.1617752E-25
   6.060000      8.2111552E-26
   6.070000      4.5111288E-26
   6.080000      5.1025923E-27
   6.090000     -3.7982183E-26
   6.100000     -8.4203463E-26
   6.110000     -1.3361376E-25
   6.120000     -1.8625679E-25
   6.130000     -2.4216664E-25
   6.140000     -3.0136703E-25
   6.150000     -3.6387055E-25
   6.160000     -4.2967760E-25
   6.170000     -4.9877565E-25
   6.180000     -5.7113820E-25
   6.190000     -6.4672410E-25
   6.200000     -7.2547652E-25
   6.210000     -8.0732198E-25
   6.220000     -8.9216954E-25
   6.230000     -9.7990951E-25
   6.240000     -1.0704132E-24
   6.250000     -1.1635313E-24
   6.260000     -1.2590934E-24
   6.270000     -1.3569069E-24
   6.280000     -1.4567561E-24
   6.290000     -1.5584017E-24
   6.300000     -1.6615795E-24
   6.310000     -1.7660004E-24
   6.320000     -1.8713485E-24
   6.330000     -1.9772818E-24
   6.340000     -2.0834306E-24
   6.350000     -2.1893975E-24
   6.360000     -2.2947569E-24
   6.370000     -2.3990548E-24
   6.380000     -2.5018079E-24
   6.390000     -2.6025040E-24
   6.400000     -2.7006022E-24
   6.410000     -2.7955325E-24
   6.420000     -2.8866959E-24
   6.430000     -2.9734652E-24
   6.440000     -3.0551853E-24
   6.450000     -3.1311735E-24
   6.460000     -3.2007209E-24
   6.470000     -3.2630922E-24
   6.480000     -3.3175273E-24
   6.490000     -3.3632438E-24
   6.500000     -3.3994355E-24
   6.510000     -3.4252763E-24
   6.520000     -3.4399211E-24
   6.530000     -3.4425089E-24
   6.540000     -3.4321622E-24
   6.550000     -3.4079919E-24
   6.560000     -3.3690987E-24
   6.570000     -3.3145762E-24
   6.580000     -3.2435134E-24
   6.590000     -3.1549985E-24
   6.600000     -3.0481224E-24
   6.610000     -2.9219822E-24
   6.620000     -2.7756840E-24
   6.630000     -2.6083489E-24
   6.640000     -2.4191157E-24
   6.650000     -2.2071472E-24
   6.660000     -1.9716344E-24
   6.670000     -1.7118013E-24
   6.680000     -1.4269103E-24
   6.690000     -1.1162680E-24
   6.700000     -7.7923049E-25
   6.710000     -4.1520964E-25
   6.720000     -2.3679318E-26
   6.730000      3.9581813E-25
   6.740000      8.4366682E-25
   6.750000      1.3201688E-24
   6.760000      1.8255379E-24
   6.770000      2.3598940E-24
   6.780000      2.9232540E-24
   6.790000      3.5155283E-24
   6.800000      4.1365101E-24
   6.810000      4.7858704E-24
   6.820000      5.4631501E-24
   6.830000      6.1677532E-24
   6.840000      6.8989428E-24
   6.850000      7.6558280E-24
   6.860000      8.4373636E-24
   6.870000      9.2423401E-24
   6.880000      1.0069378E-23
   6.890000      1.0916919E-23
   6.900000      1.1783225E-23
   6.910000      1.2666368E-23
   6.920000      1.3564230E-23
   6.930000      1.4474490E-23
   6.940000      1.5394628E-23
   6.950000      1.6321914E-23
   6.960000      1.7253412E-23
   6.970000      1.8185967E-23
   6.980000      1.9116212E-23
   6.990000      2.0040558E-23
   7.000000      2.0955200E-23
   7.010000      2.1856116E-23
   7.020000      2.2739058E-23
   7.030000      2.3599569E-23
   7.040000      2.4432972E-23
   7.050000      2.5234379E-23
   7.060000      2.5998694E-23