  -2.600000      0.0000000E+00
  -2.590000      0.0000000E+00
  -2.580000      0.0000000E+00
  -2.570000      0.0000000E+00
  -2.560000      0.0000000E+00
  -2.550000      0.0000000E+00
  -2.540000      0.0000000E+00
  -2.530000      0.0000000E+00
  -2.520000      0.0000000E+00
  -2.510000      0.0000000E+00
  -2.500000      0.0000000E+00
  -2.490000      0.0000000E+00
  -2.480000      0.0000000E+00
  -2.470000      0.0000000E+00
  -2.460000      0.0000000E+00
  -2.450000      0.0000000E+00
  -2.440000      0.0000000E+00
  -2.430000      0.0000000E+00
  -2.420000      0.0000000E+00
  -2.410000      0.0000000E+00
  -2.400000      0.0000000E+00
  -2.390000      0.0000000E+00
  -2.380000      0.0000000E+00
  -2.370000      0.0000000E+00
  -2.360000      0.0000000E+00
  -2.350000      0.0000000E+00
  -2.340000      0.0000000E+00
  -2.330000      0.0000000E+00
  -2.320000      0.0000000E+00
  -2.310000      0.0000000E+00
  -2.300000      0.0000000E+00
  -2.290000      0.0000000E+00
  -2.280000      0.0000000E+00
  -2.270000      0.0000000E+00
  -2.260000      0.0000000E+00
  -2.250000      0.0000000E+00
  -2.240000      0.0000000E+00
  -2.230000      0.0000000E+00
  -2.220000      0.0000000E+00
  -2.210000      0.0000000E+00
  -2.200000      0.0000000E+00
  -2.190000      0.0000000E+00
  -2.180000      0.0000000E+00
  -2.170000      0.0000000E+00
  -2.160000      0.0000000E+00
  -2.150000      0.0000000E+00
  -2.140000      0.0000000E+00
  -2.130000      0.0000000E+00
  -2.120000      0.0000000E+00
  -2.110000      0.0000000E+00
  -2.100000      0.0000000E+00
  -2.090000      0.0000000E+00
  -2.080000      0.0000000E+00
  -2.070000      0.0000000E+00
  -2.060000      0.0000000E+00
  -2.050000      0.0000000E+00
  -2.040000      0.0000000E+00
  -2.030000      0.0000000E+00
  -2.020000      0.0000000E+00
  -2.010000      0.0000000E+00
  -2.000000      0.0000000E+00
  -1.990000      0.0000000E+00
  -1.980000      0.0000000E+00
  -1.970000      0.0000000E+00
  -1.960000      0.0000000E+00
  -1.950000      0.0000000E+00
  -1.940000      0.0000000E+00
  -1.930000      0.0000000E+00
  -1.920000      0.0000000E+00
  -1.910000      0.0000000E+00
  -1.900000      0.0000000E+00
  -1.890000      0.0000000E+00
  -1.880000      0.0000000E+00
  -1.870000      0.0000000E+00
  -1.860000      0.0000000E+00
  -1.850000      0.0000000E+00
  -1.840000      0.0000000E+00
  -1.830000      0.0000000E+00
  -1.820000      0.0000000E+00
  -1.810000      0.0000000E+00
  -1.800000      0.0000000E+00
  -1.790000      0.0000000E+00
  -1.780000      0.0000000E+00
  -1.770000      0.0000000E+00
  -1.760000      0.0000000E+00
  -1.750000      0.0000000E+00
  -1.740000      0.0000000E+00
  -1.730000      0.0000000E+00
  -1.720000      0.0000000E+00
  -1.710000      0.0000000E+00
  -1.700000      0.0000000E+00
  -1.690000      0.0000000E+00
  -1.680000      0.0000000E+00
  -1.670000      0.0000000E+00
  -1.660000      0.0000000E+00
  -1.650000      0.0000000E+00
  -1.640000      0.0000000E+00
  -1.630000      0.0000000E+00
  -1.620000      0.0000000E+00
  -1.610000      0.0000000E+00
  -1.600000      0.0000000E+00
  -1.590000      0.0000000E+00
  -1.580000      0.0000000E+00
  -1.570000      0.0000000E+00
  -1.560000      0.0000000E+00
  -1.550000      0.0000000E+00
  -1.540000      0.0000000E+00
  -1.530000      0.0000000E+00
  -1.520000      0.0000000E+00
  -1.510000      0.0000000E+00
  -1.500000      0.0000000E+00
  -1.490000      0.0000000E+00
  -1.480000      0.0000000E+00
  -1.470000      0.0000000E+00
  -1.460000      0.0000000E+00
  -1.450000      0.0000000E+00
  -1.440000      0.0000000E+00
  -1.430000      0.0000000E+00
  -1.420000      0.0000000E+00
  -1.410000      0.0000000E+00
  -1.400000      0.0000000E+00
  -1.390000      0.0000000E+00
  -1.380000      0.0000000E+00
  -1.370000      0.0000000E+00
  -1.360000      0.0000000E+00
  -1.350000      0.0000000E+00
  -1.340000      0.0000000E+00
  -1.330000      0.0000000E+00
  -1.320000      0.0000000E+00
  -1.310000      0.0000000E+00
  -1.300000      0.0000000E+00
  -1.290000      0.0000000E+00
  -1.280000      0.0000000E+00
  -1.270000      0.0000000E+00
  -1.260000      0.0000000E+00
  -1.250000      0.0000000E+00
  -1.240000      0.0000000E+00
  -1.230000      0.0000000E+00
  -1.220000      0.0000000E+00
  -1.210000      0.0000000E+00
  -1.200000      0.0000000E+00
  -1.190000      0.0000000E+00
  -1.180000      0.0000000E+00
  -1.170000      0.0000000E+00
  -1.160000      0.0000000E+00
  -1.150000      0.0000000E+00
  -1.140000      0.0000000E+00
  -1.130000      0.0000000E+00
  -1.120000      0.0000000E+00
  -1.110000      0.0000000E+00
  -1.100000      0.0000000E+00
  -1.090000      0.0000000E+00
  -1.080000      0.0000000E+00
  -1.070000      0.0000000E+00
  -1.060000      0.0000000E+00
  -1.050000      0.0000000E+00
  -1.040000      0.0000000E+00
  -1.030000      0.0000000E+00
  -1.020000      0.0000000E+00
  -1.010000      0.0000000E+00
  -1.000000      0.0000000E+00
 -0.9900000      0.0000000E+00
 -0.9800000      0.0000000E+00
 -0.9700000      0.0000000E+00
 -0.9600000      0.0000000E+00
 -0.9500000      0.0000000E+00
 -0.9400000      0.0000000E+00
 -0.9300000      0.0000000E+00
 -0.9200000      0.0000000E+00
 -0.9100000      0.0000000E+00
 -0.9000000      0.0000000E+00
 -0.8900000      0.0000000E+00
 -0.8800000      0.0000000E+00
 -0.8700000      0.0000000E+00
 -0.8600000      0.0000000E+00
 -0.8500000      0.0000000E+00
 -0.8400000      0.0000000E+00
 -0.8300000      0.0000000E+00
 -0.8200000      0.0000000E+00
 -0.8100000      0.0000000E+00
 -0.8000000      0.0000000E+00
 -0.7900000      0.0000000E+00
 -0.7800000      0.0000000E+00
 -0.7700000      0.0000000E+00
 -0.7600000      0.0000000E+00
 -0.7500000      0.0000000E+00
 -0.7400000      0.0000000E+00
 -0.7300000      0.0000000E+00
 -0.7200000      0.0000000E+00
 -0.7100000      0.0000000E+00
 -0.7000000      0.0000000E+00
 -0.6900000      0.0000000E+00
 -0.6800000      0.0000000E+00
 -0.6700000      0.0000000E+00
 -0.6600000      0.0000000E+00
 -0.6500000      0.0000000E+00
 -0.6400000      0.0000000E+00
 -0.6300000      0.0000000E+00
 -0.6200000      0.0000000E+00
 -0.6100000      0.0000000E+00
 -0.6000000      0.0000000E+00
 -0.5900000      0.0000000E+00
 -0.5800000      0.0000000E+00
 -0.5700000      0.0000000E+00
 -0.5600000      0.0000000E+00
 -0.5500000      0.0000000E+00
 -0.5400000      0.0000000E+00
 -0.5300000      0.0000000E+00
 -0.5200000      0.0000000E+00
 -0.5100000      0.0000000E+00
 -0.5000000      0.0000000E+00
 -0.4900000      0.0000000E+00
 -0.4800000      0.0000000E+00
 -0.4700000      0.0000000E+00
 -0.4600000      0.0000000E+00
 -0.4500000      0.0000000E+00
 -0.4400000      0.0000000E+00
 -0.4300000      0.0000000E+00
 -0.4200000      0.0000000E+00
 -0.4100000      0.0000000E+00
 -0.4000000      0.0000000E+00
 -0.3900000      0.0000000E+00
 -0.3800000      0.0000000E+00
 -0.3700000      0.0000000E+00
 -0.3600000      0.0000000E+00
 -0.3500000      0.0000000E+00
 -0.3400000      0.0000000E+00
 -0.3300000      0.0000000E+00
 -0.3200000      0.0000000E+00
 -0.3100000      0.0000000E+00
 -0.3000000      0.0000000E+00
 -0.2900000      0.0000000E+00
 -0.2800000      0.0000000E+00
 -0.2700000      0.0000000E+00
 -0.2600000      0.0000000E+00
 -0.2500000      0.0000000E+00
 -0.2400000      0.0000000E+00
 -0.2300000      0.0000000E+00
 -0.2200000      0.0000000E+00
 -0.2100000      0.0000000E+00
 -0.2000000      0.0000000E+00
 -0.1900000      0.0000000E+00
 -0.1800000      0.0000000E+00
 -0.1700000      0.0000000E+00
 -0.1600000      0.0000000E+00
 -0.1500000      0.0000000E+00
 -0.1400000      0.0000000E+00
 -0.1300000      0.0000000E+00
 -0.1200000      0.0000000E+00
 -0.1100000      0.0000000E+00
 -0.1000000      0.0000000E+00
 -9.0000004E-02  0.0000000E+00
 -7.9999998E-02  0.0000000E+00
 -7.0000000E-02  0.0000000E+00
 -5.9999999E-02  0.0000000E+00
 -5.0000001E-02  0.0000000E+00
 -3.9999999E-02  0.0000000E+00
 -2.9999999E-02  0.0000000E+00
 -2.0000000E-02  0.0000000E+00
 -9.9999998E-03  0.0000000E+00
 -3.4694470E-17  0.0000000E+00
  9.9999998E-03  0.0000000E+00
  2.0000000E-02  0.0000000E+00
  2.9999999E-02  0.0000000E+00
  3.9999999E-02  0.0000000E+00
  5.0000001E-02  0.0000000E+00
  5.9999999E-02  0.0000000E+00
  7.0000000E-02  0.0000000E+00
  7.9999998E-02  0.0000000E+00
  9.0000004E-02  0.0000000E+00
  0.1000000      0.0000000E+00
  0.1100000      0.0000000E+00
  0.1200000      0.0000000E+00
  0.1300000      0.0000000E+00
  0.1400000      0.0000000E+00
  0.1500000      0.0000000E+00
  0.1600000      0.0000000E+00
  0.1700000      0.0000000E+00
  0.1800000      0.0000000E+00
  0.1900000      0.0000000E+00
  0.2000000      0.0000000E+00
  0.2100000      0.0000000E+00
  0.2200000      0.0000000E+00
  0.2300000      0.0000000E+00
  0.2400000      0.0000000E+00
  0.2500000      0.0000000E+00
  0.2600000      0.0000000E+00
  0.2700000      0.0000000E+00
  0.2800000      0.0000000E+00
  0.2900000      0.0000000E+00
  0.3000000      0.0000000E+00
  0.3100000      0.0000000E+00
  0.3200000      0.0000000E+00
  0.3300000      0.0000000E+00
  0.3400000      0.0000000E+00
  0.3500000      0.0000000E+00
  0.3600000      0.0000000E+00
  0.3700000      0.0000000E+00
  0.3800000      0.0000000E+00
  0.3900000      0.0000000E+00
  0.4000000      0.0000000E+00
  0.4100000      0.0000000E+00
  0.4200000      0.0000000E+00
  0.4300000      0.0000000E+00
  0.4400000      1.4282977E-38
  0.4500000      1.9024513E-38
  0.4600000      2.1688774E-38
  0.4700000      2.0901988E-38
  0.4800000      1.8393055E-38
  0.4900000      1.7069999E-38
  0.5000000      1.6776973E-38
  0.5100000      1.3473112E-38
  0.5200000      0.0000000E+00
  0.5300000      0.0000000E+00
  0.5400000      0.0000000E+00
  0.5500000     -1.6211112E-38
  0.5600000      0.0000000E+00
  0.5700000      0.0000000E+00
  0.5800000      1.6762238E-38
  0.5900000      3.2233421E-38
  0.6000000      4.8063192E-38
  0.6100000      6.7934624E-38
  0.6200000      8.3679536E-38
  0.6300000      9.2317089E-38
  0.6400000      7.8754745E-38
  0.6500000      4.1938730E-38
  0.6600000      0.0000000E+00
  0.6700000     -3.9410651E-38
  0.6800000     -9.7917356E-38
  0.6900000     -1.8135055E-37
  0.7000000     -2.9356091E-37
  0.7100000     -4.2643095E-37
  0.7200000     -6.0426335E-37
  0.7300000     -8.0895135E-37
  0.7400000     -1.0100238E-36
  0.7500000     -1.1706556E-36
  0.7600000     -1.2308030E-36
  0.7700000     -1.2078982E-36
  0.7800000     -1.1014886E-36
  0.7900000     -9.1414586E-37
  0.8000000     -6.2688367E-37
  0.8100000     -2.5138743E-37
  0.8200000      1.6583301E-37
  0.8300000      6.1269231E-37
  0.8400000      1.0535961E-36
  0.8500000      1.4413760E-36
  0.8600000      1.8047905E-36
  0.8700000      2.1511547E-36
  0.8800000      2.4703140E-36
  0.8900000      2.7683143E-36
  0.9000000      3.0775589E-36
  0.9100000      3.3986785E-36
  0.9200000      3.6976339E-36
  0.9300000      4.0074951E-36
  0.9400000      4.3020378E-36
  0.9500000      4.7165129E-36
  0.9600000      5.2191946E-36
  0.9700000      5.5524096E-36
  0.9800000      5.9171522E-36
  0.9900000      5.9272882E-36
   1.000000      4.9121110E-36
   1.010000      3.3294712E-36
   1.020000      1.5541861E-36
   1.030000     -5.0482613E-37
   1.040000     -2.7685060E-36
   1.050000     -5.2555682E-36
   1.060000     -7.0759573E-36
   1.070000     -7.9134231E-36
   1.080000     -8.7427127E-36
   1.090000     -9.8159697E-36
   1.100000     -1.0934499E-35
   1.110000     -1.2578345E-35
   1.120000     -1.4973918E-35
   1.130000     -1.7181170E-35
   1.140000     -1.8650095E-35
   1.150000     -1.9850109E-35
   1.160000     -2.1446764E-35
   1.170000     -2.3846808E-35
   1.180000     -2.6554340E-35
   1.190000     -2.8657941E-35
   1.200000     -3.0131846E-35
   1.210000     -3.1072859E-35
   1.220000     -3.0784731E-35
   1.230000     -2.9394258E-35
   1.240000     -2.7907022E-35
   1.250000     -2.6075036E-35
   1.260000     -2.3537326E-35
   1.270000     -2.0316887E-35
   1.280000     -1.5477904E-35
   1.290000     -7.8066335E-36
   1.300000      2.5717851E-36
   1.310000      1.4512435E-35
   1.320000      2.8195983E-35
   1.330000      4.3938957E-35
   1.340000      6.1281580E-35
   1.350000      7.9639088E-35
   1.360000      9.8843096E-35
   1.370000      1.1843360E-34
   1.380000      1.3758958E-34
   1.390000      1.5732503E-34
   1.400000      1.7728410E-34
   1.410000      1.9360486E-34
   1.420000      2.0386399E-34
   1.430000      2.0947606E-34
   1.440000      2.1191697E-34
   1.450000      2.1303693E-34
   1.460000      2.1425348E-34
   1.470000      2.1295058E-34
   1.480000      2.0969871E-34
   1.490000      2.0313061E-34
   1.500000      1.8952821E-34
   1.510000      1.6877927E-34
   1.520000      1.4422871E-34
   1.530000      1.1959339E-34
   1.540000      8.7098725E-35
   1.550000      3.9768262E-35
   1.560000     -1.8132241E-35
   1.570000     -8.4144118E-35
   1.580000     -1.6862887E-34
   1.590000     -2.6325315E-34
   1.600000     -3.5568893E-34
   1.610000     -4.4934227E-34
   1.620000     -5.4442015E-34
   1.630000     -6.3237339E-34
   1.640000     -7.1083842E-34
   1.650000     -7.8650922E-34
   1.660000     -8.6435973E-34
   1.670000     -9.4682332E-34
   1.680000     -1.0313089E-33
   1.690000     -1.1180606E-33
   1.700000     -1.2078280E-33
   1.710000     -1.2975060E-33
   1.720000     -1.3783160E-33
   1.730000     -1.4524994E-33
   1.740000     -1.5096764E-33
   1.750000     -1.5388888E-33
   1.760000     -1.5392592E-33
   1.770000     -1.5101394E-33
   1.780000     -1.4501967E-33
   1.790000     -1.3534450E-33
   1.800000     -1.2247355E-33
   1.810000     -1.0751409E-33
   1.820000     -8.9253578E-34
   1.830000     -6.6399447E-34
   1.840000     -4.1082536E-34
   1.850000     -1.3945404E-34
   1.860000      1.5602226E-34
   1.870000      4.7404813E-34
   1.880000      8.1684891E-34
   1.890000      1.1878451E-33
   1.900000      1.5882808E-33
   1.910000      2.0193487E-33
   1.920000      2.4831585E-33
   1.930000      2.9771244E-33
   1.940000      3.5009954E-33
   1.950000      4.0563397E-33
   1.960000      4.6371735E-33
   1.970000      5.2354065E-33
   1.980000      5.8439871E-33
   1.990000      6.4496238E-33
   2.000000      7.0404596E-33
   2.010000      7.6080294E-33
   2.020000      8.1422490E-33
   2.030000      8.6327879E-33
   2.040000      9.0694458E-33
   2.050000      9.4433566E-33
   2.060000      9.7417838E-33
   2.070000      9.9540009E-33
   2.080000      1.0075741E-32
   2.090000      1.0100799E-32
   2.100000      1.0020624E-32
   2.110000      9.8293016E-33
   2.120000      9.5163299E-33
   2.130000      9.0702298E-33
   2.140000      8.4901813E-33
   2.150000      7.7566508E-33
   2.160000      6.8478916E-33
   2.170000      5.7647371E-33
   2.180000      4.5001123E-33
   2.190000      3.0431907E-33
   2.200000      1.3884229E-33
   2.210000     -4.6869926E-34
   2.220000     -2.5293973E-33
   2.230000     -4.7923601E-33
   2.240000     -7.2549983E-33
   2.250000     -9.9020625E-33
   2.260000     -1.2718846E-32
   2.270000     -1.5695852E-32
   2.280000     -1.8815675E-32
   2.290000     -2.2059176E-32
   2.300000     -2.5405348E-32
   2.310000     -2.8828796E-32
   2.320000     -3.2307845E-32
   2.330000     -3.5816619E-32
   2.340000     -3.9320615E-32
   2.350000     -4.2786810E-32
   2.360000     -4.6180877E-32
   2.370000     -4.9464191E-32
   2.380000     -5.2594286E-32
   2.390000     -5.5527526E-32
   2.400000     -5.8218233E-32
   2.410000     -6.0613314E-32
   2.420000     -6.2658004E-32
   2.430000     -6.4300305E-32
   2.440000     -6.5484586E-32
   2.450000     -6.6154595E-32
   2.460000     -6.6254976E-32
   2.470000     -6.5731522E-32
   2.480000     -6.4531936E-32
   2.490000     -6.2606330E-32
   2.500000     -5.9907959E-32
   2.510000     -5.6393948E-32
   2.520000     -5.2025676E-32
   2.530000     -4.6769279E-32
   2.540000     -4.0595982E-32
   2.550000     -3.3482367E-32
   2.560000     -2.5411070E-32
   2.570000     -1.6371154E-32
   2.580000     -6.3587147E-33
   2.590000      4.6225232E-33
   2.600000      1.6560436E-32
   2.610000      2.9433958E-32
   2.620000      4.3212298E-32
   2.630000      5.7854035E-32
   2.640000      7.3306731E-32
   2.650000      8.9505896E-32
   2.660000      1.0637482E-31
   2.670000      1.2382460E-31
   2.680000      1.4175339E-31
   2.690000      1.6004704E-31
   2.700000      1.7857864E-31
   2.710000      1.9720922E-31
   2.720000      2.1578855E-31
   2.730000      2.3415542E-31
   2.740000      2.5213853E-31
   2.750000      2.6955724E-31
   2.760000      2.8622218E-31
   2.770000      3.0193659E-31
   2.780000      3.1649741E-31
   2.790000      3.2969478E-31
   2.800000      3.4131374E-31
   2.810000      3.5113695E-31
   2.820000      3.5894421E-31
   2.830000      3.6451351E-31
   2.840000      3.6762340E-31
   2.850000      3.6805448E-31
   2.860000      3.6559106E-31
   2.870000      3.6002336E-31
   2.880000      3.5114971E-31
   2.890000      3.3877884E-31
   2.900000      3.2273240E-31
   2.910000      3.0284745E-31
   2.920000      2.7897883E-31
   2.930000      2.5100176E-31
   2.940000      2.1881423E-31
   2.950000      1.8233931E-31
   2.960000      1.4152717E-31
   2.970000      9.6357112E-32
   2.980000      4.6839444E-32
   2.990000     -6.9829581E-33
   3.000000     -6.5032997E-32
   3.010000     -1.2719793E-31
   3.020000     -1.9332811E-31
   3.030000     -2.6323576E-31
   3.040000     -3.3669374E-31
   3.050000     -4.1343453E-31
   3.060000     -4.9314931E-31
   3.070000     -5.7548715E-31
   3.080000     -6.6005447E-31
   3.090000     -7.4641470E-31
   3.100000     -8.3408810E-31
   3.110000     -9.2255223E-31
   3.120000     -1.0112424E-30
   3.130000     -1.0995530E-30
   3.140000     -1.1868385E-30
   3.150000     -1.2724158E-30
   3.160000     -1.3555663E-30
   3.170000     -1.4355382E-30
   3.180000     -1.5115501E-30
   3.190000     -1.5827939E-30
   3.200000     -1.6484379E-30
   3.210000     -1.7076312E-30
   3.220000     -1.7595076E-30
   3.230000     -1.8031886E-30
   3.240000     -1.8377893E-30
   3.250000     -1.8624220E-30
   3.260000     -1.8762009E-30
   3.270000     -1.8782479E-30
   3.280000     -1.8676973E-30
   3.290000     -1.8437014E-30
   3.300000     -1.8054371E-30
   3.310000     -1.7521123E-30
   3.320000     -1.6829726E-30
   3.330000     -1.5973078E-30
   3.340000     -1.4944597E-30
   3.350000     -1.3738292E-30
   3.360000     -1.2348840E-30
   3.370000     -1.0771659E-30
   3.380000     -9.0029843E-31
   3.390000     -7.0399308E-31
   3.400000     -4.8805736E-31
   3.410000     -2.5240114E-31
   3.420000      2.9573658E-33
   3.430000      2.7788508E-31
   3.440000      5.7212819E-31
   3.450000      8.8530683E-31
   3.460000      1.2169100E-30
   3.470000      1.5662902E-30
   3.480000      1.9326581E-30
   3.490000      2.3150788E-30
   3.500000      2.7124671E-30
   3.510000      3.1235834E-30
   3.520000      3.5470296E-30
   3.530000      3.9812478E-30
   3.540000      4.4245156E-30
   3.550000      4.8749455E-30
   3.560000      5.3304828E-30
   3.570000      5.7889072E-30
   3.580000      6.2478303E-30
   3.590000      6.7046993E-30
   3.600000      7.1567993E-30
   3.610000      7.6012550E-30
   3.620000      8.0350362E-30
   3.630000      8.4549641E-30
   3.640000      8.8577129E-30
   3.650000      9.2398212E-30
   3.660000      9.5976966E-30
   3.670000      9.9276249E-30
   3.680000      1.0225778E-29
   3.690000      1.0488225E-29
   3.700000      1.0710944E-29
   3.710000      1.0889834E-29
   3.720000      1.1020728E-29
   3.730000      1.1099409E-29
   3.740000      1.1121622E-29
   3.750000      1.1083097E-29
   3.760000      1.0979565E-29
   3.770000      1.0806773E-29
   3.780000      1.0560511E-29
   3.790000      1.0236633E-29
   3.800000      9.8310749E-30
   3.810000      9.3398853E-30
   3.820000      8.7592415E-30
   3.830000      8.0854812E-30
   3.840000      7.3151250E-30
   3.850000      6.4449011E-30
   3.860000      5.4717746E-30
   3.870000      4.3929729E-30
   3.880000      3.2060117E-30
   3.890000      1.9087226E-30
   3.900000      4.9928808E-31
   3.910000     -1.0237364E-30
   3.920000     -2.6613903E-30
   3.930000     -4.4142736E-30
   3.940000     -6.2825215E-30
   3.950000     -8.2657716E-30
   3.960000     -1.0363126E-29
   3.970000     -1.2573123E-29
   3.980000     -1.4893707E-29
   3.990000     -1.7322195E-29
   4.000000     -1.9855242E-29
   4.010000     -2.2488815E-29
   4.020000     -2.5218160E-29
   4.030000     -2.8037775E-29
   4.040000     -3.0941377E-29
   4.050000     -3.3921868E-29
   4.060000     -3.6971334E-29
   4.070000     -4.0081001E-29
   4.080000     -4.3241199E-29
   4.090000     -4.6441369E-29
   4.100000     -4.9670013E-29
   4.110000     -5.2914697E-29
   4.120000     -5.6162019E-29
   4.130000     -5.9397605E-29
   4.140000     -6.2606090E-29
   4.150000     -6.5771085E-29
   4.160000     -6.8875209E-29
   4.170000     -7.1900069E-29
   4.180000     -7.4826236E-29
   4.190000     -7.7633291E-29
   4.200000     -8.0299783E-29
   4.210000     -8.2803288E-29
   4.220000     -8.5120368E-29
   4.230000     -8.7226655E-29
   4.240000     -8.9096823E-29
   4.250000     -9.0704614E-29
   4.260000     -9.2022907E-29
   4.270000     -9.3023716E-29
   4.280000     -9.3678250E-29
   4.290000     -9.3956956E-29
   4.300000     -9.3829568E-29
   4.310000     -9.3265186E-29
   4.320000     -9.2232304E-29
   4.330000     -9.0698938E-29
   4.340000     -8.8632650E-29
   4.350000     -8.6000674E-29
   4.360000     -8.2770005E-29
   4.370000     -7.8907498E-29
   4.380000     -7.4380004E-29
   4.390000     -6.9154493E-29
   4.400000     -6.3198157E-29
   4.410000     -5.6478582E-29
   4.420000     -4.8963934E-29
   4.430000     -4.0623084E-29
   4.440000     -3.1425793E-29
   4.450000     -2.1342901E-29
   4.460000     -1.0346540E-29
   4.470000      1.5896829E-30
   4.480000      1.4490465E-29
   4.490000      2.8378569E-29
   4.500000      4.3274590E-29
   4.510000      5.9196713E-29
   4.520000      7.6160418E-29
   4.530000      9.4178239E-29
   4.540000      1.1325944E-28
   4.550000      1.3340981E-28
   4.560000      1.5463127E-28
   4.570000      1.7692162E-28
   4.580000      2.0027412E-28
   4.590000      2.2467728E-28
   4.600000      2.5011438E-28
   4.610000      2.7656332E-28
   4.620000      3.0399608E-28
   4.630000      3.3237841E-28
   4.640000      3.6166954E-28
   4.650000      3.9182180E-28
   4.660000      4.2278014E-28
   4.670000      4.5448191E-28
   4.680000      4.8685641E-28
   4.690000      5.1982453E-28
   4.700000      5.5329830E-28
   4.710000      5.8718075E-28
   4.720000      6.2136533E-28
   4.730000      6.5573562E-28
   4.740000      6.9016499E-28
   4.750000      7.2451640E-28
   4.760000      7.5864205E-28
   4.770000      7.9238309E-28
   4.780000      8.2556923E-28
   4.790000      8.5801893E-28
   4.800000      8.8953870E-28
   4.810000      9.1992333E-28
   4.820000      9.4895566E-28
   4.830000      9.7640633E-28
   4.840000      1.0020340E-27
   4.850000      1.0255854E-27
   4.860000      1.0467951E-27
   4.870000      1.0653856E-27
   4.880000      1.0810680E-27
   4.890000      1.0935417E-27
   4.900000      1.1024949E-27
   4.910000      1.1076052E-27
   4.920000      1.1085396E-27
   4.930000      1.1049557E-27
   4.940000      1.0965019E-27
   4.950000      1.0828179E-27
   4.960000      1.0635360E-27
   4.970000      1.0382815E-27
   4.980000      1.0066741E-27
   4.990000      9.6832888E-28
   5.000000      9.2285748E-28
   5.010000      8.6986976E-28
   5.020000      8.0897455E-28
   5.030000      7.3978161E-28
   5.040000      6.6190331E-28
   5.050000      5.7495648E-28
   5.060000      4.7856422E-28
   5.070000      3.7235814E-28
   5.080000      2.5597997E-28
   5.090000      1.2908447E-28
   5.100000     -8.6579180E-30
   5.110000     -1.5755928E-28
   5.120000     -3.1791107E-28
   5.130000     -4.8998084E-28
   5.140000     -6.7401019E-28
   5.150000     -8.7021132E-28
   5.160000     -1.0787634E-27
   5.170000     -1.2998100E-27
   5.180000     -1.5334551E-27
   5.190000     -1.7797598E-27
   5.200000     -2.0387384E-27
   5.210000     -2.3103558E-27
   5.220000     -2.5945221E-27
   5.230000     -2.8910903E-27
   5.240000     -3.1998521E-27
   5.250000     -3.5205329E-27
   5.260000     -3.8527893E-27
   5.270000     -4.1962038E-27
   5.280000     -4.5502822E-27
   5.290000     -4.9144478E-27
   5.300000     -5.2880393E-27
   5.310000     -5.6703056E-27
   5.320000     -6.0604023E-27
   5.330000     -6.4573877E-27
   5.340000     -6.8602210E-27
   5.350000     -7.2677563E-27
   5.360000     -7.6787397E-27
   5.370000     -8.0918093E-27
   5.380000     -8.5054875E-27
   5.390000     -8.9181812E-27
   5.400000     -9.3281785E-27
   5.410000     -9.7336484E-27
   5.420000     -1.0132636E-26
   5.430000     -1.0523062E-26
   5.440000     -1.0902726E-26
   5.450000     -1.1269296E-26
   5.460000     -1.1620319E-26
   5.470000     -1.1953214E-26
   5.480000     -1.2265275E-26
   5.490000     -1.2553673E-26
   5.500000     -1.2815458E-26
   5.510000     -1.3047561E-26
   5.520000     -1.3246797E-26
   5.530000     -1.3409874E-26
   5.540000     -1.3533388E-26
   5.550000     -1.3613836E-26
   5.560000     -1.3647619E-26
   5.570000     -1.3631053E-26
   5.580000     -1.3560371E-26
   5.590000     -1.3431744E-26
   5.600000     -1.3241269E-26
   5.610000     -1.2985005E-26
   5.620000     -1.2658967E-26
   5.630000     -1.2259146E-26
   5.640000     -1.1781520E-26
   5.650000     -1.1222071E-26
   5.660000     -1.0576801E-26
   5.670000     -9.8417462E-27
   5.680000     -9.0129955E-27
   5.690000     -8.0867117E-27
   5.700000     -7.0591511E-27
   5.710000     -5.9266827E-27
   5.720000     -4.6858137E-27
   5.730000     -3.3332123E-27
   5.740000     -1.8657308E-27
   5.750000     -2.8043423E-28
   5.760000      1.4253757E-27
   5.770000      3.2541391E-27
   5.780000      5.2080004E-27
   5.790000      7.2887820E-27
   5.800000      9.4979600E-27
   5.810000      1.1836628E-26
   5.820000      1.4305464E-26
   5.830000      1.6904701E-26
   5.840000      1.9634098E-26
   5.850000      2.2492902E-26
   5.860000      2.5479817E-26
   5.870000      2.8592972E-26
   5.880000      3.1829887E-26
   5.890000      3.5187440E-26
   5.900000      3.8661826E-26
   5.910000      4.2248537E-26
   5.920000      4.5942316E-26
   5.930000      4.9737141E-26
   5.940000      5.3626179E-26
   5.950000      5.7601754E-26
   5.960000      6.1655328E-26
   5.970000      6.5777478E-26
   5.980000      6.9957861E-26
   5.990000      7.4185194E-26
   6.000000      7.8447219E-26
   6.010000      8.2730697E-26
   6.020000      8.7021397E-26
   6.030000      9.1304049E-26
   6.040000      9.5562357E-26
   6.050000      9.9778991E-26
   6.060000      1.0393556E-25
   6.070000      1.0801261E-25
   6.080000      1.1198968E-25
   6.090000      1.1584520E-25
   6.100000      1.1955662E-25
   6.110000      1.2310030E-25
   6.120000      1.2645165E-25
   6.130000      1.2958503E-25
   6.140000      1.3247392E-25
   6.150000      1.3509082E-25
   6.160000      1.3740735E-25
   6.170000      1.3939436E-25
   6.180000      1.4102187E-25
   6.190000      1.4225913E-25
   6.200000      1.4307478E-25
   6.210000      1.4343682E-25
   6.220000      1.4331274E-25
   6.230000      1.4266962E-25
   6.240000      1.4147417E-25
   6.250000      1.3969283E-25
   6.260000      1.3729197E-25
   6.270000      1.3423786E-25
   6.280000      1.3049685E-25
   6.290000      1.2603552E-25
   6.300000      1.2082083E-25
   6.310000      1.1482020E-25
   6.320000      1.0800170E-25
   6.330000      1.0033421E-25
   6.340000      9.1787541E-26
   6.350000      8.2332673E-26
   6.360000      7.1941859E-26
   6.370000      6.0588862E-26
   6.380000      4.8249090E-26
   6.390000      3.4899804E-26
   6.400000      2.0520374E-26
   6.410000      5.0923995E-27
   6.420000     -1.1400055E-26
   6.430000     -2.8970214E-26
   6.440000     -4.7628346E-26
   6.450000     -6.7381620E-26
   6.460000     -8.8233920E-26
   6.470000     -1.1018548E-25
   6.480000     -1.3323273E-25
   6.490000     -1.5736806E-25
   6.500000     -1.8257966E-25
   6.510000     -2.0885125E-25
   6.520000     -2.3616186E-25
   6.530000     -2.6448554E-25
   6.540000     -2.9379123E-25
   6.550000     -3.2404254E-25
   6.560000     -3.5519752E-25
   6.570000     -3.8720841E-25
   6.580000     -4.2002154E-25
   6.590000     -4.5357727E-25
   6.600000     -4.8780950E-25
   6.610000     -5.2264584E-25
   6.620000     -5.5800727E-25
   6.630000     -5.9380795E-25
   6.640000     -6.2995533E-25
   6.650000     -6.6634982E-25
   6.660000     -7.0288493E-25
   6.670000     -7.3944681E-25
   6.680000     -7.7591481E-25
   6.690000     -8.1216090E-25
   6.700000     -8.4804993E-25
   6.710000     -8.8343971E-25
   6.720000     -9.1818085E-25
   6.730000     -9.5211715E-25
   6.740000     -9.8508542E-25
   6.750000     -1.0169157E-24
   6.760000     -1.0474314E-24
   6.770000     -1.0764494E-24
   6.780000     -1.1037810E-24
   6.790000     -1.1292308E-24
   6.800000     -1.1525987E-24
   6.810000     -1.1736784E-24
   6.820000     -1.1922595E-24
   6.830000     -1.2081266E-24
   6.840000     -1.2210601E-24
   6.850000     -1.2308374E-24
   6.860000     -1.2372324E-24
   6.870000     -1.2400166E-24
   6.880000     -1.2389596E-24
   6.890000     -1.2338299E-24
   6.900000     -1.2243956E-24
   6.910000     -1.2104248E-24
   6.920000     -1.1916864E-24
   6.930000     -1.1679513E-24
   6.940000     -1.1389929E-24
   6.950000     -1.1045877E-24
   6.960000     -1.0645173E-24
   6.970000     -1.0185681E-24
   6.980000     -9.6653309E-25
   6.990000     -9.0821270E-25
   7.000000     -8.4341557E-25
   7.010000     -7.7195991E-25
   7.020000     -6.9367473E-25
   7.030000     -6.0840069E-25
   7.040000     -5.1599145E-25
   7.050000     -4.1631479E-25
   7.060000     -3.0925371E-25