  -2.600000      0.0000000E+00
  -2.590000      0.0000000E+00
  -2.580000      0.0000000E+00
  -2.570000      0.0000000E+00
  -2.560000      0.0000000E+00
  -2.550000      0.0000000E+00
  -2.540000      0.0000000E+00
  -2.530000      0.0000000E+00
  -2.520000      0.0000000E+00
  -2.510000      0.0000000E+00
  -2.500000      0.0000000E+00
  -2.490000      0.0000000E+00
  -2.480000      0.0000000E+00
  -2.470000      0.0000000E+00
  -2.460000      0.0000000E+00
  -2.450000      0.0000000E+00
  -2.440000      0.0000000E+00
  -2.430000      0.0000000E+00
  -2.420000      0.0000000E+00
  -2.410000      0.0000000E+00
  -2.400000      0.0000000E+00
  -2.390000      0.0000000E+00
  -2.380000      0.0000000E+00
  -2.370000      0.0000000E+00
  -2.360000      0.0000000E+00
  -2.350000      0.0000000E+00
  -2.340000      0.0000000E+00
  -2.330000      0.0000000E+00
  -2.320000      0.0000000E+00
  -2.310000      0.0000000E+00
  -2.300000      0.0000000E+00
  -2.290000      0.0000000E+00
  -2.280000      0.0000000E+00
  -2.270000      0.0000000E+00
  -2.260000      0.0000000E+00
  -2.250000      0.0000000E+00
  -2.240000      0.0000000E+00
  -2.230000      0.0000000E+00
  -2.220000      0.0000000E+00
  -2.210000      0.0000000E+00
  -2.200000      0.0000000E+00
  -2.190000      0.0000000E+00
  -2.180000      0.0000000E+00
  -2.170000      0.0000000E+00
  -2.160000      0.0000000E+00
  -2.150000      0.0000000E+00
  -2.140000      0.0000000E+00
  -2.130000      0.0000000E+00
  -2.120000      0.0000000E+00
  -2.110000      0.0000000E+00
  -2.100000      0.0000000E+00
  -2.090000      0.0000000E+00
  -2.080000      0.0000000E+00
  -2.070000      0.0000000E+00
  -2.060000      0.0000000E+00
  -2.050000      0.0000000E+00
  -2.040000      0.0000000E+00
  -2.030000      0.0000000E+00
  -2.020000      0.0000000E+00
  -2.010000      0.0000000E+00
  -2.000000      0.0000000E+00
  -1.990000      0.0000000E+00
  -1.980000      0.0000000E+00
  -1.970000      0.0000000E+00
  -1.960000      0.0000000E+00
  -1.950000      0.0000000E+00
  -1.940000      0.0000000E+00
  -1.930000      0.0000000E+00
  -1.920000      0.0000000E+00
  -1.910000      0.0000000E+00
  -1.900000      0.0000000E+00
  -1.890000      0.0000000E+00
  -1.880000      0.0000000E+00
  -1.870000      0.0000000E+00
  -1.860000      0.0000000E+00
  -1.850000      0.0000000E+00
  -1.840000      0.0000000E+00
  -1.830000      0.0000000E+00
  -1.820000      0.0000000E+00
  -1.810000      0.0000000E+00
  -1.800000      0.0000000E+00
  -1.790000      0.0000000E+00
  -1.780000      0.0000000E+00
  -1.770000      0.0000000E+00
  -1.760000      0.0000000E+00
  -1.750000      0.0000000E+00
  -1.740000      0.0000000E+00
  -1.730000      0.0000000E+00
  -1.720000      0.0000000E+00
  -1.710000      0.0000000E+00
  -1.700000      0.0000000E+00
  -1.690000      0.0000000E+00
  -1.680000      0.0000000E+00
  -1.670000      0.0000000E+00
  -1.660000      0.0000000E+00
  -1.650000      0.0000000E+00
  -1.640000      0.0000000E+00
  -1.630000      0.0000000E+00
  -1.620000      0.0000000E+00
  -1.610000      0.0000000E+00
  -1.600000      0.0000000E+00
  -1.590000      0.0000000E+00
  -1.580000      0.0000000E+00
  -1.570000      0.0000000E+00
  -1.560000      0.0000000E+00
  -1.550000      0.0000000E+00
  -1.540000      0.0000000E+00
  -1.530000      0.0000000E+00
  -1.520000      0.0000000E+00
  -1.510000      0.0000000E+00
  -1.500000      0.0000000E+00
  -1.490000      0.0000000E+00
  -1.480000      0.0000000E+00
  -1.470000      0.0000000E+00
  -1.460000      0.0000000E+00
  -1.450000      0.0000000E+00
  -1.440000      0.0000000E+00
  -1.430000      0.0000000E+00
  -1.420000      0.0000000E+00
  -1.410000      0.0000000E+00
  -1.400000      0.0000000E+00
  -1.390000      0.0000000E+00
  -1.380000      0.0000000E+00
  -1.370000      0.0000000E+00
  -1.360000      0.0000000E+00
  -1.350000      0.0000000E+00
  -1.340000      0.0000000E+00
  -1.330000      0.0000000E+00
  -1.320000      0.0000000E+00
  -1.310000      0.0000000E+00
  -1.300000      0.0000000E+00
  -1.290000      0.0000000E+00
  -1.280000      0.0000000E+00
  -1.270000      0.0000000E+00
  -1.260000      0.0000000E+00
  -1.250000      0.0000000E+00
  -1.240000      0.0000000E+00
  -1.230000      0.0000000E+00
  -1.220000      0.0000000E+00
  -1.210000      0.0000000E+00
  -1.200000      0.0000000E+00
  -1.190000      0.0000000E+00
  -1.180000      0.0000000E+00
  -1.170000      0.0000000E+00
  -1.160000      0.0000000E+00
  -1.150000      0.0000000E+00
  -1.140000      0.0000000E+00
  -1.130000      0.0000000E+00
  -1.120000      0.0000000E+00
  -1.110000      0.0000000E+00
  -1.100000      0.0000000E+00
  -1.090000      0.0000000E+00
  -1.080000      0.0000000E+00
  -1.070000      0.0000000E+00
  -1.060000      0.0000000E+00
  -1.050000      0.0000000E+00
  -1.040000      0.0000000E+00
  -1.030000      0.0000000E+00
  -1.020000      0.0000000E+00
  -1.010000      0.0000000E+00
  -1.000000      0.0000000E+00
 -0.9900000      0.0000000E+00
 -0.9800000      0.0000000E+00
 -0.9700000      0.0000000E+00
 -0.9600000      0.0000000E+00
 -0.9500000      0.0000000E+00
 -0.9400000      0.0000000E+00
 -0.9300000      0.0000000E+00
 -0.9200000      0.0000000E+00
 -0.9100000      0.0000000E+00
 -0.9000000      0.0000000E+00
 -0.8900000      0.0000000E+00
 -0.8800000      0.0000000E+00
 -0.8700000      0.0000000E+00
 -0.8600000      0.0000000E+00
 -0.8500000      0.0000000E+00
 -0.8400000      0.0000000E+00
 -0.8300000      0.0000000E+00
 -0.8200000      0.0000000E+00
 -0.8100000      0.0000000E+00
 -0.8000000      0.0000000E+00
 -0.7900000      0.0000000E+00
 -0.7800000      0.0000000E+00
 -0.7700000      0.0000000E+00
 -0.7600000      0.0000000E+00
 -0.7500000      0.0000000E+00
 -0.7400000      0.0000000E+00
 -0.7300000      0.0000000E+00
 -0.7200000      0.0000000E+00
 -0.7100000      0.0000000E+00
 -0.7000000      0.0000000E+00
 -0.6900000      0.0000000E+00
 -0.6800000      0.0000000E+00
 -0.6700000      0.0000000E+00
 -0.6600000      0.0000000E+00
 -0.6500000      0.0000000E+00
 -0.6400000      0.0000000E+00
 -0.6300000      0.0000000E+00
 -0.6200000      0.0000000E+00
 -0.6100000      0.0000000E+00
 -0.6000000      0.0000000E+00
 -0.5900000      0.0000000E+00
 -0.5800000      0.0000000E+00
 -0.5700000      0.0000000E+00
 -0.5600000      0.0000000E+00
 -0.5500000      0.0000000E+00
 -0.5400000      0.0000000E+00
 -0.5300000      0.0000000E+00
 -0.5200000      0.0000000E+00
 -0.5100000      0.0000000E+00
 -0.5000000      0.0000000E+00
 -0.4900000      0.0000000E+00
 -0.4800000      0.0000000E+00
 -0.4700000      0.0000000E+00
 -0.4600000      0.0000000E+00
 -0.4500000      0.0000000E+00
 -0.4400000      0.0000000E+00
 -0.4300000      0.0000000E+00
 -0.4200000      0.0000000E+00
 -0.4100000      0.0000000E+00
 -0.4000000      0.0000000E+00
 -0.3900000      0.0000000E+00
 -0.3800000      0.0000000E+00
 -0.3700000      0.0000000E+00
 -0.3600000      0.0000000E+00
 -0.3500000      0.0000000E+00
 -0.3400000      0.0000000E+00
 -0.3300000      0.0000000E+00
 -0.3200000      0.0000000E+00
 -0.3100000      0.0000000E+00
 -0.3000000      0.0000000E+00
 -0.2900000      0.0000000E+00
 -0.2800000      0.0000000E+00
 -0.2700000      0.0000000E+00
 -0.2600000      0.0000000E+00
 -0.2500000      0.0000000E+00
 -0.2400000      0.0000000E+00
 -0.2300000      0.0000000E+00
 -0.2200000      0.0000000E+00
 -0.2100000      0.0000000E+00
 -0.2000000      0.0000000E+00
 -0.1900000      0.0000000E+00
 -0.1800000      0.0000000E+00
 -0.1700000      0.0000000E+00
 -0.1600000      0.0000000E+00
 -0.1500000      0.0000000E+00
 -0.1400000      0.0000000E+00
 -0.1300000      0.0000000E+00
 -0.1200000      0.0000000E+00
 -0.1100000      0.0000000E+00
 -0.1000000      0.0000000E+00
 -9.0000004E-02  0.0000000E+00
 -7.9999998E-02  0.0000000E+00
 -7.0000000E-02  0.0000000E+00
 -5.9999999E-02  0.0000000E+00
 -5.0000001E-02  0.0000000E+00
 -3.9999999E-02  0.0000000E+00
 -2.9999999E-02  0.0000000E+00
 -2.0000000E-02  0.0000000E+00
 -9.9999998E-03  0.0000000E+00
 -3.4694470E-17  0.0000000E+00
  9.9999998E-03  0.0000000E+00
  2.0000000E-02  0.0000000E+00
  2.9999999E-02  0.0000000E+00
  3.9999999E-02  0.0000000E+00
  5.0000001E-02  0.0000000E+00
  5.9999999E-02  0.0000000E+00
  7.0000000E-02  0.0000000E+00
  7.9999998E-02  0.0000000E+00
  9.0000004E-02  0.0000000E+00
  0.1000000      0.0000000E+00
  0.1100000      0.0000000E+00
  0.1200000      0.0000000E+00
  0.1300000      0.0000000E+00
  0.1400000      0.0000000E+00
  0.1500000      0.0000000E+00
  0.1600000      0.0000000E+00
  0.1700000      0.0000000E+00
  0.1800000      0.0000000E+00
  0.1900000      0.0000000E+00
  0.2000000      0.0000000E+00
  0.2100000      0.0000000E+00
  0.2200000      0.0000000E+00
  0.2300000      0.0000000E+00
  0.2400000      0.0000000E+00
  0.2500000      0.0000000E+00
  0.2600000      0.0000000E+00
  0.2700000      0.0000000E+00
  0.2800000      0.0000000E+00
  0.2900000      0.0000000E+00
  0.3000000      0.0000000E+00
  0.3100000      0.0000000E+00
  0.3200000      0.0000000E+00
  0.3300000      0.0000000E+00
  0.3400000      0.0000000E+00
  0.3500000      0.0000000E+00
  0.3600000      0.0000000E+00
  0.3700000      0.0000000E+00
  0.3800000      0.0000000E+00
  0.3900000      0.0000000E+00
  0.4000000      0.0000000E+00
  0.4100000      0.0000000E+00
  0.4200000      0.0000000E+00
  0.4300000      0.0000000E+00
  0.4400000      0.0000000E+00
  0.4500000      0.0000000E+00
  0.4600000      0.0000000E+00
  0.4700000      0.0000000E+00
  0.4800000      0.0000000E+00
  0.4900000      0.0000000E+00
  0.5000000      0.0000000E+00
  0.5100000      0.0000000E+00
  0.5200000      0.0000000E+00
  0.5300000      0.0000000E+00
  0.5400000      0.0000000E+00
  0.5500000      0.0000000E+00
  0.5600000      0.0000000E+00
  0.5700000      0.0000000E+00
  0.5800000      0.0000000E+00
  0.5900000      0.0000000E+00
  0.6000000      1.3900633E-38
  0.6100000      1.7543209E-38
  0.6200000      2.0738758E-38
  0.6300000      2.0425887E-38
  0.6400000      1.6468270E-38
  0.6500000      0.0000000E+00
  0.6600000      0.0000000E+00
  0.6700000      0.0000000E+00
  0.6800000     -1.2150900E-38
  0.6900000     -2.1818789E-38
  0.7000000     -2.7933870E-38
  0.7100000     -3.0818774E-38
  0.7200000     -3.2319475E-38
  0.7300000     -3.2874249E-38
  0.7400000     -3.2402191E-38
  0.7500000     -3.0708329E-38
  0.7600000     -2.7960660E-38
  0.7700000     -2.4803717E-38
  0.7800000     -2.0794417E-38
  0.7900000     -1.6854210E-38
  0.8000000     -1.2213834E-38
  0.8100000      0.0000000E+00
  0.8200000      0.0000000E+00
  0.8300000      0.0000000E+00
  0.8400000      0.0000000E+00
  0.8500000      0.0000000E+00
  0.8600000      0.0000000E+00
  0.8700000      3.5824232E-38
  0.8800000      7.1959193E-38
  0.8900000      1.1141518E-37
  0.9000000      1.5924504E-37
  0.9100000      2.1705461E-37
  0.9200000      2.8042854E-37
  0.9300000      3.4429311E-37
  0.9400000      4.0578361E-37
  0.9500000      5.8271268E-37
  0.9600000      9.8165132E-37
  0.9700000      1.4466973E-36
  0.9800000      1.8956904E-36
  0.9900000      2.3712320E-36
   1.000000      2.9173920E-36
   1.010000      3.5445334E-36
   1.020000      3.9980268E-36
   1.030000      4.2481623E-36
   1.040000      4.4585814E-36
   1.050000      4.6238243E-36
   1.060000      4.7497595E-36
   1.070000      4.6286647E-36
   1.080000      4.2452572E-36
   1.090000      3.7436962E-36
   1.100000      3.1200274E-36
   1.110000      2.4382891E-36
   1.120000      1.7428460E-36
   1.130000      1.0747693E-36
   1.140000      4.4096181E-37
   1.150000     -1.6297223E-37
   1.160000     -6.6513567E-37
   1.170000     -1.2496993E-36
   1.180000     -2.0050094E-36
   1.190000     -2.7710244E-36
   1.200000     -3.3970294E-36
   1.210000     -4.0120335E-36
   1.220000     -4.8779486E-36
   1.230000     -5.9799824E-36
   1.240000     -7.3621468E-36
   1.250000     -9.0017333E-36
   1.260000     -1.0918080E-35
   1.270000     -1.3081352E-35
   1.280000     -1.5400751E-35
   1.290000     -1.7905488E-35
   1.300000     -2.0697109E-35
   1.310000     -2.3553977E-35
   1.320000     -2.6293722E-35
   1.330000     -2.9017635E-35
   1.340000     -3.1923858E-35
   1.350000     -3.5131993E-35
   1.360000     -3.8277264E-35
   1.370000     -4.1167414E-35
   1.380000     -4.3867641E-35
   1.390000     -4.6348149E-35
   1.400000     -4.8517410E-35
   1.410000     -5.0310561E-35
   1.420000     -5.1587000E-35
   1.430000     -5.2222037E-35
   1.440000     -5.2222812E-35
   1.450000     -5.1522009E-35
   1.460000     -5.0422302E-35
   1.470000     -4.8831740E-35
   1.480000     -4.6370945E-35
   1.490000     -4.2929209E-35
   1.500000     -3.8315534E-35
   1.510000     -3.2481027E-35
   1.520000     -2.5297858E-35
   1.530000     -1.6446308E-35
   1.540000     -6.1738055E-36
   1.550000      5.3228019E-36
   1.560000      1.8261841E-35
   1.570000      3.2381116E-35
   1.580000      4.7571513E-35
   1.590000      6.3899408E-35
   1.600000      8.1360309E-35
   1.610000      1.0093573E-34
   1.620000      1.2280617E-34
   1.630000      1.4598859E-34
   1.640000      1.7040589E-34
   1.650000      1.9636661E-34
   1.660000      2.2323836E-34
   1.670000      2.4993813E-34
   1.680000      2.7649124E-34
   1.690000      3.0654647E-34
   1.700000      3.4031218E-34
   1.710000      3.7240274E-34
   1.720000      3.9946521E-34
   1.730000      4.1854633E-34
   1.740000      4.2826143E-34
   1.750000      4.3078566E-34
   1.760000      4.2921900E-34
   1.770000      4.2187262E-34
   1.780000      4.1143188E-34
   1.790000      3.9901559E-34
   1.800000      3.8304023E-34
   1.810000      3.6474175E-34
   1.820000      3.4311812E-34
   1.830000      3.1692239E-34
   1.840000      2.8422126E-34
   1.850000      2.4397163E-34
   1.860000      1.9775151E-34
   1.870000      1.4700774E-34
   1.880000      8.8996608E-35
   1.890000      2.0429519E-35
   1.900000     -5.9417761E-35
   1.910000     -1.5008448E-34
   1.920000     -2.5458159E-34
   1.930000     -3.7132875E-34
   1.940000     -4.9471410E-34
   1.950000     -6.2827120E-34
   1.960000     -7.7513227E-34
   1.970000     -9.3253455E-34
   1.980000     -1.1005053E-33
   1.990000     -1.2735107E-33
   2.000000     -1.4488208E-33
   2.010000     -1.6297711E-33
   2.020000     -1.8189094E-33
   2.030000     -2.0158248E-33
   2.040000     -2.2116684E-33
   2.050000     -2.4033805E-33
   2.060000     -2.5930298E-33
   2.070000     -2.7791418E-33
   2.080000     -2.9586754E-33
   2.090000     -3.1297394E-33
   2.100000     -3.2891327E-33
   2.110000     -3.4339320E-33
   2.120000     -3.5614331E-33
   2.130000     -3.6670722E-33
   2.140000     -3.7449340E-33
   2.150000     -3.7906475E-33
   2.160000     -3.8040375E-33
   2.170000     -3.7775022E-33
   2.180000     -3.7075007E-33
   2.190000     -3.5935810E-33
   2.200000     -3.4325691E-33
   2.210000     -3.2209504E-33
   2.220000     -2.9518524E-33
   2.230000     -2.6220926E-33
   2.240000     -2.2289059E-33
   2.250000     -1.7669129E-33
   2.260000     -1.2354399E-33
   2.270000     -6.3372457E-34
   2.280000      4.2791963E-35
   2.290000      7.9583401E-34
   2.300000      1.6269995E-33
   2.310000      2.5401177E-33
   2.320000      3.5332631E-33
   2.330000      4.6039636E-33
   2.340000      5.7541764E-33
   2.350000      6.9825320E-33
   2.360000      8.2872822E-33
   2.370000      9.6650034E-33
   2.380000      1.1111180E-32
   2.390000      1.2621477E-32
   2.400000      1.4189977E-32
   2.410000      1.5809585E-32
   2.420000      1.7471696E-32
   2.430000      1.9166302E-32
   2.440000      2.0879311E-32
   2.450000      2.2601630E-32
   2.460000      2.4322716E-32
   2.470000      2.6023735E-32
   2.480000      2.7688202E-32
   2.490000      2.9298342E-32
   2.500000      3.0834281E-32
   2.510000      3.2275014E-32
   2.520000      3.3598376E-32
   2.530000      3.4780724E-32
   2.540000      3.5797594E-32
   2.550000      3.6623796E-32
   2.560000      3.7232972E-32
   2.570000      3.7601199E-32
   2.580000      3.7698324E-32
   2.590000      3.7493976E-32
   2.600000      3.6963734E-32
   2.610000      3.6080509E-32
   2.620000      3.4817725E-32
   2.630000      3.3149596E-32
   2.640000      3.1051286E-32
   2.650000      2.8500422E-32
   2.660000      2.5473092E-32
   2.670000      2.1948103E-32
   2.680000      1.7909654E-32
   2.690000      1.3341007E-32
   2.700000      8.2279396E-33
   2.710000      2.5603716E-33
   2.720000     -3.6690485E-33
   2.730000     -1.0464445E-32
   2.740000     -1.7826029E-32
   2.750000     -2.5750044E-32
   2.760000     -3.4228291E-32
   2.770000     -4.3247721E-32
   2.780000     -5.2790523E-32
   2.790000     -6.2833388E-32
   2.800000     -7.3347057E-32
   2.810000     -8.4296416E-32
   2.820000     -9.5639878E-32
   2.830000     -1.0732910E-31
   2.840000     -1.1930882E-31
   2.850000     -1.3151648E-31
   2.860000     -1.4388198E-31
   2.870000     -1.5632756E-31
   2.880000     -1.6876782E-31
   2.890000     -1.8110939E-31
   2.900000     -1.9325106E-31
   2.910000     -2.0508391E-31
   2.920000     -2.1649152E-31
   2.930000     -2.2735015E-31
   2.940000     -2.3752928E-31
   2.950000     -2.4689188E-31
   2.960000     -2.5529518E-31
   2.970000     -2.6259140E-31
   2.980000     -2.6862837E-31
   2.990000     -2.7325060E-31
   3.000000     -2.7630006E-31
   3.010000     -2.7761746E-31
   3.020000     -2.7704319E-31
   3.030000     -2.7441866E-31
   3.040000     -2.6958752E-31
   3.050000     -2.6239672E-31
   3.060000     -2.5269656E-31
   3.070000     -2.4034689E-31
   3.080000     -2.2521520E-31
   3.090000     -2.0717592E-31
   3.100000     -1.8611314E-31
   3.110000     -1.6192305E-31
   3.120000     -1.3451793E-31
   3.130000     -1.0382399E-31
   3.140000     -6.9784274E-32
   3.150000     -3.2360346E-32
   3.160000      8.4660014E-33
   3.170000      5.2691035E-32
   3.180000      1.0028717E-31
   3.190000      1.5120109E-31
   3.200000      2.0535193E-31
   3.210000      2.6262932E-31
   3.220000      3.2289147E-31
   3.230000      3.8596330E-31
   3.240000      4.5163452E-31
   3.250000      5.1965775E-31
   3.260000      5.8974716E-31
   3.270000      6.6157664E-31
   3.280000      7.3477862E-31
   3.290000      8.0894286E-31
   3.300000      8.8361525E-31
   3.310000      9.5829788E-31
   3.320000      1.0324481E-30
   3.330000      1.1054790E-30
   3.340000      1.1767599E-30
   3.350000      1.2456173E-30
   3.360000      1.3113358E-30
   3.370000      1.3731604E-30
   3.380000      1.4302985E-30
   3.390000      1.4819223E-30
   3.400000      1.5271725E-30
   3.410000      1.5651614E-30
   3.420000      1.5949769E-30
   3.430000      1.6156869E-30
   3.440000      1.6263438E-30
   3.450000      1.6259895E-30
   3.460000      1.6136615E-30
   3.470000      1.5883970E-30
   3.480000      1.5492410E-30
   3.490000      1.4952505E-30
   3.500000      1.4255026E-30
   3.510000      1.3391010E-30
   3.520000      1.2351828E-30
   3.530000      1.1129268E-30
   3.540000      9.7156179E-31
   3.550000      8.1037405E-31
   3.560000      6.2871734E-31
   3.570000      4.2602158E-31
   3.580000      2.0180313E-31
   3.590000     -4.4325168E-32
   3.600000     -3.1264313E-31
   3.610000     -6.0331166E-31
   3.620000     -9.1636123E-31
   3.630000     -1.2516801E-30
   3.640000     -1.6090018E-30
   3.650000     -1.9878932E-30
   3.660000     -2.3877407E-30
   3.670000     -2.8077395E-30
   3.680000     -3.2468805E-30
   3.690000     -3.7039379E-30
   3.700000     -4.1774598E-30
   3.710000     -4.6657549E-30
   3.720000     -5.1668849E-30
   3.730000     -5.6786545E-30
   3.740000     -6.1986029E-30
   3.750000     -6.7239992E-30
   3.760000     -7.2518364E-30
   3.770000     -7.7788258E-30
   3.780000     -8.3013968E-30
   3.790000     -8.8156968E-30
   3.800000     -9.3175889E-30
   3.810000     -9.8026577E-30
   3.820000     -1.0266211E-29
   3.830000     -1.0703286E-29
   3.840000     -1.1108660E-29
   3.850000     -1.1476851E-29
   3.860000     -1.1802136E-29
   3.870000     -1.2078564E-29
   3.880000     -1.2299961E-29
   3.890000     -1.2459951E-29
   3.900000     -1.2551978E-29
   3.910000     -1.2569319E-29
   3.920000     -1.2505111E-29
   3.930000     -1.2352366E-29
   3.940000     -1.2104013E-29
   3.950000     -1.1752913E-29
   3.960000     -1.1291897E-29
   3.970000     -1.0713805E-29
   3.980000     -1.0011520E-29
   3.990000     -9.1780101E-30
   4.000000     -8.2063785E-30
   4.010000     -7.0899109E-30
   4.020000     -5.8221306E-30
   4.030000     -4.3968552E-30
   4.040000     -2.8082575E-30
   4.050000     -1.0509295E-30
   4.060000      8.8004701E-31
   4.070000      2.9890326E-30
   4.080000      5.2797564E-30
   4.090000      7.7552369E-30
   4.100000      1.0417709E-29
   4.110000      1.3268544E-29
   4.120000      1.6308164E-29
   4.130000      1.9535968E-29
   4.140000      2.2950248E-29
   4.150000      2.6548111E-29
   4.160000      3.0325395E-29
   4.170000      3.4276594E-29
   4.180000      3.8394789E-29
   4.190000      4.2671551E-29
   4.200000      4.7096892E-29
   4.210000      5.1659171E-29
   4.220000      5.6345037E-29
   4.230000      6.1139380E-29
   4.240000      6.6025230E-29
   4.250000      7.0983711E-29
   4.260000      7.5994000E-29
   4.270000      8.1033238E-29
   4.280000      8.6076508E-29
   4.290000      9.1096775E-29
   4.300000      9.6064850E-29
   4.310000      1.0094933E-28
   4.320000      1.0571661E-28
   4.330000      1.1033080E-28
   4.340000      1.1475374E-28
   4.350000      1.1894502E-28
   4.360000      1.2286197E-28
   4.370000      1.2645963E-28
   4.380000      1.2969082E-28
   4.390000      1.3250619E-28
   4.400000      1.3485426E-28
   4.410000      1.3668154E-28
   4.420000      1.3793254E-28
   4.430000      1.3854996E-28
   4.440000      1.3847478E-28
   4.450000      1.3764647E-28
   4.460000      1.3600307E-28
   4.470000      1.3348145E-28
   4.480000      1.3001759E-28
   4.490000      1.2554669E-28
   4.500000      1.2000348E-28
   4.510000      1.1332257E-28
   4.520000      1.0543863E-28
   4.530000      9.6286789E-29
   4.540000      8.5802960E-29
   4.550000      7.3924197E-29
   4.560000      6.0589094E-29
   4.570000      4.5738149E-29
   4.580000      2.9314210E-29
   4.590000      1.1262905E-29
   4.600000     -8.4668981E-30
   4.610000     -2.9922602E-29
   4.620000     -5.3147403E-29
   4.630000     -7.8179780E-29
   4.640000     -1.0505293E-28
   4.650000     -1.3379418E-28
   4.660000     -1.6442450E-28
   4.670000     -1.9695773E-28
   4.680000     -2.3140015E-28
   4.690000     -2.6774964E-28
   4.700000     -3.0599512E-28
   4.710000     -3.4611588E-28
   4.720000     -3.8808076E-28
   4.730000     -4.3184752E-28
   4.740000     -4.7736210E-28
   4.750000     -5.2455784E-28
   4.760000     -5.7335469E-28
   4.770000     -6.2365863E-28
   4.780000     -6.7536080E-28
   4.790000     -7.2833682E-28
   4.800000     -7.8244597E-28
   4.810000     -8.3753060E-28
   4.820000     -8.9341550E-28
   4.830000     -9.4990717E-28
   4.840000     -1.0067932E-27
   4.850000     -1.0638416E-27
   4.860000     -1.1208007E-27
   4.870000     -1.1773984E-27
   4.880000     -1.2333416E-27
   4.890000     -1.2883160E-27
   4.900000     -1.3419860E-27
   4.910000     -1.3939939E-27
   4.920000     -1.4439606E-27
   4.930000     -1.4914848E-27
   4.940000     -1.5361433E-27
   4.950000     -1.5774907E-27
   4.960000     -1.6150603E-27
   4.970000     -1.6483638E-27
   4.980000     -1.6768914E-27
   4.990000     -1.7001133E-27
   5.000000     -1.7174794E-27
   5.010000     -1.7284201E-27
   5.020000     -1.7323472E-27
   5.030000     -1.7286554E-27
   5.040000     -1.7167225E-27
   5.050000     -1.6959117E-27
   5.060000     -1.6655721E-27
   5.070000     -1.6250413E-27
   5.080000     -1.5736464E-27
   5.090000     -1.5107062E-27
   5.100000     -1.4355344E-27
   5.110000     -1.3474410E-27
   5.120000     -1.2457355E-27
   5.130000     -1.1297295E-27
   5.140000     -9.9874028E-28
   5.150000     -8.5209400E-28
   5.160000     -6.8912932E-28
   5.170000     -5.0920153E-28
   5.180000     -3.1168658E-28
   5.190000     -9.5984942E-29
   5.200000      1.3847321E-28
   5.210000      3.9222343E-28
   5.220000      6.6576182E-28
   5.230000      9.5953980E-28
   5.240000      1.2739592E-27
   5.250000      1.6093659E-27
   5.260000      1.9660440E-27
   5.270000      2.3442105E-27
   5.280000      2.7440086E-27
   5.290000      3.1655012E-27
   5.300000      3.6086650E-27
   5.310000      4.0733819E-27
   5.320000      4.5594358E-27
   5.330000      5.0665015E-27
   5.340000      5.5941409E-27
   5.350000      6.1417933E-27
   5.360000      6.7087705E-27
   5.370000      7.2942478E-27
   5.380000      7.8972557E-27
   5.390000      8.5166764E-27
   5.400000      9.1512310E-27
   5.410000      9.7994759E-27
   5.420000      1.0459795E-26
   5.430000      1.1130394E-26
   5.440000      1.1809288E-26
   5.450000      1.2494300E-26
   5.460000      1.3183054E-26
   5.470000      1.3872965E-26
   5.480000      1.4561238E-26
   5.490000      1.5244860E-26
   5.500000      1.5920597E-26
   5.510000      1.6584984E-26
   5.520000      1.7234335E-26
   5.530000      1.7864724E-26
   5.540000      1.8471993E-26
   5.550000      1.9051746E-26
   5.560000      1.9599356E-26
   5.570000      2.0109950E-26
   5.580000      2.0578432E-26
   5.590000      2.0999468E-26
   5.600000      2.1367499E-26
   5.610000      2.1676744E-26
   5.620000      2.1921201E-26
   5.630000      2.2094664E-26
   5.640000      2.2190728E-26
   5.650000      2.2202795E-26
   5.660000      2.2124088E-26
   5.670000      2.1947668E-26
   5.680000      2.1666448E-26
   5.690000      2.1273214E-26
   5.700000      2.0760628E-26
   5.710000      2.0121269E-26
   5.720000      1.9347641E-26
   5.730000      1.8432205E-26
   5.740000      1.7367395E-26
   5.750000      1.6145662E-26
   5.760000      1.4759495E-26
   5.770000      1.3201455E-26
   5.780000      1.1464213E-26
   5.790000      9.5405847E-27
   5.800000      7.4235740E-27
   5.810000      5.1064164E-27
   5.820000      2.5826166E-27
   5.830000     -1.5399613E-28
   5.840000     -3.1092259E-27
   5.850000     -6.2884525E-27
   5.860000     -9.6965773E-27
   5.870000     -1.3337971E-26
   5.880000     -1.7216418E-26
   5.890000     -2.1335050E-26
   5.900000     -2.5696284E-26
   5.910000     -3.0301768E-26
   5.920000     -3.5152295E-26
   5.930000     -4.0247770E-26
   5.940000     -4.5587095E-26
   5.950000     -5.1168150E-26
   5.960000     -5.6987688E-26
   5.970000     -6.3041258E-26
   5.980000     -6.9323186E-26
   5.990000     -7.5826432E-26
   6.000000     -8.2542578E-26
   6.010000     -8.9461708E-26
   6.020000     -9.6572371E-26
   6.030000     -1.0386151E-25
   6.040000     -1.1131435E-25
   6.050000     -1.1891440E-25
   6.060000     -1.2664331E-25
   6.070000     -1.3448084E-25
   6.080000     -1.4240484E-25
   6.090000     -1.5039112E-25
   6.100000     -1.5841343E-25
   6.110000     -1.6644339E-25
   6.120000     -1.7445050E-25
   6.130000     -1.8240201E-25
   6.140000     -1.9026292E-25
   6.150000     -1.9799598E-25
   6.160000     -2.0556160E-25
   6.170000     -2.1291792E-25
   6.180000     -2.2002070E-25
   6.190000     -2.2682344E-25
   6.200000     -2.3327721E-25
   6.210000     -2.3933086E-25
   6.220000     -2.4493096E-25
   6.230000     -2.5002175E-25
   6.240000     -2.5454537E-25
   6.250000     -2.5844180E-25
   6.260000     -2.6164899E-25
   6.270000     -2.6410284E-25
   6.280000     -2.6573746E-25
   6.290000     -2.6648520E-25
   6.300000     -2.6627672E-25
   6.310000     -2.6504134E-25
   6.320000     -2.6270693E-25
   6.330000     -2.5920034E-25
   6.340000     -2.5444745E-25
   6.350000     -2.4837337E-25
   6.360000     -2.4090279E-25
   6.370000     -2.3196011E-25
   6.380000     -2.2146977E-25
   6.390000     -2.0935654E-25
   6.400000     -1.9554579E-25
   6.410000     -1.7996379E-25
   6.420000     -1.6253808E-25
   6.430000     -1.4319795E-25
   6.440000     -1.2187463E-25
   6.450000     -9.8501764E-26
   6.460000     -7.3015875E-26
   6.470000     -4.5356784E-26
   6.480000     -1.5468035E-26
   6.490000      1.6702601E-26
   6.500000      5.1202672E-26
   6.510000      8.8074477E-26
   6.520000      1.2735459E-25
   6.530000      1.6907327E-25
   6.540000      2.1325388E-25
   6.550000      2.5991241E-25
   6.560000      3.0905679E-25
   6.570000      3.6068643E-25
   6.580000      4.1479145E-25
   6.590000      4.7135223E-25
   6.600000      5.3033881E-25
   6.610000      5.9170997E-25
   6.620000      6.5541305E-25
   6.630000      7.2138288E-25
   6.640000      7.8954159E-25
   6.650000      8.5979774E-25
   6.660000      9.3204577E-25
   6.670000      1.0061655E-24
   6.680000      1.0820212E-24
   6.690000      1.1594618E-24
   6.700000      1.2383196E-24
   6.710000      1.3184100E-24
   6.720000      1.3995309E-24
   6.730000      1.4814624E-24
   6.740000      1.5639667E-24
   6.750000      1.6467871E-24
   6.760000      1.7296477E-24
   6.770000      1.8122537E-24
   6.780000      1.8942905E-24
   6.790000      1.9754237E-24
   6.800000      2.0552992E-24
   6.810000      2.1335426E-24
   6.820000      2.2097599E-24
   6.830000      2.2835372E-24
   6.840000      2.3544402E-24
   6.850000      2.4220156E-24
   6.860000      2.4857906E-24
   6.870000      2.5452733E-24
   6.880000      2.5999538E-24
   6.890000      2.6493040E-24
   6.900000      2.6927787E-24
   6.910000      2.7298161E-24
   6.920000      2.7598395E-24
   6.930000      2.7822574E-24
   6.940000      2.7964646E-24
   6.950000      2.8018442E-24
   6.960000      2.7977688E-24
   6.970000      2.7836014E-24
   6.980000      2.7586981E-24
   6.990000      2.7224085E-24
   7.000000      2.6740781E-24
   7.010000      2.6130517E-24
   7.020000      2.5386737E-24
   7.030000      2.4502915E-24
   7.040000      2.3472572E-24
   7.050000      2.2289312E-24
   7.060000      2.0946837E-24