  -2.600000      0.0000000E+00
  -2.590000      0.0000000E+00
  -2.580000      0.0000000E+00
  -2.570000      0.0000000E+00
  -2.560000      0.0000000E+00
  -2.550000      0.0000000E+00
  -2.540000      0.0000000E+00
  -2.530000      0.0000000E+00
  -2.520000      0.0000000E+00
  -2.510000      0.0000000E+00
  -2.500000      0.0000000E+00
  -2.490000      0.0000000E+00
  -2.480000      0.0000000E+00
  -2.470000      0.0000000E+00
  -2.460000      0.0000000E+00
  -2.450000      0.0000000E+00
  -2.440000      0.0000000E+00
  -2.430000      0.0000000E+00
  -2.420000      0.0000000E+00
  -2.410000      0.0000000E+00
  -2.400000      0.0000000E+00
  -2.390000      0.0000000E+00
  -2.380000      0.0000000E+00
  -2.370000      0.0000000E+00
  -2.360000      0.0000000E+00
  -2.350000      0.0000000E+00
  -2.340000      0.0000000E+00
  -2.330000      0.0000000E+00
  -2.320000      0.0000000E+00
  -2.310000      0.0000000E+00
  -2.300000      0.0000000E+00
  -2.290000      0.0000000E+00
  -2.280000      0.0000000E+00
  -2.270000      0.0000000E+00
  -2.260000      0.0000000E+00
  -2.250000      0.0000000E+00
  -2.240000      0.0000000E+00
  -2.230000      0.0000000E+00
  -2.220000      0.0000000E+00
  -2.210000      0.0000000E+00
  -2.200000      0.0000000E+00
  -2.190000      0.0000000E+00
  -2.180000      0.0000000E+00
  -2.170000      0.0000000E+00
  -2.160000      0.0000000E+00
  -2.150000      0.0000000E+00
  -2.140000      0.0000000E+00
  -2.130000      0.0000000E+00
  -2.120000      0.0000000E+00
  -2.110000      0.0000000E+00
  -2.100000      0.0000000E+00
  -2.090000      0.0000000E+00
  -2.080000      0.0000000E+00
  -2.070000      0.0000000E+00
  -2.060000      0.0000000E+00
  -2.050000      0.0000000E+00
  -2.040000      0.0000000E+00
  -2.030000      0.0000000E+00
  -2.020000      0.0000000E+00
  -2.010000      0.0000000E+00
  -2.000000      0.0000000E+00
  -1.990000      0.0000000E+00
  -1.980000      0.0000000E+00
  -1.970000      0.0000000E+00
  -1.960000      0.0000000E+00
  -1.950000      0.0000000E+00
  -1.940000      0.0000000E+00
  -1.930000      0.0000000E+00
  -1.920000      0.0000000E+00
  -1.910000      0.0000000E+00
  -1.900000      0.0000000E+00
  -1.890000      0.0000000E+00
  -1.880000      0.0000000E+00
  -1.870000      0.0000000E+00
  -1.860000      0.0000000E+00
  -1.850000      0.0000000E+00
  -1.840000      0.0000000E+00
  -1.830000      0.0000000E+00
  -1.820000      0.0000000E+00
  -1.810000      0.0000000E+00
  -1.800000      0.0000000E+00
  -1.790000      0.0000000E+00
  -1.780000      0.0000000E+00
  -1.770000      0.0000000E+00
  -1.760000      0.0000000E+00
  -1.750000      0.0000000E+00
  -1.740000      0.0000000E+00
  -1.730000      0.0000000E+00
  -1.720000      0.0000000E+00
  -1.710000      0.0000000E+00
  -1.700000      0.0000000E+00
  -1.690000      0.0000000E+00
  -1.680000      0.0000000E+00
  -1.670000      0.0000000E+00
  -1.660000      0.0000000E+00
  -1.650000      0.0000000E+00
  -1.640000      0.0000000E+00
  -1.630000      0.0000000E+00
  -1.620000      0.0000000E+00
  -1.610000      0.0000000E+00
  -1.600000      0.0000000E+00
  -1.590000      0.0000000E+00
  -1.580000      0.0000000E+00
  -1.570000      0.0000000E+00
  -1.560000      0.0000000E+00
  -1.550000      0.0000000E+00
  -1.540000      0.0000000E+00
  -1.530000      0.0000000E+00
  -1.520000      0.0000000E+00
  -1.510000      0.0000000E+00
  -1.500000      0.0000000E+00
  -1.490000      0.0000000E+00
  -1.480000      0.0000000E+00
  -1.470000      0.0000000E+00
  -1.460000      0.0000000E+00
  -1.450000      0.0000000E+00
  -1.440000      0.0000000E+00
  -1.430000      0.0000000E+00
  -1.420000      0.0000000E+00
  -1.410000      0.0000000E+00
  -1.400000      0.0000000E+00
  -1.390000      0.0000000E+00
  -1.380000      0.0000000E+00
  -1.370000      0.0000000E+00
  -1.360000      0.0000000E+00
  -1.350000      0.0000000E+00
  -1.340000      0.0000000E+00
  -1.330000      0.0000000E+00
  -1.320000      0.0000000E+00
  -1.310000      0.0000000E+00
  -1.300000      0.0000000E+00
  -1.290000      0.0000000E+00
  -1.280000      0.0000000E+00
  -1.270000      0.0000000E+00
  -1.260000      0.0000000E+00
  -1.250000      0.0000000E+00
  -1.240000      0.0000000E+00
  -1.230000      0.0000000E+00
  -1.220000      0.0000000E+00
  -1.210000      0.0000000E+00
  -1.200000      0.0000000E+00
  -1.190000      0.0000000E+00
  -1.180000      0.0000000E+00
  -1.170000      0.0000000E+00
  -1.160000      0.0000000E+00
  -1.150000      0.0000000E+00
  -1.140000      0.0000000E+00
  -1.130000      0.0000000E+00
  -1.120000      0.0000000E+00
  -1.110000      0.0000000E+00
  -1.100000      0.0000000E+00
  -1.090000      0.0000000E+00
  -1.080000      0.0000000E+00
  -1.070000      0.0000000E+00
  -1.060000      0.0000000E+00
  -1.050000      0.0000000E+00
  -1.040000      0.0000000E+00
  -1.030000      0.0000000E+00
  -1.020000      0.0000000E+00
  -1.010000      0.0000000E+00
  -1.000000      0.0000000E+00
 -0.9900000      0.0000000E+00
 -0.9800000      0.0000000E+00
 -0.9700000      0.0000000E+00
 -0.9600000      0.0000000E+00
 -0.9500000      0.0000000E+00
 -0.9400000      0.0000000E+00
 -0.9300000      0.0000000E+00
 -0.9200000      0.0000000E+00
 -0.9100000      0.0000000E+00
 -0.9000000      0.0000000E+00
 -0.8900000      0.0000000E+00
 -0.8800000      0.0000000E+00
 -0.8700000      0.0000000E+00
 -0.8600000      0.0000000E+00
 -0.8500000      0.0000000E+00
 -0.8400000      0.0000000E+00
 -0.8300000      0.0000000E+00
 -0.8200000      0.0000000E+00
 -0.8100000      0.0000000E+00
 -0.8000000      0.0000000E+00
 -0.7900000      0.0000000E+00
 -0.7800000      0.0000000E+00
 -0.7700000      0.0000000E+00
 -0.7600000      0.0000000E+00
 -0.7500000      0.0000000E+00
 -0.7400000      0.0000000E+00
 -0.7300000      0.0000000E+00
 -0.7200000      0.0000000E+00
 -0.7100000      0.0000000E+00
 -0.7000000      0.0000000E+00
 -0.6900000      0.0000000E+00
 -0.6800000      0.0000000E+00
 -0.6700000      0.0000000E+00
 -0.6600000      0.0000000E+00
 -0.6500000      0.0000000E+00
 -0.6400000      0.0000000E+00
 -0.6300000      0.0000000E+00
 -0.6200000      0.0000000E+00
 -0.6100000      0.0000000E+00
 -0.6000000      0.0000000E+00
 -0.5900000      0.0000000E+00
 -0.5800000      0.0000000E+00
 -0.5700000      0.0000000E+00
 -0.5600000      0.0000000E+00
 -0.5500000      0.0000000E+00
 -0.5400000      0.0000000E+00
 -0.5300000      0.0000000E+00
 -0.5200000      0.0000000E+00
 -0.5100000      0.0000000E+00
 -0.5000000      0.0000000E+00
 -0.4900000      0.0000000E+00
 -0.4800000      0.0000000E+00
 -0.4700000      0.0000000E+00
 -0.4600000      0.0000000E+00
 -0.4500000      0.0000000E+00
 -0.4400000      0.0000000E+00
 -0.4300000      0.0000000E+00
 -0.4200000      0.0000000E+00
 -0.4100000      0.0000000E+00
 -0.4000000      0.0000000E+00
 -0.3900000      0.0000000E+00
 -0.3800000      0.0000000E+00
 -0.3700000      0.0000000E+00
 -0.3600000      0.0000000E+00
 -0.3500000      0.0000000E+00
 -0.3400000      0.0000000E+00
 -0.3300000      0.0000000E+00
 -0.3200000      0.0000000E+00
 -0.3100000      0.0000000E+00
 -0.3000000      0.0000000E+00
 -0.2900000      0.0000000E+00
 -0.2800000      0.0000000E+00
 -0.2700000      0.0000000E+00
 -0.2600000      0.0000000E+00
 -0.2500000      0.0000000E+00
 -0.2400000      0.0000000E+00
 -0.2300000      0.0000000E+00
 -0.2200000      0.0000000E+00
 -0.2100000      0.0000000E+00
 -0.2000000      0.0000000E+00
 -0.1900000      0.0000000E+00
 -0.1800000      0.0000000E+00
 -0.1700000      0.0000000E+00
 -0.1600000      0.0000000E+00
 -0.1500000      0.0000000E+00
 -0.1400000      0.0000000E+00
 -0.1300000      0.0000000E+00
 -0.1200000      0.0000000E+00
 -0.1100000      0.0000000E+00
 -0.1000000      0.0000000E+00
 -9.0000004E-02  0.0000000E+00
 -7.9999998E-02  0.0000000E+00
 -7.0000000E-02  0.0000000E+00
 -5.9999999E-02  0.0000000E+00
 -5.0000001E-02  0.0000000E+00
 -3.9999999E-02  0.0000000E+00
 -2.9999999E-02  0.0000000E+00
 -2.0000000E-02  0.0000000E+00
 -9.9999998E-03  0.0000000E+00
 -3.4694470E-17  0.0000000E+00
  9.9999998E-03  0.0000000E+00
  2.0000000E-02  0.0000000E+00
  2.9999999E-02  0.0000000E+00
  3.9999999E-02  0.0000000E+00
  5.0000001E-02  0.0000000E+00
  5.9999999E-02  0.0000000E+00
  7.0000000E-02  0.0000000E+00
  7.9999998E-02  0.0000000E+00
  9.0000004E-02  0.0000000E+00
  0.1000000      0.0000000E+00
  0.1100000      0.0000000E+00
  0.1200000      0.0000000E+00
  0.1300000      0.0000000E+00
  0.1400000      0.0000000E+00
  0.1500000      0.0000000E+00
  0.1600000      0.0000000E+00
  0.1700000      0.0000000E+00
  0.1800000      0.0000000E+00
  0.1900000      0.0000000E+00
  0.2000000      0.0000000E+00
  0.2100000      0.0000000E+00
  0.2200000      0.0000000E+00
  0.2300000      0.0000000E+00
  0.2400000      0.0000000E+00
  0.2500000      0.0000000E+00
  0.2600000      0.0000000E+00
  0.2700000      0.0000000E+00
  0.2800000      0.0000000E+00
  0.2900000      0.0000000E+00
  0.3000000      0.0000000E+00
  0.3100000      0.0000000E+00
  0.3200000      0.0000000E+00
  0.3300000      0.0000000E+00
  0.3400000      0.0000000E+00
  0.3500000      0.0000000E+00
  0.3600000      0.0000000E+00
  0.3700000      0.0000000E+00
  0.3800000      0.0000000E+00
  0.3900000      0.0000000E+00
  0.4000000      0.0000000E+00
  0.4100000      0.0000000E+00
  0.4200000      0.0000000E+00
  0.4300000      0.0000000E+00
  0.4400000      0.0000000E+00
  0.4500000      0.0000000E+00
  0.4600000      0.0000000E+00
  0.4700000      0.0000000E+00
  0.4800000      0.0000000E+00
  0.4900000      0.0000000E+00
  0.5000000      0.0000000E+00
  0.5100000      0.0000000E+00
  0.5200000      0.0000000E+00
  0.5300000      0.0000000E+00
  0.5400000      0.0000000E+00
  0.5500000      0.0000000E+00
  0.5600000      0.0000000E+00
  0.5700000      0.0000000E+00
  0.5800000      0.0000000E+00
  0.5900000      0.0000000E+00
  0.6000000      0.0000000E+00
  0.6100000      0.0000000E+00
  0.6200000      0.0000000E+00
  0.6300000      0.0000000E+00
  0.6400000      0.0000000E+00
  0.6500000      0.0000000E+00
  0.6600000      0.0000000E+00
  0.6700000      0.0000000E+00
  0.6800000      0.0000000E+00
  0.6900000      0.0000000E+00
  0.7000000      0.0000000E+00
  0.7100000      0.0000000E+00
  0.7200000      0.0000000E+00
  0.7300000      0.0000000E+00
  0.7400000      0.0000000E+00
  0.7500000      0.0000000E+00
  0.7600000      0.0000000E+00
  0.7700000      0.0000000E+00
  0.7800000      0.0000000E+00
  0.7900000      0.0000000E+00
  0.8000000      0.0000000E+00
  0.8100000      0.0000000E+00
  0.8200000      0.0000000E+00
  0.8300000      0.0000000E+00
  0.8400000      0.0000000E+00
  0.8500000      0.0000000E+00
  0.8600000      0.0000000E+00
  0.8700000      0.0000000E+00
  0.8800000      0.0000000E+00
  0.8900000      0.0000000E+00
  0.9000000      0.0000000E+00
  0.9100000      0.0000000E+00
  0.9200000      0.0000000E+00
  0.9300000      0.0000000E+00
  0.9400000      0.0000000E+00
  0.9500000      0.0000000E+00
  0.9600000      0.0000000E+00
  0.9700000      0.0000000E+00
  0.9800000      0.0000000E+00
  0.9900000      0.0000000E+00
   1.000000      0.0000000E+00
   1.010000      0.0000000E+00
   1.020000      0.0000000E+00
   1.030000      0.0000000E+00
   1.040000      0.0000000E+00
   1.050000      0.0000000E+00
   1.060000      0.0000000E+00
   1.070000      0.0000000E+00
   1.080000      0.0000000E+00
   1.090000      0.0000000E+00
   1.100000      0.0000000E+00
   1.110000      0.0000000E+00
   1.120000      0.0000000E+00
   1.130000      0.0000000E+00
   1.140000      0.0000000E+00
   1.150000      0.0000000E+00
   1.160000      0.0000000E+00
   1.170000      0.0000000E+00
   1.180000      0.0000000E+00
   1.190000      0.0000000E+00
   1.200000      0.0000000E+00
   1.210000      0.0000000E+00
   1.220000      0.0000000E+00
   1.230000      0.0000000E+00
   1.240000      0.0000000E+00
   1.250000      0.0000000E+00
   1.260000      0.0000000E+00
   1.270000      0.0000000E+00
   1.280000      0.0000000E+00
   1.290000      0.0000000E+00
   1.300000      0.0000000E+00
   1.310000      0.0000000E+00
   1.320000      0.0000000E+00
   1.330000      0.0000000E+00
   1.340000      0.0000000E+00
   1.350000      0.0000000E+00
   1.360000      0.0000000E+00
   1.370000      0.0000000E+00
   1.380000      0.0000000E+00
   1.390000      0.0000000E+00
   1.400000      0.0000000E+00
   1.410000      0.0000000E+00
   1.420000      0.0000000E+00
   1.430000      0.0000000E+00
   1.440000      0.0000000E+00
   1.450000      0.0000000E+00
   1.460000      0.0000000E+00
   1.470000      0.0000000E+00
   1.480000      0.0000000E+00
   1.490000      0.0000000E+00
   1.500000      0.0000000E+00
   1.510000      0.0000000E+00
   1.520000      0.0000000E+00
   1.530000      0.0000000E+00
   1.540000      0.0000000E+00
   1.550000      0.0000000E+00
   1.560000      0.0000000E+00
   1.570000      0.0000000E+00
   1.580000      0.0000000E+00
   1.590000      0.0000000E+00
   1.600000      0.0000000E+00
   1.610000      0.0000000E+00
   1.620000      0.0000000E+00
   1.630000      0.0000000E+00
   1.640000      0.0000000E+00
   1.650000      0.0000000E+00
   1.660000      0.0000000E+00
   1.670000      0.0000000E+00
   1.680000      0.0000000E+00
   1.690000      0.0000000E+00
   1.700000      0.0000000E+00
   1.710000      0.0000000E+00
   1.720000      0.0000000E+00
   1.730000      0.0000000E+00
   1.740000      0.0000000E+00
   1.750000      0.0000000E+00
   1.760000      0.0000000E+00
   1.770000      0.0000000E+00
   1.780000      0.0000000E+00
   1.790000      0.0000000E+00
   1.800000      0.0000000E+00
   1.810000      0.0000000E+00
   1.820000      0.0000000E+00
   1.830000      0.0000000E+00
   1.840000      0.0000000E+00
   1.850000      0.0000000E+00
   1.860000      0.0000000E+00
   1.870000      0.0000000E+00
   1.880000      0.0000000E+00
   1.890000      0.0000000E+00
   1.900000      0.0000000E+00
   1.910000      0.0000000E+00
   1.920000      0.0000000E+00
   1.930000      0.0000000E+00
   1.940000      0.0000000E+00
   1.950000      0.0000000E+00
   1.960000      0.0000000E+00
   1.970000      0.0000000E+00
   1.980000      0.0000000E+00
   1.990000      0.0000000E+00
   2.000000      0.0000000E+00
   2.010000      0.0000000E+00
   2.020000      0.0000000E+00
   2.030000      0.0000000E+00
   2.040000      0.0000000E+00
   2.050000      0.0000000E+00
   2.060000      0.0000000E+00
   2.070000      0.0000000E+00
   2.080000      0.0000000E+00
   2.090000      0.0000000E+00
   2.100000      0.0000000E+00
   2.110000      0.0000000E+00
   2.120000      0.0000000E+00
   2.130000      0.0000000E+00
   2.140000      1.2097885E-38
   2.150000      1.4540155E-38
   2.160000      1.7592701E-38
   2.170000      2.1165565E-38
   2.180000      2.5122490E-38
   2.190000      2.9844333E-38
   2.200000      3.5113908E-38
   2.210000      3.9850398E-38
   2.220000      4.2604011E-38
   2.230000      4.3739040E-38
   2.240000      4.4464784E-38
   2.250000      4.4723208E-38
   2.260000      4.4490517E-38
   2.270000      4.3781429E-38
   2.280000      4.2607382E-38
   2.290000      4.0781759E-38
   2.300000      3.7639987E-38
   2.310000      3.3599157E-38
   2.320000      2.9774501E-38
   2.330000      2.5602040E-38
   2.340000      2.0014167E-38
   2.350000      1.2866780E-38
   2.360000      0.0000000E+00
   2.370000      0.0000000E+00
   2.380000     -1.9932369E-38
   2.390000     -3.5443774E-38
   2.400000     -5.1633247E-38
   2.410000     -6.6471220E-38
   2.420000     -7.9988431E-38
   2.430000     -9.4270930E-38
   2.440000     -1.0869899E-37
   2.450000     -1.2361325E-37
   2.460000     -1.4005985E-37
   2.470000     -1.5802980E-37
   2.480000     -1.7560544E-37
   2.490000     -1.9247586E-37
   2.500000     -2.1095788E-37
   2.510000     -2.2851017E-37
   2.520000     -2.4478917E-37
   2.530000     -2.5921219E-37
   2.540000     -2.6949532E-37
   2.550000     -2.7466968E-37
   2.560000     -2.7851329E-37
   2.570000     -2.8482313E-37
   2.580000     -2.9133015E-37
   2.590000     -2.9301398E-37
   2.600000     -2.8719543E-37
   2.610000     -2.7271003E-37
   2.620000     -2.4813359E-37
   2.630000     -2.1478643E-37
   2.640000     -1.7596665E-37
   2.650000     -1.2987768E-37
   2.660000     -7.5080013E-38
   2.670000      0.0000000E+00
   2.680000      6.8684437E-38
   2.690000      1.6131406E-37
   2.700000      2.5742638E-37
   2.710000      3.5283870E-37
   2.720000      4.5657721E-37
   2.730000      5.7015001E-37
   2.740000      6.8949925E-37
   2.750000      8.1808890E-37
   2.760000      9.7067617E-37
   2.770000      1.1504745E-36
   2.780000      1.3379657E-36
   2.790000      1.5259788E-36
   2.800000      1.7143163E-36
   2.810000      1.8973221E-36
   2.820000      2.0795920E-36
   2.830000      2.2690196E-36
   2.840000      2.4456076E-36
   2.850000      2.6002767E-36
   2.860000      2.7460196E-36
   2.870000      2.8770456E-36
   2.880000      2.9918862E-36
   2.890000      3.0679603E-36
   2.900000      2.8873780E-36
   2.910000      2.4533012E-36
   2.920000      1.8218204E-36
   2.930000      9.6556729E-37
   2.940000     -2.5029503E-38
   2.950000     -1.0789300E-36
   2.960000     -2.1544708E-36
   2.970000     -3.2148963E-36
   2.980000     -4.1394814E-36
   2.990000     -4.9103823E-36
   3.000000     -5.6140944E-36
   3.010000     -6.2307837E-36
   3.020000     -6.7666546E-36
   3.030000     -7.2856005E-36
   3.040000     -7.7659633E-36
   3.050000     -8.2314803E-36
   3.060000     -8.7013150E-36
   3.070000     -9.1620673E-36
   3.080000     -9.6200000E-36
   3.090000     -9.8774773E-36
   3.100000     -9.9976010E-36
   3.110000     -1.0230824E-35
   3.120000     -1.0601221E-35
   3.130000     -1.1150746E-35
   3.140000     -1.1528563E-35
   3.150000     -1.1732543E-35
   3.160000     -1.2094254E-35
   3.170000     -1.2578711E-35
   3.180000     -1.3238279E-35
   3.190000     -1.3874027E-35
   3.200000     -1.4299666E-35
   3.210000     -1.4671223E-35
   3.220000     -1.4880418E-35
   3.230000     -1.4867963E-35
   3.240000     -1.4697466E-35
   3.250000     -1.4247766E-35
   3.260000     -1.3452867E-35
   3.270000     -1.2402707E-35
   3.280000     -1.1054472E-35
   3.290000     -9.2517956E-36
   3.300000     -6.9628059E-36
   3.310000     -3.9841417E-36
   3.320000     -3.5228650E-37
   3.330000      3.5634766E-36
   3.340000      8.3334363E-36
   3.350000      1.4069082E-35
   3.360000      2.0176149E-35
   3.370000      2.6307297E-35
   3.380000      3.2413490E-35
   3.390000      3.8726423E-35
   3.400000      4.5170110E-35
   3.410000      5.1354553E-35
   3.420000      5.7285559E-35
   3.430000      6.3153773E-35
   3.440000      6.8494965E-35
   3.450000      7.3256992E-35
   3.460000      7.7425020E-35
   3.470000      8.1062894E-35
   3.480000      8.4358072E-35
   3.490000      8.7325908E-35
   3.500000      9.0161697E-35
   3.510000      9.2805055E-35
   3.520000      9.5368855E-35
   3.530000      9.7969912E-35
   3.540000      1.0046846E-34
   3.550000      1.0276072E-34
   3.560000      1.0454978E-34
   3.570000      1.0520152E-34
   3.580000      1.0438065E-34
   3.590000      1.0215817E-34
   3.600000      9.8993740E-35
   3.610000      9.4205076E-35
   3.620000      8.7397087E-35
   3.630000      7.9278725E-35
   3.640000      7.1912491E-35
   3.650000      6.5649052E-35
   3.660000      5.2215402E-35
   3.670000      3.2255407E-35
   3.680000      1.2163776E-35
   3.690000     -9.2029556E-36
   3.700000     -3.1887606E-35
   3.710000     -6.0329039E-35
   3.720000     -9.5567283E-35
   3.730000     -1.3235021E-34
   3.740000     -1.6262080E-34
   3.750000     -1.8735603E-34
   3.760000     -2.1448541E-34
   3.770000     -2.4115347E-34
   3.780000     -2.6561861E-34
   3.790000     -2.8943426E-34
   3.800000     -3.1260807E-34
   3.810000     -3.3478855E-34
   3.820000     -3.5699630E-34
   3.830000     -3.7635699E-34
   3.840000     -3.9210529E-34
   3.850000     -4.0934373E-34
   3.860000     -4.2335778E-34
   3.870000     -4.3232864E-34
   3.880000     -4.4133683E-34
   3.890000     -4.5028386E-34
   3.900000     -4.5592435E-34
   3.910000     -4.5858845E-34
   3.920000     -4.6187290E-34
   3.930000     -4.6817286E-34
   3.940000     -4.7596758E-34
   3.950000     -4.8725471E-34
   3.960000     -4.9950933E-34
   3.970000     -5.0790980E-34
   3.980000     -5.1217800E-34
   3.990000     -5.1145677E-34
   4.000000     -5.0697643E-34
   4.010000     -4.9716018E-34
   4.020000     -4.8118407E-34
   4.030000     -4.5816862E-34
   4.040000     -4.2720748E-34
   4.050000     -3.8783503E-34
   4.060000     -3.4050986E-34
   4.070000     -2.8449346E-34
   4.080000     -2.1845288E-34
   4.090000     -1.4114193E-34
   4.100000     -5.3556705E-35
   4.110000      4.2157021E-35
   4.120000      1.4570014E-34
   4.130000      2.5718117E-34
   4.140000      3.7620673E-34
   4.150000      5.0212256E-34
   4.160000      6.3326406E-34
   4.170000      7.6473291E-34
   4.180000      9.0140801E-34
   4.190000      1.0465503E-33
   4.200000      1.1925528E-33
   4.210000      1.3376099E-33
   4.220000      1.4818530E-33
   4.230000      1.6240988E-33
   4.240000      1.7653139E-33
   4.250000      1.9052504E-33
   4.260000      2.0441349E-33
   4.270000      2.1807307E-33
   4.280000      2.3105761E-33
   4.290000      2.4333672E-33
   4.300000      2.5510769E-33
   4.310000      2.6626321E-33
   4.320000      2.7674443E-33
   4.330000      2.8640942E-33
   4.340000      2.9491306E-33
   4.350000      3.0256997E-33
   4.360000      3.0963249E-33
   4.370000      3.1567346E-33
   4.380000      3.2033819E-33
   4.390000      3.2369158E-33
   4.400000      3.2543146E-33
   4.410000      3.2541941E-33
   4.420000      3.2368423E-33
   4.430000      3.1987729E-33
   4.440000      3.1386731E-33
   4.450000      3.0554114E-33
   4.460000      2.9472632E-33
   4.470000      2.8121739E-33
   4.480000      2.6481704E-33
   4.490000      2.4527786E-33
   4.500000      2.2252301E-33
   4.510000      1.9655467E-33
   4.520000      1.6724107E-33
   4.530000      1.3440883E-33
   4.540000      9.7990265E-34
   4.550000      5.7986640E-34
   4.560000      1.4373953E-34
   4.570000     -3.2833832E-34
   4.580000     -8.3612353E-34
   4.590000     -1.3793186E-33
   4.600000     -1.9551208E-33
   4.610000     -2.5611153E-33
   4.620000     -3.1968546E-33
   4.630000     -3.8607940E-33
   4.640000     -4.5513598E-33
   4.650000     -5.2666320E-33
   4.660000     -6.0043186E-33
   4.670000     -6.7620856E-33
   4.680000     -7.5374454E-33
   4.690000     -8.3286875E-33
   4.700000     -9.1321710E-33
   4.710000     -9.9435258E-33
   4.720000     -1.0760068E-32
   4.730000     -1.1578363E-32
   4.740000     -1.2394931E-32
   4.750000     -1.3204917E-32
   4.760000     -1.4003999E-32
   4.770000     -1.4787584E-32
   4.780000     -1.5550250E-32
   4.790000     -1.6287460E-32
   4.800000     -1.6993862E-32
   4.810000     -1.7663923E-32
   4.820000     -1.8291321E-32
   4.830000     -1.8869714E-32
   4.840000     -1.9392705E-32
   4.850000     -1.9852771E-32
   4.860000     -2.0244336E-32
   4.870000     -2.0560056E-32
   4.880000     -2.0790487E-32
   4.890000     -2.0929251E-32
   4.900000     -2.0969015E-32
   4.910000     -2.0901342E-32
   4.920000     -2.0718477E-32
   4.930000     -2.0413025E-32
   4.940000     -1.9976652E-32
   4.950000     -1.9401121E-32
   4.960000     -1.8679585E-32
   4.970000     -1.7805034E-32
   4.980000     -1.6770713E-32
   4.990000     -1.5570151E-32
   5.000000     -1.4197907E-32
   5.010000     -1.2648368E-32
   5.020000     -1.0916623E-32
   5.030000     -8.9990205E-33
   5.040000     -6.8916493E-33
   5.050000     -4.5915401E-33
   5.060000     -2.0965678E-33
   5.070000      5.9468149E-34
   5.080000      3.4835896E-33
   5.090000      6.5691275E-33
   5.100000      9.8494268E-33
   5.110000      1.3323270E-32
   5.120000      1.6987605E-32
   5.130000      2.0838388E-32
   5.140000      2.4870545E-32
   5.150000      2.9077880E-32
   5.160000      3.3453065E-32
   5.170000      3.7987578E-32
   5.180000      4.2671694E-32
   5.190000      4.7494412E-32
   5.200000      5.2443446E-32
   5.210000      5.7504661E-32
   5.220000      6.2663511E-32
   5.230000      6.7903859E-32
   5.240000      7.3207373E-32
   5.250000      7.8554626E-32
   5.260000      8.3924319E-32
   5.270000      8.9293595E-32
   5.280000      9.4637928E-32
   5.290000      9.9931067E-32
   5.300000      1.0514504E-31
   5.310000      1.1025013E-31
   5.320000      1.1521487E-31
   5.330000      1.2000610E-31
   5.340000      1.2458902E-31
   5.350000      1.2892724E-31
   5.360000      1.3298288E-31
   5.370000      1.3671658E-31
   5.380000      1.4008774E-31
   5.390000      1.4305444E-31
   5.400000      1.4557364E-31
   5.410000      1.4760148E-31
   5.420000      1.4909312E-31
   5.430000      1.5000325E-31
   5.440000      1.5028578E-31
   5.450000      1.4989416E-31
   5.460000      1.4878183E-31
   5.470000      1.4690203E-31
   5.480000      1.4420815E-31
   5.490000      1.4065386E-31
   5.500000      1.3619323E-31
   5.510000      1.3078106E-31
   5.520000      1.2437296E-31
   5.530000      1.1692568E-31
   5.540000      1.0839727E-31
   5.550000      9.8747309E-32
   5.560000      8.7937122E-32
   5.570000      7.5930100E-32
   5.580000      6.2691882E-32
   5.590000      4.8190652E-32
   5.600000      3.2397438E-32
   5.610000      1.5286374E-32
   5.620000     -3.1649304E-33
   5.630000     -2.2975083E-32
   5.640000     -4.4158574E-32
   5.650000     -6.6725362E-32
   5.660000     -9.0680502E-32
   5.670000     -1.1602375E-31
   5.680000     -1.4274907E-31
   5.690000     -1.7084427E-31
   5.700000     -2.0029055E-31
   5.710000     -2.3106215E-31
   5.720000     -2.6312578E-31
   5.730000     -2.9644026E-31
   5.740000     -3.3095620E-31
   5.750000     -3.6661551E-31
   5.760000     -4.0335109E-31
   5.770000     -4.4108653E-31
   5.780000     -4.7973575E-31
   5.790000     -5.1920274E-31
   5.800000     -5.5938132E-31
   5.810000     -6.0015485E-31
   5.820000     -6.4139608E-31
   5.830000     -6.8296692E-31
   5.840000     -7.2471836E-31
   5.850000     -7.6649026E-31
   5.860000     -8.0811118E-31
   5.870000     -8.4939821E-31
   5.880000     -8.9015702E-31
   5.890000     -9.3018194E-31
   5.900000     -9.6925537E-31
   5.910000     -1.0071484E-30
   5.920000     -1.0436205E-30
   5.930000     -1.0784198E-30
   5.940000     -1.1112825E-30
   5.950000     -1.1419340E-30
   5.960000     -1.1700883E-30
   5.970000     -1.1954484E-30
   5.980000     -1.2177070E-30
   5.990000     -1.2365462E-30
   6.000000     -1.2516384E-30
   6.010000     -1.2626464E-30
   6.020000     -1.2692245E-30
   6.030000     -1.2710186E-30
   6.040000     -1.2676672E-30
   6.050000     -1.2588026E-30
   6.060000     -1.2440513E-30
   6.070000     -1.2230358E-30
   6.080000     -1.1953746E-30
   6.090000     -1.1606849E-30
   6.100000     -1.1185833E-30
   6.110000     -1.0686872E-30
   6.120000     -1.0106171E-30
   6.130000     -9.4399757E-31
   6.140000     -8.6845965E-31
   6.150000     -7.8364260E-31
   6.160000     -6.8919558E-31
   6.170000     -5.8478046E-31
   6.180000     -4.7007351E-31
   6.190000     -3.4476781E-31
   6.200000     -2.0857563E-31
   6.210000     -6.1230613E-32
   6.220000      9.7509396E-32
   6.230000      2.6785978E-31
   6.240000      4.5000646E-31
   6.250000      6.4410343E-31
   6.260000      8.5026920E-31
   6.270000      1.0685843E-30
   6.280000      1.2990877E-30
   6.290000      1.5417738E-30
   6.300000      1.7965887E-30
   6.310000      2.0634274E-30
   6.320000      2.3421292E-30
   6.330000      2.6324754E-30
   6.340000      2.9341832E-30
   6.350000      3.2469042E-30
   6.360000      3.5702197E-30
   6.370000      3.9036358E-30
   6.380000      4.2465807E-30
   6.390000      4.5984007E-30
   6.400000      4.9583552E-30
   6.410000      5.3256138E-30
   6.420000      5.6992521E-30
   6.430000      6.0782492E-30
   6.440000      6.4614822E-30
   6.450000      6.8477252E-30
   6.460000      7.2356458E-30
   6.470000      7.6237990E-30
   6.480000      8.0106310E-30
   6.490000      8.3944726E-30
   6.500000      8.7735378E-30
   6.510000      9.1459238E-30
   6.520000      9.5096094E-30
   6.530000      9.8624540E-30
   6.540000      1.0202199E-29
   6.550000      1.0526464E-29
   6.560000      1.0832753E-29
   6.570000      1.1118453E-29
   6.580000      1.1380838E-29
   6.590000      1.1617064E-29
   6.600000      1.1824184E-29
   6.610000      1.1999145E-29
   6.620000      1.2138788E-29
   6.630000      1.2239865E-29
   6.640000      1.2299034E-29
   6.650000      1.2312873E-29
   6.660000      1.2277884E-29
   6.670000      1.2190505E-29
   6.680000      1.2047118E-29
   6.690000      1.1844058E-29
   6.700000      1.1577628E-29
   6.710000      1.1244112E-29
   6.720000      1.0839790E-29
   6.730000      1.0360950E-29
   6.740000      9.8039065E-30
   6.750000      9.1650206E-30
   6.760000      8.4407160E-30
   6.770000      7.6275041E-30
   6.780000      6.7219996E-30
   6.790000      5.7209486E-30
   6.800000      4.6212501E-30
   6.810000      3.4199806E-30
   6.820000      2.1144219E-30
   6.830000      7.0208652E-31
   6.840000     -8.1925317E-31
   6.850000     -2.4515354E-30
   6.860000     -4.1963820E-30
   6.870000     -6.0550677E-30
   6.880000     -8.0284857E-30
   6.890000     -1.0117123E-29
   6.900000     -1.2321024E-29
   6.910000     -1.4639761E-29
   6.920000     -1.7072400E-29
   6.930000     -1.9617465E-29
   6.940000     -2.2272918E-29
   6.950000     -2.5036108E-29
   6.960000     -2.7903761E-29
   6.970000     -3.0871929E-29
   6.980000     -3.3935975E-29
   6.990000     -3.7090531E-29
   7.000000     -4.0329473E-29
   7.010000     -4.3645888E-29
   7.020000     -4.7032058E-29
   7.030000     -5.0479421E-29
   7.040000     -5.3978556E-29
   7.050000     -5.7519162E-29
   7.060000     -6.1090034E-29