  -2.600000      0.0000000E+00
  -2.590000      0.0000000E+00
  -2.580000      0.0000000E+00
  -2.570000      0.0000000E+00
  -2.560000      0.0000000E+00
  -2.550000      0.0000000E+00
  -2.540000      0.0000000E+00
  -2.530000      0.0000000E+00
  -2.520000      0.0000000E+00
  -2.510000      0.0000000E+00
  -2.500000      0.0000000E+00
  -2.490000      0.0000000E+00
  -2.480000      0.0000000E+00
  -2.470000      0.0000000E+00
  -2.460000      0.0000000E+00
  -2.450000      0.0000000E+00
  -2.440000      0.0000000E+00
  -2.430000      0.0000000E+00
  -2.420000      0.0000000E+00
  -2.410000      0.0000000E+00
  -2.400000      0.0000000E+00
  -2.390000      0.0000000E+00
  -2.380000      0.0000000E+00
  -2.370000      0.0000000E+00
  -2.360000      0.0000000E+00
  -2.350000      0.0000000E+00
  -2.340000      0.0000000E+00
  -2.330000      0.0000000E+00
  -2.320000      0.0000000E+00
  -2.310000      0.0000000E+00
  -2.300000      0.0000000E+00
  -2.290000      0.0000000E+00
  -2.280000      0.0000000E+00
  -2.270000      0.0000000E+00
  -2.260000      0.0000000E+00
  -2.250000      0.0000000E+00
  -2.240000      0.0000000E+00
  -2.230000      0.0000000E+00
  -2.220000      0.0000000E+00
  -2.210000      0.0000000E+00
  -2.200000      0.0000000E+00
  -2.190000      0.0000000E+00
  -2.180000      0.0000000E+00
  -2.170000      0.0000000E+00
  -2.160000      0.0000000E+00
  -2.150000      0.0000000E+00
  -2.140000      0.0000000E+00
  -2.130000      0.0000000E+00
  -2.120000      0.0000000E+00
  -2.110000      0.0000000E+00
  -2.100000      0.0000000E+00
  -2.090000      0.0000000E+00
  -2.080000      0.0000000E+00
  -2.070000      0.0000000E+00
  -2.060000      0.0000000E+00
  -2.050000      0.0000000E+00
  -2.040000      0.0000000E+00
  -2.030000      0.0000000E+00
  -2.020000      0.0000000E+00
  -2.010000      0.0000000E+00
  -2.000000      0.0000000E+00
  -1.990000      0.0000000E+00
  -1.980000      0.0000000E+00
  -1.970000      0.0000000E+00
  -1.960000      0.0000000E+00
  -1.950000      0.0000000E+00
  -1.940000      0.0000000E+00
  -1.930000      0.0000000E+00
  -1.920000      0.0000000E+00
  -1.910000      0.0000000E+00
  -1.900000      0.0000000E+00
  -1.890000      0.0000000E+00
  -1.880000      0.0000000E+00
  -1.870000      0.0000000E+00
  -1.860000      0.0000000E+00
  -1.850000      0.0000000E+00
  -1.840000      0.0000000E+00
  -1.830000      0.0000000E+00
  -1.820000      0.0000000E+00
  -1.810000      0.0000000E+00
  -1.800000      0.0000000E+00
  -1.790000      0.0000000E+00
  -1.780000      0.0000000E+00
  -1.770000      0.0000000E+00
  -1.760000      0.0000000E+00
  -1.750000      0.0000000E+00
  -1.740000      0.0000000E+00
  -1.730000      0.0000000E+00
  -1.720000      0.0000000E+00
  -1.710000      0.0000000E+00
  -1.700000      0.0000000E+00
  -1.690000      0.0000000E+00
  -1.680000      0.0000000E+00
  -1.670000      0.0000000E+00
  -1.660000      0.0000000E+00
  -1.650000      0.0000000E+00
  -1.640000      0.0000000E+00
  -1.630000      0.0000000E+00
  -1.620000      0.0000000E+00
  -1.610000      0.0000000E+00
  -1.600000      0.0000000E+00
  -1.590000      0.0000000E+00
  -1.580000      0.0000000E+00
  -1.570000      0.0000000E+00
  -1.560000      0.0000000E+00
  -1.550000      0.0000000E+00
  -1.540000      0.0000000E+00
  -1.530000      0.0000000E+00
  -1.520000      0.0000000E+00
  -1.510000      0.0000000E+00
  -1.500000      0.0000000E+00
  -1.490000      0.0000000E+00
  -1.480000      0.0000000E+00
  -1.470000      0.0000000E+00
  -1.460000      0.0000000E+00
  -1.450000      0.0000000E+00
  -1.440000      0.0000000E+00
  -1.430000      0.0000000E+00
  -1.420000      0.0000000E+00
  -1.410000      0.0000000E+00
  -1.400000      0.0000000E+00
  -1.390000      0.0000000E+00
  -1.380000      0.0000000E+00
  -1.370000      0.0000000E+00
  -1.360000      0.0000000E+00
  -1.350000      0.0000000E+00
  -1.340000      0.0000000E+00
  -1.330000      0.0000000E+00
  -1.320000      0.0000000E+00
  -1.310000      0.0000000E+00
  -1.300000      0.0000000E+00
  -1.290000      0.0000000E+00
  -1.280000      0.0000000E+00
  -1.270000      0.0000000E+00
  -1.260000      0.0000000E+00
  -1.250000      0.0000000E+00
  -1.240000      0.0000000E+00
  -1.230000      0.0000000E+00
  -1.220000      0.0000000E+00
  -1.210000      0.0000000E+00
  -1.200000      0.0000000E+00
  -1.190000      0.0000000E+00
  -1.180000      0.0000000E+00
  -1.170000      0.0000000E+00
  -1.160000      0.0000000E+00
  -1.150000      0.0000000E+00
  -1.140000      0.0000000E+00
  -1.130000      0.0000000E+00
  -1.120000      0.0000000E+00
  -1.110000      0.0000000E+00
  -1.100000      0.0000000E+00
  -1.090000      0.0000000E+00
  -1.080000      0.0000000E+00
  -1.070000      0.0000000E+00
  -1.060000      0.0000000E+00
  -1.050000      0.0000000E+00
  -1.040000      0.0000000E+00
  -1.030000      0.0000000E+00
  -1.020000      0.0000000E+00
  -1.010000      0.0000000E+00
  -1.000000      0.0000000E+00
 -0.9900000      0.0000000E+00
 -0.9800000      0.0000000E+00
 -0.9700000      0.0000000E+00
 -0.9600000      0.0000000E+00
 -0.9500000      0.0000000E+00
 -0.9400000      0.0000000E+00
 -0.9300000      0.0000000E+00
 -0.9200000      0.0000000E+00
 -0.9100000      0.0000000E+00
 -0.9000000      0.0000000E+00
 -0.8900000      0.0000000E+00
 -0.8800000      0.0000000E+00
 -0.8700000      0.0000000E+00
 -0.8600000      0.0000000E+00
 -0.8500000      0.0000000E+00
 -0.8400000      0.0000000E+00
 -0.8300000      0.0000000E+00
 -0.8200000      0.0000000E+00
 -0.8100000      0.0000000E+00
 -0.8000000      0.0000000E+00
 -0.7900000      0.0000000E+00
 -0.7800000      0.0000000E+00
 -0.7700000      0.0000000E+00
 -0.7600000      0.0000000E+00
 -0.7500000      0.0000000E+00
 -0.7400000      0.0000000E+00
 -0.7300000      0.0000000E+00
 -0.7200000      0.0000000E+00
 -0.7100000      0.0000000E+00
 -0.7000000      0.0000000E+00
 -0.6900000      0.0000000E+00
 -0.6800000      0.0000000E+00
 -0.6700000      0.0000000E+00
 -0.6600000      0.0000000E+00
 -0.6500000      0.0000000E+00
 -0.6400000      0.0000000E+00
 -0.6300000      0.0000000E+00
 -0.6200000      0.0000000E+00
 -0.6100000      0.0000000E+00
 -0.6000000      0.0000000E+00
 -0.5900000      0.0000000E+00
 -0.5800000      0.0000000E+00
 -0.5700000      0.0000000E+00
 -0.5600000      0.0000000E+00
 -0.5500000      0.0000000E+00
 -0.5400000      0.0000000E+00
 -0.5300000      0.0000000E+00
 -0.5200000      0.0000000E+00
 -0.5100000      0.0000000E+00
 -0.5000000      0.0000000E+00
 -0.4900000      0.0000000E+00
 -0.4800000      0.0000000E+00
 -0.4700000      0.0000000E+00
 -0.4600000      0.0000000E+00
 -0.4500000      0.0000000E+00
 -0.4400000      0.0000000E+00
 -0.4300000      0.0000000E+00
 -0.4200000      0.0000000E+00
 -0.4100000      0.0000000E+00
 -0.4000000      0.0000000E+00
 -0.3900000      0.0000000E+00
 -0.3800000      0.0000000E+00
 -0.3700000      0.0000000E+00
 -0.3600000      0.0000000E+00
 -0.3500000      0.0000000E+00
 -0.3400000      0.0000000E+00
 -0.3300000      0.0000000E+00
 -0.3200000      0.0000000E+00
 -0.3100000      0.0000000E+00
 -0.3000000      1.3456200E-38
 -0.2900000      2.2507293E-38
 -0.2800000      3.3931854E-38
 -0.2700000      4.7465297E-38
 -0.2600000      6.1357983E-38
 -0.2500000      7.3368327E-38
 -0.2400000      8.1714153E-38
 -0.2300000      8.3734113E-38
 -0.2200000      7.7701041E-38
 -0.2100000      6.4416794E-38
 -0.2000000      4.2195737E-38
 -0.1900000      0.0000000E+00
 -0.1800000     -3.1005783E-38
 -0.1700000     -7.9973353E-38
 -0.1600000     -1.3360554E-37
 -0.1500000     -1.9183765E-37
 -0.1400000     -2.5433661E-37
 -0.1300000     -3.1628851E-37
 -0.1200000     -3.7565496E-37
 -0.1100000     -4.2797915E-37
 -0.1000000     -4.6765953E-37
 -9.0000004E-02 -4.9293317E-37
 -7.9999998E-02 -5.0064556E-37
 -7.0000000E-02 -4.8562799E-37
 -5.9999999E-02 -4.3899345E-37
 -5.0000001E-02 -3.5443858E-37
 -3.9999999E-02 -2.2820128E-37
 -2.9999999E-02 -5.8688577E-38
 -2.0000000E-02  1.5808742E-37
 -9.9999998E-03  4.7845181E-37
 -3.4694470E-17  8.9314971E-37
  9.9999998E-03  1.4511084E-36
  2.0000000E-02  2.1749851E-36
  2.9999999E-02  2.9595285E-36
  3.9999999E-02  3.7613053E-36
  5.0000001E-02  4.4793452E-36
  5.9999999E-02  5.0081781E-36
  7.0000000E-02  5.4530820E-36
  7.9999998E-02  5.8425585E-36
  9.0000004E-02  5.9197936E-36
  0.1000000      5.6525706E-36
  0.1100000      4.9745480E-36
  0.1200000      3.6771338E-36
  0.1300000      1.8264414E-36
  0.1400000     -4.4194227E-37
  0.1500000     -2.7310456E-36
  0.1600000     -4.9080527E-36
  0.1700000     -7.3743946E-36
  0.1800000     -1.0073587E-35
  0.1900000     -1.3808421E-35
  0.2000000     -1.8556666E-35
  0.2100000     -2.3159061E-35
  0.2200000     -2.7466731E-35
  0.2300000     -3.1343443E-35
  0.2400000     -3.4275613E-35
  0.2500000     -3.5907042E-35
  0.2600000     -3.6407769E-35
  0.2700000     -3.3744141E-35
  0.2800000     -2.6693244E-35
  0.2900000     -1.6155071E-35
  0.3000000     -1.5066261E-36
  0.3100000      1.8121257E-35
  0.3200000      4.2991680E-35
  0.3300000      7.5369782E-35
  0.3400000      1.1652257E-34
  0.3500000      1.6229372E-34
  0.3600000      2.1232961E-34
  0.3700000      2.6717416E-34
  0.3800000      3.2680646E-34
  0.3900000      3.8888627E-34
  0.4000000      4.5185874E-34
  0.4100000      5.1914877E-34
  0.4200000      5.9087858E-34
  0.4300000      6.6750819E-34
  0.4400000      7.4873407E-34
  0.4500000      8.3306743E-34
  0.4600000      9.2032511E-34
  0.4700000      1.0146201E-33
  0.4800000      1.1184090E-33
  0.4900000      1.2293965E-33
  0.5000000      1.3477084E-33
  0.5100000      1.4741009E-33
  0.5200000      1.6084895E-33
  0.5300000      1.7480677E-33
  0.5400000      1.8896917E-33
  0.5500000      2.0361509E-33
  0.5600000      2.1859912E-33
  0.5700000      2.3347448E-33
  0.5800000      2.4814421E-33
  0.5900000      2.6247145E-33
  0.6000000      2.7595378E-33
  0.6100000      2.8802773E-33
  0.6200000      2.9847122E-33
  0.6300000      3.0714841E-33
  0.6400000      3.1396341E-33
  0.6500000      3.1854090E-33
  0.6600000      3.2041952E-33
  0.6700000      3.1928609E-33
  0.6800000      3.1487284E-33
  0.6900000      3.0696397E-33
  0.7000000      2.9531169E-33
  0.7100000      2.7954045E-33
  0.7200000      2.5973202E-33
  0.7300000      2.3617322E-33
  0.7400000      2.0889010E-33
  0.7500000      1.7767009E-33
  0.7600000      1.4251833E-33
  0.7700000      1.0382009E-33
  0.7800000      6.1775879E-34
  0.7900000      1.6627443E-34
  0.8000000     -3.1309255E-34
  0.8100000     -8.1713746E-34
  0.8200000     -1.3424565E-33
  0.8300000     -1.8853181E-33
  0.8400000     -2.4425103E-33
  0.8500000     -3.0107187E-33
  0.8600000     -3.5869556E-33
  0.8700000     -4.1701584E-33
  0.8800000     -4.7556119E-33
  0.8900000     -5.3393514E-33
  0.9000000     -5.9210264E-33
  0.9100000     -6.4988660E-33
  0.9200000     -7.0711032E-33
  0.9300000     -7.6361494E-33
  0.9400000     -8.1926608E-33
  0.9500000     -8.7391106E-33
  0.9600000     -9.2738151E-33
  0.9700000     -9.7948713E-33
  0.9800000     -1.0300082E-32
  0.9900000     -1.0786912E-32
   1.000000     -1.1252459E-32
   1.010000     -1.1693454E-32
   1.020000     -1.2106372E-32
   1.030000     -1.2487523E-32
   1.040000     -1.2833258E-32
   1.050000     -1.3140156E-32
   1.060000     -1.3405188E-32
   1.070000     -1.3626229E-32
   1.080000     -1.3802267E-32
   1.090000     -1.3933665E-32
   1.100000     -1.4021445E-32
   1.110000     -1.4071255E-32
   1.120000     -1.4091205E-32
   1.130000     -1.4089634E-32
   1.140000     -1.4078978E-32
   1.150000     -1.4074679E-32
   1.160000     -1.4095209E-32
   1.170000     -1.4161890E-32
   1.180000     -1.4298943E-32
   1.190000     -1.4533025E-32
   1.200000     -1.4892711E-32
   1.210000     -1.5408305E-32
   1.220000     -1.6111205E-32
   1.230000     -1.7033366E-32
   1.240000     -1.8206749E-32
   1.250000     -1.9662797E-32
   1.260000     -2.1431980E-32
   1.270000     -2.3543419E-32
   1.280000     -2.6024687E-32
   1.290000     -2.8901533E-32
   1.300000     -3.2198066E-32
   1.310000     -3.5937157E-32
   1.320000     -4.0140652E-32
   1.330000     -4.4830040E-32
   1.340000     -5.0027188E-32
   1.350000     -5.5755266E-32
   1.360000     -6.2039312E-32
   1.370000     -6.8908302E-32
   1.380000     -7.6395425E-32
   1.390000     -8.4538274E-32
   1.400000     -9.3380689E-32
   1.410000     -1.0297296E-31
   1.420000     -1.1337220E-31
   1.430000     -1.2464230E-31
   1.440000     -1.3685373E-31
   1.450000     -1.5008286E-31
   1.460000     -1.6441105E-31
   1.470000     -1.7992334E-31
   1.480000     -1.9670699E-31
   1.490000     -2.1484964E-31
   1.500000     -2.3443744E-31
   1.510000     -2.5555322E-31
   1.520000     -2.7827450E-31
   1.530000     -3.0267183E-31
   1.540000     -3.2880747E-31
   1.550000     -3.5673411E-31
   1.560000     -3.8649448E-31
   1.570000     -4.1812108E-31
   1.580000     -4.5163673E-31
   1.590000     -4.8705560E-31
   1.600000     -5.2438488E-31
   1.610000     -5.6362664E-31
   1.620000     -6.0478028E-31
   1.630000     -6.4784522E-31
   1.640000     -6.9282372E-31
   1.650000     -7.3972360E-31
   1.660000     -7.8856035E-31
   1.670000     -8.3935920E-31
   1.680000     -8.9215601E-31
   1.690000     -9.4699828E-31
   1.700000     -1.0039437E-30
   1.710000     -1.0630590E-30
   1.720000     -1.1244164E-30
   1.730000     -1.1880899E-30
   1.740000     -1.2541502E-30
   1.750000     -1.3226583E-30
   1.760000     -1.3936589E-30
   1.770000     -1.4671730E-30
   1.780000     -1.5431902E-30
   1.790000     -1.6216616E-30
   1.800000     -1.7024929E-30
   1.810000     -1.7855385E-30
   1.820000     -1.8705963E-30
   1.830000     -1.9574052E-30
   1.840000     -2.0456429E-30
   1.850000     -2.1349268E-30
   1.860000     -2.2248166E-30
   1.870000     -2.3148186E-30
   1.880000     -2.4043917E-30
   1.890000     -2.4929561E-30
   1.900000     -2.5799011E-30
   1.910000     -2.6645963E-30
   1.920000     -2.7464015E-30
   1.930000     -2.8246761E-30
   1.940000     -2.8987888E-30
   1.950000     -2.9681253E-30
   1.960000     -3.0320929E-30
   1.970000     -3.0901253E-30
   1.980000     -3.1416819E-30
   1.990000     -3.1862461E-30
   2.000000     -3.2233206E-30
   2.010000     -3.2524183E-30
   2.020000     -3.2730525E-30
   2.030000     -3.2847243E-30
   2.040000     -3.2869105E-30
   2.050000     -3.2790473E-30
   2.060000     -3.2605197E-30
   2.070000     -3.2306482E-30
   2.080000     -3.1886791E-30
   2.090000     -3.1337812E-30
   2.100000     -3.0650408E-30
   2.110000     -2.9814682E-30
   2.120000     -2.8820056E-30
   2.130000     -2.7655408E-30
   2.140000     -2.6309288E-30
   2.150000     -2.4770135E-30
   2.160000     -2.3026597E-30
   2.170000     -2.1067836E-30
   2.180000     -1.8883886E-30
   2.190000     -1.6465975E-30
   2.200000     -1.3806882E-30
   2.210000     -1.0901235E-30
   2.220000     -7.7457719E-31
   2.230000     -4.3395330E-31
   2.240000     -6.8398231E-32
   2.250000      3.2169272E-31
   2.260000      7.3568225E-31
   2.270000      1.1727048E-30
   2.280000      1.6316896E-30
   2.290000      2.1113906E-30
   2.300000      2.6104256E-30
   2.310000      3.1273181E-30
   2.320000      3.6605402E-30
   2.330000      4.2085639E-30
   2.340000      4.7699014E-30
   2.350000      5.3431462E-30
   2.360000      5.9270031E-30
   2.370000      6.5203148E-30
   2.380000      7.1220686E-30
   2.390000      7.7313952E-30
   2.400000      8.3475604E-30
   2.410000      8.9699382E-30
   2.420000      9.5979704E-30
   2.430000      1.0231118E-29
   2.440000      1.0868815E-29
   2.450000      1.1510407E-29
   2.460000      1.2155093E-29
   2.470000      1.2801865E-29
   2.480000      1.3449479E-29
   2.490000      1.4096406E-29
   2.500000      1.4740832E-29
   2.510000      1.5380650E-29
   2.520000      1.6013495E-29
   2.530000      1.6636792E-29
   2.540000      1.7247833E-29
   2.550000      1.7843876E-29
   2.560000      1.8422268E-29
   2.570000      1.8980574E-29
   2.580000      1.9516751E-29
   2.590000      2.0029282E-29
   2.600000      2.0517348E-29
   2.610000      2.0980980E-29
   2.620000      2.1421205E-29
   2.630000      2.1840161E-29
   2.640000      2.2241211E-29
   2.650000      2.2628992E-29
   2.660000      2.3009448E-29
   2.670000      2.3389840E-29
   2.680000      2.3778700E-29
   2.690000      2.4185753E-29
   2.700000      2.4621811E-29
   2.710000      2.5098656E-29
   2.720000      2.5628870E-29
   2.730000      2.6225686E-29
   2.740000      2.6902810E-29
   2.750000      2.7674319E-29
   2.760000      2.8554487E-29
   2.770000      2.9557713E-29
   2.780000      3.0698399E-29
   2.790000      3.1990963E-29
   2.800000      3.3449897E-29
   2.810000      3.5089794E-29
   2.820000      3.6925376E-29
   2.830000      3.8971782E-29
   2.840000      4.1244668E-29
   2.850000      4.3760426E-29
   2.860000      4.6536384E-29
   2.870000      4.9590966E-29
   2.880000      5.2943898E-29
   2.890000      5.6616322E-29
   2.900000      6.0630820E-29
   2.910000      6.5011462E-29
   2.920000      6.9783664E-29
   2.930000      7.4974021E-29
   2.940000      8.0610014E-29
   2.950000      8.6719642E-29
   2.960000      9.3330884E-29
   2.970000      1.0047122E-28
   2.980000      1.0816692E-28
   2.990000      1.1644240E-28
   3.000000      1.2531942E-28
   3.010000      1.3481629E-28
   3.020000      1.4494735E-28
   3.030000      1.5572206E-28
   3.040000      1.6714444E-28
   3.050000      1.7921251E-28
   3.060000      1.9191784E-28
   3.070000      2.0524513E-28
   3.080000      2.1917215E-28
   3.090000      2.3366944E-28
   3.100000      2.4870032E-28
   3.110000      2.6422112E-28
   3.120000      2.8018118E-28
   3.130000      2.9652304E-28
   3.140000      3.1318283E-28
   3.150000      3.3009050E-28
   3.160000      3.4716984E-28
   3.170000      3.6433881E-28
   3.180000      3.8150934E-28
   3.190000      3.9858748E-28
   3.200000      4.1547297E-28
   3.210000      4.3205913E-28
   3.220000      4.4823188E-28
   3.230000      4.6386966E-28
   3.240000      4.7884237E-28
   3.250000      4.9301077E-28
   3.260000      5.0622549E-28
   3.270000      5.1832620E-28
   3.280000      5.2914126E-28
   3.290000      5.3848679E-28
   3.300000      5.4616638E-28
   3.310000      5.5197094E-28
   3.320000      5.5567874E-28
   3.330000      5.5705612E-28
   3.340000      5.5585824E-28
   3.350000      5.5183006E-28
   3.360000      5.4470865E-28
   3.370000      5.3422441E-28
   3.380000      5.2010398E-28
   3.390000      5.0207251E-28
   3.400000      4.7985715E-28
   3.410000      4.5318947E-28
   3.420000      4.2180923E-28
   3.430000      3.8546732E-28
   3.440000      3.4392910E-28
   3.450000      2.9697820E-28
   3.460000      2.4441924E-28
   3.470000      1.8608020E-28
   3.480000      1.2181583E-28
   3.490000      5.1509767E-29
   3.500000     -2.4923219E-29
   3.510000     -1.0753521E-28
   3.520000     -1.9634359E-28
   3.530000     -2.9132834E-28
   3.540000     -3.9243100E-28
   3.550000     -4.9955320E-28
   3.560000     -6.1255396E-28
   3.570000     -7.3124748E-28
   3.580000     -8.5540101E-28
   3.590000     -9.8473174E-28
   3.600000     -1.1189029E-27
   3.610000     -1.2575204E-27
   3.620000     -1.4001291E-27
   3.630000     -1.5462075E-27
   3.640000     -1.6951617E-27
   3.650000     -1.8463205E-27
   3.660000     -1.9989298E-27
   3.670000     -2.1521472E-27
   3.680000     -2.3050354E-27
   3.690000     -2.4565583E-27
   3.700000     -2.6055748E-27
   3.710000     -2.7508348E-27
   3.720000     -2.8909763E-27
   3.730000     -3.0245231E-27
   3.740000     -3.1498844E-27
   3.750000     -3.2653537E-27
   3.760000     -3.3691109E-27
   3.770000     -3.4592236E-27
   3.780000     -3.5336558E-27
   3.790000     -3.5902685E-27
   3.800000     -3.6268312E-27
   3.810000     -3.6410260E-27
   3.820000     -3.6304592E-27
   3.830000     -3.5926736E-27
   3.840000     -3.5251563E-27
   3.850000     -3.4253496E-27
   3.860000     -3.2906662E-27
   3.870000     -3.1184993E-27
   3.880000     -2.9062366E-27
   3.890000     -2.6512752E-27
   3.900000     -2.3510318E-27
   3.910000     -2.0029577E-27
   3.920000     -1.6045552E-27
   3.930000     -1.1533888E-27
   3.940000     -6.4710442E-28
   3.950000     -8.3446506E-29
   3.960000      5.3972372E-28
   3.970000      1.2244092E-27
   3.980000      1.9724533E-27
   3.990000      2.7855156E-27
   4.000000      3.6650431E-27
   4.010000      4.6122421E-27
   4.020000      5.6280442E-27
   4.030000      6.7130769E-27
   4.040000      7.8676149E-27
   4.050000      9.0915434E-27
   4.060000      1.0384323E-26
   4.070000      1.1744935E-26
   4.080000      1.3171837E-26
   4.090000      1.4662921E-26
   4.100000      1.6215460E-26
   4.110000      1.7826058E-26
   4.120000      1.9490601E-26
   4.130000      2.1204211E-26
   4.140000      2.2961217E-26
   4.150000      2.4755084E-26
   4.160000      2.6578385E-26
   4.170000      2.8422763E-26
   4.180000      3.0278891E-26
   4.190000      3.2136452E-26
   4.200000      3.3984072E-26
   4.210000      3.5809336E-26
   4.220000      3.7598741E-26
   4.230000      3.9337674E-26
   4.240000      4.1010404E-26
   4.250000      4.2600060E-26
   4.260000      4.4088613E-26
   4.270000      4.5456883E-26
   4.280000      4.6684526E-26
   4.290000      4.7749982E-26
   4.300000      4.8630545E-26
   4.310000      4.9302306E-26
   4.320000      4.9740207E-26
   4.330000      4.9918033E-26
   4.340000      4.9808409E-26
   4.350000      4.9382819E-26
   4.360000      4.8611667E-26
   4.370000      4.7464312E-26
   4.380000      4.5909095E-26
   4.390000      4.3913415E-26
   4.400000      4.1443806E-26
   4.410000      3.8466004E-26
   4.420000      3.4945084E-26
   4.430000      3.0845568E-26
   4.440000      2.6131511E-26
   4.450000      2.0766679E-26
   4.460000      1.4714704E-26
   4.470000      7.9393126E-27
   4.480000      4.0446850E-28
   4.490000     -7.9253743E-27
   4.500000     -1.7085051E-26
   4.510000     -2.7108469E-26
   4.520000     -3.8028362E-26
   4.530000     -4.9875962E-26
   4.540000     -6.2680694E-26
   4.550000     -7.6469939E-26
   4.560000     -9.1268686E-26
   4.570000     -1.0709920E-25
   4.580000     -1.2398072E-25
   4.590000     -1.4192913E-25
   4.600000     -1.6095649E-25
   4.610000     -1.8107079E-25
   4.620000     -2.0227556E-25
   4.630000     -2.2456937E-25
   4.640000     -2.4794554E-25
   4.650000     -2.7239167E-25
   4.660000     -2.9788914E-25
   4.670000     -3.2441279E-25
   4.680000     -3.5193055E-25
   4.690000     -3.8040271E-25
   4.700000     -4.0978159E-25
   4.710000     -4.4001113E-25
   4.720000     -4.7102613E-25
   4.730000     -5.0275210E-25
   4.740000     -5.3510452E-25
   4.750000     -5.6798823E-25
   4.760000     -6.0129734E-25
   4.770000     -6.3491435E-25
   4.780000     -6.6870990E-25
   4.790000     -7.0254207E-25
   4.800000     -7.3625601E-25
   4.810000     -7.6968384E-25
   4.820000     -8.0264354E-25
   4.830000     -8.3493926E-25
   4.840000     -8.6636077E-25
   4.850000     -8.9668281E-25
   4.860000     -9.2566566E-25
   4.870000     -9.5305422E-25
   4.880000     -9.7857811E-25
   4.890000     -1.0019516E-24
   4.900000     -1.0228737E-24
   4.910000     -1.0410282E-24
   4.920000     -1.0560827E-24
   4.930000     -1.0676912E-24
   4.940000     -1.0754914E-24
   4.950000     -1.0791080E-24
   4.960000     -1.0781502E-24
   4.970000     -1.0722143E-24
   4.980000     -1.0608840E-24
   4.990000     -1.0437302E-24
   5.000000     -1.0203119E-24
   5.010000     -9.9017821E-25
   5.020000     -9.5286844E-25
   5.030000     -9.0791274E-25
   5.040000     -8.5483364E-25
   5.050000     -7.9314831E-25
   5.060000     -7.2236989E-25
   5.070000     -6.4200794E-25
   5.080000     -5.5157046E-25
   5.090000     -4.5056767E-25
   5.100000     -3.3851249E-25
   5.110000     -2.1492244E-25
   5.120000     -7.9323816E-26
   5.130000      6.8746368E-26
   5.140000      2.2973836E-25
   5.150000      4.0408626E-25
   5.160000      5.9220469E-25
   5.170000      7.9448543E-25
   5.180000      1.0112935E-24
   5.190000      1.2429635E-24
   5.200000      1.4897970E-24
   5.210000      1.7520577E-24
   5.220000      2.0299669E-24
   5.230000      2.3236985E-24
   5.240000      2.6333759E-24
   5.250000      2.9590673E-24
   5.260000      3.3007798E-24
   5.270000      3.6584553E-24
   5.280000      4.0319655E-24
   5.290000      4.4211078E-24
   5.300000      4.8255978E-24
   5.310000      5.2450648E-24
   5.320000      5.6790487E-24
   5.330000      6.1269923E-24
   5.340000      6.5882338E-24
   5.350000      7.0620059E-24
   5.360000      7.5474307E-24
   5.370000      8.0435082E-24
   5.380000      8.5491152E-24
   5.390000      9.0629989E-24
   5.400000      9.5837717E-24
   5.410000      1.0109906E-23
   5.420000      1.0639730E-23
   5.430000      1.1171421E-23
   5.440000      1.1703002E-23
   5.450000      1.2232340E-23
   5.460000      1.2757130E-23
   5.470000      1.3274904E-23
   5.480000      1.3783028E-23
   5.490000      1.4278687E-23
   5.500000      1.4758890E-23
   5.510000      1.5220472E-23
   5.520000      1.5660082E-23
   5.530000      1.6074190E-23
   5.540000      1.6459087E-23
   5.550000      1.6810875E-23
   5.560000      1.7125484E-23
   5.570000      1.7398655E-23
   5.580000      1.7625966E-23
   5.590000      1.7802809E-23
   5.600000      1.7924423E-23
   5.610000      1.7985876E-23
   5.620000      1.7982075E-23
   5.630000      1.7907785E-23
   5.640000      1.7757625E-23
   5.650000      1.7526101E-23
   5.660000      1.7207589E-23
   5.670000      1.6796360E-23
   5.680000      1.6286587E-23
   5.690000      1.5672371E-23
   5.700000      1.4947755E-23
   5.710000      1.4106737E-23
   5.720000      1.3143298E-23
   5.730000      1.2051400E-23
   5.740000      1.0825040E-23
   5.750000      9.4582679E-24
   5.760000      7.9452004E-24
   5.770000      6.2800416E-24
   5.780000      4.4571367E-24
   5.790000      2.4709954E-24
   5.800000      3.1631745E-25
   5.810000     -2.0119817E-24
   5.820000     -4.5187219E-24
   5.830000     -7.2084098E-24
   5.840000     -1.0085215E-23
   5.850000     -1.3152929E-23
   5.860000     -1.6414902E-23
   5.870000     -1.9874013E-23
   5.880000     -2.3532630E-23
   5.890000     -2.7392545E-23
   5.900000     -3.1454945E-23
   5.910000     -3.5720348E-23
   5.920000     -4.0188554E-23
   5.930000     -4.4858588E-23
   5.940000     -4.9728640E-23
   5.950000     -5.4796027E-23
   5.960000     -6.0057129E-23
   5.970000     -6.5507344E-23
   5.980000     -7.1141010E-23
   5.990000     -7.6951368E-23
   6.000000     -8.2930492E-23
   6.010000     -8.9069244E-23
   6.020000     -9.5357197E-23
   6.030000     -1.0178260E-22
   6.040000     -1.0833234E-22
   6.050000     -1.1499183E-22
   6.060000     -1.2174499E-22
   6.070000     -1.2857423E-22
   6.080000     -1.3546035E-22
   6.090000     -1.4238255E-22
   6.100000     -1.4931831E-22
   6.110000     -1.5624334E-22
   6.120000     -1.6313173E-22
   6.130000     -1.6995570E-22
   6.140000     -1.7668563E-22
   6.150000     -1.8329009E-22
   6.160000     -1.8973578E-22
   6.170000     -1.9598749E-22
   6.180000     -2.0200818E-22
   6.190000     -2.0775888E-22
   6.200000     -2.1319868E-22
   6.210000     -2.1828491E-22
   6.220000     -2.2297301E-22
   6.230000     -2.2721660E-22
   6.240000     -2.3096749E-22
   6.250000     -2.3417572E-22
   6.260000     -2.3678966E-22
   6.270000     -2.3875606E-22
   6.280000     -2.4002016E-22
   6.290000     -2.4052566E-22
   6.300000     -2.4021496E-22
   6.310000     -2.3902927E-22
   6.320000     -2.3690846E-22
   6.330000     -2.3379154E-22
   6.340000     -2.2961666E-22
   6.350000     -2.2432132E-22
   6.360000     -2.1784244E-22
   6.370000     -2.1011651E-22
   6.380000     -2.0108008E-22
   6.390000     -1.9066969E-22
   6.400000     -1.7882221E-22
   6.410000     -1.6547512E-22
   6.420000     -1.5056670E-22
   6.430000     -1.3403640E-22
   6.440000     -1.1582495E-22
   6.450000     -9.5874702E-23
   6.460000     -7.4130143E-23
   6.470000     -5.0538282E-23
   6.480000     -2.5048691E-23
   6.490000      2.3860717E-24
   6.500000      3.1809844E-23
   6.510000      6.3262612E-23
   6.520000      9.6780163E-23
   6.530000      1.3239354E-22
   6.540000      1.7012862E-22
   6.550000      2.1000596E-22
   6.560000      2.5203980E-22
   6.570000      2.9623797E-22
   6.580000      3.4260133E-22
   6.590000      3.9112337E-22
   6.600000      4.4178962E-22
   6.610000      4.9457727E-22
   6.620000      5.4945452E-22
   6.630000      6.0638009E-22
   6.640000      6.6530282E-22
   6.650000      7.2616103E-22
   6.660000      7.8888226E-22
   6.670000      8.5338241E-22
   6.680000      9.1956584E-22
   6.690000      9.8732427E-22
   6.700000      1.0565367E-21
   6.710000      1.1270689E-21
   6.720000      1.1987728E-21
   6.730000      1.2714862E-21
   6.740000      1.3450319E-21
   6.750000      1.4192184E-21
   6.760000      1.4938387E-21
   6.770000      1.5686702E-21
   6.780000      1.6434742E-21
   6.790000      1.7179964E-21
   6.800000      1.7919658E-21
   6.810000      1.8650950E-21
   6.820000      1.9370801E-21
   6.830000      2.0076005E-21
   6.840000      2.0763187E-21
   6.850000      2.1428808E-21
   6.860000      2.2069161E-21
   6.870000      2.2680374E-21
   6.880000      2.3258412E-21
   6.890000      2.3799087E-21
   6.900000      2.4298047E-21
   6.910000      2.4750801E-21
   6.920000      2.5152702E-21
   6.930000      2.5498971E-21
   6.940000      2.5784682E-21
   6.950000      2.6004797E-21
   6.960000      2.6154165E-21
   6.970000      2.6227516E-21
   6.980000      2.6219497E-21
   6.990000      2.6124668E-21
   7.000000      2.5937510E-21
   7.010000      2.5652448E-21
   7.020000      2.5263879E-21
   7.030000      2.4766163E-21
   7.040000      2.4153650E-21
   7.050000      2.3420692E-21
   7.060000      2.2561682E-21