  -2.600000      0.0000000E+00
  -2.590000      0.0000000E+00
  -2.580000      0.0000000E+00
  -2.570000      0.0000000E+00
  -2.560000      0.0000000E+00
  -2.550000      0.0000000E+00
  -2.540000      0.0000000E+00
  -2.530000      0.0000000E+00
  -2.520000      0.0000000E+00
  -2.510000      0.0000000E+00
  -2.500000      0.0000000E+00
  -2.490000      0.0000000E+00
  -2.480000      0.0000000E+00
  -2.470000      0.0000000E+00
  -2.460000      0.0000000E+00
  -2.450000      0.0000000E+00
  -2.440000      0.0000000E+00
  -2.430000      0.0000000E+00
  -2.420000      0.0000000E+00
  -2.410000      0.0000000E+00
  -2.400000      0.0000000E+00
  -2.390000      0.0000000E+00
  -2.380000      0.0000000E+00
  -2.370000      0.0000000E+00
  -2.360000      0.0000000E+00
  -2.350000      0.0000000E+00
  -2.340000      0.0000000E+00
  -2.330000      0.0000000E+00
  -2.320000      0.0000000E+00
  -2.310000      0.0000000E+00
  -2.300000      0.0000000E+00
  -2.290000      0.0000000E+00
  -2.280000      0.0000000E+00
  -2.270000      0.0000000E+00
  -2.260000      0.0000000E+00
  -2.250000      0.0000000E+00
  -2.240000      0.0000000E+00
  -2.230000      0.0000000E+00
  -2.220000      0.0000000E+00
  -2.210000      0.0000000E+00
  -2.200000      0.0000000E+00
  -2.190000      0.0000000E+00
  -2.180000      0.0000000E+00
  -2.170000      0.0000000E+00
  -2.160000      0.0000000E+00
  -2.150000      0.0000000E+00
  -2.140000      0.0000000E+00
  -2.130000      0.0000000E+00
  -2.120000      0.0000000E+00
  -2.110000      0.0000000E+00
  -2.100000      0.0000000E+00
  -2.090000      0.0000000E+00
  -2.080000      0.0000000E+00
  -2.070000      0.0000000E+00
  -2.060000      0.0000000E+00
  -2.050000      0.0000000E+00
  -2.040000      0.0000000E+00
  -2.030000      0.0000000E+00
  -2.020000      0.0000000E+00
  -2.010000      0.0000000E+00
  -2.000000      0.0000000E+00
  -1.990000      0.0000000E+00
  -1.980000      0.0000000E+00
  -1.970000      0.0000000E+00
  -1.960000      0.0000000E+00
  -1.950000      0.0000000E+00
  -1.940000      0.0000000E+00
  -1.930000      0.0000000E+00
  -1.920000      0.0000000E+00
  -1.910000      0.0000000E+00
  -1.900000      0.0000000E+00
  -1.890000      0.0000000E+00
  -1.880000      0.0000000E+00
  -1.870000      0.0000000E+00
  -1.860000      0.0000000E+00
  -1.850000      0.0000000E+00
  -1.840000      0.0000000E+00
  -1.830000      0.0000000E+00
  -1.820000      0.0000000E+00
  -1.810000      0.0000000E+00
  -1.800000      0.0000000E+00
  -1.790000      0.0000000E+00
  -1.780000      0.0000000E+00
  -1.770000      0.0000000E+00
  -1.760000      0.0000000E+00
  -1.750000      0.0000000E+00
  -1.740000      0.0000000E+00
  -1.730000      0.0000000E+00
  -1.720000      0.0000000E+00
  -1.710000      0.0000000E+00
  -1.700000      0.0000000E+00
  -1.690000      0.0000000E+00
  -1.680000      0.0000000E+00
  -1.670000      0.0000000E+00
  -1.660000      0.0000000E+00
  -1.650000      0.0000000E+00
  -1.640000      0.0000000E+00
  -1.630000      0.0000000E+00
  -1.620000      0.0000000E+00
  -1.610000      0.0000000E+00
  -1.600000      0.0000000E+00
  -1.590000      0.0000000E+00
  -1.580000      0.0000000E+00
  -1.570000      0.0000000E+00
  -1.560000      0.0000000E+00
  -1.550000      0.0000000E+00
  -1.540000      0.0000000E+00
  -1.530000      0.0000000E+00
  -1.520000      0.0000000E+00
  -1.510000      0.0000000E+00
  -1.500000      0.0000000E+00
  -1.490000      0.0000000E+00
  -1.480000      0.0000000E+00
  -1.470000      0.0000000E+00
  -1.460000      0.0000000E+00
  -1.450000      0.0000000E+00
  -1.440000      0.0000000E+00
  -1.430000      0.0000000E+00
  -1.420000      0.0000000E+00
  -1.410000      0.0000000E+00
  -1.400000      0.0000000E+00
  -1.390000      0.0000000E+00
  -1.380000      0.0000000E+00
  -1.370000      0.0000000E+00
  -1.360000      0.0000000E+00
  -1.350000      0.0000000E+00
  -1.340000      0.0000000E+00
  -1.330000      0.0000000E+00
  -1.320000      0.0000000E+00
  -1.310000      0.0000000E+00
  -1.300000      0.0000000E+00
  -1.290000      0.0000000E+00
  -1.280000      0.0000000E+00
  -1.270000      0.0000000E+00
  -1.260000      0.0000000E+00
  -1.250000      0.0000000E+00
  -1.240000      0.0000000E+00
  -1.230000      0.0000000E+00
  -1.220000      0.0000000E+00
  -1.210000      0.0000000E+00
  -1.200000      0.0000000E+00
  -1.190000      0.0000000E+00
  -1.180000      0.0000000E+00
  -1.170000      0.0000000E+00
  -1.160000      0.0000000E+00
  -1.150000      0.0000000E+00
  -1.140000      0.0000000E+00
  -1.130000      0.0000000E+00
  -1.120000      0.0000000E+00
  -1.110000      0.0000000E+00
  -1.100000      0.0000000E+00
  -1.090000      0.0000000E+00
  -1.080000      0.0000000E+00
  -1.070000      0.0000000E+00
  -1.060000      0.0000000E+00
  -1.050000      0.0000000E+00
  -1.040000      0.0000000E+00
  -1.030000      0.0000000E+00
  -1.020000      0.0000000E+00
  -1.010000      0.0000000E+00
  -1.000000      0.0000000E+00
 -0.9900000      0.0000000E+00
 -0.9800000      0.0000000E+00
 -0.9700000      0.0000000E+00
 -0.9600000      0.0000000E+00
 -0.9500000      0.0000000E+00
 -0.9400000      0.0000000E+00
 -0.9300000      0.0000000E+00
 -0.9200000      0.0000000E+00
 -0.9100000      0.0000000E+00
 -0.9000000      0.0000000E+00
 -0.8900000      0.0000000E+00
 -0.8800000      0.0000000E+00
 -0.8700000      0.0000000E+00
 -0.8600000      0.0000000E+00
 -0.8500000      0.0000000E+00
 -0.8400000      0.0000000E+00
 -0.8300000      0.0000000E+00
 -0.8200000      0.0000000E+00
 -0.8100000      0.0000000E+00
 -0.8000000      0.0000000E+00
 -0.7900000      0.0000000E+00
 -0.7800000      0.0000000E+00
 -0.7700000      0.0000000E+00
 -0.7600000      0.0000000E+00
 -0.7500000      0.0000000E+00
 -0.7400000      0.0000000E+00
 -0.7300000      0.0000000E+00
 -0.7200000      0.0000000E+00
 -0.7100000      0.0000000E+00
 -0.7000000      0.0000000E+00
 -0.6900000      0.0000000E+00
 -0.6800000      0.0000000E+00
 -0.6700000      0.0000000E+00
 -0.6600000      0.0000000E+00
 -0.6500000      0.0000000E+00
 -0.6400000      0.0000000E+00
 -0.6300000      0.0000000E+00
 -0.6200000      0.0000000E+00
 -0.6100000      0.0000000E+00
 -0.6000000      0.0000000E+00
 -0.5900000      0.0000000E+00
 -0.5800000      0.0000000E+00
 -0.5700000      0.0000000E+00
 -0.5600000      0.0000000E+00
 -0.5500000      0.0000000E+00
 -0.5400000      0.0000000E+00
 -0.5300000      0.0000000E+00
 -0.5200000      0.0000000E+00
 -0.5100000      0.0000000E+00
 -0.5000000      0.0000000E+00
 -0.4900000      0.0000000E+00
 -0.4800000      0.0000000E+00
 -0.4700000      0.0000000E+00
 -0.4600000      0.0000000E+00
 -0.4500000      0.0000000E+00
 -0.4400000      0.0000000E+00
 -0.4300000      0.0000000E+00
 -0.4200000      0.0000000E+00
 -0.4100000      0.0000000E+00
 -0.4000000      0.0000000E+00
 -0.3900000      0.0000000E+00
 -0.3800000      0.0000000E+00
 -0.3700000      0.0000000E+00
 -0.3600000      0.0000000E+00
 -0.3500000      0.0000000E+00
 -0.3400000      0.0000000E+00
 -0.3300000      0.0000000E+00
 -0.3200000      0.0000000E+00
 -0.3100000      0.0000000E+00
 -0.3000000      0.0000000E+00
 -0.2900000      0.0000000E+00
 -0.2800000      0.0000000E+00
 -0.2700000      0.0000000E+00
 -0.2600000      0.0000000E+00
 -0.2500000      0.0000000E+00
 -0.2400000      0.0000000E+00
 -0.2300000      0.0000000E+00
 -0.2200000      0.0000000E+00
 -0.2100000      0.0000000E+00
 -0.2000000      0.0000000E+00
 -0.1900000      0.0000000E+00
 -0.1800000      0.0000000E+00
 -0.1700000      0.0000000E+00
 -0.1600000      0.0000000E+00
 -0.1500000      0.0000000E+00
 -0.1400000      0.0000000E+00
 -0.1300000      0.0000000E+00
 -0.1200000      0.0000000E+00
 -0.1100000      0.0000000E+00
 -0.1000000      0.0000000E+00
 -9.0000004E-02  0.0000000E+00
 -7.9999998E-02  0.0000000E+00
 -7.0000000E-02  0.0000000E+00
 -5.9999999E-02  0.0000000E+00
 -5.0000001E-02  0.0000000E+00
 -3.9999999E-02  0.0000000E+00
 -2.9999999E-02  0.0000000E+00
 -2.0000000E-02  0.0000000E+00
 -9.9999998E-03  0.0000000E+00
 -3.4694470E-17  0.0000000E+00
  9.9999998E-03  0.0000000E+00
  2.0000000E-02  0.0000000E+00
  2.9999999E-02  0.0000000E+00
  3.9999999E-02  0.0000000E+00
  5.0000001E-02  0.0000000E+00
  5.9999999E-02  0.0000000E+00
  7.0000000E-02  0.0000000E+00
  7.9999998E-02  0.0000000E+00
  9.0000004E-02  0.0000000E+00
  0.1000000      0.0000000E+00
  0.1100000      0.0000000E+00
  0.1200000      0.0000000E+00
  0.1300000      0.0000000E+00
  0.1400000      0.0000000E+00
  0.1500000      0.0000000E+00
  0.1600000      0.0000000E+00
  0.1700000      0.0000000E+00
  0.1800000      0.0000000E+00
  0.1900000      0.0000000E+00
  0.2000000      0.0000000E+00
  0.2100000      0.0000000E+00
  0.2200000      0.0000000E+00
  0.2300000      0.0000000E+00
  0.2400000      0.0000000E+00
  0.2500000      0.0000000E+00
  0.2600000      0.0000000E+00
  0.2700000      0.0000000E+00
  0.2800000      0.0000000E+00
  0.2900000      0.0000000E+00
  0.3000000      0.0000000E+00
  0.3100000      0.0000000E+00
  0.3200000      0.0000000E+00
  0.3300000      0.0000000E+00
  0.3400000      0.0000000E+00
  0.3500000      0.0000000E+00
  0.3600000      0.0000000E+00
  0.3700000      0.0000000E+00
  0.3800000      0.0000000E+00
  0.3900000      0.0000000E+00
  0.4000000      0.0000000E+00
  0.4100000      0.0000000E+00
  0.4200000      0.0000000E+00
  0.4300000      0.0000000E+00
  0.4400000      0.0000000E+00
  0.4500000      0.0000000E+00
  0.4600000      0.0000000E+00
  0.4700000      0.0000000E+00
  0.4800000      0.0000000E+00
  0.4900000      0.0000000E+00
  0.5000000      0.0000000E+00
  0.5100000      0.0000000E+00
  0.5200000      0.0000000E+00
  0.5300000      0.0000000E+00
  0.5400000      0.0000000E+00
  0.5500000      0.0000000E+00
  0.5600000      0.0000000E+00
  0.5700000      0.0000000E+00
  0.5800000      0.0000000E+00
  0.5900000      0.0000000E+00
  0.6000000      0.0000000E+00
  0.6100000      0.0000000E+00
  0.6200000      0.0000000E+00
  0.6300000      0.0000000E+00
  0.6400000      0.0000000E+00
  0.6500000      0.0000000E+00
  0.6600000      0.0000000E+00
  0.6700000      0.0000000E+00
  0.6800000      0.0000000E+00
  0.6900000      0.0000000E+00
  0.7000000      0.0000000E+00
  0.7100000      0.0000000E+00
  0.7200000      0.0000000E+00
  0.7300000      0.0000000E+00
  0.7400000      0.0000000E+00
  0.7500000      0.0000000E+00
  0.7600000      0.0000000E+00
  0.7700000      0.0000000E+00
  0.7800000      0.0000000E+00
  0.7900000      0.0000000E+00
  0.8000000      0.0000000E+00
  0.8100000      0.0000000E+00
  0.8200000      0.0000000E+00
  0.8300000      0.0000000E+00
  0.8400000      0.0000000E+00
  0.8500000      0.0000000E+00
  0.8600000      0.0000000E+00
  0.8700000      0.0000000E+00
  0.8800000      0.0000000E+00
  0.8900000      0.0000000E+00
  0.9000000      0.0000000E+00
  0.9100000      0.0000000E+00
  0.9200000      0.0000000E+00
  0.9300000      0.0000000E+00
  0.9400000      0.0000000E+00
  0.9500000      0.0000000E+00
  0.9600000      0.0000000E+00
  0.9700000      0.0000000E+00
  0.9800000      0.0000000E+00
  0.9900000      0.0000000E+00
   1.000000      0.0000000E+00
   1.010000      0.0000000E+00
   1.020000      0.0000000E+00
   1.030000      0.0000000E+00
   1.040000      0.0000000E+00
   1.050000      0.0000000E+00
   1.060000      0.0000000E+00
   1.070000      0.0000000E+00
   1.080000      0.0000000E+00
   1.090000      0.0000000E+00
   1.100000      0.0000000E+00
   1.110000      0.0000000E+00
   1.120000      0.0000000E+00
   1.130000      0.0000000E+00
   1.140000      0.0000000E+00
   1.150000      0.0000000E+00
   1.160000      0.0000000E+00
   1.170000      0.0000000E+00
   1.180000      0.0000000E+00
   1.190000      0.0000000E+00
   1.200000      0.0000000E+00
   1.210000      0.0000000E+00
   1.220000      0.0000000E+00
   1.230000      0.0000000E+00
   1.240000      0.0000000E+00
   1.250000      0.0000000E+00
   1.260000      0.0000000E+00
   1.270000      0.0000000E+00
   1.280000      0.0000000E+00
   1.290000      0.0000000E+00
   1.300000      0.0000000E+00
   1.310000      0.0000000E+00
   1.320000      0.0000000E+00
   1.330000      0.0000000E+00
   1.340000      0.0000000E+00
   1.350000      0.0000000E+00
   1.360000      0.0000000E+00
   1.370000      0.0000000E+00
   1.380000      0.0000000E+00
   1.390000      0.0000000E+00
   1.400000      0.0000000E+00
   1.410000      0.0000000E+00
   1.420000      0.0000000E+00
   1.430000      0.0000000E+00
   1.440000      0.0000000E+00
   1.450000      0.0000000E+00
   1.460000      0.0000000E+00
   1.470000      0.0000000E+00
   1.480000      0.0000000E+00
   1.490000      0.0000000E+00
   1.500000      0.0000000E+00
   1.510000      0.0000000E+00
   1.520000      0.0000000E+00
   1.530000      0.0000000E+00
   1.540000      0.0000000E+00
   1.550000      0.0000000E+00
   1.560000      0.0000000E+00
   1.570000      0.0000000E+00
   1.580000      0.0000000E+00
   1.590000      0.0000000E+00
   1.600000      0.0000000E+00
   1.610000      0.0000000E+00
   1.620000      0.0000000E+00
   1.630000      0.0000000E+00
   1.640000      0.0000000E+00
   1.650000      0.0000000E+00
   1.660000      0.0000000E+00
   1.670000      0.0000000E+00
   1.680000      0.0000000E+00
   1.690000      0.0000000E+00
   1.700000      0.0000000E+00
   1.710000      0.0000000E+00
   1.720000      0.0000000E+00
   1.730000      0.0000000E+00
   1.740000      0.0000000E+00
   1.750000      0.0000000E+00
   1.760000      0.0000000E+00
   1.770000      0.0000000E+00
   1.780000      0.0000000E+00
   1.790000      0.0000000E+00
   1.800000      0.0000000E+00
   1.810000      0.0000000E+00
   1.820000      0.0000000E+00
   1.830000      0.0000000E+00
   1.840000      0.0000000E+00
   1.850000      0.0000000E+00
   1.860000      0.0000000E+00
   1.870000      0.0000000E+00
   1.880000      0.0000000E+00
   1.890000      0.0000000E+00
   1.900000      0.0000000E+00
   1.910000      0.0000000E+00
   1.920000      0.0000000E+00
   1.930000      0.0000000E+00
   1.940000      0.0000000E+00
   1.950000      0.0000000E+00
   1.960000      0.0000000E+00
   1.970000      0.0000000E+00
   1.980000      0.0000000E+00
   1.990000      0.0000000E+00
   2.000000      0.0000000E+00
   2.010000      0.0000000E+00
   2.020000      0.0000000E+00
   2.030000      0.0000000E+00
   2.040000      0.0000000E+00
   2.050000      0.0000000E+00
   2.060000      0.0000000E+00
   2.070000      0.0000000E+00
   2.080000      0.0000000E+00
   2.090000      0.0000000E+00
   2.100000      0.0000000E+00
   2.110000      0.0000000E+00
   2.120000      0.0000000E+00
   2.130000      0.0000000E+00
   2.140000      0.0000000E+00
   2.150000      0.0000000E+00
   2.160000      0.0000000E+00
   2.170000      0.0000000E+00
   2.180000      0.0000000E+00
   2.190000      0.0000000E+00
   2.200000      0.0000000E+00
   2.210000      0.0000000E+00
   2.220000      0.0000000E+00
   2.230000      0.0000000E+00
   2.240000      0.0000000E+00
   2.250000      0.0000000E+00
   2.260000      0.0000000E+00
   2.270000      0.0000000E+00
   2.280000      0.0000000E+00
   2.290000      0.0000000E+00
   2.300000      0.0000000E+00
   2.310000      0.0000000E+00
   2.320000      0.0000000E+00
   2.330000      0.0000000E+00
   2.340000      0.0000000E+00
   2.350000      0.0000000E+00
   2.360000      0.0000000E+00
   2.370000      0.0000000E+00
   2.380000      0.0000000E+00
   2.390000      0.0000000E+00
   2.400000      0.0000000E+00
   2.410000      0.0000000E+00
   2.420000      0.0000000E+00
   2.430000      0.0000000E+00
   2.440000      1.2311237E-38
   2.450000      1.3457454E-38
   2.460000      1.4549133E-38
   2.470000      1.5615410E-38
   2.480000      1.6840511E-38
   2.490000      1.8250234E-38
   2.500000      1.9878959E-38
   2.510000      2.1940773E-38
   2.520000      2.4590145E-38
   2.530000      2.7722529E-38
   2.540000      3.1323084E-38
   2.550000      3.5264301E-38
   2.560000      3.9399042E-38
   2.570000      4.3807732E-38
   2.580000      4.7800589E-38
   2.590000      5.0803241E-38
   2.600000      5.3414274E-38
   2.610000      5.6129935E-38
   2.620000      5.8944135E-38
   2.630000      6.1878375E-38
   2.640000      6.5121658E-38
   2.650000      6.8888348E-38
   2.660000      7.2994595E-38
   2.670000      7.7526316E-38
   2.680000      8.2634980E-38
   2.690000      8.7931619E-38
   2.700000      9.3903572E-38
   2.710000      1.0049666E-37
   2.720000      1.0690584E-37
   2.730000      1.1188626E-37
   2.740000      1.1511841E-37
   2.750000      1.2016326E-37
   2.760000      1.2681017E-37
   2.770000      1.3281530E-37
   2.780000      1.3343411E-37
   2.790000      1.2738168E-37
   2.800000      1.1246966E-37
   2.810000      8.8348701E-38
   2.820000      6.0109763E-38
   2.830000      2.7472426E-38
   2.840000      0.0000000E+00
   2.850000     -5.1823834E-38
   2.860000     -9.9174466E-38
   2.870000     -1.5322196E-37
   2.880000     -2.0905947E-37
   2.890000     -2.6950808E-37
   2.900000     -3.3995400E-37
   2.910000     -4.1856045E-37
   2.920000     -4.9503812E-37
   2.930000     -5.6542335E-37
   2.940000     -6.3640837E-37
   2.950000     -7.0527150E-37
   2.960000     -7.6903565E-37
   2.970000     -8.3132800E-37
   2.980000     -8.9479378E-37
   2.990000     -9.5823076E-37
   3.000000     -1.0212298E-36
   3.010000     -1.0806389E-36
   3.020000     -1.1325857E-36
   3.030000     -1.1767156E-36
   3.040000     -1.2192593E-36
   3.050000     -1.2622862E-36
   3.060000     -1.3007231E-36
   3.070000     -1.3340473E-36
   3.080000     -1.3648449E-36
   3.090000     -1.3919468E-36
   3.100000     -1.4141242E-36
   3.110000     -1.4327171E-36
   3.120000     -1.4441298E-36
   3.130000     -1.4483271E-36
   3.140000     -1.4513064E-36
   3.150000     -1.4555751E-36
   3.160000     -1.4520314E-36
   3.170000     -1.4355501E-36
   3.180000     -1.4118465E-36
   3.190000     -1.3802262E-36
   3.200000     -1.3390292E-36
   3.210000     -1.2905076E-36
   3.220000     -1.2179785E-36
   3.230000     -1.1083550E-36
   3.240000     -9.6703925E-37
   3.250000     -7.9396333E-37
   3.260000     -5.8168653E-37
   3.270000     -3.5651365E-37
   3.280000     -1.3649514E-37
   3.290000      1.2912042E-37
   3.300000      4.6417265E-37
   3.310000      8.4507544E-37
   3.320000      1.2601519E-36
   3.330000      1.7537800E-36
   3.340000      2.3129600E-36
   3.350000      2.8880708E-36
   3.360000      3.4955707E-36
   3.370000      4.0636411E-36
   3.380000      4.5509381E-36
   3.390000      5.0142579E-36
   3.400000      5.4028372E-36
   3.410000      5.6607676E-36
   3.420000      5.8377106E-36
   3.430000      5.9906543E-36
   3.440000      6.0656039E-36
   3.450000      5.9354956E-36
   3.460000      5.7087886E-36
   3.470000      5.6267174E-36
   3.480000      5.5616491E-36
   3.490000      5.4343328E-36
   3.500000      5.1741338E-36
   3.510000      4.7339692E-36
   3.520000      4.2795108E-36
   3.530000      4.1555203E-36
   3.540000      4.2490175E-36
   3.550000      4.1100524E-36
   3.560000      3.9677537E-36
   3.570000      3.8151690E-36
   3.580000      3.5176299E-36
   3.590000      3.0084677E-36
   3.600000      2.1928794E-36
   3.610000      1.1342788E-36
   3.620000     -1.3871383E-37
   3.630000     -1.6249260E-36
   3.640000     -3.3573841E-36
   3.650000     -5.3698180E-36
   3.660000     -7.7474742E-36
   3.670000     -1.0400761E-35
   3.680000     -1.3463737E-35
   3.690000     -1.6896925E-35
   3.700000     -2.0551099E-35
   3.710000     -2.4545662E-35
   3.720000     -2.8833574E-35
   3.730000     -3.3438168E-35
   3.740000     -3.8302657E-35
   3.750000     -4.3039288E-35
   3.760000     -4.7188373E-35
   3.770000     -5.0727454E-35
   3.780000     -5.4016852E-35
   3.790000     -5.7197764E-35
   3.800000     -6.0006570E-35
   3.810000     -6.2391486E-35
   3.820000     -6.4556158E-35
   3.830000     -6.6498192E-35
   3.840000     -6.8368290E-35
   3.850000     -7.0091324E-35
   3.860000     -7.1657309E-35
   3.870000     -7.2960667E-35
   3.880000     -7.3900942E-35
   3.890000     -7.4664026E-35
   3.900000     -7.4801860E-35
   3.910000     -7.3603814E-35
   3.920000     -7.1343926E-35
   3.930000     -6.8774145E-35
   3.940000     -6.5996695E-35
   3.950000     -6.3519215E-35
   3.960000     -6.1348832E-35
   3.970000     -5.8805505E-35
   3.980000     -5.5279068E-35
   3.990000     -5.0711859E-35
   4.000000     -4.5620875E-35
   4.010000     -3.9335967E-35
   4.020000     -3.1693572E-35
   4.030000     -2.2406465E-35
   4.040000     -1.1440122E-35
   4.050000      6.2295739E-37
   4.060000      1.4451993E-35
   4.070000      2.9121007E-35
   4.080000      4.4304655E-35
   4.090000      6.1405150E-35
   4.100000      8.0138375E-35
   4.110000      9.9927420E-35
   4.120000      1.2102831E-34
   4.130000      1.4332629E-34
   4.140000      1.6637142E-34
   4.150000      1.9022766E-34
   4.160000      2.1487741E-34
   4.170000      2.3955895E-34
   4.180000      2.6426259E-34
   4.190000      2.9006134E-34
   4.200000      3.1649706E-34
   4.210000      3.4292398E-34
   4.220000      3.6999794E-34
   4.230000      3.9704558E-34
   4.240000      4.2396986E-34
   4.250000      4.5250081E-34
   4.260000      4.8186392E-34
   4.270000      5.1109429E-34
   4.280000      5.4088113E-34
   4.290000      5.7063877E-34
   4.300000      5.9912472E-34
   4.310000      6.2689330E-34
   4.320000      6.5428801E-34
   4.330000      6.7906123E-34
   4.340000      7.0097240E-34
   4.350000      7.1926102E-34
   4.360000      7.3101932E-34
   4.370000      7.3696737E-34
   4.380000      7.3615710E-34
   4.390000      7.2663757E-34
   4.400000      7.1280889E-34
   4.410000      6.9842552E-34
   4.420000      6.8031263E-34
   4.430000      6.5724323E-34
   4.440000      6.3414472E-34
   4.450000      6.0889496E-34
   4.460000      5.7622770E-34
   4.470000      5.3387657E-34
   4.480000      4.8262983E-34
   4.490000      4.2322494E-34
   4.500000      3.5271445E-34
   4.510000      2.7130208E-34
   4.520000      1.7853305E-34
   4.530000      7.4363655E-35
   4.540000     -3.7446300E-35
   4.550000     -1.5374397E-34
   4.560000     -2.7542785E-34
   4.570000     -4.0642804E-34
   4.580000     -5.4816810E-34
   4.590000     -6.9889930E-34
   4.600000     -8.5647657E-34
   4.610000     -1.0233783E-33
   4.620000     -1.2025610E-33
   4.630000     -1.3908670E-33
   4.640000     -1.5853183E-33
   4.650000     -1.7886089E-33
   4.660000     -2.0017102E-33
   4.670000     -2.2187983E-33
   4.680000     -2.4376393E-33
   4.690000     -2.6600412E-33
   4.700000     -2.8846214E-33
   4.710000     -3.1094566E-33
   4.720000     -3.3326591E-33
   4.730000     -3.5508852E-33
   4.740000     -3.7623633E-33
   4.750000     -3.9650872E-33
   4.760000     -4.1575230E-33
   4.770000     -4.3385021E-33
   4.780000     -4.5050296E-33
   4.790000     -4.6563499E-33
   4.800000     -4.7913649E-33
   4.810000     -4.9060550E-33
   4.820000     -4.9975217E-33
   4.830000     -5.0616115E-33
   4.840000     -5.0949400E-33
   4.850000     -5.0948728E-33
   4.860000     -5.0600774E-33
   4.870000     -4.9900521E-33
   4.880000     -4.8773061E-33
   4.890000     -4.7181041E-33
   4.900000     -4.5123375E-33
   4.910000     -4.2538775E-33
   4.920000     -3.9400800E-33
   4.930000     -3.5681576E-33
   4.940000     -3.1327046E-33
   4.950000     -2.6309681E-33
   4.960000     -2.0581979E-33
   4.970000     -1.4108225E-33
   4.980000     -6.8560933E-34
   4.990000      1.1873763E-34
   5.000000      1.0038094E-33
   5.010000      1.9744635E-33
   5.020000      3.0333882E-33
   5.030000      4.1829147E-33
   5.040000      5.4249215E-33
   5.050000      6.7605237E-33
   5.060000      8.1879360E-33
   5.070000      9.7062053E-33
   5.080000      1.1317737E-32
   5.090000      1.3020225E-32
   5.100000      1.4811899E-32
   5.110000      1.6690893E-32
   5.120000      1.8651958E-32
   5.130000      2.0690734E-32
   5.140000      2.2801584E-32
   5.150000      2.4977888E-32
   5.160000      2.7212183E-32
   5.170000      2.9496151E-32
   5.180000      3.1820335E-32
   5.190000      3.4173975E-32
   5.200000      3.6545276E-32
   5.210000      3.8921159E-32
   5.220000      4.1287435E-32
   5.230000      4.3628761E-32
   5.240000      4.5927851E-32
   5.250000      4.8166736E-32
   5.260000      5.0326169E-32
   5.270000      5.2387122E-32
   5.280000      5.4325630E-32
   5.290000      5.6115755E-32
   5.300000      5.7734258E-32
   5.310000      5.9154549E-32
   5.320000      6.0348452E-32
   5.330000      6.1286502E-32
   5.340000      6.1937708E-32
   5.350000      6.2270209E-32
   5.360000      6.2249873E-32
   5.370000      6.1841106E-32
   5.380000      6.1008016E-32
   5.390000      5.9713273E-32
   5.400000      5.7918006E-32
   5.410000      5.5582892E-32
   5.420000      5.2667713E-32
   5.430000      4.9131265E-32
   5.440000      4.4932111E-32
   5.450000      4.0028298E-32
   5.460000      3.4377914E-32
   5.470000      2.7939441E-32
   5.480000      2.0671183E-32
   5.490000      1.2532145E-32
   5.500000      3.4828436E-33
   5.510000     -6.5152465E-33
   5.520000     -1.7499105E-32
   5.530000     -2.9503753E-32
   5.540000     -4.2561938E-32
   5.550000     -5.6703884E-32
   5.560000     -7.1956776E-32
   5.570000     -8.8344372E-32
   5.580000     -1.0588680E-31
   5.590000     -1.2459956E-31
   5.600000     -1.4449340E-31
   5.610000     -1.6557428E-31
   5.620000     -1.8784228E-31
   5.630000     -2.1129125E-31
   5.640000     -2.3590848E-31
   5.650000     -2.6167374E-31
   5.660000     -2.8855906E-31
   5.670000     -3.1652830E-31
   5.680000     -3.4553642E-31
   5.690000     -3.7552886E-31
   5.700000     -4.0644090E-31
   5.710000     -4.3819735E-31
   5.720000     -4.7071171E-31
   5.730000     -5.0388586E-31
   5.740000     -5.3760924E-31
   5.750000     -5.7175843E-31
   5.760000     -6.0619665E-31
   5.770000     -6.4077302E-31
   5.780000     -6.7532230E-31
   5.790000     -7.0966432E-31
   5.800000     -7.4360339E-31
   5.810000     -7.7692804E-31
   5.820000     -8.0941071E-31
   5.830000     -8.4080704E-31
   5.840000     -8.7085606E-31
   5.850000     -8.9927989E-31
   5.860000     -9.2578305E-31
   5.870000     -9.5005325E-31
   5.880000     -9.7176059E-31
   5.890000     -9.9055815E-31
   5.900000     -1.0060819E-30
   5.910000     -1.0179512E-30
   5.920000     -1.0257688E-30
   5.930000     -1.0291215E-30
   5.940000     -1.0275810E-30
   5.950000     -1.0207039E-30
   5.960000     -1.0080335E-30
   5.970000     -9.8909988E-31
   5.980000     -9.6342135E-31
   5.990000     -9.3050600E-31
   6.000000     -8.8985251E-31
   6.010000     -8.4095223E-31
   6.020000     -7.8329052E-31
   6.030000     -7.1634889E-31
   6.040000     -6.3960726E-31
   6.050000     -5.5254577E-31
   6.060000     -4.5464741E-31
   6.070000     -3.4540084E-31
   6.080000     -2.2430301E-31
   6.090000     -9.0862316E-32
   6.100000      5.5398339E-32
   6.110000      2.1493790E-31
   6.120000      3.8819363E-31
   6.130000      5.7557756E-31
   6.140000      7.7747215E-31
   6.150000      9.9422560E-31
   6.160000      1.2261487E-30
   6.170000      1.4735087E-30
   6.180000      1.7365258E-30
   6.190000      2.0153670E-30
   6.200000      2.3101419E-30
   6.210000      2.6208963E-30
   6.220000      2.9476074E-30
   6.230000      3.2901778E-30
   6.240000      3.6484298E-30
   6.250000      4.0220986E-30
   6.260000      4.4108280E-30
   6.270000      4.8141621E-30
   6.280000      5.2315412E-30
   6.290000      5.6622923E-30
   6.300000      6.1056264E-30
   6.310000      6.5606300E-30
   6.320000      7.0262581E-30
   6.330000      7.5013316E-30
   6.340000      7.9845256E-30
   6.350000      8.4743686E-30
   6.360000      8.9692325E-30
   6.370000      9.4673307E-30
   6.380000      9.9667085E-30
   6.390000      1.0465241E-29
   6.400000      1.0960627E-29
   6.410000      1.1450385E-29
   6.420000      1.1931848E-29
   6.430000      1.2402163E-29
   6.440000      1.2858283E-29
   6.450000      1.3296968E-29
   6.460000      1.3714782E-29
   6.470000      1.4108091E-29
   6.480000      1.4473064E-29
   6.490000      1.4805674E-29
   6.500000      1.5101695E-29
   6.510000      1.5356708E-29
   6.520000      1.5566103E-29
   6.530000      1.5725086E-29
   6.540000      1.5828675E-29
   6.550000      1.5871717E-29
   6.560000      1.5848888E-29
   6.570000      1.5754706E-29
   6.580000      1.5583543E-29
   6.590000      1.5329632E-29
   6.600000      1.4987084E-29
   6.610000      1.4549898E-29
   6.620000      1.4011984E-29
   6.630000      1.3367177E-29
   6.640000      1.2609258E-29
   6.650000      1.1731979E-29
   6.660000      1.0729079E-29
   6.670000      9.5943157E-30
   6.680000      8.3214964E-30
   6.690000      6.9044995E-30
   6.700000      5.3373116E-30
   6.710000      3.6140591E-30
   6.720000      1.7290435E-30
   6.730000     -3.2322002E-31
   6.740000     -2.5479598E-30
   6.750000     -4.9501090E-30
   6.760000     -7.5342598E-30
   6.770000     -1.0304619E-29
   6.780000     -1.3264957E-29
   6.790000     -1.6418563E-29
   6.800000     -1.9768186E-29
   6.810000     -2.3315979E-29
   6.820000     -2.7063456E-29
   6.830000     -3.1011429E-29
   6.840000     -3.5159940E-29
   6.850000     -3.9508211E-29
   6.860000     -4.4054573E-29
   6.870000     -4.8796411E-29
   6.880000     -5.3730099E-29
   6.890000     -5.8850936E-29
   6.900000     -6.4153070E-29
   6.910000     -6.9629445E-29
   6.920000     -7.5271728E-29
   6.930000     -8.1070240E-29
   6.940000     -8.7013900E-29
   6.950000     -9.3090149E-29
   6.960000     -9.9284897E-29
   6.970000     -1.0558244E-28
   6.980000     -1.1196543E-28
   6.990000     -1.1841477E-28
   7.000000     -1.2490961E-28
   7.010000     -1.3142724E-28
   7.020000     -1.3794310E-28
   7.030000     -1.4443065E-28
   7.040000     -1.5086143E-28
   7.050000     -1.5720489E-28
   7.060000     -1.6342849E-28