  -2.600000      0.0000000E+00
  -2.590000      0.0000000E+00
  -2.580000      0.0000000E+00
  -2.570000      0.0000000E+00
  -2.560000      0.0000000E+00
  -2.550000      0.0000000E+00
  -2.540000      0.0000000E+00
  -2.530000      0.0000000E+00
  -2.520000      0.0000000E+00
  -2.510000      0.0000000E+00
  -2.500000      0.0000000E+00
  -2.490000      0.0000000E+00
  -2.480000      0.0000000E+00
  -2.470000      0.0000000E+00
  -2.460000      0.0000000E+00
  -2.450000      0.0000000E+00
  -2.440000      0.0000000E+00
  -2.430000      0.0000000E+00
  -2.420000      0.0000000E+00
  -2.410000      0.0000000E+00
  -2.400000      0.0000000E+00
  -2.390000      0.0000000E+00
  -2.380000      0.0000000E+00
  -2.370000      0.0000000E+00
  -2.360000      0.0000000E+00
  -2.350000      0.0000000E+00
  -2.340000      0.0000000E+00
  -2.330000      0.0000000E+00
  -2.320000      0.0000000E+00
  -2.310000      0.0000000E+00
  -2.300000      0.0000000E+00
  -2.290000      0.0000000E+00
  -2.280000      0.0000000E+00
  -2.270000      0.0000000E+00
  -2.260000      0.0000000E+00
  -2.250000      0.0000000E+00
  -2.240000      0.0000000E+00
  -2.230000      0.0000000E+00
  -2.220000      0.0000000E+00
  -2.210000      0.0000000E+00
  -2.200000      0.0000000E+00
  -2.190000      0.0000000E+00
  -2.180000      0.0000000E+00
  -2.170000      0.0000000E+00
  -2.160000      0.0000000E+00
  -2.150000      0.0000000E+00
  -2.140000      0.0000000E+00
  -2.130000      0.0000000E+00
  -2.120000      0.0000000E+00
  -2.110000      0.0000000E+00
  -2.100000      0.0000000E+00
  -2.090000      0.0000000E+00
  -2.080000      0.0000000E+00
  -2.070000      0.0000000E+00
  -2.060000      0.0000000E+00
  -2.050000      0.0000000E+00
  -2.040000      0.0000000E+00
  -2.030000      0.0000000E+00
  -2.020000      0.0000000E+00
  -2.010000      0.0000000E+00
  -2.000000      0.0000000E+00
  -1.990000      0.0000000E+00
  -1.980000      0.0000000E+00
  -1.970000      0.0000000E+00
  -1.960000      0.0000000E+00
  -1.950000      0.0000000E+00
  -1.940000      0.0000000E+00
  -1.930000      0.0000000E+00
  -1.920000      0.0000000E+00
  -1.910000      0.0000000E+00
  -1.900000      0.0000000E+00
  -1.890000      0.0000000E+00
  -1.880000      0.0000000E+00
  -1.870000      0.0000000E+00
  -1.860000      0.0000000E+00
  -1.850000      0.0000000E+00
  -1.840000      0.0000000E+00
  -1.830000      0.0000000E+00
  -1.820000      0.0000000E+00
  -1.810000      0.0000000E+00
  -1.800000      0.0000000E+00
  -1.790000      0.0000000E+00
  -1.780000      0.0000000E+00
  -1.770000      0.0000000E+00
  -1.760000      0.0000000E+00
  -1.750000      0.0000000E+00
  -1.740000      0.0000000E+00
  -1.730000      0.0000000E+00
  -1.720000      0.0000000E+00
  -1.710000      0.0000000E+00
  -1.700000      0.0000000E+00
  -1.690000      0.0000000E+00
  -1.680000      0.0000000E+00
  -1.670000      0.0000000E+00
  -1.660000      0.0000000E+00
  -1.650000      0.0000000E+00
  -1.640000      0.0000000E+00
  -1.630000      0.0000000E+00
  -1.620000      0.0000000E+00
  -1.610000      0.0000000E+00
  -1.600000      0.0000000E+00
  -1.590000      0.0000000E+00
  -1.580000      0.0000000E+00
  -1.570000      0.0000000E+00
  -1.560000      0.0000000E+00
  -1.550000      0.0000000E+00
  -1.540000      0.0000000E+00
  -1.530000      0.0000000E+00
  -1.520000      0.0000000E+00
  -1.510000      0.0000000E+00
  -1.500000      0.0000000E+00
  -1.490000      0.0000000E+00
  -1.480000      0.0000000E+00
  -1.470000      0.0000000E+00
  -1.460000      0.0000000E+00
  -1.450000      0.0000000E+00
  -1.440000      0.0000000E+00
  -1.430000      0.0000000E+00
  -1.420000      0.0000000E+00
  -1.410000      0.0000000E+00
  -1.400000      0.0000000E+00
  -1.390000      0.0000000E+00
  -1.380000      0.0000000E+00
  -1.370000      0.0000000E+00
  -1.360000      0.0000000E+00
  -1.350000      0.0000000E+00
  -1.340000      0.0000000E+00
  -1.330000      0.0000000E+00
  -1.320000      0.0000000E+00
  -1.310000      0.0000000E+00
  -1.300000      0.0000000E+00
  -1.290000      0.0000000E+00
  -1.280000      0.0000000E+00
  -1.270000      0.0000000E+00
  -1.260000      0.0000000E+00
  -1.250000      0.0000000E+00
  -1.240000      0.0000000E+00
  -1.230000      0.0000000E+00
  -1.220000      0.0000000E+00
  -1.210000      0.0000000E+00
  -1.200000      0.0000000E+00
  -1.190000      0.0000000E+00
  -1.180000      0.0000000E+00
  -1.170000      0.0000000E+00
  -1.160000      0.0000000E+00
  -1.150000      0.0000000E+00
  -1.140000      0.0000000E+00
  -1.130000      0.0000000E+00
  -1.120000      0.0000000E+00
  -1.110000      0.0000000E+00
  -1.100000      0.0000000E+00
  -1.090000      0.0000000E+00
  -1.080000      0.0000000E+00
  -1.070000      0.0000000E+00
  -1.060000      0.0000000E+00
  -1.050000      0.0000000E+00
  -1.040000      0.0000000E+00
  -1.030000      0.0000000E+00
  -1.020000      0.0000000E+00
  -1.010000      0.0000000E+00
  -1.000000      0.0000000E+00
 -0.9900000      0.0000000E+00
 -0.9800000      0.0000000E+00
 -0.9700000      0.0000000E+00
 -0.9600000      0.0000000E+00
 -0.9500000      0.0000000E+00
 -0.9400000      0.0000000E+00
 -0.9300000      0.0000000E+00
 -0.9200000      0.0000000E+00
 -0.9100000      0.0000000E+00
 -0.9000000      0.0000000E+00
 -0.8900000      0.0000000E+00
 -0.8800000      0.0000000E+00
 -0.8700000      0.0000000E+00
 -0.8600000      0.0000000E+00
 -0.8500000      0.0000000E+00
 -0.8400000      0.0000000E+00
 -0.8300000      0.0000000E+00
 -0.8200000      0.0000000E+00
 -0.8100000      0.0000000E+00
 -0.8000000      0.0000000E+00
 -0.7900000      0.0000000E+00
 -0.7800000      0.0000000E+00
 -0.7700000      0.0000000E+00
 -0.7600000      0.0000000E+00
 -0.7500000      0.0000000E+00
 -0.7400000      0.0000000E+00
 -0.7300000      0.0000000E+00
 -0.7200000      0.0000000E+00
 -0.7100000      0.0000000E+00
 -0.7000000      0.0000000E+00
 -0.6900000      0.0000000E+00
 -0.6800000      0.0000000E+00
 -0.6700000      0.0000000E+00
 -0.6600000      0.0000000E+00
 -0.6500000      0.0000000E+00
 -0.6400000      0.0000000E+00
 -0.6300000      0.0000000E+00
 -0.6200000      0.0000000E+00
 -0.6100000      0.0000000E+00
 -0.6000000      0.0000000E+00
 -0.5900000      0.0000000E+00
 -0.5800000      0.0000000E+00
 -0.5700000      0.0000000E+00
 -0.5600000      0.0000000E+00
 -0.5500000      0.0000000E+00
 -0.5400000      0.0000000E+00
 -0.5300000      0.0000000E+00
 -0.5200000      0.0000000E+00
 -0.5100000      0.0000000E+00
 -0.5000000      0.0000000E+00
 -0.4900000      0.0000000E+00
 -0.4800000      0.0000000E+00
 -0.4700000      0.0000000E+00
 -0.4600000      0.0000000E+00
 -0.4500000      0.0000000E+00
 -0.4400000      0.0000000E+00
 -0.4300000      0.0000000E+00
 -0.4200000      0.0000000E+00
 -0.4100000      0.0000000E+00
 -0.4000000      0.0000000E+00
 -0.3900000      0.0000000E+00
 -0.3800000      0.0000000E+00
 -0.3700000      0.0000000E+00
 -0.3600000      0.0000000E+00
 -0.3500000      0.0000000E+00
 -0.3400000      0.0000000E+00
 -0.3300000      0.0000000E+00
 -0.3200000      0.0000000E+00
 -0.3100000      0.0000000E+00
 -0.3000000      0.0000000E+00
 -0.2900000     -1.3290474E-38
 -0.2800000     -2.3453378E-38
 -0.2700000     -3.4399969E-38
 -0.2600000     -4.6111438E-38
 -0.2500000     -5.7484727E-38
 -0.2400000     -6.5805738E-38
 -0.2300000     -7.0045440E-38
 -0.2200000     -7.0112192E-38
 -0.2100000     -6.3791428E-38
 -0.2000000     -5.0845128E-38
 -0.1900000     -3.1482474E-38
 -0.1800000      0.0000000E+00
 -0.1700000      2.7780916E-38
 -0.1600000      6.5029817E-38
 -0.1500000      1.0637467E-37
 -0.1400000      1.5332053E-37
 -0.1300000      2.0346798E-37
 -0.1200000      2.5136951E-37
 -0.1100000      2.9297810E-37
 -0.1000000      3.2571091E-37
 -9.0000004E-02  3.4824469E-37
 -7.9999998E-02  3.5856593E-37
 -7.0000000E-02  3.5564363E-37
 -5.9999999E-02  3.4502903E-37
 -5.0000001E-02  3.1775662E-37
 -3.9999999E-02  2.5824958E-37
 -2.9999999E-02  1.6325771E-37
 -2.0000000E-02  2.3485979E-38
 -9.9999998E-03 -1.5671267E-37
 -3.4694470E-17 -4.0150990E-37
  9.9999998E-03 -7.2169615E-37
  2.0000000E-02 -1.1288990E-36
  2.9999999E-02 -1.6065675E-36
  3.9999999E-02 -2.1005512E-36
  5.0000001E-02 -2.6083857E-36
  5.9999999E-02 -3.0977214E-36
  7.0000000E-02 -3.4883828E-36
  7.9999998E-02 -3.6994455E-36
  9.0000004E-02 -3.7015954E-36
  0.1000000     -3.5486617E-36
  0.1100000     -3.1319079E-36
  0.1200000     -2.4112843E-36
  0.1300000     -1.3218957E-36
  0.1400000      2.0608392E-37
  0.1500000      2.1051569E-36
  0.1600000      4.3861494E-36
  0.1700000      6.9405810E-36
  0.1800000      9.7434312E-36
  0.1900000      1.2736909E-35
  0.2000000      1.5694183E-35
  0.2100000      1.8506280E-35
  0.2200000      2.1091482E-35
  0.2300000      2.3128856E-35
  0.2400000      2.4397879E-35
  0.2500000      2.4610949E-35
  0.2600000      2.3319663E-35
  0.2700000      2.0241618E-35
  0.2800000      1.4935647E-35
  0.2900000      7.0145911E-36
  0.3000000     -3.5970195E-36
  0.3100000     -1.7412891E-35
  0.3200000     -3.5160658E-35
  0.3300000     -5.8701375E-35
  0.3400000     -8.8104145E-35
  0.3500000     -1.2257983E-34
  0.3600000     -1.6244632E-34
  0.3700000     -2.0804175E-34
  0.3800000     -2.5747930E-34
  0.3900000     -3.0929396E-34
  0.4000000     -3.5924935E-34
  0.4100000     -4.0687110E-34
  0.4200000     -4.5426584E-34
  0.4300000     -5.0156250E-34
  0.4400000     -5.5182113E-34
  0.4500000     -6.0751279E-34
  0.4600000     -6.6881524E-34
  0.4700000     -7.3153094E-34
  0.4800000     -7.9771774E-34
  0.4900000     -8.6910662E-34
  0.5000000     -9.4924346E-34
  0.5100000     -1.0394231E-33
  0.5200000     -1.1306628E-33
  0.5300000     -1.2224790E-33
  0.5400000     -1.3164026E-33
  0.5500000     -1.4101624E-33
  0.5600000     -1.5082976E-33
  0.5700000     -1.6090975E-33
  0.5800000     -1.7070830E-33
  0.5900000     -1.8028970E-33
  0.6000000     -1.8897251E-33
  0.6100000     -1.9658099E-33
  0.6200000     -2.0327598E-33
  0.6300000     -2.0859300E-33
  0.6400000     -2.1227951E-33
  0.6500000     -2.1402861E-33
  0.6600000     -2.1360249E-33
  0.6700000     -2.1082656E-33
  0.6800000     -2.0551208E-33
  0.6900000     -1.9747512E-33
  0.7000000     -1.8653215E-33
  0.7100000     -1.7273120E-33
  0.7200000     -1.5611022E-33
  0.7300000     -1.3661133E-33
  0.7400000     -1.1427794E-33
  0.7500000     -8.9202977E-34
  0.7600000     -6.1543213E-34
  0.7700000     -3.1483256E-34
  0.7800000      7.7819168E-36
  0.7900000      3.4998746E-34
  0.8000000      7.0921367E-34
  0.8100000      1.0830984E-33
  0.8200000      1.4690661E-33
  0.8300000      1.8647181E-33
  0.8400000      2.2677780E-33
  0.8500000      2.6742610E-33
  0.8600000      3.0844380E-33
  0.8700000      3.4989607E-33
  0.8800000      3.9152267E-33
  0.8900000      4.3326896E-33
  0.9000000      4.7510319E-33
  0.9100000      5.1705787E-33
  0.9200000      5.5916025E-33
  0.9300000      6.0152687E-33
  0.9400000      6.4430234E-33
  0.9500000      6.8762364E-33
  0.9600000      7.3158662E-33
  0.9700000      7.7629125E-33
  0.9800000      8.2190866E-33
  0.9900000      8.6856014E-33
   1.000000      9.1635214E-33
   1.010000      9.6537826E-33
   1.020000      1.0157188E-32
   1.030000      1.0674449E-32
   1.040000      1.1206311E-32
   1.050000      1.1753677E-32
   1.060000      1.2317767E-32
   1.070000      1.2900501E-32
   1.080000      1.3504128E-32
   1.090000      1.4131849E-32
   1.100000      1.4788462E-32
   1.110000      1.5479863E-32
   1.120000      1.6213815E-32
   1.130000      1.6999901E-32
   1.140000      1.7849317E-32
   1.150000      1.8775401E-32
   1.160000      1.9793456E-32
   1.170000      2.0920671E-32
   1.180000      2.2176037E-32
   1.190000      2.3580089E-32
   1.200000      2.5154615E-32
   1.210000      2.6922144E-32
   1.220000      2.8905691E-32
   1.230000      3.1128345E-32
   1.240000      3.3612688E-32
   1.250000      3.6380357E-32
   1.260000      3.9451650E-32
   1.270000      4.2845120E-32
   1.280000      4.6577236E-32
   1.290000      5.0662231E-32
   1.300000      5.5111959E-32
   1.310000      5.9935947E-32
   1.320000      6.5141542E-32
   1.330000      7.0734197E-32
   1.340000      7.6717851E-32
   1.350000      8.3095461E-32
   1.360000      8.9869582E-32
   1.370000      9.7043024E-32
   1.380000      1.0461956E-31
   1.390000      1.1260437E-31
   1.400000      1.2100474E-31
   1.410000      1.2983073E-31
   1.420000      1.3909527E-31
   1.430000      1.4881439E-31
   1.440000      1.5900720E-31
   1.450000      1.6969569E-31
   1.460000      1.8090417E-31
   1.470000      1.9265873E-31
   1.480000      2.0498635E-31
   1.490000      2.1791387E-31
   1.500000      2.3146699E-31
   1.510000      2.4566917E-31
   1.520000      2.6054047E-31
   1.530000      2.7609673E-31
   1.540000      2.9234860E-31
   1.550000      3.0930120E-31
   1.560000      3.2695395E-31
   1.570000      3.4530053E-31
   1.580000      3.6432962E-31
   1.590000      3.8402599E-31
   1.600000      4.0437184E-31
   1.610000      4.2534863E-31
   1.620000      4.4693922E-31
   1.630000      4.6913053E-31
   1.640000      4.9191575E-31
   1.650000      5.1529713E-31
   1.660000      5.3928836E-31
   1.670000      5.6391699E-31
   1.680000      5.8922590E-31
   1.690000      6.1527490E-31
   1.700000      6.4214191E-31
   1.710000      6.6992265E-31
   1.720000      6.9872879E-31
   1.730000      7.2868763E-31
   1.740000      7.5993914E-31
   1.750000      7.9263293E-31
   1.760000      8.2692454E-31
   1.770000      8.6297084E-31
   1.780000      9.0092586E-31
   1.790000      9.4093574E-31
   1.800000      9.8313439E-31
   1.810000      1.0276392E-30
   1.820000      1.0745468E-30
   1.830000      1.1239314E-30
   1.840000      1.1758416E-30
   1.850000      1.2303004E-30
   1.860000      1.2873048E-30
   1.870000      1.3468277E-30
   1.880000      1.4088202E-30
   1.890000      1.4732150E-30
   1.900000      1.5399307E-30
   1.910000      1.6088756E-30
   1.920000      1.6799531E-30
   1.930000      1.7530659E-30
   1.940000      1.8281190E-30
   1.950000      1.9050227E-30
   1.960000      1.9836932E-30
   1.970000      2.0640526E-30
   1.980000      2.1460248E-30
   1.990000      2.2295315E-30
   2.000000      2.3144837E-30
   2.010000      2.4007727E-30
   2.020000      2.4882567E-30
   2.030000      2.5767487E-30
   2.040000      2.6660001E-30
   2.050000      2.7556845E-30
   2.060000      2.8453819E-30
   2.070000      2.9345611E-30
   2.080000      3.0225657E-30
   2.090000      3.1085997E-30
   2.100000      3.1917162E-30
   2.110000      3.2708087E-30
   2.120000      3.3446061E-30
   2.130000      3.4116694E-30
   2.140000      3.4703945E-30
   2.150000      3.5190163E-30
   2.160000      3.5556165E-30
   2.170000      3.5781337E-30
   2.180000      3.5843761E-30
   2.190000      3.5720354E-30
   2.200000      3.5386992E-30
   2.210000      3.4818647E-30
   2.220000      3.3989474E-30
   2.230000      3.2872923E-30
   2.240000      3.1441741E-30
   2.250000      2.9667988E-30
   2.260000      2.7522985E-30
   2.270000      2.4977265E-30
   2.280000      2.2000355E-30
   2.290000      1.8560640E-30
   2.300000      1.4625141E-30
   2.310000      1.0159260E-30
   2.320000      5.1265481E-31
   2.330000     -5.1151402E-32
   2.340000     -6.7957665E-31
   2.350000     -1.3769523E-30
   2.360000     -2.1478700E-30
   2.370000     -2.9971807E-30
   2.380000     -3.9299943E-30
   2.390000     -4.9516562E-30
   2.400000     -6.0677239E-30
   2.410000     -7.2839310E-30
   2.420000     -8.6061361E-30
   2.430000     -1.0040271E-29
   2.440000     -1.1592266E-29
   2.450000     -1.3267975E-29
   2.460000     -1.5073104E-29
   2.470000     -1.7013122E-29
   2.480000     -1.9093189E-29
   2.490000     -2.1318094E-29
   2.500000     -2.3692158E-29
   2.510000     -2.6219180E-29
   2.520000     -2.8902401E-29
   2.530000     -3.1744435E-29
   2.540000     -3.4747273E-29
   2.550000     -3.7912238E-29
   2.560000     -4.1240001E-29
   2.570000     -4.4730572E-29
   2.580000     -4.8383329E-29
   2.590000     -5.2197017E-29
   2.600000     -5.6169771E-29
   2.610000     -6.0299133E-29
   2.620000     -6.4582058E-29
   2.630000     -6.9014899E-29
   2.640000     -7.3593418E-29
   2.650000     -7.8312723E-29
   2.660000     -8.3167222E-29
   2.670000     -8.8150548E-29
   2.680000     -9.3255502E-29
   2.690000     -9.8473911E-29
   2.700000     -1.0379648E-28
   2.710000     -1.0921265E-28
   2.720000     -1.1471053E-28
   2.730000     -1.2027668E-28
   2.740000     -1.2589596E-28
   2.750000     -1.3155144E-28
   2.760000     -1.3722431E-28
   2.770000     -1.4289372E-28
   2.780000     -1.4853678E-28
   2.790000     -1.5412857E-28
   2.800000     -1.5964211E-28
   2.810000     -1.6504848E-28
   2.820000     -1.7031691E-28
   2.830000     -1.7541492E-28
   2.840000     -1.8030858E-28
   2.850000     -1.8496269E-28
   2.860000     -1.8934105E-28
   2.870000     -1.9340676E-28
   2.880000     -1.9712250E-28
   2.890000     -2.0045080E-28
   2.900000     -2.0335432E-28
   2.910000     -2.0579616E-28
   2.920000     -2.0774007E-28
   2.930000     -2.0915067E-28
   2.940000     -2.0999363E-28
   2.950000     -2.1023584E-28
   2.960000     -2.0984545E-28
   2.970000     -2.0879206E-28
   2.980000     -2.0704664E-28
   2.990000     -2.0458172E-28
   3.000000     -2.0137135E-28
   3.010000     -1.9739117E-28
   3.020000     -1.9261848E-28
   3.030000     -1.8703229E-28
   3.040000     -1.8061357E-28
   3.050000     -1.7334537E-28
   3.060000     -1.6521320E-28
   3.070000     -1.5620523E-28
   3.080000     -1.4631284E-28
   3.090000     -1.3553100E-28
   3.100000     -1.2385887E-28
   3.110000     -1.1130038E-28
   3.120000     -9.7864830E-29
   3.130000     -8.3567533E-29
   3.140000     -6.8430470E-29
   3.150000     -5.2482903E-29
   3.160000     -3.5761844E-29
   3.170000     -1.8312581E-29
   3.180000     -1.8902267E-31
   3.190000      1.8546082E-29
   3.200000      3.7821108E-29
   3.210000      5.7555574E-29
   3.220000      7.7660411E-29
   3.230000      9.8038453E-29
   3.240000      1.1858489E-28
   3.250000      1.3918812E-28
   3.260000      1.5973066E-28
   3.270000      1.8009005E-28
   3.280000      2.0014016E-28
   3.290000      2.1975224E-28
   3.300000      2.3879625E-28
   3.310000      2.5714222E-28
   3.320000      2.7466140E-28
   3.330000      2.9122762E-28
   3.340000      3.0671872E-28
   3.350000      3.2101764E-28
   3.360000      3.3401374E-28
   3.370000      3.4560404E-28
   3.380000      3.5569437E-28
   3.390000      3.6420070E-28
   3.400000      3.7105043E-28
   3.410000      3.7618383E-28
   3.420000      3.7955573E-28
   3.430000      3.8113708E-28
   3.440000      3.8091709E-28
   3.450000      3.7890519E-28
   3.460000      3.7513362E-28
   3.470000      3.6966010E-28
   3.480000      3.6257129E-28
   3.490000      3.5398559E-28
   3.500000      3.4405723E-28
   3.510000      3.3298002E-28
   3.520000      3.2099130E-28
   3.530000      3.0837627E-28
   3.540000      2.9547268E-28
   3.550000      2.8267468E-28
   3.560000      2.7043699E-28
   3.570000      2.5927981E-28
   3.580000      2.4979172E-28
   3.590000      2.4263397E-28
   3.600000      2.3854301E-28
   3.610000      2.3833284E-28
   3.620000      2.4289814E-28
   3.630000      2.5321556E-28
   3.640000      2.7034358E-28
   3.650000      2.9542393E-28
   3.660000      3.2968025E-28
   3.670000      3.7441768E-28
   3.680000      4.3102225E-28
   3.690000      5.0095715E-28
   3.700000      5.8576081E-28
   3.710000      6.8704416E-28
   3.720000      8.0648730E-28
   3.730000      9.4583411E-28
   3.740000      1.1068886E-27
   3.750000      1.2915105E-27
   3.760000      1.5016080E-27
   3.770000      1.7391334E-27
   3.780000      2.0060767E-27
   3.790000      2.3044553E-27
   3.800000      2.6363079E-27
   3.810000      3.0036857E-27
   3.820000      3.4086410E-27
   3.830000      3.8532138E-27
   3.840000      4.3394187E-27
   3.850000      4.8692293E-27
   3.860000      5.4445639E-27
   3.870000      6.0672644E-27
   3.880000      6.7390785E-27
   3.890000      7.4616304E-27
   3.900000      8.2364020E-27
   3.910000      9.0647021E-27
   3.920000      9.9476408E-27
   3.930000      1.0886092E-26
   3.940000      1.1880667E-26
   3.950000      1.2931674E-26
   3.960000      1.4039093E-26
   3.970000      1.5202521E-26
   3.980000      1.6421150E-26
   3.990000      1.7693717E-26
   4.000000      1.9018466E-26
   4.010000      2.0393111E-26
   4.020000      2.1814793E-26
   4.030000      2.3280036E-26
   4.040000      2.4784712E-26
   4.050000      2.6323993E-26
   4.060000      2.7892319E-26
   4.070000      2.9483347E-26
   4.080000      3.1089917E-26
   4.090000      3.2704010E-26
   4.100000      3.4316719E-26
   4.110000      3.5918187E-26
   4.120000      3.7497591E-26
   4.130000      3.9043099E-26
   4.140000      4.0541821E-26
   4.150000      4.1979785E-26
   4.160000      4.3341910E-26
   4.170000      4.4611955E-26
   4.180000      4.5772498E-26
   4.190000      4.6804911E-26
   4.200000      4.7689320E-26
   4.210000      4.8404604E-26
   4.220000      4.8928383E-26
   4.230000      4.9236988E-26
   4.240000      4.9305449E-26
   4.250000      4.9107525E-26
   4.260000      4.8615698E-26
   4.270000      4.7801187E-26
   4.280000      4.6633990E-26
   4.290000      4.5082920E-26
   4.300000      4.3115643E-26
   4.310000      4.0698739E-26
   4.320000      3.7797783E-26
   4.330000      3.4377421E-26
   4.340000      3.0401457E-26
   4.350000      2.5832998E-26
   4.360000      2.0634527E-26
   4.370000      1.4768048E-26
   4.380000      8.1952649E-27
   4.390000      8.7774065E-28
   4.400000     -7.2229352E-27
   4.410000     -1.6144967E-26
   4.420000     -2.5926151E-26
   4.430000     -3.6603602E-26
   4.440000     -4.8213570E-26
   4.450000     -6.0791199E-26
   4.460000     -7.4370213E-26
   4.470000     -8.8982629E-26
   4.480000     -1.0465846E-25
   4.490000     -1.2142545E-25
   4.500000     -1.3930871E-25
   4.510000     -1.5833034E-25
   4.520000     -1.7850904E-25
   4.530000     -1.9985976E-25
   4.540000     -2.2239323E-25
   4.550000     -2.4611565E-25
   4.560000     -2.7102818E-25
   4.570000     -2.9712633E-25
   4.580000     -3.2439972E-25
   4.590000     -3.5283135E-25
   4.600000     -3.8239729E-25
   4.610000     -4.1306601E-25
   4.620000     -4.4479789E-25
   4.630000     -4.7754464E-25
   4.640000     -5.1124877E-25
   4.650000     -5.4584284E-25
   4.660000     -5.8124928E-25
   4.670000     -6.1737950E-25
   4.680000     -6.5413342E-25
   4.690000     -6.9139882E-25
   4.700000     -7.2905095E-25
   4.710000     -7.6695177E-25
   4.720000     -8.0494967E-25
   4.730000     -8.4287875E-25
   4.740000     -8.8055839E-25
   4.750000     -9.1779253E-25
   4.760000     -9.5436964E-25
   4.770000     -9.9006225E-25
   4.780000     -1.0246263E-24
   4.790000     -1.0578007E-24
   4.800000     -1.0893076E-24
   4.810000     -1.1188514E-24
   4.820000     -1.1461192E-24
   4.830000     -1.1707802E-24
   4.840000     -1.1924856E-24
   4.850000     -1.2108688E-24
   4.860000     -1.2255453E-24
   4.870000     -1.2361127E-24
   4.880000     -1.2421511E-24
   4.890000     -1.2432235E-24
   4.900000     -1.2388757E-24
   4.910000     -1.2286372E-24
   4.920000     -1.2120218E-24
   4.930000     -1.1885279E-24
   4.940000     -1.1576394E-24
   4.950000     -1.1188272E-24
   4.960000     -1.0715502E-24
   4.970000     -1.0152555E-24
   4.980000     -9.4938158E-25
   4.990000     -8.7335806E-25
   5.000000     -7.8660890E-25
   5.010000     -6.8855379E-25
   5.020000     -5.7860926E-25
   5.030000     -4.5619239E-25
   5.040000     -3.2072281E-25
   5.050000     -1.7162468E-25
   5.060000     -8.3307055E-27
   5.070000      1.6971571E-25
   5.080000      3.6305777E-25
   5.090000      5.7222057E-25
   5.100000      7.9770798E-25
   5.110000      1.0399988E-24
   5.120000      1.2995438E-24
   5.130000      1.5767602E-24
   5.140000      1.8720281E-24
   5.150000      2.1856841E-24
   5.160000      2.5180188E-24
   5.170000      2.8692699E-24
   5.180000      3.2396186E-24
   5.190000      3.6291830E-24
   5.200000      4.0380133E-24
   5.210000      4.4660855E-24
   5.220000      4.9132947E-24
   5.230000      5.3794504E-24
   5.240000      5.8642713E-24
   5.250000      6.3673744E-24
   5.260000      6.8882735E-24
   5.270000      7.4263697E-24
   5.280000      7.9809460E-24
   5.290000      8.5511607E-24
   5.300000      9.1360380E-24
   5.310000      9.7344623E-24
   5.320000      1.0345176E-23
   5.330000      1.0966764E-23
   5.340000      1.1597656E-23
   5.350000      1.2236113E-23
   5.360000      1.2880226E-23
   5.370000      1.3527904E-23
   5.380000      1.4176875E-23
   5.390000      1.4824672E-23
   5.400000      1.5468633E-23
   5.410000      1.6105900E-23
   5.420000      1.6733400E-23
   5.430000      1.7347851E-23
   5.440000      1.7945762E-23
   5.450000      1.8523421E-23
   5.460000      1.9076891E-23
   5.470000      1.9602017E-23
   5.480000      2.0094417E-23
   5.490000      2.0549487E-23
   5.500000      2.0962390E-23
   5.510000      2.1328071E-23
   5.520000      2.1641250E-23
   5.530000      2.1896428E-23
   5.540000      2.2087886E-23
   5.550000      2.2209705E-23
   5.560000      2.2255749E-23
   5.570000      2.2219686E-23
   5.580000      2.2095002E-23
   5.590000      2.1874995E-23
   5.600000      2.1552802E-23
   5.610000      2.1121408E-23
   5.620000      2.0573656E-23
   5.630000      1.9902265E-23
   5.640000      1.9099845E-23
   5.650000      1.8158930E-23
   5.660000      1.7071982E-23
   5.670000      1.5831425E-23
   5.680000      1.4429672E-23
   5.690000      1.2859151E-23
   5.700000      1.1112332E-23
   5.710000      9.1817477E-24
   5.720000      7.0600487E-24
   5.730000      4.7400352E-24
   5.740000      2.2146816E-24
   5.750000     -5.2281480E-25
   5.760000     -3.4789894E-24
   5.770000     -6.6600726E-24
   5.780000     -1.0071937E-23
   5.790000     -1.3720060E-23
   5.800000     -1.7609453E-23
   5.810000     -2.1744613E-23
   5.820000     -2.6129470E-23
   5.830000     -3.0767349E-23
   5.840000     -3.5660886E-23
   5.850000     -4.0811975E-23
   5.860000     -4.6221708E-23
   5.870000     -5.1890305E-23
   5.880000     -5.7817067E-23
   5.890000     -6.4000285E-23
   5.900000     -7.0437157E-23
   5.910000     -7.7123769E-23
   5.920000     -8.4054979E-23
   5.930000     -9.1224374E-23
   5.940000     -9.8624160E-23
   5.950000     -1.0624512E-22
   5.960000     -1.1407657E-22
   5.970000     -1.2210621E-22
   5.980000     -1.3032011E-22
   5.990000     -1.3870261E-22
   6.000000     -1.4723628E-22
   6.010000     -1.5590181E-22
   6.020000     -1.6467801E-22
   6.030000     -1.7354165E-22
   6.040000     -1.8246747E-22
   6.050000     -1.9142808E-22
   6.060000     -2.0039393E-22
   6.070000     -2.0933328E-22
   6.080000     -2.1821205E-22
   6.090000     -2.2699391E-22
   6.100000     -2.3564017E-22
   6.110000     -2.4410971E-22
   6.120000     -2.5235905E-22
   6.130000     -2.6034230E-22
   6.140000     -2.6801101E-22
   6.150000     -2.7531442E-22
   6.160000     -2.8219927E-22
   6.170000     -2.8860982E-22
   6.180000     -2.9448799E-22
   6.190000     -2.9977330E-22
   6.200000     -3.0440295E-22
   6.210000     -3.0831176E-22
   6.220000     -3.1143254E-22
   6.230000     -3.1369578E-22
   6.240000     -3.1503008E-22
   6.250000     -3.1536203E-22
   6.260000     -3.1461636E-22
   6.270000     -3.1271615E-22
   6.280000     -3.0958302E-22
   6.290000     -3.0513718E-22
   6.300000     -2.9929769E-22
   6.310000     -2.9198264E-22
   6.320000     -2.8310928E-22
   6.330000     -2.7259448E-22
   6.340000     -2.6035482E-22
   6.350000     -2.4630673E-22
   6.360000     -2.3036718E-22
   6.370000     -2.1245360E-22
   6.380000     -1.9248441E-22
   6.390000     -1.7037933E-22
   6.400000     -1.4605974E-22
   6.410000     -1.1944915E-22
   6.420000     -9.0473555E-23
   6.430000     -5.9061644E-23
   6.440000     -2.5145615E-23
   6.450000      1.1338479E-23
   6.460000      5.0450321E-23
   6.470000      9.2244749E-23
   6.480000      1.3677135E-22
   6.490000      1.8407370E-22
   6.500000      2.3418900E-22
   6.510000      2.8714736E-22
   6.520000      3.4297138E-22
   6.530000      4.0167545E-22
   6.540000      4.6326502E-22
   6.550000      5.2773618E-22
   6.560000      5.9507502E-22
   6.570000      6.6525683E-22
   6.580000      7.3824537E-22
   6.590000      8.1399242E-22
   6.600000      8.9243711E-22
   6.610000      9.7350505E-22
   6.620000      1.0571081E-21
   6.630000      1.1431432E-21
   6.640000      1.2314920E-21
   6.650000      1.3220202E-21
   6.660000      1.4145767E-21
   6.670000      1.5089933E-21
   6.680000      1.6050838E-21
   6.690000      1.7026437E-21
   6.700000      1.8014497E-21
   6.710000      1.9012587E-21
   6.720000      2.0018078E-21
   6.730000      2.1028137E-21
   6.740000      2.2039721E-21
   6.750000      2.3049576E-21
   6.760000      2.4054230E-21
   6.770000      2.5049994E-21
   6.780000      2.6032955E-21
   6.790000      2.6998979E-21
   6.800000      2.7943712E-21
   6.810000      2.8862575E-21
   6.820000      2.9750758E-21
   6.830000      3.0603239E-21
   6.840000      3.1414769E-21
   6.850000      3.2179887E-21
   6.860000      3.2892908E-21
   6.870000      3.3547950E-21
   6.880000      3.4138919E-21
   6.890000      3.4659530E-21
   6.900000      3.5103304E-21
   6.910000      3.5463588E-21
   6.920000      3.5733556E-21
   6.930000      3.5906234E-21
   6.940000      3.5974497E-21
   6.950000      3.5931078E-21
   6.960000      3.5768610E-21
   6.970000      3.5479614E-21
   6.980000      3.5056544E-21
   6.990000      3.4491788E-21
   7.000000      3.3777692E-21
   7.010000      3.2906592E-21
   7.020000      3.1870819E-21
   7.030000      3.0662735E-21
   7.040000      2.9274764E-21
   7.050000      2.7699421E-21
   7.060000      2.5929339E-21