  -2.600000      0.0000000E+00
  -2.590000      0.0000000E+00
  -2.580000      0.0000000E+00
  -2.570000      0.0000000E+00
  -2.560000      0.0000000E+00
  -2.550000      0.0000000E+00
  -2.540000      0.0000000E+00
  -2.530000      0.0000000E+00
  -2.520000      0.0000000E+00
  -2.510000      0.0000000E+00
  -2.500000      0.0000000E+00
  -2.490000      0.0000000E+00
  -2.480000      0.0000000E+00
  -2.470000      0.0000000E+00
  -2.460000      0.0000000E+00
  -2.450000      0.0000000E+00
  -2.440000      0.0000000E+00
  -2.430000      0.0000000E+00
  -2.420000      0.0000000E+00
  -2.410000      0.0000000E+00
  -2.400000      0.0000000E+00
  -2.390000      0.0000000E+00
  -2.380000      0.0000000E+00
  -2.370000      0.0000000E+00
  -2.360000      0.0000000E+00
  -2.350000      0.0000000E+00
  -2.340000      0.0000000E+00
  -2.330000      0.0000000E+00
  -2.320000      0.0000000E+00
  -2.310000      0.0000000E+00
  -2.300000      0.0000000E+00
  -2.290000      0.0000000E+00
  -2.280000      0.0000000E+00
  -2.270000      0.0000000E+00
  -2.260000      0.0000000E+00
  -2.250000      0.0000000E+00
  -2.240000      0.0000000E+00
  -2.230000      0.0000000E+00
  -2.220000      0.0000000E+00
  -2.210000      0.0000000E+00
  -2.200000      0.0000000E+00
  -2.190000      0.0000000E+00
  -2.180000      0.0000000E+00
  -2.170000      0.0000000E+00
  -2.160000      0.0000000E+00
  -2.150000      0.0000000E+00
  -2.140000      0.0000000E+00
  -2.130000      0.0000000E+00
  -2.120000      0.0000000E+00
  -2.110000      0.0000000E+00
  -2.100000      0.0000000E+00
  -2.090000      0.0000000E+00
  -2.080000      0.0000000E+00
  -2.070000      0.0000000E+00
  -2.060000      0.0000000E+00
  -2.050000      0.0000000E+00
  -2.040000      0.0000000E+00
  -2.030000      0.0000000E+00
  -2.020000      0.0000000E+00
  -2.010000      0.0000000E+00
  -2.000000      0.0000000E+00
  -1.990000      0.0000000E+00
  -1.980000      0.0000000E+00
  -1.970000      0.0000000E+00
  -1.960000      0.0000000E+00
  -1.950000      0.0000000E+00
  -1.940000      0.0000000E+00
  -1.930000      0.0000000E+00
  -1.920000      0.0000000E+00
  -1.910000      0.0000000E+00
  -1.900000      0.0000000E+00
  -1.890000      0.0000000E+00
  -1.880000      0.0000000E+00
  -1.870000      0.0000000E+00
  -1.860000      0.0000000E+00
  -1.850000      0.0000000E+00
  -1.840000      0.0000000E+00
  -1.830000      0.0000000E+00
  -1.820000      0.0000000E+00
  -1.810000      0.0000000E+00
  -1.800000      0.0000000E+00
  -1.790000      0.0000000E+00
  -1.780000      0.0000000E+00
  -1.770000      0.0000000E+00
  -1.760000      0.0000000E+00
  -1.750000      0.0000000E+00
  -1.740000      0.0000000E+00
  -1.730000      0.0000000E+00
  -1.720000      0.0000000E+00
  -1.710000      0.0000000E+00
  -1.700000      0.0000000E+00
  -1.690000      0.0000000E+00
  -1.680000      0.0000000E+00
  -1.670000      0.0000000E+00
  -1.660000      0.0000000E+00
  -1.650000      0.0000000E+00
  -1.640000      0.0000000E+00
  -1.630000      0.0000000E+00
  -1.620000      0.0000000E+00
  -1.610000      0.0000000E+00
  -1.600000      0.0000000E+00
  -1.590000      0.0000000E+00
  -1.580000      0.0000000E+00
  -1.570000      0.0000000E+00
  -1.560000      0.0000000E+00
  -1.550000      0.0000000E+00
  -1.540000      0.0000000E+00
  -1.530000      0.0000000E+00
  -1.520000      0.0000000E+00
  -1.510000      0.0000000E+00
  -1.500000      0.0000000E+00
  -1.490000      0.0000000E+00
  -1.480000      0.0000000E+00
  -1.470000      0.0000000E+00
  -1.460000      0.0000000E+00
  -1.450000      0.0000000E+00
  -1.440000      0.0000000E+00
  -1.430000      0.0000000E+00
  -1.420000      0.0000000E+00
  -1.410000      0.0000000E+00
  -1.400000      0.0000000E+00
  -1.390000      0.0000000E+00
  -1.380000      0.0000000E+00
  -1.370000      0.0000000E+00
  -1.360000      0.0000000E+00
  -1.350000      0.0000000E+00
  -1.340000      0.0000000E+00
  -1.330000      0.0000000E+00
  -1.320000      0.0000000E+00
  -1.310000      0.0000000E+00
  -1.300000      0.0000000E+00
  -1.290000      0.0000000E+00
  -1.280000      0.0000000E+00
  -1.270000      0.0000000E+00
  -1.260000      0.0000000E+00
  -1.250000      0.0000000E+00
  -1.240000      0.0000000E+00
  -1.230000      0.0000000E+00
  -1.220000      0.0000000E+00
  -1.210000      0.0000000E+00
  -1.200000      0.0000000E+00
  -1.190000      0.0000000E+00
  -1.180000      0.0000000E+00
  -1.170000      0.0000000E+00
  -1.160000      0.0000000E+00
  -1.150000      0.0000000E+00
  -1.140000      0.0000000E+00
  -1.130000      0.0000000E+00
  -1.120000      0.0000000E+00
  -1.110000      0.0000000E+00
  -1.100000      0.0000000E+00
  -1.090000      0.0000000E+00
  -1.080000      0.0000000E+00
  -1.070000      0.0000000E+00
  -1.060000      0.0000000E+00
  -1.050000      0.0000000E+00
  -1.040000      0.0000000E+00
  -1.030000      0.0000000E+00
  -1.020000      0.0000000E+00
  -1.010000      0.0000000E+00
  -1.000000      0.0000000E+00
 -0.9900000      0.0000000E+00
 -0.9800000      0.0000000E+00
 -0.9700000      0.0000000E+00
 -0.9600000      0.0000000E+00
 -0.9500000      0.0000000E+00
 -0.9400000      0.0000000E+00
 -0.9300000      0.0000000E+00
 -0.9200000      0.0000000E+00
 -0.9100000      0.0000000E+00
 -0.9000000      0.0000000E+00
 -0.8900000      0.0000000E+00
 -0.8800000      0.0000000E+00
 -0.8700000      0.0000000E+00
 -0.8600000      0.0000000E+00
 -0.8500000      0.0000000E+00
 -0.8400000      0.0000000E+00
 -0.8300000      0.0000000E+00
 -0.8200000      0.0000000E+00
 -0.8100000      0.0000000E+00
 -0.8000000      0.0000000E+00
 -0.7900000      0.0000000E+00
 -0.7800000      0.0000000E+00
 -0.7700000      0.0000000E+00
 -0.7600000      0.0000000E+00
 -0.7500000      0.0000000E+00
 -0.7400000      0.0000000E+00
 -0.7300000      0.0000000E+00
 -0.7200000      0.0000000E+00
 -0.7100000      0.0000000E+00
 -0.7000000      0.0000000E+00
 -0.6900000      0.0000000E+00
 -0.6800000      0.0000000E+00
 -0.6700000      0.0000000E+00
 -0.6600000      0.0000000E+00
 -0.6500000      0.0000000E+00
 -0.6400000      0.0000000E+00
 -0.6300000      0.0000000E+00
 -0.6200000      0.0000000E+00
 -0.6100000      0.0000000E+00
 -0.6000000      0.0000000E+00
 -0.5900000      0.0000000E+00
 -0.5800000      0.0000000E+00
 -0.5700000      0.0000000E+00
 -0.5600000      0.0000000E+00
 -0.5500000      0.0000000E+00
 -0.5400000      0.0000000E+00
 -0.5300000      0.0000000E+00
 -0.5200000      0.0000000E+00
 -0.5100000      0.0000000E+00
 -0.5000000      0.0000000E+00
 -0.4900000      0.0000000E+00
 -0.4800000      0.0000000E+00
 -0.4700000      0.0000000E+00
 -0.4600000      0.0000000E+00
 -0.4500000      0.0000000E+00
 -0.4400000      0.0000000E+00
 -0.4300000      0.0000000E+00
 -0.4200000      0.0000000E+00
 -0.4100000      0.0000000E+00
 -0.4000000      0.0000000E+00
 -0.3900000      0.0000000E+00
 -0.3800000      0.0000000E+00
 -0.3700000      0.0000000E+00
 -0.3600000      0.0000000E+00
 -0.3500000      0.0000000E+00
 -0.3400000      0.0000000E+00
 -0.3300000      0.0000000E+00
 -0.3200000      0.0000000E+00
 -0.3100000      0.0000000E+00
 -0.3000000      0.0000000E+00
 -0.2900000     -1.5701668E-38
 -0.2800000     -2.7903518E-38
 -0.2700000     -3.4165027E-38
 -0.2600000     -3.5152808E-38
 -0.2500000     -2.9761870E-38
 -0.2400000     -1.2144684E-38
 -0.2300000      1.4328305E-38
 -0.2200000      4.2601169E-38
 -0.2100000      7.6142999E-38
 -0.2000000      1.1391822E-37
 -0.1900000      1.5566827E-37
 -0.1800000      1.9795036E-37
 -0.1700000      2.3203252E-37
 -0.1600000      2.5560162E-37
 -0.1500000      2.6110352E-37
 -0.1400000      2.4501984E-37
 -0.1300000      2.0692573E-37
 -0.1200000      1.4218172E-37
 -0.1100000      5.2114940E-38
 -0.1000000     -5.8637771E-38
 -9.0000004E-02 -1.7924626E-37
 -7.9999998E-02 -3.0222755E-37
 -7.0000000E-02 -4.2556425E-37
 -5.9999999E-02 -5.5289152E-37
 -5.0000001E-02 -6.6907701E-37
 -3.9999999E-02 -7.5645652E-37
 -2.9999999E-02 -8.4539731E-37
 -2.0000000E-02 -9.4909393E-37
 -9.9999998E-03 -1.0502241E-36
 -3.4694470E-17 -1.1312801E-36
  9.9999998E-03 -1.1888087E-36
  2.0000000E-02 -1.2158759E-36
  2.9999999E-02 -1.2357240E-36
  3.9999999E-02 -1.3920539E-36
  5.0000001E-02 -1.6654914E-36
  5.9999999E-02 -1.8008431E-36
  7.0000000E-02 -1.6903435E-36
  7.9999998E-02 -9.8292814E-37
  9.0000004E-02  3.7652930E-37
  0.1000000      2.0256589E-36
  0.1100000      3.8001134E-36
  0.1200000      5.6067084E-36
  0.1300000      7.5139459E-36
  0.1400000      9.2181730E-36
  0.1500000      1.0618155E-35
  0.1600000      1.1496285E-35
  0.1700000      1.1722594E-35
  0.1800000      1.1460690E-35
  0.1900000      9.9137717E-36
  0.2000000      8.3794201E-36
  0.2100000      7.6535839E-36
  0.2200000      6.5011438E-36
  0.2300000      4.3767980E-36
  0.2400000      9.2426095E-37
  0.2500000     -4.1562514E-36
  0.2600000     -1.0628948E-35
  0.2700000     -1.8636698E-35
  0.2800000     -3.1318745E-35
  0.2900000     -4.9233733E-35
  0.3000000     -7.1421246E-35
  0.3100000     -9.8489517E-35
  0.3200000     -1.2811511E-34
  0.3300000     -1.6069997E-34
  0.3400000     -1.9901397E-34
  0.3500000     -2.4322819E-34
  0.3600000     -2.9950271E-34
  0.3700000     -3.6524538E-34
  0.3800000     -4.3550408E-34
  0.3900000     -5.1503706E-34
  0.4000000     -5.9930274E-34
  0.4100000     -6.7281091E-34
  0.4200000     -7.2510566E-34
  0.4300000     -7.5448265E-34
  0.4400000     -7.6705672E-34
  0.4500000     -7.8379153E-34
  0.4600000     -8.0880173E-34
  0.4700000     -8.4260822E-34
  0.4800000     -8.9518900E-34
  0.4900000     -9.6774896E-34
  0.5000000     -1.0598994E-33
  0.5100000     -1.1609484E-33
  0.5200000     -1.2623776E-33
  0.5300000     -1.3677341E-33
  0.5400000     -1.4646845E-33
  0.5500000     -1.5335355E-33
  0.5600000     -1.5685508E-33
  0.5700000     -1.5843416E-33
  0.5800000     -1.5875104E-33
  0.5900000     -1.5669531E-33
  0.6000000     -1.5238556E-33
  0.6100000     -1.4630162E-33
  0.6200000     -1.3887465E-33
  0.6300000     -1.3046953E-33
  0.6400000     -1.2137234E-33
  0.6500000     -1.1184135E-33
  0.6600000     -1.0193436E-33
  0.6700000     -9.1499883E-34
  0.6800000     -8.0239520E-34
  0.6900000     -6.7752680E-34
  0.7000000     -5.3560220E-34
  0.7100000     -3.7162616E-34
  0.7200000     -1.8111650E-34
  0.7300000      3.9030149E-35
  0.7400000      2.8961270E-34
  0.7500000      5.6763314E-34
  0.7600000      8.7717308E-34
  0.7700000      1.2131556E-33
  0.7800000      1.5632027E-33
  0.7900000      1.9232320E-33
  0.8000000      2.2880922E-33
  0.8100000      2.6497512E-33
  0.8200000      3.0015453E-33
  0.8300000      3.3422901E-33
  0.8400000      3.6713480E-33
  0.8500000      3.9896337E-33
  0.8600000      4.2993710E-33
  0.8700000      4.6049367E-33
  0.8800000      4.9081940E-33
  0.8900000      5.2170397E-33
  0.9000000      5.5368565E-33
  0.9100000      5.8654086E-33
  0.9200000      6.2016907E-33
  0.9300000      6.5381642E-33
  0.9400000      6.8688646E-33
  0.9500000      7.1960524E-33
  0.9600000      7.5185397E-33
  0.9700000      7.8194024E-33
  0.9800000      8.0876840E-33
  0.9900000      8.3241339E-33
   1.000000      8.5272836E-33
   1.010000      8.6985869E-33
   1.020000      8.8431713E-33
   1.030000      8.9679551E-33
   1.040000      9.0826011E-33
   1.050000      9.1978532E-33
   1.060000      9.3248955E-33
   1.070000      9.4762404E-33
   1.080000      9.6634195E-33
   1.090000      9.8971335E-33
   1.100000      1.0187320E-32
   1.110000      1.0543155E-32
   1.120000      1.0973531E-32
   1.130000      1.1487650E-32
   1.140000      1.2095397E-32
   1.150000      1.2808123E-32
   1.160000      1.3639076E-32
   1.170000      1.4603581E-32
   1.180000      1.5718973E-32
   1.190000      1.7004225E-32
   1.200000      1.8479911E-32
   1.210000      2.0165673E-32
   1.220000      2.2081093E-32
   1.230000      2.4244841E-32
   1.240000      2.6672499E-32
   1.250000      2.9377185E-32
   1.260000      3.2369077E-32
   1.270000      3.5656006E-32
   1.280000      3.9243506E-32
   1.290000      4.3135935E-32
   1.300000      4.7337695E-32
   1.310000      5.1854506E-32
   1.320000      5.6694798E-32
   1.330000      6.1870929E-32
   1.340000      6.7400101E-32
   1.350000      7.3304991E-32
   1.360000      7.9613893E-32
   1.370000      8.6360490E-32
   1.380000      9.3583204E-32
   1.390000      1.0132420E-31
   1.400000      1.0962814E-31
   1.410000      1.1854084E-31
   1.420000      1.2810791E-31
   1.430000      1.3837365E-31
   1.440000      1.4937992E-31
   1.450000      1.6116552E-31
   1.460000      1.7376579E-31
   1.470000      1.8721247E-31
   1.480000      2.0153388E-31
   1.490000      2.1675530E-31
   1.500000      2.3289943E-31
   1.510000      2.4998705E-31
   1.520000      2.6803759E-31
   1.530000      2.8706964E-31
   1.540000      3.0710147E-31
   1.550000      3.2815154E-31
   1.560000      3.5023894E-31
   1.570000      3.7338400E-31
   1.580000      3.9760857E-31
   1.590000      4.2293666E-31
   1.600000      4.4939506E-31
   1.610000      4.7701391E-31
   1.620000      5.0582702E-31
   1.630000      5.3587209E-31
   1.640000      5.6719098E-31
   1.650000      5.9982909E-31
   1.660000      6.3383436E-31
   1.670000      6.6925553E-31
   1.680000      7.0613968E-31
   1.690000      7.4452930E-31
   1.700000      7.8445835E-31
   1.710000      8.2594803E-31
   1.720000      8.6900254E-31
   1.730000      9.1360399E-31
   1.740000      9.5970829E-31
   1.750000      1.0072411E-30
   1.760000      1.0560945E-30
   1.770000      1.1061244E-30
   1.780000      1.1571504E-30
   1.790000      1.2089550E-30
   1.800000      1.2612850E-30
   1.810000      1.3138545E-30
   1.820000      1.3663473E-30
   1.830000      1.4184220E-30
   1.840000      1.4697161E-30
   1.850000      1.5198516E-30
   1.860000      1.5684399E-30
   1.870000      1.6150850E-30
   1.880000      1.6593880E-30
   1.890000      1.7009494E-30
   1.900000      1.7393705E-30
   1.910000      1.7742545E-30
   1.920000      1.8052040E-30
   1.930000      1.8318206E-30
   1.940000      1.8537000E-30
   1.950000      1.8704282E-30
   1.960000      1.8815768E-30
   1.970000      1.8866983E-30
   1.980000      1.8853192E-30
   1.990000      1.8769350E-30
   2.000000      1.8610050E-30
   2.010000      1.8369499E-30
   2.020000      1.8041472E-30
   2.030000      1.7619321E-30
   2.040000      1.7095970E-30
   2.050000      1.6463957E-30
   2.060000      1.5715485E-30
   2.070000      1.4842520E-30
   2.080000      1.3836881E-30
   2.090000      1.2690388E-30
   2.100000      1.1394989E-30
   2.110000      9.9429453E-31
   2.120000      8.3269904E-31
   2.130000      6.5405009E-31
   2.140000      4.5776764E-31
   2.150000      2.4336911E-31
   2.160000      1.0481408E-32
   2.170000     -2.4114853E-31
   2.180000     -5.1164746E-31
   2.190000     -8.0101439E-31
   2.200000     -1.1091217E-30
   2.210000     -1.4357230E-30
   2.220000     -1.7804641E-30
   2.230000     -2.1428980E-30
   2.240000     -2.5224999E-30
   2.250000     -2.9186868E-30
   2.260000     -3.3308420E-30
   2.270000     -3.7583323E-30
   2.280000     -4.2005217E-30
   2.290000     -4.6567888E-30
   2.300000     -5.1265378E-30
   2.310000     -5.6092059E-30
   2.320000     -6.1042613E-30
   2.330000     -6.6111961E-30
   2.340000     -7.1295203E-30
   2.350000     -7.6587448E-30
   2.360000     -8.1983543E-30
   2.370000     -8.7477875E-30
   2.380000     -9.3064140E-30
   2.390000     -9.8735056E-30
   2.400000     -1.0448205E-29
   2.410000     -1.1029513E-29
   2.420000     -1.1616276E-29
   2.430000     -1.2207171E-29
   2.440000     -1.2800707E-29
   2.450000     -1.3395248E-29
   2.460000     -1.3989016E-29
   2.470000     -1.4580149E-29
   2.480000     -1.5166734E-29
   2.490000     -1.5746861E-29
   2.500000     -1.6318690E-29
   2.510000     -1.6880532E-29
   2.520000     -1.7430906E-29
   2.530000     -1.7968641E-29
   2.540000     -1.8492949E-29
   2.550000     -1.9003494E-29
   2.560000     -1.9500459E-29
   2.570000     -1.9984612E-29
   2.580000     -2.0457350E-29
   2.590000     -2.0920722E-29
   2.600000     -2.1377460E-29
   2.610000     -2.1830982E-29
   2.620000     -2.2285366E-29
   2.630000     -2.2745315E-29
   2.640000     -2.3216129E-29
   2.650000     -2.3703643E-29
   2.660000     -2.4214177E-29
   2.670000     -2.4754500E-29
   2.680000     -2.5331754E-29
   2.690000     -2.5953393E-29
   2.700000     -2.6627200E-29
   2.710000     -2.7361214E-29
   2.720000     -2.8163752E-29
   2.730000     -2.9043427E-29
   2.740000     -3.0009166E-29
   2.750000     -3.1070285E-29
   2.760000     -3.2236552E-29
   2.770000     -3.3518265E-29
   2.780000     -3.4926363E-29
   2.790000     -3.6472485E-29
   2.800000     -3.8169079E-29
   2.810000     -4.0029482E-29
   2.820000     -4.2067955E-29
   2.830000     -4.4299666E-29
   2.840000     -4.6740728E-29
   2.850000     -4.9408177E-29
   2.860000     -5.2319879E-29
   2.870000     -5.5494371E-29
   2.880000     -5.8950645E-29
   2.890000     -6.2707978E-29
   2.900000     -6.6785713E-29
   2.910000     -7.1202846E-29
   2.920000     -7.5977702E-29
   2.930000     -8.1127632E-29
   2.940000     -8.6668701E-29
   2.950000     -9.2615178E-29
   2.960000     -9.8979221E-29
   2.970000     -1.0577058E-28
   2.980000     -1.1299627E-28
   2.990000     -1.2066032E-28
   3.000000     -1.2876345E-28
   3.010000     -1.3730301E-28
   3.020000     -1.4627279E-28
   3.030000     -1.5566283E-28
   3.040000     -1.6545943E-28
   3.050000     -1.7564508E-28
   3.060000     -1.8619835E-28
   3.070000     -1.9709396E-28
   3.080000     -2.0830261E-28
   3.090000     -2.1979093E-28
   3.100000     -2.3152150E-28
   3.110000     -2.4345271E-28
   3.120000     -2.5553855E-28
   3.130000     -2.6772829E-28
   3.140000     -2.7996618E-28
   3.150000     -2.9219135E-28
   3.160000     -3.0433706E-28
   3.170000     -3.1633048E-28
   3.180000     -3.2809225E-28
   3.190000     -3.3953603E-28
   3.200000     -3.5056783E-28
   3.210000     -3.6108567E-28
   3.220000     -3.7097941E-28
   3.230000     -3.8013037E-28
   3.240000     -3.8841120E-28
   3.250000     -3.9568601E-28
   3.260000     -4.0181045E-28
   3.270000     -4.0663218E-28
   3.280000     -4.0999120E-28
   3.290000     -4.1172063E-28
   3.300000     -4.1164764E-28
   3.310000     -4.0959436E-28
   3.320000     -4.0537893E-28
   3.330000     -3.9881734E-28
   3.340000     -3.8972449E-28
   3.350000     -3.7791572E-28
   3.360000     -3.6320841E-28
   3.370000     -3.4542365E-28
   3.380000     -3.2438773E-28
   3.390000     -2.9993379E-28
   3.400000     -2.7190351E-28
   3.410000     -2.4014825E-28
   3.420000     -2.0453121E-28
   3.430000     -1.6492871E-28
   3.440000     -1.2123110E-28
   3.450000     -7.3344787E-29
   3.460000     -2.1193446E-29
   3.470000      3.5280235E-29
   3.480000      9.6112860E-29
   3.490000      1.6131817E-28
   3.500000      2.3088549E-28
   3.510000      3.0477728E-28
   3.520000      3.8292695E-28
   3.530000      4.6523640E-28
   3.540000      5.5157213E-28
   3.550000      6.4176290E-28
   3.560000      7.3559652E-28
   3.570000      8.3281563E-28
   3.580000      9.3311470E-28
   3.590000      1.0361356E-27
   3.600000      1.1414644E-27
   3.610000      1.2486276E-27
   3.620000      1.3570866E-27
   3.630000      1.4662369E-27
   3.640000      1.5754043E-27
   3.650000      1.6838413E-27
   3.660000      1.7907250E-27
   3.670000      1.8951555E-27
   3.680000      1.9961540E-27
   3.690000      2.0926631E-27
   3.700000      2.1835464E-27
   3.710000      2.2675880E-27
   3.720000      2.3434941E-27
   3.730000      2.4098942E-27
   3.740000      2.4653446E-27
   3.750000      2.5083302E-27
   3.760000      2.5372688E-27
   3.770000      2.5505133E-27
   3.780000      2.5463571E-27
   3.790000      2.5230385E-27
   3.800000      2.4787462E-27
   3.810000      2.4116248E-27
   3.820000      2.3197820E-27
   3.830000      2.2012915E-27
   3.840000      2.0542032E-27
   3.850000      1.8765514E-27
   3.860000      1.6663631E-27
   3.870000      1.4216641E-27
   3.880000      1.1404943E-27
   3.890000      8.2091772E-28
   3.900000      4.6103551E-28
   3.910000      5.9000966E-29
   3.920000     -3.8696545E-28
   3.930000     -8.7855666E-28
   3.940000     -1.4173609E-27
   3.950000     -2.0048438E-27
   3.960000     -2.6423171E-27
   3.970000     -3.3309186E-27
   3.980000     -4.0715881E-27
   3.990000     -4.8650373E-27
   4.000000     -5.7117231E-27
   4.010000     -6.6118169E-27
   4.020000     -7.5651738E-27
   4.030000     -8.5712911E-27
   4.040000     -9.6292869E-27
   4.050000     -1.0737862E-26
   4.060000     -1.1895266E-26
   4.070000     -1.3099262E-26
   4.080000     -1.4347095E-26
   4.090000     -1.5635451E-26
   4.100000     -1.6960426E-26
   4.110000     -1.8317492E-26
   4.120000     -1.9701470E-26
   4.130000     -2.1106490E-26
   4.140000     -2.2525952E-26
   4.150000     -2.3952506E-26
   4.160000     -2.5378017E-26
   4.170000     -2.6793534E-26
   4.180000     -2.8189257E-26
   4.190000     -2.9554504E-26
   4.200000     -3.0877698E-26
   4.210000     -3.2146328E-26
   4.220000     -3.3346925E-26
   4.230000     -3.4465037E-26
   4.240000     -3.5485216E-26
   4.250000     -3.6390989E-26
   4.260000     -3.7164846E-26
   4.270000     -3.7788206E-26
   4.280000     -3.8241453E-26
   4.290000     -3.8503928E-26
   4.300000     -3.8553888E-26
   4.310000     -3.8368521E-26
   4.320000     -3.7923992E-26
   4.330000     -3.7195473E-26
   4.340000     -3.6157122E-26
   4.350000     -3.4782168E-26
   4.360000     -3.3042903E-26
   4.370000     -3.0910818E-26
   4.380000     -2.8356647E-26
   4.390000     -2.5350409E-26
   4.400000     -2.1861514E-26
   4.410000     -1.7858811E-26
   4.420000     -1.3310774E-26
   4.430000     -8.1855952E-27
   4.440000     -2.4513489E-27
   4.450000      3.9239082E-27
   4.460000      1.0971998E-26
   4.470000      1.8724439E-26
   4.480000      2.7212275E-26
   4.490000      3.6465853E-26
   4.500000      4.6514638E-26
   4.510000      5.7387012E-26
   4.520000      6.9109978E-26
   4.530000      8.1708986E-26
   4.540000      9.5207672E-26
   4.550000      1.0962756E-25
   4.560000      1.2498782E-25
   4.570000      1.4130492E-25
   4.580000      1.5859233E-25
   4.590000      1.7686024E-25
   4.600000      1.9611505E-25
   4.610000      2.1635918E-25
   4.620000      2.3759063E-25
   4.630000      2.5980256E-25
   4.640000      2.8298294E-25
   4.650000      3.0711408E-25
   4.660000      3.3217224E-25
   4.670000      3.5812717E-25
   4.680000      3.8494174E-25
   4.690000      4.1257130E-25
   4.700000      4.4096348E-25
   4.710000      4.7005741E-25
   4.720000      4.9978371E-25
   4.730000      5.3006365E-25
   4.740000      5.6080871E-25
   4.750000      5.9192040E-25
   4.760000      6.2328940E-25
   4.770000      6.5479533E-25
   4.780000      6.8630637E-25
   4.790000      7.1767883E-25
   4.800000      7.4875660E-25
   4.810000      7.7937116E-25
   4.820000      8.0934067E-25
   4.830000      8.3846980E-25
   4.840000      8.6654950E-25
   4.850000      8.9335687E-25
   4.860000      9.1865466E-25
   4.870000      9.4219140E-25
   4.880000      9.6370128E-25
   4.890000      9.8290333E-25
   4.900000      9.9950225E-25
   4.910000      1.0131876E-24
   4.920000      1.0236345E-24
   4.930000      1.0305037E-24
   4.940000      1.0334416E-24
   4.950000      1.0320805E-24
   4.960000      1.0260381E-24
   4.970000      1.0149188E-24
   4.980000      9.9831462E-25
   4.990000      9.7580516E-25
   5.000000      9.4695859E-25
   5.010000      9.1133235E-25
   5.020000      8.6847472E-25
   5.030000      8.1792506E-25
   5.040000      7.5921532E-25
   5.050000      6.9187100E-25
   5.060000      6.1541287E-25
   5.070000      5.2935870E-25
   5.080000      4.3322570E-25
   5.090000      3.2653159E-25
   5.100000      2.0879622E-25
   5.110000      7.9544044E-26
   5.120000     -6.1692849E-26
   5.130000     -2.1537337E-25
   5.140000     -3.8194453E-25
   5.150000     -5.6183748E-25
   5.160000     -7.5546473E-25
   5.170000     -9.6321879E-25
   5.180000     -1.1854672E-24
   5.190000     -1.4225493E-24
   5.200000     -1.6747728E-24
   5.210000     -1.9424094E-24
   5.220000     -2.2256929E-24
   5.230000     -2.5248128E-24
   5.240000     -2.8399105E-24
   5.250000     -3.1710751E-24
   5.260000     -3.5183382E-24
   5.270000     -3.8816690E-24
   5.280000     -4.2609714E-24
   5.290000     -4.6560756E-24
   5.300000     -5.0667368E-24
   5.310000     -5.4926275E-24
   5.320000     -5.9333333E-24
   5.330000     -6.3883483E-24
   5.340000     -6.8570669E-24
   5.350000     -7.3387809E-24
   5.360000     -7.8326733E-24
   5.370000     -8.3378125E-24
   5.380000     -8.8531469E-24
   5.390000     -9.3774980E-24
   5.400000     -9.9095571E-24
   5.410000     -1.0447880E-23
   5.420000     -1.0990877E-23
   5.430000     -1.1536817E-23
   5.440000     -1.2083809E-23
   5.450000     -1.2629809E-23
   5.460000     -1.3172611E-23
   5.470000     -1.3709844E-23
   5.480000     -1.4238966E-23
   5.490000     -1.4757265E-23
   5.500000     -1.5261854E-23
   5.510000     -1.5749671E-23
   5.520000     -1.6217473E-23
   5.530000     -1.6661834E-23
   5.540000     -1.7079143E-23
   5.550000     -1.7465608E-23
   5.560000     -1.7817252E-23
   5.570000     -1.8129911E-23
   5.580000     -1.8399236E-23
   5.590000     -1.8620700E-23
   5.600000     -1.8789600E-23
   5.610000     -1.8901055E-23
   5.620000     -1.8950025E-23
   5.630000     -1.8931310E-23
   5.640000     -1.8839543E-23
   5.650000     -1.8669223E-23
   5.660000     -1.8414719E-23
   5.670000     -1.8070260E-23
   5.680000     -1.7629965E-23
   5.690000     -1.7087854E-23
   5.700000     -1.6437859E-23
   5.710000     -1.5673847E-23
   5.720000     -1.4789634E-23
   5.730000     -1.3778996E-23
   5.740000     -1.2635696E-23
   5.750000     -1.1353513E-23
   5.760000     -9.9262502E-24
   5.770000     -8.3477766E-24
   5.780000     -6.6120534E-24
   5.790000     -4.7131485E-24
   5.800000     -2.6452723E-24
   5.810000     -4.0281683E-25
   5.820000      2.0196210E-24
   5.830000      4.6271847E-24
   5.840000      7.4247454E-24
   5.850000      1.0416854E-23
   5.860000      1.3607704E-23
   5.870000      1.7001077E-23
   5.880000      2.0600277E-23
   5.890000      2.4408129E-23
   5.900000      2.8426918E-23
   5.910000      3.2658324E-23
   5.920000      3.7103378E-23
   5.930000      4.1762410E-23
   5.940000      4.6635018E-23
   5.950000      5.1720005E-23
   5.960000      5.7015301E-23
   5.970000      6.2517927E-23
   5.980000      6.8223929E-23
   5.990000      7.4128325E-23
   6.000000      8.0225065E-23
   6.010000      8.6506929E-23
   6.020000      9.2965541E-23
   6.030000      9.9591260E-23
   6.040000      1.0637311E-22
   6.050000      1.1329871E-22
   6.060000      1.2035429E-22
   6.070000      1.2752460E-22
   6.080000      1.3479283E-22
   6.090000      1.4214054E-22
   6.100000      1.4954776E-22
   6.110000      1.5699275E-22
   6.120000      1.6445204E-22
   6.130000      1.7190038E-22
   6.140000      1.7931070E-22
   6.150000      1.8665413E-22
   6.160000      1.9389989E-22
   6.170000      2.0101531E-22
   6.180000      2.0796578E-22
   6.190000      2.1471474E-22
   6.200000      2.2122371E-22
   6.210000      2.2745220E-22
   6.220000      2.3335780E-22
   6.230000      2.3889624E-22
   6.240000      2.4402121E-22
   6.250000      2.4868447E-22
   6.260000      2.5283600E-22
   6.270000      2.5642387E-22
   6.280000      2.5939440E-22
   6.290000      2.6169225E-22
   6.300000      2.6326030E-22
   6.310000      2.6403992E-22
   6.320000      2.6397103E-22
   6.330000      2.6299227E-22
   6.340000      2.6104091E-22
   6.350000      2.5805319E-22
   6.360000      2.5396431E-22
   6.370000      2.4870861E-22
   6.380000      2.4221985E-22
   6.390000      2.3443131E-22
   6.400000      2.2527611E-22
   6.410000      2.1468717E-22
   6.420000      2.0259759E-22
   6.430000      1.8894095E-22
   6.440000      1.7365150E-22
   6.450000      1.5666434E-22
   6.460000      1.3791579E-22
   6.470000      1.1734383E-22
   6.480000      9.4888393E-23
   6.490000      7.0491449E-23
   6.500000      4.4097331E-23
   6.510000      1.5653487E-23
   6.520000     -1.4889259E-23
   6.530000     -4.7576693E-23
   6.540000     -8.2450410E-23
   6.550000     -1.1954769E-22
   6.560000     -1.5890086E-22
   6.570000     -2.0053672E-22
   6.580000     -2.4447632E-22
   6.590000     -2.9073432E-22
   6.600000     -3.3931866E-22
   6.610000     -3.9022988E-22
   6.620000     -4.4346095E-22
   6.630000     -4.9899630E-22
   6.640000     -5.5681170E-22
   6.650000     -6.1687388E-22
   6.660000     -6.7913987E-22
   6.670000     -7.4355636E-22
   6.680000     -8.1005918E-22
   6.690000     -8.7857274E-22
   6.700000     -9.4900972E-22
   6.710000     -1.0212706E-21
   6.720000     -1.0952431E-21
   6.730000     -1.1708010E-21
   6.740000     -1.2478048E-21
   6.750000     -1.3261010E-21
   6.760000     -1.4055212E-21
   6.770000     -1.4858818E-21
   6.780000     -1.5669835E-21
   6.790000     -1.6486119E-21
   6.800000     -1.7305356E-21
   6.810000     -1.8125072E-21
   6.820000     -1.8942628E-21
   6.830000     -1.9755212E-21
   6.840000     -2.0559841E-21
   6.850000     -2.1353367E-21
   6.860000     -2.2132455E-21
   6.870000     -2.2893605E-21
   6.880000     -2.3633142E-21
   6.890000     -2.4347219E-21
   6.900000     -2.5031820E-21
   6.910000     -2.5682748E-21
   6.920000     -2.6295648E-21
   6.930000     -2.6865992E-21
   6.940000     -2.7389093E-21
   6.950000     -2.7860107E-21
   6.960000     -2.8274051E-21
   6.970000     -2.8625799E-21
   6.980000     -2.8910080E-21
   6.990000     -2.9121501E-21
   7.000000     -2.9254555E-21
   7.010000     -2.9303633E-21
   7.020000     -2.9263023E-21
   7.030000     -2.9126928E-21
   7.040000     -2.8889473E-21
   7.050000     -2.8544739E-21
   7.060000     -2.8086778E-21