  -2.600000      0.0000000E+00
  -2.590000      0.0000000E+00
  -2.580000      0.0000000E+00
  -2.570000      0.0000000E+00
  -2.560000      0.0000000E+00
  -2.550000      0.0000000E+00
  -2.540000      0.0000000E+00
  -2.530000      0.0000000E+00
  -2.520000      0.0000000E+00
  -2.510000      0.0000000E+00
  -2.500000      0.0000000E+00
  -2.490000      0.0000000E+00
  -2.480000      0.0000000E+00
  -2.470000      0.0000000E+00
  -2.460000      0.0000000E+00
  -2.450000      0.0000000E+00
  -2.440000      0.0000000E+00
  -2.430000      0.0000000E+00
  -2.420000      0.0000000E+00
  -2.410000      0.0000000E+00
  -2.400000      0.0000000E+00
  -2.390000      0.0000000E+00
  -2.380000      0.0000000E+00
  -2.370000      0.0000000E+00
  -2.360000      0.0000000E+00
  -2.350000      0.0000000E+00
  -2.340000      0.0000000E+00
  -2.330000      0.0000000E+00
  -2.320000      0.0000000E+00
  -2.310000      0.0000000E+00
  -2.300000      0.0000000E+00
  -2.290000      0.0000000E+00
  -2.280000      0.0000000E+00
  -2.270000      0.0000000E+00
  -2.260000      0.0000000E+00
  -2.250000      0.0000000E+00
  -2.240000      0.0000000E+00
  -2.230000      0.0000000E+00
  -2.220000      0.0000000E+00
  -2.210000      0.0000000E+00
  -2.200000      0.0000000E+00
  -2.190000      0.0000000E+00
  -2.180000      0.0000000E+00
  -2.170000      0.0000000E+00
  -2.160000      0.0000000E+00
  -2.150000      0.0000000E+00
  -2.140000      0.0000000E+00
  -2.130000      0.0000000E+00
  -2.120000      0.0000000E+00
  -2.110000      0.0000000E+00
  -2.100000      0.0000000E+00
  -2.090000      0.0000000E+00
  -2.080000      0.0000000E+00
  -2.070000      0.0000000E+00
  -2.060000      0.0000000E+00
  -2.050000      0.0000000E+00
  -2.040000      0.0000000E+00
  -2.030000      0.0000000E+00
  -2.020000      0.0000000E+00
  -2.010000      0.0000000E+00
  -2.000000      0.0000000E+00
  -1.990000      0.0000000E+00
  -1.980000      0.0000000E+00
  -1.970000      0.0000000E+00
  -1.960000      0.0000000E+00
  -1.950000      0.0000000E+00
  -1.940000      0.0000000E+00
  -1.930000      0.0000000E+00
  -1.920000      0.0000000E+00
  -1.910000      0.0000000E+00
  -1.900000      0.0000000E+00
  -1.890000      0.0000000E+00
  -1.880000      0.0000000E+00
  -1.870000      0.0000000E+00
  -1.860000      0.0000000E+00
  -1.850000      0.0000000E+00
  -1.840000      0.0000000E+00
  -1.830000      0.0000000E+00
  -1.820000      0.0000000E+00
  -1.810000      0.0000000E+00
  -1.800000      0.0000000E+00
  -1.790000      0.0000000E+00
  -1.780000      0.0000000E+00
  -1.770000      0.0000000E+00
  -1.760000      0.0000000E+00
  -1.750000      0.0000000E+00
  -1.740000      0.0000000E+00
  -1.730000      0.0000000E+00
  -1.720000      0.0000000E+00
  -1.710000      0.0000000E+00
  -1.700000      0.0000000E+00
  -1.690000      0.0000000E+00
  -1.680000      0.0000000E+00
  -1.670000      0.0000000E+00
  -1.660000      0.0000000E+00
  -1.650000      0.0000000E+00
  -1.640000      0.0000000E+00
  -1.630000      0.0000000E+00
  -1.620000      0.0000000E+00
  -1.610000      0.0000000E+00
  -1.600000      0.0000000E+00
  -1.590000      0.0000000E+00
  -1.580000      0.0000000E+00
  -1.570000      0.0000000E+00
  -1.560000      0.0000000E+00
  -1.550000      0.0000000E+00
  -1.540000      0.0000000E+00
  -1.530000      0.0000000E+00
  -1.520000      0.0000000E+00
  -1.510000      0.0000000E+00
  -1.500000      0.0000000E+00
  -1.490000      0.0000000E+00
  -1.480000      0.0000000E+00
  -1.470000      0.0000000E+00
  -1.460000      0.0000000E+00
  -1.450000      0.0000000E+00
  -1.440000      0.0000000E+00
  -1.430000      0.0000000E+00
  -1.420000      0.0000000E+00
  -1.410000      0.0000000E+00
  -1.400000      0.0000000E+00
  -1.390000      0.0000000E+00
  -1.380000      0.0000000E+00
  -1.370000      0.0000000E+00
  -1.360000      0.0000000E+00
  -1.350000      0.0000000E+00
  -1.340000      0.0000000E+00
  -1.330000      0.0000000E+00
  -1.320000      0.0000000E+00
  -1.310000      0.0000000E+00
  -1.300000      0.0000000E+00
  -1.290000      0.0000000E+00
  -1.280000      0.0000000E+00
  -1.270000      0.0000000E+00
  -1.260000      0.0000000E+00
  -1.250000      0.0000000E+00
  -1.240000      0.0000000E+00
  -1.230000      0.0000000E+00
  -1.220000      0.0000000E+00
  -1.210000      0.0000000E+00
  -1.200000      0.0000000E+00
  -1.190000      0.0000000E+00
  -1.180000      0.0000000E+00
  -1.170000      0.0000000E+00
  -1.160000      0.0000000E+00
  -1.150000      0.0000000E+00
  -1.140000      0.0000000E+00
  -1.130000      0.0000000E+00
  -1.120000      0.0000000E+00
  -1.110000      0.0000000E+00
  -1.100000      0.0000000E+00
  -1.090000      0.0000000E+00
  -1.080000      0.0000000E+00
  -1.070000      0.0000000E+00
  -1.060000      0.0000000E+00
  -1.050000      0.0000000E+00
  -1.040000      0.0000000E+00
  -1.030000      0.0000000E+00
  -1.020000      0.0000000E+00
  -1.010000      0.0000000E+00
  -1.000000      0.0000000E+00
 -0.9900000      0.0000000E+00
 -0.9800000      0.0000000E+00
 -0.9700000      0.0000000E+00
 -0.9600000      0.0000000E+00
 -0.9500000      0.0000000E+00
 -0.9400000      0.0000000E+00
 -0.9300000      0.0000000E+00
 -0.9200000      0.0000000E+00
 -0.9100000      0.0000000E+00
 -0.9000000      0.0000000E+00
 -0.8900000      0.0000000E+00
 -0.8800000      0.0000000E+00
 -0.8700000      0.0000000E+00
 -0.8600000      0.0000000E+00
 -0.8500000      0.0000000E+00
 -0.8400000      0.0000000E+00
 -0.8300000      0.0000000E+00
 -0.8200000      0.0000000E+00
 -0.8100000      0.0000000E+00
 -0.8000000      0.0000000E+00
 -0.7900000      0.0000000E+00
 -0.7800000      0.0000000E+00
 -0.7700000      0.0000000E+00
 -0.7600000      0.0000000E+00
 -0.7500000      0.0000000E+00
 -0.7400000      0.0000000E+00
 -0.7300000      0.0000000E+00
 -0.7200000      0.0000000E+00
 -0.7100000      0.0000000E+00
 -0.7000000      0.0000000E+00
 -0.6900000      0.0000000E+00
 -0.6800000      0.0000000E+00
 -0.6700000      0.0000000E+00
 -0.6600000      0.0000000E+00
 -0.6500000      0.0000000E+00
 -0.6400000      0.0000000E+00
 -0.6300000      0.0000000E+00
 -0.6200000      0.0000000E+00
 -0.6100000      0.0000000E+00
 -0.6000000      0.0000000E+00
 -0.5900000      0.0000000E+00
 -0.5800000      0.0000000E+00
 -0.5700000      0.0000000E+00
 -0.5600000      0.0000000E+00
 -0.5500000      0.0000000E+00
 -0.5400000      0.0000000E+00
 -0.5300000      0.0000000E+00
 -0.5200000      0.0000000E+00
 -0.5100000      0.0000000E+00
 -0.5000000      0.0000000E+00
 -0.4900000      0.0000000E+00
 -0.4800000      0.0000000E+00
 -0.4700000      0.0000000E+00
 -0.4600000      0.0000000E+00
 -0.4500000      0.0000000E+00
 -0.4400000      0.0000000E+00
 -0.4300000      0.0000000E+00
 -0.4200000      0.0000000E+00
 -0.4100000      0.0000000E+00
 -0.4000000      0.0000000E+00
 -0.3900000      0.0000000E+00
 -0.3800000      0.0000000E+00
 -0.3700000      0.0000000E+00
 -0.3600000      0.0000000E+00
 -0.3500000      0.0000000E+00
 -0.3400000      0.0000000E+00
 -0.3300000      0.0000000E+00
 -0.3200000      0.0000000E+00
 -0.3100000      0.0000000E+00
 -0.3000000      0.0000000E+00
 -0.2900000      0.0000000E+00
 -0.2800000      0.0000000E+00
 -0.2700000      0.0000000E+00
 -0.2600000      0.0000000E+00
 -0.2500000      0.0000000E+00
 -0.2400000      0.0000000E+00
 -0.2300000      0.0000000E+00
 -0.2200000      0.0000000E+00
 -0.2100000      0.0000000E+00
 -0.2000000      0.0000000E+00
 -0.1900000      0.0000000E+00
 -0.1800000      0.0000000E+00
 -0.1700000      0.0000000E+00
 -0.1600000      0.0000000E+00
 -0.1500000      0.0000000E+00
 -0.1400000      0.0000000E+00
 -0.1300000      0.0000000E+00
 -0.1200000      0.0000000E+00
 -0.1100000      0.0000000E+00
 -0.1000000      0.0000000E+00
 -9.0000004E-02  0.0000000E+00
 -7.9999998E-02  0.0000000E+00
 -7.0000000E-02  0.0000000E+00
 -5.9999999E-02  0.0000000E+00
 -5.0000001E-02  0.0000000E+00
 -3.9999999E-02  0.0000000E+00
 -2.9999999E-02  0.0000000E+00
 -2.0000000E-02  0.0000000E+00
 -9.9999998E-03  0.0000000E+00
 -3.4694470E-17  0.0000000E+00
  9.9999998E-03  0.0000000E+00
  2.0000000E-02  0.0000000E+00
  2.9999999E-02  0.0000000E+00
  3.9999999E-02  0.0000000E+00
  5.0000001E-02  0.0000000E+00
  5.9999999E-02  0.0000000E+00
  7.0000000E-02  0.0000000E+00
  7.9999998E-02  0.0000000E+00
  9.0000004E-02  0.0000000E+00
  0.1000000      0.0000000E+00
  0.1100000      0.0000000E+00
  0.1200000      0.0000000E+00
  0.1300000      0.0000000E+00
  0.1400000      0.0000000E+00
  0.1500000      0.0000000E+00
  0.1600000      0.0000000E+00
  0.1700000      0.0000000E+00
  0.1800000      0.0000000E+00
  0.1900000      0.0000000E+00
  0.2000000      0.0000000E+00
  0.2100000      0.0000000E+00
  0.2200000      0.0000000E+00
  0.2300000      0.0000000E+00
  0.2400000      0.0000000E+00
  0.2500000      0.0000000E+00
  0.2600000      0.0000000E+00
  0.2700000      0.0000000E+00
  0.2800000      0.0000000E+00
  0.2900000      0.0000000E+00
  0.3000000      0.0000000E+00
  0.3100000      0.0000000E+00
  0.3200000      0.0000000E+00
  0.3300000      0.0000000E+00
  0.3400000      0.0000000E+00
  0.3500000      0.0000000E+00
  0.3600000      0.0000000E+00
  0.3700000      0.0000000E+00
  0.3800000      0.0000000E+00
  0.3900000      0.0000000E+00
  0.4000000      0.0000000E+00
  0.4100000      0.0000000E+00
  0.4200000      0.0000000E+00
  0.4300000      0.0000000E+00
  0.4400000      0.0000000E+00
  0.4500000      0.0000000E+00
  0.4600000      0.0000000E+00
  0.4700000      0.0000000E+00
  0.4800000      0.0000000E+00
  0.4900000      0.0000000E+00
  0.5000000      0.0000000E+00
  0.5100000      0.0000000E+00
  0.5200000      0.0000000E+00
  0.5300000      0.0000000E+00
  0.5400000      0.0000000E+00
  0.5500000      0.0000000E+00
  0.5600000      0.0000000E+00
  0.5700000      0.0000000E+00
  0.5800000      0.0000000E+00
  0.5900000      0.0000000E+00
  0.6000000      0.0000000E+00
  0.6100000      0.0000000E+00
  0.6200000      0.0000000E+00
  0.6300000      0.0000000E+00
  0.6400000      0.0000000E+00
  0.6500000      0.0000000E+00
  0.6600000      0.0000000E+00
  0.6700000      0.0000000E+00
  0.6800000      0.0000000E+00
  0.6900000      0.0000000E+00
  0.7000000      0.0000000E+00
  0.7100000      0.0000000E+00
  0.7200000      0.0000000E+00
  0.7300000      0.0000000E+00
  0.7400000      0.0000000E+00
  0.7500000      0.0000000E+00
  0.7600000      0.0000000E+00
  0.7700000      0.0000000E+00
  0.7800000      0.0000000E+00
  0.7900000      0.0000000E+00
  0.8000000      0.0000000E+00
  0.8100000      0.0000000E+00
  0.8200000      0.0000000E+00
  0.8300000      0.0000000E+00
  0.8400000      0.0000000E+00
  0.8500000      0.0000000E+00
  0.8600000      0.0000000E+00
  0.8700000      0.0000000E+00
  0.8800000      0.0000000E+00
  0.8900000      0.0000000E+00
  0.9000000      0.0000000E+00
  0.9100000      0.0000000E+00
  0.9200000      0.0000000E+00
  0.9300000      0.0000000E+00
  0.9400000      0.0000000E+00
  0.9500000      0.0000000E+00
  0.9600000      0.0000000E+00
  0.9700000      0.0000000E+00
  0.9800000      0.0000000E+00
  0.9900000      0.0000000E+00
   1.000000      0.0000000E+00
   1.010000      0.0000000E+00
   1.020000      0.0000000E+00
   1.030000      0.0000000E+00
   1.040000      0.0000000E+00
   1.050000      0.0000000E+00
   1.060000      0.0000000E+00
   1.070000      0.0000000E+00
   1.080000      0.0000000E+00
   1.090000      0.0000000E+00
   1.100000      0.0000000E+00
   1.110000      0.0000000E+00
   1.120000      0.0000000E+00
   1.130000      0.0000000E+00
   1.140000      0.0000000E+00
   1.150000      0.0000000E+00
   1.160000      0.0000000E+00
   1.170000      0.0000000E+00
   1.180000      0.0000000E+00
   1.190000      0.0000000E+00
   1.200000      0.0000000E+00
   1.210000      0.0000000E+00
   1.220000      0.0000000E+00
   1.230000      0.0000000E+00
   1.240000      0.0000000E+00
   1.250000      0.0000000E+00
   1.260000      0.0000000E+00
   1.270000      0.0000000E+00
   1.280000      0.0000000E+00
   1.290000      0.0000000E+00
   1.300000      0.0000000E+00
   1.310000      0.0000000E+00
   1.320000      0.0000000E+00
   1.330000      0.0000000E+00
   1.340000      0.0000000E+00
   1.350000      0.0000000E+00
   1.360000      0.0000000E+00
   1.370000      0.0000000E+00
   1.380000      0.0000000E+00
   1.390000      0.0000000E+00
   1.400000      0.0000000E+00
   1.410000      0.0000000E+00
   1.420000      0.0000000E+00
   1.430000      0.0000000E+00
   1.440000      0.0000000E+00
   1.450000      0.0000000E+00
   1.460000      0.0000000E+00
   1.470000      0.0000000E+00
   1.480000      0.0000000E+00
   1.490000      0.0000000E+00
   1.500000      0.0000000E+00
   1.510000      0.0000000E+00
   1.520000      0.0000000E+00
   1.530000      0.0000000E+00
   1.540000      0.0000000E+00
   1.550000      0.0000000E+00
   1.560000      0.0000000E+00
   1.570000      0.0000000E+00
   1.580000      0.0000000E+00
   1.590000      0.0000000E+00
   1.600000      0.0000000E+00
   1.610000      0.0000000E+00
   1.620000      0.0000000E+00
   1.630000      0.0000000E+00
   1.640000      0.0000000E+00
   1.650000      0.0000000E+00
   1.660000      0.0000000E+00
   1.670000      0.0000000E+00
   1.680000      0.0000000E+00
   1.690000      0.0000000E+00
   1.700000      0.0000000E+00
   1.710000      0.0000000E+00
   1.720000      0.0000000E+00
   1.730000      0.0000000E+00
   1.740000      0.0000000E+00
   1.750000      0.0000000E+00
   1.760000      0.0000000E+00
   1.770000      0.0000000E+00
   1.780000      0.0000000E+00
   1.790000      0.0000000E+00
   1.800000      0.0000000E+00
   1.810000      0.0000000E+00
   1.820000      0.0000000E+00
   1.830000      0.0000000E+00
   1.840000      0.0000000E+00
   1.850000      0.0000000E+00
   1.860000      0.0000000E+00
   1.870000      0.0000000E+00
   1.880000      0.0000000E+00
   1.890000      0.0000000E+00
   1.900000      0.0000000E+00
   1.910000      0.0000000E+00
   1.920000      0.0000000E+00
   1.930000      0.0000000E+00
   1.940000      0.0000000E+00
   1.950000      0.0000000E+00
   1.960000      0.0000000E+00
   1.970000      0.0000000E+00
   1.980000      0.0000000E+00
   1.990000      0.0000000E+00
   2.000000      0.0000000E+00
   2.010000      0.0000000E+00
   2.020000      0.0000000E+00
   2.030000      0.0000000E+00
   2.040000      0.0000000E+00
   2.050000      0.0000000E+00
   2.060000      0.0000000E+00
   2.070000      0.0000000E+00
   2.080000      0.0000000E+00
   2.090000      0.0000000E+00
   2.100000      0.0000000E+00
   2.110000      0.0000000E+00
   2.120000      0.0000000E+00
   2.130000      0.0000000E+00
   2.140000      0.0000000E+00
   2.150000      0.0000000E+00
   2.160000      0.0000000E+00
   2.170000      0.0000000E+00
   2.180000      0.0000000E+00
   2.190000      0.0000000E+00
   2.200000      0.0000000E+00
   2.210000      0.0000000E+00
   2.220000      0.0000000E+00
   2.230000      0.0000000E+00
   2.240000      0.0000000E+00
   2.250000      0.0000000E+00
   2.260000      0.0000000E+00
   2.270000      0.0000000E+00
   2.280000      0.0000000E+00
   2.290000      0.0000000E+00
   2.300000      0.0000000E+00
   2.310000      0.0000000E+00
   2.320000      0.0000000E+00
   2.330000      0.0000000E+00
   2.340000      0.0000000E+00
   2.350000      0.0000000E+00
   2.360000      0.0000000E+00
   2.370000      0.0000000E+00
   2.380000      0.0000000E+00
   2.390000      0.0000000E+00
   2.400000      0.0000000E+00
   2.410000      0.0000000E+00
   2.420000      0.0000000E+00
   2.430000     -1.2265948E-38
   2.440000     -1.2803480E-38
   2.450000     -1.3266788E-38
   2.460000     -1.3666347E-38
   2.470000     -1.4017085E-38
   2.480000     -1.4337574E-38
   2.490000     -1.4647725E-38
   2.500000     -1.4968921E-38
   2.510000     -1.5719430E-38
   2.520000     -1.6945458E-38
   2.530000     -1.7778017E-38
   2.540000     -1.8189287E-38
   2.550000     -1.8667390E-38
   2.560000     -1.8754631E-38
   2.570000     -1.8527327E-38
   2.580000     -1.8991402E-38
   2.590000     -2.0132154E-38
   2.600000     -2.1473579E-38
   2.610000     -2.3079143E-38
   2.620000     -2.4950999E-38
   2.630000     -2.7290641E-38
   2.640000     -3.0107141E-38
   2.650000     -3.3133097E-38
   2.660000     -3.6375051E-38
   2.670000     -4.0058886E-38
   2.680000     -4.4103935E-38
   2.690000     -4.8196966E-38
   2.700000     -5.2361709E-38
   2.710000     -5.6388839E-38
   2.720000     -6.0180371E-38
   2.730000     -6.4430201E-38
   2.740000     -6.9015788E-38
   2.750000     -7.3334864E-38
   2.760000     -7.8176973E-38
   2.770000     -8.3827109E-38
   2.780000     -8.9157357E-38
   2.790000     -9.2343484E-38
   2.800000     -9.2946451E-38
   2.810000     -9.2569580E-38
   2.820000     -9.1749636E-38
   2.830000     -9.0603503E-38
   2.840000     -9.0241654E-38
   2.850000     -8.7191565E-38
   2.860000     -8.1018105E-38
   2.870000     -7.8652136E-38
   2.880000     -8.1686424E-38
   2.890000     -8.6552724E-38
   2.900000     -9.2259736E-38
   2.910000     -1.0043827E-37
   2.920000     -1.0650973E-37
   2.930000     -1.0869483E-37
   2.940000     -9.5389637E-38
   2.950000     -2.9820635E-38
   2.960000      7.3887850E-38
   2.970000      1.8003438E-37
   2.980000      2.8015474E-37
   2.990000      3.7665158E-37
   3.000000      4.8225622E-37
   3.010000      5.6745637E-37
   3.020000      6.2759903E-37
   3.030000      5.8540600E-37
   3.040000      4.1963584E-37
   3.050000      2.2263435E-37
   3.060000      0.0000000E+00
   3.070000     -1.9656307E-37
   3.080000     -3.6306881E-37
   3.090000     -4.6148530E-37
   3.100000     -3.9934145E-37
   3.110000     -2.0763490E-37
   3.120000      0.0000000E+00
   3.130000      2.1539650E-37
   3.140000      4.3403559E-37
   3.150000      6.4438201E-37
   3.160000      7.4631533E-37
   3.170000      7.3266318E-37
   3.180000      6.0172326E-37
   3.190000      2.9712296E-37
   3.200000     -2.9092318E-38
   3.210000     -3.5947095E-37
   3.220000     -7.8258013E-37
   3.230000     -1.2998475E-36
   3.240000     -1.8839914E-36
   3.250000     -2.4727760E-36
   3.260000     -3.0629330E-36
   3.270000     -3.5782481E-36
   3.280000     -3.9188348E-36
   3.290000     -4.0044517E-36
   3.300000     -3.8672426E-36
   3.310000     -3.6002646E-36
   3.320000     -3.3185105E-36
   3.330000     -3.1362202E-36
   3.340000     -3.0431557E-36
   3.350000     -3.0638603E-36
   3.360000     -3.4498887E-36
   3.370000     -4.2670298E-36
   3.380000     -5.4048045E-36
   3.390000     -6.7787719E-36
   3.400000     -8.2712745E-36
   3.410000     -9.4099686E-36
   3.420000     -1.0096088E-35
   3.430000     -1.0559874E-35
   3.440000     -1.0795131E-35
   3.450000     -1.0755357E-35
   3.460000     -1.0735167E-35
   3.470000     -1.1096525E-35
   3.480000     -1.1545424E-35
   3.490000     -1.2088091E-35
   3.500000     -1.2097157E-35
   3.510000     -1.1218324E-35
   3.520000     -9.8961981E-36
   3.530000     -8.6462804E-36
   3.540000     -7.7857890E-36
   3.550000     -7.1238696E-36
   3.560000     -6.8470551E-36
   3.570000     -6.8203073E-36
   3.580000     -6.9668101E-36
   3.590000     -7.4184068E-36
   3.600000     -7.8808265E-36
   3.610000     -8.5187682E-36
   3.620000     -8.8414638E-36
   3.630000     -9.1885604E-36
   3.640000     -8.9757826E-36
   3.650000     -7.2494496E-36
   3.660000     -3.9446635E-36
   3.670000      1.3571859E-37
   3.680000      4.1971810E-36
   3.690000      9.3240228E-36
   3.700000      1.5154676E-35
   3.710000      2.0648129E-35
   3.720000      2.5227222E-35
   3.730000      2.9370002E-35
   3.740000      3.3415981E-35
   3.750000      3.7091459E-35
   3.760000      4.0478983E-35
   3.770000      4.3636629E-35
   3.780000      4.6524238E-35
   3.790000      4.8875150E-35
   3.800000      5.0332338E-35
   3.810000      5.0991430E-35
   3.820000      5.1741353E-35
   3.830000      5.4382473E-35
   3.840000      5.8753917E-35
   3.850000      6.3826037E-35
   3.860000      6.9664485E-35
   3.870000      7.5494982E-35
   3.880000      8.1154712E-35
   3.890000      8.7265693E-35
   3.900000      9.2645617E-35
   3.910000      9.6096296E-35
   3.920000      9.7769355E-35
   3.930000      9.8283668E-35
   3.940000      9.8557809E-35
   3.950000      9.8715639E-35
   3.960000      9.8671972E-35
   3.970000      9.8153514E-35
   3.980000      9.5437066E-35
   3.990000      9.0478328E-35
   4.000000      8.4594761E-35
   4.010000      7.8404825E-35
   4.020000      7.2583344E-35
   4.030000      6.8614294E-35
   4.040000      6.6376625E-35
   4.050000      6.4122683E-35
   4.060000      6.1596507E-35
   4.070000      5.7690697E-35
   4.080000      5.1338275E-35
   4.090000      4.2847636E-35
   4.100000      3.2894582E-35
   4.110000      2.2220389E-35
   4.120000      9.9328742E-36
   4.130000     -5.0783175E-36
   4.140000     -2.1529940E-35
   4.150000     -3.9647981E-35
   4.160000     -5.9219896E-35
   4.170000     -7.8902550E-35
   4.180000     -9.9268638E-35
   4.190000     -1.2125690E-34
   4.200000     -1.4566340E-34
   4.210000     -1.7071470E-34
   4.220000     -1.9362493E-34
   4.230000     -2.1638202E-34
   4.240000     -2.4097540E-34
   4.250000     -2.5895835E-34
   4.260000     -2.7402465E-34
   4.270000     -2.9240900E-34
   4.280000     -3.0989392E-34
   4.290000     -3.2815929E-34
   4.300000     -3.5338338E-34
   4.310000     -3.7194104E-34
   4.320000     -3.7792166E-34
   4.330000     -3.8895304E-34
   4.340000     -4.0931026E-34
   4.350000     -4.3096966E-34
   4.360000     -4.4567445E-34
   4.370000     -4.5843664E-34
   4.380000     -4.7485495E-34
   4.390000     -4.8485464E-34
   4.400000     -4.8545336E-34
   4.410000     -4.8077434E-34
   4.420000     -4.6768393E-34
   4.430000     -4.4902066E-34
   4.440000     -4.2878962E-34
   4.450000     -4.0914835E-34
   4.460000     -3.7945683E-34
   4.470000     -3.2723375E-34
   4.480000     -2.6574486E-34
   4.490000     -2.0253761E-34
   4.500000     -1.3513452E-34
   4.510000     -8.3084044E-35
   4.520000     -2.8669848E-35
   4.530000      5.4370322E-35
   4.540000      1.5233358E-34
   4.550000      2.5790199E-34
   4.560000      3.6542930E-34
   4.570000      4.7781940E-34
   4.580000      5.9811683E-34
   4.590000      7.0964589E-34
   4.600000      8.1332785E-34
   4.610000      9.1894758E-34
   4.620000      1.0360915E-33
   4.630000      1.1704679E-33
   4.640000      1.3144780E-33
   4.650000      1.4730703E-33
   4.660000      1.6529060E-33
   4.670000      1.8532837E-33
   4.680000      2.0712624E-33
   4.690000      2.3070836E-33
   4.700000      2.5489386E-33
   4.710000      2.7832161E-33
   4.720000      3.0089711E-33
   4.730000      3.2212358E-33
   4.740000      3.4161526E-33
   4.750000      3.5926241E-33
   4.760000      3.7497399E-33
   4.770000      3.8891153E-33
   4.780000      4.0129225E-33
   4.790000      4.1230020E-33
   4.800000      4.2249864E-33
   4.810000      4.3251323E-33
   4.820000      4.4261881E-33
   4.830000      4.5197192E-33
   4.840000      4.5896394E-33
   4.850000      4.6403393E-33
   4.860000      4.6756805E-33
   4.870000      4.6876540E-33
   4.880000      4.6696792E-33
   4.890000      4.6077384E-33
   4.900000      4.4930594E-33
   4.910000      4.3173197E-33
   4.920000      4.0710881E-33
   4.930000      3.7593037E-33
   4.940000      3.3837079E-33
   4.950000      2.9442506E-33
   4.960000      2.4369243E-33
   4.970000      1.8620631E-33
   4.980000      1.2260320E-33
   4.990000      5.3273101E-34
   5.000000     -2.1728457E-34
   5.010000     -1.0312065E-33
   5.020000     -1.9110133E-33
   5.030000     -2.8632682E-33
   5.040000     -3.8963950E-33
   5.050000     -5.0161364E-33
   5.060000     -6.2313499E-33
   5.070000     -7.5513206E-33
   5.080000     -8.9805109E-33
   5.090000     -1.0520440E-32
   5.100000     -1.2171404E-32
   5.110000     -1.3932817E-32
   5.120000     -1.5800077E-32
   5.130000     -1.7765731E-32
   5.140000     -1.9822241E-32
   5.150000     -2.1960762E-32
   5.160000     -2.4173293E-32
   5.170000     -2.6451958E-32
   5.180000     -2.8789720E-32
   5.190000     -3.1181166E-32
   5.200000     -3.3622051E-32
   5.210000     -3.6108265E-32
   5.220000     -3.8635731E-32
   5.230000     -4.1200157E-32
   5.240000     -4.3795458E-32
   5.250000     -4.6413334E-32
   5.260000     -4.9042203E-32
   5.270000     -5.1667538E-32
   5.280000     -5.4271469E-32
   5.290000     -5.6832378E-32
   5.300000     -5.9326101E-32
   5.310000     -6.1726043E-32
   5.320000     -6.4004251E-32
   5.330000     -6.6132307E-32
   5.340000     -6.8079249E-32
   5.350000     -6.9819275E-32
   5.360000     -7.1324125E-32
   5.370000     -7.2563831E-32
   5.380000     -7.3512425E-32
   5.390000     -7.4141885E-32
   5.400000     -7.4425290E-32
   5.410000     -7.4332920E-32
   5.420000     -7.3833905E-32
   5.430000     -7.2894550E-32
   5.440000     -7.1478062E-32
   5.450000     -6.9543122E-32
   5.460000     -6.7045325E-32
   5.470000     -6.3939258E-32
   5.480000     -6.0176818E-32
   5.490000     -5.5710721E-32
   5.500000     -5.0493060E-32
   5.510000     -4.4475799E-32
   5.520000     -3.7612816E-32
   5.530000     -2.9861574E-32
   5.540000     -2.1182233E-32
   5.550000     -1.1536587E-32
   5.560000     -8.8946498E-34
   5.570000      1.0792049E-32
   5.580000      2.3538932E-32
   5.590000      3.7380979E-32
   5.600000      5.2346615E-32
   5.610000      6.8463324E-32
   5.620000      8.5757849E-32
   5.630000      1.0425555E-31
   5.640000      1.2397914E-31
   5.650000      1.4494823E-31
   5.660000      1.6717856E-31
   5.670000      1.9068014E-31
   5.680000      2.1545619E-31
   5.690000      2.4150209E-31
   5.700000      2.6880431E-31
   5.710000      2.9733986E-31
   5.720000      3.2707578E-31
   5.730000      3.5796890E-31
   5.740000      3.8996611E-31
   5.750000      4.2300418E-31
   5.760000      4.5701029E-31
   5.770000      4.9190188E-31
   5.780000      5.2758702E-31
   5.790000      5.6396382E-31
   5.800000      6.0092009E-31
   5.810000      6.3833265E-31
   5.820000      6.7606639E-31
   5.830000      7.1397303E-31
   5.840000      7.5189010E-31
   5.850000      7.8963955E-31
   5.860000      8.2702686E-31
   5.870000      8.6384005E-31
   5.880000      8.9984930E-31
   5.890000      9.3480615E-31
   5.900000      9.6844428E-31
   5.910000      1.0004792E-30
   5.920000      1.0306093E-30
   5.930000      1.0585159E-30
   5.940000      1.0838644E-30
   5.950000      1.1063048E-30
   5.960000      1.1254723E-30
   5.970000      1.1409873E-30
   5.980000      1.1524559E-30
   5.990000      1.1594699E-30
   6.000000      1.1616070E-30
   6.010000      1.1584341E-30
   6.020000      1.1494956E-30
   6.030000      1.1343218E-30
   6.040000      1.1124379E-30
   6.050000      1.0833532E-30
   6.060000      1.0465649E-30
   6.070000      1.0015612E-30
   6.080000      9.4782254E-31
   6.090000      8.8482375E-31
   6.100000      8.1203752E-31
   6.110000      7.2893651E-31
   6.120000      6.3499664E-31
   6.130000      5.2970009E-31
   6.140000      4.1253763E-31
   6.150000      2.8301240E-31
   6.160000      1.4064248E-31
   6.170000     -1.5036758E-32
   6.180000     -1.8446951E-31
   6.190000     -3.6807672E-31
   6.200000     -5.6625265E-31
   6.210000     -7.7936127E-31
   6.220000     -1.0077334E-30
   6.230000     -1.2516619E-30
   6.240000     -1.5113968E-30
   6.250000     -1.7871402E-30
   6.260000     -2.0790408E-30
   6.270000     -2.3871894E-30
   6.280000     -2.7116117E-30
   6.290000     -3.0522636E-30
   6.300000     -3.4090231E-30
   6.310000     -3.7816861E-30
   6.320000     -4.1699603E-30
   6.330000     -4.5734596E-30
   6.340000     -4.9916975E-30
   6.350000     -5.4240830E-30
   6.360000     -5.8699140E-30
   6.370000     -6.3283726E-30
   6.380000     -6.7985192E-30
   6.390000     -7.2792869E-30
   6.400000     -7.7694782E-30
   6.410000     -8.2677547E-30
   6.420000     -8.7726335E-30
   6.430000     -9.2824828E-30
   6.440000     -9.7955137E-30
   6.450000     -1.0309775E-29
   6.460000     -1.0823152E-29
   6.470000     -1.1333354E-29
   6.480000     -1.1837917E-29
   6.490000     -1.2334196E-29
   6.500000     -1.2819361E-29
   6.510000     -1.3290396E-29
   6.520000     -1.3744100E-29
   6.530000     -1.4177082E-29
   6.540000     -1.4585766E-29
   6.550000     -1.4966384E-29
   6.560000     -1.5314986E-29
   6.570000     -1.5627435E-29
   6.580000     -1.5899412E-29
   6.590000     -1.6126421E-29
   6.600000     -1.6303790E-29
   6.610000     -1.6426679E-29
   6.620000     -1.6490086E-29
   6.630000     -1.6488849E-29
   6.640000     -1.6417659E-29
   6.650000     -1.6271066E-29
   6.660000     -1.6043496E-29
   6.670000     -1.5729261E-29
   6.680000     -1.5322577E-29
   6.690000     -1.4817580E-29
   6.700000     -1.4208335E-29
   6.710000     -1.3488869E-29
   6.720000     -1.2653188E-29
   6.730000     -1.1695306E-29
   6.740000     -1.0609257E-29
   6.750000     -9.3891289E-30
   6.760000     -8.0290981E-30
   6.770000     -6.5234497E-30
   6.780000     -4.8666139E-30
   6.790000     -3.0531963E-30
   6.800000     -1.0780146E-30
   6.810000      1.0638646E-30
   6.820000      3.3770802E-30
   6.830000      5.8659369E-30
   6.840000      8.5343711E-30
   6.850000      1.1385902E-29
   6.860000      1.4423575E-29
   6.870000      1.7649917E-29
   6.880000      2.1066895E-29
   6.890000      2.4675856E-29
   6.900000      2.8477465E-29
   6.910000      3.2471669E-29
   6.920000      3.6657621E-29
   6.930000      4.1033638E-29
   6.940000      4.5597135E-29
   6.950000      5.0344567E-29
   6.960000      5.5271385E-29
   6.970000      6.0371939E-29
   6.980000      6.5639472E-29
   6.990000      7.1066008E-29
   7.000000      7.6642328E-29
   7.010000      8.2357892E-29
   7.020000      8.8200797E-29
   7.030000      9.4157698E-29
   7.040000      1.0021377E-28
   7.050000      1.0635263E-28
   7.060000      1.1255632E-28