  -2.600000      0.0000000E+00
  -2.590000      0.0000000E+00
  -2.580000      0.0000000E+00
  -2.570000      0.0000000E+00
  -2.560000      0.0000000E+00
  -2.550000      0.0000000E+00
  -2.540000      0.0000000E+00
  -2.530000      0.0000000E+00
  -2.520000      0.0000000E+00
  -2.510000      0.0000000E+00
  -2.500000      0.0000000E+00
  -2.490000      0.0000000E+00
  -2.480000      0.0000000E+00
  -2.470000      0.0000000E+00
  -2.460000      0.0000000E+00
  -2.450000      0.0000000E+00
  -2.440000      0.0000000E+00
  -2.430000      0.0000000E+00
  -2.420000      0.0000000E+00
  -2.410000      0.0000000E+00
  -2.400000      0.0000000E+00
  -2.390000      0.0000000E+00
  -2.380000      0.0000000E+00
  -2.370000      0.0000000E+00
  -2.360000      0.0000000E+00
  -2.350000      0.0000000E+00
  -2.340000      0.0000000E+00
  -2.330000      0.0000000E+00
  -2.320000      0.0000000E+00
  -2.310000      0.0000000E+00
  -2.300000      0.0000000E+00
  -2.290000      0.0000000E+00
  -2.280000      0.0000000E+00
  -2.270000      0.0000000E+00
  -2.260000      0.0000000E+00
  -2.250000      0.0000000E+00
  -2.240000      0.0000000E+00
  -2.230000      0.0000000E+00
  -2.220000      0.0000000E+00
  -2.210000      0.0000000E+00
  -2.200000      0.0000000E+00
  -2.190000      0.0000000E+00
  -2.180000      0.0000000E+00
  -2.170000      0.0000000E+00
  -2.160000      0.0000000E+00
  -2.150000      0.0000000E+00
  -2.140000      0.0000000E+00
  -2.130000      0.0000000E+00
  -2.120000      0.0000000E+00
  -2.110000      0.0000000E+00
  -2.100000      0.0000000E+00
  -2.090000      0.0000000E+00
  -2.080000      0.0000000E+00
  -2.070000      0.0000000E+00
  -2.060000      0.0000000E+00
  -2.050000      0.0000000E+00
  -2.040000      0.0000000E+00
  -2.030000      0.0000000E+00
  -2.020000      0.0000000E+00
  -2.010000      0.0000000E+00
  -2.000000      0.0000000E+00
  -1.990000      0.0000000E+00
  -1.980000      0.0000000E+00
  -1.970000      0.0000000E+00
  -1.960000      0.0000000E+00
  -1.950000      0.0000000E+00
  -1.940000      0.0000000E+00
  -1.930000      0.0000000E+00
  -1.920000      0.0000000E+00
  -1.910000      0.0000000E+00
  -1.900000      0.0000000E+00
  -1.890000      0.0000000E+00
  -1.880000      0.0000000E+00
  -1.870000      0.0000000E+00
  -1.860000      0.0000000E+00
  -1.850000      0.0000000E+00
  -1.840000      0.0000000E+00
  -1.830000      0.0000000E+00
  -1.820000      0.0000000E+00
  -1.810000      0.0000000E+00
  -1.800000      0.0000000E+00
  -1.790000      0.0000000E+00
  -1.780000      0.0000000E+00
  -1.770000      0.0000000E+00
  -1.760000      0.0000000E+00
  -1.750000      0.0000000E+00
  -1.740000      0.0000000E+00
  -1.730000      0.0000000E+00
  -1.720000      0.0000000E+00
  -1.710000      0.0000000E+00
  -1.700000      0.0000000E+00
  -1.690000      0.0000000E+00
  -1.680000      0.0000000E+00
  -1.670000      0.0000000E+00
  -1.660000      0.0000000E+00
  -1.650000      0.0000000E+00
  -1.640000      0.0000000E+00
  -1.630000      0.0000000E+00
  -1.620000      0.0000000E+00
  -1.610000      0.0000000E+00
  -1.600000      0.0000000E+00
  -1.590000      0.0000000E+00
  -1.580000      0.0000000E+00
  -1.570000      0.0000000E+00
  -1.560000      0.0000000E+00
  -1.550000      0.0000000E+00
  -1.540000      0.0000000E+00
  -1.530000      0.0000000E+00
  -1.520000      0.0000000E+00
  -1.510000      0.0000000E+00
  -1.500000      0.0000000E+00
  -1.490000      0.0000000E+00
  -1.480000      0.0000000E+00
  -1.470000      0.0000000E+00
  -1.460000      0.0000000E+00
  -1.450000      0.0000000E+00
  -1.440000      0.0000000E+00
  -1.430000      0.0000000E+00
  -1.420000      0.0000000E+00
  -1.410000      0.0000000E+00
  -1.400000      0.0000000E+00
  -1.390000      0.0000000E+00
  -1.380000      0.0000000E+00
  -1.370000      0.0000000E+00
  -1.360000      0.0000000E+00
  -1.350000      0.0000000E+00
  -1.340000      0.0000000E+00
  -1.330000      0.0000000E+00
  -1.320000      0.0000000E+00
  -1.310000      0.0000000E+00
  -1.300000      0.0000000E+00
  -1.290000      0.0000000E+00
  -1.280000      0.0000000E+00
  -1.270000      0.0000000E+00
  -1.260000      0.0000000E+00
  -1.250000      0.0000000E+00
  -1.240000      0.0000000E+00
  -1.230000      0.0000000E+00
  -1.220000      0.0000000E+00
  -1.210000      0.0000000E+00
  -1.200000      0.0000000E+00
  -1.190000      0.0000000E+00
  -1.180000      0.0000000E+00
  -1.170000      0.0000000E+00
  -1.160000      0.0000000E+00
  -1.150000      0.0000000E+00
  -1.140000      0.0000000E+00
  -1.130000      0.0000000E+00
  -1.120000      0.0000000E+00
  -1.110000      0.0000000E+00
  -1.100000      0.0000000E+00
  -1.090000      0.0000000E+00
  -1.080000      0.0000000E+00
  -1.070000      0.0000000E+00
  -1.060000      0.0000000E+00
  -1.050000      0.0000000E+00
  -1.040000      0.0000000E+00
  -1.030000      0.0000000E+00
  -1.020000      0.0000000E+00
  -1.010000      0.0000000E+00
  -1.000000      0.0000000E+00
 -0.9900000      0.0000000E+00
 -0.9800000      0.0000000E+00
 -0.9700000      0.0000000E+00
 -0.9600000      0.0000000E+00
 -0.9500000      0.0000000E+00
 -0.9400000      0.0000000E+00
 -0.9300000      0.0000000E+00
 -0.9200000      0.0000000E+00
 -0.9100000      0.0000000E+00
 -0.9000000      0.0000000E+00
 -0.8900000      0.0000000E+00
 -0.8800000      0.0000000E+00
 -0.8700000      0.0000000E+00
 -0.8600000      0.0000000E+00
 -0.8500000      0.0000000E+00
 -0.8400000      0.0000000E+00
 -0.8300000      0.0000000E+00
 -0.8200000      0.0000000E+00
 -0.8100000      0.0000000E+00
 -0.8000000      0.0000000E+00
 -0.7900000      0.0000000E+00
 -0.7800000      0.0000000E+00
 -0.7700000      0.0000000E+00
 -0.7600000      0.0000000E+00
 -0.7500000      0.0000000E+00
 -0.7400000      0.0000000E+00
 -0.7300000      0.0000000E+00
 -0.7200000      0.0000000E+00
 -0.7100000      0.0000000E+00
 -0.7000000      0.0000000E+00
 -0.6900000      0.0000000E+00
 -0.6800000      0.0000000E+00
 -0.6700000      0.0000000E+00
 -0.6600000      0.0000000E+00
 -0.6500000      0.0000000E+00
 -0.6400000      0.0000000E+00
 -0.6300000      0.0000000E+00
 -0.6200000      0.0000000E+00
 -0.6100000      0.0000000E+00
 -0.6000000      0.0000000E+00
 -0.5900000      0.0000000E+00
 -0.5800000      0.0000000E+00
 -0.5700000      0.0000000E+00
 -0.5600000      0.0000000E+00
 -0.5500000      0.0000000E+00
 -0.5400000      0.0000000E+00
 -0.5300000      0.0000000E+00
 -0.5200000      0.0000000E+00
 -0.5100000      0.0000000E+00
 -0.5000000      0.0000000E+00
 -0.4900000      0.0000000E+00
 -0.4800000      0.0000000E+00
 -0.4700000      0.0000000E+00
 -0.4600000      0.0000000E+00
 -0.4500000      0.0000000E+00
 -0.4400000      0.0000000E+00
 -0.4300000      0.0000000E+00
 -0.4200000      0.0000000E+00
 -0.4100000      0.0000000E+00
 -0.4000000      0.0000000E+00
 -0.3900000      0.0000000E+00
 -0.3800000      0.0000000E+00
 -0.3700000      0.0000000E+00
 -0.3600000      0.0000000E+00
 -0.3500000      0.0000000E+00
 -0.3400000      0.0000000E+00
 -0.3300000      0.0000000E+00
 -0.3200000      0.0000000E+00
 -0.3100000      0.0000000E+00
 -0.3000000      0.0000000E+00
 -0.2900000      0.0000000E+00
 -0.2800000      0.0000000E+00
 -0.2700000      0.0000000E+00
 -0.2600000      0.0000000E+00
 -0.2500000      0.0000000E+00
 -0.2400000      0.0000000E+00
 -0.2300000      0.0000000E+00
 -0.2200000      0.0000000E+00
 -0.2100000      0.0000000E+00
 -0.2000000      0.0000000E+00
 -0.1900000      0.0000000E+00
 -0.1800000      0.0000000E+00
 -0.1700000      0.0000000E+00
 -0.1600000      0.0000000E+00
 -0.1500000      0.0000000E+00
 -0.1400000      0.0000000E+00
 -0.1300000      0.0000000E+00
 -0.1200000      0.0000000E+00
 -0.1100000      0.0000000E+00
 -0.1000000      0.0000000E+00
 -9.0000004E-02  0.0000000E+00
 -7.9999998E-02  0.0000000E+00
 -7.0000000E-02  0.0000000E+00
 -5.9999999E-02  0.0000000E+00
 -5.0000001E-02  0.0000000E+00
 -3.9999999E-02  0.0000000E+00
 -2.9999999E-02  0.0000000E+00
 -2.0000000E-02  0.0000000E+00
 -9.9999998E-03  0.0000000E+00
 -3.4694470E-17  0.0000000E+00
  9.9999998E-03  0.0000000E+00
  2.0000000E-02  0.0000000E+00
  2.9999999E-02  0.0000000E+00
  3.9999999E-02  0.0000000E+00
  5.0000001E-02  0.0000000E+00
  5.9999999E-02  0.0000000E+00
  7.0000000E-02  0.0000000E+00
  7.9999998E-02  0.0000000E+00
  9.0000004E-02  0.0000000E+00
  0.1000000      0.0000000E+00
  0.1100000      0.0000000E+00
  0.1200000      0.0000000E+00
  0.1300000      0.0000000E+00
  0.1400000      0.0000000E+00
  0.1500000      0.0000000E+00
  0.1600000      0.0000000E+00
  0.1700000      0.0000000E+00
  0.1800000      0.0000000E+00
  0.1900000      0.0000000E+00
  0.2000000      0.0000000E+00
  0.2100000      0.0000000E+00
  0.2200000      0.0000000E+00
  0.2300000      0.0000000E+00
  0.2400000      0.0000000E+00
  0.2500000      0.0000000E+00
  0.2600000      0.0000000E+00
  0.2700000      0.0000000E+00
  0.2800000      0.0000000E+00
  0.2900000      0.0000000E+00
  0.3000000      0.0000000E+00
  0.3100000      0.0000000E+00
  0.3200000      0.0000000E+00
  0.3300000      0.0000000E+00
  0.3400000      0.0000000E+00
  0.3500000      0.0000000E+00
  0.3600000      0.0000000E+00
  0.3700000      0.0000000E+00
  0.3800000      0.0000000E+00
  0.3900000      0.0000000E+00
  0.4000000      0.0000000E+00
  0.4100000      0.0000000E+00
  0.4200000      0.0000000E+00
  0.4300000      0.0000000E+00
  0.4400000      0.0000000E+00
  0.4500000      0.0000000E+00
  0.4600000      0.0000000E+00
  0.4700000      0.0000000E+00
  0.4800000      0.0000000E+00
  0.4900000      0.0000000E+00
  0.5000000      0.0000000E+00
  0.5100000      0.0000000E+00
  0.5200000      0.0000000E+00
  0.5300000      0.0000000E+00
  0.5400000      0.0000000E+00
  0.5500000      0.0000000E+00
  0.5600000      0.0000000E+00
  0.5700000      0.0000000E+00
  0.5800000      0.0000000E+00
  0.5900000      0.0000000E+00
  0.6000000      0.0000000E+00
  0.6100000      0.0000000E+00
  0.6200000      1.3297384E-38
  0.6300000      1.4788350E-38
  0.6400000      1.5186918E-38
  0.6500000      1.4863183E-38
  0.6600000      1.3959730E-38
  0.6700000      1.2203973E-38
  0.6800000      0.0000000E+00
  0.6900000      0.0000000E+00
  0.7000000      0.0000000E+00
  0.7100000      0.0000000E+00
  0.7200000     -1.3061914E-38
  0.7300000     -2.0194223E-38
  0.7400000     -2.7856418E-38
  0.7500000     -3.5101408E-38
  0.7600000     -4.2558855E-38
  0.7700000     -5.2749196E-38
  0.7800000     -6.5103817E-38
  0.7900000     -7.8344176E-38
  0.8000000     -9.2676617E-38
  0.8100000     -1.0803332E-37
  0.8200000     -1.2515128E-37
  0.8300000     -1.4061211E-37
  0.8400000     -1.5223147E-37
  0.8500000     -1.6190014E-37
  0.8600000     -1.6740085E-37
  0.8700000     -1.6730330E-37
  0.8800000     -1.6213240E-37
  0.8900000     -1.5275797E-37
  0.9000000     -1.3743034E-37
  0.9100000     -1.1546067E-37
  0.9200000     -9.5872077E-38
  0.9300000     -8.0991430E-38
  0.9400000     -6.5294270E-38
  0.9500000     -3.3296424E-38
  0.9600000      2.9940984E-38
  0.9700000      1.0810797E-37
  0.9800000      1.8936150E-37
  0.9900000      2.7852329E-37
   1.000000      3.8195015E-37
   1.010000      5.0332780E-37
   1.020000      6.1390908E-37
   1.030000      7.1485992E-37
   1.040000      8.2607706E-37
   1.050000      9.4542545E-37
   1.060000      1.0836996E-36
   1.070000      1.2102360E-36
   1.080000      1.3187740E-36
   1.090000      1.3918701E-36
   1.100000      1.4178027E-36
   1.110000      1.4224920E-36
   1.120000      1.4149254E-36
   1.130000      1.6116701E-36
   1.140000      2.0305501E-36
   1.150000      2.4831353E-36
   1.160000      2.9698794E-36
   1.170000      3.3244582E-36
   1.180000      3.5297346E-36
   1.190000      3.7222523E-36
   1.200000      3.8780035E-36
   1.210000      4.0093767E-36
   1.220000      3.8572541E-36
   1.230000      3.3553132E-36
   1.240000      2.7159982E-36
   1.250000      1.7559002E-36
   1.260000      4.6944099E-37
   1.270000     -9.4706593E-37
   1.280000     -2.4638456E-36
   1.290000     -4.0613599E-36
   1.300000     -5.7087879E-36
   1.310000     -7.2928361E-36
   1.320000     -8.7121171E-36
   1.330000     -9.8291080E-36
   1.340000     -1.0880271E-35
   1.350000     -1.2119051E-35
   1.360000     -1.3218804E-35
   1.370000     -1.4008661E-35
   1.380000     -1.4604039E-35
   1.390000     -1.5031716E-35
   1.400000     -1.5255210E-35
   1.410000     -1.5272919E-35
   1.420000     -1.5244766E-35
   1.430000     -1.5146169E-35
   1.440000     -1.4582267E-35
   1.450000     -1.3522299E-35
   1.460000     -1.2340931E-35
   1.470000     -1.1122697E-35
   1.480000     -9.6581519E-36
   1.490000     -8.0207056E-36
   1.500000     -6.2867919E-36
   1.510000     -4.1025937E-36
   1.520000     -1.2051415E-36
   1.530000      1.8341170E-36
   1.540000      4.9849258E-36
   1.550000      8.7865519E-36
   1.560000      1.3024516E-35
   1.570000      1.6957035E-35
   1.580000      2.0673480E-35
   1.590000      2.4760090E-35
   1.600000      2.9398718E-35
   1.610000      3.4871866E-35
   1.620000      4.0982299E-35
   1.630000      4.7334213E-35
   1.640000      5.4029113E-35
   1.650000      6.0955403E-35
   1.660000      6.6359331E-35
   1.670000      6.9912607E-35
   1.680000      7.2479931E-35
   1.690000      8.0775007E-35
   1.700000      9.5154758E-35
   1.710000      1.0970853E-34
   1.720000      1.2412930E-34
   1.730000      1.3728590E-34
   1.740000      1.4374779E-34
   1.750000      1.4226017E-34
   1.760000      1.3740097E-34
   1.770000      1.2463716E-34
   1.780000      1.0414340E-34
   1.790000      8.0543409E-35
   1.800000      5.0369594E-35
   1.810000      1.6736549E-35
   1.820000     -1.7536080E-35
   1.830000     -5.5925447E-35
   1.840000     -9.7333274E-35
   1.850000     -1.4199009E-34
   1.860000     -1.9102401E-34
   1.870000     -2.4358787E-34
   1.880000     -2.9831514E-34
   1.890000     -3.5722610E-34
   1.900000     -4.1903035E-34
   1.910000     -4.7767802E-34
   1.920000     -5.3411736E-34
   1.930000     -5.8883965E-34
   1.940000     -6.3725532E-34
   1.950000     -6.8774575E-34
   1.960000     -7.4528293E-34
   1.970000     -7.9990168E-34
   1.980000     -8.5196130E-34
   1.990000     -9.0395222E-34
   2.000000     -9.5234704E-34
   2.010000     -9.9464813E-34
   2.020000     -1.0288687E-33
   2.030000     -1.0557072E-33
   2.040000     -1.0734208E-33
   2.050000     -1.0817248E-33
   2.060000     -1.0793596E-33
   2.070000     -1.0623037E-33
   2.080000     -1.0295244E-33
   2.090000     -9.8004004E-34
   2.100000     -9.1265225E-34
   2.110000     -8.2742276E-34
   2.120000     -7.2327336E-34
   2.130000     -5.9645947E-34
   2.140000     -4.4476170E-34
   2.150000     -2.6608010E-34
   2.160000     -5.9195571E-35
   2.170000      1.7693979E-34
   2.180000      4.4777298E-34
   2.190000      7.5311600E-34
   2.200000      1.0892654E-33
   2.210000      1.4573217E-33
   2.220000      1.8564568E-33
   2.230000      2.2857697E-33
   2.240000      2.7424790E-33
   2.250000      3.2276298E-33
   2.260000      3.7415555E-33
   2.270000      4.2797700E-33
   2.280000      4.8386892E-33
   2.290000      5.4135787E-33
   2.300000      5.9999924E-33
   2.310000      6.5966289E-33
   2.320000      7.1946756E-33
   2.330000      7.7843080E-33
   2.340000      8.3629047E-33
   2.350000      8.9241555E-33
   2.360000      9.4588122E-33
   2.370000      9.9603751E-33
   2.380000      1.0422093E-32
   2.390000      1.0833975E-32
   2.400000      1.1186862E-32
   2.410000      1.1470927E-32
   2.420000      1.1677164E-32
   2.430000      1.1796276E-32
   2.440000      1.1817116E-32
   2.450000      1.1730149E-32
   2.460000      1.1525799E-32
   2.470000      1.1192519E-32
   2.480000      1.0720263E-32
   2.490000      1.0100523E-32
   2.500000      9.3235121E-33
   2.510000      8.3790986E-33
   2.520000      7.2583683E-33
   2.530000      5.9527133E-33
   2.540000      4.4543345E-33
   2.550000      2.7564663E-33
   2.560000      8.5312586E-34
   2.570000     -1.2603604E-33
   2.580000     -3.5874629E-33
   2.590000     -6.1301773E-33
   2.600000     -8.8882838E-33
   2.610000     -1.1860109E-32
   2.620000     -1.5042005E-32
   2.630000     -1.8427571E-32
   2.640000     -2.2008144E-32
   2.650000     -2.5772928E-32
   2.660000     -2.9707358E-32
   2.670000     -3.3794519E-32
   2.680000     -3.8014268E-32
   2.690000     -4.2342920E-32
   2.700000     -4.6754829E-32
   2.710000     -5.1220480E-32
   2.720000     -5.5707365E-32
   2.730000     -6.0179210E-32
   2.740000     -6.4596477E-32
   2.750000     -6.8916959E-32
   2.760000     -7.3095277E-32
   2.770000     -7.7082713E-32
   2.780000     -8.0827709E-32
   2.790000     -8.4276403E-32
   2.800000     -8.7372303E-32
   2.810000     -9.0056732E-32
   2.820000     -9.2269124E-32
   2.830000     -9.3947301E-32
   2.840000     -9.5027874E-32
   2.850000     -9.5446609E-32
   2.860000     -9.5138788E-32
   2.870000     -9.4039636E-32
   2.880000     -9.2084983E-32
   2.890000     -8.9211634E-32
   2.900000     -8.5357717E-32
   2.910000     -8.0463446E-32
   2.920000     -7.4472075E-32
   2.930000     -6.7329301E-32
   2.940000     -5.8984720E-32
   2.950000     -4.9393297E-32
   2.960000     -3.8514914E-32
   2.970000     -2.6315554E-32
   2.980000     -1.2768011E-32
   2.990000      2.1472467E-33
   3.000000      1.8441176E-32
   3.010000      3.6115371E-32
   3.020000      5.5161177E-32
   3.030000      7.5558773E-32
   3.040000      9.7276295E-32
   3.050000      1.2026907E-31
   3.060000      1.4447876E-31
   3.070000      1.6983243E-31
   3.080000      1.9624185E-31
   3.090000      2.2360054E-31
   3.100000      2.5179051E-31
   3.110000      2.8067671E-31
   3.120000      3.1010148E-31
   3.130000      3.3989175E-31
   3.140000      3.6985646E-31
   3.150000      3.9978638E-31
   3.160000      4.2945407E-31
   3.170000      4.5861418E-31
   3.180000      4.8700369E-31
   3.190000      5.1434240E-31
   3.200000      5.4033342E-31
   3.210000      5.6466427E-31
   3.220000      5.8700732E-31
   3.230000      6.0702133E-31
   3.240000      6.2435268E-31
   3.250000      6.3863644E-31
   3.260000      6.4949843E-31
   3.270000      6.5655676E-31
   3.280000      6.5942365E-31
   3.290000      6.5770790E-31
   3.300000      6.5101665E-31
   3.310000      6.3895829E-31
   3.320000      6.2114504E-31
   3.330000      5.9719528E-31
   3.340000      5.6673719E-31
   3.350000      5.2941158E-31
   3.360000      4.8487529E-31
   3.370000      4.3280475E-31
   3.380000      3.7289965E-31
   3.390000      3.0488705E-31
   3.400000      2.2852539E-31
   3.410000      1.4360883E-31
   3.420000      4.9971552E-32
   3.430000     -5.2507575E-32
   3.440000     -1.6390033E-31
   3.450000     -2.8422445E-31
   3.460000     -4.1343890E-31
   3.470000     -5.5143884E-31
   3.480000     -6.9805100E-31
   3.490000     -8.5302907E-31
   3.500000     -1.0160490E-30
   3.510000     -1.1867044E-30
   3.520000     -1.3645028E-30
   3.530000     -1.5488613E-30
   3.540000     -1.7391027E-30
   3.550000     -1.9344526E-30
   3.560000     -2.1340363E-30
   3.570000     -2.3368760E-30
   3.580000     -2.5418890E-30
   3.590000     -2.7478854E-30
   3.600000     -2.9535685E-30
   3.610000     -3.1575324E-30
   3.620000     -3.3582636E-30
   3.630000     -3.5541405E-30
   3.640000     -3.7434349E-30
   3.650000     -3.9243151E-30
   3.660000     -4.0948475E-30
   3.670000     -4.2529987E-30
   3.680000     -4.3966434E-30
   3.690000     -4.5235656E-30
   3.700000     -4.6314662E-30
   3.710000     -4.7179698E-30
   3.720000     -4.7806325E-30
   3.730000     -4.8169483E-30
   3.740000     -4.8243624E-30
   3.750000     -4.8002777E-30
   3.760000     -4.7420706E-30
   3.770000     -4.6471008E-30
   3.780000     -4.5127277E-30
   3.790000     -4.3363238E-30
   3.800000     -4.1152925E-30
   3.810000     -3.8470861E-30
   3.820000     -3.5292241E-30
   3.830000     -3.1593139E-30
   3.840000     -2.7350727E-30
   3.850000     -2.2543491E-30
   3.860000     -1.7151482E-30
   3.870000     -1.1156552E-30
   3.880000     -4.5426185E-31
   3.890000      2.7040686E-31
   3.900000      1.0594659E-30
   3.910000      1.9137400E-30
   3.920000      2.8337377E-30
   3.930000      3.8196224E-30
   3.940000      4.8711816E-30
   3.950000      5.9877986E-30
   3.960000      7.1684218E-30
   3.970000      8.4115404E-30
   3.980000      9.7151482E-30
   3.990000      1.1076721E-29
   4.000000      1.2493186E-29
   4.010000      1.3960898E-29
   4.020000      1.5475604E-29
   4.030000      1.7032434E-29
   4.040000      1.8625863E-29
   4.050000      2.0249688E-29
   4.060000      2.1897015E-29
   4.070000      2.3560240E-29
   4.080000      2.5231017E-29
   4.090000      2.6900261E-29
   4.100000      2.8558120E-29
   4.110000      3.0193968E-29
   4.120000      3.1796405E-29
   4.130000      3.3353243E-29
   4.140000      3.4851511E-29
   4.150000      3.6277445E-29
   4.160000      3.7616520E-29
   4.170000      3.8853440E-29
   4.180000      3.9972161E-29
   4.190000      4.0955917E-29
   4.200000      4.1787239E-29
   4.210000      4.2448002E-29
   4.220000      4.2919448E-29
   4.230000      4.3182256E-29
   4.240000      4.3216568E-29
   4.250000      4.3002071E-29
   4.260000      4.2518048E-29
   4.270000      4.1743472E-29
   4.280000      4.0657070E-29
   4.290000      3.9237419E-29
   4.300000      3.7463048E-29
   4.310000      3.5312545E-29
   4.320000      3.2764667E-29
   4.330000      2.9798442E-29
   4.340000      2.6393332E-29
   4.350000      2.2529336E-29
   4.360000      1.8187163E-29
   4.370000      1.3348357E-29
   4.380000      7.9954643E-30
   4.390000      2.1122025E-30
   4.400000     -4.3163649E-30
   4.410000     -1.1303655E-29
   4.420000     -1.8861375E-29
   4.430000     -2.6999338E-29
   4.440000     -3.5725245E-29
   4.450000     -4.5044489E-29
   4.460000     -5.4959956E-29
   4.470000     -6.5471766E-29
   4.480000     -7.6577081E-29
   4.490000     -8.8269865E-29
   4.500000     -1.0054065E-28
   4.510000     -1.1337631E-28
   4.520000     -1.2675979E-28
   4.530000     -1.4066990E-28
   4.540000     -1.5508107E-28
   4.550000     -1.6996310E-28
   4.560000     -1.8528091E-28
   4.570000     -2.0099433E-28
   4.580000     -2.1705784E-28
   4.590000     -2.3342042E-28
   4.600000     -2.5002519E-28
   4.610000     -2.6680940E-28
   4.620000     -2.8370405E-28
   4.630000     -3.0063386E-28
   4.640000     -3.1751704E-28
   4.650000     -3.3426510E-28
   4.660000     -3.5078281E-28
   4.670000     -3.6696806E-28
   4.680000     -3.8271172E-28
   4.690000     -3.9789768E-28
   4.700000     -4.1240270E-28
   4.710000     -4.2609654E-28
   4.720000     -4.3884187E-28
   4.730000     -4.5049432E-28
   4.740000     -4.6090267E-28
   4.750000     -4.6990895E-28
   4.760000     -4.7734848E-28
   4.770000     -4.8305019E-28
   4.780000     -4.8683681E-28
   4.790000     -4.8852527E-28
   4.800000     -4.8792689E-28
   4.810000     -4.8484786E-28
   4.820000     -4.7908966E-28
   4.830000     -4.7044946E-28
   4.840000     -4.5872088E-28
   4.850000     -4.4369449E-28
   4.860000     -4.2515857E-28
   4.870000     -4.0289971E-28
   4.880000     -3.7670364E-28
   4.890000     -3.4635623E-28
   4.900000     -3.1164447E-28
   4.910000     -2.7235741E-28
   4.920000     -2.2828722E-28
   4.930000     -1.7923063E-28
   4.940000     -1.2498984E-28
   4.950000     -6.5374025E-29
   4.960000     -2.0080836E-31
   4.970000      7.0702279E-29
   4.980000      1.4749626E-28
   4.990000      2.3032909E-28
   5.000000      3.1933392E-28
   5.010000      4.1462720E-28
   5.020000      5.1630701E-28
   5.030000      6.2445120E-28
   5.040000      7.3911500E-28
   5.050000      8.6032947E-28
   5.060000      9.8809913E-28
   5.070000      1.1223996E-27
   5.080000      1.2631760E-27
   5.090000      1.4103403E-27
   5.100000      1.5637688E-27
   5.110000      1.7233004E-27
   5.120000      1.8887337E-27
   5.130000      2.0598248E-27
   5.140000      2.2362855E-27
   5.150000      2.4177797E-27
   5.160000      2.6039224E-27
   5.170000      2.7942759E-27
   5.180000      2.9883488E-27
   5.190000      3.1855929E-27
   5.200000      3.3854012E-27
   5.210000      3.5871050E-27
   5.220000      3.7899736E-27
   5.230000      3.9932104E-27
   5.240000      4.1959515E-27
   5.250000      4.3972651E-27
   5.260000      4.5961475E-27
   5.270000      4.7915238E-27
   5.280000      4.9822467E-27
   5.290000      5.1670936E-27
   5.300000      5.3447672E-27
   5.310000      5.5138943E-27
   5.320000      5.6730262E-27
   5.330000      5.8206387E-27
   5.340000      5.9551310E-27
   5.350000      6.0748275E-27
   5.360000      6.1779800E-27
   5.370000      6.2627663E-27
   5.380000      6.3272946E-27
   5.390000      6.3696046E-27
   5.400000      6.3876694E-27
   5.410000      6.3794007E-27
   5.420000      6.3426516E-27
   5.430000      6.2752206E-27
   5.440000      6.1748565E-27
   5.450000      6.0392641E-27
   5.460000      5.8661091E-27
   5.470000      5.6530262E-27
   5.480000      5.3976259E-27
   5.490000      5.0975013E-27
   5.500000      4.7502380E-27
   5.510000      4.3534229E-27
   5.520000      3.9046554E-27
   5.530000      3.4015555E-27
   5.540000      2.8417768E-27
   5.550000      2.2230202E-27
   5.560000      1.5430452E-27
   5.570000      7.9968314E-28
   5.580000     -9.1460058E-30
   5.590000     -8.8541894E-28
   5.600000     -1.8309928E-27
   5.610000     -2.8475887E-27
   5.620000     -3.9367734E-27
   5.630000     -5.0999399E-27
   5.640000     -6.3382909E-27
   5.650000     -7.6528167E-27
   5.660000     -9.0442726E-27
   5.670000     -1.0513162E-26
   5.680000     -1.2059708E-26
   5.690000     -1.3683837E-26
   5.700000     -1.5385153E-26
   5.710000     -1.7162914E-26
   5.720000     -1.9016010E-26
   5.730000     -2.0942932E-26
   5.740000     -2.2941756E-26
   5.750000     -2.5010114E-26
   5.760000     -2.7145166E-26
   5.770000     -2.9343586E-26
   5.780000     -3.1601524E-26
   5.790000     -3.3914588E-26
   5.800000     -3.6277815E-26
   5.810000     -3.8685653E-26
   5.820000     -4.1131938E-26
   5.830000     -4.3609864E-26
   5.840000     -4.6111968E-26
   5.850000     -4.8630101E-26
   5.860000     -5.1155414E-26
   5.870000     -5.3678342E-26
   5.880000     -5.6188584E-26
   5.890000     -5.8675074E-26
   5.900000     -6.1125990E-26
   5.910000     -6.3528725E-26
   5.920000     -6.5869886E-26
   5.930000     -6.8135285E-26
   5.940000     -7.0309934E-26
   5.950000     -7.2378044E-26
   5.960000     -7.4322999E-26
   5.970000     -7.6127419E-26
   5.980000     -7.7773119E-26
   5.990000     -7.9241133E-26
   6.000000     -8.0511742E-26
   6.010000     -8.1564464E-26
   6.020000     -8.2378119E-26
   6.030000     -8.2930839E-26
   6.040000     -8.3200075E-26
   6.050000     -8.3162678E-26
   6.060000     -8.2794927E-26
   6.070000     -8.2072565E-26
   6.080000     -8.0970853E-26
   6.090000     -7.9464677E-26
   6.100000     -7.7528560E-26
   6.110000     -7.5136764E-26
   6.120000     -7.2263351E-26
   6.130000     -6.8882287E-26
   6.140000     -6.4967540E-26
   6.150000     -6.0493145E-26
   6.160000     -5.5433348E-26
   6.170000     -4.9762717E-26
   6.180000     -4.3456230E-26
   6.190000     -3.6489436E-26
   6.200000     -2.8838579E-26
   6.210000     -2.0480738E-26
   6.220000     -1.1393986E-26
   6.230000     -1.5575420E-27
   6.240000      9.0480713E-27
   6.250000      2.0440854E-26
   6.260000      3.2637148E-26
   6.270000      4.5651448E-26
   6.280000      5.9496222E-26
   6.290000      7.4181700E-26
   6.300000      8.9715690E-26
   6.310000      1.0610337E-25
   6.320000      1.2334704E-25
   6.330000      1.4144598E-25
   6.340000      1.6039613E-25
   6.350000      1.8018996E-25
   6.360000      2.0081614E-25
   6.370000      2.2225944E-25
   6.380000      2.4450041E-25
   6.390000      2.6751516E-25
   6.400000      2.9127511E-25
   6.410000      3.1574685E-25
   6.420000      3.4089184E-25
   6.430000      3.6666620E-25
   6.440000      3.9302044E-25
   6.450000      4.1989937E-25
   6.460000      4.4724178E-25
   6.470000      4.7498035E-25
   6.480000      5.0304122E-25
   6.490000      5.3134417E-25
   6.500000      5.5980213E-25
   6.510000      5.8832117E-25
   6.520000      6.1680048E-25
   6.530000      6.4513193E-25
   6.540000      6.7320019E-25
   6.550000      7.0088265E-25
   6.560000      7.2804920E-25
   6.570000      7.5456232E-25
   6.580000      7.8027706E-25
   6.590000      8.0504103E-25
   6.600000      8.2869424E-25
   6.610000      8.5106949E-25
   6.620000      8.7199235E-25
   6.630000      8.9128098E-25
   6.640000      9.0874676E-25
   6.650000      9.2419443E-25
   6.660000      9.3742175E-25
   6.670000      9.4822067E-25
   6.680000      9.5637690E-25
   6.690000      9.6167085E-25
   6.700000      9.6387739E-25
   6.710000      9.6276707E-25
   6.720000      9.5810598E-25
   6.730000      9.4965649E-25
   6.740000      9.3717819E-25
   6.750000      9.2042831E-25
   6.760000      8.9916210E-25
   6.770000      8.7313403E-25
   6.780000      8.4209866E-25
   6.790000      8.0581131E-25
   6.800000      7.6402865E-25
   6.810000      7.1651068E-25
   6.820000      6.6302078E-25
   6.830000      6.0332708E-25
   6.840000      5.3720402E-25
   6.850000      4.6443313E-25
   6.860000      3.8480448E-25
   6.870000      2.9811803E-25
   6.880000      2.0418479E-25
   6.890000      1.0282838E-25
   6.900000     -6.1132125E-27
   6.910000     -1.2278647E-25
   6.920000     -2.4732084E-25
   6.930000     -3.7982674E-25
   6.940000     -5.2039404E-25
   6.950000     -6.6909042E-25
   6.960000     -8.2595985E-25
   6.970000     -9.9102042E-25
   6.980000     -1.1642629E-24
   6.990000     -1.3456490E-24
   7.000000     -1.5351089E-24
   7.010000     -1.7325401E-24
   7.020000     -1.9378055E-24
   7.030000     -2.1507308E-24
   7.040000     -2.3711043E-24
   7.050000     -2.5986735E-24
   7.060000     -2.8331438E-24