  -2.600000      0.0000000E+00
  -2.590000      0.0000000E+00
  -2.580000      0.0000000E+00
  -2.570000      0.0000000E+00
  -2.560000      0.0000000E+00
  -2.550000      0.0000000E+00
  -2.540000      0.0000000E+00
  -2.530000      0.0000000E+00
  -2.520000      0.0000000E+00
  -2.510000      0.0000000E+00
  -2.500000      0.0000000E+00
  -2.490000      0.0000000E+00
  -2.480000      0.0000000E+00
  -2.470000      0.0000000E+00
  -2.460000      0.0000000E+00
  -2.450000      0.0000000E+00
  -2.440000      0.0000000E+00
  -2.430000      0.0000000E+00
  -2.420000      0.0000000E+00
  -2.410000      0.0000000E+00
  -2.400000      0.0000000E+00
  -2.390000      0.0000000E+00
  -2.380000      0.0000000E+00
  -2.370000      0.0000000E+00
  -2.360000      0.0000000E+00
  -2.350000      0.0000000E+00
  -2.340000      0.0000000E+00
  -2.330000      0.0000000E+00
  -2.320000      0.0000000E+00
  -2.310000      0.0000000E+00
  -2.300000      0.0000000E+00
  -2.290000      0.0000000E+00
  -2.280000      0.0000000E+00
  -2.270000      0.0000000E+00
  -2.260000      0.0000000E+00
  -2.250000      0.0000000E+00
  -2.240000      0.0000000E+00
  -2.230000      0.0000000E+00
  -2.220000      0.0000000E+00
  -2.210000      0.0000000E+00
  -2.200000      0.0000000E+00
  -2.190000      0.0000000E+00
  -2.180000      0.0000000E+00
  -2.170000      0.0000000E+00
  -2.160000      0.0000000E+00
  -2.150000      0.0000000E+00
  -2.140000      0.0000000E+00
  -2.130000      0.0000000E+00
  -2.120000      0.0000000E+00
  -2.110000      0.0000000E+00
  -2.100000      0.0000000E+00
  -2.090000      0.0000000E+00
  -2.080000      0.0000000E+00
  -2.070000      0.0000000E+00
  -2.060000      0.0000000E+00
  -2.050000      0.0000000E+00
  -2.040000      0.0000000E+00
  -2.030000      0.0000000E+00
  -2.020000      0.0000000E+00
  -2.010000      0.0000000E+00
  -2.000000      0.0000000E+00
  -1.990000      0.0000000E+00
  -1.980000      0.0000000E+00
  -1.970000      0.0000000E+00
  -1.960000      0.0000000E+00
  -1.950000      0.0000000E+00
  -1.940000      0.0000000E+00
  -1.930000      0.0000000E+00
  -1.920000      0.0000000E+00
  -1.910000      0.0000000E+00
  -1.900000      0.0000000E+00
  -1.890000      0.0000000E+00
  -1.880000      0.0000000E+00
  -1.870000      0.0000000E+00
  -1.860000      0.0000000E+00
  -1.850000      0.0000000E+00
  -1.840000      0.0000000E+00
  -1.830000      0.0000000E+00
  -1.820000      0.0000000E+00
  -1.810000      0.0000000E+00
  -1.800000      0.0000000E+00
  -1.790000      0.0000000E+00
  -1.780000      0.0000000E+00
  -1.770000      0.0000000E+00
  -1.760000      0.0000000E+00
  -1.750000      0.0000000E+00
  -1.740000      0.0000000E+00
  -1.730000      0.0000000E+00
  -1.720000      0.0000000E+00
  -1.710000      0.0000000E+00
  -1.700000      0.0000000E+00
  -1.690000      0.0000000E+00
  -1.680000      0.0000000E+00
  -1.670000      0.0000000E+00
  -1.660000      0.0000000E+00
  -1.650000      0.0000000E+00
  -1.640000      0.0000000E+00
  -1.630000      0.0000000E+00
  -1.620000      0.0000000E+00
  -1.610000      0.0000000E+00
  -1.600000      0.0000000E+00
  -1.590000      0.0000000E+00
  -1.580000      0.0000000E+00
  -1.570000      0.0000000E+00
  -1.560000      0.0000000E+00
  -1.550000      0.0000000E+00
  -1.540000      0.0000000E+00
  -1.530000      0.0000000E+00
  -1.520000      0.0000000E+00
  -1.510000      0.0000000E+00
  -1.500000      0.0000000E+00
  -1.490000      0.0000000E+00
  -1.480000      0.0000000E+00
  -1.470000      0.0000000E+00
  -1.460000      0.0000000E+00
  -1.450000      0.0000000E+00
  -1.440000      0.0000000E+00
  -1.430000      0.0000000E+00
  -1.420000      0.0000000E+00
  -1.410000      0.0000000E+00
  -1.400000      0.0000000E+00
  -1.390000      0.0000000E+00
  -1.380000      0.0000000E+00
  -1.370000      0.0000000E+00
  -1.360000      0.0000000E+00
  -1.350000      0.0000000E+00
  -1.340000      0.0000000E+00
  -1.330000      0.0000000E+00
  -1.320000      0.0000000E+00
  -1.310000      0.0000000E+00
  -1.300000      0.0000000E+00
  -1.290000      0.0000000E+00
  -1.280000      0.0000000E+00
  -1.270000      0.0000000E+00
  -1.260000      0.0000000E+00
  -1.250000      0.0000000E+00
  -1.240000      0.0000000E+00
  -1.230000      0.0000000E+00
  -1.220000      0.0000000E+00
  -1.210000      0.0000000E+00
  -1.200000      0.0000000E+00
  -1.190000      0.0000000E+00
  -1.180000      0.0000000E+00
  -1.170000      0.0000000E+00
  -1.160000      0.0000000E+00
  -1.150000      0.0000000E+00
  -1.140000      0.0000000E+00
  -1.130000      0.0000000E+00
  -1.120000      0.0000000E+00
  -1.110000      0.0000000E+00
  -1.100000      0.0000000E+00
  -1.090000      0.0000000E+00
  -1.080000      0.0000000E+00
  -1.070000      0.0000000E+00
  -1.060000      0.0000000E+00
  -1.050000      0.0000000E+00
  -1.040000      0.0000000E+00
  -1.030000      0.0000000E+00
  -1.020000      0.0000000E+00
  -1.010000      0.0000000E+00
  -1.000000      0.0000000E+00
 -0.9900000      0.0000000E+00
 -0.9800000      0.0000000E+00
 -0.9700000      0.0000000E+00
 -0.9600000      0.0000000E+00
 -0.9500000      0.0000000E+00
 -0.9400000      0.0000000E+00
 -0.9300000      0.0000000E+00
 -0.9200000      0.0000000E+00
 -0.9100000      0.0000000E+00
 -0.9000000      0.0000000E+00
 -0.8900000      0.0000000E+00
 -0.8800000      0.0000000E+00
 -0.8700000      0.0000000E+00
 -0.8600000      0.0000000E+00
 -0.8500000      0.0000000E+00
 -0.8400000      0.0000000E+00
 -0.8300000      0.0000000E+00
 -0.8200000      0.0000000E+00
 -0.8100000      0.0000000E+00
 -0.8000000      0.0000000E+00
 -0.7900000      0.0000000E+00
 -0.7800000      0.0000000E+00
 -0.7700000      0.0000000E+00
 -0.7600000      0.0000000E+00
 -0.7500000      0.0000000E+00
 -0.7400000      0.0000000E+00
 -0.7300000      0.0000000E+00
 -0.7200000      0.0000000E+00
 -0.7100000      0.0000000E+00
 -0.7000000      0.0000000E+00
 -0.6900000      0.0000000E+00
 -0.6800000      0.0000000E+00
 -0.6700000      0.0000000E+00
 -0.6600000      0.0000000E+00
 -0.6500000      0.0000000E+00
 -0.6400000      0.0000000E+00
 -0.6300000      0.0000000E+00
 -0.6200000      0.0000000E+00
 -0.6100000      0.0000000E+00
 -0.6000000      0.0000000E+00
 -0.5900000      0.0000000E+00
 -0.5800000      0.0000000E+00
 -0.5700000      0.0000000E+00
 -0.5600000      0.0000000E+00
 -0.5500000      0.0000000E+00
 -0.5400000      0.0000000E+00
 -0.5300000      0.0000000E+00
 -0.5200000      0.0000000E+00
 -0.5100000      0.0000000E+00
 -0.5000000      0.0000000E+00
 -0.4900000      0.0000000E+00
 -0.4800000      0.0000000E+00
 -0.4700000      0.0000000E+00
 -0.4600000      0.0000000E+00
 -0.4500000      0.0000000E+00
 -0.4400000      0.0000000E+00
 -0.4300000      0.0000000E+00
 -0.4200000      0.0000000E+00
 -0.4100000      0.0000000E+00
 -0.4000000      0.0000000E+00
 -0.3900000      0.0000000E+00
 -0.3800000      0.0000000E+00
 -0.3700000      0.0000000E+00
 -0.3600000      0.0000000E+00
 -0.3500000      0.0000000E+00
 -0.3400000      0.0000000E+00
 -0.3300000      0.0000000E+00
 -0.3200000      0.0000000E+00
 -0.3100000      0.0000000E+00
 -0.3000000      0.0000000E+00
 -0.2900000      0.0000000E+00
 -0.2800000      0.0000000E+00
 -0.2700000      0.0000000E+00
 -0.2600000      0.0000000E+00
 -0.2500000      0.0000000E+00
 -0.2400000      0.0000000E+00
 -0.2300000      0.0000000E+00
 -0.2200000      0.0000000E+00
 -0.2100000      0.0000000E+00
 -0.2000000      0.0000000E+00
 -0.1900000      0.0000000E+00
 -0.1800000      0.0000000E+00
 -0.1700000      0.0000000E+00
 -0.1600000      0.0000000E+00
 -0.1500000      0.0000000E+00
 -0.1400000      0.0000000E+00
 -0.1300000      0.0000000E+00
 -0.1200000      0.0000000E+00
 -0.1100000      0.0000000E+00
 -0.1000000      0.0000000E+00
 -9.0000004E-02  0.0000000E+00
 -7.9999998E-02  0.0000000E+00
 -7.0000000E-02  0.0000000E+00
 -5.9999999E-02  0.0000000E+00
 -5.0000001E-02  0.0000000E+00
 -3.9999999E-02  0.0000000E+00
 -2.9999999E-02  0.0000000E+00
 -2.0000000E-02  0.0000000E+00
 -9.9999998E-03  0.0000000E+00
 -3.4694470E-17  0.0000000E+00
  9.9999998E-03  0.0000000E+00
  2.0000000E-02  0.0000000E+00
  2.9999999E-02  0.0000000E+00
  3.9999999E-02  0.0000000E+00
  5.0000001E-02  0.0000000E+00
  5.9999999E-02  0.0000000E+00
  7.0000000E-02  0.0000000E+00
  7.9999998E-02  0.0000000E+00
  9.0000004E-02  0.0000000E+00
  0.1000000      0.0000000E+00
  0.1100000      0.0000000E+00
  0.1200000      0.0000000E+00
  0.1300000      0.0000000E+00
  0.1400000      0.0000000E+00
  0.1500000      0.0000000E+00
  0.1600000      0.0000000E+00
  0.1700000      0.0000000E+00
  0.1800000      0.0000000E+00
  0.1900000      0.0000000E+00
  0.2000000      0.0000000E+00
  0.2100000      0.0000000E+00
  0.2200000      0.0000000E+00
  0.2300000      0.0000000E+00
  0.2400000      0.0000000E+00
  0.2500000      0.0000000E+00
  0.2600000      0.0000000E+00
  0.2700000      0.0000000E+00
  0.2800000      0.0000000E+00
  0.2900000      0.0000000E+00
  0.3000000      0.0000000E+00
  0.3100000      0.0000000E+00
  0.3200000      0.0000000E+00
  0.3300000      0.0000000E+00
  0.3400000      0.0000000E+00
  0.3500000      0.0000000E+00
  0.3600000      0.0000000E+00
  0.3700000      0.0000000E+00
  0.3800000      0.0000000E+00
  0.3900000      0.0000000E+00
  0.4000000      0.0000000E+00
  0.4100000      0.0000000E+00
  0.4200000      0.0000000E+00
  0.4300000      0.0000000E+00
  0.4400000      0.0000000E+00
  0.4500000      0.0000000E+00
  0.4600000      0.0000000E+00
  0.4700000      0.0000000E+00
  0.4800000      0.0000000E+00
  0.4900000      0.0000000E+00
  0.5000000      0.0000000E+00
  0.5100000      0.0000000E+00
  0.5200000      0.0000000E+00
  0.5300000      0.0000000E+00
  0.5400000      0.0000000E+00
  0.5500000      0.0000000E+00
  0.5600000      0.0000000E+00
  0.5700000      0.0000000E+00
  0.5800000      0.0000000E+00
  0.5900000      0.0000000E+00
  0.6000000      0.0000000E+00
  0.6100000      0.0000000E+00
  0.6200000      0.0000000E+00
  0.6300000      0.0000000E+00
  0.6400000      1.5863625E-38
  0.6500000      2.1283113E-38
  0.6600000      2.7245317E-38
  0.6700000      3.4004873E-38
  0.6800000      4.1619599E-38
  0.6900000      4.9063433E-38
  0.7000000      5.7627973E-38
  0.7100000      6.8573555E-38
  0.7200000      8.0768422E-38
  0.7300000      9.4115891E-38
  0.7400000      1.0826843E-37
  0.7500000      1.2381027E-37
  0.7600000      1.4054863E-37
  0.7700000      1.5744159E-37
  0.7800000      1.7338499E-37
  0.7900000      1.8927134E-37
  0.8000000      2.0599224E-37
  0.8100000      2.2150103E-37
  0.8200000      2.3223318E-37
  0.8300000      2.3820643E-37
  0.8400000      2.4007335E-37
  0.8500000      2.3664288E-37
  0.8600000      2.2839793E-37
  0.8700000      2.1578759E-37
  0.8800000      2.0110032E-37
  0.8900000      1.8372957E-37
  0.9000000      1.6168914E-37
  0.9100000      1.3065487E-37
  0.9200000      8.6909282E-38
  0.9300000      3.2402037E-38
  0.9400000     -3.2105278E-38
  0.9500000     -1.1050892E-37
  0.9600000     -2.0746901E-37
  0.9700000     -3.2135751E-37
  0.9800000     -4.5455378E-37
  0.9900000     -6.0708213E-37
   1.000000     -7.7349926E-37
   1.010000     -9.4239801E-37
   1.020000     -1.1204173E-36
   1.030000     -1.3138506E-36
   1.040000     -1.5178275E-36
   1.050000     -1.7261719E-36
   1.060000     -1.9330430E-36
   1.070000     -2.1555958E-36
   1.080000     -2.3878065E-36
   1.090000     -2.6129238E-36
   1.100000     -2.8412538E-36
   1.110000     -3.0752780E-36
   1.120000     -3.1523933E-36
   1.130000     -3.0754194E-36
   1.140000     -2.9747399E-36
   1.150000     -2.8274187E-36
   1.160000     -2.6463665E-36
   1.170000     -2.4662092E-36
   1.180000     -2.2473303E-36
   1.190000     -1.9290220E-36
   1.200000     -1.3287908E-36
   1.210000     -4.5083162E-37
   1.220000      5.1371893E-37
   1.230000      1.5564335E-36
   1.240000      2.4632459E-36
   1.250000      3.0349917E-36
   1.260000      3.2604044E-36
   1.270000      3.2772623E-36
   1.280000      3.2173605E-36
   1.290000      3.0738194E-36
   1.300000      2.8677648E-36
   1.310000      2.6531648E-36
   1.320000      2.4793319E-36
   1.330000      2.3548110E-36
   1.340000      2.2954508E-36
   1.350000      2.3209126E-36
   1.360000      2.4888702E-36
   1.370000      2.8758456E-36
   1.380000      3.3637810E-36
   1.390000      4.0140119E-36
   1.400000      5.0368322E-36
   1.410000      6.4211881E-36
   1.420000      8.0138129E-36
   1.430000      9.8797890E-36
   1.440000      1.2156220E-35
   1.450000      1.4489764E-35
   1.460000      1.6767882E-35
   1.470000      1.9296721E-35
   1.480000      2.2026394E-35
   1.490000      2.4948137E-35
   1.500000      2.7906813E-35
   1.510000      3.0613228E-35
   1.520000      3.3236997E-35
   1.530000      3.5834894E-35
   1.540000      3.8280869E-35
   1.550000      4.0516205E-35
   1.560000      4.2423275E-35
   1.570000      4.4016765E-35
   1.580000      4.5770335E-35
   1.590000      4.7569005E-35
   1.600000      4.9301260E-35
   1.610000      5.1185553E-35
   1.620000      5.2957255E-35
   1.630000      5.4520547E-35
   1.640000      5.5886836E-35
   1.650000      5.6671013E-35
   1.660000      5.6557763E-35
   1.670000      5.5721210E-35
   1.680000      5.4301841E-35
   1.690000      5.2484290E-35
   1.700000      5.0197477E-35
   1.710000      4.7384932E-35
   1.720000      4.4219098E-35
   1.730000      4.0227256E-35
   1.740000      3.5341835E-35
   1.750000      2.9387075E-35
   1.760000      2.1630174E-35
   1.770000      1.1643859E-35
   1.780000     -7.1287246E-37
   1.790000     -1.6718949E-35
   1.800000     -3.7404357E-35
   1.810000     -6.1948202E-35
   1.820000     -9.0999776E-35
   1.830000     -1.2447668E-34
   1.840000     -1.6085872E-34
   1.850000     -1.9950759E-34
   1.860000     -2.4291253E-34
   1.870000     -2.9132662E-34
   1.880000     -3.4027418E-34
   1.890000     -3.8846328E-34
   1.900000     -4.3369653E-34
   1.910000     -4.7735324E-34
   1.920000     -5.2103071E-34
   1.930000     -5.6275649E-34
   1.940000     -6.0474138E-34
   1.950000     -6.4815280E-34
   1.960000     -6.9447967E-34
   1.970000     -7.4097020E-34
   1.980000     -7.8394921E-34
   1.990000     -8.2388140E-34
   2.000000     -8.6321564E-34
   2.010000     -9.0275964E-34
   2.020000     -9.4139144E-34
   2.030000     -9.8052392E-34
   2.040000     -1.0133759E-33
   2.050000     -1.0395435E-33
   2.060000     -1.0621117E-33
   2.070000     -1.0783150E-33
   2.080000     -1.0885184E-33
   2.090000     -1.0870529E-33
   2.100000     -1.0728346E-33
   2.110000     -1.0474167E-33
   2.120000     -1.0051668E-33
   2.130000     -9.4627938E-34
   2.140000     -8.7183459E-34
   2.150000     -7.7610821E-34
   2.160000     -6.5980204E-34
   2.170000     -5.2195641E-34
   2.180000     -3.5834029E-34
   2.190000     -1.6751518E-34
   2.200000      5.1040005E-35
   2.210000      2.9579683E-34
   2.220000      5.6852059E-34
   2.230000      8.7153236E-34
   2.240000      1.2045547E-33
   2.250000      1.5664981E-33
   2.260000      1.9572391E-33
   2.270000      2.3760179E-33
   2.280000      2.8217402E-33
   2.290000      3.2927771E-33
   2.300000      3.7862115E-33
   2.310000      4.3011548E-33
   2.320000      4.8360113E-33
   2.330000      5.3863164E-33
   2.340000      5.9475955E-33
   2.350000      6.5168635E-33
   2.360000      7.0905915E-33
   2.370000      7.6629566E-33
   2.380000      8.2289600E-33
   2.390000      8.7831814E-33
   2.400000      9.3193956E-33
   2.410000      9.8309788E-33
   2.420000      1.0311124E-32
   2.430000      1.0752687E-32
   2.440000      1.1147497E-32
   2.450000      1.1487025E-32
   2.460000      1.1762430E-32
   2.470000      1.1963160E-32
   2.480000      1.2080795E-32
   2.490000      1.2106347E-32
   2.500000      1.2028297E-32
   2.510000      1.1836201E-32
   2.520000      1.1519112E-32
   2.530000      1.1066061E-32
   2.540000      1.0466020E-32
   2.550000      9.7080721E-33
   2.560000      8.7815019E-33
   2.570000      7.6763234E-33
   2.580000      6.3821144E-33
   2.590000      4.8889916E-33
   2.600000      3.1887279E-33
   2.610000      1.2732738E-33
   2.620000     -8.6442218E-34
   2.630000     -3.2300575E-33
   2.640000     -5.8281381E-33
   2.650000     -8.6616529E-33
   2.660000     -1.1731967E-32
   2.670000     -1.5038628E-32
   2.680000     -1.8579119E-32
   2.690000     -2.2348750E-32
   2.700000     -2.6340495E-32
   2.710000     -3.0544724E-32
   2.720000     -3.4949078E-32
   2.730000     -3.9538370E-32
   2.740000     -4.4292618E-32
   2.750000     -4.9192176E-32
   2.760000     -5.4214211E-32
   2.770000     -5.9329016E-32
   2.780000     -6.4505200E-32
   2.790000     -6.9707820E-32
   2.800000     -7.4898415E-32
   2.810000     -8.0035055E-32
   2.820000     -8.5072231E-32
   2.830000     -8.9960953E-32
   2.840000     -9.4648783E-32
   2.850000     -9.9079974E-32
   2.860000     -1.0319549E-31
   2.870000     -1.0693317E-31
   2.880000     -1.1022810E-31
   2.890000     -1.1301259E-31
   2.900000     -1.1521653E-31
   2.910000     -1.1676746E-31
   2.920000     -1.1759155E-31
   2.930000     -1.1761352E-31
   2.940000     -1.1675661E-31
   2.950000     -1.1494366E-31
   2.960000     -1.1209736E-31
   2.970000     -1.0814081E-31
   2.980000     -1.0299806E-31
   2.990000     -9.6594644E-32
   3.000000     -8.8858316E-32
   3.010000     -7.9719323E-32
   3.020000     -6.9112503E-32
   3.030000     -5.6976429E-32
   3.040000     -4.3254151E-32
   3.050000     -2.7895692E-32
   3.060000     -1.0857717E-32
   3.070000      7.8951931E-33
   3.080000      2.8389570E-32
   3.090000      5.0642036E-32
   3.100000      7.4658238E-32
   3.110000      1.0043180E-31
   3.120000      1.2794330E-31
   3.130000      1.5715908E-31
   3.140000      1.8803030E-31
   3.150000      2.2049197E-31
   3.160000      2.5446190E-31
   3.170000      2.8983953E-31
   3.180000      3.2650602E-31
   3.190000      3.6432275E-31
   3.200000      4.0313033E-31
   3.210000      4.4274863E-31
   3.220000      4.8297626E-31
   3.230000      5.2359001E-31
   3.240000      5.6434482E-31
   3.250000      6.0497372E-31
   3.260000      6.4518771E-31
   3.270000      6.8467590E-31
   3.280000      7.2310606E-31
   3.290000      7.6012510E-31
   3.300000      7.9535941E-31
   3.310000      8.2841620E-31
   3.320000      8.5888360E-31
   3.330000      8.8633271E-31
   3.340000      9.1031806E-31
   3.350000      9.3037999E-31
   3.360000      9.4604538E-31
   3.370000      9.5683021E-31
   3.380000      9.6224134E-31
   3.390000      9.6177895E-31
   3.400000      9.5493888E-31
   3.410000      9.4121560E-31
   3.420000      9.2010504E-31
   3.430000      8.9110804E-31
   3.440000      8.5373381E-31
   3.450000      8.0750396E-31
   3.460000      7.5195668E-31
   3.470000      6.8665073E-31
   3.480000      6.1117064E-31
   3.490000      5.2513165E-31
   3.500000      4.2818491E-31
   3.510000      3.2002298E-31
   3.520000      2.0038544E-31
   3.530000      6.9065001E-32
   3.540000     -7.4086537E-32
   3.550000     -2.2915223E-31
   3.560000     -3.9614357E-31
   3.570000     -5.7499457E-31
   3.580000     -7.6555541E-31
   3.590000     -9.6758636E-31
   3.600000     -1.1807520E-30
   3.610000     -1.4046155E-30
   3.620000     -1.6386331E-30
   3.630000     -1.8821487E-30
   3.640000     -2.1343891E-30
   3.650000     -2.3944598E-30
   3.660000     -2.6613403E-30
   3.670000     -2.9338802E-30
   3.680000     -3.2107964E-30
   3.690000     -3.4906705E-30
   3.700000     -3.7719447E-30
   3.710000     -4.0529225E-30
   3.720000     -4.3317648E-30
   3.730000     -4.6064919E-30
   3.740000     -4.8749816E-30
   3.750000     -5.1349690E-30
   3.760000     -5.3840504E-30
   3.770000     -5.6196845E-30
   3.780000     -5.8391950E-30
   3.790000     -6.0397754E-30
   3.800000     -6.2184938E-30
   3.810000     -6.3722981E-30
   3.820000     -6.4980252E-30
   3.830000     -6.5924101E-30
   3.840000     -6.6520951E-30
   3.850000     -6.6736407E-30
   3.860000     -6.6535410E-30
   3.870000     -6.5882377E-30
   3.880000     -6.4741369E-30
   3.890000     -6.3076275E-30
   3.900000     -6.0851013E-30
   3.910000     -5.8029744E-30
   3.920000     -5.4577123E-30
   3.930000     -5.0458556E-30
   3.940000     -4.5640443E-30
   3.950000     -4.0090493E-30
   3.960000     -3.3778016E-30
   3.970000     -2.6674252E-30
   3.980000     -1.8752684E-30
   3.990000     -9.9893952E-31
   4.000000     -3.6341057E-32
   4.010000      1.0142931E-30
   4.020000      2.1543603E-30
   4.030000      3.3848531E-30
   4.040000      4.7063186E-30
   4.050000      6.1188194E-30
   4.060000      7.6218956E-30
   4.070000      9.2145230E-30
   4.080000      1.0895074E-29
   4.090000      1.2661276E-29
   4.100000      1.4510171E-29
   4.110000      1.6438080E-29
   4.120000      1.8440549E-29
   4.130000      2.0512331E-29
   4.140000      2.2647322E-29
   4.150000      2.4838544E-29
   4.160000      2.7078091E-29
   4.170000      2.9357095E-29
   4.180000      3.1665707E-29
   4.190000      3.3993043E-29
   4.200000      3.6327161E-29
   4.210000      3.8655042E-29
   4.220000      4.0962544E-29
   4.230000      4.3234407E-29
   4.240000      4.5454219E-29
   4.250000      4.7604405E-29
   4.260000      4.9666230E-29
   4.270000      5.1619798E-29
   4.280000      5.3444032E-29
   4.290000      5.5116727E-29
   4.300000      5.6614522E-29
   4.310000      5.7912978E-29
   4.320000      5.8986582E-29
   4.330000      5.9808791E-29
   4.340000      6.0352102E-29
   4.350000      6.0588095E-29
   4.360000      6.0487513E-29
   4.370000      6.0020337E-29
   4.380000      5.9155895E-29
   4.390000      5.7862922E-29
   4.400000      5.6109712E-29
   4.410000      5.3864210E-29
   4.420000      5.1094169E-29
   4.430000      4.7767245E-29
   4.440000      4.3851195E-29
   4.450000      3.9314017E-29
   4.460000      3.4124126E-29
   4.470000      2.8250552E-29
   4.480000      2.1663107E-29
   4.490000      1.4332632E-29
   4.500000      6.2312034E-30
   4.510000     -2.6676520E-30
   4.520000     -1.2388679E-29
   4.530000     -2.2954647E-29
   4.540000     -3.4386086E-29
   4.550000     -4.6700984E-29
   4.560000     -5.9914483E-29
   4.570000     -7.4038597E-29
   4.580000     -8.9081867E-29
   4.590000     -1.0504902E-28
   4.600000     -1.2194065E-28
   4.610000     -1.3975284E-28
   4.620000     -1.5847679E-28
   4.630000     -1.7809851E-28
   4.640000     -1.9859836E-28
   4.650000     -2.1995068E-28
   4.660000     -2.4212351E-28
   4.670000     -2.6507804E-28
   4.680000     -2.8876842E-28
   4.690000     -3.1314123E-28
   4.700000     -3.3813521E-28
   4.710000     -3.6368069E-28
   4.720000     -3.8969957E-28
   4.730000     -4.1610468E-28
   4.740000     -4.4279961E-28
   4.750000     -4.6967827E-28
   4.760000     -4.9662473E-28
   4.770000     -5.2351292E-28
   4.780000     -5.5020607E-28
   4.790000     -5.7655693E-28
   4.800000     -6.0240725E-28
   4.810000     -6.2758782E-28
   4.820000     -6.5191799E-28
   4.830000     -6.7520595E-28
   4.840000     -6.9724837E-28
   4.850000     -7.1783039E-28
   4.860000     -7.3672579E-28
   4.870000     -7.5369694E-28
   4.880000     -7.6849477E-28
   4.890000     -7.8085929E-28
   4.900000     -7.9051947E-28
   4.910000     -7.9719359E-28
   4.920000     -8.0058991E-28
   4.930000     -8.0040676E-28
   4.940000     -7.9633308E-28
   4.950000     -7.8804922E-28
   4.960000     -7.7522749E-28
   4.970000     -7.5753301E-28
   4.980000     -7.3462460E-28
   4.990000     -7.0615560E-28
   5.000000     -6.7177520E-28
   5.010000     -6.3112946E-28
   5.020000     -5.8386280E-28
   5.030000     -5.2961923E-28
   5.040000     -4.6804407E-28
   5.050000     -3.9878529E-28
   5.060000     -3.2149577E-28
   5.070000     -2.3583477E-28
   5.080000     -1.4147009E-28
   5.090000     -3.8080245E-29
   5.100000      7.4643333E-29
   5.110000      1.9699395E-28
   5.120000      3.2924716E-28
   5.130000      4.7165817E-28
   5.140000      6.2445895E-28
   5.150000      7.8785552E-28
   5.160000      9.6202502E-28
   5.170000      1.1471127E-27
   5.180000      1.3432284E-27
   5.190000      1.5504437E-27
   5.200000      1.7687883E-27
   5.210000      1.9982463E-27
   5.220000      2.2387528E-27
   5.230000      2.4901906E-27
   5.240000      2.7523856E-27
   5.250000      3.0251034E-27
   5.260000      3.3080458E-27
   5.270000      3.6008457E-27
   5.280000      3.9030646E-27
   5.290000      4.2141878E-27
   5.300000      4.5336202E-27
   5.310000      4.8606828E-27
   5.320000      5.1946071E-27
   5.330000      5.5345353E-27
   5.340000      5.8795113E-27
   5.350000      6.2284809E-27
   5.360000      6.5802856E-27
   5.370000      6.9336606E-27
   5.380000      7.2872305E-27
   5.390000      7.6395093E-27
   5.400000      7.9888915E-27
   5.410000      8.3336545E-27
   5.420000      8.6719556E-27
   5.430000      9.0018297E-27
   5.440000      9.3211858E-27
   5.450000      9.6278070E-27
   5.460000      9.9193496E-27
   5.470000      1.0193345E-26
   5.480000      1.0447195E-26
   5.490000      1.0678176E-26
   5.500000      1.0883439E-26
   5.510000      1.1060012E-26
   5.520000      1.1204801E-26
   5.530000      1.1314593E-26
   5.540000      1.1386061E-26
   5.550000      1.1415769E-26
   5.560000      1.1400176E-26
   5.570000      1.1335638E-26
   5.580000      1.1218426E-26
   5.590000      1.1044723E-26
   5.600000      1.0810635E-26
   5.610000      1.0512202E-26
   5.620000      1.0145417E-26
   5.630000      9.7062201E-27
   5.640000      9.1905269E-27
   5.650000      8.5942359E-27
   5.660000      7.9132463E-27
   5.670000      7.1434698E-27
   5.680000      6.2808543E-27
   5.690000      5.3214007E-27
   5.700000      4.2611820E-27
   5.710000      3.0963630E-27
   5.720000      1.8232276E-27
   5.730000      4.3820010E-28
   5.740000     -1.0621279E-27
   5.750000     -2.6809729E-27
   5.760000     -4.4213293E-27
   5.770000     -6.2859411E-27
   5.780000     -8.2772740E-27
   5.790000     -1.0397485E-26
   5.800000     -1.2648382E-26
   5.810000     -1.5031399E-26
   5.820000     -1.7547558E-26
   5.830000     -2.0197431E-26
   5.840000     -2.2981108E-26
   5.850000     -2.5898153E-26
   5.860000     -2.8947578E-26
   5.870000     -3.2127787E-26
   5.880000     -3.5436550E-26
   5.890000     -3.8870961E-26
   5.900000     -4.2427389E-26
   5.910000     -4.6101444E-26
   5.920000     -4.9887949E-26
   5.930000     -5.3780870E-26
   5.940000     -5.7773301E-26
   5.950000     -6.1857419E-26
   5.960000     -6.6024435E-26
   5.970000     -7.0264556E-26
   5.980000     -7.4566960E-26
   5.990000     -7.8919765E-26
   6.000000     -8.3309955E-26
   6.010000     -8.7723385E-26
   6.020000     -9.2144747E-26
   6.030000     -9.6557530E-26
   6.040000     -1.0094398E-25
   6.050000     -1.0528510E-25
   6.060000     -1.0956064E-25
   6.070000     -1.1374902E-25
   6.080000     -1.1782742E-25
   6.090000     -1.2177163E-25
   6.100000     -1.2555619E-25
   6.110000     -1.2915429E-25
   6.120000     -1.3253784E-25
   6.130000     -1.3567741E-25
   6.140000     -1.3854229E-25
   6.150000     -1.4110054E-25
   6.160000     -1.4331898E-25
   6.170000     -1.4516320E-25
   6.180000     -1.4659768E-25
   6.190000     -1.4758574E-25
   6.200000     -1.4808971E-25
   6.210000     -1.4807091E-25
   6.220000     -1.4748975E-25
   6.230000     -1.4630582E-25
   6.240000     -1.4447798E-25
   6.250000     -1.4196446E-25
   6.260000     -1.3872297E-25
   6.270000     -1.3471084E-25
   6.280000     -1.2988511E-25
   6.290000     -1.2420272E-25
   6.300000     -1.1762063E-25
   6.310000     -1.1009595E-25
   6.320000     -1.0158622E-25
   6.330000     -9.2049498E-26
   6.340000     -8.1444619E-26
   6.350000     -6.9731335E-26
   6.360000     -5.6870616E-26
   6.370000     -4.2824812E-26
   6.380000     -2.7557944E-26
   6.390000     -1.1035904E-26
   6.400000      6.7732229E-27
   6.410000      2.5898914E-26
   6.420000      4.6367913E-26
   6.430000      6.8203934E-26
   6.440000      9.1427414E-26
   6.450000      1.1605512E-25
   6.460000      1.4209987E-25
   6.470000      1.6957020E-25
   6.480000      1.9847003E-25
   6.490000      2.2879831E-25
   6.500000      2.6054868E-25
   6.510000      2.9370914E-25
   6.520000      3.2826164E-25
   6.530000      3.6418175E-25
   6.540000      4.0143832E-25
   6.550000      4.3999304E-25
   6.560000      4.7980029E-25
   6.570000      5.2080656E-25
   6.580000      5.6295007E-25
   6.590000      6.0616067E-25
   6.600000      6.5035926E-25
   6.610000      6.9545765E-25
   6.620000      7.4135812E-25
   6.630000      7.8795302E-25
   6.640000      8.3512474E-25
   6.650000      8.8274512E-25
   6.660000      9.3067551E-25
   6.670000      9.7876645E-25
   6.680000      1.0268572E-24
   6.690000      1.0747758E-24
   6.700000      1.1223388E-24
   6.710000      1.1693514E-24
   6.720000      1.2156068E-24
   6.730000      1.2608868E-24
   6.740000      1.3049609E-24
   6.750000      1.3475875E-24
   6.760000      1.3885128E-24
   6.770000      1.4274720E-24
   6.780000      1.4641885E-24
   6.790000      1.4983741E-24
   6.800000      1.5297305E-24
   6.810000      1.5579478E-24
   6.820000      1.5827067E-24
   6.830000      1.6036776E-24
   6.840000      1.6205217E-24
   6.850000      1.6328911E-24
   6.860000      1.6404302E-24
   6.870000      1.6427759E-24
   6.880000      1.6395583E-24
   6.890000      1.6304015E-24
   6.900000      1.6149255E-24
   6.910000      1.5927456E-24
   6.920000      1.5634746E-24
   6.930000      1.5267239E-24
   6.940000      1.4821046E-24
   6.950000      1.4292285E-24
   6.960000      1.3677098E-24
   6.970000      1.2971669E-24
   6.980000      1.2172234E-24
   6.990000      1.1275103E-24
   7.000000      1.0276677E-24
   7.010000      9.1734613E-25
   7.020000      7.9620865E-25
   7.030000      6.6393354E-25
   7.040000      5.2021556E-25
   7.050000      3.6476842E-25
   7.060000      1.9732718E-25