  -2.600000      0.0000000E+00
  -2.590000      0.0000000E+00
  -2.580000      0.0000000E+00
  -2.570000      0.0000000E+00
  -2.560000      0.0000000E+00
  -2.550000      0.0000000E+00
  -2.540000      0.0000000E+00
  -2.530000      0.0000000E+00
  -2.520000      0.0000000E+00
  -2.510000      0.0000000E+00
  -2.500000      0.0000000E+00
  -2.490000      0.0000000E+00
  -2.480000      0.0000000E+00
  -2.470000      0.0000000E+00
  -2.460000      0.0000000E+00
  -2.450000      0.0000000E+00
  -2.440000      0.0000000E+00
  -2.430000      0.0000000E+00
  -2.420000      0.0000000E+00
  -2.410000      0.0000000E+00
  -2.400000      0.0000000E+00
  -2.390000      0.0000000E+00
  -2.380000      0.0000000E+00
  -2.370000      0.0000000E+00
  -2.360000      0.0000000E+00
  -2.350000      0.0000000E+00
  -2.340000      0.0000000E+00
  -2.330000      0.0000000E+00
  -2.320000      0.0000000E+00
  -2.310000      0.0000000E+00
  -2.300000      0.0000000E+00
  -2.290000      0.0000000E+00
  -2.280000      0.0000000E+00
  -2.270000      0.0000000E+00
  -2.260000      0.0000000E+00
  -2.250000      0.0000000E+00
  -2.240000      0.0000000E+00
  -2.230000      0.0000000E+00
  -2.220000      0.0000000E+00
  -2.210000      0.0000000E+00
  -2.200000      0.0000000E+00
  -2.190000      0.0000000E+00
  -2.180000      0.0000000E+00
  -2.170000      0.0000000E+00
  -2.160000      0.0000000E+00
  -2.150000      0.0000000E+00
  -2.140000      0.0000000E+00
  -2.130000      0.0000000E+00
  -2.120000      0.0000000E+00
  -2.110000      0.0000000E+00
  -2.100000      0.0000000E+00
  -2.090000      0.0000000E+00
  -2.080000      0.0000000E+00
  -2.070000      0.0000000E+00
  -2.060000      0.0000000E+00
  -2.050000      0.0000000E+00
  -2.040000      0.0000000E+00
  -2.030000      0.0000000E+00
  -2.020000      0.0000000E+00
  -2.010000      0.0000000E+00
  -2.000000      0.0000000E+00
  -1.990000      0.0000000E+00
  -1.980000      0.0000000E+00
  -1.970000      0.0000000E+00
  -1.960000      0.0000000E+00
  -1.950000      0.0000000E+00
  -1.940000      0.0000000E+00
  -1.930000      0.0000000E+00
  -1.920000      0.0000000E+00
  -1.910000      0.0000000E+00
  -1.900000      0.0000000E+00
  -1.890000      0.0000000E+00
  -1.880000      0.0000000E+00
  -1.870000      0.0000000E+00
  -1.860000      0.0000000E+00
  -1.850000      0.0000000E+00
  -1.840000      0.0000000E+00
  -1.830000      0.0000000E+00
  -1.820000      0.0000000E+00
  -1.810000      0.0000000E+00
  -1.800000      0.0000000E+00
  -1.790000      0.0000000E+00
  -1.780000      0.0000000E+00
  -1.770000      0.0000000E+00
  -1.760000      0.0000000E+00
  -1.750000      0.0000000E+00
  -1.740000      0.0000000E+00
  -1.730000      0.0000000E+00
  -1.720000      0.0000000E+00
  -1.710000      0.0000000E+00
  -1.700000      0.0000000E+00
  -1.690000      0.0000000E+00
  -1.680000      0.0000000E+00
  -1.670000      0.0000000E+00
  -1.660000      0.0000000E+00
  -1.650000      0.0000000E+00
  -1.640000      0.0000000E+00
  -1.630000      0.0000000E+00
  -1.620000      0.0000000E+00
  -1.610000      0.0000000E+00
  -1.600000      0.0000000E+00
  -1.590000      0.0000000E+00
  -1.580000      0.0000000E+00
  -1.570000      0.0000000E+00
  -1.560000      0.0000000E+00
  -1.550000      0.0000000E+00
  -1.540000      0.0000000E+00
  -1.530000      0.0000000E+00
  -1.520000      0.0000000E+00
  -1.510000      0.0000000E+00
  -1.500000      0.0000000E+00
  -1.490000      0.0000000E+00
  -1.480000      0.0000000E+00
  -1.470000      0.0000000E+00
  -1.460000      0.0000000E+00
  -1.450000      0.0000000E+00
  -1.440000      0.0000000E+00
  -1.430000      0.0000000E+00
  -1.420000      0.0000000E+00
  -1.410000      0.0000000E+00
  -1.400000      0.0000000E+00
  -1.390000      0.0000000E+00
  -1.380000      0.0000000E+00
  -1.370000      0.0000000E+00
  -1.360000      0.0000000E+00
  -1.350000      0.0000000E+00
  -1.340000      0.0000000E+00
  -1.330000      0.0000000E+00
  -1.320000      0.0000000E+00
  -1.310000      0.0000000E+00
  -1.300000      0.0000000E+00
  -1.290000      0.0000000E+00
  -1.280000      0.0000000E+00
  -1.270000      0.0000000E+00
  -1.260000      0.0000000E+00
  -1.250000      0.0000000E+00
  -1.240000      0.0000000E+00
  -1.230000      0.0000000E+00
  -1.220000      0.0000000E+00
  -1.210000      0.0000000E+00
  -1.200000      0.0000000E+00
  -1.190000      0.0000000E+00
  -1.180000      0.0000000E+00
  -1.170000      0.0000000E+00
  -1.160000      0.0000000E+00
  -1.150000      0.0000000E+00
  -1.140000      0.0000000E+00
  -1.130000      0.0000000E+00
  -1.120000      0.0000000E+00
  -1.110000      0.0000000E+00
  -1.100000      0.0000000E+00
  -1.090000      0.0000000E+00
  -1.080000      0.0000000E+00
  -1.070000      0.0000000E+00
  -1.060000      0.0000000E+00
  -1.050000      0.0000000E+00
  -1.040000      0.0000000E+00
  -1.030000      0.0000000E+00
  -1.020000      0.0000000E+00
  -1.010000      0.0000000E+00
  -1.000000      0.0000000E+00
 -0.9900000      0.0000000E+00
 -0.9800000      0.0000000E+00
 -0.9700000      0.0000000E+00
 -0.9600000      0.0000000E+00
 -0.9500000      0.0000000E+00
 -0.9400000      0.0000000E+00
 -0.9300000      0.0000000E+00
 -0.9200000      0.0000000E+00
 -0.9100000      0.0000000E+00
 -0.9000000      0.0000000E+00
 -0.8900000      0.0000000E+00
 -0.8800000      0.0000000E+00
 -0.8700000      0.0000000E+00
 -0.8600000      0.0000000E+00
 -0.8500000      0.0000000E+00
 -0.8400000      0.0000000E+00
 -0.8300000      0.0000000E+00
 -0.8200000      0.0000000E+00
 -0.8100000      0.0000000E+00
 -0.8000000      0.0000000E+00
 -0.7900000      0.0000000E+00
 -0.7800000      0.0000000E+00
 -0.7700000      0.0000000E+00
 -0.7600000      0.0000000E+00
 -0.7500000      0.0000000E+00
 -0.7400000      0.0000000E+00
 -0.7300000      0.0000000E+00
 -0.7200000      0.0000000E+00
 -0.7100000      0.0000000E+00
 -0.7000000      0.0000000E+00
 -0.6900000      0.0000000E+00
 -0.6800000      0.0000000E+00
 -0.6700000      0.0000000E+00
 -0.6600000      0.0000000E+00
 -0.6500000      0.0000000E+00
 -0.6400000      0.0000000E+00
 -0.6300000      0.0000000E+00
 -0.6200000      0.0000000E+00
 -0.6100000      0.0000000E+00
 -0.6000000      0.0000000E+00
 -0.5900000      0.0000000E+00
 -0.5800000      0.0000000E+00
 -0.5700000      0.0000000E+00
 -0.5600000      0.0000000E+00
 -0.5500000      0.0000000E+00
 -0.5400000      0.0000000E+00
 -0.5300000      0.0000000E+00
 -0.5200000      0.0000000E+00
 -0.5100000      0.0000000E+00
 -0.5000000      0.0000000E+00
 -0.4900000      0.0000000E+00
 -0.4800000      0.0000000E+00
 -0.4700000      0.0000000E+00
 -0.4600000      0.0000000E+00
 -0.4500000      0.0000000E+00
 -0.4400000      0.0000000E+00
 -0.4300000      0.0000000E+00
 -0.4200000      0.0000000E+00
 -0.4100000      0.0000000E+00
 -0.4000000      0.0000000E+00
 -0.3900000      0.0000000E+00
 -0.3800000      0.0000000E+00
 -0.3700000      0.0000000E+00
 -0.3600000      0.0000000E+00
 -0.3500000      0.0000000E+00
 -0.3400000      0.0000000E+00
 -0.3300000      0.0000000E+00
 -0.3200000      0.0000000E+00
 -0.3100000      0.0000000E+00
 -0.3000000      0.0000000E+00
 -0.2900000      0.0000000E+00
 -0.2800000      0.0000000E+00
 -0.2700000      0.0000000E+00
 -0.2600000      0.0000000E+00
 -0.2500000      0.0000000E+00
 -0.2400000      0.0000000E+00
 -0.2300000      0.0000000E+00
 -0.2200000      0.0000000E+00
 -0.2100000      0.0000000E+00
 -0.2000000      0.0000000E+00
 -0.1900000      0.0000000E+00
 -0.1800000      0.0000000E+00
 -0.1700000      0.0000000E+00
 -0.1600000      0.0000000E+00
 -0.1500000      0.0000000E+00
 -0.1400000      0.0000000E+00
 -0.1300000      0.0000000E+00
 -0.1200000      0.0000000E+00
 -0.1100000      0.0000000E+00
 -0.1000000      0.0000000E+00
 -9.0000004E-02  0.0000000E+00
 -7.9999998E-02  0.0000000E+00
 -7.0000000E-02  0.0000000E+00
 -5.9999999E-02  0.0000000E+00
 -5.0000001E-02  0.0000000E+00
 -3.9999999E-02  0.0000000E+00
 -2.9999999E-02  0.0000000E+00
 -2.0000000E-02  0.0000000E+00
 -9.9999998E-03  0.0000000E+00
 -3.4694470E-17  0.0000000E+00
  9.9999998E-03  0.0000000E+00
  2.0000000E-02  0.0000000E+00
  2.9999999E-02  0.0000000E+00
  3.9999999E-02  0.0000000E+00
  5.0000001E-02  0.0000000E+00
  5.9999999E-02  0.0000000E+00
  7.0000000E-02  0.0000000E+00
  7.9999998E-02  0.0000000E+00
  9.0000004E-02  0.0000000E+00
  0.1000000      0.0000000E+00
  0.1100000      0.0000000E+00
  0.1200000      0.0000000E+00
  0.1300000      0.0000000E+00
  0.1400000      0.0000000E+00
  0.1500000      0.0000000E+00
  0.1600000      0.0000000E+00
  0.1700000      0.0000000E+00
  0.1800000      0.0000000E+00
  0.1900000      0.0000000E+00
  0.2000000      0.0000000E+00
  0.2100000      0.0000000E+00
  0.2200000      0.0000000E+00
  0.2300000      0.0000000E+00
  0.2400000      0.0000000E+00
  0.2500000      0.0000000E+00
  0.2600000      0.0000000E+00
  0.2700000      0.0000000E+00
  0.2800000      0.0000000E+00
  0.2900000      0.0000000E+00
  0.3000000      0.0000000E+00
  0.3100000      0.0000000E+00
  0.3200000      0.0000000E+00
  0.3300000      0.0000000E+00
  0.3400000      0.0000000E+00
  0.3500000      0.0000000E+00
  0.3600000      0.0000000E+00
  0.3700000      0.0000000E+00
  0.3800000      0.0000000E+00
  0.3900000      0.0000000E+00
  0.4000000      0.0000000E+00
  0.4100000      0.0000000E+00
  0.4200000      0.0000000E+00
  0.4300000      0.0000000E+00
  0.4400000      0.0000000E+00
  0.4500000      0.0000000E+00
  0.4600000      0.0000000E+00
  0.4700000      0.0000000E+00
  0.4800000      0.0000000E+00
  0.4900000      0.0000000E+00
  0.5000000      0.0000000E+00
  0.5100000      0.0000000E+00
  0.5200000      0.0000000E+00
  0.5300000      0.0000000E+00
  0.5400000      0.0000000E+00
  0.5500000      0.0000000E+00
  0.5600000      0.0000000E+00
  0.5700000      0.0000000E+00
  0.5800000      0.0000000E+00
  0.5900000      0.0000000E+00
  0.6000000      0.0000000E+00
  0.6100000      0.0000000E+00
  0.6200000      0.0000000E+00
  0.6300000      0.0000000E+00
  0.6400000      0.0000000E+00
  0.6500000      0.0000000E+00
  0.6600000      0.0000000E+00
  0.6700000      0.0000000E+00
  0.6800000      0.0000000E+00
  0.6900000      0.0000000E+00
  0.7000000      0.0000000E+00
  0.7100000      0.0000000E+00
  0.7200000      0.0000000E+00
  0.7300000      0.0000000E+00
  0.7400000      0.0000000E+00
  0.7500000      0.0000000E+00
  0.7600000      0.0000000E+00
  0.7700000      0.0000000E+00
  0.7800000      0.0000000E+00
  0.7900000      0.0000000E+00
  0.8000000      0.0000000E+00
  0.8100000      0.0000000E+00
  0.8200000      0.0000000E+00
  0.8300000      0.0000000E+00
  0.8400000      0.0000000E+00
  0.8500000      0.0000000E+00
  0.8600000      0.0000000E+00
  0.8700000      0.0000000E+00
  0.8800000      0.0000000E+00
  0.8900000      0.0000000E+00
  0.9000000      0.0000000E+00
  0.9100000      0.0000000E+00
  0.9200000      0.0000000E+00
  0.9300000      0.0000000E+00
  0.9400000      0.0000000E+00
  0.9500000      0.0000000E+00
  0.9600000      0.0000000E+00
  0.9700000      0.0000000E+00
  0.9800000      0.0000000E+00
  0.9900000      0.0000000E+00
   1.000000      0.0000000E+00
   1.010000      0.0000000E+00
   1.020000      0.0000000E+00
   1.030000      0.0000000E+00
   1.040000      0.0000000E+00
   1.050000      0.0000000E+00
   1.060000      0.0000000E+00
   1.070000      0.0000000E+00
   1.080000      0.0000000E+00
   1.090000      0.0000000E+00
   1.100000      0.0000000E+00
   1.110000      0.0000000E+00
   1.120000      0.0000000E+00
   1.130000      0.0000000E+00
   1.140000      0.0000000E+00
   1.150000      0.0000000E+00
   1.160000      0.0000000E+00
   1.170000      0.0000000E+00
   1.180000      0.0000000E+00
   1.190000      0.0000000E+00
   1.200000      0.0000000E+00
   1.210000      0.0000000E+00
   1.220000      0.0000000E+00
   1.230000      0.0000000E+00
   1.240000      0.0000000E+00
   1.250000      0.0000000E+00
   1.260000      0.0000000E+00
   1.270000      0.0000000E+00
   1.280000      0.0000000E+00
   1.290000      0.0000000E+00
   1.300000      0.0000000E+00
   1.310000      0.0000000E+00
   1.320000      0.0000000E+00
   1.330000      0.0000000E+00
   1.340000      0.0000000E+00
   1.350000      0.0000000E+00
   1.360000      0.0000000E+00
   1.370000      0.0000000E+00
   1.380000      0.0000000E+00
   1.390000      0.0000000E+00
   1.400000      0.0000000E+00
   1.410000      0.0000000E+00
   1.420000      0.0000000E+00
   1.430000      0.0000000E+00
   1.440000      0.0000000E+00
   1.450000      0.0000000E+00
   1.460000      0.0000000E+00
   1.470000      0.0000000E+00
   1.480000      0.0000000E+00
   1.490000      0.0000000E+00
   1.500000      0.0000000E+00
   1.510000      0.0000000E+00
   1.520000      0.0000000E+00
   1.530000      0.0000000E+00
   1.540000      0.0000000E+00
   1.550000      0.0000000E+00
   1.560000      0.0000000E+00
   1.570000      0.0000000E+00
   1.580000      0.0000000E+00
   1.590000      0.0000000E+00
   1.600000      0.0000000E+00
   1.610000      0.0000000E+00
   1.620000      0.0000000E+00
   1.630000      0.0000000E+00
   1.640000      0.0000000E+00
   1.650000      0.0000000E+00
   1.660000      0.0000000E+00
   1.670000      0.0000000E+00
   1.680000      0.0000000E+00
   1.690000      0.0000000E+00
   1.700000      0.0000000E+00
   1.710000      0.0000000E+00
   1.720000      0.0000000E+00
   1.730000      0.0000000E+00
   1.740000      0.0000000E+00
   1.750000      0.0000000E+00
   1.760000      0.0000000E+00
   1.770000      0.0000000E+00
   1.780000      0.0000000E+00
   1.790000      0.0000000E+00
   1.800000      0.0000000E+00
   1.810000      0.0000000E+00
   1.820000      0.0000000E+00
   1.830000      0.0000000E+00
   1.840000      0.0000000E+00
   1.850000      0.0000000E+00
   1.860000      0.0000000E+00
   1.870000      0.0000000E+00
   1.880000      0.0000000E+00
   1.890000      0.0000000E+00
   1.900000      0.0000000E+00
   1.910000      0.0000000E+00
   1.920000      0.0000000E+00
   1.930000      0.0000000E+00
   1.940000      0.0000000E+00
   1.950000      0.0000000E+00
   1.960000      0.0000000E+00
   1.970000      0.0000000E+00
   1.980000      0.0000000E+00
   1.990000      0.0000000E+00
   2.000000      0.0000000E+00
   2.010000      0.0000000E+00
   2.020000      0.0000000E+00
   2.030000      0.0000000E+00
   2.040000      0.0000000E+00
   2.050000      0.0000000E+00
   2.060000      0.0000000E+00
   2.070000      0.0000000E+00
   2.080000      0.0000000E+00
   2.090000      0.0000000E+00
   2.100000      0.0000000E+00
   2.110000      0.0000000E+00
   2.120000      0.0000000E+00
   2.130000      0.0000000E+00
   2.140000      0.0000000E+00
   2.150000      0.0000000E+00
   2.160000      0.0000000E+00
   2.170000      0.0000000E+00
   2.180000      0.0000000E+00
   2.190000      0.0000000E+00
   2.200000      0.0000000E+00
   2.210000      0.0000000E+00
   2.220000      0.0000000E+00
   2.230000      0.0000000E+00
   2.240000      0.0000000E+00
   2.250000      0.0000000E+00
   2.260000      0.0000000E+00
   2.270000      0.0000000E+00
   2.280000      0.0000000E+00
   2.290000      0.0000000E+00
   2.300000      0.0000000E+00
   2.310000      0.0000000E+00
   2.320000      0.0000000E+00
   2.330000      0.0000000E+00
   2.340000      0.0000000E+00
   2.350000      0.0000000E+00
   2.360000      0.0000000E+00
   2.370000      0.0000000E+00
   2.380000      0.0000000E+00
   2.390000      0.0000000E+00
   2.400000      0.0000000E+00
   2.410000      0.0000000E+00
   2.420000      0.0000000E+00
   2.430000      0.0000000E+00
   2.440000      0.0000000E+00
   2.450000      0.0000000E+00
   2.460000      0.0000000E+00
   2.470000      0.0000000E+00
   2.480000      0.0000000E+00
   2.490000      0.0000000E+00
   2.500000      0.0000000E+00
   2.510000      0.0000000E+00
   2.520000      0.0000000E+00
   2.530000      0.0000000E+00
   2.540000      0.0000000E+00
   2.550000      0.0000000E+00
   2.560000      0.0000000E+00
   2.570000      0.0000000E+00
   2.580000      0.0000000E+00
   2.590000      0.0000000E+00
   2.600000      0.0000000E+00
   2.610000      0.0000000E+00
   2.620000      0.0000000E+00
   2.630000      0.0000000E+00
   2.640000      0.0000000E+00
   2.650000      0.0000000E+00
   2.660000      0.0000000E+00
   2.670000      0.0000000E+00
   2.680000      0.0000000E+00
   2.690000      0.0000000E+00
   2.700000      0.0000000E+00
   2.710000      0.0000000E+00
   2.720000      0.0000000E+00
   2.730000      0.0000000E+00
   2.740000      0.0000000E+00
   2.750000      0.0000000E+00
   2.760000      0.0000000E+00
   2.770000      0.0000000E+00
   2.780000      0.0000000E+00
   2.790000      0.0000000E+00
   2.800000      0.0000000E+00
   2.810000      0.0000000E+00
   2.820000      0.0000000E+00
   2.830000      0.0000000E+00
   2.840000      0.0000000E+00
   2.850000      0.0000000E+00
   2.860000      0.0000000E+00
   2.870000      0.0000000E+00
   2.880000      0.0000000E+00
   2.890000      0.0000000E+00
   2.900000      0.0000000E+00
   2.910000      0.0000000E+00
   2.920000      0.0000000E+00
   2.930000      0.0000000E+00
   2.940000      0.0000000E+00
   2.950000      0.0000000E+00
   2.960000      0.0000000E+00
   2.970000      0.0000000E+00
   2.980000      0.0000000E+00
   2.990000      0.0000000E+00
   3.000000      0.0000000E+00
   3.010000      0.0000000E+00
   3.020000      0.0000000E+00
   3.030000      0.0000000E+00
   3.040000      0.0000000E+00
   3.050000      0.0000000E+00
   3.060000      0.0000000E+00
   3.070000      0.0000000E+00
   3.080000      0.0000000E+00
   3.090000      0.0000000E+00
   3.100000      0.0000000E+00
   3.110000      0.0000000E+00
   3.120000      0.0000000E+00
   3.130000      0.0000000E+00
   3.140000      0.0000000E+00
   3.150000      0.0000000E+00
   3.160000      0.0000000E+00
   3.170000      0.0000000E+00
   3.180000      0.0000000E+00
   3.190000      0.0000000E+00
   3.200000      0.0000000E+00
   3.210000      0.0000000E+00
   3.220000      0.0000000E+00
   3.230000      0.0000000E+00
   3.240000      0.0000000E+00
   3.250000      0.0000000E+00
   3.260000      0.0000000E+00
   3.270000      0.0000000E+00
   3.280000      0.0000000E+00
   3.290000      0.0000000E+00
   3.300000      0.0000000E+00
   3.310000      0.0000000E+00
   3.320000      0.0000000E+00
   3.330000      0.0000000E+00
   3.340000      0.0000000E+00
   3.350000      0.0000000E+00
   3.360000      0.0000000E+00
   3.370000      0.0000000E+00
   3.380000      0.0000000E+00
   3.390000      0.0000000E+00
   3.400000      0.0000000E+00
   3.410000      0.0000000E+00
   3.420000      0.0000000E+00
   3.430000      0.0000000E+00
   3.440000      0.0000000E+00
   3.450000      0.0000000E+00
   3.460000      0.0000000E+00
   3.470000      0.0000000E+00
   3.480000      0.0000000E+00
   3.490000      0.0000000E+00
   3.500000      0.0000000E+00
   3.510000      0.0000000E+00
   3.520000      0.0000000E+00
   3.530000      0.0000000E+00
   3.540000      0.0000000E+00
   3.550000      0.0000000E+00
   3.560000      0.0000000E+00
   3.570000     -1.2227205E-38
   3.580000     -1.5881910E-38
   3.590000     -1.9812040E-38
   3.600000     -2.3988461E-38
   3.610000     -2.8386294E-38
   3.620000     -3.2957113E-38
   3.630000     -3.7619870E-38
   3.640000     -4.2311997E-38
   3.650000     -4.6983385E-38
   3.660000     -5.1578338E-38
   3.670000     -5.6046098E-38
   3.680000     -6.0340568E-38
   3.690000     -6.3240695E-38
   3.700000     -6.4432639E-38
   3.710000     -6.4822968E-38
   3.720000     -6.4471349E-38
   3.730000     -6.3446137E-38
   3.740000     -6.1810098E-38
   3.750000     -5.9630530E-38
   3.760000     -5.6976695E-38
   3.770000     -5.3930345E-38
   3.780000     -5.0561158E-38
   3.790000     -4.6945231E-38
   3.800000     -4.2311728E-38
   3.810000     -3.6985505E-38
   3.820000     -3.2188902E-38
   3.830000     -2.8056767E-38
   3.840000     -2.4669436E-38
   3.850000     -2.3166743E-38
   3.860000     -2.3166743E-38
   3.870000     -2.3166743E-38
   3.880000     -2.1127569E-38
   3.890000     -1.6358446E-38
   3.900000      0.0000000E+00
   3.910000      0.0000000E+00
   3.920000      0.0000000E+00
   3.930000      0.0000000E+00
   3.940000      0.0000000E+00
   3.950000      0.0000000E+00
   3.960000      0.0000000E+00
   3.970000      0.0000000E+00
   3.980000      0.0000000E+00
   3.990000      1.5875975E-38
   4.000000      2.0378272E-38
   4.010000      2.4994154E-38
   4.020000      2.9828039E-38
   4.030000      3.5008096E-38
   4.040000      4.0726475E-38
   4.050000      4.7218377E-38
   4.060000      5.4707903E-38
   4.070000      6.3409658E-38
   4.080000      7.0795482E-38
   4.090000      7.6957372E-38
   4.100000      8.6185702E-38
   4.110000      9.9045816E-38
   4.120000      1.1567705E-37
   4.130000      1.3579205E-37
   4.140000      1.5795802E-37
   4.150000      1.8212983E-37
   4.160000      2.1084578E-37
   4.170000      2.4389429E-37
   4.180000      2.7841471E-37
   4.190000      3.1712357E-37
   4.200000      3.9104370E-37
   4.210000      4.9772561E-37
   4.220000      6.0720410E-37
   4.230000      7.1612715E-37
   4.240000      8.2296945E-37
   4.250000      9.2974947E-37
   4.260000      1.0335045E-36
   4.270000      1.0791473E-36
   4.280000      1.0644679E-36
   4.290000      1.0400880E-36
   4.300000      1.0037674E-36
   4.310000      9.3283008E-37
   4.320000      9.6401272E-37
   4.330000      1.2590968E-36
   4.340000      1.7174438E-36
   4.350000      2.2432133E-36
   4.360000      2.8524824E-36
   4.370000      3.5532420E-36
   4.380000      4.3455344E-36
   4.390000      4.6215654E-36
   4.400000      4.2778248E-36
   4.410000      3.8511732E-36
   4.420000      3.4020757E-36
   4.430000      2.9814849E-36
   4.440000      2.5400245E-36
   4.450000      2.0992658E-36
   4.460000      1.8138102E-36
   4.470000      1.7477985E-36
   4.480000      2.3092147E-36
   4.490000      3.4190280E-36
   4.500000      4.5333057E-36
   4.510000      4.7375353E-36
   4.520000      3.9018434E-36
   4.530000      2.8106542E-36
   4.540000      1.5050640E-36
   4.550000     -2.3415936E-38
   4.560000     -1.3984583E-36
   4.570000     -2.5260629E-36
   4.580000     -3.6987320E-36
   4.590000     -4.8748868E-36
   4.600000     -6.0641152E-36
   4.610000     -7.1758190E-36
   4.620000     -8.1269722E-36
   4.630000     -9.0443593E-36
   4.640000     -9.8996096E-36
   4.650000     -1.0098371E-35
   4.660000     -9.8105206E-36
   4.670000     -9.0142695E-36
   4.680000     -7.8168423E-36
   4.690000     -7.6115160E-36
   4.700000     -8.5763419E-36
   4.710000     -1.0208398E-35
   4.720000     -1.2204470E-35
   4.730000     -1.4403732E-35
   4.740000     -1.6462124E-35
   4.750000     -1.8310863E-35
   4.760000     -1.9758730E-35
   4.770000     -2.0167107E-35
   4.780000     -1.9847931E-35
   4.790000     -1.9213612E-35
   4.800000     -1.8234423E-35
   4.810000     -1.6918648E-35
   4.820000     -1.5199719E-35
   4.830000     -1.4672635E-35
   4.840000     -1.5372794E-35
   4.850000     -1.5605043E-35
   4.860000     -1.4052729E-35
   4.870000     -9.8018055E-36
   4.880000     -4.3888589E-36
   4.890000     -2.8573718E-37
   4.900000      2.5737292E-36
   4.910000      6.7437560E-36
   4.920000      1.2254217E-35
   4.930000      1.9033095E-35
   4.940000      2.7838266E-35
   4.950000      3.7505120E-35
   4.960000      4.6210589E-35
   4.970000      5.3669559E-35
   4.980000      6.2062532E-35
   4.990000      6.7728093E-35
   5.000000      7.0020818E-35
   5.010000      7.1985902E-35
   5.020000      7.3087670E-35
   5.030000      7.4801682E-35
   5.040000      7.6952268E-35
   5.050000      7.8717725E-35
   5.060000      8.1447599E-35
   5.070000      8.5498365E-35
   5.080000      8.9280076E-35
   5.090000      9.5758261E-35
   5.100000      1.0654499E-34
   5.110000      1.1919893E-34
   5.120000      1.2978976E-34
   5.130000      1.3756468E-34
   5.140000      1.4456745E-34
   5.150000      1.5214236E-34
   5.160000      1.5971265E-34
   5.170000      1.6517357E-34
   5.180000      1.7165801E-34
   5.190000      1.7972455E-34
   5.200000      1.8702464E-34
   5.210000      1.9311616E-34
   5.220000      1.9394826E-34
   5.230000      1.9067324E-34
   5.240000      1.8690982E-34
   5.250000      1.8228979E-34
   5.260000      1.7662209E-34
   5.270000      1.7040424E-34
   5.280000      1.6718215E-34
   5.290000      1.6572367E-34
   5.300000      1.6226596E-34
   5.310000      1.5589972E-34
   5.320000      1.4663852E-34
   5.330000      1.3221958E-34
   5.340000      1.1040531E-34
   5.350000      7.9375629E-35
   5.360000      3.9486061E-35
   5.370000     -7.7551209E-36
   5.380000     -6.1317080E-35
   5.390000     -1.1606125E-34
   5.400000     -1.7023940E-34
   5.410000     -2.2592338E-34
   5.420000     -2.7924945E-34
   5.430000     -3.3274106E-34
   5.440000     -3.8890363E-34
   5.450000     -4.4454758E-34
   5.460000     -5.0034476E-34
   5.470000     -5.5296545E-34
   5.480000     -6.0515547E-34
   5.490000     -6.6239814E-34
   5.500000     -7.2320416E-34
   5.510000     -7.8181046E-34
   5.520000     -8.3567280E-34
   5.530000     -8.9059465E-34
   5.540000     -9.4950914E-34
   5.550000     -1.0123625E-33
   5.560000     -1.0857653E-33
   5.570000     -1.1722162E-33
   5.580000     -1.2732257E-33
   5.590000     -1.3883661E-33
   5.600000     -1.5099590E-33
   5.610000     -1.6330779E-33
   5.620000     -1.7492498E-33
   5.630000     -1.8550159E-33
   5.640000     -1.9522641E-33
   5.650000     -2.0400073E-33
   5.660000     -2.1224805E-33
   5.670000     -2.1997783E-33
   5.680000     -2.2708863E-33
   5.690000     -2.3434283E-33
   5.700000     -2.4187240E-33
   5.710000     -2.4917834E-33
   5.720000     -2.5612997E-33
   5.730000     -2.6267992E-33
   5.740000     -2.6893779E-33
   5.750000     -2.7486994E-33
   5.760000     -2.8016473E-33
   5.770000     -2.8394331E-33
   5.780000     -2.8556839E-33
   5.790000     -2.8514892E-33
   5.800000     -2.8220350E-33
   5.810000     -2.7683869E-33
   5.820000     -2.6984367E-33
   5.830000     -2.6128877E-33
   5.840000     -2.4967845E-33
   5.850000     -2.3463099E-33
   5.860000     -2.1682298E-33
   5.870000     -1.9651701E-33
   5.880000     -1.7381414E-33
   5.890000     -1.4858704E-33
   5.900000     -1.2082202E-33
   5.910000     -9.0396856E-34
   5.920000     -5.7400960E-34
   5.930000     -2.1728228E-34
   5.940000      1.7140559E-34
   5.950000      5.9662877E-34
   5.960000      1.0573176E-33
   5.970000      1.5593113E-33
   5.980000      2.1055998E-33
   5.990000      2.6940426E-33
   6.000000      3.3282473E-33
   6.010000      4.0121092E-33
   6.020000      4.7503203E-33
   6.030000      5.5341730E-33
   6.040000      6.3627555E-33
   6.050000      7.2444791E-33
   6.060000      8.1698782E-33
   6.070000      9.1339011E-33
   6.080000      1.0137651E-32
   6.090000      1.1177602E-32
   6.100000      1.2251502E-32
   6.110000      1.3359630E-32
   6.120000      1.4503063E-32
   6.130000      1.5682014E-32
   6.140000      1.6896012E-32
   6.150000      1.8145163E-32
   6.160000      1.9428684E-32
   6.170000      2.0745011E-32
   6.180000      2.2091906E-32
   6.190000      2.3464422E-32
   6.200000      2.4857006E-32
   6.210000      2.6261613E-32
   6.220000      2.7667899E-32
   6.230000      2.9066484E-32
   6.240000      3.0444801E-32
   6.250000      3.1792635E-32
   6.260000      3.3098297E-32
   6.270000      3.4353855E-32
   6.280000      3.5555380E-32
   6.290000      3.6693212E-32
   6.300000      3.7756244E-32
   6.310000      3.8738992E-32
   6.320000      3.9634131E-32
   6.330000      4.0429994E-32
   6.340000      4.1118272E-32
   6.350000      4.1686847E-32
   6.360000      4.2121004E-32
   6.370000      4.2407516E-32
   6.380000      4.2522071E-32
   6.390000      4.2444588E-32
   6.400000      4.2162696E-32
   6.410000      4.1656555E-32
   6.420000      4.0906854E-32
   6.430000      3.9893821E-32
   6.440000      3.8598115E-32
   6.450000      3.7003328E-32
   6.460000      3.5093937E-32
   6.470000      3.2850797E-32
   6.480000      3.0263496E-32
   6.490000      2.7320693E-32
   6.500000      2.4003653E-32
   6.510000      2.0297270E-32
   6.520000      1.6184953E-32
   6.530000      1.1649043E-32
   6.540000      6.6712669E-33
   6.550000      1.2326895E-33
   6.560000     -4.6857762E-33
   6.570000     -1.1102773E-32
   6.580000     -1.8036098E-32
   6.590000     -2.5501836E-32
   6.600000     -3.3513670E-32
   6.610000     -4.2082698E-32
   6.620000     -5.1217029E-32
   6.630000     -6.0921793E-32
   6.640000     -7.1199152E-32
   6.650000     -8.2048677E-32
   6.660000     -9.3467623E-32
   6.670000     -1.0545091E-31
   6.680000     -1.1799164E-31
   6.690000     -1.3108175E-31
   6.700000     -1.4471143E-31
   6.710000     -1.5886911E-31
   6.720000     -1.7354159E-31
   6.730000     -1.8871275E-31
   6.740000     -2.0436263E-31
   6.750000     -2.2046761E-31
   6.760000     -2.3699913E-31
   6.770000     -2.5392331E-31
   6.780000     -2.7120032E-31
   6.790000     -2.8878377E-31
   6.800000     -3.0662004E-31
   6.810000     -3.2464968E-31
   6.820000     -3.4280751E-31
   6.830000     -3.6102286E-31
   6.840000     -3.7921873E-31
   6.850000     -3.9731276E-31
   6.860000     -4.1521902E-31
   6.870000     -4.3284660E-31
   6.880000     -4.5009951E-31
   6.890000     -4.6687753E-31
   6.900000     -4.8307495E-31
   6.910000     -4.9858043E-31
   6.920000     -5.1327636E-31
   6.930000     -5.2703679E-31
   6.940000     -5.3972870E-31
   6.950000     -5.5121149E-31
   6.960000     -5.6133650E-31
   6.970000     -5.6994723E-31
   6.980000     -5.7687982E-31
   6.990000     -5.8196398E-31
   7.000000     -5.8502308E-31
   7.010000     -5.8587565E-31
   7.020000     -5.8433594E-31
   7.030000     -5.8021512E-31
   7.040000     -5.7332146E-31
   7.050000     -5.6346109E-31
   7.060000     -5.5043811E-31