  -2.600000      0.0000000E+00
  -2.590000      0.0000000E+00
  -2.580000      0.0000000E+00
  -2.570000      0.0000000E+00
  -2.560000      0.0000000E+00
  -2.550000      0.0000000E+00
  -2.540000      0.0000000E+00
  -2.530000      0.0000000E+00
  -2.520000      0.0000000E+00
  -2.510000      0.0000000E+00
  -2.500000      0.0000000E+00
  -2.490000      0.0000000E+00
  -2.480000      0.0000000E+00
  -2.470000      0.0000000E+00
  -2.460000      0.0000000E+00
  -2.450000      0.0000000E+00
  -2.440000      0.0000000E+00
  -2.430000      0.0000000E+00
  -2.420000      0.0000000E+00
  -2.410000      0.0000000E+00
  -2.400000      0.0000000E+00
  -2.390000      0.0000000E+00
  -2.380000      0.0000000E+00
  -2.370000      0.0000000E+00
  -2.360000      0.0000000E+00
  -2.350000      0.0000000E+00
  -2.340000      0.0000000E+00
  -2.330000      0.0000000E+00
  -2.320000      0.0000000E+00
  -2.310000      0.0000000E+00
  -2.300000      0.0000000E+00
  -2.290000      0.0000000E+00
  -2.280000      0.0000000E+00
  -2.270000      0.0000000E+00
  -2.260000      0.0000000E+00
  -2.250000      0.0000000E+00
  -2.240000      0.0000000E+00
  -2.230000      0.0000000E+00
  -2.220000      0.0000000E+00
  -2.210000      0.0000000E+00
  -2.200000      0.0000000E+00
  -2.190000      0.0000000E+00
  -2.180000      0.0000000E+00
  -2.170000      0.0000000E+00
  -2.160000      0.0000000E+00
  -2.150000      0.0000000E+00
  -2.140000      0.0000000E+00
  -2.130000      0.0000000E+00
  -2.120000      0.0000000E+00
  -2.110000      0.0000000E+00
  -2.100000      0.0000000E+00
  -2.090000      0.0000000E+00
  -2.080000      0.0000000E+00
  -2.070000      0.0000000E+00
  -2.060000      0.0000000E+00
  -2.050000      0.0000000E+00
  -2.040000      0.0000000E+00
  -2.030000      0.0000000E+00
  -2.020000      0.0000000E+00
  -2.010000      0.0000000E+00
  -2.000000      0.0000000E+00
  -1.990000      0.0000000E+00
  -1.980000      0.0000000E+00
  -1.970000      0.0000000E+00
  -1.960000      0.0000000E+00
  -1.950000      0.0000000E+00
  -1.940000      0.0000000E+00
  -1.930000      0.0000000E+00
  -1.920000      0.0000000E+00
  -1.910000      0.0000000E+00
  -1.900000      0.0000000E+00
  -1.890000      0.0000000E+00
  -1.880000      0.0000000E+00
  -1.870000      0.0000000E+00
  -1.860000      0.0000000E+00
  -1.850000      0.0000000E+00
  -1.840000      0.0000000E+00
  -1.830000      0.0000000E+00
  -1.820000      0.0000000E+00
  -1.810000      0.0000000E+00
  -1.800000      0.0000000E+00
  -1.790000      0.0000000E+00
  -1.780000      0.0000000E+00
  -1.770000      0.0000000E+00
  -1.760000      0.0000000E+00
  -1.750000      0.0000000E+00
  -1.740000      0.0000000E+00
  -1.730000      0.0000000E+00
  -1.720000      0.0000000E+00
  -1.710000      0.0000000E+00
  -1.700000      0.0000000E+00
  -1.690000      0.0000000E+00
  -1.680000      0.0000000E+00
  -1.670000      0.0000000E+00
  -1.660000      0.0000000E+00
  -1.650000      0.0000000E+00
  -1.640000      0.0000000E+00
  -1.630000      0.0000000E+00
  -1.620000      0.0000000E+00
  -1.610000      0.0000000E+00
  -1.600000      0.0000000E+00
  -1.590000      0.0000000E+00
  -1.580000      0.0000000E+00
  -1.570000      0.0000000E+00
  -1.560000      0.0000000E+00
  -1.550000      0.0000000E+00
  -1.540000      0.0000000E+00
  -1.530000      0.0000000E+00
  -1.520000      0.0000000E+00
  -1.510000      0.0000000E+00
  -1.500000      0.0000000E+00
  -1.490000      0.0000000E+00
  -1.480000      0.0000000E+00
  -1.470000      0.0000000E+00
  -1.460000      0.0000000E+00
  -1.450000      0.0000000E+00
  -1.440000      0.0000000E+00
  -1.430000      0.0000000E+00
  -1.420000      0.0000000E+00
  -1.410000      0.0000000E+00
  -1.400000      0.0000000E+00
  -1.390000      0.0000000E+00
  -1.380000      0.0000000E+00
  -1.370000      0.0000000E+00
  -1.360000      0.0000000E+00
  -1.350000      0.0000000E+00
  -1.340000      0.0000000E+00
  -1.330000      0.0000000E+00
  -1.320000      0.0000000E+00
  -1.310000      0.0000000E+00
  -1.300000      0.0000000E+00
  -1.290000      0.0000000E+00
  -1.280000      0.0000000E+00
  -1.270000      0.0000000E+00
  -1.260000      0.0000000E+00
  -1.250000      0.0000000E+00
  -1.240000      0.0000000E+00
  -1.230000      0.0000000E+00
  -1.220000      0.0000000E+00
  -1.210000      0.0000000E+00
  -1.200000      0.0000000E+00
  -1.190000      0.0000000E+00
  -1.180000      0.0000000E+00
  -1.170000      0.0000000E+00
  -1.160000      0.0000000E+00
  -1.150000      0.0000000E+00
  -1.140000      0.0000000E+00
  -1.130000      0.0000000E+00
  -1.120000      0.0000000E+00
  -1.110000      0.0000000E+00
  -1.100000      0.0000000E+00
  -1.090000      0.0000000E+00
  -1.080000      0.0000000E+00
  -1.070000      0.0000000E+00
  -1.060000      0.0000000E+00
  -1.050000      0.0000000E+00
  -1.040000      0.0000000E+00
  -1.030000      0.0000000E+00
  -1.020000      0.0000000E+00
  -1.010000      0.0000000E+00
  -1.000000      0.0000000E+00
 -0.9900000      0.0000000E+00
 -0.9800000      0.0000000E+00
 -0.9700000      0.0000000E+00
 -0.9600000      0.0000000E+00
 -0.9500000      0.0000000E+00
 -0.9400000      0.0000000E+00
 -0.9300000      0.0000000E+00
 -0.9200000      0.0000000E+00
 -0.9100000      0.0000000E+00
 -0.9000000      0.0000000E+00
 -0.8900000      0.0000000E+00
 -0.8800000      0.0000000E+00
 -0.8700000      0.0000000E+00
 -0.8600000      0.0000000E+00
 -0.8500000      0.0000000E+00
 -0.8400000      0.0000000E+00
 -0.8300000      0.0000000E+00
 -0.8200000      0.0000000E+00
 -0.8100000      0.0000000E+00
 -0.8000000      0.0000000E+00
 -0.7900000      0.0000000E+00
 -0.7800000      0.0000000E+00
 -0.7700000      0.0000000E+00
 -0.7600000      0.0000000E+00
 -0.7500000      0.0000000E+00
 -0.7400000      0.0000000E+00
 -0.7300000      0.0000000E+00
 -0.7200000      0.0000000E+00
 -0.7100000      0.0000000E+00
 -0.7000000      0.0000000E+00
 -0.6900000      0.0000000E+00
 -0.6800000      0.0000000E+00
 -0.6700000      0.0000000E+00
 -0.6600000      0.0000000E+00
 -0.6500000      0.0000000E+00
 -0.6400000      0.0000000E+00
 -0.6300000      0.0000000E+00
 -0.6200000      0.0000000E+00
 -0.6100000      0.0000000E+00
 -0.6000000      0.0000000E+00
 -0.5900000      0.0000000E+00
 -0.5800000      0.0000000E+00
 -0.5700000      0.0000000E+00
 -0.5600000      0.0000000E+00
 -0.5500000      0.0000000E+00
 -0.5400000      0.0000000E+00
 -0.5300000      0.0000000E+00
 -0.5200000      0.0000000E+00
 -0.5100000      0.0000000E+00
 -0.5000000      0.0000000E+00
 -0.4900000      0.0000000E+00
 -0.4800000      0.0000000E+00
 -0.4700000      0.0000000E+00
 -0.4600000      0.0000000E+00
 -0.4500000      0.0000000E+00
 -0.4400000      0.0000000E+00
 -0.4300000      0.0000000E+00
 -0.4200000      0.0000000E+00
 -0.4100000      0.0000000E+00
 -0.4000000      0.0000000E+00
 -0.3900000      0.0000000E+00
 -0.3800000      0.0000000E+00
 -0.3700000      0.0000000E+00
 -0.3600000      0.0000000E+00
 -0.3500000      0.0000000E+00
 -0.3400000      0.0000000E+00
 -0.3300000      0.0000000E+00
 -0.3200000      0.0000000E+00
 -0.3100000      0.0000000E+00
 -0.3000000      0.0000000E+00
 -0.2900000      0.0000000E+00
 -0.2800000      0.0000000E+00
 -0.2700000      0.0000000E+00
 -0.2600000      0.0000000E+00
 -0.2500000      0.0000000E+00
 -0.2400000      0.0000000E+00
 -0.2300000      0.0000000E+00
 -0.2200000      0.0000000E+00
 -0.2100000      0.0000000E+00
 -0.2000000      0.0000000E+00
 -0.1900000      0.0000000E+00
 -0.1800000      0.0000000E+00
 -0.1700000      0.0000000E+00
 -0.1600000      0.0000000E+00
 -0.1500000      0.0000000E+00
 -0.1400000      0.0000000E+00
 -0.1300000      0.0000000E+00
 -0.1200000      0.0000000E+00
 -0.1100000      0.0000000E+00
 -0.1000000      0.0000000E+00
 -9.0000004E-02  0.0000000E+00
 -7.9999998E-02  0.0000000E+00
 -7.0000000E-02  0.0000000E+00
 -5.9999999E-02  0.0000000E+00
 -5.0000001E-02  0.0000000E+00
 -3.9999999E-02  0.0000000E+00
 -2.9999999E-02  0.0000000E+00
 -2.0000000E-02  0.0000000E+00
 -9.9999998E-03  0.0000000E+00
 -3.4694470E-17  0.0000000E+00
  9.9999998E-03  0.0000000E+00
  2.0000000E-02  0.0000000E+00
  2.9999999E-02  0.0000000E+00
  3.9999999E-02  0.0000000E+00
  5.0000001E-02  0.0000000E+00
  5.9999999E-02  0.0000000E+00
  7.0000000E-02  0.0000000E+00
  7.9999998E-02  0.0000000E+00
  9.0000004E-02  0.0000000E+00
  0.1000000      0.0000000E+00
  0.1100000      0.0000000E+00
  0.1200000      0.0000000E+00
  0.1300000      0.0000000E+00
  0.1400000      0.0000000E+00
  0.1500000      0.0000000E+00
  0.1600000      0.0000000E+00
  0.1700000      0.0000000E+00
  0.1800000      0.0000000E+00
  0.1900000      0.0000000E+00
  0.2000000      0.0000000E+00
  0.2100000      0.0000000E+00
  0.2200000      0.0000000E+00
  0.2300000      0.0000000E+00
  0.2400000      0.0000000E+00
  0.2500000      0.0000000E+00
  0.2600000      0.0000000E+00
  0.2700000      0.0000000E+00
  0.2800000      0.0000000E+00
  0.2900000      0.0000000E+00
  0.3000000      0.0000000E+00
  0.3100000      0.0000000E+00
  0.3200000      0.0000000E+00
  0.3300000      0.0000000E+00
  0.3400000      0.0000000E+00
  0.3500000      0.0000000E+00
  0.3600000      0.0000000E+00
  0.3700000      0.0000000E+00
  0.3800000      0.0000000E+00
  0.3900000      0.0000000E+00
  0.4000000      0.0000000E+00
  0.4100000      0.0000000E+00
  0.4200000      0.0000000E+00
  0.4300000      0.0000000E+00
  0.4400000      0.0000000E+00
  0.4500000      0.0000000E+00
  0.4600000      0.0000000E+00
  0.4700000      0.0000000E+00
  0.4800000      0.0000000E+00
  0.4900000      0.0000000E+00
  0.5000000      0.0000000E+00
  0.5100000      0.0000000E+00
  0.5200000      0.0000000E+00
  0.5300000      0.0000000E+00
  0.5400000      0.0000000E+00
  0.5500000      0.0000000E+00
  0.5600000      0.0000000E+00
  0.5700000      0.0000000E+00
  0.5800000      0.0000000E+00
  0.5900000      0.0000000E+00
  0.6000000      0.0000000E+00
  0.6100000      0.0000000E+00
  0.6200000      0.0000000E+00
  0.6300000      0.0000000E+00
  0.6400000      0.0000000E+00
  0.6500000      0.0000000E+00
  0.6600000      0.0000000E+00
  0.6700000      0.0000000E+00
  0.6800000      0.0000000E+00
  0.6900000      0.0000000E+00
  0.7000000      0.0000000E+00
  0.7100000      0.0000000E+00
  0.7200000      0.0000000E+00
  0.7300000      0.0000000E+00
  0.7400000      0.0000000E+00
  0.7500000      0.0000000E+00
  0.7600000      0.0000000E+00
  0.7700000      0.0000000E+00
  0.7800000      0.0000000E+00
  0.7900000      0.0000000E+00
  0.8000000      0.0000000E+00
  0.8100000      0.0000000E+00
  0.8200000      0.0000000E+00
  0.8300000      0.0000000E+00
  0.8400000      0.0000000E+00
  0.8500000      0.0000000E+00
  0.8600000      0.0000000E+00
  0.8700000      0.0000000E+00
  0.8800000      0.0000000E+00
  0.8900000      0.0000000E+00
  0.9000000      0.0000000E+00
  0.9100000      0.0000000E+00
  0.9200000      0.0000000E+00
  0.9300000      0.0000000E+00
  0.9400000      0.0000000E+00
  0.9500000      0.0000000E+00
  0.9600000      0.0000000E+00
  0.9700000      0.0000000E+00
  0.9800000      0.0000000E+00
  0.9900000      0.0000000E+00
   1.000000      0.0000000E+00
   1.010000      0.0000000E+00
   1.020000      0.0000000E+00
   1.030000      0.0000000E+00
   1.040000      0.0000000E+00
   1.050000      0.0000000E+00
   1.060000      0.0000000E+00
   1.070000      0.0000000E+00
   1.080000      0.0000000E+00
   1.090000      0.0000000E+00
   1.100000      0.0000000E+00
   1.110000      0.0000000E+00
   1.120000      0.0000000E+00
   1.130000      0.0000000E+00
   1.140000      0.0000000E+00
   1.150000      0.0000000E+00
   1.160000      0.0000000E+00
   1.170000      0.0000000E+00
   1.180000      0.0000000E+00
   1.190000      0.0000000E+00
   1.200000      0.0000000E+00
   1.210000      0.0000000E+00
   1.220000      0.0000000E+00
   1.230000      0.0000000E+00
   1.240000      0.0000000E+00
   1.250000      0.0000000E+00
   1.260000      0.0000000E+00
   1.270000      0.0000000E+00
   1.280000      0.0000000E+00
   1.290000      0.0000000E+00
   1.300000      0.0000000E+00
   1.310000      0.0000000E+00
   1.320000      0.0000000E+00
   1.330000      0.0000000E+00
   1.340000      0.0000000E+00
   1.350000      0.0000000E+00
   1.360000      0.0000000E+00
   1.370000      0.0000000E+00
   1.380000      0.0000000E+00
   1.390000      0.0000000E+00
   1.400000      0.0000000E+00
   1.410000      0.0000000E+00
   1.420000      0.0000000E+00
   1.430000      0.0000000E+00
   1.440000      0.0000000E+00
   1.450000      0.0000000E+00
   1.460000      0.0000000E+00
   1.470000      0.0000000E+00
   1.480000      0.0000000E+00
   1.490000      0.0000000E+00
   1.500000      0.0000000E+00
   1.510000      0.0000000E+00
   1.520000      0.0000000E+00
   1.530000      0.0000000E+00
   1.540000      0.0000000E+00
   1.550000      0.0000000E+00
   1.560000      0.0000000E+00
   1.570000      0.0000000E+00
   1.580000      0.0000000E+00
   1.590000      0.0000000E+00
   1.600000      0.0000000E+00
   1.610000      0.0000000E+00
   1.620000      0.0000000E+00
   1.630000      0.0000000E+00
   1.640000      0.0000000E+00
   1.650000      0.0000000E+00
   1.660000      0.0000000E+00
   1.670000      0.0000000E+00
   1.680000      0.0000000E+00
   1.690000      0.0000000E+00
   1.700000      0.0000000E+00
   1.710000      0.0000000E+00
   1.720000      0.0000000E+00
   1.730000      0.0000000E+00
   1.740000      0.0000000E+00
   1.750000      0.0000000E+00
   1.760000      0.0000000E+00
   1.770000      0.0000000E+00
   1.780000      0.0000000E+00
   1.790000      0.0000000E+00
   1.800000      0.0000000E+00
   1.810000      0.0000000E+00
   1.820000      0.0000000E+00
   1.830000      0.0000000E+00
   1.840000      0.0000000E+00
   1.850000      0.0000000E+00
   1.860000      0.0000000E+00
   1.870000      0.0000000E+00
   1.880000      0.0000000E+00
   1.890000      0.0000000E+00
   1.900000      0.0000000E+00
   1.910000      0.0000000E+00
   1.920000      0.0000000E+00
   1.930000      0.0000000E+00
   1.940000      0.0000000E+00
   1.950000      0.0000000E+00
   1.960000      0.0000000E+00
   1.970000      0.0000000E+00
   1.980000      0.0000000E+00
   1.990000      0.0000000E+00
   2.000000      0.0000000E+00
   2.010000      0.0000000E+00
   2.020000      0.0000000E+00
   2.030000      0.0000000E+00
   2.040000      0.0000000E+00
   2.050000      0.0000000E+00
   2.060000      0.0000000E+00
   2.070000      0.0000000E+00
   2.080000      0.0000000E+00
   2.090000      0.0000000E+00
   2.100000      0.0000000E+00
   2.110000      0.0000000E+00
   2.120000      0.0000000E+00
   2.130000      0.0000000E+00
   2.140000      0.0000000E+00
   2.150000      0.0000000E+00
   2.160000      0.0000000E+00
   2.170000      0.0000000E+00
   2.180000      0.0000000E+00
   2.190000      0.0000000E+00
   2.200000      0.0000000E+00
   2.210000      0.0000000E+00
   2.220000      0.0000000E+00
   2.230000      0.0000000E+00
   2.240000      0.0000000E+00
   2.250000      0.0000000E+00
   2.260000      0.0000000E+00
   2.270000      0.0000000E+00
   2.280000      0.0000000E+00
   2.290000      0.0000000E+00
   2.300000      0.0000000E+00
   2.310000      0.0000000E+00
   2.320000      0.0000000E+00
   2.330000      0.0000000E+00
   2.340000      0.0000000E+00
   2.350000      0.0000000E+00
   2.360000      0.0000000E+00
   2.370000      0.0000000E+00
   2.380000      0.0000000E+00
   2.390000      0.0000000E+00
   2.400000      0.0000000E+00
   2.410000      0.0000000E+00
   2.420000      0.0000000E+00
   2.430000      0.0000000E+00
   2.440000      0.0000000E+00
   2.450000      0.0000000E+00
   2.460000      0.0000000E+00
   2.470000      0.0000000E+00
   2.480000      0.0000000E+00
   2.490000      0.0000000E+00
   2.500000      0.0000000E+00
   2.510000      0.0000000E+00
   2.520000      0.0000000E+00
   2.530000      0.0000000E+00
   2.540000      0.0000000E+00
   2.550000      0.0000000E+00
   2.560000      0.0000000E+00
   2.570000      0.0000000E+00
   2.580000      0.0000000E+00
   2.590000      0.0000000E+00
   2.600000      0.0000000E+00
   2.610000      0.0000000E+00
   2.620000      0.0000000E+00
   2.630000      0.0000000E+00
   2.640000      0.0000000E+00
   2.650000      0.0000000E+00
   2.660000      0.0000000E+00
   2.670000      0.0000000E+00
   2.680000      0.0000000E+00
   2.690000      0.0000000E+00
   2.700000      0.0000000E+00
   2.710000      0.0000000E+00
   2.720000      0.0000000E+00
   2.730000      0.0000000E+00
   2.740000      0.0000000E+00
   2.750000      0.0000000E+00
   2.760000      0.0000000E+00
   2.770000      0.0000000E+00
   2.780000      0.0000000E+00
   2.790000      0.0000000E+00
   2.800000      0.0000000E+00
   2.810000      0.0000000E+00
   2.820000      0.0000000E+00
   2.830000      0.0000000E+00
   2.840000      0.0000000E+00
   2.850000      0.0000000E+00
   2.860000      0.0000000E+00
   2.870000      0.0000000E+00
   2.880000      0.0000000E+00
   2.890000      0.0000000E+00
   2.900000      0.0000000E+00
   2.910000      0.0000000E+00
   2.920000      0.0000000E+00
   2.930000      0.0000000E+00
   2.940000      0.0000000E+00
   2.950000      0.0000000E+00
   2.960000      0.0000000E+00
   2.970000      0.0000000E+00
   2.980000      0.0000000E+00
   2.990000      0.0000000E+00
   3.000000      0.0000000E+00
   3.010000      0.0000000E+00
   3.020000      0.0000000E+00
   3.030000      0.0000000E+00
   3.040000      0.0000000E+00
   3.050000      0.0000000E+00
   3.060000      0.0000000E+00
   3.070000      0.0000000E+00
   3.080000      0.0000000E+00
   3.090000      0.0000000E+00
   3.100000      0.0000000E+00
   3.110000      0.0000000E+00
   3.120000      0.0000000E+00
   3.130000      0.0000000E+00
   3.140000      0.0000000E+00
   3.150000      0.0000000E+00
   3.160000      0.0000000E+00
   3.170000      0.0000000E+00
   3.180000      0.0000000E+00
   3.190000      0.0000000E+00
   3.200000      0.0000000E+00
   3.210000      0.0000000E+00
   3.220000      0.0000000E+00
   3.230000      0.0000000E+00
   3.240000      0.0000000E+00
   3.250000      0.0000000E+00
   3.260000      0.0000000E+00
   3.270000      0.0000000E+00
   3.280000      0.0000000E+00
   3.290000      0.0000000E+00
   3.300000      0.0000000E+00
   3.310000      0.0000000E+00
   3.320000      0.0000000E+00
   3.330000      0.0000000E+00
   3.340000      0.0000000E+00
   3.350000      0.0000000E+00
   3.360000      0.0000000E+00
   3.370000      0.0000000E+00
   3.380000      0.0000000E+00
   3.390000      0.0000000E+00
   3.400000      0.0000000E+00
   3.410000      0.0000000E+00
   3.420000      0.0000000E+00
   3.430000      0.0000000E+00
   3.440000      0.0000000E+00
   3.450000      0.0000000E+00
   3.460000      0.0000000E+00
   3.470000      0.0000000E+00
   3.480000     -1.4502270E-38
   3.490000     -1.7402892E-38
   3.500000     -2.0355441E-38
   3.510000     -2.1648293E-38
   3.520000     -2.0641726E-38
   3.530000     -1.8951275E-38
   3.540000     -1.7192316E-38
   3.550000     -1.5493742E-38
   3.560000     -1.3979328E-38
   3.570000     -1.4299758E-38
   3.580000     -1.6305055E-38
   3.590000     -1.8241739E-38
   3.600000     -2.0085373E-38
   3.610000     -2.1810490E-38
   3.620000     -2.3392685E-38
   3.630000     -2.6089257E-38
   3.640000     -2.9559332E-38
   3.650000     -3.2728811E-38
   3.660000     -3.6006227E-38
   3.670000     -3.8613584E-38
   3.680000     -4.0170973E-38
   3.690000     -3.9948444E-38
   3.700000     -3.8191134E-38
   3.710000     -3.6145925E-38
   3.720000     -3.3152426E-38
   3.730000     -2.8995214E-38
   3.740000     -2.4106955E-38
   3.750000     -1.8462341E-38
   3.760000     -1.2035724E-38
   3.770000      0.0000000E+00
   3.780000      0.0000000E+00
   3.790000      1.2214062E-38
   3.800000      2.2035054E-38
   3.810000      3.1416876E-38
   3.820000      3.9899365E-38
   3.830000      4.7787052E-38
   3.840000      5.5738821E-38
   3.850000      6.4644420E-38
   3.860000      7.4287035E-38
   3.870000      8.4935570E-38
   3.880000      9.6903309E-38
   3.890000      1.0944225E-37
   3.900000      1.2265144E-37
   3.910000      1.3825455E-37
   3.920000      1.5560046E-37
   3.930000      1.7327345E-37
   3.940000      1.9091337E-37
   3.950000      2.1003572E-37
   3.960000      2.3047905E-37
   3.970000      2.5102632E-37
   3.980000      2.6992667E-37
   3.990000      2.8457056E-37
   4.000000      2.9584336E-37
   4.010000      3.0472273E-37
   4.020000      3.1127296E-37
   4.030000      3.1567591E-37
   4.040000      3.1448788E-37
   4.050000      3.0774393E-37
   4.060000      2.9830144E-37
   4.070000      2.9074163E-37
   4.080000      2.8012490E-37
   4.090000      2.6026242E-37
   4.100000      2.3629858E-37
   4.110000      2.0774940E-37
   4.120000      1.7234336E-37
   4.130000      1.2940733E-37
   4.140000      7.7534573E-38
   4.150000      1.4555120E-38
   4.160000     -6.2340271E-38
   4.170000     -1.3250463E-37
   4.180000     -1.9170714E-37
   4.190000     -2.5876431E-37
   4.200000     -3.3875832E-37
   4.210000     -4.3279065E-37
   4.220000     -5.5073326E-37
   4.230000     -6.9147084E-37
   4.240000     -8.3797935E-37
   4.250000     -9.8675214E-37
   4.260000     -1.1385293E-36
   4.270000     -1.2918336E-36
   4.280000     -1.4342923E-36
   4.290000     -1.5603975E-36
   4.300000     -1.6773834E-36
   4.310000     -1.7980219E-36
   4.320000     -1.9244734E-36
   4.330000     -2.0640738E-36
   4.340000     -2.2112739E-36
   4.350000     -2.3706609E-36
   4.360000     -2.5480352E-36
   4.370000     -2.7240986E-36
   4.380000     -2.8984666E-36
   4.390000     -3.0607110E-36
   4.400000     -3.2540434E-36
   4.410000     -3.4871706E-36
   4.420000     -3.7304687E-36
   4.430000     -3.8966289E-36
   4.440000     -3.7051666E-36
   4.450000     -3.0635730E-36
   4.460000     -2.1738120E-36
   4.470000     -1.1519376E-36
   4.480000     -1.8528645E-37
   4.490000      7.4274836E-37
   4.500000      1.8209790E-36
   4.510000      3.0878656E-36
   4.520000      4.5595488E-36
   4.530000      6.0545076E-36
   4.540000      7.5604663E-36
   4.550000      8.9734910E-36
   4.560000      1.0217789E-35
   4.570000      1.1441216E-35
   4.580000      1.2643894E-35
   4.590000      1.3824274E-35
   4.600000      1.4959184E-35
   4.610000      1.5944489E-35
   4.620000      1.6805161E-35
   4.630000      1.7659092E-35
   4.640000      1.8500008E-35
   4.650000      1.9338232E-35
   4.660000      1.9872437E-35
   4.670000      2.0022705E-35
   4.680000      2.0213789E-35
   4.690000      2.0462771E-35
   4.700000      2.0611437E-35
   4.710000      2.0683713E-35
   4.720000      2.0612173E-35
   4.730000      2.0512280E-35
   4.740000      2.0675752E-35
   4.750000      2.1063740E-35
   4.760000      2.1694187E-35
   4.770000      2.2533041E-35
   4.780000      2.3603962E-35
   4.790000      2.4764782E-35
   4.800000      2.5596266E-35
   4.810000      2.6139760E-35
   4.820000      2.6646399E-35
   4.830000      2.6938218E-35
   4.840000      2.6714642E-35
   4.850000      2.6012416E-35
   4.860000      2.4563877E-35
   4.870000      2.2383020E-35
   4.880000      1.9587586E-35
   4.890000      1.6087379E-35
   4.900000      1.1939771E-35
   4.910000      6.9778368E-36
   4.920000      1.2828171E-36
   4.930000     -5.5303512E-36
   4.940000     -1.3539324E-35
   4.950000     -2.2160422E-35
   4.960000     -3.1581524E-35
   4.970000     -4.2412341E-35
   4.980000     -5.4477735E-35
   4.990000     -6.7102676E-35
   5.000000     -8.0240794E-35
   5.010000     -9.3592143E-35
   5.020000     -1.0689458E-34
   5.030000     -1.2056032E-34
   5.040000     -1.3272137E-34
   5.050000     -1.4266235E-34
   5.060000     -1.5193411E-34
   5.070000     -1.6093946E-34
   5.080000     -1.6935034E-34
   5.090000     -1.7622929E-34
   5.100000     -1.8183111E-34
   5.110000     -1.8704138E-34
   5.120000     -1.9217145E-34
   5.130000     -1.9682193E-34
   5.140000     -2.0046268E-34
   5.150000     -2.0203095E-34
   5.160000     -2.0219467E-34
   5.170000     -2.0240874E-34
   5.180000     -2.0209698E-34
   5.190000     -2.0240479E-34
   5.200000     -2.0426347E-34
   5.210000     -2.0786269E-34
   5.220000     -2.1134068E-34
   5.230000     -2.1402414E-34
   5.240000     -2.1624569E-34
   5.250000     -2.1656589E-34
   5.260000     -2.1525816E-34
   5.270000     -2.1212895E-34
   5.280000     -2.0754133E-34
   5.290000     -2.0152967E-34
   5.300000     -1.9257348E-34
   5.310000     -1.7993279E-34
   5.320000     -1.6447923E-34
   5.330000     -1.4544331E-34
   5.340000     -1.2155753E-34
   5.350000     -9.3180525E-35
   5.360000     -6.0567593E-35
   5.370000     -2.3788516E-35
   5.380000      1.6977374E-35
   5.390000      6.1693686E-35
   5.400000      1.0999388E-34
   5.410000      1.6121468E-34
   5.420000      2.1655129E-34
   5.430000      2.7828043E-34
   5.440000      3.4657821E-34
   5.450000      4.1857797E-34
   5.460000      4.9397896E-34
   5.470000      5.7404651E-34
   5.480000      6.5667380E-34
   5.490000      7.4078442E-34
   5.500000      8.2533359E-34
   5.510000      9.0948090E-34
   5.520000      1.0012876E-33
   5.530000      1.1015439E-33
   5.540000      1.2022533E-33
   5.550000      1.3032951E-33
   5.560000      1.4058486E-33
   5.570000      1.5102701E-33
   5.580000      1.6165727E-33
   5.590000      1.7232815E-33
   5.600000      1.8299819E-33
   5.610000      1.9341176E-33
   5.620000      2.0381744E-33
   5.630000      2.1438354E-33
   5.640000      2.2447178E-33
   5.650000      2.3401304E-33
   5.660000      2.4291620E-33
   5.670000      2.5115454E-33
   5.680000      2.5889989E-33
   5.690000      2.6598434E-33
   5.700000      2.7243055E-33
   5.710000      2.7814044E-33
   5.720000      2.8295497E-33
   5.730000      2.8698040E-33
   5.740000      2.8993805E-33
   5.750000      2.9141747E-33
   5.760000      2.9122762E-33
   5.770000      2.8927974E-33
   5.780000      2.8554288E-33
   5.790000      2.7982538E-33
   5.800000      2.7177815E-33
   5.810000      2.6132591E-33
   5.820000      2.4874592E-33
   5.830000      2.3404952E-33
   5.840000      2.1681064E-33
   5.850000      1.9657761E-33
   5.860000      1.7311814E-33
   5.870000      1.4641506E-33
   5.880000      1.1624409E-33
   5.890000      8.2182612E-34
   5.900000      4.4387057E-34
   5.910000      2.8396658E-35
   5.920000     -4.2818084E-34
   5.930000     -9.3109411E-34
   5.940000     -1.4812839E-33
   5.950000     -2.0722975E-33
   5.960000     -2.7061077E-33
   5.970000     -3.3866999E-33
   5.980000     -4.1117635E-33
   5.990000     -4.8809626E-33
   6.000000     -5.6959589E-33
   6.010000     -6.5565343E-33
   6.020000     -7.4625612E-33
   6.030000     -8.4139042E-33
   6.040000     -9.4100182E-33
   6.050000     -1.0451576E-32
   6.060000     -1.1538572E-32
   6.070000     -1.2667777E-32
   6.080000     -1.3836014E-32
   6.090000     -1.5042513E-32
   6.100000     -1.6287773E-32
   6.110000     -1.7569512E-32
   6.120000     -1.8883394E-32
   6.130000     -2.0225775E-32
   6.140000     -2.1590737E-32
   6.150000     -2.2973807E-32
   6.160000     -2.4370412E-32
   6.170000     -2.5774198E-32
   6.180000     -2.7178908E-32
   6.190000     -2.8577282E-32
   6.200000     -2.9961059E-32
   6.210000     -3.1322366E-32
   6.220000     -3.2653000E-32
   6.230000     -3.3944333E-32
   6.240000     -3.5184944E-32
   6.250000     -3.6361523E-32
   6.260000     -3.7464457E-32
   6.270000     -3.8482814E-32
   6.280000     -3.9402823E-32
   6.290000     -4.0211969E-32
   6.300000     -4.0896577E-32
   6.310000     -4.1441175E-32
   6.320000     -4.1831254E-32
   6.330000     -4.2051988E-32
   6.340000     -4.2087694E-32
   6.350000     -4.1921908E-32
   6.360000     -4.1537821E-32
   6.370000     -4.0919326E-32
   6.380000     -4.0047899E-32
   6.390000     -3.8905313E-32
   6.400000     -3.7473752E-32
   6.410000     -3.5733203E-32
   6.420000     -3.3664701E-32
   6.430000     -3.1250312E-32
   6.440000     -2.8471170E-32
   6.450000     -2.5307688E-32
   6.460000     -2.1740775E-32
   6.470000     -1.7750957E-32
   6.480000     -1.3319859E-32
   6.490000     -8.4291394E-33
   6.500000     -3.0611366E-33
   6.510000      2.8030080E-33
   6.520000      9.1793134E-33
   6.530000      1.6081829E-32
   6.540000      2.3526134E-32
   6.550000      3.1525324E-32
   6.560000      4.0091601E-32
   6.570000      4.9235393E-32
   6.580000      5.8965101E-32
   6.590000      6.9286823E-32
   6.600000      8.0204785E-32
   6.610000      9.1721273E-32
   6.620000      1.0383548E-31
   6.630000      1.1654382E-31
   6.640000      1.2983965E-31
   6.650000      1.4371280E-31
   6.660000      1.5814999E-31
   6.670000      1.7313428E-31
   6.680000      1.8864469E-31
   6.690000      2.0465629E-31
   6.700000      2.2114009E-31
   6.710000      2.3806145E-31
   6.720000      2.5538292E-31
   6.730000      2.7306242E-31
   6.740000      2.9105061E-31
   6.750000      3.0929386E-31
   6.760000      3.2773347E-31
   6.770000      3.4630466E-31
   6.780000      3.6493688E-31
   6.790000      3.8355334E-31
   6.800000      4.0207117E-31
   6.810000      4.2040093E-31
   6.820000      4.3844674E-31
   6.830000      4.5610582E-31
   6.840000      4.7326870E-31
   6.850000      4.8981886E-31
   6.860000      5.0563283E-31
   6.870000      5.2058009E-31
   6.880000      5.3452314E-31
   6.890000      5.4731713E-31
   6.900000      5.5881031E-31
   6.910000      5.6884382E-31
   6.920000      5.7725199E-31
   6.930000      5.8386235E-31
   6.940000      5.8849587E-31
   6.950000      5.9096723E-31
   6.960000      5.9108492E-31
   6.970000      5.8865188E-31
   6.980000      5.8346570E-31
   6.990000      5.7531905E-31
   7.000000      5.6400050E-31
   7.010000      5.4929450E-31
   7.020000      5.3098284E-31
   7.030000      5.0884433E-31
   7.040000      4.8265652E-31
   7.050000      4.5219613E-31
   7.060000      4.1723965E-31