  -2.600000      0.0000000E+00
  -2.590000      0.0000000E+00
  -2.580000      0.0000000E+00
  -2.570000      0.0000000E+00
  -2.560000      0.0000000E+00
  -2.550000      0.0000000E+00
  -2.540000      0.0000000E+00
  -2.530000      0.0000000E+00
  -2.520000      0.0000000E+00
  -2.510000      0.0000000E+00
  -2.500000      0.0000000E+00
  -2.490000      0.0000000E+00
  -2.480000      0.0000000E+00
  -2.470000      0.0000000E+00
  -2.460000      0.0000000E+00
  -2.450000      0.0000000E+00
  -2.440000      0.0000000E+00
  -2.430000      0.0000000E+00
  -2.420000      0.0000000E+00
  -2.410000      0.0000000E+00
  -2.400000      0.0000000E+00
  -2.390000      0.0000000E+00
  -2.380000      0.0000000E+00
  -2.370000      0.0000000E+00
  -2.360000      0.0000000E+00
  -2.350000      0.0000000E+00
  -2.340000      0.0000000E+00
  -2.330000      0.0000000E+00
  -2.320000      0.0000000E+00
  -2.310000      0.0000000E+00
  -2.300000      0.0000000E+00
  -2.290000      0.0000000E+00
  -2.280000      0.0000000E+00
  -2.270000      0.0000000E+00
  -2.260000      0.0000000E+00
  -2.250000      0.0000000E+00
  -2.240000      0.0000000E+00
  -2.230000      0.0000000E+00
  -2.220000      0.0000000E+00
  -2.210000      0.0000000E+00
  -2.200000      0.0000000E+00
  -2.190000      0.0000000E+00
  -2.180000      0.0000000E+00
  -2.170000      0.0000000E+00
  -2.160000      0.0000000E+00
  -2.150000      0.0000000E+00
  -2.140000      0.0000000E+00
  -2.130000      0.0000000E+00
  -2.120000      0.0000000E+00
  -2.110000      0.0000000E+00
  -2.100000      0.0000000E+00
  -2.090000      0.0000000E+00
  -2.080000      0.0000000E+00
  -2.070000      0.0000000E+00
  -2.060000      0.0000000E+00
  -2.050000      0.0000000E+00
  -2.040000      0.0000000E+00
  -2.030000      0.0000000E+00
  -2.020000      0.0000000E+00
  -2.010000      0.0000000E+00
  -2.000000      0.0000000E+00
  -1.990000      0.0000000E+00
  -1.980000      0.0000000E+00
  -1.970000      0.0000000E+00
  -1.960000      0.0000000E+00
  -1.950000      0.0000000E+00
  -1.940000      0.0000000E+00
  -1.930000      0.0000000E+00
  -1.920000      0.0000000E+00
  -1.910000      0.0000000E+00
  -1.900000      0.0000000E+00
  -1.890000      0.0000000E+00
  -1.880000      0.0000000E+00
  -1.870000      0.0000000E+00
  -1.860000      0.0000000E+00
  -1.850000      0.0000000E+00
  -1.840000      0.0000000E+00
  -1.830000      0.0000000E+00
  -1.820000      0.0000000E+00
  -1.810000      0.0000000E+00
  -1.800000      0.0000000E+00
  -1.790000      0.0000000E+00
  -1.780000      0.0000000E+00
  -1.770000      0.0000000E+00
  -1.760000      0.0000000E+00
  -1.750000      0.0000000E+00
  -1.740000      0.0000000E+00
  -1.730000      0.0000000E+00
  -1.720000      0.0000000E+00
  -1.710000      0.0000000E+00
  -1.700000      0.0000000E+00
  -1.690000      0.0000000E+00
  -1.680000      0.0000000E+00
  -1.670000      0.0000000E+00
  -1.660000      0.0000000E+00
  -1.650000      0.0000000E+00
  -1.640000      0.0000000E+00
  -1.630000      0.0000000E+00
  -1.620000      0.0000000E+00
  -1.610000      0.0000000E+00
  -1.600000      0.0000000E+00
  -1.590000      0.0000000E+00
  -1.580000      0.0000000E+00
  -1.570000      0.0000000E+00
  -1.560000      0.0000000E+00
  -1.550000      0.0000000E+00
  -1.540000      0.0000000E+00
  -1.530000      0.0000000E+00
  -1.520000      0.0000000E+00
  -1.510000      0.0000000E+00
  -1.500000      0.0000000E+00
  -1.490000      0.0000000E+00
  -1.480000      0.0000000E+00
  -1.470000      0.0000000E+00
  -1.460000      0.0000000E+00
  -1.450000      0.0000000E+00
  -1.440000      0.0000000E+00
  -1.430000      0.0000000E+00
  -1.420000      0.0000000E+00
  -1.410000      0.0000000E+00
  -1.400000      0.0000000E+00
  -1.390000      0.0000000E+00
  -1.380000      0.0000000E+00
  -1.370000      0.0000000E+00
  -1.360000      0.0000000E+00
  -1.350000      0.0000000E+00
  -1.340000      0.0000000E+00
  -1.330000      0.0000000E+00
  -1.320000      0.0000000E+00
  -1.310000      0.0000000E+00
  -1.300000      0.0000000E+00
  -1.290000      0.0000000E+00
  -1.280000      0.0000000E+00
  -1.270000      0.0000000E+00
  -1.260000      0.0000000E+00
  -1.250000      0.0000000E+00
  -1.240000      0.0000000E+00
  -1.230000      0.0000000E+00
  -1.220000      0.0000000E+00
  -1.210000      0.0000000E+00
  -1.200000      0.0000000E+00
  -1.190000      0.0000000E+00
  -1.180000      0.0000000E+00
  -1.170000      0.0000000E+00
  -1.160000      0.0000000E+00
  -1.150000      0.0000000E+00
  -1.140000      0.0000000E+00
  -1.130000      0.0000000E+00
  -1.120000      0.0000000E+00
  -1.110000      0.0000000E+00
  -1.100000      0.0000000E+00
  -1.090000      0.0000000E+00
  -1.080000      0.0000000E+00
  -1.070000      0.0000000E+00
  -1.060000      0.0000000E+00
  -1.050000      0.0000000E+00
  -1.040000      0.0000000E+00
  -1.030000      0.0000000E+00
  -1.020000      0.0000000E+00
  -1.010000      0.0000000E+00
  -1.000000      0.0000000E+00
 -0.9900000      0.0000000E+00
 -0.9800000      0.0000000E+00
 -0.9700000      0.0000000E+00
 -0.9600000      0.0000000E+00
 -0.9500000      0.0000000E+00
 -0.9400000      0.0000000E+00
 -0.9300000      0.0000000E+00
 -0.9200000      0.0000000E+00
 -0.9100000      0.0000000E+00
 -0.9000000      0.0000000E+00
 -0.8900000      0.0000000E+00
 -0.8800000      0.0000000E+00
 -0.8700000      0.0000000E+00
 -0.8600000      0.0000000E+00
 -0.8500000      0.0000000E+00
 -0.8400000      0.0000000E+00
 -0.8300000      0.0000000E+00
 -0.8200000      0.0000000E+00
 -0.8100000      0.0000000E+00
 -0.8000000      0.0000000E+00
 -0.7900000      0.0000000E+00
 -0.7800000      0.0000000E+00
 -0.7700000      0.0000000E+00
 -0.7600000      0.0000000E+00
 -0.7500000      0.0000000E+00
 -0.7400000      0.0000000E+00
 -0.7300000      0.0000000E+00
 -0.7200000      0.0000000E+00
 -0.7100000      0.0000000E+00
 -0.7000000      0.0000000E+00
 -0.6900000      0.0000000E+00
 -0.6800000      0.0000000E+00
 -0.6700000      0.0000000E+00
 -0.6600000      0.0000000E+00
 -0.6500000      0.0000000E+00
 -0.6400000      0.0000000E+00
 -0.6300000      0.0000000E+00
 -0.6200000      0.0000000E+00
 -0.6100000      0.0000000E+00
 -0.6000000      0.0000000E+00
 -0.5900000      0.0000000E+00
 -0.5800000      0.0000000E+00
 -0.5700000      0.0000000E+00
 -0.5600000      0.0000000E+00
 -0.5500000      0.0000000E+00
 -0.5400000      0.0000000E+00
 -0.5300000      0.0000000E+00
 -0.5200000      0.0000000E+00
 -0.5100000      0.0000000E+00
 -0.5000000      0.0000000E+00
 -0.4900000      0.0000000E+00
 -0.4800000      0.0000000E+00
 -0.4700000      0.0000000E+00
 -0.4600000      0.0000000E+00
 -0.4500000      0.0000000E+00
 -0.4400000      0.0000000E+00
 -0.4300000      0.0000000E+00
 -0.4200000      0.0000000E+00
 -0.4100000      0.0000000E+00
 -0.4000000      0.0000000E+00
 -0.3900000      0.0000000E+00
 -0.3800000      0.0000000E+00
 -0.3700000      0.0000000E+00
 -0.3600000      0.0000000E+00
 -0.3500000      0.0000000E+00
 -0.3400000      0.0000000E+00
 -0.3300000      0.0000000E+00
 -0.3200000      0.0000000E+00
 -0.3100000      0.0000000E+00
 -0.3000000      0.0000000E+00
 -0.2900000      0.0000000E+00
 -0.2800000      0.0000000E+00
 -0.2700000      0.0000000E+00
 -0.2600000      0.0000000E+00
 -0.2500000      0.0000000E+00
 -0.2400000      0.0000000E+00
 -0.2300000      0.0000000E+00
 -0.2200000      0.0000000E+00
 -0.2100000      0.0000000E+00
 -0.2000000      0.0000000E+00
 -0.1900000      0.0000000E+00
 -0.1800000      0.0000000E+00
 -0.1700000      0.0000000E+00
 -0.1600000      0.0000000E+00
 -0.1500000      0.0000000E+00
 -0.1400000      0.0000000E+00
 -0.1300000      0.0000000E+00
 -0.1200000      0.0000000E+00
 -0.1100000      0.0000000E+00
 -0.1000000      0.0000000E+00
 -9.0000004E-02  0.0000000E+00
 -7.9999998E-02  0.0000000E+00
 -7.0000000E-02  0.0000000E+00
 -5.9999999E-02  0.0000000E+00
 -5.0000001E-02  0.0000000E+00
 -3.9999999E-02  0.0000000E+00
 -2.9999999E-02  0.0000000E+00
 -2.0000000E-02  0.0000000E+00
 -9.9999998E-03  0.0000000E+00
 -3.4694470E-17  0.0000000E+00
  9.9999998E-03  0.0000000E+00
  2.0000000E-02  0.0000000E+00
  2.9999999E-02  0.0000000E+00
  3.9999999E-02  0.0000000E+00
  5.0000001E-02  0.0000000E+00
  5.9999999E-02  0.0000000E+00
  7.0000000E-02  0.0000000E+00
  7.9999998E-02  0.0000000E+00
  9.0000004E-02  0.0000000E+00
  0.1000000      0.0000000E+00
  0.1100000      0.0000000E+00
  0.1200000      0.0000000E+00
  0.1300000      0.0000000E+00
  0.1400000      0.0000000E+00
  0.1500000      0.0000000E+00
  0.1600000      0.0000000E+00
  0.1700000      0.0000000E+00
  0.1800000      0.0000000E+00
  0.1900000      0.0000000E+00
  0.2000000      0.0000000E+00
  0.2100000      0.0000000E+00
  0.2200000      0.0000000E+00
  0.2300000      0.0000000E+00
  0.2400000      0.0000000E+00
  0.2500000      0.0000000E+00
  0.2600000      0.0000000E+00
  0.2700000      0.0000000E+00
  0.2800000      0.0000000E+00
  0.2900000      0.0000000E+00
  0.3000000      0.0000000E+00
  0.3100000      0.0000000E+00
  0.3200000      0.0000000E+00
  0.3300000      0.0000000E+00
  0.3400000      0.0000000E+00
  0.3500000      0.0000000E+00
  0.3600000      0.0000000E+00
  0.3700000      0.0000000E+00
  0.3800000      0.0000000E+00
  0.3900000      0.0000000E+00
  0.4000000      0.0000000E+00
  0.4100000      0.0000000E+00
  0.4200000      0.0000000E+00
  0.4300000      0.0000000E+00
  0.4400000      0.0000000E+00
  0.4500000      0.0000000E+00
  0.4600000      0.0000000E+00
  0.4700000      0.0000000E+00
  0.4800000      0.0000000E+00
  0.4900000      0.0000000E+00
  0.5000000      0.0000000E+00
  0.5100000      0.0000000E+00
  0.5200000      0.0000000E+00
  0.5300000      0.0000000E+00
  0.5400000      0.0000000E+00
  0.5500000      0.0000000E+00
  0.5600000      0.0000000E+00
  0.5700000      0.0000000E+00
  0.5800000      0.0000000E+00
  0.5900000      0.0000000E+00
  0.6000000      0.0000000E+00
  0.6100000      0.0000000E+00
  0.6200000      0.0000000E+00
  0.6300000      0.0000000E+00
  0.6400000      0.0000000E+00
  0.6500000      0.0000000E+00
  0.6600000      0.0000000E+00
  0.6700000      0.0000000E+00
  0.6800000     -1.3026839E-38
  0.6900000     -1.4905930E-38
  0.7000000     -1.5761916E-38
  0.7100000     -1.5254696E-38
  0.7200000     -1.3684871E-38
  0.7300000      0.0000000E+00
  0.7400000      0.0000000E+00
  0.7500000      0.0000000E+00
  0.7600000      0.0000000E+00
  0.7700000      1.2144886E-38
  0.7800000      2.2713769E-38
  0.7900000      3.4923404E-38
  0.8000000      4.9532543E-38
  0.8100000      6.6431788E-38
  0.8200000      8.4112161E-38
  0.8300000      1.0159979E-37
  0.8400000      1.1896801E-37
  0.8500000      1.3569927E-37
  0.8600000      1.5245227E-37
  0.8700000      1.7061095E-37
  0.8800000      1.8933598E-37
  0.8900000      2.0793928E-37
  0.9000000      2.2907279E-37
  0.9100000      2.5130842E-37
  0.9200000      2.7411380E-37
  0.9300000      2.9781832E-37
  0.9400000      3.1951345E-37
  0.9500000      3.3813428E-37
  0.9600000      3.5467411E-37
  0.9700000      3.6696215E-37
  0.9800000      3.7086888E-37
  0.9900000      3.6765377E-37
   1.000000      3.5918087E-37
   1.010000      3.4474471E-37
   1.020000      3.2034264E-37
   1.030000      2.8164550E-37
   1.040000      2.2543395E-37
   1.050000      1.5013792E-37
   1.060000      5.8794353E-38
   1.070000     -5.1042896E-38
   1.080000     -1.7892655E-37
   1.090000     -3.2669648E-37
   1.100000     -5.0304180E-37
   1.110000     -7.0234492E-37
   1.120000     -8.9012604E-37
   1.130000     -1.1135352E-36
   1.140000     -1.4070434E-36
   1.150000     -1.7136733E-36
   1.160000     -2.0273423E-36
   1.170000     -2.3640216E-36
   1.180000     -2.7209017E-36
   1.190000     -3.0590242E-36
   1.200000     -3.3485016E-36
   1.210000     -3.5849170E-36
   1.220000     -3.7742584E-36
   1.230000     -3.9668805E-36
   1.240000     -4.0931091E-36
   1.250000     -4.1416801E-36
   1.260000     -4.2132142E-36
   1.270000     -4.2912431E-36
   1.280000     -4.3703099E-36
   1.290000     -4.3217889E-36
   1.300000     -4.1060016E-36
   1.310000     -3.8415556E-36
   1.320000     -3.3778939E-36
   1.330000     -2.6479429E-36
   1.340000     -1.6972749E-36
   1.350000     -4.9990522E-37
   1.360000      9.2251357E-37
   1.370000      2.5790105E-36
   1.380000      4.3226832E-36
   1.390000      6.1895022E-36
   1.400000      8.3655163E-36
   1.410000      1.0680216E-35
   1.420000      1.3021653E-35
   1.430000      1.5509787E-35
   1.440000      1.8144331E-35
   1.450000      2.0769997E-35
   1.460000      2.3349162E-35
   1.470000      2.5964541E-35
   1.480000      2.8583675E-35
   1.490000      3.1089484E-35
   1.500000      3.3325718E-35
   1.510000      3.5435280E-35
   1.520000      3.7744837E-35
   1.530000      4.0044308E-35
   1.540000      4.2126429E-35
   1.550000      4.4056527E-35
   1.560000      4.5648509E-35
   1.570000      4.6909635E-35
   1.580000      4.7926526E-35
   1.590000      4.8370049E-35
   1.600000      4.8125582E-35
   1.610000      4.7491946E-35
   1.620000      4.6455729E-35
   1.630000      4.4900745E-35
   1.640000      4.2775232E-35
   1.650000      3.9839007E-35
   1.660000      3.6073388E-35
   1.670000      3.1147254E-35
   1.680000      2.4656777E-35
   1.690000      1.6925397E-35
   1.700000      8.3149874E-36
   1.710000     -1.4079695E-36
   1.720000     -1.2909618E-35
   1.730000     -2.6136804E-35
   1.740000     -4.0257849E-35
   1.750000     -5.4758189E-35
   1.760000     -7.0159926E-35
   1.770000     -8.7022507E-35
   1.780000     -1.0533826E-34
   1.790000     -1.2512140E-34
   1.800000     -1.4609154E-34
   1.810000     -1.6831941E-34
   1.820000     -1.9477248E-34
   1.830000     -2.2432523E-34
   1.840000     -2.5357803E-34
   1.850000     -2.8076862E-34
   1.860000     -3.1046502E-34
   1.870000     -3.4150708E-34
   1.880000     -3.7010754E-34
   1.890000     -3.9776929E-34
   1.900000     -4.2182674E-34
   1.910000     -4.4323254E-34
   1.920000     -4.5969782E-34
   1.930000     -4.7074586E-34
   1.940000     -4.7956060E-34
   1.950000     -4.8711177E-34
   1.960000     -4.9066751E-34
   1.970000     -4.8609823E-34
   1.980000     -4.7413927E-34
   1.990000     -4.5476001E-34
   2.000000     -4.2721662E-34
   2.010000     -3.9190568E-34
   2.020000     -3.4842986E-34
   2.030000     -2.9837054E-34
   2.040000     -2.3427506E-34
   2.050000     -1.5559799E-34
   2.060000     -6.9734446E-35
   2.070000      2.2629833E-35
   2.080000      1.2043325E-34
   2.090000      2.2851222E-34
   2.100000      3.4755917E-34
   2.110000      4.7418831E-34
   2.120000      6.1051815E-34
   2.130000      7.5726526E-34
   2.140000      9.1232210E-34
   2.150000      1.0774078E-33
   2.160000      1.2530413E-33
   2.170000      1.4375658E-33
   2.180000      1.6297889E-33
   2.190000      1.8280333E-33
   2.200000      2.0337880E-33
   2.210000      2.2482095E-33
   2.220000      2.4665765E-33
   2.230000      2.6860773E-33
   2.240000      2.9069266E-33
   2.250000      3.1267250E-33
   2.260000      3.3430795E-33
   2.270000      3.5531477E-33
   2.280000      3.7544287E-33
   2.290000      3.9437986E-33
   2.300000      4.1172935E-33
   2.310000      4.2719676E-33
   2.320000      4.4021823E-33
   2.330000      4.5043228E-33
   2.340000      4.5752903E-33
   2.350000      4.6088636E-33
   2.360000      4.6014855E-33
   2.370000      4.5492451E-33
   2.380000      4.4463338E-33
   2.390000      4.2875102E-33
   2.400000      4.0684767E-33
   2.410000      3.7846396E-33
   2.420000      3.4317140E-33
   2.430000      3.0057302E-33
   2.440000      2.5021171E-33
   2.450000      1.9179988E-33
   2.460000      1.2509300E-33
   2.470000      5.0013074E-34
   2.480000     -3.3917468E-34
   2.490000     -1.2709248E-33
   2.500000     -2.2950087E-33
   2.510000     -3.4108464E-33
   2.520000     -4.6165315E-33
   2.530000     -5.9123009E-33
   2.540000     -7.2967519E-33
   2.550000     -8.7674026E-33
   2.560000     -1.0320901E-32
   2.570000     -1.1953047E-32
   2.580000     -1.3658260E-32
   2.590000     -1.5429933E-32
   2.600000     -1.7260548E-32
   2.610000     -1.9141265E-32
   2.620000     -2.1061966E-32
   2.630000     -2.3011048E-32
   2.640000     -2.4975579E-32
   2.650000     -2.6941190E-32
   2.660000     -2.8892070E-32
   2.670000     -3.0810953E-32
   2.680000     -3.2679101E-32
   2.690000     -3.4476329E-32
   2.700000     -3.6181034E-32
   2.710000     -3.7770209E-32
   2.720000     -3.9219514E-32
   2.730000     -4.0503345E-32
   2.740000     -4.1597080E-32
   2.750000     -4.2470596E-32
   2.760000     -4.3092829E-32
   2.770000     -4.3436350E-32
   2.780000     -4.3471518E-32
   2.790000     -4.3167056E-32
   2.800000     -4.2491482E-32
   2.810000     -4.1414547E-32
   2.820000     -3.9905688E-32
   2.830000     -3.7934913E-32
   2.840000     -3.5473069E-32
   2.850000     -3.2492639E-32
   2.860000     -2.8966567E-32
   2.870000     -2.4869584E-32
   2.880000     -2.0179513E-32
   2.890000     -1.4876122E-32
   2.900000     -8.9419708E-33
   2.910000     -2.3627361E-33
   2.920000      4.8724142E-33
   2.930000      1.2770459E-32
   2.940000      2.1334184E-32
   2.950000      3.0561780E-32
   2.960000      4.0446465E-32
   2.970000      5.0976118E-32
   2.980000      6.2132864E-32
   2.990000      7.3892733E-32
   3.000000      8.6225285E-32
   3.010000      9.9093269E-32
   3.020000      1.1245223E-31
   3.030000      1.2625028E-31
   3.040000      1.4042781E-31
   3.050000      1.5491724E-31
   3.060000      1.6964284E-31
   3.070000      1.8452056E-31
   3.080000      1.9945788E-31
   3.090000      2.1435391E-31
   3.100000      2.2909917E-31
   3.110000      2.4357588E-31
   3.120000      2.5765790E-31
   3.130000      2.7121107E-31
   3.140000      2.8409329E-31
   3.150000      2.9615501E-31
   3.160000      3.0723957E-31
   3.170000      3.1718366E-31
   3.180000      3.2581795E-31
   3.190000      3.3296780E-31
   3.200000      3.3845393E-31
   3.210000      3.4209326E-31
   3.220000      3.4370002E-31
   3.230000      3.4308669E-31
   3.240000      3.4006530E-31
   3.250000      3.3444857E-31
   3.260000      3.2605133E-31
   3.270000      3.1469202E-31
   3.280000      3.0019417E-31
   3.290000      2.8238811E-31
   3.300000      2.6111263E-31
   3.310000      2.3621679E-31
   3.320000      2.0756181E-31
   3.330000      1.7502295E-31
   3.340000      1.3849156E-31
   3.350000      9.7877049E-32
   3.360000      5.3108993E-32
   3.370000      4.1392554E-33
   3.380000     -4.9055795E-32
   3.390000     -1.0647323E-31
   3.400000     -1.6808137E-31
   3.410000     -2.3381758E-31
   3.420000     -3.0358623E-31
   3.430000     -3.7725662E-31
   3.440000     -4.5466095E-31
   3.450000     -5.3559232E-31
   3.460000     -6.1980309E-31
   3.470000     -7.0700282E-31
   3.480000     -7.9685728E-31
   3.490000     -8.8898622E-31
   3.500000     -9.8296305E-31
   3.510000     -1.0783128E-30
   3.520000     -1.1745121E-30
   3.530000     -1.2709879E-30
   3.540000     -1.3671177E-30
   3.550000     -1.4622286E-30
   3.560000     -1.5555982E-30
   3.570000     -1.6464549E-30
   3.580000     -1.7339781E-30
   3.590000     -1.8173005E-30
   3.600000     -1.8955083E-30
   3.610000     -1.9676446E-30
   3.620000     -2.0327103E-30
   3.630000     -2.0896682E-30
   3.640000     -2.1374458E-30
   3.650000     -2.1749390E-30
   3.660000     -2.2010169E-30
   3.670000     -2.2145258E-30
   3.680000     -2.2142964E-30
   3.690000     -2.1991481E-30
   3.700000     -2.1678960E-30
   3.710000     -2.1193586E-30
   3.720000     -2.0523644E-30
   3.730000     -1.9657615E-30
   3.740000     -1.8584252E-30
   3.750000     -1.7292671E-30
   3.760000     -1.5772463E-30
   3.770000     -1.4013784E-30
   3.780000     -1.2007464E-30
   3.790000     -9.7451256E-31
   3.800000     -7.2192929E-31
   3.810000     -4.4235131E-31
   3.820000     -1.3524815E-31
   3.830000      1.9978349E-31
   3.840000      5.6300673E-31
   3.850000      9.5453113E-31
   3.860000      1.3742998E-30
   3.870000      1.8220759E-30
   3.880000      2.2974296E-30
   3.890000      2.7997238E-30
   3.900000      3.3281017E-30
   3.910000      3.8814729E-30
   3.920000      4.4585007E-30
   3.930000      5.0575883E-30
   3.940000      5.6768688E-30
   3.950000      6.3141922E-30
   3.960000      6.9671118E-30
   3.970000      7.6328779E-30
   3.980000      8.3084234E-30
   3.990000      8.9903576E-30
   4.000000      9.6749580E-30
   4.010000      1.0358163E-29
   4.020000      1.1035564E-29
   4.030000      1.1702405E-29
   4.040000      1.2353581E-29
   4.050000      1.2983631E-29
   4.060000      1.3586745E-29
   4.070000      1.4156762E-29
   4.080000      1.4687182E-29
   4.090000      1.5171169E-29
   4.100000      1.5601558E-29
   4.110000      1.5970879E-29
   4.120000      1.6271361E-29
   4.130000      1.6494949E-29
   4.140000      1.6633341E-29
   4.150000      1.6677992E-29
   4.160000      1.6620156E-29
   4.170000      1.6450908E-29
   4.180000      1.6161185E-29
   4.190000      1.5741816E-29
   4.200000      1.5183564E-29
   4.210000      1.4477176E-29
   4.220000      1.3613428E-29
   4.230000      1.2583167E-29
   4.240000      1.1377378E-29
   4.250000      9.9872377E-30
   4.260000      8.4041782E-30
   4.270000      6.6199486E-30
   4.280000      4.6266890E-30
   4.290000      2.4170020E-30
   4.300000     -1.5973412E-32
   4.310000     -2.6784750E-30
   4.320000     -5.5760400E-30
   4.330000     -8.7134141E-30
   4.340000     -1.2094463E-29
   4.350000     -1.5722076E-29
   4.360000     -1.9598072E-29
   4.370000     -2.3723104E-29
   4.380000     -2.8096549E-29
   4.390000     -3.2716407E-29
   4.400000     -3.7579205E-29
   4.410000     -4.2679880E-29
   4.420000     -4.8011673E-29
   4.430000     -5.3566022E-29
   4.440000     -5.9332455E-29
   4.450000     -6.5298480E-29
   4.460000     -7.1449485E-29
   4.470000     -7.7768624E-29
   4.480000     -8.4236709E-29
   4.490000     -9.0832140E-29
   4.500000     -9.7530766E-29
   4.510000     -1.0430583E-28
   4.520000     -1.1112787E-28
   4.530000     -1.1796463E-28
   4.540000     -1.2478101E-28
   4.550000     -1.3153897E-28
   4.560000     -1.3819749E-28
   4.570000     -1.4471249E-28
   4.580000     -1.5103687E-28
   4.590000     -1.5712040E-28
   4.600000     -1.6290972E-28
   4.610000     -1.6834838E-28
   4.620000     -1.7337679E-28
   4.630000     -1.7793231E-28
   4.640000     -1.8194927E-28
   4.650000     -1.8535894E-28
   4.660000     -1.8808974E-28
   4.670000     -1.9006723E-28
   4.680000     -1.9121434E-28
   4.690000     -1.9145141E-28
   4.700000     -1.9069633E-28
   4.710000     -1.8886479E-28
   4.720000     -1.8587050E-28
   4.730000     -1.8162540E-28
   4.740000     -1.7603987E-28
   4.750000     -1.6902309E-28
   4.760000     -1.6048335E-28
   4.770000     -1.5032834E-28
   4.780000     -1.3846564E-28
   4.790000     -1.2480298E-28
   4.800000     -1.0924881E-28
   4.810000     -9.1712760E-29
   4.820000     -7.2106119E-29
   4.830000     -5.0342364E-29
   4.840000     -2.6337799E-29
   4.850000     -1.2120675E-32
   4.860000      2.8710948E-29
   4.870000      5.9902933E-29
   4.880000      9.3629903E-29
   4.890000      1.2995176E-28
   4.900000      1.6892141E-28
   4.910000      2.1058400E-28
   4.920000      2.5497598E-28
   4.930000      3.0212441E-28
   4.940000      3.5204584E-28
   4.950000      4.0474559E-28
   4.960000      4.6021661E-28
   4.970000      5.1843867E-28
   4.980000      5.7937726E-28
   4.990000      6.4298250E-28
   5.000000      7.0918836E-28
   5.010000      7.7791137E-28
   5.020000      8.4904968E-28
   5.030000      9.2248183E-28
   5.040000      9.9806601E-28
   5.050000      1.0756386E-27
   5.060000      1.1550137E-27
   5.070000      1.2359811E-27
   5.080000      1.3183064E-27
   5.090000      1.4017290E-27
   5.100000      1.4859619E-27
   5.110000      1.5706903E-27
   5.120000      1.6555710E-27
   5.130000      1.7402310E-27
   5.140000      1.8242676E-27
   5.150000      1.9072467E-27
   5.160000      1.9887029E-27
   5.170000      2.0681387E-27
   5.180000      2.1450239E-27
   5.190000      2.2187955E-27
   5.200000      2.2888570E-27
   5.210000      2.3545786E-27
   5.220000      2.4152972E-27
   5.230000      2.4703164E-27
   5.240000      2.5189066E-27
   5.250000      2.5603064E-27
   5.260000      2.5937217E-27
   5.270000      2.6183274E-27
   5.280000      2.6332684E-27
   5.290000      2.6376606E-27
   5.300000      2.6305932E-27
   5.310000      2.6111281E-27
   5.320000      2.5783039E-27
   5.330000      2.5311374E-27
   5.340000      2.4686264E-27
   5.350000      2.3897507E-27
   5.360000      2.2934767E-27
   5.370000      2.1787608E-27
   5.380000      2.0445518E-27
   5.390000      1.8897951E-27
   5.400000      1.7134365E-27
   5.410000      1.5144286E-27
   5.420000      1.2917329E-27
   5.430000      1.0443267E-27
   5.440000      7.7120865E-28
   5.450000      4.7140376E-28
   5.460000      1.4397014E-28
   5.470000     -2.1199484E-28
   5.480000     -5.9734691E-28
   5.490000     -1.0128877E-27
   5.500000     -1.4593575E-27
   5.510000     -1.9374272E-27
   5.520000     -2.4476896E-27
   5.530000     -2.9906508E-27
   5.540000     -3.5667221E-27
   5.550000     -4.1762088E-27
   5.560000     -4.8193023E-27
   5.570000     -5.4960694E-27
   5.580000     -6.2064421E-27
   5.590000     -6.9502082E-27
   5.600000     -7.7269981E-27
   5.610000     -8.5362777E-27
   5.620000     -9.3773336E-27
   5.630000     -1.0249264E-26
   5.640000     -1.1150968E-26
   5.650000     -1.2081134E-26
   5.660000     -1.3038225E-26
   5.670000     -1.4020476E-26
   5.680000     -1.5025868E-26
   5.690000     -1.6052135E-26
   5.700000     -1.7096736E-26
   5.710000     -1.8156860E-26
   5.720000     -1.9229403E-26
   5.730000     -2.0310964E-26
   5.740000     -2.1397830E-26
   5.750000     -2.2485981E-26
   5.760000     -2.3571064E-26
   5.770000     -2.4648389E-26
   5.780000     -2.5712934E-26
   5.790000     -2.6759324E-26
   5.800000     -2.7781838E-26
   5.810000     -2.8774389E-26
   5.820000     -2.9730540E-26
   5.830000     -3.0643487E-26
   5.840000     -3.1506057E-26
   5.850000     -3.2310723E-26
   5.860000     -3.3049590E-26
   5.870000     -3.3714414E-26
   5.880000     -3.4296597E-26
   5.890000     -3.4787194E-26
   5.900000     -3.5176926E-26
   5.910000     -3.5456185E-26
   5.920000     -3.5615064E-26
   5.930000     -3.5643349E-26
   5.940000     -3.5530554E-26
   5.950000     -3.5265937E-26
   5.960000     -3.4838513E-26
   5.970000     -3.4237099E-26
   5.980000     -3.3450322E-26
   5.990000     -3.2466668E-26
   6.000000     -3.1274498E-26
   6.010000     -2.9862102E-26
   6.020000     -2.8217727E-26
   6.030000     -2.6329635E-26
   6.040000     -2.4186121E-26
   6.050000     -2.1775592E-26
   6.060000     -1.9086614E-26
   6.070000     -1.6107953E-26
   6.080000     -1.2828647E-26
   6.090000     -9.2380758E-27
   6.100000     -5.3260175E-27
   6.110000     -1.0827172E-27
   6.120000      3.5010375E-27
   6.130000      8.4338337E-27
   6.140000      1.3723564E-26
   6.150000      1.9377327E-26
   6.160000      2.5401347E-26
   6.170000      3.1800897E-26
   6.180000      3.8580189E-26
   6.190000      4.5742297E-26
   6.200000      5.3289046E-26
   6.210000      6.1220900E-26
   6.220000      6.9536893E-26
   6.230000      7.8234498E-26
   6.240000      8.7309535E-26
   6.250000      9.6756058E-26
   6.260000      1.0656623E-25
   6.270000      1.1673025E-25
   6.280000      1.2723623E-25
   6.290000      1.3807006E-25
   6.300000      1.4921532E-25
   6.310000      1.6065319E-25
   6.320000      1.7236232E-25
   6.330000      1.8431874E-25
   6.340000      1.9649574E-25
   6.350000      2.0886377E-25
   6.360000      2.2139036E-25
   6.370000      2.3404004E-25
   6.380000      2.4677428E-25
   6.390000      2.5955126E-25
   6.400000      2.7232600E-25
   6.410000      2.8505013E-25
   6.420000      2.9767195E-25
   6.430000      3.1013630E-25
   6.440000      3.2238450E-25
   6.450000      3.3435441E-25
   6.460000      3.4598039E-25
   6.470000      3.5719324E-25
   6.480000      3.6792019E-25
   6.490000      3.7808496E-25
   6.500000      3.8760784E-25
   6.510000      3.9640559E-25
   6.520000      4.0439170E-25
   6.530000      4.1147631E-25
   6.540000      4.1756636E-25
   6.550000      4.2256567E-25
   6.560000      4.2637518E-25
   6.570000      4.2889307E-25
   6.580000      4.3001483E-25
   6.590000      4.2963352E-25
   6.600000      4.2764012E-25
   6.610000      4.2392360E-25
   6.620000      4.1837130E-25
   6.630000      4.1086918E-25
   6.640000      4.0130217E-25
   6.650000      3.8955453E-25
   6.660000      3.7551014E-25
   6.670000      3.5905297E-25
   6.680000      3.4006753E-25
   6.690000      3.1843931E-25
   6.700000      2.9405522E-25
   6.710000      2.6680415E-25
   6.720000      2.3657754E-25
   6.730000      2.0326991E-25
   6.740000      1.6677948E-25
   6.750000      1.2700873E-25
   6.760000      8.3865177E-26
   6.770000      3.7262017E-26
   6.780000     -1.2881252E-26
   6.790000     -6.6638101E-26
   6.800000     -1.2407413E-25
   6.810000     -1.8524625E-25
   6.820000     -2.5020193E-25
   6.830000     -3.1897845E-25
   6.840000     -3.9160202E-25
   6.850000     -4.6808684E-25
   6.860000     -5.4843429E-25
   6.870000     -6.3263203E-25
   6.880000     -7.2065318E-25
   6.890000     -8.1245524E-25
   6.900000     -9.0797939E-25
   6.910000     -1.0071495E-24
   6.920000     -1.1098710E-24
   6.930000     -1.2160305E-24
   6.940000     -1.3254940E-24
   6.950000     -1.4381071E-24
   6.960000     -1.5536935E-24
   6.970000     -1.6720540E-24
   6.980000     -1.7929659E-24
   6.990000     -1.9161826E-24
   7.000000     -2.0414318E-24
   7.010000     -2.1684157E-24
   7.020000     -2.2968103E-24
   7.030000     -2.4262642E-24
   7.040000     -2.5563978E-24
   7.050000     -2.6868042E-24
   7.060000     -2.8170467E-24