  -2.600000      0.0000000E+00
  -2.590000      0.0000000E+00
  -2.580000      0.0000000E+00
  -2.570000      0.0000000E+00
  -2.560000      0.0000000E+00
  -2.550000      0.0000000E+00
  -2.540000      0.0000000E+00
  -2.530000      0.0000000E+00
  -2.520000      0.0000000E+00
  -2.510000      0.0000000E+00
  -2.500000      0.0000000E+00
  -2.490000      0.0000000E+00
  -2.480000      0.0000000E+00
  -2.470000      0.0000000E+00
  -2.460000      0.0000000E+00
  -2.450000      0.0000000E+00
  -2.440000      0.0000000E+00
  -2.430000      0.0000000E+00
  -2.420000      0.0000000E+00
  -2.410000      0.0000000E+00
  -2.400000      0.0000000E+00
  -2.390000      0.0000000E+00
  -2.380000      0.0000000E+00
  -2.370000      0.0000000E+00
  -2.360000      0.0000000E+00
  -2.350000      0.0000000E+00
  -2.340000      0.0000000E+00
  -2.330000      0.0000000E+00
  -2.320000      0.0000000E+00
  -2.310000      0.0000000E+00
  -2.300000      0.0000000E+00
  -2.290000      0.0000000E+00
  -2.280000      0.0000000E+00
  -2.270000      0.0000000E+00
  -2.260000      0.0000000E+00
  -2.250000      0.0000000E+00
  -2.240000      0.0000000E+00
  -2.230000      0.0000000E+00
  -2.220000      0.0000000E+00
  -2.210000      0.0000000E+00
  -2.200000      0.0000000E+00
  -2.190000      0.0000000E+00
  -2.180000      0.0000000E+00
  -2.170000      0.0000000E+00
  -2.160000      0.0000000E+00
  -2.150000      0.0000000E+00
  -2.140000      0.0000000E+00
  -2.130000      0.0000000E+00
  -2.120000      0.0000000E+00
  -2.110000      0.0000000E+00
  -2.100000      0.0000000E+00
  -2.090000      0.0000000E+00
  -2.080000      0.0000000E+00
  -2.070000      0.0000000E+00
  -2.060000      0.0000000E+00
  -2.050000      0.0000000E+00
  -2.040000      0.0000000E+00
  -2.030000      0.0000000E+00
  -2.020000      0.0000000E+00
  -2.010000      0.0000000E+00
  -2.000000      0.0000000E+00
  -1.990000      0.0000000E+00
  -1.980000      0.0000000E+00
  -1.970000      0.0000000E+00
  -1.960000      0.0000000E+00
  -1.950000      0.0000000E+00
  -1.940000      0.0000000E+00
  -1.930000      0.0000000E+00
  -1.920000      0.0000000E+00
  -1.910000      0.0000000E+00
  -1.900000      0.0000000E+00
  -1.890000      0.0000000E+00
  -1.880000      0.0000000E+00
  -1.870000      0.0000000E+00
  -1.860000      0.0000000E+00
  -1.850000      0.0000000E+00
  -1.840000      0.0000000E+00
  -1.830000      0.0000000E+00
  -1.820000      0.0000000E+00
  -1.810000      0.0000000E+00
  -1.800000      0.0000000E+00
  -1.790000      0.0000000E+00
  -1.780000      0.0000000E+00
  -1.770000      0.0000000E+00
  -1.760000      0.0000000E+00
  -1.750000      0.0000000E+00
  -1.740000      0.0000000E+00
  -1.730000      0.0000000E+00
  -1.720000      0.0000000E+00
  -1.710000      0.0000000E+00
  -1.700000      0.0000000E+00
  -1.690000      0.0000000E+00
  -1.680000      0.0000000E+00
  -1.670000      0.0000000E+00
  -1.660000      0.0000000E+00
  -1.650000      0.0000000E+00
  -1.640000      0.0000000E+00
  -1.630000      0.0000000E+00
  -1.620000      0.0000000E+00
  -1.610000      0.0000000E+00
  -1.600000      0.0000000E+00
  -1.590000      0.0000000E+00
  -1.580000      0.0000000E+00
  -1.570000      0.0000000E+00
  -1.560000      0.0000000E+00
  -1.550000      0.0000000E+00
  -1.540000      0.0000000E+00
  -1.530000      0.0000000E+00
  -1.520000      0.0000000E+00
  -1.510000      0.0000000E+00
  -1.500000      0.0000000E+00
  -1.490000      0.0000000E+00
  -1.480000      0.0000000E+00
  -1.470000      0.0000000E+00
  -1.460000      0.0000000E+00
  -1.450000      0.0000000E+00
  -1.440000      0.0000000E+00
  -1.430000      0.0000000E+00
  -1.420000      0.0000000E+00
  -1.410000      0.0000000E+00
  -1.400000      0.0000000E+00
  -1.390000      0.0000000E+00
  -1.380000      0.0000000E+00
  -1.370000      0.0000000E+00
  -1.360000      0.0000000E+00
  -1.350000      0.0000000E+00
  -1.340000      0.0000000E+00
  -1.330000      0.0000000E+00
  -1.320000      0.0000000E+00
  -1.310000      0.0000000E+00
  -1.300000      0.0000000E+00
  -1.290000      0.0000000E+00
  -1.280000      0.0000000E+00
  -1.270000      0.0000000E+00
  -1.260000      0.0000000E+00
  -1.250000      0.0000000E+00
  -1.240000      0.0000000E+00
  -1.230000      0.0000000E+00
  -1.220000      0.0000000E+00
  -1.210000      0.0000000E+00
  -1.200000      0.0000000E+00
  -1.190000      0.0000000E+00
  -1.180000      0.0000000E+00
  -1.170000      0.0000000E+00
  -1.160000      0.0000000E+00
  -1.150000      0.0000000E+00
  -1.140000      0.0000000E+00
  -1.130000      0.0000000E+00
  -1.120000      0.0000000E+00
  -1.110000      0.0000000E+00
  -1.100000      0.0000000E+00
  -1.090000      0.0000000E+00
  -1.080000      0.0000000E+00
  -1.070000      0.0000000E+00
  -1.060000      0.0000000E+00
  -1.050000      0.0000000E+00
  -1.040000      0.0000000E+00
  -1.030000      0.0000000E+00
  -1.020000      0.0000000E+00
  -1.010000      0.0000000E+00
  -1.000000      0.0000000E+00
 -0.9900000      0.0000000E+00
 -0.9800000      0.0000000E+00
 -0.9700000      0.0000000E+00
 -0.9600000      0.0000000E+00
 -0.9500000      0.0000000E+00
 -0.9400000      0.0000000E+00
 -0.9300000      0.0000000E+00
 -0.9200000      0.0000000E+00
 -0.9100000      0.0000000E+00
 -0.9000000      0.0000000E+00
 -0.8900000      0.0000000E+00
 -0.8800000      0.0000000E+00
 -0.8700000      0.0000000E+00
 -0.8600000      0.0000000E+00
 -0.8500000      0.0000000E+00
 -0.8400000      0.0000000E+00
 -0.8300000      0.0000000E+00
 -0.8200000      0.0000000E+00
 -0.8100000      0.0000000E+00
 -0.8000000      0.0000000E+00
 -0.7900000      0.0000000E+00
 -0.7800000      0.0000000E+00
 -0.7700000      0.0000000E+00
 -0.7600000      0.0000000E+00
 -0.7500000      0.0000000E+00
 -0.7400000      0.0000000E+00
 -0.7300000      0.0000000E+00
 -0.7200000      0.0000000E+00
 -0.7100000      0.0000000E+00
 -0.7000000      0.0000000E+00
 -0.6900000      0.0000000E+00
 -0.6800000      0.0000000E+00
 -0.6700000      0.0000000E+00
 -0.6600000      0.0000000E+00
 -0.6500000      0.0000000E+00
 -0.6400000      0.0000000E+00
 -0.6300000      0.0000000E+00
 -0.6200000      0.0000000E+00
 -0.6100000      0.0000000E+00
 -0.6000000      0.0000000E+00
 -0.5900000      0.0000000E+00
 -0.5800000      0.0000000E+00
 -0.5700000      0.0000000E+00
 -0.5600000      0.0000000E+00
 -0.5500000      0.0000000E+00
 -0.5400000      0.0000000E+00
 -0.5300000      0.0000000E+00
 -0.5200000      0.0000000E+00
 -0.5100000      0.0000000E+00
 -0.5000000      0.0000000E+00
 -0.4900000      0.0000000E+00
 -0.4800000      0.0000000E+00
 -0.4700000      0.0000000E+00
 -0.4600000      0.0000000E+00
 -0.4500000      0.0000000E+00
 -0.4400000      0.0000000E+00
 -0.4300000      0.0000000E+00
 -0.4200000      0.0000000E+00
 -0.4100000      0.0000000E+00
 -0.4000000      0.0000000E+00
 -0.3900000      0.0000000E+00
 -0.3800000      0.0000000E+00
 -0.3700000      0.0000000E+00
 -0.3600000      0.0000000E+00
 -0.3500000      0.0000000E+00
 -0.3400000      0.0000000E+00
 -0.3300000      0.0000000E+00
 -0.3200000      0.0000000E+00
 -0.3100000      0.0000000E+00
 -0.3000000      0.0000000E+00
 -0.2900000      0.0000000E+00
 -0.2800000      0.0000000E+00
 -0.2700000      0.0000000E+00
 -0.2600000      0.0000000E+00
 -0.2500000      0.0000000E+00
 -0.2400000      0.0000000E+00
 -0.2300000      0.0000000E+00
 -0.2200000      0.0000000E+00
 -0.2100000      0.0000000E+00
 -0.2000000      0.0000000E+00
 -0.1900000      0.0000000E+00
 -0.1800000      0.0000000E+00
 -0.1700000      0.0000000E+00
 -0.1600000      0.0000000E+00
 -0.1500000      0.0000000E+00
 -0.1400000      0.0000000E+00
 -0.1300000      0.0000000E+00
 -0.1200000      0.0000000E+00
 -0.1100000      0.0000000E+00
 -0.1000000      0.0000000E+00
 -9.0000004E-02  0.0000000E+00
 -7.9999998E-02  0.0000000E+00
 -7.0000000E-02  0.0000000E+00
 -5.9999999E-02  0.0000000E+00
 -5.0000001E-02  0.0000000E+00
 -3.9999999E-02  0.0000000E+00
 -2.9999999E-02  0.0000000E+00
 -2.0000000E-02  0.0000000E+00
 -9.9999998E-03  0.0000000E+00
 -3.4694470E-17  0.0000000E+00
  9.9999998E-03  0.0000000E+00
  2.0000000E-02  0.0000000E+00
  2.9999999E-02  0.0000000E+00
  3.9999999E-02  0.0000000E+00
  5.0000001E-02  0.0000000E+00
  5.9999999E-02  0.0000000E+00
  7.0000000E-02  0.0000000E+00
  7.9999998E-02  0.0000000E+00
  9.0000004E-02  0.0000000E+00
  0.1000000      0.0000000E+00
  0.1100000      0.0000000E+00
  0.1200000      0.0000000E+00
  0.1300000      0.0000000E+00
  0.1400000      0.0000000E+00
  0.1500000      0.0000000E+00
  0.1600000      0.0000000E+00
  0.1700000      0.0000000E+00
  0.1800000      0.0000000E+00
  0.1900000      0.0000000E+00
  0.2000000      0.0000000E+00
  0.2100000      0.0000000E+00
  0.2200000      0.0000000E+00
  0.2300000      0.0000000E+00
  0.2400000      0.0000000E+00
  0.2500000      0.0000000E+00
  0.2600000      0.0000000E+00
  0.2700000      0.0000000E+00
  0.2800000      0.0000000E+00
  0.2900000      0.0000000E+00
  0.3000000      0.0000000E+00
  0.3100000      0.0000000E+00
  0.3200000      0.0000000E+00
  0.3300000      0.0000000E+00
  0.3400000      0.0000000E+00
  0.3500000      0.0000000E+00
  0.3600000      0.0000000E+00
  0.3700000      0.0000000E+00
  0.3800000      0.0000000E+00
  0.3900000      0.0000000E+00
  0.4000000      0.0000000E+00
  0.4100000      0.0000000E+00
  0.4200000      0.0000000E+00
  0.4300000      0.0000000E+00
  0.4400000      0.0000000E+00
  0.4500000      0.0000000E+00
  0.4600000      0.0000000E+00
  0.4700000      0.0000000E+00
  0.4800000      0.0000000E+00
  0.4900000      0.0000000E+00
  0.5000000      0.0000000E+00
  0.5100000      0.0000000E+00
  0.5200000      0.0000000E+00
  0.5300000      0.0000000E+00
  0.5400000      0.0000000E+00
  0.5500000      0.0000000E+00
  0.5600000      0.0000000E+00
  0.5700000      0.0000000E+00
  0.5800000      0.0000000E+00
  0.5900000      0.0000000E+00
  0.6000000      0.0000000E+00
  0.6100000      0.0000000E+00
  0.6200000      0.0000000E+00
  0.6300000     -1.1838238E-38
  0.6400000     -1.4973622E-38
  0.6500000     -1.8412934E-38
  0.6600000     -2.2219035E-38
  0.6700000     -2.6581727E-38
  0.6800000     -3.2781604E-38
  0.6900000     -3.7810320E-38
  0.7000000     -4.1946550E-38
  0.7100000     -4.5960594E-38
  0.7200000     -4.9166911E-38
  0.7300000     -5.5130058E-38
  0.7400000     -6.4787728E-38
  0.7500000     -8.0124262E-38
  0.7600000     -9.8129658E-38
  0.7700000     -1.1162953E-37
  0.7800000     -1.2072001E-37
  0.7900000     -1.3230691E-37
  0.8000000     -1.4770356E-37
  0.8100000     -1.6338485E-37
  0.8200000     -1.7686410E-37
  0.8300000     -1.8878598E-37
  0.8400000     -1.9788940E-37
  0.8500000     -2.0627255E-37
  0.8600000     -2.1760876E-37
  0.8700000     -2.2981068E-37
  0.8800000     -2.4459082E-37
  0.8900000     -2.5979959E-37
  0.9000000     -2.7180226E-37
  0.9100000     -2.7821528E-37
  0.9200000     -2.3217336E-37
  0.9300000     -1.3322779E-37
  0.9400000     -2.3672872E-38
  0.9500000      1.0241956E-37
  0.9600000      2.4657255E-37
  0.9700000      3.2944231E-37
  0.9800000      3.3437042E-37
  0.9900000      3.0752932E-37
   1.000000      1.1953584E-37
   1.010000     -2.5332855E-37
   1.020000     -6.7819048E-37
   1.030000     -1.2002094E-36
   1.040000     -1.8500822E-36
   1.050000     -2.5715560E-36
   1.060000     -3.3671072E-36
   1.070000     -4.2143966E-36
   1.080000     -5.1265623E-36
   1.090000     -5.4541776E-36
   1.100000     -4.9584295E-36
   1.110000     -4.1893502E-36
   1.120000     -3.1220496E-36
   1.130000     -1.8395531E-36
   1.140000     -5.9972220E-37
   1.150000      3.7256692E-37
   1.160000      1.0557235E-36
   1.170000      1.5748383E-36
   1.180000      2.4848393E-36
   1.190000      3.5305726E-36
   1.200000      4.2886065E-36
   1.210000      4.4351666E-36
   1.220000      4.0299019E-36
   1.230000      4.1267805E-36
   1.240000      4.6832243E-36
   1.250000      5.4571396E-36
   1.260000      6.5819497E-36
   1.270000      8.2622825E-36
   1.280000      1.0353378E-35
   1.290000      1.2734379E-35
   1.300000      1.5798083E-35
   1.310000      1.9566510E-35
   1.320000      2.3094135E-35
   1.330000      2.5840201E-35
   1.340000      2.8125611E-35
   1.350000      2.9534043E-35
   1.360000      3.0395440E-35
   1.370000      3.1693512E-35
   1.380000      3.2491364E-35
   1.390000      3.2211111E-35
   1.400000      3.1349674E-35
   1.410000      2.9887426E-35
   1.420000      2.8280905E-35
   1.430000      2.6629794E-35
   1.440000      2.4496146E-35
   1.450000      2.1847891E-35
   1.460000      1.8429384E-35
   1.470000      1.4395220E-35
   1.480000      9.9208961E-36
   1.490000      4.8040016E-36
   1.500000     -8.9915515E-37
   1.510000     -8.9410817E-36
   1.520000     -1.9863329E-35
   1.530000     -3.2008252E-35
   1.540000     -4.4855341E-35
   1.550000     -5.8156762E-35
   1.560000     -7.1454031E-35
   1.570000     -8.3067680E-35
   1.580000     -9.3299130E-35
   1.590000     -1.0381989E-34
   1.600000     -1.1448833E-34
   1.610000     -1.2529052E-34
   1.620000     -1.3752492E-34
   1.630000     -1.5172324E-34
   1.640000     -1.6817878E-34
   1.650000     -1.8622697E-34
   1.660000     -2.0356318E-34
   1.670000     -2.1688456E-34
   1.680000     -2.2605321E-34
   1.690000     -2.3221905E-34
   1.700000     -2.3680343E-34
   1.710000     -2.4336322E-34
   1.720000     -2.4879398E-34
   1.730000     -2.5056238E-34
   1.740000     -2.4824896E-34
   1.750000     -2.3889262E-34
   1.760000     -2.1971721E-34
   1.770000     -1.9229587E-34
   1.780000     -1.5468417E-34
   1.790000     -1.0623079E-34
   1.800000     -5.9641748E-35
   1.810000     -2.1688614E-35
   1.820000      1.3157184E-35
   1.830000      4.7128272E-35
   1.840000      8.4450103E-35
   1.850000      1.2832143E-34
   1.860000      1.7724689E-34
   1.870000      2.2352128E-34
   1.880000      2.6416673E-34
   1.890000      3.1022295E-34
   1.900000      3.6759302E-34
   1.910000      4.4688975E-34
   1.920000      5.4513500E-34
   1.930000      6.5185556E-34
   1.940000      7.7447895E-34
   1.950000      9.1020686E-34
   1.960000      1.0416816E-33
   1.970000      1.1668412E-33
   1.980000      1.2888357E-33
   1.990000      1.3953497E-33
   2.000000      1.4866801E-33
   2.010000      1.5668658E-33
   2.020000      1.6316082E-33
   2.030000      1.6796690E-33
   2.040000      1.7099029E-33
   2.050000      1.7321062E-33
   2.060000      1.7366063E-33
   2.070000      1.7143535E-33
   2.080000      1.6886290E-33
   2.090000      1.6678869E-33
   2.100000      1.6482302E-33
   2.110000      1.6291143E-33
   2.120000      1.6088471E-33
   2.130000      1.5802617E-33
   2.140000      1.5306181E-33
   2.150000      1.4545881E-33
   2.160000      1.3456368E-33
   2.170000      1.1932990E-33
   2.180000      9.9508315E-34
   2.190000      7.4855912E-34
   2.200000      4.5033501E-34
   2.210000      1.0172447E-34
   2.220000     -2.9337850E-34
   2.230000     -7.2968321E-34
   2.240000     -1.2012434E-33
   2.250000     -1.7013045E-33
   2.260000     -2.2239451E-33
   2.270000     -2.7655913E-33
   2.280000     -3.3250143E-33
   2.290000     -3.9038402E-33
   2.300000     -4.5027326E-33
   2.310000     -5.1231137E-33
   2.320000     -5.7727293E-33
   2.330000     -6.4574041E-33
   2.340000     -7.1792340E-33
   2.350000     -7.9393403E-33
   2.360000     -8.7362997E-33
   2.370000     -9.5563283E-33
   2.380000     -1.0408438E-32
   2.390000     -1.1284035E-32
   2.400000     -1.2154315E-32
   2.410000     -1.3010778E-32
   2.420000     -1.3835596E-32
   2.430000     -1.4614119E-32
   2.440000     -1.5332349E-32
   2.450000     -1.5977772E-32
   2.460000     -1.6540494E-32
   2.470000     -1.7012903E-32
   2.480000     -1.7389170E-32
   2.490000     -1.7664625E-32
   2.500000     -1.7834747E-32
   2.510000     -1.7894524E-32
   2.520000     -1.7837144E-32
   2.530000     -1.7652869E-32
   2.540000     -1.7330016E-32
   2.550000     -1.6854322E-32
   2.560000     -1.6208383E-32
   2.570000     -1.5372984E-32
   2.580000     -1.4328675E-32
   2.590000     -1.3056499E-32
   2.600000     -1.1539014E-32
   2.610000     -9.7612963E-33
   2.620000     -7.7122157E-33
   2.630000     -5.3850932E-33
   2.640000     -2.7772217E-33
   2.650000      1.0989994E-34
   2.660000      3.2716939E-33
   2.670000      6.7010444E-33
   2.680000      1.0389027E-32
   2.690000      1.4326204E-32
   2.700000      1.8503129E-32
   2.710000      2.2910943E-32
   2.720000      2.7541512E-32
   2.730000      3.2386497E-32
   2.740000      3.7438220E-32
   2.750000      4.2687654E-32
   2.760000      4.8122032E-32
   2.770000      5.3725217E-32
   2.780000      5.9476112E-32
   2.790000      6.5347776E-32
   2.800000      7.1306763E-32
   2.810000      7.7313086E-32
   2.820000      8.3320485E-32
   2.830000      8.9276210E-32
   2.840000      9.5124835E-32
   2.850000      1.0080749E-31
   2.860000      1.0626121E-31
   2.870000      1.1142281E-31
   2.880000      1.1622880E-31
   2.890000      1.2061606E-31
   2.900000      1.2452202E-31
   2.910000      1.2788448E-31
   2.920000      1.3064107E-31
   2.930000      1.3272873E-31
   2.940000      1.3408302E-31
   2.950000      1.3463742E-31
   2.960000      1.3432306E-31
   2.970000      1.3306853E-31
   2.980000      1.3080067E-31
   2.990000      1.2744506E-31
   3.000000      1.2292722E-31
   3.010000      1.1717430E-31
   3.020000      1.1011685E-31
   3.030000      1.0169055E-31
   3.040000      9.1837877E-32
   3.050000      8.0509661E-32
   3.060000      6.7666122E-32
   3.070000      5.3277730E-32
   3.080000      3.7325457E-32
   3.090000      1.9800557E-32
   3.100000      7.0486641E-34
   3.110000     -1.9949813E-32
   3.120000     -4.2142272E-32
   3.130000     -6.5841596E-32
   3.140000     -9.1007102E-32
   3.150000     -1.1758771E-31
   3.160000     -1.4552089E-31
   3.170000     -1.7473131E-31
   3.180000     -2.0512917E-31
   3.190000     -2.3660813E-31
   3.200000     -2.6904360E-31
   3.210000     -3.0229093E-31
   3.220000     -3.3618400E-31
   3.230000     -3.7053423E-31
   3.240000     -4.0513004E-31
   3.250000     -4.3973706E-31
   3.260000     -4.7409864E-31
   3.270000     -5.0793694E-31
   3.280000     -5.4095437E-31
   3.290000     -5.7283495E-31
   3.300000     -6.0324640E-31
   3.310000     -6.3184114E-31
   3.320000     -6.5825803E-31
   3.330000     -6.8212329E-31
   3.340000     -7.0305151E-31
   3.350000     -7.2064640E-31
   3.360000     -7.3450163E-31
   3.370000     -7.4420119E-31
   3.380000     -7.4932061E-31
   3.390000     -7.4942810E-31
   3.400000     -7.4408656E-31
   3.410000     -7.3285589E-31
   3.420000     -7.1529565E-31
   3.430000     -6.9096860E-31
   3.440000     -6.5944471E-31
   3.450000     -6.2030512E-31
   3.460000     -5.7314678E-31
   3.470000     -5.1758685E-31
   3.480000     -4.5326757E-31
   3.490000     -3.7985994E-31
   3.500000     -2.9706863E-31
   3.510000     -2.0463551E-31
   3.520000     -1.0234343E-31
   3.530000      9.9798412E-33
   3.540000      1.3245763E-31
   3.550000      2.6516007E-31
   3.560000      4.0810009E-31
   3.570000      5.6122840E-31
   3.580000      7.2442783E-31
   3.590000      8.9750762E-31
   3.600000      1.0801969E-30
   3.610000      1.2721382E-30
   3.620000      1.4728811E-30
   3.630000      1.6818749E-30
   3.640000      1.8984631E-30
   3.650000      2.1218771E-30
   3.660000      2.3512309E-30
   3.670000      2.5855173E-30
   3.680000      2.8236040E-30
   3.690000      3.0642311E-30
   3.700000      3.3060100E-30
   3.710000      3.5474215E-30
   3.720000      3.7868161E-30
   3.730000      4.0224145E-30
   3.740000      4.2523081E-30
   3.750000      4.4744592E-30
   3.760000      4.6867024E-30
   3.770000      4.8867467E-30
   3.780000      5.0721776E-30
   3.790000      5.2404584E-30
   3.800000      5.3889322E-30
   3.810000      5.5148282E-30
   3.820000      5.6152647E-30
   3.830000      5.6872550E-30
   3.840000      5.7277157E-30
   3.850000      5.7334731E-30
   3.860000      5.7012751E-30
   3.870000      5.6278016E-30
   3.880000      5.5096771E-30
   3.890000      5.3434851E-30
   3.900000      5.1257862E-30
   3.910000      4.8531321E-30
   3.920000      4.5220835E-30
   3.930000      4.1292314E-30
   3.940000      3.6712193E-30
   3.950000      3.1447628E-30
   3.960000      2.5466741E-30
   3.970000      1.8738873E-30
   3.980000      1.1234851E-30
   3.990000      2.9273127E-31
   4.000000     -6.2090138E-31
   4.010000     -1.6196975E-30
   4.020000     -2.7056619E-30
   4.030000     -3.8804900E-30
   4.040000     -5.1455273E-30
   4.050000     -6.5017296E-30
   4.060000     -7.9496279E-30
   4.070000     -9.4892855E-30
   4.080000     -1.1120262E-29
   4.090000     -1.2841571E-29
   4.100000     -1.4651647E-29
   4.110000     -1.6548300E-29
   4.120000     -1.8528680E-29
   4.130000     -2.0589241E-29
   4.140000     -2.2725706E-29
   4.150000     -2.4933026E-29
   4.160000     -2.7205352E-29
   4.170000     -2.9535998E-29
   4.180000     -3.1917399E-29
   4.190000     -3.4341082E-29
   4.200000     -3.6797636E-29
   4.210000     -3.9276669E-29
   4.220000     -4.1766791E-29
   4.230000     -4.4255559E-29
   4.240000     -4.6729485E-29
   4.250000     -4.9173972E-29
   4.260000     -5.1573322E-29
   4.270000     -5.3910697E-29
   4.280000     -5.6168116E-29
   4.290000     -5.8326433E-29
   4.300000     -6.0365349E-29
   4.310000     -6.2263401E-29
   4.320000     -6.3997960E-29
   4.330000     -6.5545264E-29
   4.340000     -6.6880427E-29
   4.350000     -6.7977461E-29
   4.360000     -6.8809324E-29
   4.370000     -6.9347977E-29
   4.380000     -6.9564397E-29
   4.390000     -6.9428673E-29
   4.400000     -6.8910056E-29
   4.410000     -6.7977064E-29
   4.420000     -6.6597544E-29
   4.430000     -6.4738805E-29
   4.440000     -6.2367696E-29
   4.450000     -5.9450773E-29
   4.460000     -5.5954368E-29
   4.470000     -5.1844734E-29
   4.480000     -4.7088265E-29
   4.490000     -4.1651614E-29
   4.500000     -3.5501846E-29
   4.510000     -2.8606659E-29
   4.520000     -2.0934561E-29
   4.530000     -1.2455088E-29
   4.540000     -3.1389811E-30
   4.550000      7.0415693E-30
   4.560000      1.8112655E-29
   4.570000      3.0098457E-29
   4.580000      4.3020945E-29
   4.590000      5.6899584E-29
   4.600000      7.1751068E-29
   4.610000      8.7589055E-29
   4.620000      1.0442380E-28
   4.630000      1.2226187E-28
   4.640000      1.4110581E-28
   4.650000      1.6095373E-28
   4.660000      1.8179899E-28
   4.670000      2.0362978E-28
   4.680000      2.2642884E-28
   4.690000      2.5017293E-28
   4.700000      2.7483266E-28
   4.710000      3.0037177E-28
   4.720000      3.2674704E-28
   4.730000      3.5390778E-28
   4.740000      3.8179546E-28
   4.750000      4.1034335E-28
   4.760000      4.3947598E-28
   4.770000      4.6910920E-28
   4.780000      4.9914923E-28
   4.790000      5.2949274E-28
   4.800000      5.6002644E-28
   4.810000      5.9062681E-28
   4.820000      6.2115959E-28
   4.830000      6.5147970E-28
   4.840000      6.8143114E-28
   4.850000      7.1084639E-28
   4.860000      7.3954665E-28
   4.870000      7.6734129E-28
   4.880000      7.9402808E-28
   4.890000      8.1939267E-28
   4.900000      8.4320901E-28
   4.910000      8.6523895E-28
   4.920000      8.8523261E-28
   4.930000      9.0292834E-28
   4.940000      9.1805248E-28
   4.950000      9.3032017E-28
   4.960000      9.3943540E-28
   4.970000      9.4509138E-28
   4.980000      9.4697080E-28
   4.990000      9.4474635E-28
   5.000000      9.3808138E-28
   5.010000      9.2663047E-28
   5.020000      9.1004061E-28
   5.030000      8.8795125E-28
   5.040000      8.5999609E-28
   5.050000      8.2580361E-28
   5.060000      7.8499821E-28
   5.070000      7.3720178E-28
   5.080000      6.8203506E-28
   5.090000      6.1911926E-28
   5.100000      5.4807748E-28
   5.110000      4.6853658E-28
   5.120000      3.8012898E-28
   5.130000      2.8249502E-28
   5.140000      1.7528473E-28
   5.150000      5.8160484E-29
   5.160000     -6.9201058E-29
   5.170000     -2.0710642E-28
   5.180000     -3.5584235E-28
   5.190000     -5.1567318E-28
   5.200000     -6.8683852E-28
   5.210000     -8.6954967E-28
   5.220000     -1.0639864E-27
   5.230000     -1.2702937E-27
   5.240000     -1.4885796E-27
   5.250000     -1.7189104E-27
   5.260000     -1.9613077E-27
   5.270000     -2.2157452E-27
   5.280000     -2.4821437E-27
   5.290000     -2.7603689E-27
   5.300000     -3.0502262E-27
   5.310000     -3.3514575E-27
   5.320000     -3.6637366E-27
   5.330000     -3.9866657E-27
   5.340000     -4.3197715E-27
   5.350000     -4.6625000E-27
   5.360000     -5.0142125E-27
   5.370000     -5.3741831E-27
   5.380000     -5.7415928E-27
   5.390000     -6.1155255E-27
   5.400000     -6.4949653E-27
   5.410000     -6.8787924E-27
   5.420000     -7.2657787E-27
   5.430000     -7.6545847E-27
   5.440000     -8.0437581E-27
   5.450000     -8.4317259E-27
   5.460000     -8.8167971E-27
   5.470000     -9.1971560E-27
   5.480000     -9.5708642E-27
   5.490000     -9.9358541E-27
   5.500000     -1.0289929E-26
   5.510000     -1.0630764E-26
   5.520000     -1.0955901E-26
   5.530000     -1.1262753E-26
   5.540000     -1.1548605E-26
   5.550000     -1.1810608E-26
   5.560000     -1.2045785E-26
   5.570000     -1.2251031E-26
   5.580000     -1.2423123E-26
   5.590000     -1.2558716E-26
   5.600000     -1.2654345E-26
   5.610000     -1.2706433E-26
   5.620000     -1.2711296E-26
   5.630000     -1.2665153E-26
   5.640000     -1.2564127E-26
   5.650000     -1.2404258E-26
   5.660000     -1.2181508E-26
   5.670000     -1.1891780E-26
   5.680000     -1.1530920E-26
   5.690000     -1.1094732E-26
   5.700000     -1.0578989E-26
   5.710000     -9.9794533E-27
   5.720000     -9.2918848E-27
   5.730000     -8.5120603E-27
   5.740000     -7.6357969E-27
   5.750000     -6.6589636E-27
   5.760000     -5.5775089E-27
   5.770000     -4.3874780E-27
   5.780000     -3.0850362E-27
   5.790000     -1.6664964E-27
   5.800000     -1.2834483E-28
   5.810000      1.5327352E-27
   5.820000      3.3198368E-27
   5.830000      5.2357969E-27
   5.840000      7.2831668E-27
   5.850000      9.4641800E-27
   5.860000      1.1780720E-26
   5.870000      1.4234288E-26
   5.880000      1.6825969E-26
   5.890000      1.9556396E-26
   5.900000      2.2425716E-26
   5.910000      2.5433543E-26
   5.920000      2.8578930E-26
   5.930000      3.1860326E-26
   5.940000      3.5275542E-26
   5.950000      3.8821697E-26
   5.960000      4.2495204E-26
   5.970000      4.6291705E-26
   5.980000      5.0206048E-26
   5.990000      5.4232240E-26
   6.000000      5.8363393E-26
   6.010000      6.2591725E-26
   6.020000      6.6908483E-26
   6.030000      7.1303942E-26
   6.040000      7.5767317E-26
   6.050000      8.0286775E-26
   6.060000      8.4849386E-26
   6.070000      8.9441080E-26
   6.080000      9.4046635E-26
   6.090000      9.8649632E-26
   6.100000      1.0323243E-25
   6.110000      1.0777617E-25
   6.120000      1.1226075E-25
   6.130000      1.1666476E-25
   6.140000      1.2096556E-25
   6.150000      1.2513917E-25
   6.160000      1.2916037E-25
   6.170000      1.3300259E-25
   6.180000      1.3663802E-25
   6.190000      1.4003755E-25
   6.200000      1.4317083E-25
   6.210000      1.4600628E-25
   6.220000      1.4851113E-25
   6.230000      1.5065142E-25
   6.240000      1.5239208E-25
   6.250000      1.5369695E-25
   6.260000      1.5452889E-25
   6.270000      1.5484972E-25
   6.280000      1.5462052E-25
   6.290000      1.5380144E-25
   6.300000      1.5235198E-25
   6.310000      1.5023103E-25
   6.320000      1.4739700E-25
   6.330000      1.4380791E-25
   6.340000      1.3942161E-25
   6.350000      1.3419580E-25
   6.360000      1.2808817E-25
   6.370000      1.2105660E-25
   6.380000      1.1305930E-25
   6.390000      1.0405515E-25
   6.400000      9.4003691E-26
   6.410000      8.2865370E-26
   6.420000      7.0601806E-26
   6.430000      5.7175954E-26
   6.440000      4.2552377E-26
   6.450000      2.6697490E-26
   6.460000      9.5798198E-27
   6.470000     -8.8297733E-27
   6.480000     -2.8557859E-26
   6.490000     -4.9628087E-26
   6.500000     -7.2060878E-26
   6.510000     -9.5873169E-26
   6.520000     -1.2107809E-25
   6.530000     -1.4768475E-25
   6.540000     -1.7569779E-25
   6.550000     -2.0511720E-25
   6.560000     -2.3593787E-25
   6.570000     -2.6814928E-25
   6.580000     -3.0173513E-25
   6.590000     -3.3667314E-25
   6.600000     -3.7293466E-25
   6.610000     -4.1048427E-25
   6.620000     -4.4927946E-25
   6.630000     -4.8927027E-25
   6.640000     -5.3039921E-25
   6.650000     -5.7260051E-25
   6.660000     -6.1580016E-25
   6.670000     -6.5991558E-25
   6.680000     -7.0485511E-25
   6.690000     -7.5051803E-25
   6.700000     -7.9679399E-25
   6.710000     -8.4356289E-25
   6.720000     -8.9069476E-25
   6.730000     -9.3804939E-25
   6.740000     -9.8547601E-25
   6.750000     -1.0328134E-24
   6.760000     -1.0798896E-24
   6.770000     -1.1265220E-24
   6.780000     -1.1725168E-24
   6.790000     -1.2176692E-24
   6.800000     -1.2617640E-24
   6.810000     -1.3045744E-24
   6.820000     -1.3458633E-24
   6.830000     -1.3853824E-24
   6.840000     -1.4228730E-24
   6.850000     -1.4580663E-24
   6.860000     -1.4906825E-24
   6.870000     -1.5204330E-24
   6.880000     -1.5470187E-24
   6.890000     -1.5701319E-24
   6.900000     -1.5894562E-24
   6.910000     -1.6046671E-24
   6.920000     -1.6154326E-24
   6.930000     -1.6214136E-24
   6.940000     -1.6222650E-24
   6.950000     -1.6176365E-24
   6.960000     -1.6071727E-24
   6.970000     -1.5905152E-24
   6.980000     -1.5673029E-24
   6.990000     -1.5371732E-24
   7.000000     -1.4997630E-24
   7.010000     -1.4547108E-24
   7.020000     -1.4016561E-24
   7.030000     -1.3402430E-24
   7.040000     -1.2701206E-24
   7.050000     -1.1909434E-24
   7.060000     -1.1023745E-24