  -2.600000      0.0000000E+00
  -2.590000      0.0000000E+00
  -2.580000      0.0000000E+00
  -2.570000      0.0000000E+00
  -2.560000      0.0000000E+00
  -2.550000      0.0000000E+00
  -2.540000      0.0000000E+00
  -2.530000      0.0000000E+00
  -2.520000      0.0000000E+00
  -2.510000      0.0000000E+00
  -2.500000      0.0000000E+00
  -2.490000      0.0000000E+00
  -2.480000      0.0000000E+00
  -2.470000      0.0000000E+00
  -2.460000      0.0000000E+00
  -2.450000      0.0000000E+00
  -2.440000      0.0000000E+00
  -2.430000      0.0000000E+00
  -2.420000      0.0000000E+00
  -2.410000      0.0000000E+00
  -2.400000      0.0000000E+00
  -2.390000      0.0000000E+00
  -2.380000      0.0000000E+00
  -2.370000      0.0000000E+00
  -2.360000      0.0000000E+00
  -2.350000      0.0000000E+00
  -2.340000      0.0000000E+00
  -2.330000      0.0000000E+00
  -2.320000      0.0000000E+00
  -2.310000      0.0000000E+00
  -2.300000      0.0000000E+00
  -2.290000      0.0000000E+00
  -2.280000      0.0000000E+00
  -2.270000      0.0000000E+00
  -2.260000      0.0000000E+00
  -2.250000      0.0000000E+00
  -2.240000      0.0000000E+00
  -2.230000      0.0000000E+00
  -2.220000      0.0000000E+00
  -2.210000      0.0000000E+00
  -2.200000      0.0000000E+00
  -2.190000      0.0000000E+00
  -2.180000      0.0000000E+00
  -2.170000      0.0000000E+00
  -2.160000      0.0000000E+00
  -2.150000      0.0000000E+00
  -2.140000      0.0000000E+00
  -2.130000      0.0000000E+00
  -2.120000      0.0000000E+00
  -2.110000      0.0000000E+00
  -2.100000      0.0000000E+00
  -2.090000      0.0000000E+00
  -2.080000      0.0000000E+00
  -2.070000      0.0000000E+00
  -2.060000      0.0000000E+00
  -2.050000      0.0000000E+00
  -2.040000      0.0000000E+00
  -2.030000      0.0000000E+00
  -2.020000      0.0000000E+00
  -2.010000      0.0000000E+00
  -2.000000      0.0000000E+00
  -1.990000      0.0000000E+00
  -1.980000      0.0000000E+00
  -1.970000      0.0000000E+00
  -1.960000      0.0000000E+00
  -1.950000      0.0000000E+00
  -1.940000      0.0000000E+00
  -1.930000      0.0000000E+00
  -1.920000      0.0000000E+00
  -1.910000      0.0000000E+00
  -1.900000      0.0000000E+00
  -1.890000      0.0000000E+00
  -1.880000      0.0000000E+00
  -1.870000      0.0000000E+00
  -1.860000      0.0000000E+00
  -1.850000      0.0000000E+00
  -1.840000      0.0000000E+00
  -1.830000      0.0000000E+00
  -1.820000      0.0000000E+00
  -1.810000      0.0000000E+00
  -1.800000      0.0000000E+00
  -1.790000      0.0000000E+00
  -1.780000      0.0000000E+00
  -1.770000      0.0000000E+00
  -1.760000      0.0000000E+00
  -1.750000      0.0000000E+00
  -1.740000      0.0000000E+00
  -1.730000      0.0000000E+00
  -1.720000      0.0000000E+00
  -1.710000      0.0000000E+00
  -1.700000      0.0000000E+00
  -1.690000      0.0000000E+00
  -1.680000      0.0000000E+00
  -1.670000      0.0000000E+00
  -1.660000      0.0000000E+00
  -1.650000      0.0000000E+00
  -1.640000      0.0000000E+00
  -1.630000      0.0000000E+00
  -1.620000      0.0000000E+00
  -1.610000      0.0000000E+00
  -1.600000      0.0000000E+00
  -1.590000      0.0000000E+00
  -1.580000      0.0000000E+00
  -1.570000      0.0000000E+00
  -1.560000      0.0000000E+00
  -1.550000      0.0000000E+00
  -1.540000      0.0000000E+00
  -1.530000      0.0000000E+00
  -1.520000      0.0000000E+00
  -1.510000      0.0000000E+00
  -1.500000      0.0000000E+00
  -1.490000      0.0000000E+00
  -1.480000      0.0000000E+00
  -1.470000      0.0000000E+00
  -1.460000      0.0000000E+00
  -1.450000      0.0000000E+00
  -1.440000      0.0000000E+00
  -1.430000      0.0000000E+00
  -1.420000      0.0000000E+00
  -1.410000      0.0000000E+00
  -1.400000      0.0000000E+00
  -1.390000      0.0000000E+00
  -1.380000      0.0000000E+00
  -1.370000      0.0000000E+00
  -1.360000      0.0000000E+00
  -1.350000      0.0000000E+00
  -1.340000      0.0000000E+00
  -1.330000      0.0000000E+00
  -1.320000      0.0000000E+00
  -1.310000      0.0000000E+00
  -1.300000      0.0000000E+00
  -1.290000      0.0000000E+00
  -1.280000      0.0000000E+00
  -1.270000      0.0000000E+00
  -1.260000      0.0000000E+00
  -1.250000      0.0000000E+00
  -1.240000      0.0000000E+00
  -1.230000      0.0000000E+00
  -1.220000      0.0000000E+00
  -1.210000      0.0000000E+00
  -1.200000      0.0000000E+00
  -1.190000      0.0000000E+00
  -1.180000      0.0000000E+00
  -1.170000      0.0000000E+00
  -1.160000      0.0000000E+00
  -1.150000      0.0000000E+00
  -1.140000      0.0000000E+00
  -1.130000      0.0000000E+00
  -1.120000      0.0000000E+00
  -1.110000      0.0000000E+00
  -1.100000      0.0000000E+00
  -1.090000      0.0000000E+00
  -1.080000      0.0000000E+00
  -1.070000      0.0000000E+00
  -1.060000      0.0000000E+00
  -1.050000      0.0000000E+00
  -1.040000      0.0000000E+00
  -1.030000      0.0000000E+00
  -1.020000      0.0000000E+00
  -1.010000      0.0000000E+00
  -1.000000      0.0000000E+00
 -0.9900000      0.0000000E+00
 -0.9800000      0.0000000E+00
 -0.9700000      0.0000000E+00
 -0.9600000      0.0000000E+00
 -0.9500000      0.0000000E+00
 -0.9400000      0.0000000E+00
 -0.9300000      0.0000000E+00
 -0.9200000      0.0000000E+00
 -0.9100000      0.0000000E+00
 -0.9000000      0.0000000E+00
 -0.8900000      0.0000000E+00
 -0.8800000      0.0000000E+00
 -0.8700000      0.0000000E+00
 -0.8600000      0.0000000E+00
 -0.8500000      0.0000000E+00
 -0.8400000      0.0000000E+00
 -0.8300000      0.0000000E+00
 -0.8200000      0.0000000E+00
 -0.8100000      0.0000000E+00
 -0.8000000      0.0000000E+00
 -0.7900000      0.0000000E+00
 -0.7800000      0.0000000E+00
 -0.7700000      0.0000000E+00
 -0.7600000      0.0000000E+00
 -0.7500000      0.0000000E+00
 -0.7400000      0.0000000E+00
 -0.7300000      0.0000000E+00
 -0.7200000      0.0000000E+00
 -0.7100000      0.0000000E+00
 -0.7000000      0.0000000E+00
 -0.6900000      0.0000000E+00
 -0.6800000      0.0000000E+00
 -0.6700000      0.0000000E+00
 -0.6600000      0.0000000E+00
 -0.6500000      0.0000000E+00
 -0.6400000      0.0000000E+00
 -0.6300000      0.0000000E+00
 -0.6200000      0.0000000E+00
 -0.6100000      0.0000000E+00
 -0.6000000      0.0000000E+00
 -0.5900000      0.0000000E+00
 -0.5800000      0.0000000E+00
 -0.5700000      0.0000000E+00
 -0.5600000      0.0000000E+00
 -0.5500000      0.0000000E+00
 -0.5400000      0.0000000E+00
 -0.5300000      0.0000000E+00
 -0.5200000      0.0000000E+00
 -0.5100000      0.0000000E+00
 -0.5000000      0.0000000E+00
 -0.4900000      0.0000000E+00
 -0.4800000      0.0000000E+00
 -0.4700000      0.0000000E+00
 -0.4600000      0.0000000E+00
 -0.4500000      0.0000000E+00
 -0.4400000      0.0000000E+00
 -0.4300000      0.0000000E+00
 -0.4200000      0.0000000E+00
 -0.4100000      0.0000000E+00
 -0.4000000      0.0000000E+00
 -0.3900000      0.0000000E+00
 -0.3800000      0.0000000E+00
 -0.3700000      0.0000000E+00
 -0.3600000      0.0000000E+00
 -0.3500000      0.0000000E+00
 -0.3400000      0.0000000E+00
 -0.3300000      0.0000000E+00
 -0.3200000      0.0000000E+00
 -0.3100000      0.0000000E+00
 -0.3000000      0.0000000E+00
 -0.2900000      0.0000000E+00
 -0.2800000      0.0000000E+00
 -0.2700000      0.0000000E+00
 -0.2600000      0.0000000E+00
 -0.2500000      0.0000000E+00
 -0.2400000      0.0000000E+00
 -0.2300000      0.0000000E+00
 -0.2200000      0.0000000E+00
 -0.2100000      0.0000000E+00
 -0.2000000      0.0000000E+00
 -0.1900000      0.0000000E+00
 -0.1800000      0.0000000E+00
 -0.1700000      0.0000000E+00
 -0.1600000      0.0000000E+00
 -0.1500000      0.0000000E+00
 -0.1400000      0.0000000E+00
 -0.1300000      0.0000000E+00
 -0.1200000      0.0000000E+00
 -0.1100000      0.0000000E+00
 -0.1000000      0.0000000E+00
 -9.0000004E-02  0.0000000E+00
 -7.9999998E-02  0.0000000E+00
 -7.0000000E-02  0.0000000E+00
 -5.9999999E-02  0.0000000E+00
 -5.0000001E-02  0.0000000E+00
 -3.9999999E-02  0.0000000E+00
 -2.9999999E-02  0.0000000E+00
 -2.0000000E-02  0.0000000E+00
 -9.9999998E-03  0.0000000E+00
 -3.4694470E-17  0.0000000E+00
  9.9999998E-03  0.0000000E+00
  2.0000000E-02  0.0000000E+00
  2.9999999E-02  0.0000000E+00
  3.9999999E-02  0.0000000E+00
  5.0000001E-02  0.0000000E+00
  5.9999999E-02  0.0000000E+00
  7.0000000E-02  0.0000000E+00
  7.9999998E-02  0.0000000E+00
  9.0000004E-02  0.0000000E+00
  0.1000000      0.0000000E+00
  0.1100000      0.0000000E+00
  0.1200000      0.0000000E+00
  0.1300000      0.0000000E+00
  0.1400000      0.0000000E+00
  0.1500000      0.0000000E+00
  0.1600000      0.0000000E+00
  0.1700000      0.0000000E+00
  0.1800000      0.0000000E+00
  0.1900000      0.0000000E+00
  0.2000000      0.0000000E+00
  0.2100000      0.0000000E+00
  0.2200000      0.0000000E+00
  0.2300000      0.0000000E+00
  0.2400000      0.0000000E+00
  0.2500000      0.0000000E+00
  0.2600000      0.0000000E+00
  0.2700000      0.0000000E+00
  0.2800000      0.0000000E+00
  0.2900000      0.0000000E+00
  0.3000000      0.0000000E+00
  0.3100000      0.0000000E+00
  0.3200000      0.0000000E+00
  0.3300000      0.0000000E+00
  0.3400000      0.0000000E+00
  0.3500000      0.0000000E+00
  0.3600000      0.0000000E+00
  0.3700000      0.0000000E+00
  0.3800000      0.0000000E+00
  0.3900000      0.0000000E+00
  0.4000000      0.0000000E+00
  0.4100000      0.0000000E+00
  0.4200000      0.0000000E+00
  0.4300000      0.0000000E+00
  0.4400000      0.0000000E+00
  0.4500000      0.0000000E+00
  0.4600000      0.0000000E+00
  0.4700000      0.0000000E+00
  0.4800000      0.0000000E+00
  0.4900000      0.0000000E+00
  0.5000000      0.0000000E+00
  0.5100000      0.0000000E+00
  0.5200000      0.0000000E+00
  0.5300000      0.0000000E+00
  0.5400000      0.0000000E+00
  0.5500000      0.0000000E+00
  0.5600000      0.0000000E+00
  0.5700000      0.0000000E+00
  0.5800000      0.0000000E+00
  0.5900000      0.0000000E+00
  0.6000000      0.0000000E+00
  0.6100000      0.0000000E+00
  0.6200000      0.0000000E+00
  0.6300000      0.0000000E+00
  0.6400000      0.0000000E+00
  0.6500000      0.0000000E+00
  0.6600000      0.0000000E+00
  0.6700000      0.0000000E+00
  0.6800000      0.0000000E+00
  0.6900000      0.0000000E+00
  0.7000000      0.0000000E+00
  0.7100000      0.0000000E+00
  0.7200000      0.0000000E+00
  0.7300000      0.0000000E+00
  0.7400000      0.0000000E+00
  0.7500000      0.0000000E+00
  0.7600000      0.0000000E+00
  0.7700000      0.0000000E+00
  0.7800000      0.0000000E+00
  0.7900000      0.0000000E+00
  0.8000000      0.0000000E+00
  0.8100000      0.0000000E+00
  0.8200000      0.0000000E+00
  0.8300000      0.0000000E+00
  0.8400000      0.0000000E+00
  0.8500000      0.0000000E+00
  0.8600000      0.0000000E+00
  0.8700000      0.0000000E+00
  0.8800000      0.0000000E+00
  0.8900000      0.0000000E+00
  0.9000000      0.0000000E+00
  0.9100000      0.0000000E+00
  0.9200000      0.0000000E+00
  0.9300000      0.0000000E+00
  0.9400000      0.0000000E+00
  0.9500000      0.0000000E+00
  0.9600000      0.0000000E+00
  0.9700000      0.0000000E+00
  0.9800000      0.0000000E+00
  0.9900000      0.0000000E+00
   1.000000      0.0000000E+00
   1.010000      0.0000000E+00
   1.020000      0.0000000E+00
   1.030000      0.0000000E+00
   1.040000      0.0000000E+00
   1.050000      0.0000000E+00
   1.060000      0.0000000E+00
   1.070000      0.0000000E+00
   1.080000      0.0000000E+00
   1.090000      0.0000000E+00
   1.100000      0.0000000E+00
   1.110000      0.0000000E+00
   1.120000      0.0000000E+00
   1.130000      0.0000000E+00
   1.140000      0.0000000E+00
   1.150000      0.0000000E+00
   1.160000      0.0000000E+00
   1.170000      0.0000000E+00
   1.180000      0.0000000E+00
   1.190000      0.0000000E+00
   1.200000      0.0000000E+00
   1.210000      0.0000000E+00
   1.220000      0.0000000E+00
   1.230000      0.0000000E+00
   1.240000      0.0000000E+00
   1.250000      0.0000000E+00
   1.260000      0.0000000E+00
   1.270000      0.0000000E+00
   1.280000      0.0000000E+00
   1.290000      0.0000000E+00
   1.300000      0.0000000E+00
   1.310000      0.0000000E+00
   1.320000      0.0000000E+00
   1.330000      0.0000000E+00
   1.340000      0.0000000E+00
   1.350000      0.0000000E+00
   1.360000      0.0000000E+00
   1.370000      0.0000000E+00
   1.380000      0.0000000E+00
   1.390000      0.0000000E+00
   1.400000      0.0000000E+00
   1.410000      0.0000000E+00
   1.420000      0.0000000E+00
   1.430000      0.0000000E+00
   1.440000      0.0000000E+00
   1.450000      0.0000000E+00
   1.460000      0.0000000E+00
   1.470000      0.0000000E+00
   1.480000      0.0000000E+00
   1.490000      0.0000000E+00
   1.500000      0.0000000E+00
   1.510000      0.0000000E+00
   1.520000      0.0000000E+00
   1.530000      0.0000000E+00
   1.540000      0.0000000E+00
   1.550000      0.0000000E+00
   1.560000      0.0000000E+00
   1.570000      0.0000000E+00
   1.580000      0.0000000E+00
   1.590000      0.0000000E+00
   1.600000      0.0000000E+00
   1.610000      0.0000000E+00
   1.620000      0.0000000E+00
   1.630000      0.0000000E+00
   1.640000      0.0000000E+00
   1.650000      0.0000000E+00
   1.660000      0.0000000E+00
   1.670000      0.0000000E+00
   1.680000      0.0000000E+00
   1.690000      0.0000000E+00
   1.700000      0.0000000E+00
   1.710000      0.0000000E+00
   1.720000      0.0000000E+00
   1.730000      0.0000000E+00
   1.740000      0.0000000E+00
   1.750000      0.0000000E+00
   1.760000      0.0000000E+00
   1.770000      0.0000000E+00
   1.780000      0.0000000E+00
   1.790000      0.0000000E+00
   1.800000      0.0000000E+00
   1.810000      0.0000000E+00
   1.820000      0.0000000E+00
   1.830000      0.0000000E+00
   1.840000      0.0000000E+00
   1.850000      0.0000000E+00
   1.860000      0.0000000E+00
   1.870000      0.0000000E+00
   1.880000      0.0000000E+00
   1.890000      0.0000000E+00
   1.900000      0.0000000E+00
   1.910000      0.0000000E+00
   1.920000      0.0000000E+00
   1.930000      0.0000000E+00
   1.940000      0.0000000E+00
   1.950000      0.0000000E+00
   1.960000      0.0000000E+00
   1.970000      0.0000000E+00
   1.980000      0.0000000E+00
   1.990000      0.0000000E+00
   2.000000      0.0000000E+00
   2.010000      0.0000000E+00
   2.020000      0.0000000E+00
   2.030000      0.0000000E+00
   2.040000      0.0000000E+00
   2.050000      0.0000000E+00
   2.060000      0.0000000E+00
   2.070000      0.0000000E+00
   2.080000      0.0000000E+00
   2.090000      0.0000000E+00
   2.100000      0.0000000E+00
   2.110000      0.0000000E+00
   2.120000      0.0000000E+00
   2.130000      0.0000000E+00
   2.140000      0.0000000E+00
   2.150000      0.0000000E+00
   2.160000      0.0000000E+00
   2.170000      0.0000000E+00
   2.180000      0.0000000E+00
   2.190000      0.0000000E+00
   2.200000      0.0000000E+00
   2.210000      0.0000000E+00
   2.220000      0.0000000E+00
   2.230000      0.0000000E+00
   2.240000      0.0000000E+00
   2.250000      0.0000000E+00
   2.260000      0.0000000E+00
   2.270000      0.0000000E+00
   2.280000      0.0000000E+00
   2.290000      0.0000000E+00
   2.300000      0.0000000E+00
   2.310000      0.0000000E+00
   2.320000      0.0000000E+00
   2.330000      0.0000000E+00
   2.340000      0.0000000E+00
   2.350000      0.0000000E+00
   2.360000      0.0000000E+00
   2.370000      0.0000000E+00
   2.380000      0.0000000E+00
   2.390000      0.0000000E+00
   2.400000      0.0000000E+00
   2.410000      0.0000000E+00
   2.420000      0.0000000E+00
   2.430000      0.0000000E+00
   2.440000      0.0000000E+00
   2.450000      0.0000000E+00
   2.460000      0.0000000E+00
   2.470000      0.0000000E+00
   2.480000      0.0000000E+00
   2.490000      0.0000000E+00
   2.500000      0.0000000E+00
   2.510000      0.0000000E+00
   2.520000      0.0000000E+00
   2.530000      0.0000000E+00
   2.540000      0.0000000E+00
   2.550000      0.0000000E+00
   2.560000      0.0000000E+00
   2.570000      0.0000000E+00
   2.580000      0.0000000E+00
   2.590000      0.0000000E+00
   2.600000      0.0000000E+00
   2.610000      0.0000000E+00
   2.620000      0.0000000E+00
   2.630000      0.0000000E+00
   2.640000      0.0000000E+00
   2.650000      0.0000000E+00
   2.660000      0.0000000E+00
   2.670000      0.0000000E+00
   2.680000      0.0000000E+00
   2.690000      0.0000000E+00
   2.700000      0.0000000E+00
   2.710000      0.0000000E+00
   2.720000      0.0000000E+00
   2.730000      0.0000000E+00
   2.740000      0.0000000E+00
   2.750000      0.0000000E+00
   2.760000      0.0000000E+00
   2.770000      0.0000000E+00
   2.780000      0.0000000E+00
   2.790000      0.0000000E+00
   2.800000      0.0000000E+00
   2.810000      0.0000000E+00
   2.820000      0.0000000E+00
   2.830000      0.0000000E+00
   2.840000      0.0000000E+00
   2.850000      0.0000000E+00
   2.860000      0.0000000E+00
   2.870000      0.0000000E+00
   2.880000      0.0000000E+00
   2.890000      0.0000000E+00
   2.900000      0.0000000E+00
   2.910000      0.0000000E+00
   2.920000      0.0000000E+00
   2.930000      0.0000000E+00
   2.940000      0.0000000E+00
   2.950000      0.0000000E+00
   2.960000      0.0000000E+00
   2.970000      0.0000000E+00
   2.980000      0.0000000E+00
   2.990000      0.0000000E+00
   3.000000      0.0000000E+00
   3.010000      0.0000000E+00
   3.020000      0.0000000E+00
   3.030000      0.0000000E+00
   3.040000      0.0000000E+00
   3.050000      0.0000000E+00
   3.060000      0.0000000E+00
   3.070000      0.0000000E+00
   3.080000      0.0000000E+00
   3.090000      0.0000000E+00
   3.100000      0.0000000E+00
   3.110000      0.0000000E+00
   3.120000      0.0000000E+00
   3.130000      0.0000000E+00
   3.140000      0.0000000E+00
   3.150000      0.0000000E+00
   3.160000      0.0000000E+00
   3.170000      0.0000000E+00
   3.180000      0.0000000E+00
   3.190000      0.0000000E+00
   3.200000      0.0000000E+00
   3.210000      0.0000000E+00
   3.220000      0.0000000E+00
   3.230000      0.0000000E+00
   3.240000      0.0000000E+00
   3.250000      0.0000000E+00
   3.260000      0.0000000E+00
   3.270000      0.0000000E+00
   3.280000      0.0000000E+00
   3.290000      0.0000000E+00
   3.300000      0.0000000E+00
   3.310000      0.0000000E+00
   3.320000      0.0000000E+00
   3.330000      0.0000000E+00
   3.340000      0.0000000E+00
   3.350000      0.0000000E+00
   3.360000      0.0000000E+00
   3.370000      0.0000000E+00
   3.380000      0.0000000E+00
   3.390000      0.0000000E+00
   3.400000      0.0000000E+00
   3.410000      0.0000000E+00
   3.420000      0.0000000E+00
   3.430000      0.0000000E+00
   3.440000      0.0000000E+00
   3.450000      0.0000000E+00
   3.460000      0.0000000E+00
   3.470000      0.0000000E+00
   3.480000      0.0000000E+00
   3.490000      0.0000000E+00
   3.500000      0.0000000E+00
   3.510000      0.0000000E+00
   3.520000      0.0000000E+00
   3.530000      0.0000000E+00
   3.540000      1.3460261E-38
   3.550000      1.6661045E-38
   3.560000      1.9614808E-38
   3.570000      2.2205937E-38
   3.580000      2.3395607E-38
   3.590000      2.3395607E-38
   3.600000      2.4024320E-38
   3.610000      2.5403453E-38
   3.620000      2.7033247E-38
   3.630000      3.0159544E-38
   3.640000      3.5017871E-38
   3.650000      4.0577248E-38
   3.660000      4.6758317E-38
   3.670000      5.3437900E-38
   3.680000      6.0997283E-38
   3.690000      6.9200238E-38
   3.700000      7.6364909E-38
   3.710000      8.2838263E-38
   3.720000      8.9962229E-38
   3.730000      9.7736913E-38
   3.740000      1.0478290E-37
   3.750000      1.1072232E-37
   3.760000      1.1673510E-37
   3.770000      1.2316271E-37
   3.780000      1.3031403E-37
   3.790000      1.3844368E-37
   3.800000      1.4864025E-37
   3.810000      1.6051496E-37
   3.820000      1.7266497E-37
   3.830000      1.8625764E-37
   3.840000      2.0134894E-37
   3.850000      2.1421999E-37
   3.860000      2.2428006E-37
   3.870000      2.3342267E-37
   3.880000      2.4146393E-37
   3.890000      2.4651317E-37
   3.900000      2.4928597E-37
   3.910000      2.5030403E-37
   3.920000      2.4852365E-37
   3.930000      2.4374407E-37
   3.940000      2.3533801E-37
   3.950000      2.2389077E-37
   3.960000      2.0923124E-37
   3.970000      1.9083663E-37
   3.980000      1.7909600E-37
   3.990000      1.7470060E-37
   4.000000      1.6793174E-37
   4.010000      1.5884983E-37
   4.020000      1.4700572E-37
   4.030000      1.3010534E-37
   4.040000      1.0261864E-37
   4.050000      6.4881346E-38
   4.060000      1.8993110E-38
   4.070000     -3.5378804E-38
   4.080000     -9.6529599E-38
   4.090000     -1.6368806E-37
   4.100000     -2.3582685E-37
   4.110000     -3.1306490E-37
   4.120000     -3.9293812E-37
   4.130000     -4.7494126E-37
   4.140000     -5.6149312E-37
   4.150000     -6.5257819E-37
   4.160000     -7.4927187E-37
   4.170000     -8.5108026E-37
   4.180000     -9.5647943E-37
   4.190000     -1.0737699E-36
   4.200000     -1.2032537E-36
   4.210000     -1.3358654E-36
   4.220000     -1.4720690E-36
   4.230000     -1.6129926E-36
   4.240000     -1.7619562E-36
   4.250000     -1.9198307E-36
   4.260000     -2.0825776E-36
   4.270000     -2.2480895E-36
   4.280000     -2.4215128E-36
   4.290000     -2.6016485E-36
   4.300000     -2.7809855E-36
   4.310000     -2.9543047E-36
   4.320000     -3.1130206E-36
   4.330000     -3.2221305E-36
   4.340000     -3.3679710E-36
   4.350000     -3.6049784E-36
   4.360000     -3.9923756E-36
   4.370000     -4.5139500E-36
   4.380000     -5.0639603E-36
   4.390000     -5.6285305E-36
   4.400000     -6.2219862E-36
   4.410000     -6.5788776E-36
   4.420000     -6.6293892E-36
   4.430000     -6.6404418E-36
   4.440000     -6.5825008E-36
   4.450000     -6.4410906E-36
   4.460000     -5.8455482E-36
   4.470000     -4.7394710E-36
   4.480000     -3.5161659E-36
   4.490000     -2.2063492E-36
   4.500000     -7.9982072E-37
   4.510000      5.7112509E-37
   4.520000      1.8568849E-36
   4.530000      2.9892370E-36
   4.540000      3.9483412E-36
   4.550000      4.8099946E-36
   4.560000      5.5826443E-36
   4.570000      6.1795574E-36
   4.580000      6.6285670E-36
   4.590000      7.1146473E-36
   4.600000      7.6590050E-36
   4.610000      8.2954121E-36
   4.620000      9.2345951E-36
   4.630000      1.0472017E-35
   4.640000      1.1842420E-35
   4.650000      1.3373214E-35
   4.660000      1.4950784E-35
   4.670000      1.6561722E-35
   4.680000      1.8289825E-35
   4.690000      1.9878604E-35
   4.700000      2.1347696E-35
   4.710000      2.2931978E-35
   4.720000      2.4607930E-35
   4.730000      2.6434914E-35
   4.740000      2.8488031E-35
   4.750000      3.0712978E-35
   4.760000      3.3051314E-35
   4.770000      3.5037914E-35
   4.780000      3.6283243E-35
   4.790000      3.7302870E-35
   4.800000      3.8146712E-35
   4.810000      3.8626813E-35
   4.820000      3.8839120E-35
   4.830000      3.8644824E-35
   4.840000      3.7988126E-35
   4.850000      3.6784788E-35
   4.860000      3.4908337E-35
   4.870000      3.2333886E-35
   4.880000      2.9060921E-35
   4.890000      2.5145974E-35
   4.900000      2.0741139E-35
   4.910000      1.5776081E-35
   4.920000      1.0137050E-35
   4.930000      3.8636955E-36
   4.940000     -3.1413268E-36
   4.950000     -1.0751217E-35
   4.960000     -1.8833862E-35
   4.970000     -2.7170794E-35
   4.980000     -3.5571271E-35
   4.990000     -4.4323679E-35
   5.000000     -5.4229348E-35
   5.010000     -6.5271252E-35
   5.020000     -7.6759230E-35
   5.030000     -8.8889368E-35
   5.040000     -1.0177357E-34
   5.050000     -1.1509979E-34
   5.060000     -1.2704419E-34
   5.070000     -1.3709291E-34
   5.080000     -1.4680093E-34
   5.090000     -1.5976696E-34
   5.100000     -1.7618268E-34
   5.110000     -1.9243204E-34
   5.120000     -2.0848751E-34
   5.130000     -2.2591165E-34
   5.140000     -2.4459223E-34
   5.150000     -2.6334315E-34
   5.160000     -2.8016767E-34
   5.170000     -2.9541631E-34
   5.180000     -3.1070843E-34
   5.190000     -3.2531494E-34
   5.200000     -3.3888859E-34
   5.210000     -3.5120387E-34
   5.220000     -3.6045278E-34
   5.230000     -3.6768341E-34
   5.240000     -3.7412459E-34
   5.250000     -3.7871028E-34
   5.260000     -3.8030787E-34
   5.270000     -3.7969992E-34
   5.280000     -3.7884948E-34
   5.290000     -3.7705194E-34
   5.300000     -3.7350970E-34
   5.310000     -3.6712245E-34
   5.320000     -3.5622681E-34
   5.330000     -3.4027361E-34
   5.340000     -3.1935052E-34
   5.350000     -2.9377177E-34
   5.360000     -2.6192064E-34
   5.370000     -2.2295392E-34
   5.380000     -1.7871405E-34
   5.390000     -1.2641836E-34
   5.400000     -6.4899944E-35
   5.410000      3.2617016E-36
   5.420000      7.4712286E-35
   5.430000      1.5080823E-34
   5.440000      2.3427997E-34
   5.450000      3.2449705E-34
   5.460000      4.2162351E-34
   5.470000      5.2476175E-34
   5.480000      6.3338643E-34
   5.490000      7.4892242E-34
   5.500000      8.7270115E-34
   5.510000      1.0031827E-33
   5.520000      1.1390945E-33
   5.530000      1.2811491E-33
   5.540000      1.4287401E-33
   5.550000      1.5826505E-33
   5.560000      1.7433538E-33
   5.570000      1.9093746E-33
   5.580000      2.0824053E-33
   5.590000      2.2602359E-33
   5.600000      2.4383435E-33
   5.610000      2.6175849E-33
   5.620000      2.8006809E-33
   5.630000      2.9857659E-33
   5.640000      3.1712516E-33
   5.650000      3.3564544E-33
   5.660000      3.5403656E-33
   5.670000      3.7250751E-33
   5.680000      3.9100362E-33
   5.690000      4.0928241E-33
   5.700000      4.2752083E-33
   5.710000      4.4565834E-33
   5.720000      4.6317207E-33
   5.730000      4.7973287E-33
   5.740000      4.9511161E-33
   5.750000      5.0907387E-33
   5.760000      5.2142564E-33
   5.770000      5.3201519E-33
   5.780000      5.4077677E-33
   5.790000      5.4741633E-33
   5.800000      5.5180015E-33
   5.810000      5.5357218E-33
   5.820000      5.5210373E-33
   5.830000      5.4754321E-33
   5.840000      5.3942246E-33
   5.850000      5.2675588E-33
   5.860000      5.0958951E-33
   5.870000      4.8789698E-33
   5.880000      4.6123853E-33
   5.890000      4.2938204E-33
   5.900000      3.9214414E-33
   5.910000      3.4929495E-33
   5.920000      3.0038654E-33
   5.930000      2.4512462E-33
   5.940000      1.8326739E-33
   5.950000      1.1454567E-33
   5.960000      3.8779200E-34
   5.970000     -4.4186305E-34
   5.980000     -1.3458592E-33
   5.990000     -2.3271317E-33
   6.000000     -3.3868802E-33
   6.010000     -4.5269639E-33
   6.020000     -5.7506164E-33
   6.030000     -7.0574389E-33
   6.040000     -8.4467453E-33
   6.050000     -9.9232243E-33
   6.060000     -1.1489205E-32
   6.070000     -1.3143864E-32
   6.080000     -1.4887385E-32
   6.090000     -1.6718903E-32
   6.100000     -1.8638987E-32
   6.110000     -2.0645985E-32
   6.120000     -2.2735233E-32
   6.130000     -2.4905131E-32
   6.140000     -2.7152797E-32
   6.150000     -2.9474040E-32
   6.160000     -3.1863491E-32
   6.170000     -3.4316095E-32
   6.180000     -3.6827574E-32
   6.190000     -3.9388688E-32
   6.200000     -4.1988905E-32
   6.210000     -4.4620208E-32
   6.220000     -4.7274451E-32
   6.230000     -4.9940031E-32
   6.240000     -5.2604089E-32
   6.250000     -5.5252748E-32
   6.260000     -5.7871750E-32
   6.270000     -6.0445888E-32
   6.280000     -6.2958402E-32
   6.290000     -6.5392492E-32
   6.300000     -6.7729063E-32
   6.310000     -6.9947057E-32
   6.320000     -7.2026730E-32
   6.330000     -7.3946553E-32
   6.340000     -7.5682817E-32
   6.350000     -7.7211847E-32
   6.360000     -7.8507653E-32
   6.370000     -7.9542829E-32
   6.380000     -8.0289491E-32
   6.390000     -8.0717876E-32
   6.400000     -8.0798862E-32
   6.410000     -8.0501409E-32
   6.420000     -7.9793632E-32
   6.430000     -7.8644052E-32
   6.440000     -7.7018807E-32
   6.450000     -7.4884092E-32
   6.460000     -7.2204059E-32
   6.470000     -6.8943320E-32
   6.480000     -6.5065581E-32
   6.490000     -6.0535632E-32
   6.500000     -5.5318658E-32
   6.510000     -4.9377469E-32
   6.520000     -4.2676646E-32
   6.530000     -3.5180744E-32
   6.540000     -2.6854647E-32
   6.550000     -1.7664605E-32
   6.560000     -7.5777501E-33
   6.570000      3.4373776E-33
   6.580000      1.5410903E-32
   6.590000      2.8371056E-32
   6.600000      4.2343713E-32
   6.610000      5.7352375E-32
   6.620000      7.3417945E-32
   6.630000      9.0558251E-32
   6.640000      1.0878806E-31
   6.650000      1.2811855E-31
   6.660000      1.4855678E-31
   6.670000      1.7010527E-31
   6.680000      1.9276202E-31
   6.690000      2.1652042E-31
   6.700000      2.4136818E-31
   6.710000      2.6728729E-31
   6.720000      2.9425370E-31
   6.730000      3.2223681E-31
   6.740000      3.5119876E-31
   6.750000      3.8109435E-31
   6.760000      4.1187103E-31
   6.770000      4.4346756E-31
   6.780000      4.7581439E-31
   6.790000      5.0883281E-31
   6.800000      5.4243403E-31
   6.810000      5.7651975E-31
   6.820000      6.1098110E-31
   6.830000      6.4569895E-31
   6.840000      6.8054329E-31
   6.850000      7.1537196E-31
   6.860000      7.5003221E-31
   6.870000      7.8436027E-31
   6.880000      8.1817717E-31
   6.890000      8.5129226E-31
   6.900000      8.8350353E-31
   6.910000      9.1459545E-31
   6.920000      9.4433941E-31
   6.930000      9.7249428E-31
   6.940000      9.9880570E-31
   6.950000      1.0230057E-30
   6.960000      1.0448143E-30
   6.970000      1.0639384E-30
   6.980000      1.0800727E-30
   6.990000      1.0928995E-30
   7.000000      1.1020899E-30
   7.010000      1.1073035E-30
   7.020000      1.1081892E-30
   7.030000      1.1043860E-30
   7.040000      1.0955233E-30
   7.050000      1.0812222E-30
   7.060000      1.0610960E-30