  -2.600000      0.0000000E+00
  -2.590000      0.0000000E+00
  -2.580000      0.0000000E+00
  -2.570000      0.0000000E+00
  -2.560000      0.0000000E+00
  -2.550000      0.0000000E+00
  -2.540000      0.0000000E+00
  -2.530000      0.0000000E+00
  -2.520000      0.0000000E+00
  -2.510000      0.0000000E+00
  -2.500000      0.0000000E+00
  -2.490000      0.0000000E+00
  -2.480000      0.0000000E+00
  -2.470000      0.0000000E+00
  -2.460000      0.0000000E+00
  -2.450000      0.0000000E+00
  -2.440000      0.0000000E+00
  -2.430000      0.0000000E+00
  -2.420000      0.0000000E+00
  -2.410000      0.0000000E+00
  -2.400000      0.0000000E+00
  -2.390000      0.0000000E+00
  -2.380000      0.0000000E+00
  -2.370000      0.0000000E+00
  -2.360000      0.0000000E+00
  -2.350000      0.0000000E+00
  -2.340000      0.0000000E+00
  -2.330000      0.0000000E+00
  -2.320000      0.0000000E+00
  -2.310000      0.0000000E+00
  -2.300000      0.0000000E+00
  -2.290000      0.0000000E+00
  -2.280000      0.0000000E+00
  -2.270000      0.0000000E+00
  -2.260000      0.0000000E+00
  -2.250000      0.0000000E+00
  -2.240000      0.0000000E+00
  -2.230000      0.0000000E+00
  -2.220000      0.0000000E+00
  -2.210000      0.0000000E+00
  -2.200000      0.0000000E+00
  -2.190000      0.0000000E+00
  -2.180000      0.0000000E+00
  -2.170000      0.0000000E+00
  -2.160000      0.0000000E+00
  -2.150000      0.0000000E+00
  -2.140000      0.0000000E+00
  -2.130000      0.0000000E+00
  -2.120000      0.0000000E+00
  -2.110000      0.0000000E+00
  -2.100000      0.0000000E+00
  -2.090000      0.0000000E+00
  -2.080000      0.0000000E+00
  -2.070000      0.0000000E+00
  -2.060000      0.0000000E+00
  -2.050000      0.0000000E+00
  -2.040000      0.0000000E+00
  -2.030000      0.0000000E+00
  -2.020000      0.0000000E+00
  -2.010000      0.0000000E+00
  -2.000000      0.0000000E+00
  -1.990000      0.0000000E+00
  -1.980000      0.0000000E+00
  -1.970000      0.0000000E+00
  -1.960000      0.0000000E+00
  -1.950000      0.0000000E+00
  -1.940000      0.0000000E+00
  -1.930000      0.0000000E+00
  -1.920000      0.0000000E+00
  -1.910000      0.0000000E+00
  -1.900000      0.0000000E+00
  -1.890000      0.0000000E+00
  -1.880000      0.0000000E+00
  -1.870000      0.0000000E+00
  -1.860000      0.0000000E+00
  -1.850000      0.0000000E+00
  -1.840000      0.0000000E+00
  -1.830000      0.0000000E+00
  -1.820000      0.0000000E+00
  -1.810000      0.0000000E+00
  -1.800000      0.0000000E+00
  -1.790000      0.0000000E+00
  -1.780000      0.0000000E+00
  -1.770000      0.0000000E+00
  -1.760000      0.0000000E+00
  -1.750000      0.0000000E+00
  -1.740000      0.0000000E+00
  -1.730000      0.0000000E+00
  -1.720000      0.0000000E+00
  -1.710000      0.0000000E+00
  -1.700000      0.0000000E+00
  -1.690000      0.0000000E+00
  -1.680000      0.0000000E+00
  -1.670000      0.0000000E+00
  -1.660000      0.0000000E+00
  -1.650000      0.0000000E+00
  -1.640000      0.0000000E+00
  -1.630000      0.0000000E+00
  -1.620000      0.0000000E+00
  -1.610000      0.0000000E+00
  -1.600000      0.0000000E+00
  -1.590000      0.0000000E+00
  -1.580000      0.0000000E+00
  -1.570000      0.0000000E+00
  -1.560000      0.0000000E+00
  -1.550000      0.0000000E+00
  -1.540000      0.0000000E+00
  -1.530000      0.0000000E+00
  -1.520000      0.0000000E+00
  -1.510000      0.0000000E+00
  -1.500000      0.0000000E+00
  -1.490000      0.0000000E+00
  -1.480000      0.0000000E+00
  -1.470000      0.0000000E+00
  -1.460000      0.0000000E+00
  -1.450000      0.0000000E+00
  -1.440000      0.0000000E+00
  -1.430000      0.0000000E+00
  -1.420000      0.0000000E+00
  -1.410000      0.0000000E+00
  -1.400000      0.0000000E+00
  -1.390000      0.0000000E+00
  -1.380000      0.0000000E+00
  -1.370000      0.0000000E+00
  -1.360000      0.0000000E+00
  -1.350000      0.0000000E+00
  -1.340000      0.0000000E+00
  -1.330000      0.0000000E+00
  -1.320000      0.0000000E+00
  -1.310000      0.0000000E+00
  -1.300000      0.0000000E+00
  -1.290000      0.0000000E+00
  -1.280000      0.0000000E+00
  -1.270000      0.0000000E+00
  -1.260000      0.0000000E+00
  -1.250000      0.0000000E+00
  -1.240000      0.0000000E+00
  -1.230000      0.0000000E+00
  -1.220000      0.0000000E+00
  -1.210000      0.0000000E+00
  -1.200000      0.0000000E+00
  -1.190000      0.0000000E+00
  -1.180000      0.0000000E+00
  -1.170000      0.0000000E+00
  -1.160000      0.0000000E+00
  -1.150000      0.0000000E+00
  -1.140000      0.0000000E+00
  -1.130000      0.0000000E+00
  -1.120000      0.0000000E+00
  -1.110000      0.0000000E+00
  -1.100000      0.0000000E+00
  -1.090000      0.0000000E+00
  -1.080000      0.0000000E+00
  -1.070000      0.0000000E+00
  -1.060000      0.0000000E+00
  -1.050000      0.0000000E+00
  -1.040000      0.0000000E+00
  -1.030000      0.0000000E+00
  -1.020000      0.0000000E+00
  -1.010000      0.0000000E+00
  -1.000000      0.0000000E+00
 -0.9900000      0.0000000E+00
 -0.9800000      0.0000000E+00
 -0.9700000      0.0000000E+00
 -0.9600000      0.0000000E+00
 -0.9500000      0.0000000E+00
 -0.9400000      0.0000000E+00
 -0.9300000      0.0000000E+00
 -0.9200000      0.0000000E+00
 -0.9100000      0.0000000E+00
 -0.9000000      0.0000000E+00
 -0.8900000      0.0000000E+00
 -0.8800000      0.0000000E+00
 -0.8700000      0.0000000E+00
 -0.8600000      0.0000000E+00
 -0.8500000      0.0000000E+00
 -0.8400000      0.0000000E+00
 -0.8300000      0.0000000E+00
 -0.8200000      0.0000000E+00
 -0.8100000      0.0000000E+00
 -0.8000000      0.0000000E+00
 -0.7900000      0.0000000E+00
 -0.7800000      0.0000000E+00
 -0.7700000      0.0000000E+00
 -0.7600000      0.0000000E+00
 -0.7500000      0.0000000E+00
 -0.7400000      0.0000000E+00
 -0.7300000      0.0000000E+00
 -0.7200000      0.0000000E+00
 -0.7100000      0.0000000E+00
 -0.7000000      0.0000000E+00
 -0.6900000      0.0000000E+00
 -0.6800000      0.0000000E+00
 -0.6700000      0.0000000E+00
 -0.6600000      0.0000000E+00
 -0.6500000      0.0000000E+00
 -0.6400000      0.0000000E+00
 -0.6300000      0.0000000E+00
 -0.6200000      0.0000000E+00
 -0.6100000      0.0000000E+00
 -0.6000000      0.0000000E+00
 -0.5900000      0.0000000E+00
 -0.5800000      0.0000000E+00
 -0.5700000      0.0000000E+00
 -0.5600000      0.0000000E+00
 -0.5500000      0.0000000E+00
 -0.5400000      0.0000000E+00
 -0.5300000      0.0000000E+00
 -0.5200000      0.0000000E+00
 -0.5100000      0.0000000E+00
 -0.5000000      0.0000000E+00
 -0.4900000      0.0000000E+00
 -0.4800000      0.0000000E+00
 -0.4700000      0.0000000E+00
 -0.4600000      0.0000000E+00
 -0.4500000      0.0000000E+00
 -0.4400000      0.0000000E+00
 -0.4300000      0.0000000E+00
 -0.4200000      0.0000000E+00
 -0.4100000      0.0000000E+00
 -0.4000000      0.0000000E+00
 -0.3900000      0.0000000E+00
 -0.3800000      0.0000000E+00
 -0.3700000      0.0000000E+00
 -0.3600000      0.0000000E+00
 -0.3500000      0.0000000E+00
 -0.3400000      0.0000000E+00
 -0.3300000      0.0000000E+00
 -0.3200000      0.0000000E+00
 -0.3100000      0.0000000E+00
 -0.3000000      0.0000000E+00
 -0.2900000      0.0000000E+00
 -0.2800000      0.0000000E+00
 -0.2700000      0.0000000E+00
 -0.2600000      0.0000000E+00
 -0.2500000      0.0000000E+00
 -0.2400000      0.0000000E+00
 -0.2300000      0.0000000E+00
 -0.2200000      0.0000000E+00
 -0.2100000      0.0000000E+00
 -0.2000000      0.0000000E+00
 -0.1900000      0.0000000E+00
 -0.1800000      0.0000000E+00
 -0.1700000      0.0000000E+00
 -0.1600000      0.0000000E+00
 -0.1500000      0.0000000E+00
 -0.1400000      0.0000000E+00
 -0.1300000      0.0000000E+00
 -0.1200000      0.0000000E+00
 -0.1100000      0.0000000E+00
 -0.1000000      0.0000000E+00
 -9.0000004E-02  0.0000000E+00
 -7.9999998E-02  0.0000000E+00
 -7.0000000E-02  0.0000000E+00
 -5.9999999E-02  0.0000000E+00
 -5.0000001E-02  0.0000000E+00
 -3.9999999E-02  0.0000000E+00
 -2.9999999E-02  0.0000000E+00
 -2.0000000E-02  0.0000000E+00
 -9.9999998E-03  0.0000000E+00
 -3.4694470E-17  0.0000000E+00
  9.9999998E-03  0.0000000E+00
  2.0000000E-02  0.0000000E+00
  2.9999999E-02  0.0000000E+00
  3.9999999E-02  0.0000000E+00
  5.0000001E-02  0.0000000E+00
  5.9999999E-02  0.0000000E+00
  7.0000000E-02  0.0000000E+00
  7.9999998E-02  0.0000000E+00
  9.0000004E-02  0.0000000E+00
  0.1000000      0.0000000E+00
  0.1100000      0.0000000E+00
  0.1200000      0.0000000E+00
  0.1300000      0.0000000E+00
  0.1400000      0.0000000E+00
  0.1500000      0.0000000E+00
  0.1600000      0.0000000E+00
  0.1700000      0.0000000E+00
  0.1800000      0.0000000E+00
  0.1900000      0.0000000E+00
  0.2000000      0.0000000E+00
  0.2100000      0.0000000E+00
  0.2200000      0.0000000E+00
  0.2300000      0.0000000E+00
  0.2400000      0.0000000E+00
  0.2500000      0.0000000E+00
  0.2600000      0.0000000E+00
  0.2700000      0.0000000E+00
  0.2800000      0.0000000E+00
  0.2900000      0.0000000E+00
  0.3000000      0.0000000E+00
  0.3100000      0.0000000E+00
  0.3200000      0.0000000E+00
  0.3300000      0.0000000E+00
  0.3400000      0.0000000E+00
  0.3500000      0.0000000E+00
  0.3600000      0.0000000E+00
  0.3700000      0.0000000E+00
  0.3800000      0.0000000E+00
  0.3900000      0.0000000E+00
  0.4000000      0.0000000E+00
  0.4100000      0.0000000E+00
  0.4200000      0.0000000E+00
  0.4300000      0.0000000E+00
  0.4400000      0.0000000E+00
  0.4500000      0.0000000E+00
  0.4600000      0.0000000E+00
  0.4700000      0.0000000E+00
  0.4800000      0.0000000E+00
  0.4900000      0.0000000E+00
  0.5000000      0.0000000E+00
  0.5100000      0.0000000E+00
  0.5200000      0.0000000E+00
  0.5300000      0.0000000E+00
  0.5400000      0.0000000E+00
  0.5500000      0.0000000E+00
  0.5600000      0.0000000E+00
  0.5700000      0.0000000E+00
  0.5800000      0.0000000E+00
  0.5900000      0.0000000E+00
  0.6000000      0.0000000E+00
  0.6100000      0.0000000E+00
  0.6200000      0.0000000E+00
  0.6300000      0.0000000E+00
  0.6400000      0.0000000E+00
  0.6500000      0.0000000E+00
  0.6600000      0.0000000E+00
  0.6700000      0.0000000E+00
  0.6800000      0.0000000E+00
  0.6900000      0.0000000E+00
  0.7000000      0.0000000E+00
  0.7100000      0.0000000E+00
  0.7200000      0.0000000E+00
  0.7300000      0.0000000E+00
  0.7400000      0.0000000E+00
  0.7500000      0.0000000E+00
  0.7600000      0.0000000E+00
  0.7700000      0.0000000E+00
  0.7800000      0.0000000E+00
  0.7900000      0.0000000E+00
  0.8000000      0.0000000E+00
  0.8100000      0.0000000E+00
  0.8200000      0.0000000E+00
  0.8300000      0.0000000E+00
  0.8400000      0.0000000E+00
  0.8500000      0.0000000E+00
  0.8600000      0.0000000E+00
  0.8700000      0.0000000E+00
  0.8800000      0.0000000E+00
  0.8900000      0.0000000E+00
  0.9000000      0.0000000E+00
  0.9100000      0.0000000E+00
  0.9200000      0.0000000E+00
  0.9300000      0.0000000E+00
  0.9400000      0.0000000E+00
  0.9500000      0.0000000E+00
  0.9600000      0.0000000E+00
  0.9700000      0.0000000E+00
  0.9800000      0.0000000E+00
  0.9900000      0.0000000E+00
   1.000000      0.0000000E+00
   1.010000      0.0000000E+00
   1.020000      0.0000000E+00
   1.030000      0.0000000E+00
   1.040000      0.0000000E+00
   1.050000      0.0000000E+00
   1.060000      0.0000000E+00
   1.070000      0.0000000E+00
   1.080000      0.0000000E+00
   1.090000      0.0000000E+00
   1.100000      0.0000000E+00
   1.110000      0.0000000E+00
   1.120000      0.0000000E+00
   1.130000      0.0000000E+00
   1.140000      0.0000000E+00
   1.150000      0.0000000E+00
   1.160000      0.0000000E+00
   1.170000      0.0000000E+00
   1.180000      0.0000000E+00
   1.190000      0.0000000E+00
   1.200000      0.0000000E+00
   1.210000      0.0000000E+00
   1.220000      0.0000000E+00
   1.230000      0.0000000E+00
   1.240000      0.0000000E+00
   1.250000      0.0000000E+00
   1.260000      0.0000000E+00
   1.270000      0.0000000E+00
   1.280000      0.0000000E+00
   1.290000      0.0000000E+00
   1.300000      0.0000000E+00
   1.310000      0.0000000E+00
   1.320000      0.0000000E+00
   1.330000      0.0000000E+00
   1.340000      0.0000000E+00
   1.350000      0.0000000E+00
   1.360000      0.0000000E+00
   1.370000      0.0000000E+00
   1.380000      0.0000000E+00
   1.390000      0.0000000E+00
   1.400000      0.0000000E+00
   1.410000      0.0000000E+00
   1.420000      0.0000000E+00
   1.430000      0.0000000E+00
   1.440000      0.0000000E+00
   1.450000      0.0000000E+00
   1.460000      0.0000000E+00
   1.470000      0.0000000E+00
   1.480000      0.0000000E+00
   1.490000      0.0000000E+00
   1.500000      0.0000000E+00
   1.510000      0.0000000E+00
   1.520000      0.0000000E+00
   1.530000      0.0000000E+00
   1.540000      0.0000000E+00
   1.550000      0.0000000E+00
   1.560000      0.0000000E+00
   1.570000      0.0000000E+00
   1.580000      0.0000000E+00
   1.590000      0.0000000E+00
   1.600000      0.0000000E+00
   1.610000      0.0000000E+00
   1.620000      0.0000000E+00
   1.630000      0.0000000E+00
   1.640000      0.0000000E+00
   1.650000      0.0000000E+00
   1.660000      0.0000000E+00
   1.670000      0.0000000E+00
   1.680000      0.0000000E+00
   1.690000      0.0000000E+00
   1.700000      0.0000000E+00
   1.710000      0.0000000E+00
   1.720000      0.0000000E+00
   1.730000      0.0000000E+00
   1.740000      0.0000000E+00
   1.750000      0.0000000E+00
   1.760000      0.0000000E+00
   1.770000      0.0000000E+00
   1.780000      0.0000000E+00
   1.790000      0.0000000E+00
   1.800000      0.0000000E+00
   1.810000      0.0000000E+00
   1.820000      0.0000000E+00
   1.830000      0.0000000E+00
   1.840000      0.0000000E+00
   1.850000      0.0000000E+00
   1.860000      0.0000000E+00
   1.870000      0.0000000E+00
   1.880000      0.0000000E+00
   1.890000      0.0000000E+00
   1.900000      0.0000000E+00
   1.910000      0.0000000E+00
   1.920000      0.0000000E+00
   1.930000      0.0000000E+00
   1.940000      0.0000000E+00
   1.950000      0.0000000E+00
   1.960000      0.0000000E+00
   1.970000      0.0000000E+00
   1.980000      0.0000000E+00
   1.990000      0.0000000E+00
   2.000000      0.0000000E+00
   2.010000      0.0000000E+00
   2.020000      1.2173933E-38
   2.030000      1.2871373E-38
   2.040000      1.3270638E-38
   2.050000      1.3377812E-38
   2.060000      1.3461121E-38
   2.070000      1.3476241E-38
   2.080000      1.3436412E-38
   2.090000      1.3354316E-38
   2.100000      1.3239116E-38
   2.110000      1.3454738E-38
   2.120000      1.4056117E-38
   2.130000      1.4155240E-38
   2.140000      1.3411182E-38
   2.150000      1.2044827E-38
   2.160000      0.0000000E+00
   2.170000      0.0000000E+00
   2.180000      0.0000000E+00
   2.190000      0.0000000E+00
   2.200000      0.0000000E+00
   2.210000     -1.1979133E-38
   2.220000     -1.7153642E-38
   2.230000     -2.1436024E-38
   2.240000     -2.5657764E-38
   2.250000     -2.9726075E-38
   2.260000     -3.3465670E-38
   2.270000     -3.6981561E-38
   2.280000     -4.0345944E-38
   2.290000     -4.3321464E-38
   2.300000     -4.5903211E-38
   2.310000     -4.8779564E-38
   2.320000     -5.2175538E-38
   2.330000     -5.5764717E-38
   2.340000     -5.9380645E-38
   2.350000     -6.2945935E-38
   2.360000     -6.7069866E-38
   2.370000     -7.2327381E-38
   2.380000     -7.6429217E-38
   2.390000     -7.9103158E-38
   2.400000     -8.2546115E-38
   2.410000     -8.5931568E-38
   2.420000     -8.9547394E-38
   2.430000     -9.5061745E-38
   2.440000     -1.0157133E-37
   2.450000     -1.0737021E-37
   2.460000     -1.1199699E-37
   2.470000     -1.1699556E-37
   2.480000     -1.2256161E-37
   2.490000     -1.2693496E-37
   2.500000     -1.7710732E-37
   2.510000     -2.7993201E-37
   2.520000     -3.9274979E-37
   2.530000     -5.0649146E-37
   2.540000     -6.2188523E-37
   2.550000     -7.4652174E-37
   2.560000     -8.7785049E-37
   2.570000     -9.9847112E-37
   2.580000     -1.1073556E-36
   2.590000     -1.2182805E-36
   2.600000     -1.0050261E-36
   2.610000     -4.5238990E-37
   2.620000      1.2849757E-37
   2.630000      7.0748743E-37
   2.640000      1.2487632E-36
   2.650000      1.7087906E-36
   2.660000      1.8368095E-36
   2.670000      1.6921291E-36
   2.680000      1.5411921E-36
   2.690000      1.3847322E-36
   2.700000      1.2347100E-36
   2.710000      1.0973519E-36
   2.720000      9.7054228E-37
   2.730000      8.3177839E-37
   2.740000      6.8807033E-37
   2.750000      6.0713940E-37
   2.760000      5.7557615E-37
   2.770000      5.2895394E-37
   2.780000      7.1791700E-37
   2.790000      1.2123495E-36
   2.800000      1.8815456E-36
   2.810000      2.6893218E-36
   2.820000      3.6852035E-36
   2.830000      4.5725346E-36
   2.840000      5.2443456E-36
   2.850000      6.0141861E-36
   2.860000      6.8666333E-36
   2.870000      7.3745934E-36
   2.880000      7.3394003E-36
   2.890000      6.8498303E-36
   2.900000      5.4590549E-36
   2.910000      3.2998564E-36
   2.920000      1.0073186E-36
   2.930000     -1.0837555E-36
   2.940000     -2.8194091E-36
   2.950000     -4.1567239E-36
   2.960000     -5.0522527E-36
   2.970000     -5.3323693E-36
   2.980000     -5.1376303E-36
   2.990000     -4.8435404E-36
   3.000000     -4.7120546E-36
   3.010000     -4.7982967E-36
   3.020000     -5.1377953E-36
   3.030000     -6.1447403E-36
   3.040000     -7.8287874E-36
   3.050000     -9.8674500E-36
   3.060000     -1.2108711E-35
   3.070000     -1.4469025E-35
   3.080000     -1.6932370E-35
   3.090000     -1.9561436E-35
   3.100000     -2.2212998E-35
   3.110000     -2.4467215E-35
   3.120000     -2.6033351E-35
   3.130000     -2.6937211E-35
   3.140000     -2.7699419E-35
   3.150000     -2.7745616E-35
   3.160000     -2.6684660E-35
   3.170000     -2.5240734E-35
   3.180000     -2.3551618E-35
   3.190000     -2.1722873E-35
   3.200000     -1.9948834E-35
   3.210000     -1.8613267E-35
   3.220000     -1.7847929E-35
   3.230000     -1.7483643E-35
   3.240000     -1.7497090E-35
   3.250000     -1.7160365E-35
   3.260000     -1.6642621E-35
   3.270000     -1.6305689E-35
   3.280000     -1.4619491E-35
   3.290000     -1.1161701E-35
   3.300000     -6.3217461E-36
   3.310000     -5.0301727E-38
   3.320000      7.4055154E-36
   3.330000      1.5777894E-35
   3.340000      2.4741602E-35
   3.350000      3.0737955E-35
   3.360000      3.2947528E-35
   3.370000      3.4994507E-35
   3.380000      3.6539329E-35
   3.390000      3.7208738E-35
   3.400000      4.0790630E-35
   3.410000      4.6990588E-35
   3.420000      5.2736821E-35
   3.430000      5.6911794E-35
   3.440000      5.9545183E-35
   3.450000      6.2386791E-35
   3.460000      6.5743511E-35
   3.470000      7.2079374E-35
   3.480000      8.1839128E-35
   3.490000      9.3754462E-35
   3.500000      1.0526452E-34
   3.510000      1.1293379E-34
   3.520000      1.1925215E-34
   3.530000      1.2596432E-34
   3.540000      1.3235874E-34
   3.550000      1.3816781E-34
   3.560000      1.4293471E-34
   3.570000      1.4940052E-34
   3.580000      1.6085151E-34
   3.590000      1.7549645E-34
   3.600000      1.8797020E-34
   3.610000      1.9660568E-34
   3.620000      2.0309695E-34
   3.630000      1.9491423E-34
   3.640000      1.6935235E-34
   3.650000      1.4170069E-34
   3.660000      1.1492039E-34
   3.670000      7.5177364E-35
   3.680000      2.4839542E-35
   3.690000     -2.3317441E-35
   3.700000     -6.4216292E-35
   3.710000     -9.3138539E-35
   3.720000     -1.0781094E-34
   3.730000     -1.1322318E-34
   3.740000     -1.0798021E-34
   3.750000     -8.5664891E-35
   3.760000     -5.4957168E-35
   3.770000     -4.1580363E-35
   3.780000     -5.0460236E-35
   3.790000     -6.7852892E-35
   3.800000     -9.5262585E-35
   3.810000     -1.3924640E-34
   3.820000     -2.0355104E-34
   3.830000     -2.8259681E-34
   3.840000     -3.7436331E-34
   3.850000     -4.6910660E-34
   3.860000     -5.5203717E-34
   3.870000     -6.0535209E-34
   3.880000     -6.2886000E-34
   3.890000     -6.4224851E-34
   3.900000     -6.5783869E-34
   3.910000     -6.8108629E-34
   3.920000     -6.9832455E-34
   3.930000     -7.0159518E-34
   3.940000     -6.9778681E-34
   3.950000     -6.9202808E-34
   3.960000     -6.8841601E-34
   3.970000     -6.8891426E-34
   3.980000     -6.9489743E-34
   3.990000     -7.0596150E-34
   4.000000     -7.2221294E-34
   4.010000     -7.4042869E-34
   4.020000     -7.4989560E-34
   4.030000     -7.4534933E-34
   4.040000     -7.2964766E-34
   4.050000     -7.0100257E-34
   4.060000     -6.5265187E-34
   4.070000     -5.8459290E-34
   4.080000     -5.0284273E-34
   4.090000     -4.1043699E-34
   4.100000     -3.1070706E-34
   4.110000     -2.1019035E-34
   4.120000     -1.1228244E-34
   4.130000     -1.8033929E-35
   4.140000      6.9120761E-35
   4.150000      1.5090428E-34
   4.160000      2.3283288E-34
   4.170000      3.1877421E-34
   4.180000      4.1105545E-34
   4.190000      5.1858260E-34
   4.200000      6.4561240E-34
   4.210000      7.8818926E-34
   4.220000      9.4283335E-34
   4.230000      1.1075899E-33
   4.240000      1.2871991E-33
   4.250000      1.4792651E-33
   4.260000      1.6778742E-33
   4.270000      1.8672553E-33
   4.280000      2.0464526E-33
   4.290000      2.2368350E-33
   4.300000      2.4219210E-33
   4.310000      2.5884623E-33
   4.320000      2.7423853E-33
   4.330000      2.8865195E-33
   4.340000      3.0155629E-33
   4.350000      3.1313531E-33
   4.360000      3.2443637E-33
   4.370000      3.3555856E-33
   4.380000      3.4682200E-33
   4.390000      3.5796459E-33
   4.400000      3.6942977E-33
   4.410000      3.8105295E-33
   4.420000      3.9174734E-33
   4.430000      4.0084056E-33
   4.440000      4.0817660E-33
   4.450000      4.1302849E-33
   4.460000      4.1438255E-33
   4.470000      4.1195978E-33
   4.480000      4.0554676E-33
   4.490000      3.9490020E-33
   4.500000      3.7996918E-33
   4.510000      3.6110316E-33
   4.520000      3.3871253E-33
   4.530000      3.1320599E-33
   4.540000      2.8495280E-33
   4.550000      2.5429186E-33
   4.560000      2.2091633E-33
   4.570000      1.8488673E-33
   4.580000      1.4648452E-33
   4.590000      1.0526935E-33
   4.600000      6.0779799E-34
   4.610000      1.2489555E-34
   4.620000     -4.0088619E-34
   4.630000     -9.7396154E-34
   4.640000     -1.5977016E-33
   4.650000     -2.2738585E-33
   4.660000     -3.0024040E-33
   4.670000     -3.7804817E-33
   4.680000     -4.6025445E-33
   4.690000     -5.4641867E-33
   4.700000     -6.3581049E-33
   4.710000     -7.2764650E-33
   4.720000     -8.2150473E-33
   4.730000     -9.1691682E-33
   4.740000     -1.0135350E-32
   4.750000     -1.1116300E-32
   4.760000     -1.2102594E-32
   4.770000     -1.3087989E-32
   4.780000     -1.4079112E-32
   4.790000     -1.5075005E-32
   4.800000     -1.6074580E-32
   4.810000     -1.7075945E-32
   4.820000     -1.8077710E-32
   4.830000     -1.9071915E-32
   4.840000     -2.0048726E-32
   4.850000     -2.1000599E-32
   4.860000     -2.1917831E-32
   4.870000     -2.2789813E-32
   4.880000     -2.3604220E-32
   4.890000     -2.4349102E-32
   4.900000     -2.5015234E-32
   4.910000     -2.5592848E-32
   4.920000     -2.6073044E-32
   4.930000     -2.6449028E-32
   4.940000     -2.6712947E-32
   4.950000     -2.6858797E-32
   4.960000     -2.6880708E-32
   4.970000     -2.6772389E-32
   4.980000     -2.6527654E-32
   4.990000     -2.6139236E-32
   5.000000     -2.5598147E-32
   5.010000     -2.4894417E-32
   5.020000     -2.4017132E-32
   5.030000     -2.2954792E-32
   5.040000     -2.1695622E-32
   5.050000     -2.0227891E-32
   5.060000     -1.8540680E-32
   5.070000     -1.6624319E-32
   5.080000     -1.4470709E-32
   5.090000     -1.2073847E-32
   5.100000     -9.4289238E-33
   5.110000     -6.5329142E-33
   5.120000     -3.3850667E-33
   5.130000      1.4463518E-35
   5.140000      3.6647300E-33
   5.150000      7.5642819E-33
   5.160000      1.1711454E-32
   5.170000      1.6104547E-32
   5.180000      2.0741968E-32
   5.190000      2.5621904E-32
   5.200000      3.0742016E-32
   5.210000      3.6099255E-32
   5.220000      4.1689269E-32
   5.230000      4.7505997E-32
   5.240000      5.3541282E-32
   5.250000      5.9784538E-32
   5.260000      6.6222626E-32
   5.270000      7.2836833E-32
   5.280000      7.9612124E-32
   5.290000      8.6531078E-32
   5.300000      9.3568010E-32
   5.310000      1.0069831E-31
   5.320000      1.0789620E-31
   5.330000      1.1513475E-31
   5.340000      1.2238581E-31
   5.350000      1.2961427E-31
   5.360000      1.3679698E-31
   5.370000      1.4390936E-31
   5.380000      1.5091175E-31
   5.390000      1.5776910E-31
   5.400000      1.6444382E-31
   5.410000      1.7089516E-31
   5.420000      1.7707970E-31
   5.430000      1.8295134E-31
   5.440000      1.8846190E-31
   5.450000      1.9355993E-31
   5.460000      1.9819138E-31
   5.470000      2.0230168E-31
   5.480000      2.0583506E-31
   5.490000      2.0873467E-31
   5.500000      2.1094312E-31
   5.510000      2.1240259E-31
   5.520000      2.1305508E-31
   5.530000      2.1284237E-31
   5.540000      2.1170592E-31
   5.550000      2.0958662E-31
   5.560000      2.0642485E-31
   5.570000      2.0216011E-31
   5.580000      1.9673126E-31
   5.590000      1.9007655E-31
   5.600000      1.8213370E-31
   5.610000      1.7284023E-31
   5.620000      1.6213377E-31
   5.630000      1.4995264E-31
   5.640000      1.3623637E-31
   5.650000      1.2092612E-31
   5.660000      1.0396518E-31
   5.670000      8.5299448E-32
   5.680000      6.4877790E-32
   5.690000      4.2652336E-32
   5.700000      1.8578709E-32
   5.710000     -7.3838553E-33
   5.720000     -3.5272327E-32
   5.730000     -6.5119531E-32
   5.740000     -9.6953834E-32
   5.750000     -1.3079884E-31
   5.760000     -1.6667274E-31
   5.770000     -2.0458762E-31
   5.780000     -2.4454890E-31
   5.790000     -2.8655421E-31
   5.800000     -3.3059274E-31
   5.810000     -3.7664421E-31
   5.820000     -4.2467809E-31
   5.830000     -4.7465268E-31
   5.840000     -5.2651464E-31
   5.850000     -5.8019824E-31
   5.860000     -6.3562501E-31
   5.870000     -6.9270330E-31
   5.880000     -7.5132793E-31
   5.890000     -8.1137999E-31
   5.900000     -8.7272631E-31
   5.910000     -9.3521926E-31
   5.920000     -9.9869614E-31
   5.930000     -1.0629786E-30
   5.940000     -1.1278720E-30
   5.950000     -1.1931640E-30
   5.960000     -1.2586248E-30
   5.970000     -1.3240056E-30
   5.980000     -1.3890377E-30
   5.990000     -1.4534317E-30
   6.000000     -1.5168777E-30
   6.010000     -1.5790434E-30
   6.020000     -1.6395758E-30
   6.030000     -1.6980985E-30
   6.040000     -1.7542139E-30
   6.050000     -1.8075026E-30
   6.060000     -1.8575231E-30
   6.070000     -1.9038132E-30
   6.080000     -1.9458895E-30
   6.090000     -1.9832484E-30
   6.100000     -2.0153663E-30
   6.110000     -2.0417005E-30
   6.120000     -2.0616892E-30
   6.130000     -2.0747526E-30
   6.140000     -2.0802949E-30
   6.150000     -2.0777036E-30
   6.160000     -2.0663524E-30
   6.170000     -2.0456032E-30
   6.180000     -2.0148067E-30
   6.190000     -1.9733063E-30
   6.200000     -1.9204403E-30
   6.210000     -1.8555445E-30
   6.220000     -1.7779557E-30
   6.230000     -1.6870142E-30
   6.240000     -1.5820681E-30
   6.250000     -1.4624760E-30
   6.260000     -1.3276104E-30
   6.270000     -1.1768619E-30
   6.280000     -1.0096418E-30
   6.290000     -8.2538577E-31
   6.300000     -6.2355809E-31
   6.310000     -4.0365446E-31
   6.320000     -1.6520719E-31
   6.330000      9.2210449E-32
   6.340000      3.6897989E-31
   6.350000      6.6543146E-31
   6.360000      9.8183965E-31
   6.370000      1.3184175E-30
   6.380000      1.6753102E-30
   6.390000      2.0525890E-30
   6.400000      2.4502448E-30
   6.410000      2.8681825E-30
   6.420000      3.3062142E-30
   6.430000      3.7640540E-30
   6.440000      4.2413104E-30
   6.450000      4.7374834E-30
   6.460000      5.2519549E-30
   6.470000      5.7839863E-30
   6.480000      6.3327112E-30
   6.490000      6.8971335E-30
   6.500000      7.4761177E-30
   6.510000      8.0683878E-30
   6.520000      8.6725205E-30
   6.530000      9.2869418E-30
   6.540000      9.9099222E-30
   6.550000      1.0539573E-29
   6.560000      1.1173839E-29
   6.570000      1.1810505E-29
   6.580000      1.2447182E-29
   6.590000      1.3081315E-29
   6.600000      1.3710175E-29
   6.610000      1.4330858E-29
   6.620000      1.4940292E-29
   6.630000      1.5535234E-29
   6.640000      1.6112268E-29
   6.650000      1.6667813E-29
   6.660000      1.7198115E-29
   6.670000      1.7699265E-29
   6.680000      1.8167187E-29
   6.690000      1.8597652E-29
   6.700000      1.8986276E-29
   6.710000      1.9328537E-29
   6.720000      1.9619761E-29
   6.730000      1.9855148E-29
   6.740000      2.0029765E-29
   6.750000      2.0138571E-29
   6.760000      2.0176417E-29
   6.770000      2.0138061E-29
   6.780000      2.0018190E-29
   6.790000      1.9811420E-29
   6.800000      1.9512323E-29
   6.810000      1.9115443E-29
   6.820000      1.8615317E-29
   6.830000      1.8006493E-29
   6.840000      1.7283559E-29
   6.850000      1.6441155E-29
   6.860000      1.5474008E-29
   6.870000      1.4376957E-29
   6.880000      1.3144980E-29
   6.890000      1.1773214E-29
   6.900000      1.0256990E-29
   6.910000      8.5918684E-30
   6.920000      6.7736634E-30
   6.930000      4.7984838E-30
   6.940000      2.6627661E-30
   6.950000      3.6330853E-31
   6.960000     -2.1026807E-30
   6.970000     -4.7375575E-30
   6.980000     -7.5432033E-30
   6.990000     -1.0520969E-29
   7.000000     -1.3671635E-29
   7.010000     -1.6995376E-29
   7.020000     -2.0491711E-29
   7.030000     -2.4159469E-29
   7.040000     -2.7996738E-29
   7.050000     -3.2000819E-29
   7.060000     -3.6168179E-29