  -2.600000      0.0000000E+00
  -2.590000      0.0000000E+00
  -2.580000      0.0000000E+00
  -2.570000      0.0000000E+00
  -2.560000      0.0000000E+00
  -2.550000      0.0000000E+00
  -2.540000      0.0000000E+00
  -2.530000      0.0000000E+00
  -2.520000      0.0000000E+00
  -2.510000      0.0000000E+00
  -2.500000      0.0000000E+00
  -2.490000      0.0000000E+00
  -2.480000      0.0000000E+00
  -2.470000      0.0000000E+00
  -2.460000      0.0000000E+00
  -2.450000      0.0000000E+00
  -2.440000      0.0000000E+00
  -2.430000      0.0000000E+00
  -2.420000      0.0000000E+00
  -2.410000      0.0000000E+00
  -2.400000      0.0000000E+00
  -2.390000      0.0000000E+00
  -2.380000      0.0000000E+00
  -2.370000      0.0000000E+00
  -2.360000      0.0000000E+00
  -2.350000      0.0000000E+00
  -2.340000      0.0000000E+00
  -2.330000      0.0000000E+00
  -2.320000      0.0000000E+00
  -2.310000      0.0000000E+00
  -2.300000      0.0000000E+00
  -2.290000      0.0000000E+00
  -2.280000      0.0000000E+00
  -2.270000      0.0000000E+00
  -2.260000      0.0000000E+00
  -2.250000      0.0000000E+00
  -2.240000      0.0000000E+00
  -2.230000      0.0000000E+00
  -2.220000      0.0000000E+00
  -2.210000      0.0000000E+00
  -2.200000      0.0000000E+00
  -2.190000      0.0000000E+00
  -2.180000      0.0000000E+00
  -2.170000      0.0000000E+00
  -2.160000      0.0000000E+00
  -2.150000      0.0000000E+00
  -2.140000      0.0000000E+00
  -2.130000      0.0000000E+00
  -2.120000      0.0000000E+00
  -2.110000      0.0000000E+00
  -2.100000      0.0000000E+00
  -2.090000      0.0000000E+00
  -2.080000      0.0000000E+00
  -2.070000      0.0000000E+00
  -2.060000      0.0000000E+00
  -2.050000      0.0000000E+00
  -2.040000      0.0000000E+00
  -2.030000      0.0000000E+00
  -2.020000      0.0000000E+00
  -2.010000      0.0000000E+00
  -2.000000      0.0000000E+00
  -1.990000      0.0000000E+00
  -1.980000      0.0000000E+00
  -1.970000      0.0000000E+00
  -1.960000      0.0000000E+00
  -1.950000      0.0000000E+00
  -1.940000      0.0000000E+00
  -1.930000      0.0000000E+00
  -1.920000      0.0000000E+00
  -1.910000      0.0000000E+00
  -1.900000      0.0000000E+00
  -1.890000      0.0000000E+00
  -1.880000      0.0000000E+00
  -1.870000      0.0000000E+00
  -1.860000      0.0000000E+00
  -1.850000      0.0000000E+00
  -1.840000      0.0000000E+00
  -1.830000      0.0000000E+00
  -1.820000      0.0000000E+00
  -1.810000      0.0000000E+00
  -1.800000      0.0000000E+00
  -1.790000      0.0000000E+00
  -1.780000      0.0000000E+00
  -1.770000      0.0000000E+00
  -1.760000      0.0000000E+00
  -1.750000      0.0000000E+00
  -1.740000      0.0000000E+00
  -1.730000      0.0000000E+00
  -1.720000      0.0000000E+00
  -1.710000      0.0000000E+00
  -1.700000      0.0000000E+00
  -1.690000      0.0000000E+00
  -1.680000      0.0000000E+00
  -1.670000      0.0000000E+00
  -1.660000      0.0000000E+00
  -1.650000      0.0000000E+00
  -1.640000      0.0000000E+00
  -1.630000      0.0000000E+00
  -1.620000      0.0000000E+00
  -1.610000      0.0000000E+00
  -1.600000      0.0000000E+00
  -1.590000      0.0000000E+00
  -1.580000      0.0000000E+00
  -1.570000      0.0000000E+00
  -1.560000      0.0000000E+00
  -1.550000      0.0000000E+00
  -1.540000      0.0000000E+00
  -1.530000      0.0000000E+00
  -1.520000      0.0000000E+00
  -1.510000      0.0000000E+00
  -1.500000      0.0000000E+00
  -1.490000      0.0000000E+00
  -1.480000      0.0000000E+00
  -1.470000      0.0000000E+00
  -1.460000      0.0000000E+00
  -1.450000      0.0000000E+00
  -1.440000      0.0000000E+00
  -1.430000      0.0000000E+00
  -1.420000      0.0000000E+00
  -1.410000      0.0000000E+00
  -1.400000      0.0000000E+00
  -1.390000      0.0000000E+00
  -1.380000      0.0000000E+00
  -1.370000      0.0000000E+00
  -1.360000      0.0000000E+00
  -1.350000      0.0000000E+00
  -1.340000      0.0000000E+00
  -1.330000      0.0000000E+00
  -1.320000      0.0000000E+00
  -1.310000      0.0000000E+00
  -1.300000      0.0000000E+00
  -1.290000      0.0000000E+00
  -1.280000      0.0000000E+00
  -1.270000      0.0000000E+00
  -1.260000      0.0000000E+00
  -1.250000      0.0000000E+00
  -1.240000      0.0000000E+00
  -1.230000      0.0000000E+00
  -1.220000      0.0000000E+00
  -1.210000      0.0000000E+00
  -1.200000      0.0000000E+00
  -1.190000      0.0000000E+00
  -1.180000      0.0000000E+00
  -1.170000      0.0000000E+00
  -1.160000      0.0000000E+00
  -1.150000      0.0000000E+00
  -1.140000      0.0000000E+00
  -1.130000      0.0000000E+00
  -1.120000      0.0000000E+00
  -1.110000      0.0000000E+00
  -1.100000      0.0000000E+00
  -1.090000      0.0000000E+00
  -1.080000      0.0000000E+00
  -1.070000      0.0000000E+00
  -1.060000      0.0000000E+00
  -1.050000      0.0000000E+00
  -1.040000      0.0000000E+00
  -1.030000      0.0000000E+00
  -1.020000      0.0000000E+00
  -1.010000      0.0000000E+00
  -1.000000      0.0000000E+00
 -0.9900000      0.0000000E+00
 -0.9800000      0.0000000E+00
 -0.9700000      0.0000000E+00
 -0.9600000      0.0000000E+00
 -0.9500000      0.0000000E+00
 -0.9400000      0.0000000E+00
 -0.9300000      0.0000000E+00
 -0.9200000      0.0000000E+00
 -0.9100000      0.0000000E+00
 -0.9000000      0.0000000E+00
 -0.8900000      0.0000000E+00
 -0.8800000      0.0000000E+00
 -0.8700000      0.0000000E+00
 -0.8600000      0.0000000E+00
 -0.8500000      0.0000000E+00
 -0.8400000      0.0000000E+00
 -0.8300000      0.0000000E+00
 -0.8200000      0.0000000E+00
 -0.8100000      0.0000000E+00
 -0.8000000      0.0000000E+00
 -0.7900000      0.0000000E+00
 -0.7800000      0.0000000E+00
 -0.7700000      0.0000000E+00
 -0.7600000      0.0000000E+00
 -0.7500000      0.0000000E+00
 -0.7400000      0.0000000E+00
 -0.7300000      0.0000000E+00
 -0.7200000      0.0000000E+00
 -0.7100000      0.0000000E+00
 -0.7000000      0.0000000E+00
 -0.6900000      0.0000000E+00
 -0.6800000      0.0000000E+00
 -0.6700000      0.0000000E+00
 -0.6600000      0.0000000E+00
 -0.6500000      0.0000000E+00
 -0.6400000      0.0000000E+00
 -0.6300000      0.0000000E+00
 -0.6200000      0.0000000E+00
 -0.6100000      0.0000000E+00
 -0.6000000      0.0000000E+00
 -0.5900000      0.0000000E+00
 -0.5800000      0.0000000E+00
 -0.5700000      0.0000000E+00
 -0.5600000      0.0000000E+00
 -0.5500000      0.0000000E+00
 -0.5400000      0.0000000E+00
 -0.5300000      0.0000000E+00
 -0.5200000      0.0000000E+00
 -0.5100000      0.0000000E+00
 -0.5000000      0.0000000E+00
 -0.4900000      0.0000000E+00
 -0.4800000      0.0000000E+00
 -0.4700000      0.0000000E+00
 -0.4600000      0.0000000E+00
 -0.4500000      0.0000000E+00
 -0.4400000      0.0000000E+00
 -0.4300000      0.0000000E+00
 -0.4200000      0.0000000E+00
 -0.4100000      0.0000000E+00
 -0.4000000      0.0000000E+00
 -0.3900000      0.0000000E+00
 -0.3800000      0.0000000E+00
 -0.3700000      0.0000000E+00
 -0.3600000      0.0000000E+00
 -0.3500000      0.0000000E+00
 -0.3400000      0.0000000E+00
 -0.3300000      0.0000000E+00
 -0.3200000      0.0000000E+00
 -0.3100000      0.0000000E+00
 -0.3000000      0.0000000E+00
 -0.2900000      0.0000000E+00
 -0.2800000      0.0000000E+00
 -0.2700000      0.0000000E+00
 -0.2600000      0.0000000E+00
 -0.2500000      0.0000000E+00
 -0.2400000      0.0000000E+00
 -0.2300000      0.0000000E+00
 -0.2200000      0.0000000E+00
 -0.2100000      0.0000000E+00
 -0.2000000      0.0000000E+00
 -0.1900000      0.0000000E+00
 -0.1800000      0.0000000E+00
 -0.1700000      0.0000000E+00
 -0.1600000      0.0000000E+00
 -0.1500000      0.0000000E+00
 -0.1400000      0.0000000E+00
 -0.1300000      0.0000000E+00
 -0.1200000      0.0000000E+00
 -0.1100000      0.0000000E+00
 -0.1000000      0.0000000E+00
 -9.0000004E-02  0.0000000E+00
 -7.9999998E-02  0.0000000E+00
 -7.0000000E-02  0.0000000E+00
 -5.9999999E-02  0.0000000E+00
 -5.0000001E-02  0.0000000E+00
 -3.9999999E-02  0.0000000E+00
 -2.9999999E-02  0.0000000E+00
 -2.0000000E-02  0.0000000E+00
 -9.9999998E-03  0.0000000E+00
 -3.4694470E-17  0.0000000E+00
  9.9999998E-03  0.0000000E+00
  2.0000000E-02  0.0000000E+00
  2.9999999E-02  0.0000000E+00
  3.9999999E-02  0.0000000E+00
  5.0000001E-02  0.0000000E+00
  5.9999999E-02  0.0000000E+00
  7.0000000E-02  0.0000000E+00
  7.9999998E-02  0.0000000E+00
  9.0000004E-02  0.0000000E+00
  0.1000000      0.0000000E+00
  0.1100000      0.0000000E+00
  0.1200000      0.0000000E+00
  0.1300000      0.0000000E+00
  0.1400000      0.0000000E+00
  0.1500000      0.0000000E+00
  0.1600000      0.0000000E+00
  0.1700000      0.0000000E+00
  0.1800000      0.0000000E+00
  0.1900000      0.0000000E+00
  0.2000000      0.0000000E+00
  0.2100000      0.0000000E+00
  0.2200000      0.0000000E+00
  0.2300000      0.0000000E+00
  0.2400000      0.0000000E+00
  0.2500000      0.0000000E+00
  0.2600000      0.0000000E+00
  0.2700000      0.0000000E+00
  0.2800000      0.0000000E+00
  0.2900000      0.0000000E+00
  0.3000000      0.0000000E+00
  0.3100000      0.0000000E+00
  0.3200000      0.0000000E+00
  0.3300000      0.0000000E+00
  0.3400000      0.0000000E+00
  0.3500000      0.0000000E+00
  0.3600000      0.0000000E+00
  0.3700000      0.0000000E+00
  0.3800000      0.0000000E+00
  0.3900000      0.0000000E+00
  0.4000000      0.0000000E+00
  0.4100000      0.0000000E+00
  0.4200000      0.0000000E+00
  0.4300000      0.0000000E+00
  0.4400000      0.0000000E+00
  0.4500000      0.0000000E+00
  0.4600000      0.0000000E+00
  0.4700000      0.0000000E+00
  0.4800000      0.0000000E+00
  0.4900000      0.0000000E+00
  0.5000000      0.0000000E+00
  0.5100000      0.0000000E+00
  0.5200000      0.0000000E+00
  0.5300000      0.0000000E+00
  0.5400000      0.0000000E+00
  0.5500000      0.0000000E+00
  0.5600000      0.0000000E+00
  0.5700000      0.0000000E+00
  0.5800000      0.0000000E+00
  0.5900000      0.0000000E+00
  0.6000000      0.0000000E+00
  0.6100000      0.0000000E+00
  0.6200000      0.0000000E+00
  0.6300000      0.0000000E+00
  0.6400000      0.0000000E+00
  0.6500000      0.0000000E+00
  0.6600000      0.0000000E+00
  0.6700000      0.0000000E+00
  0.6800000      0.0000000E+00
  0.6900000      0.0000000E+00
  0.7000000      1.6033796E-38
  0.7100000      2.4058050E-38
  0.7200000      3.4338993E-38
  0.7300000      4.4225506E-38
  0.7400000      5.3002584E-38
  0.7500000      5.9231496E-38
  0.7600000      6.4528628E-38
  0.7700000      7.3045496E-38
  0.7800000      8.3386098E-38
  0.7900000      9.1642302E-38
  0.8000000      9.7520867E-38
  0.8100000      1.0155732E-37
  0.8200000      1.0379679E-37
  0.8300000      1.0211616E-37
  0.8400000      9.6231470E-38
  0.8500000      8.4877696E-38
  0.8600000      6.5756951E-38
  0.8700000      3.9654841E-38
  0.8800000      0.0000000E+00
  0.8900000     -3.8066203E-38
  0.9000000     -8.7527697E-38
  0.9100000     -1.4219978E-37
  0.9200000     -1.9471706E-37
  0.9300000     -2.4474272E-37
  0.9400000     -2.9733908E-37
  0.9500000     -3.4856084E-37
  0.9600000     -3.9846148E-37
  0.9700000     -4.5392474E-37
  0.9800000     -5.1246696E-37
  0.9900000     -5.7129158E-37
   1.000000     -6.4485939E-37
   1.010000     -7.4005442E-37
   1.020000     -8.1040790E-37
   1.030000     -8.6120745E-37
   1.040000     -9.2258585E-37
   1.050000     -9.7215944E-37
   1.060000     -1.0073690E-36
   1.070000     -1.0240173E-36
   1.080000     -1.0339645E-36
   1.090000     -9.7163246E-37
   1.100000     -8.0275084E-37
   1.110000     -5.9468076E-37
   1.120000     -3.4967024E-37
   1.130000     -8.5869210E-38
   1.140000      1.7884841E-37
   1.150000      3.3819574E-37
   1.160000      3.6675048E-37
   1.170000      3.5794454E-37
   1.180000      3.6370798E-37
   1.190000      3.6105444E-37
   1.200000      3.2315958E-37
   1.210000      2.0465545E-37
   1.220000     -8.6782453E-38
   1.230000     -4.3366116E-37
   1.240000     -5.2147867E-37
   1.250000     -3.0823284E-37
   1.260000      5.6721899E-38
   1.270000      5.5107809E-37
   1.280000      1.1043275E-36
   1.290000      1.7180920E-36
   1.300000      2.8270099E-36
   1.310000      4.4459106E-36
   1.320000      6.0535089E-36
   1.330000      7.3947168E-36
   1.340000      8.7064090E-36
   1.350000      9.9430249E-36
   1.360000      1.0405314E-35
   1.370000      1.0076394E-35
   1.380000      9.4292584E-36
   1.390000      8.6418379E-36
   1.400000      7.7778897E-36
   1.410000      6.8785640E-36
   1.420000      6.1394555E-36
   1.430000      5.2190618E-36
   1.440000      4.0602787E-36
   1.450000      2.6945778E-36
   1.460000      5.9808060E-37
   1.470000     -2.1927771E-36
   1.480000     -5.2361468E-36
   1.490000     -7.3305332E-36
   1.500000     -8.5344075E-36
   1.510000     -1.0051337E-35
   1.520000     -1.3161835E-35
   1.530000     -1.7381442E-35
   1.540000     -2.1401020E-35
   1.550000     -2.5907324E-35
   1.560000     -3.1242835E-35
   1.570000     -3.6932009E-35
   1.580000     -4.2578934E-35
   1.590000     -4.6986251E-35
   1.600000     -5.0406392E-35
   1.610000     -5.3947913E-35
   1.620000     -5.7237483E-35
   1.630000     -5.9928326E-35
   1.640000     -6.0853822E-35
   1.650000     -5.7954162E-35
   1.660000     -5.2315669E-35
   1.670000     -4.5087584E-35
   1.680000     -3.6118120E-35
   1.690000     -2.7097398E-35
   1.700000     -2.0395332E-35
   1.710000     -1.6332365E-35
   1.720000     -8.6674348E-36
   1.730000     -3.2455558E-36
   1.740000     -3.2146255E-36
   1.750000     -1.1739149E-36
   1.760000      2.0604870E-36
   1.770000      5.8194199E-36
   1.780000      1.8010083E-35
   1.790000      4.0640823E-35
   1.800000      6.7024794E-35
   1.810000      9.2477857E-35
   1.820000      1.1601766E-34
   1.830000      1.3305957E-34
   1.840000      1.5362587E-34
   1.850000      1.8670045E-34
   1.860000      2.2468225E-34
   1.870000      2.6490266E-34
   1.880000      3.0196576E-34
   1.890000      3.3394183E-34
   1.900000      3.5338225E-34
   1.910000      3.7024282E-34
   1.920000      3.9393139E-34
   1.930000      4.2343997E-34
   1.940000      4.5714259E-34
   1.950000      4.8514833E-34
   1.960000      5.0460671E-34
   1.970000      5.2378981E-34
   1.980000      5.4579337E-34
   1.990000      5.6063807E-34
   2.000000      5.6768723E-34
   2.010000      5.7360290E-34
   2.020000      5.8003520E-34
   2.030000      5.7484672E-34
   2.040000      5.5031342E-34
   2.050000      5.1696451E-34
   2.060000      4.6066379E-34
   2.070000      3.7333342E-34
   2.080000      2.6577441E-34
   2.090000      1.3564259E-34
   2.100000     -1.4942036E-35
   2.110000     -1.8532889E-34
   2.120000     -3.6929037E-34
   2.130000     -5.6086036E-34
   2.140000     -7.6296081E-34
   2.150000     -9.7223595E-34
   2.160000     -1.1822907E-33
   2.170000     -1.3945035E-33
   2.180000     -1.6178077E-33
   2.190000     -1.8565462E-33
   2.200000     -2.1092086E-33
   2.210000     -2.3762593E-33
   2.220000     -2.6576397E-33
   2.230000     -2.9520746E-33
   2.240000     -3.2564356E-33
   2.250000     -3.5667871E-33
   2.260000     -3.8776201E-33
   2.270000     -4.1838515E-33
   2.280000     -4.4769713E-33
   2.290000     -4.7491790E-33
   2.300000     -4.9950190E-33
   2.310000     -5.2108654E-33
   2.320000     -5.3889639E-33
   2.330000     -5.5222836E-33
   2.340000     -5.6105365E-33
   2.350000     -5.6516611E-33
   2.360000     -5.6436204E-33
   2.370000     -5.5781163E-33
   2.380000     -5.4679038E-33
   2.390000     -5.3024339E-33
   2.400000     -5.0698855E-33
   2.410000     -4.7796721E-33
   2.420000     -4.4192170E-33
   2.430000     -3.9806033E-33
   2.440000     -3.4591566E-33
   2.450000     -2.8492170E-33
   2.460000     -2.1420516E-33
   2.470000     -1.3318357E-33
   2.480000     -4.1425849E-34
   2.490000      6.1322280E-34
   2.500000      1.7510349E-33
   2.510000      2.9977979E-33
   2.520000      4.3502897E-33
   2.530000      5.8036221E-33
   2.540000      7.3519685E-33
   2.550000      8.9881758E-33
   2.560000      1.0704642E-32
   2.570000      1.2494127E-32
   2.580000      1.4349130E-32
   2.590000      1.6262062E-32
   2.600000      1.8224814E-32
   2.610000      2.0229169E-32
   2.620000      2.2265910E-32
   2.630000      2.4323951E-32
   2.640000      2.6390462E-32
   2.650000      2.8450208E-32
   2.660000      3.0485520E-32
   2.670000      3.2475897E-32
   2.680000      3.4398065E-32
   2.690000      3.6226508E-32
   2.700000      3.7933632E-32
   2.710000      3.9490339E-32
   2.720000      4.0866581E-32
   2.730000      4.2031908E-32
   2.740000      4.2956017E-32
   2.750000      4.3609124E-32
   2.760000      4.3962137E-32
   2.770000      4.3986849E-32
   2.780000      4.3655915E-32
   2.790000      4.2942704E-32
   2.800000      4.1821112E-32
   2.810000      4.0265354E-32
   2.820000      3.8249834E-32
   2.830000      3.5749099E-32
   2.840000      3.2738053E-32
   2.850000      2.9192153E-32
   2.860000      2.5087859E-32
   2.870000      2.0403301E-32
   2.880000      1.5118967E-32
   2.890000      9.2184331E-33
   2.900000      2.6893408E-33
   2.910000     -4.4760235E-33
   2.920000     -1.2280229E-32
   2.930000     -2.0720038E-32
   2.940000     -2.9786072E-32
   2.950000     -3.9462709E-32
   2.960000     -4.9728095E-32
   2.970000     -6.0554099E-32
   2.980000     -7.1906394E-32
   2.990000     -8.3744569E-32
   3.000000     -9.6022160E-32
   3.010000     -1.0868650E-31
   3.020000     -1.2167852E-31
   3.030000     -1.3493249E-31
   3.040000     -1.4837550E-31
   3.050000     -1.6192702E-31
   3.060000     -1.7549837E-31
   3.070000     -1.8899221E-31
   3.080000     -2.0230232E-31
   3.090000     -2.1531354E-31
   3.100000     -2.2790144E-31
   3.110000     -2.3993288E-31
   3.120000     -2.5126643E-31
   3.130000     -2.6175309E-31
   3.140000     -2.7123719E-31
   3.150000     -2.7955722E-31
   3.160000     -2.8654701E-31
   3.170000     -2.9203711E-31
   3.180000     -2.9585535E-31
   3.190000     -2.9782809E-31
   3.200000     -2.9778105E-31
   3.210000     -2.9554018E-31
   3.220000     -2.9093238E-31
   3.230000     -2.8378646E-31
   3.240000     -2.7393384E-31
   3.250000     -2.6120954E-31
   3.260000     -2.4545347E-31
   3.270000     -2.2651172E-31
   3.280000     -2.0423796E-31
   3.290000     -1.7849550E-31
   3.300000     -1.4915915E-31
   3.310000     -1.1611737E-31
   3.320000     -7.9274604E-32
   3.330000     -3.8553573E-32
   3.340000      6.1023556E-33
   3.350000      5.4726862E-32
   3.360000      1.0732848E-31
   3.370000      1.6388866E-31
   3.380000      2.2435998E-31
   3.390000      2.8866410E-31
   3.400000      3.5669043E-31
   3.410000      4.2829414E-31
   3.420000      5.0329491E-31
   3.430000      5.8147525E-31
   3.440000      6.6257900E-31
   3.450000      7.4630951E-31
   3.460000      8.3232834E-31
   3.470000      9.2025371E-31
   3.480000      1.0096583E-30
   3.490000      1.1000691E-30
   3.500000      1.1909648E-30
   3.510000      1.2817763E-30
   3.520000      1.3718855E-30
   3.530000      1.4606250E-30
   3.540000      1.5472790E-30
   3.550000      1.6310838E-30
   3.560000      1.7112292E-30
   3.570000      1.7868597E-30
   3.580000      1.8570772E-30
   3.590000      1.9209432E-30
   3.600000      1.9774805E-30
   3.610000      2.0256777E-30
   3.620000      2.0644912E-30
   3.630000      2.0928490E-30
   3.640000      2.1096552E-30
   3.650000      2.1137926E-30
   3.660000      2.1041283E-30
   3.670000      2.0795183E-30
   3.680000      2.0388128E-30
   3.690000      1.9808618E-30
   3.700000      1.9045226E-30
   3.710000      1.8086670E-30
   3.720000      1.6921883E-30
   3.730000      1.5540115E-30
   3.740000      1.3931016E-30
   3.750000      1.2084731E-30
   3.760000      9.9920104E-31
   3.770000      7.6443164E-31
   3.780000      5.0339365E-31
   3.790000      2.1540920E-31
   3.800000     -1.0009432E-31
   3.810000     -4.4357242E-31
   3.820000     -8.1535166E-31
   3.830000     -1.2156173E-30
   3.840000     -1.6444011E-30
   3.850000     -2.1015693E-30
   3.860000     -2.5868092E-30
   3.870000     -3.0996176E-30
   3.880000     -3.6392880E-30
   3.890000     -4.2048964E-30
   3.900000     -4.7952902E-30
   3.910000     -5.4090751E-30
   3.920000     -6.0446045E-30
   3.930000     -6.6999665E-30
   3.940000     -7.3729737E-30
   3.950000     -8.0611498E-30
   3.960000     -8.7617241E-30
   3.970000     -9.4716219E-30
   3.980000     -1.0187456E-29
   3.990000     -1.0905521E-29
   4.000000     -1.1621786E-29
   4.010000     -1.2331890E-29
   4.020000     -1.3031141E-29
   4.030000     -1.3714516E-29
   4.040000     -1.4376650E-29
   4.050000     -1.5011852E-29
   4.060000     -1.5614090E-29
   4.070000     -1.6177014E-29
   4.080000     -1.6693944E-29
   4.090000     -1.7157892E-29
   4.100000     -1.7561565E-29
   4.110000     -1.7897381E-29
   4.120000     -1.8157484E-29
   4.130000     -1.8333756E-29
   4.140000     -1.8417853E-29
   4.150000     -1.8401212E-29
   4.160000     -1.8275101E-29
   4.170000     -1.8030625E-29
   4.180000     -1.7658775E-29
   4.190000     -1.7150463E-29
   4.200000     -1.6496565E-29
   4.210000     -1.5687963E-29
   4.220000     -1.4715587E-29
   4.230000     -1.3570474E-29
   4.240000     -1.2243821E-29
   4.250000     -1.0727033E-29
   4.260000     -9.0117941E-30
   4.270000     -7.0901260E-30
   4.280000     -4.9544589E-30
   4.290000     -2.5976952E-30
   4.300000     -1.3282062E-32
   4.310000      2.8047109E-30
   4.320000      5.8615087E-30
   4.330000      9.1615524E-30
   4.340000      1.2708410E-29
   4.350000      1.6504693E-29
   4.360000      2.0551969E-29
   4.370000      2.4850661E-29
   4.380000      2.9399962E-29
   4.390000      3.4197739E-29
   4.400000      3.9240434E-29
   4.410000      4.4522956E-29
   4.420000      5.0038582E-29
   4.430000      5.5778873E-29
   4.440000      6.1733566E-29
   4.450000      6.7890469E-29
   4.460000      7.4235385E-29
   4.470000      8.0751974E-29
   4.480000      8.7421692E-29
   4.490000      9.4223673E-29
   4.500000      1.0113465E-28
   4.510000      1.0812889E-28
   4.520000      1.1517806E-28
   4.530000      1.2225118E-28
   4.540000      1.2931457E-28
   4.550000      1.3633178E-28
   4.560000      1.4326351E-28
   4.570000      1.5006758E-28
   4.580000      1.5669893E-28
   4.590000      1.6310950E-28
   4.600000      1.6924832E-28
   4.610000      1.7506147E-28
   4.620000      1.8049208E-28
   4.630000      1.8548037E-28
   4.640000      1.8996370E-28
   4.650000      1.9387659E-28
   4.660000      1.9715079E-28
   4.670000      1.9971542E-28
   4.680000      2.0149701E-28
   4.690000      2.0241969E-28
   4.700000      2.0240527E-28
   4.710000      2.0137339E-28
   4.720000      1.9924182E-28
   4.730000      1.9592655E-28
   4.740000      1.9134213E-28
   4.750000      1.8540185E-28
   4.760000      1.7801813E-28
   4.770000      1.6910276E-28
   4.780000      1.5856717E-28
   4.790000      1.4632284E-28
   4.800000      1.3228180E-28
   4.810000      1.1635702E-28
   4.820000      9.8462795E-29
   4.830000      7.8515307E-29
   4.840000      5.6433154E-29
   4.850000      3.2137927E-29
   4.860000      5.5547051E-30
   4.870000     -2.3387335E-29
   4.880000     -5.4754134E-29
   4.890000     -8.8606163E-29
   4.900000     -1.2499768E-28
   4.910000     -1.6397600E-28
   4.920000     -2.0558067E-28
   4.930000     -2.4984266E-28
   4.940000     -2.9678364E-28
   4.950000     -3.4641509E-28
   4.960000     -3.9873746E-28
   4.970000     -4.5373922E-28
   4.980000     -5.1139593E-28
   4.990000     -5.7166931E-28
   5.000000     -6.3450648E-28
   5.010000     -6.9983874E-28
   5.020000     -7.6758068E-28
   5.030000     -8.3762921E-28
   5.040000     -9.0986246E-28
   5.050000     -9.8413922E-28
   5.060000     -1.0602977E-27
   5.070000     -1.1381545E-27
   5.080000     -1.2175033E-27
   5.090000     -1.2981149E-27
   5.100000     -1.3797355E-27
   5.110000     -1.4620861E-27
   5.120000     -1.5448613E-27
   5.130000     -1.6277292E-27
   5.140000     -1.7103302E-27
   5.150000     -1.7922758E-27
   5.160000     -1.8731491E-27
   5.170000     -1.9525032E-27
   5.180000     -2.0298618E-27
   5.190000     -2.1047173E-27
   5.200000     -2.1765314E-27
   5.210000     -2.2447351E-27
   5.220000     -2.3087282E-27
   5.230000     -2.3678794E-27
   5.240000     -2.4215262E-27
   5.250000     -2.4689761E-27
   5.260000     -2.5095064E-27
   5.270000     -2.5423648E-27
   5.280000     -2.5667702E-27
   5.290000     -2.5819140E-27
   5.300000     -2.5869613E-27
   5.310000     -2.5810522E-27
   5.320000     -2.5633026E-27
   5.330000     -2.5328076E-27
   5.340000     -2.4886424E-27
   5.350000     -2.4298651E-27
   5.360000     -2.3555186E-27
   5.370000     -2.2646346E-27
   5.380000     -2.1562352E-27
   5.390000     -2.0293366E-27
   5.400000     -1.8829551E-27
   5.410000     -1.7161080E-27
   5.420000     -1.5278175E-27
   5.430000     -1.3171177E-27
   5.440000     -1.0830589E-27
   5.450000     -8.2471238E-28
   5.460000     -5.4117447E-28
   5.470000     -2.3157425E-28
   5.480000      1.0492072E-28
   5.490000      4.6909808E-28
   5.500000      8.6169380E-28
   5.510000      1.2833846E-27
   5.520000      1.7347806E-27
   5.530000      2.2164178E-27
   5.540000      2.7287517E-27
   5.550000      3.2721473E-27
   5.560000      3.8468706E-27
   5.570000      4.4530790E-27
   5.580000      5.0908125E-27
   5.590000      5.7599846E-27
   5.600000      6.4603737E-27
   5.610000      7.1916135E-27
   5.620000      7.9531801E-27
   5.630000      8.7443806E-27
   5.640000      9.5643491E-27
   5.650000      1.0412035E-26
   5.660000      1.1286188E-26
   5.670000      1.2185352E-26
   5.680000      1.3107855E-26
   5.690000      1.4051794E-26
   5.700000      1.5015035E-26
   5.710000      1.5995193E-26
   5.720000      1.6989628E-26
   5.730000      1.7995432E-26
   5.740000      1.9009423E-26
   5.750000      2.0028134E-26
   5.760000      2.1047810E-26
   5.770000      2.2064396E-26
   5.780000      2.3073531E-26
   5.790000      2.4070545E-26
   5.800000      2.5050443E-26
   5.810000      2.6007915E-26
   5.820000      2.6937326E-26
   5.830000      2.7832711E-26
   5.840000      2.8687774E-26
   5.850000      2.9495898E-26
   5.860000      3.0250132E-26
   5.870000      3.0943195E-26
   5.880000      3.1567492E-26
   5.890000      3.2115113E-26
   5.900000      3.2577838E-26
   5.910000      3.2947149E-26
   5.920000      3.3214230E-26
   5.930000      3.3369997E-26
   5.940000      3.3405098E-26
   5.950000      3.3309948E-26
   5.960000      3.3074728E-26
   5.970000      3.2689422E-26
   5.980000      3.2143826E-26
   5.990000      3.1427596E-26
   6.000000      3.0530254E-26
   6.010000      2.9441238E-26
   6.020000      2.8149931E-26
   6.030000      2.6645700E-26
   6.040000      2.4917922E-26
   6.050000      2.2956042E-26
   6.060000      2.0749618E-26
   6.070000      1.8288356E-26
   6.080000      1.5562176E-26
   6.090000      1.2561260E-26
   6.100000      9.2761075E-27
   6.110000      5.6976149E-27
   6.120000      1.8171203E-27
   6.130000     -2.3735288E-27
   6.140000     -6.8818931E-27
   6.150000     -1.1714876E-26
   6.160000     -1.6878647E-26
   6.170000     -2.2378571E-26
   6.180000     -2.8219142E-26
   6.190000     -3.4403857E-26
   6.200000     -4.0935163E-26
   6.210000     -4.7814369E-26
   6.220000     -5.5041556E-26
   6.230000     -6.2615477E-26
   6.240000     -7.0533471E-26
   6.250000     -7.8791366E-26
   6.260000     -8.7383374E-26
   6.270000     -9.6302019E-26
   6.280000     -1.0553803E-25
   6.290000     -1.1508024E-25
   6.300000     -1.2491551E-25
   6.310000     -1.3502862E-25
   6.320000     -1.4540213E-25
   6.330000     -1.5601637E-25
   6.340000     -1.6684930E-25
   6.350000     -1.7787639E-25
   6.360000     -1.8907066E-25
   6.370000     -2.0040250E-25
   6.380000     -2.1183960E-25
   6.390000     -2.2334693E-25
   6.400000     -2.3488664E-25
   6.410000     -2.4641794E-25
   6.420000     -2.5789712E-25
   6.430000     -2.6927752E-25
   6.440000     -2.8050945E-25
   6.450000     -2.9154014E-25
   6.460000     -3.0231369E-25
   6.470000     -3.1277120E-25
   6.480000     -3.2285069E-25
   6.490000     -3.3248700E-25
   6.500000     -3.4161205E-25
   6.510000     -3.5015462E-25
   6.520000     -3.5804057E-25
   6.530000     -3.6519285E-25
   6.540000     -3.7153164E-25
   6.550000     -3.7697437E-25
   6.560000     -3.8143584E-25
   6.570000     -3.8482831E-25
   6.580000     -3.8706170E-25
   6.590000     -3.8804381E-25
   6.600000     -3.8768042E-25
   6.610000     -3.8587550E-25
   6.620000     -3.8253155E-25
   6.630000     -3.7754964E-25
   6.640000     -3.7082990E-25
   6.650000     -3.6227172E-25
   6.660000     -3.5177398E-25
   6.670000     -3.3923548E-25
   6.680000     -3.2455542E-25
   6.690000     -3.0763354E-25
   6.700000     -2.8837077E-25
   6.710000     -2.6666942E-25
   6.720000     -2.4243382E-25
   6.730000     -2.1557071E-25
   6.740000     -1.8598972E-25
   6.750000     -1.5360383E-25
   6.760000     -1.1833013E-25
   6.770000     -8.0090305E-26
   6.780000     -3.8811112E-26
   6.790000      5.5748396E-27
   6.800000      5.3128426E-26
   6.810000      1.0390335E-25
   6.820000      1.5794567E-25
   6.830000      2.1529291E-25
   6.840000      2.7597335E-25
   6.850000      3.4000551E-25
   6.860000      4.0739718E-25
   6.870000      4.7814482E-25
   6.880000      5.5223271E-25
   6.890000      6.2963244E-25
   6.900000      7.1030190E-25
   6.910000      7.9418463E-25
   6.920000      8.8120901E-25
   6.930000      9.7128726E-25
   6.940000      1.0643149E-24
   6.950000      1.1601701E-24
   6.960000      1.2587130E-24
   6.970000      1.3597843E-24
   6.980000      1.4632052E-24
   6.990000      1.5687770E-24
   7.000000      1.6762795E-24
   7.010000      1.7854713E-24
   7.020000      1.8960881E-24
   7.030000      2.0078439E-24
   7.040000      2.1204287E-24
   7.050000      2.2335094E-24
   7.060000      2.3467285E-24