  -2.600000      0.0000000E+00
  -2.590000      0.0000000E+00
  -2.580000      0.0000000E+00
  -2.570000      0.0000000E+00
  -2.560000      0.0000000E+00
  -2.550000      0.0000000E+00
  -2.540000      0.0000000E+00
  -2.530000      0.0000000E+00
  -2.520000      0.0000000E+00
  -2.510000      0.0000000E+00
  -2.500000      0.0000000E+00
  -2.490000      0.0000000E+00
  -2.480000      0.0000000E+00
  -2.470000      0.0000000E+00
  -2.460000      0.0000000E+00
  -2.450000      0.0000000E+00
  -2.440000      0.0000000E+00
  -2.430000      0.0000000E+00
  -2.420000      0.0000000E+00
  -2.410000      0.0000000E+00
  -2.400000      0.0000000E+00
  -2.390000      0.0000000E+00
  -2.380000      0.0000000E+00
  -2.370000      0.0000000E+00
  -2.360000      0.0000000E+00
  -2.350000      0.0000000E+00
  -2.340000      0.0000000E+00
  -2.330000      0.0000000E+00
  -2.320000      0.0000000E+00
  -2.310000      0.0000000E+00
  -2.300000      0.0000000E+00
  -2.290000      0.0000000E+00
  -2.280000      0.0000000E+00
  -2.270000      0.0000000E+00
  -2.260000      0.0000000E+00
  -2.250000      0.0000000E+00
  -2.240000      0.0000000E+00
  -2.230000      0.0000000E+00
  -2.220000      0.0000000E+00
  -2.210000      0.0000000E+00
  -2.200000      0.0000000E+00
  -2.190000      0.0000000E+00
  -2.180000      0.0000000E+00
  -2.170000      0.0000000E+00
  -2.160000      0.0000000E+00
  -2.150000      0.0000000E+00
  -2.140000      0.0000000E+00
  -2.130000      0.0000000E+00
  -2.120000      0.0000000E+00
  -2.110000      0.0000000E+00
  -2.100000      0.0000000E+00
  -2.090000      0.0000000E+00
  -2.080000      0.0000000E+00
  -2.070000      0.0000000E+00
  -2.060000      0.0000000E+00
  -2.050000      0.0000000E+00
  -2.040000      0.0000000E+00
  -2.030000      0.0000000E+00
  -2.020000      0.0000000E+00
  -2.010000      0.0000000E+00
  -2.000000      0.0000000E+00
  -1.990000      0.0000000E+00
  -1.980000      0.0000000E+00
  -1.970000      0.0000000E+00
  -1.960000      0.0000000E+00
  -1.950000      0.0000000E+00
  -1.940000      0.0000000E+00
  -1.930000      0.0000000E+00
  -1.920000      0.0000000E+00
  -1.910000      0.0000000E+00
  -1.900000      0.0000000E+00
  -1.890000      0.0000000E+00
  -1.880000      0.0000000E+00
  -1.870000      0.0000000E+00
  -1.860000      0.0000000E+00
  -1.850000      0.0000000E+00
  -1.840000      0.0000000E+00
  -1.830000      0.0000000E+00
  -1.820000      0.0000000E+00
  -1.810000      0.0000000E+00
  -1.800000      0.0000000E+00
  -1.790000      0.0000000E+00
  -1.780000      0.0000000E+00
  -1.770000      0.0000000E+00
  -1.760000      0.0000000E+00
  -1.750000      0.0000000E+00
  -1.740000      0.0000000E+00
  -1.730000      0.0000000E+00
  -1.720000      0.0000000E+00
  -1.710000      0.0000000E+00
  -1.700000      0.0000000E+00
  -1.690000      0.0000000E+00
  -1.680000      0.0000000E+00
  -1.670000      0.0000000E+00
  -1.660000      0.0000000E+00
  -1.650000      0.0000000E+00
  -1.640000      0.0000000E+00
  -1.630000      0.0000000E+00
  -1.620000      0.0000000E+00
  -1.610000      0.0000000E+00
  -1.600000      0.0000000E+00
  -1.590000      0.0000000E+00
  -1.580000      0.0000000E+00
  -1.570000      0.0000000E+00
  -1.560000      0.0000000E+00
  -1.550000      0.0000000E+00
  -1.540000      0.0000000E+00
  -1.530000      0.0000000E+00
  -1.520000      0.0000000E+00
  -1.510000      0.0000000E+00
  -1.500000      0.0000000E+00
  -1.490000      0.0000000E+00
  -1.480000      0.0000000E+00
  -1.470000      0.0000000E+00
  -1.460000      0.0000000E+00
  -1.450000      0.0000000E+00
  -1.440000      0.0000000E+00
  -1.430000      0.0000000E+00
  -1.420000      0.0000000E+00
  -1.410000      0.0000000E+00
  -1.400000      0.0000000E+00
  -1.390000      0.0000000E+00
  -1.380000      0.0000000E+00
  -1.370000      0.0000000E+00
  -1.360000      0.0000000E+00
  -1.350000      0.0000000E+00
  -1.340000      0.0000000E+00
  -1.330000      0.0000000E+00
  -1.320000      0.0000000E+00
  -1.310000      0.0000000E+00
  -1.300000      0.0000000E+00
  -1.290000      0.0000000E+00
  -1.280000      0.0000000E+00
  -1.270000      0.0000000E+00
  -1.260000      0.0000000E+00
  -1.250000      0.0000000E+00
  -1.240000      0.0000000E+00
  -1.230000      0.0000000E+00
  -1.220000      0.0000000E+00
  -1.210000      0.0000000E+00
  -1.200000      0.0000000E+00
  -1.190000      0.0000000E+00
  -1.180000      0.0000000E+00
  -1.170000      0.0000000E+00
  -1.160000      0.0000000E+00
  -1.150000      0.0000000E+00
  -1.140000      0.0000000E+00
  -1.130000      0.0000000E+00
  -1.120000      0.0000000E+00
  -1.110000      0.0000000E+00
  -1.100000      0.0000000E+00
  -1.090000      0.0000000E+00
  -1.080000      0.0000000E+00
  -1.070000      0.0000000E+00
  -1.060000      0.0000000E+00
  -1.050000      0.0000000E+00
  -1.040000      0.0000000E+00
  -1.030000      0.0000000E+00
  -1.020000      0.0000000E+00
  -1.010000      0.0000000E+00
  -1.000000      0.0000000E+00
 -0.9900000      0.0000000E+00
 -0.9800000      0.0000000E+00
 -0.9700000      0.0000000E+00
 -0.9600000      0.0000000E+00
 -0.9500000      0.0000000E+00
 -0.9400000      0.0000000E+00
 -0.9300000      0.0000000E+00
 -0.9200000      0.0000000E+00
 -0.9100000      0.0000000E+00
 -0.9000000      0.0000000E+00
 -0.8900000      0.0000000E+00
 -0.8800000      0.0000000E+00
 -0.8700000      0.0000000E+00
 -0.8600000      0.0000000E+00
 -0.8500000      0.0000000E+00
 -0.8400000      0.0000000E+00
 -0.8300000      0.0000000E+00
 -0.8200000      0.0000000E+00
 -0.8100000      0.0000000E+00
 -0.8000000      0.0000000E+00
 -0.7900000      0.0000000E+00
 -0.7800000      0.0000000E+00
 -0.7700000      0.0000000E+00
 -0.7600000      0.0000000E+00
 -0.7500000      0.0000000E+00
 -0.7400000      0.0000000E+00
 -0.7300000      0.0000000E+00
 -0.7200000      0.0000000E+00
 -0.7100000      0.0000000E+00
 -0.7000000      0.0000000E+00
 -0.6900000      0.0000000E+00
 -0.6800000      0.0000000E+00
 -0.6700000      0.0000000E+00
 -0.6600000      0.0000000E+00
 -0.6500000      0.0000000E+00
 -0.6400000      0.0000000E+00
 -0.6300000      0.0000000E+00
 -0.6200000      0.0000000E+00
 -0.6100000      0.0000000E+00
 -0.6000000      0.0000000E+00
 -0.5900000      0.0000000E+00
 -0.5800000      0.0000000E+00
 -0.5700000      0.0000000E+00
 -0.5600000      0.0000000E+00
 -0.5500000      0.0000000E+00
 -0.5400000      0.0000000E+00
 -0.5300000      0.0000000E+00
 -0.5200000      0.0000000E+00
 -0.5100000      0.0000000E+00
 -0.5000000      0.0000000E+00
 -0.4900000      0.0000000E+00
 -0.4800000      0.0000000E+00
 -0.4700000      0.0000000E+00
 -0.4600000      0.0000000E+00
 -0.4500000      0.0000000E+00
 -0.4400000      0.0000000E+00
 -0.4300000      0.0000000E+00
 -0.4200000      0.0000000E+00
 -0.4100000      0.0000000E+00
 -0.4000000      0.0000000E+00
 -0.3900000      0.0000000E+00
 -0.3800000      0.0000000E+00
 -0.3700000      0.0000000E+00
 -0.3600000      0.0000000E+00
 -0.3500000      0.0000000E+00
 -0.3400000      0.0000000E+00
 -0.3300000      0.0000000E+00
 -0.3200000      0.0000000E+00
 -0.3100000      0.0000000E+00
 -0.3000000      0.0000000E+00
 -0.2900000      0.0000000E+00
 -0.2800000      0.0000000E+00
 -0.2700000      0.0000000E+00
 -0.2600000      0.0000000E+00
 -0.2500000      0.0000000E+00
 -0.2400000      0.0000000E+00
 -0.2300000      0.0000000E+00
 -0.2200000      0.0000000E+00
 -0.2100000      0.0000000E+00
 -0.2000000      0.0000000E+00
 -0.1900000      0.0000000E+00
 -0.1800000      0.0000000E+00
 -0.1700000      0.0000000E+00
 -0.1600000      0.0000000E+00
 -0.1500000      0.0000000E+00
 -0.1400000      0.0000000E+00
 -0.1300000      0.0000000E+00
 -0.1200000      0.0000000E+00
 -0.1100000      0.0000000E+00
 -0.1000000      0.0000000E+00
 -9.0000004E-02  0.0000000E+00
 -7.9999998E-02  0.0000000E+00
 -7.0000000E-02  0.0000000E+00
 -5.9999999E-02  0.0000000E+00
 -5.0000001E-02  0.0000000E+00
 -3.9999999E-02  0.0000000E+00
 -2.9999999E-02  0.0000000E+00
 -2.0000000E-02  0.0000000E+00
 -9.9999998E-03  0.0000000E+00
 -3.4694470E-17  0.0000000E+00
  9.9999998E-03  0.0000000E+00
  2.0000000E-02  0.0000000E+00
  2.9999999E-02  0.0000000E+00
  3.9999999E-02  0.0000000E+00
  5.0000001E-02  0.0000000E+00
  5.9999999E-02  0.0000000E+00
  7.0000000E-02  0.0000000E+00
  7.9999998E-02  0.0000000E+00
  9.0000004E-02  0.0000000E+00
  0.1000000      0.0000000E+00
  0.1100000      0.0000000E+00
  0.1200000      0.0000000E+00
  0.1300000      0.0000000E+00
  0.1400000      0.0000000E+00
  0.1500000      0.0000000E+00
  0.1600000      0.0000000E+00
  0.1700000      0.0000000E+00
  0.1800000      0.0000000E+00
  0.1900000      0.0000000E+00
  0.2000000      0.0000000E+00
  0.2100000      0.0000000E+00
  0.2200000      0.0000000E+00
  0.2300000      0.0000000E+00
  0.2400000      0.0000000E+00
  0.2500000      0.0000000E+00
  0.2600000      0.0000000E+00
  0.2700000      0.0000000E+00
  0.2800000      0.0000000E+00
  0.2900000      0.0000000E+00
  0.3000000      0.0000000E+00
  0.3100000      0.0000000E+00
  0.3200000      0.0000000E+00
  0.3300000      0.0000000E+00
  0.3400000      0.0000000E+00
  0.3500000      0.0000000E+00
  0.3600000      0.0000000E+00
  0.3700000      0.0000000E+00
  0.3800000      0.0000000E+00
  0.3900000      0.0000000E+00
  0.4000000      0.0000000E+00
  0.4100000      0.0000000E+00
  0.4200000      0.0000000E+00
  0.4300000      0.0000000E+00
  0.4400000      0.0000000E+00
  0.4500000      0.0000000E+00
  0.4600000      0.0000000E+00
  0.4700000      0.0000000E+00
  0.4800000      0.0000000E+00
  0.4900000      0.0000000E+00
  0.5000000      0.0000000E+00
  0.5100000      0.0000000E+00
  0.5200000      0.0000000E+00
  0.5300000      0.0000000E+00
  0.5400000      0.0000000E+00
  0.5500000      0.0000000E+00
  0.5600000      0.0000000E+00
  0.5700000      0.0000000E+00
  0.5800000      0.0000000E+00
  0.5900000      0.0000000E+00
  0.6000000      0.0000000E+00
  0.6100000      0.0000000E+00
  0.6200000      0.0000000E+00
  0.6300000      0.0000000E+00
  0.6400000      0.0000000E+00
  0.6500000      0.0000000E+00
  0.6600000      0.0000000E+00
  0.6700000      0.0000000E+00
  0.6800000      0.0000000E+00
  0.6900000      0.0000000E+00
  0.7000000      0.0000000E+00
  0.7100000      0.0000000E+00
  0.7200000      0.0000000E+00
  0.7300000      0.0000000E+00
  0.7400000      0.0000000E+00
  0.7500000      0.0000000E+00
  0.7600000      0.0000000E+00
  0.7700000      0.0000000E+00
  0.7800000      0.0000000E+00
  0.7900000      0.0000000E+00
  0.8000000      0.0000000E+00
  0.8100000      0.0000000E+00
  0.8200000      0.0000000E+00
  0.8300000      0.0000000E+00
  0.8400000      0.0000000E+00
  0.8500000      0.0000000E+00
  0.8600000      0.0000000E+00
  0.8700000      0.0000000E+00
  0.8800000      0.0000000E+00
  0.8900000      0.0000000E+00
  0.9000000      0.0000000E+00
  0.9100000      0.0000000E+00
  0.9200000      0.0000000E+00
  0.9300000      0.0000000E+00
  0.9400000      0.0000000E+00
  0.9500000      0.0000000E+00
  0.9600000      0.0000000E+00
  0.9700000      0.0000000E+00
  0.9800000      0.0000000E+00
  0.9900000      0.0000000E+00
   1.000000      0.0000000E+00
   1.010000      0.0000000E+00
   1.020000      0.0000000E+00
   1.030000      0.0000000E+00
   1.040000      0.0000000E+00
   1.050000      0.0000000E+00
   1.060000      0.0000000E+00
   1.070000      0.0000000E+00
   1.080000      0.0000000E+00
   1.090000      0.0000000E+00
   1.100000      0.0000000E+00
   1.110000      0.0000000E+00
   1.120000      0.0000000E+00
   1.130000      0.0000000E+00
   1.140000      0.0000000E+00
   1.150000      0.0000000E+00
   1.160000      0.0000000E+00
   1.170000      0.0000000E+00
   1.180000      0.0000000E+00
   1.190000      0.0000000E+00
   1.200000      0.0000000E+00
   1.210000      0.0000000E+00
   1.220000      0.0000000E+00
   1.230000      0.0000000E+00
   1.240000      0.0000000E+00
   1.250000      0.0000000E+00
   1.260000      0.0000000E+00
   1.270000      0.0000000E+00
   1.280000      0.0000000E+00
   1.290000      0.0000000E+00
   1.300000      0.0000000E+00
   1.310000      0.0000000E+00
   1.320000      0.0000000E+00
   1.330000      0.0000000E+00
   1.340000      0.0000000E+00
   1.350000      0.0000000E+00
   1.360000      0.0000000E+00
   1.370000      0.0000000E+00
   1.380000      0.0000000E+00
   1.390000      0.0000000E+00
   1.400000      0.0000000E+00
   1.410000      0.0000000E+00
   1.420000      0.0000000E+00
   1.430000      0.0000000E+00
   1.440000      0.0000000E+00
   1.450000      0.0000000E+00
   1.460000      0.0000000E+00
   1.470000      0.0000000E+00
   1.480000      0.0000000E+00
   1.490000      0.0000000E+00
   1.500000      0.0000000E+00
   1.510000      0.0000000E+00
   1.520000      0.0000000E+00
   1.530000      0.0000000E+00
   1.540000      0.0000000E+00
   1.550000      0.0000000E+00
   1.560000      0.0000000E+00
   1.570000      0.0000000E+00
   1.580000      0.0000000E+00
   1.590000      0.0000000E+00
   1.600000      0.0000000E+00
   1.610000      0.0000000E+00
   1.620000      0.0000000E+00
   1.630000      0.0000000E+00
   1.640000      0.0000000E+00
   1.650000      0.0000000E+00
   1.660000      0.0000000E+00
   1.670000      0.0000000E+00
   1.680000      0.0000000E+00
   1.690000      0.0000000E+00
   1.700000      0.0000000E+00
   1.710000      0.0000000E+00
   1.720000      0.0000000E+00
   1.730000      0.0000000E+00
   1.740000      0.0000000E+00
   1.750000      0.0000000E+00
   1.760000      0.0000000E+00
   1.770000      0.0000000E+00
   1.780000      0.0000000E+00
   1.790000      0.0000000E+00
   1.800000      0.0000000E+00
   1.810000      0.0000000E+00
   1.820000      0.0000000E+00
   1.830000      0.0000000E+00
   1.840000      0.0000000E+00
   1.850000      0.0000000E+00
   1.860000      0.0000000E+00
   1.870000      0.0000000E+00
   1.880000      0.0000000E+00
   1.890000      0.0000000E+00
   1.900000      0.0000000E+00
   1.910000      0.0000000E+00
   1.920000      0.0000000E+00
   1.930000      0.0000000E+00
   1.940000      0.0000000E+00
   1.950000      0.0000000E+00
   1.960000      0.0000000E+00
   1.970000      0.0000000E+00
   1.980000      0.0000000E+00
   1.990000      0.0000000E+00
   2.000000      0.0000000E+00
   2.010000      0.0000000E+00
   2.020000      0.0000000E+00
   2.030000      0.0000000E+00
   2.040000      0.0000000E+00
   2.050000      0.0000000E+00
   2.060000      0.0000000E+00
   2.070000      0.0000000E+00
   2.080000      0.0000000E+00
   2.090000      0.0000000E+00
   2.100000      0.0000000E+00
   2.110000      0.0000000E+00
   2.120000      0.0000000E+00
   2.130000      0.0000000E+00
   2.140000      0.0000000E+00
   2.150000      0.0000000E+00
   2.160000      0.0000000E+00
   2.170000      0.0000000E+00
   2.180000      0.0000000E+00
   2.190000      0.0000000E+00
   2.200000      0.0000000E+00
   2.210000      0.0000000E+00
   2.220000      0.0000000E+00
   2.230000      0.0000000E+00
   2.240000      0.0000000E+00
   2.250000      0.0000000E+00
   2.260000      0.0000000E+00
   2.270000      0.0000000E+00
   2.280000      0.0000000E+00
   2.290000      0.0000000E+00
   2.300000      0.0000000E+00
   2.310000      0.0000000E+00
   2.320000      0.0000000E+00
   2.330000      0.0000000E+00
   2.340000      0.0000000E+00
   2.350000      0.0000000E+00
   2.360000      0.0000000E+00
   2.370000      0.0000000E+00
   2.380000      0.0000000E+00
   2.390000      0.0000000E+00
   2.400000      0.0000000E+00
   2.410000      0.0000000E+00
   2.420000      0.0000000E+00
   2.430000      0.0000000E+00
   2.440000      0.0000000E+00
   2.450000      0.0000000E+00
   2.460000      0.0000000E+00
   2.470000      0.0000000E+00
   2.480000      0.0000000E+00
   2.490000      0.0000000E+00
   2.500000      0.0000000E+00
   2.510000      1.3074818E-38
   2.520000      1.5097440E-38
   2.530000      1.7288657E-38
   2.540000      1.9605020E-38
   2.550000      2.2028806E-38
   2.560000      2.4515896E-38
   2.570000      2.6771760E-38
   2.580000      2.8817271E-38
   2.590000      3.0276250E-38
   2.600000      3.1065184E-38
   2.610000      3.1620544E-38
   2.620000      3.1700872E-38
   2.630000      3.1495949E-38
   2.640000      3.1332086E-38
   2.650000      3.1345998E-38
   2.660000      3.1982821E-38
   2.670000      3.3031996E-38
   2.680000      3.3888231E-38
   2.690000      3.4504060E-38
   2.700000      3.5680744E-38
   2.710000      3.7772129E-38
   2.720000      3.9879362E-38
   2.730000      4.0779411E-38
   2.740000      4.0477022E-38
   2.750000      3.9863189E-38
   2.760000      3.8962571E-38
   2.770000      3.7159282E-38
   2.780000      3.4914873E-38
   2.790000      3.2881752E-38
   2.800000      3.1226131E-38
   2.810000      2.8919488E-38
   2.820000      2.5786145E-38
   2.830000      2.3000783E-38
   2.840000      2.0586511E-38
   2.850000      0.0000000E+00
   2.860000     -2.1195288E-38
   2.870000     -5.0825611E-38
   2.880000     -7.1010127E-38
   2.890000     -8.2184176E-38
   2.900000     -9.3744793E-38
   2.910000     -1.0308573E-37
   2.920000     -1.0928729E-37
   2.930000     -1.1334447E-37
   2.940000     -1.1014899E-37
   2.950000     -1.0072166E-37
   2.960000     -9.0260016E-38
   2.970000     -7.7535167E-38
   2.980000     -6.0624241E-38
   2.990000     -4.2358307E-38
   3.000000     -3.1763456E-38
   3.010000     -3.3385370E-38
   3.020000     -4.0015532E-38
   3.030000     -5.6216501E-38
   3.040000     -8.2607587E-38
   3.050000     -1.0822996E-37
   3.060000     -1.3441552E-37
   3.070000     -1.6606645E-37
   3.080000     -2.0074580E-37
   3.090000     -2.4475467E-37
   3.100000     -3.0388875E-37
   3.110000     -3.6722268E-37
   3.120000     -4.1667805E-37
   3.130000     -4.5021756E-37
   3.140000     -4.7522407E-37
   3.150000     -4.8458762E-37
   3.160000     -4.2980905E-37
   3.170000     -2.9735172E-37
   3.180000     -1.1941534E-37
   3.190000      1.0242956E-37
   3.200000      3.5972903E-37
   3.210000      6.4165744E-37
   3.220000      9.5033847E-37
   3.230000      1.3089765E-36
   3.240000      1.7376566E-36
   3.250000      2.2165952E-36
   3.260000      2.7310443E-36
   3.270000      3.2571414E-36
   3.280000      3.7748177E-36
   3.290000      4.2533291E-36
   3.300000      4.6956921E-36
   3.310000      5.1601268E-36
   3.320000      5.6891362E-36
   3.330000      6.2791990E-36
   3.340000      6.8978373E-36
   3.350000      7.5375347E-36
   3.360000      8.0930906E-36
   3.370000      8.5613885E-36
   3.380000      9.0589138E-36
   3.390000      9.5883433E-36
   3.400000      1.0197634E-35
   3.410000      1.0864855E-35
   3.420000      1.1462084E-35
   3.430000      1.1930466E-35
   3.440000      1.2401359E-35
   3.450000      1.2944850E-35
   3.460000      1.3516106E-35
   3.470000      1.4076067E-35
   3.480000      1.4739317E-35
   3.490000      1.5565567E-35
   3.500000      1.6363985E-35
   3.510000      1.7070441E-35
   3.520000      1.7768058E-35
   3.530000      1.8517961E-35
   3.540000      1.9237724E-35
   3.550000      1.9886473E-35
   3.560000      2.0240225E-35
   3.570000      2.0282680E-35
   3.580000      2.0291885E-35
   3.590000      1.9949468E-35
   3.600000      1.8732338E-35
   3.610000      1.6885358E-35
   3.620000      1.4820025E-35
   3.630000      1.2506720E-35
   3.640000      9.9623125E-36
   3.650000      7.1675589E-36
   3.660000      4.0694870E-36
   3.670000      7.3784216E-37
   3.680000     -2.8576371E-36
   3.690000     -6.7164371E-36
   3.700000     -1.0535515E-35
   3.710000     -1.4106278E-35
   3.720000     -1.7598966E-35
   3.730000     -2.1249160E-35
   3.740000     -2.5109891E-35
   3.750000     -2.9257721E-35
   3.760000     -3.3676564E-35
   3.770000     -3.8351192E-35
   3.780000     -4.3392935E-35
   3.790000     -4.8723569E-35
   3.800000     -5.4229125E-35
   3.810000     -5.9929337E-35
   3.820000     -6.5908476E-35
   3.830000     -7.2100530E-35
   3.840000     -7.8257853E-35
   3.850000     -8.4470840E-35
   3.860000     -9.1129264E-35
   3.870000     -9.8359673E-35
   3.880000     -1.0599095E-34
   3.890000     -1.1349149E-34
   3.900000     -1.2071301E-34
   3.910000     -1.2785055E-34
   3.920000     -1.3482166E-34
   3.930000     -1.4170917E-34
   3.940000     -1.4845734E-34
   3.950000     -1.5488440E-34
   3.960000     -1.6073116E-34
   3.970000     -1.6598279E-34
   3.980000     -1.7056787E-34
   3.990000     -1.7420204E-34
   4.000000     -1.7685240E-34
   4.010000     -1.7823161E-34
   4.020000     -1.7828075E-34
   4.030000     -1.7695917E-34
   4.040000     -1.7435510E-34
   4.050000     -1.7063562E-34
   4.060000     -1.6541942E-34
   4.070000     -1.5863046E-34
   4.080000     -1.5017618E-34
   4.090000     -1.4013060E-34
   4.100000     -1.2866292E-34
   4.110000     -1.1562903E-34
   4.120000     -1.0070093E-34
   4.130000     -8.3842048E-35
   4.140000     -6.5443530E-35
   4.150000     -4.5388661E-35
   4.160000     -2.3835864E-35
   4.170000     -8.2455729E-37
   4.180000      2.3136897E-35
   4.190000      4.9247967E-35
   4.200000      7.8710069E-35
   4.210000      1.1010764E-34
   4.220000      1.4253717E-34
   4.230000      1.7643129E-34
   4.240000      2.1453332E-34
   4.250000      2.5662265E-34
   4.260000      3.0163982E-34
   4.270000      3.4959135E-34
   4.280000      3.9906242E-34
   4.290000      4.5213824E-34
   4.300000      5.0794456E-34
   4.310000      5.6295517E-34
   4.320000      6.1800821E-34
   4.330000      6.7080678E-34
   4.340000      7.2018406E-34
   4.350000      7.6509277E-34
   4.360000      8.0281268E-34
   4.370000      8.3525523E-34
   4.380000      8.6450006E-34
   4.390000      8.9071606E-34
   4.400000      9.1199949E-34
   4.410000      9.2672935E-34
   4.420000      9.3489509E-34
   4.430000      9.3799784E-34
   4.440000      9.3690491E-34
   4.450000      9.3088334E-34
   4.460000      9.1827020E-34
   4.470000      8.9683414E-34
   4.480000      8.6831362E-34
   4.490000      8.3359998E-34
   4.500000      7.8951509E-34
   4.510000      7.3809873E-34
   4.520000      6.7989009E-34
   4.530000      6.1140827E-34
   4.540000      5.3048338E-34
   4.550000      4.3973866E-34
   4.560000      3.3620904E-34
   4.570000      2.1496763E-34
   4.580000      7.5588144E-35
   4.590000     -8.7580413E-35
   4.600000     -2.7412177E-34
   4.610000     -4.8129941E-34
   4.620000     -7.0307438E-34
   4.630000     -9.3638199E-34
   4.640000     -1.1855218E-33
   4.650000     -1.4502694E-33
   4.660000     -1.7337495E-33
   4.670000     -2.0378017E-33
   4.680000     -2.3605091E-33
   4.690000     -2.7015399E-33
   4.700000     -3.0588486E-33
   4.710000     -3.4311993E-33
   4.720000     -3.8151690E-33
   4.730000     -4.2065859E-33
   4.740000     -4.6059667E-33
   4.750000     -5.0132072E-33
   4.760000     -5.4260092E-33
   4.770000     -5.8385930E-33
   4.780000     -6.2520445E-33
   4.790000     -6.6671299E-33
   4.800000     -7.0742866E-33
   4.810000     -7.4682668E-33
   4.820000     -7.8490586E-33
   4.830000     -8.2145191E-33
   4.840000     -8.5598727E-33
   4.850000     -8.8827046E-33
   4.860000     -9.1784215E-33
   4.870000     -9.4408139E-33
   4.880000     -9.6657822E-33
   4.890000     -9.8483842E-33
   4.900000     -9.9838129E-33
   4.910000     -1.0065904E-32
   4.920000     -1.0089106E-32
   4.930000     -1.0046099E-32
   4.940000     -9.9315064E-33
   4.950000     -9.7370774E-33
   4.960000     -9.4538068E-33
   4.970000     -9.0767729E-33
   4.980000     -8.5969316E-33
   4.990000     -8.0047389E-33
   5.000000     -7.2934634E-33
   5.010000     -6.4567466E-33
   5.020000     -5.4864652E-33
   5.030000     -4.3748355E-33
   5.040000     -3.1128178E-33
   5.050000     -1.6930024E-33
   5.060000     -1.0792557E-34
   5.070000      1.6490716E-33
   5.080000      3.5839247E-33
   5.090000      5.7021596E-33
   5.100000      8.0089935E-33
   5.110000      1.0507954E-32
   5.120000      1.3202037E-32
   5.130000      1.6095644E-32
   5.140000      1.9190601E-32
   5.150000      2.2487987E-32
   5.160000      2.5988279E-32
   5.170000      2.9690625E-32
   5.180000      3.3592278E-32
   5.190000      3.7689426E-32
   5.200000      4.1977288E-32
   5.210000      4.6450088E-32
   5.220000      5.1100679E-32
   5.230000      5.5919024E-32
   5.240000      6.0894099E-32
   5.250000      6.6010132E-32
   5.260000      7.1254177E-32
   5.270000      7.6612880E-32
   5.280000      8.2062371E-32
   5.290000      8.7579883E-32
   5.300000      9.3142587E-32
   5.310000      9.8723270E-32
   5.320000      1.0429222E-31
   5.330000      1.0981694E-31
   5.340000      1.1526185E-31
   5.350000      1.2058831E-31
   5.360000      1.2575475E-31
   5.370000      1.3071651E-31
   5.380000      1.3542561E-31
   5.390000      1.3983108E-31
   5.400000      1.4387879E-31
   5.410000      1.4751149E-31
   5.420000      1.5066801E-31
   5.430000      1.5328440E-31
   5.440000      1.5529446E-31
   5.450000      1.5662847E-31
   5.460000      1.5721601E-31
   5.470000      1.5698002E-31
   5.480000      1.5584080E-31
   5.490000      1.5372038E-31
   5.500000      1.5053676E-31
   5.510000      1.4620594E-31
   5.520000      1.4064243E-31
   5.530000      1.3375928E-31
   5.540000      1.2546841E-31
   5.550000      1.1568120E-31
   5.560000      1.0430863E-31
   5.570000      9.1261784E-32
   5.580000      7.6452219E-32
   5.590000      5.9792490E-32
   5.600000      4.1196595E-32
   5.610000      2.0580540E-32
   5.620000     -2.1370895E-33
   5.630000     -2.7034566E-32
   5.640000     -5.4186264E-32
   5.650000     -8.3662172E-32
   5.660000     -1.1552693E-31
   5.670000     -1.4983924E-31
   5.680000     -1.8665105E-31
   5.690000     -2.2600628E-31
   5.700000     -2.6794042E-31
   5.710000     -3.1247929E-31
   5.720000     -3.5963815E-31
   5.730000     -4.0942064E-31
   5.740000     -4.6181797E-31
   5.750000     -5.1680698E-31
   5.760000     -5.7434969E-31
   5.770000     -6.3439201E-31
   5.780000     -6.9686343E-31
   5.790000     -7.6167515E-31
   5.800000     -8.2871778E-31
   5.810000     -8.9786177E-31
   5.820000     -9.6895576E-31
   5.830000     -1.0418253E-30
   5.840000     -1.1162718E-30
   5.850000     -1.1920715E-30
   5.860000     -1.2689746E-30
   5.870000     -1.3467036E-30
   5.880000     -1.4249524E-30
   5.890000     -1.5033870E-30
   5.900000     -1.5816410E-30
   5.910000     -1.6593164E-30
   5.920000     -1.7359859E-30
   5.930000     -1.8111883E-30
   5.940000     -1.8844292E-30
   5.950000     -1.9551806E-30
   5.960000     -2.0228800E-30
   5.970000     -2.0869304E-30
   5.980000     -2.1467004E-30
   5.990000     -2.2015237E-30
   6.000000     -2.2506991E-30
   6.010000     -2.2934912E-30
   6.020000     -2.3291307E-30
   6.030000     -2.3568146E-30
   6.040000     -2.3757077E-30
   6.050000     -2.3849430E-30
   6.060000     -2.3836234E-30
   6.070000     -2.3708228E-30
   6.080000     -2.3455884E-30
   6.090000     -2.3069423E-30
   6.100000     -2.2538840E-30
   6.110000     -2.1853935E-30
   6.120000     -2.1004327E-30
   6.130000     -1.9979509E-30
   6.140000     -1.8768868E-30
   6.150000     -1.7361732E-30
   6.160000     -1.5747412E-30
   6.170000     -1.3915247E-30
   6.180000     -1.1854656E-30
   6.190000     -9.5551958E-31
   6.200000     -7.0066150E-31
   6.210000     -4.1989190E-31
   6.220000     -1.1224302E-31
   6.230000      2.2321415E-31
   6.240000      5.8736185E-31
   6.250000      9.8102752E-31
   6.260000      1.4049774E-30
   6.270000      1.8599063E-30
   6.280000      2.3464297E-30
   6.290000      2.8650741E-30
   6.300000      3.4162683E-30
   6.310000      4.0003318E-30
   6.320000      4.6174652E-30
   6.330000      5.2677408E-30
   6.340000      5.9510901E-30
   6.350000      6.6672934E-30
   6.360000      7.4159678E-30
   6.370000      8.1965570E-30
   6.380000      9.0083176E-30
   6.390000      9.8503064E-30
   6.400000      1.0721372E-29
   6.410000      1.1620140E-29
   6.420000      1.2544997E-29
   6.430000      1.3494087E-29
   6.440000      1.4465293E-29
   6.450000      1.5456223E-29
   6.460000      1.6464206E-29
   6.470000      1.7486273E-29
   6.480000      1.8519151E-29
   6.490000      1.9559246E-29
   6.500000      2.0602642E-29
   6.510000      2.1645077E-29
   6.520000      2.2681952E-29
   6.530000      2.3708307E-29
   6.540000      2.4718823E-29
   6.550000      2.5707809E-29
   6.560000      2.6669204E-29
   6.570000      2.7596566E-29
   6.580000      2.8483074E-29
   6.590000      2.9321519E-29
   6.600000      3.0104319E-29
   6.610000      3.0823498E-29
   6.620000      3.1470703E-29
   6.630000      3.2037219E-29
   6.640000      3.2513947E-29
   6.650000      3.2891438E-29
   6.660000      3.3159900E-29
   6.670000      3.3309202E-29
   6.680000      3.3328895E-29
   6.690000      3.3208226E-29
   6.700000      3.2936168E-29
   6.710000      3.2501434E-29
   6.720000      3.1892515E-29
   6.730000      3.1097696E-29
   6.740000      3.0105105E-29
   6.750000      2.8902726E-29
   6.760000      2.7478455E-29
   6.770000      2.5820145E-29
   6.780000      2.3915641E-29
   6.790000      2.1752845E-29
   6.800000      1.9319753E-29
   6.810000      1.6604521E-29
   6.820000      1.3595529E-29
   6.830000      1.0281442E-29
   6.840000      6.6512758E-30
   6.850000      2.6944800E-30
   6.860000     -1.5989939E-30
   6.870000     -6.2386073E-30
   6.880000     -1.1233154E-29
   6.890000     -1.6590665E-29
   6.900000     -2.2318319E-29
   6.910000     -2.8422360E-29
   6.920000     -3.4907986E-29
   6.930000     -4.1779237E-29
   6.940000     -4.9038904E-29
   6.950000     -5.6688418E-29
   6.960000     -6.4727743E-29
   6.970000     -7.3155257E-29
   6.980000     -8.1967627E-29
   6.990000     -9.1159705E-29
   7.000000     -1.0072441E-28
   7.010000     -1.1065261E-28
   7.020000     -1.2093294E-28
   7.030000     -1.3155181E-28
   7.040000     -1.4249315E-28
   7.050000     -1.5373834E-28
   7.060000     -1.6526612E-28