  -2.600000      0.0000000E+00
  -2.590000      0.0000000E+00
  -2.580000      0.0000000E+00
  -2.570000      0.0000000E+00
  -2.560000      0.0000000E+00
  -2.550000      0.0000000E+00
  -2.540000      0.0000000E+00
  -2.530000      0.0000000E+00
  -2.520000      0.0000000E+00
  -2.510000      0.0000000E+00
  -2.500000      0.0000000E+00
  -2.490000      0.0000000E+00
  -2.480000      0.0000000E+00
  -2.470000      0.0000000E+00
  -2.460000      0.0000000E+00
  -2.450000      0.0000000E+00
  -2.440000      0.0000000E+00
  -2.430000      0.0000000E+00
  -2.420000      0.0000000E+00
  -2.410000      0.0000000E+00
  -2.400000      0.0000000E+00
  -2.390000      0.0000000E+00
  -2.380000      0.0000000E+00
  -2.370000      0.0000000E+00
  -2.360000      0.0000000E+00
  -2.350000      0.0000000E+00
  -2.340000      0.0000000E+00
  -2.330000      0.0000000E+00
  -2.320000      0.0000000E+00
  -2.310000      0.0000000E+00
  -2.300000      0.0000000E+00
  -2.290000      0.0000000E+00
  -2.280000      0.0000000E+00
  -2.270000      0.0000000E+00
  -2.260000      0.0000000E+00
  -2.250000      0.0000000E+00
  -2.240000      0.0000000E+00
  -2.230000      0.0000000E+00
  -2.220000      0.0000000E+00
  -2.210000      0.0000000E+00
  -2.200000      0.0000000E+00
  -2.190000      0.0000000E+00
  -2.180000      0.0000000E+00
  -2.170000      0.0000000E+00
  -2.160000      0.0000000E+00
  -2.150000      0.0000000E+00
  -2.140000      0.0000000E+00
  -2.130000      0.0000000E+00
  -2.120000      0.0000000E+00
  -2.110000      0.0000000E+00
  -2.100000      0.0000000E+00
  -2.090000      0.0000000E+00
  -2.080000      0.0000000E+00
  -2.070000      0.0000000E+00
  -2.060000      0.0000000E+00
  -2.050000      0.0000000E+00
  -2.040000      0.0000000E+00
  -2.030000      0.0000000E+00
  -2.020000      0.0000000E+00
  -2.010000      0.0000000E+00
  -2.000000      0.0000000E+00
  -1.990000      0.0000000E+00
  -1.980000      0.0000000E+00
  -1.970000      0.0000000E+00
  -1.960000      0.0000000E+00
  -1.950000      0.0000000E+00
  -1.940000      0.0000000E+00
  -1.930000      0.0000000E+00
  -1.920000      0.0000000E+00
  -1.910000      0.0000000E+00
  -1.900000      0.0000000E+00
  -1.890000      0.0000000E+00
  -1.880000      0.0000000E+00
  -1.870000      0.0000000E+00
  -1.860000      0.0000000E+00
  -1.850000      0.0000000E+00
  -1.840000      0.0000000E+00
  -1.830000      0.0000000E+00
  -1.820000      0.0000000E+00
  -1.810000      0.0000000E+00
  -1.800000      0.0000000E+00
  -1.790000      0.0000000E+00
  -1.780000      0.0000000E+00
  -1.770000      0.0000000E+00
  -1.760000      0.0000000E+00
  -1.750000      0.0000000E+00
  -1.740000      0.0000000E+00
  -1.730000      0.0000000E+00
  -1.720000      0.0000000E+00
  -1.710000      0.0000000E+00
  -1.700000      0.0000000E+00
  -1.690000      0.0000000E+00
  -1.680000      0.0000000E+00
  -1.670000      0.0000000E+00
  -1.660000      0.0000000E+00
  -1.650000      0.0000000E+00
  -1.640000      0.0000000E+00
  -1.630000      0.0000000E+00
  -1.620000      0.0000000E+00
  -1.610000      0.0000000E+00
  -1.600000      0.0000000E+00
  -1.590000      0.0000000E+00
  -1.580000      0.0000000E+00
  -1.570000      0.0000000E+00
  -1.560000      0.0000000E+00
  -1.550000      0.0000000E+00
  -1.540000      0.0000000E+00
  -1.530000      0.0000000E+00
  -1.520000      0.0000000E+00
  -1.510000      0.0000000E+00
  -1.500000      0.0000000E+00
  -1.490000      0.0000000E+00
  -1.480000      0.0000000E+00
  -1.470000      0.0000000E+00
  -1.460000      0.0000000E+00
  -1.450000      0.0000000E+00
  -1.440000      0.0000000E+00
  -1.430000      0.0000000E+00
  -1.420000      0.0000000E+00
  -1.410000      0.0000000E+00
  -1.400000      0.0000000E+00
  -1.390000      0.0000000E+00
  -1.380000      0.0000000E+00
  -1.370000      0.0000000E+00
  -1.360000      0.0000000E+00
  -1.350000      0.0000000E+00
  -1.340000      0.0000000E+00
  -1.330000      0.0000000E+00
  -1.320000      0.0000000E+00
  -1.310000      0.0000000E+00
  -1.300000      0.0000000E+00
  -1.290000      0.0000000E+00
  -1.280000      0.0000000E+00
  -1.270000      0.0000000E+00
  -1.260000      0.0000000E+00
  -1.250000      0.0000000E+00
  -1.240000      0.0000000E+00
  -1.230000      0.0000000E+00
  -1.220000      0.0000000E+00
  -1.210000      0.0000000E+00
  -1.200000      0.0000000E+00
  -1.190000      0.0000000E+00
  -1.180000      0.0000000E+00
  -1.170000      0.0000000E+00
  -1.160000      0.0000000E+00
  -1.150000      0.0000000E+00
  -1.140000      0.0000000E+00
  -1.130000      0.0000000E+00
  -1.120000      0.0000000E+00
  -1.110000      0.0000000E+00
  -1.100000      0.0000000E+00
  -1.090000      0.0000000E+00
  -1.080000      0.0000000E+00
  -1.070000      0.0000000E+00
  -1.060000      0.0000000E+00
  -1.050000      0.0000000E+00
  -1.040000      0.0000000E+00
  -1.030000      0.0000000E+00
  -1.020000      0.0000000E+00
  -1.010000      0.0000000E+00
  -1.000000      0.0000000E+00
 -0.9900000      0.0000000E+00
 -0.9800000      0.0000000E+00
 -0.9700000      0.0000000E+00
 -0.9600000      0.0000000E+00
 -0.9500000      0.0000000E+00
 -0.9400000      0.0000000E+00
 -0.9300000      0.0000000E+00
 -0.9200000      0.0000000E+00
 -0.9100000      0.0000000E+00
 -0.9000000      0.0000000E+00
 -0.8900000      0.0000000E+00
 -0.8800000      0.0000000E+00
 -0.8700000      0.0000000E+00
 -0.8600000      0.0000000E+00
 -0.8500000      0.0000000E+00
 -0.8400000      0.0000000E+00
 -0.8300000      0.0000000E+00
 -0.8200000      0.0000000E+00
 -0.8100000      0.0000000E+00
 -0.8000000      0.0000000E+00
 -0.7900000      0.0000000E+00
 -0.7800000      0.0000000E+00
 -0.7700000      0.0000000E+00
 -0.7600000      0.0000000E+00
 -0.7500000      0.0000000E+00
 -0.7400000      0.0000000E+00
 -0.7300000      0.0000000E+00
 -0.7200000      0.0000000E+00
 -0.7100000      0.0000000E+00
 -0.7000000      0.0000000E+00
 -0.6900000      0.0000000E+00
 -0.6800000      0.0000000E+00
 -0.6700000      0.0000000E+00
 -0.6600000      0.0000000E+00
 -0.6500000      0.0000000E+00
 -0.6400000      0.0000000E+00
 -0.6300000      0.0000000E+00
 -0.6200000      0.0000000E+00
 -0.6100000      0.0000000E+00
 -0.6000000      0.0000000E+00
 -0.5900000      0.0000000E+00
 -0.5800000      0.0000000E+00
 -0.5700000      0.0000000E+00
 -0.5600000      0.0000000E+00
 -0.5500000      0.0000000E+00
 -0.5400000      0.0000000E+00
 -0.5300000      0.0000000E+00
 -0.5200000      0.0000000E+00
 -0.5100000      0.0000000E+00
 -0.5000000      0.0000000E+00
 -0.4900000      0.0000000E+00
 -0.4800000      0.0000000E+00
 -0.4700000      0.0000000E+00
 -0.4600000      0.0000000E+00
 -0.4500000      0.0000000E+00
 -0.4400000      0.0000000E+00
 -0.4300000      0.0000000E+00
 -0.4200000      0.0000000E+00
 -0.4100000      0.0000000E+00
 -0.4000000      0.0000000E+00
 -0.3900000      0.0000000E+00
 -0.3800000      0.0000000E+00
 -0.3700000      0.0000000E+00
 -0.3600000      0.0000000E+00
 -0.3500000      0.0000000E+00
 -0.3400000      0.0000000E+00
 -0.3300000      0.0000000E+00
 -0.3200000      0.0000000E+00
 -0.3100000      0.0000000E+00
 -0.3000000      0.0000000E+00
 -0.2900000      0.0000000E+00
 -0.2800000      0.0000000E+00
 -0.2700000      0.0000000E+00
 -0.2600000      0.0000000E+00
 -0.2500000      0.0000000E+00
 -0.2400000      0.0000000E+00
 -0.2300000      0.0000000E+00
 -0.2200000      0.0000000E+00
 -0.2100000      0.0000000E+00
 -0.2000000      0.0000000E+00
 -0.1900000      0.0000000E+00
 -0.1800000      0.0000000E+00
 -0.1700000      0.0000000E+00
 -0.1600000      0.0000000E+00
 -0.1500000      0.0000000E+00
 -0.1400000      0.0000000E+00
 -0.1300000      0.0000000E+00
 -0.1200000      0.0000000E+00
 -0.1100000      0.0000000E+00
 -0.1000000      0.0000000E+00
 -9.0000004E-02  0.0000000E+00
 -7.9999998E-02  0.0000000E+00
 -7.0000000E-02  0.0000000E+00
 -5.9999999E-02  0.0000000E+00
 -5.0000001E-02  0.0000000E+00
 -3.9999999E-02  0.0000000E+00
 -2.9999999E-02  0.0000000E+00
 -2.0000000E-02  0.0000000E+00
 -9.9999998E-03  0.0000000E+00
 -3.4694470E-17  0.0000000E+00
  9.9999998E-03  0.0000000E+00
  2.0000000E-02  0.0000000E+00
  2.9999999E-02  0.0000000E+00
  3.9999999E-02  0.0000000E+00
  5.0000001E-02  0.0000000E+00
  5.9999999E-02  0.0000000E+00
  7.0000000E-02  0.0000000E+00
  7.9999998E-02  0.0000000E+00
  9.0000004E-02  0.0000000E+00
  0.1000000      0.0000000E+00
  0.1100000      0.0000000E+00
  0.1200000      0.0000000E+00
  0.1300000      0.0000000E+00
  0.1400000      0.0000000E+00
  0.1500000      0.0000000E+00
  0.1600000      0.0000000E+00
  0.1700000      0.0000000E+00
  0.1800000      0.0000000E+00
  0.1900000      0.0000000E+00
  0.2000000      0.0000000E+00
  0.2100000      0.0000000E+00
  0.2200000      0.0000000E+00
  0.2300000      0.0000000E+00
  0.2400000      0.0000000E+00
  0.2500000      0.0000000E+00
  0.2600000      0.0000000E+00
  0.2700000      0.0000000E+00
  0.2800000      0.0000000E+00
  0.2900000      0.0000000E+00
  0.3000000      0.0000000E+00
  0.3100000      0.0000000E+00
  0.3200000      0.0000000E+00
  0.3300000      0.0000000E+00
  0.3400000      0.0000000E+00
  0.3500000      0.0000000E+00
  0.3600000      0.0000000E+00
  0.3700000      0.0000000E+00
  0.3800000      0.0000000E+00
  0.3900000      0.0000000E+00
  0.4000000      0.0000000E+00
  0.4100000      0.0000000E+00
  0.4200000      0.0000000E+00
  0.4300000      0.0000000E+00
  0.4400000      0.0000000E+00
  0.4500000      0.0000000E+00
  0.4600000      0.0000000E+00
  0.4700000      0.0000000E+00
  0.4800000      0.0000000E+00
  0.4900000      0.0000000E+00
  0.5000000      0.0000000E+00
  0.5100000      0.0000000E+00
  0.5200000      0.0000000E+00
  0.5300000      0.0000000E+00
  0.5400000      0.0000000E+00
  0.5500000      0.0000000E+00
  0.5600000      0.0000000E+00
  0.5700000      0.0000000E+00
  0.5800000      0.0000000E+00
  0.5900000      0.0000000E+00
  0.6000000      0.0000000E+00
  0.6100000      0.0000000E+00
  0.6200000      0.0000000E+00
  0.6300000      0.0000000E+00
  0.6400000      0.0000000E+00
  0.6500000      0.0000000E+00
  0.6600000      0.0000000E+00
  0.6700000      0.0000000E+00
  0.6800000      0.0000000E+00
  0.6900000      0.0000000E+00
  0.7000000      0.0000000E+00
  0.7100000      0.0000000E+00
  0.7200000      0.0000000E+00
  0.7300000      0.0000000E+00
  0.7400000      0.0000000E+00
  0.7500000      0.0000000E+00
  0.7600000      0.0000000E+00
  0.7700000      0.0000000E+00
  0.7800000      0.0000000E+00
  0.7900000      0.0000000E+00
  0.8000000      0.0000000E+00
  0.8100000      0.0000000E+00
  0.8200000      0.0000000E+00
  0.8300000      0.0000000E+00
  0.8400000      0.0000000E+00
  0.8500000      0.0000000E+00
  0.8600000      0.0000000E+00
  0.8700000      0.0000000E+00
  0.8800000      0.0000000E+00
  0.8900000      0.0000000E+00
  0.9000000      0.0000000E+00
  0.9100000      0.0000000E+00
  0.9200000      0.0000000E+00
  0.9300000      0.0000000E+00
  0.9400000      0.0000000E+00
  0.9500000      0.0000000E+00
  0.9600000      0.0000000E+00
  0.9700000      0.0000000E+00
  0.9800000      0.0000000E+00
  0.9900000      0.0000000E+00
   1.000000      0.0000000E+00
   1.010000      0.0000000E+00
   1.020000      0.0000000E+00
   1.030000      0.0000000E+00
   1.040000      0.0000000E+00
   1.050000      0.0000000E+00
   1.060000      0.0000000E+00
   1.070000      0.0000000E+00
   1.080000      0.0000000E+00
   1.090000      0.0000000E+00
   1.100000      0.0000000E+00
   1.110000      0.0000000E+00
   1.120000      0.0000000E+00
   1.130000      0.0000000E+00
   1.140000      0.0000000E+00
   1.150000      0.0000000E+00
   1.160000      0.0000000E+00
   1.170000      0.0000000E+00
   1.180000      0.0000000E+00
   1.190000      0.0000000E+00
   1.200000      0.0000000E+00
   1.210000      0.0000000E+00
   1.220000      0.0000000E+00
   1.230000      0.0000000E+00
   1.240000      0.0000000E+00
   1.250000      0.0000000E+00
   1.260000      0.0000000E+00
   1.270000      0.0000000E+00
   1.280000      0.0000000E+00
   1.290000      0.0000000E+00
   1.300000      0.0000000E+00
   1.310000      0.0000000E+00
   1.320000      0.0000000E+00
   1.330000      0.0000000E+00
   1.340000      0.0000000E+00
   1.350000      0.0000000E+00
   1.360000      0.0000000E+00
   1.370000      0.0000000E+00
   1.380000      0.0000000E+00
   1.390000      0.0000000E+00
   1.400000      0.0000000E+00
   1.410000      0.0000000E+00
   1.420000      0.0000000E+00
   1.430000      0.0000000E+00
   1.440000      0.0000000E+00
   1.450000      0.0000000E+00
   1.460000      0.0000000E+00
   1.470000      0.0000000E+00
   1.480000      0.0000000E+00
   1.490000      0.0000000E+00
   1.500000      0.0000000E+00
   1.510000      0.0000000E+00
   1.520000      0.0000000E+00
   1.530000      0.0000000E+00
   1.540000      0.0000000E+00
   1.550000      0.0000000E+00
   1.560000      0.0000000E+00
   1.570000      0.0000000E+00
   1.580000      0.0000000E+00
   1.590000      0.0000000E+00
   1.600000      0.0000000E+00
   1.610000      0.0000000E+00
   1.620000      0.0000000E+00
   1.630000      0.0000000E+00
   1.640000      0.0000000E+00
   1.650000      0.0000000E+00
   1.660000      0.0000000E+00
   1.670000      0.0000000E+00
   1.680000      0.0000000E+00
   1.690000      0.0000000E+00
   1.700000      0.0000000E+00
   1.710000      0.0000000E+00
   1.720000      0.0000000E+00
   1.730000      0.0000000E+00
   1.740000      0.0000000E+00
   1.750000      0.0000000E+00
   1.760000      0.0000000E+00
   1.770000      0.0000000E+00
   1.780000      0.0000000E+00
   1.790000      0.0000000E+00
   1.800000      0.0000000E+00
   1.810000      0.0000000E+00
   1.820000      0.0000000E+00
   1.830000      0.0000000E+00
   1.840000      0.0000000E+00
   1.850000      0.0000000E+00
   1.860000      0.0000000E+00
   1.870000      0.0000000E+00
   1.880000      0.0000000E+00
   1.890000      0.0000000E+00
   1.900000      0.0000000E+00
   1.910000      0.0000000E+00
   1.920000      0.0000000E+00
   1.930000      0.0000000E+00
   1.940000      0.0000000E+00
   1.950000      0.0000000E+00
   1.960000      0.0000000E+00
   1.970000      0.0000000E+00
   1.980000      0.0000000E+00
   1.990000      0.0000000E+00
   2.000000      0.0000000E+00
   2.010000      1.2100394E-38
   2.020000      1.2642548E-38
   2.030000      1.3209455E-38
   2.040000      1.3811988E-38
   2.050000      1.4431901E-38
   2.060000      1.5077000E-38
   2.070000      1.5762049E-38
   2.080000      1.6493996E-38
   2.090000      1.7352541E-38
   2.100000      1.8358637E-38
   2.110000      1.9494737E-38
   2.120000      2.0874744E-38
   2.130000      2.2432019E-38
   2.140000      2.4022563E-38
   2.150000      2.5652621E-38
   2.160000      2.7227664E-38
   2.170000      2.6765358E-38
   2.180000      2.4024814E-38
   2.190000      1.9260009E-38
   2.200000      1.2028089E-38
   2.210000      0.0000000E+00
   2.220000      0.0000000E+00
   2.230000     -1.8080480E-38
   2.240000     -3.0595253E-38
   2.250000     -4.4489766E-38
   2.260000     -5.9668712E-38
   2.270000     -7.5248679E-38
   2.280000     -9.0926502E-38
   2.290000     -1.0663669E-37
   2.300000     -1.2208820E-37
   2.310000     -1.3733911E-37
   2.320000     -1.5287069E-37
   2.330000     -1.6886618E-37
   2.340000     -1.8529243E-37
   2.350000     -2.0217114E-37
   2.360000     -2.2058388E-37
   2.370000     -2.4082626E-37
   2.380000     -2.6188490E-37
   2.390000     -2.8335706E-37
   2.400000     -3.0378357E-37
   2.410000     -3.2326081E-37
   2.420000     -3.4321165E-37
   2.430000     -3.6311739E-37
   2.440000     -3.8033742E-37
   2.450000     -3.9329264E-37
   2.460000     -4.0226355E-37
   2.470000     -4.0718855E-37
   2.480000     -4.0781574E-37
   2.490000     -4.0935453E-37
   2.500000     -3.9617308E-37
   2.510000     -3.6169643E-37
   2.520000     -3.1922747E-37
   2.530000     -3.1155423E-37
   2.540000     -3.4111672E-37
   2.550000     -3.6585816E-37
   2.560000     -3.8467553E-37
   2.570000     -4.0508803E-37
   2.580000     -4.2790844E-37
   2.590000     -4.4563865E-37
   2.600000     -4.2678448E-37
   2.610000     -3.6378020E-37
   2.620000     -3.0661762E-37
   2.630000     -2.6195564E-37
   2.640000     -1.0250659E-37
   2.650000      1.7447334E-37
   2.660000      4.3908196E-37
   2.670000      6.9177419E-37
   2.680000      1.0082214E-36
   2.690000      1.3818782E-36
   2.700000      1.7555449E-36
   2.710000      2.1149779E-36
   2.720000      2.4397723E-36
   2.730000      2.6510806E-36
   2.740000      2.8347420E-36
   2.750000      3.0730213E-36
   2.760000      3.3172452E-36
   2.770000      3.6455854E-36
   2.780000      4.0960364E-36
   2.790000      4.6398345E-36
   2.800000      5.2266910E-36
   2.810000      5.7372770E-36
   2.820000      6.1589310E-36
   2.830000      6.5570573E-36
   2.840000      6.7842181E-36
   2.850000      6.8559797E-36
   2.860000      6.9117891E-36
   2.870000      6.7791715E-36
   2.880000      6.4030327E-36
   2.890000      5.8772307E-36
   2.900000      5.2193786E-36
   2.910000      4.3898626E-36
   2.920000      3.4087008E-36
   2.930000      2.3893178E-36
   2.940000      1.3277218E-36
   2.950000      1.8019403E-37
   2.960000     -9.6168643E-37
   2.970000     -2.0694562E-36
   2.980000     -3.1875301E-36
   2.990000     -4.3495171E-36
   3.000000     -5.6225748E-36
   3.010000     -6.9730484E-36
   3.020000     -8.3363614E-36
   3.030000     -9.8180827E-36
   3.040000     -1.1484476E-35
   3.050000     -1.3317028E-35
   3.060000     -1.5239380E-35
   3.070000     -1.7258295E-35
   3.080000     -1.9360603E-35
   3.090000     -2.1469641E-35
   3.100000     -2.3683529E-35
   3.110000     -2.5851511E-35
   3.120000     -2.7916900E-35
   3.130000     -3.0003896E-35
   3.140000     -3.1974009E-35
   3.150000     -3.3653255E-35
   3.160000     -3.5200899E-35
   3.170000     -3.6850103E-35
   3.180000     -3.8317775E-35
   3.190000     -3.9443747E-35
   3.200000     -4.0570302E-35
   3.210000     -4.1804660E-35
   3.220000     -4.2591266E-35
   3.230000     -4.2759853E-35
   3.240000     -4.2584329E-35
   3.250000     -4.1865280E-35
   3.260000     -4.0535993E-35
   3.270000     -3.8669253E-35
   3.280000     -3.6178924E-35
   3.290000     -3.2998356E-35
   3.300000     -2.8662648E-35
   3.310000     -2.3223125E-35
   3.320000     -1.7159329E-35
   3.330000     -1.0483833E-35
   3.340000     -3.2598437E-36
   3.350000      4.0201164E-36
   3.360000      1.1353778E-35
   3.370000      1.8845796E-35
   3.380000      2.6453370E-35
   3.390000      3.4606379E-35
   3.400000      4.3589265E-35
   3.410000      5.3138641E-35
   3.420000      6.2892960E-35
   3.430000      7.2991214E-35
   3.440000      8.3323184E-35
   3.450000      9.4350773E-35
   3.460000      1.0604839E-34
   3.470000      1.1771369E-34
   3.480000      1.2930550E-34
   3.490000      1.4087980E-34
   3.500000      1.5101065E-34
   3.510000      1.5946366E-34
   3.520000      1.6744472E-34
   3.530000      1.7465277E-34
   3.540000      1.8170584E-34
   3.550000      1.8966203E-34
   3.560000      1.9887477E-34
   3.570000      2.1166454E-34
   3.580000      2.3056718E-34
   3.590000      2.5266824E-34
   3.600000      2.7034329E-34
   3.610000      2.8182440E-34
   3.620000      2.8679539E-34
   3.630000      2.8581684E-34
   3.640000      2.8207690E-34
   3.650000      2.7577405E-34
   3.660000      2.6665350E-34
   3.670000      2.5446429E-34
   3.680000      2.3968610E-34
   3.690000      2.1980397E-34
   3.700000      1.9425579E-34
   3.710000      1.6510937E-34
   3.720000      1.3307635E-34
   3.730000      9.7913594E-35
   3.740000      5.9578106E-35
   3.750000      1.5311098E-35
   3.760000     -3.5088371E-35
   3.770000     -8.7606776E-35
   3.780000     -1.4238128E-34
   3.790000     -1.9935705E-34
   3.800000     -2.5796490E-34
   3.810000     -3.1585372E-34
   3.820000     -3.6886349E-34
   3.830000     -4.2125525E-34
   3.840000     -4.7256342E-34
   3.850000     -5.1637189E-34
   3.860000     -5.5410375E-34
   3.870000     -5.8881931E-34
   3.880000     -6.2493095E-34
   3.890000     -6.6278725E-34
   3.900000     -7.0518127E-34
   3.910000     -7.5481959E-34
   3.920000     -8.0418103E-34
   3.930000     -8.5324534E-34
   3.940000     -9.0735298E-34
   3.950000     -9.6393044E-34
   3.960000     -1.0189327E-33
   3.970000     -1.0718369E-33
   3.980000     -1.1248698E-33
   3.990000     -1.1772793E-33
   4.000000     -1.2256195E-33
   4.010000     -1.2654191E-33
   4.020000     -1.2971206E-33
   4.030000     -1.3240911E-33
   4.040000     -1.3450685E-33
   4.050000     -1.3590453E-33
   4.060000     -1.3650415E-33
   4.070000     -1.3607396E-33
   4.080000     -1.3424895E-33
   4.090000     -1.3064153E-33
   4.100000     -1.2537460E-33
   4.110000     -1.1875685E-33
   4.120000     -1.1069303E-33
   4.130000     -1.0081155E-33
   4.140000     -8.8921097E-34
   4.150000     -7.5334494E-34
   4.160000     -6.0343461E-34
   4.170000     -4.3836283E-34
   4.180000     -2.5692057E-34
   4.190000     -6.0347228E-35
   4.200000      1.5205146E-34
   4.210000      3.7966794E-34
   4.220000      6.1837381E-34
   4.230000      8.6752043E-34
   4.240000      1.1276278E-33
   4.250000      1.3981659E-33
   4.260000      1.6767753E-33
   4.270000      1.9604774E-33
   4.280000      2.2494254E-33
   4.290000      2.5450347E-33
   4.300000      2.8474062E-33
   4.310000      3.1530311E-33
   4.320000      3.4618342E-33
   4.330000      3.7750042E-33
   4.340000      4.0881607E-33
   4.350000      4.3995848E-33
   4.360000      4.7090366E-33
   4.370000      5.0143026E-33
   4.380000      5.3137528E-33
   4.390000      5.6044397E-33
   4.400000      5.8849295E-33
   4.410000      6.1531138E-33
   4.420000      6.4099736E-33
   4.430000      6.6551781E-33
   4.440000      6.8825760E-33
   4.450000      7.0882184E-33
   4.460000      7.2686539E-33
   4.470000      7.4194309E-33
   4.480000      7.5397001E-33
   4.490000      7.6257874E-33
   4.500000      7.6713533E-33
   4.510000      7.6733355E-33
   4.520000      7.6272774E-33
   4.530000      7.5291993E-33
   4.540000      7.3757400E-33
   4.550000      7.1619998E-33
   4.560000      6.8859974E-33
   4.570000      6.5481405E-33
   4.580000      6.1420818E-33
   4.590000      5.6629418E-33
   4.600000      5.1106329E-33
   4.610000      4.4839173E-33
   4.620000      3.7812898E-33
   4.630000      3.0013467E-33
   4.640000      2.1439533E-33
   4.650000      1.2092022E-33
   4.660000      1.9734739E-34
   4.670000     -8.9096374E-34
   4.680000     -2.0550428E-33
   4.690000     -3.2937602E-33
   4.700000     -4.6052114E-33
   4.710000     -5.9874121E-33
   4.720000     -7.4383813E-33
   4.730000     -8.9553869E-33
   4.740000     -1.0535295E-32
   4.750000     -1.2174679E-32
   4.760000     -1.3870961E-32
   4.770000     -1.5617331E-32
   4.780000     -1.7408879E-32
   4.790000     -1.9242471E-32
   4.800000     -2.1111569E-32
   4.810000     -2.3008833E-32
   4.820000     -2.4926590E-32
   4.830000     -2.6857874E-32
   4.840000     -2.8793758E-32
   4.850000     -3.0724707E-32
   4.860000     -3.2640613E-32
   4.870000     -3.4530534E-32
   4.880000     -3.6382637E-32
   4.890000     -3.8184185E-32
   4.900000     -3.9922201E-32
   4.910000     -4.1583016E-32
   4.920000     -4.3151877E-32
   4.930000     -4.4613684E-32
   4.940000     -4.5952798E-32
   4.950000     -4.7153134E-32
   4.960000     -4.8198201E-32
   4.970000     -4.9071200E-32
   4.980000     -4.9755061E-32
   4.990000     -5.0232529E-32
   5.000000     -5.0486254E-32
   5.010000     -5.0498062E-32
   5.020000     -5.0253494E-32
   5.030000     -4.9733755E-32
   5.040000     -4.8918894E-32
   5.050000     -4.7794375E-32
   5.060000     -4.6343627E-32
   5.070000     -4.4550613E-32
   5.080000     -4.2399846E-32
   5.090000     -3.9876442E-32
   5.100000     -3.6966256E-32
   5.110000     -3.3655729E-32
   5.120000     -2.9932627E-32
   5.130000     -2.5785691E-32
   5.140000     -2.1204393E-32
   5.150000     -1.6179359E-32
   5.160000     -1.0703023E-32
   5.170000     -4.7694071E-33
   5.180000      1.6263519E-33
   5.190000      8.4873491E-33
   5.200000      1.5814928E-32
   5.210000      2.3608405E-32
   5.220000      3.1865269E-32
   5.230000      4.0580528E-32
   5.240000      4.9746792E-32
   5.250000      5.9354583E-32
   5.260000      6.9391794E-32
   5.270000      7.9843691E-32
   5.280000      9.0692804E-32
   5.290000      1.0191884E-31
   5.300000      1.1349861E-31
   5.310000      1.2540595E-31
   5.320000      1.3761161E-31
   5.330000      1.5008323E-31
   5.340000      1.6278530E-31
   5.350000      1.7567901E-31
   5.360000      1.8872197E-31
   5.370000      2.0186861E-31
   5.380000      2.1506995E-31
   5.390000      2.2827343E-31
   5.400000      2.4142289E-31
   5.410000      2.5445858E-31
   5.420000      2.6731715E-31
   5.430000      2.7993150E-31
   5.440000      2.9223100E-31
   5.450000      3.0414134E-31
   5.460000      3.1558464E-31
   5.470000      3.2647950E-31
   5.480000      3.3674119E-31
   5.490000      3.4628173E-31
   5.500000      3.5501001E-31
   5.510000      3.6283197E-31
   5.520000      3.6965089E-31
   5.530000      3.7536753E-31
   5.540000      3.7988044E-31
   5.550000      3.8308620E-31
   5.560000      3.8487824E-31
   5.570000      3.8515155E-31
   5.580000      3.8379994E-31
   5.590000      3.8071361E-31
   5.600000      3.7578361E-31
   5.610000      3.6890090E-31
   5.620000      3.5995657E-31
   5.630000      3.4884215E-31
   5.640000      3.3545009E-31
   5.650000      3.1967393E-31
   5.660000      3.0140877E-31
   5.670000      2.8055159E-31
   5.680000      2.5700169E-31
   5.690000      2.3066110E-31
   5.700000      2.0143499E-31
   5.710000      1.6923218E-31
   5.720000      1.3396573E-31
   5.730000      9.5553385E-32
   5.740000      5.3918292E-32
   5.750000      8.9897334E-33
   5.760000     -3.9296230E-32
   5.770000     -9.0995923E-32
   5.780000     -1.4615711E-31
   5.790000     -2.0481816E-31
   5.800000     -2.6700672E-31
   5.810000     -3.3273945E-31
   5.820000     -4.0202038E-31
   5.830000     -4.7483963E-31
   5.840000     -5.5117275E-31
   5.850000     -6.3097941E-31
   5.860000     -7.1420225E-31
   5.870000     -8.0076594E-31
   5.880000     -8.9057587E-31
   5.890000     -9.8351713E-31
   5.900000     -1.0794538E-30
   5.910000     -1.1782279E-30
   5.920000     -1.2796577E-30
   5.930000     -1.3835380E-30
   5.940000     -1.4896385E-30
   5.950000     -1.5977033E-30
   5.960000     -1.7074499E-30
   5.970000     -1.8185686E-30
   5.980000     -1.9307213E-30
   5.990000     -2.0435413E-30
   6.000000     -2.1566323E-30
   6.010000     -2.2695674E-30
   6.020000     -2.3818888E-30
   6.030000     -2.4931065E-30
   6.040000     -2.6026980E-30
   6.050000     -2.7101067E-30
   6.060000     -2.8147429E-30
   6.070000     -2.9159811E-30
   6.080000     -3.0131614E-30
   6.090000     -3.1055870E-30
   6.100000     -3.1925260E-30
   6.110000     -3.2732101E-30
   6.120000     -3.3468337E-30
   6.130000     -3.4125571E-30
   6.140000     -3.4695045E-30
   6.150000     -3.5167654E-30
   6.160000     -3.5533957E-30
   6.170000     -3.5784207E-30
   6.180000     -3.5908358E-30
   6.190000     -3.5896073E-30
   6.200000     -3.5736781E-30
   6.210000     -3.5419684E-30
   6.220000     -3.4933804E-30
   6.230000     -3.4268015E-30
   6.240000     -3.3411074E-30
   6.250000     -3.2351685E-30
   6.260000     -3.1078534E-30
   6.270000     -2.9580347E-30
   6.280000     -2.7845934E-30
   6.290000     -2.5864252E-30
   6.300000     -2.3624455E-30
   6.310000     -2.1115973E-30
   6.320000     -1.8328549E-30
   6.330000     -1.5252320E-30
   6.340000     -1.1877885E-30
   6.350000     -8.1963713E-31
   6.360000     -4.1995025E-31
   6.370000      1.2031739E-32
   6.380000      4.7699337E-31
   6.390000      9.7553533E-31
   6.400000      1.5081660E-30
   6.410000      2.0752926E-30
   6.420000      2.6772123E-30
   6.430000      3.3141026E-30
   6.440000      3.9860099E-30
   6.450000      4.6928413E-30
   6.460000      5.4343510E-30
   6.470000      6.2101333E-30
   6.480000      7.0196084E-30
   6.490000      7.8620102E-30
   6.500000      8.7363786E-30
   6.510000      9.6415446E-30
   6.520000      1.0576122E-29
   6.530000      1.1538492E-29
   6.540000      1.2526798E-29
   6.550000      1.3538931E-29
   6.560000      1.4572523E-29
   6.570000      1.5624937E-29
   6.580000      1.6693255E-29
   6.590000      1.7774278E-29
   6.600000      1.8864512E-29
   6.610000      1.9960168E-29
   6.620000      2.1057154E-29
   6.630000      2.2151071E-29
   6.640000      2.3237219E-29
   6.650000      2.4310579E-29
   6.660000      2.5365830E-29
   6.670000      2.6397337E-29
   6.680000      2.7399158E-29
   6.690000      2.8365057E-29
   6.700000      2.9288483E-29
   6.710000      3.0162600E-29
   6.720000      3.0980283E-29
   6.730000      3.1734125E-29
   6.740000      3.2416446E-29
   6.750000      3.3019305E-29
   6.760000      3.3534518E-29
   6.770000      3.3953660E-29
   6.780000      3.4268087E-29
   6.790000      3.4468955E-29
   6.800000      3.4547235E-29
   6.810000      3.4493742E-29
   6.820000      3.4299145E-29
   6.830000      3.3954010E-29
   6.840000      3.3448823E-29
   6.850000      3.2774022E-29
   6.860000      3.1920023E-29
   6.870000      3.0877282E-29
   6.880000      2.9636312E-29
   6.890000      2.8187730E-29
   6.900000      2.6522321E-29
   6.910000      2.4631070E-29
   6.920000      2.2505223E-29
   6.930000      2.0136336E-29
   6.940000      1.7516339E-29
   6.950000      1.4637585E-29
   6.960000      1.1492924E-29
   6.970000      8.0757560E-30
   6.980000      4.3801049E-30
   6.990000      4.0067214E-31
   7.000000     -3.8670792E-30
   7.010000     -8.4268696E-30
   7.020000     -1.3281526E-29
   7.030000     -1.8432911E-29
   7.040000     -2.3881852E-29
   7.050000     -2.9628064E-29
   7.060000     -3.5670085E-29