  -2.600000      0.0000000E+00
  -2.590000      0.0000000E+00
  -2.580000      0.0000000E+00
  -2.570000      0.0000000E+00
  -2.560000      0.0000000E+00
  -2.550000      0.0000000E+00
  -2.540000      0.0000000E+00
  -2.530000      0.0000000E+00
  -2.520000      0.0000000E+00
  -2.510000      0.0000000E+00
  -2.500000      0.0000000E+00
  -2.490000      0.0000000E+00
  -2.480000      0.0000000E+00
  -2.470000      0.0000000E+00
  -2.460000      0.0000000E+00
  -2.450000      0.0000000E+00
  -2.440000      0.0000000E+00
  -2.430000      0.0000000E+00
  -2.420000      0.0000000E+00
  -2.410000      0.0000000E+00
  -2.400000      0.0000000E+00
  -2.390000      0.0000000E+00
  -2.380000      0.0000000E+00
  -2.370000      0.0000000E+00
  -2.360000      0.0000000E+00
  -2.350000      0.0000000E+00
  -2.340000      0.0000000E+00
  -2.330000      0.0000000E+00
  -2.320000      0.0000000E+00
  -2.310000      0.0000000E+00
  -2.300000      0.0000000E+00
  -2.290000      0.0000000E+00
  -2.280000      0.0000000E+00
  -2.270000      0.0000000E+00
  -2.260000      0.0000000E+00
  -2.250000      0.0000000E+00
  -2.240000      0.0000000E+00
  -2.230000      0.0000000E+00
  -2.220000      0.0000000E+00
  -2.210000      0.0000000E+00
  -2.200000      0.0000000E+00
  -2.190000      0.0000000E+00
  -2.180000      0.0000000E+00
  -2.170000      0.0000000E+00
  -2.160000      0.0000000E+00
  -2.150000      0.0000000E+00
  -2.140000      0.0000000E+00
  -2.130000      0.0000000E+00
  -2.120000      0.0000000E+00
  -2.110000      0.0000000E+00
  -2.100000      0.0000000E+00
  -2.090000      0.0000000E+00
  -2.080000      0.0000000E+00
  -2.070000      0.0000000E+00
  -2.060000      0.0000000E+00
  -2.050000      0.0000000E+00
  -2.040000      0.0000000E+00
  -2.030000      0.0000000E+00
  -2.020000      0.0000000E+00
  -2.010000      0.0000000E+00
  -2.000000      0.0000000E+00
  -1.990000      0.0000000E+00
  -1.980000      0.0000000E+00
  -1.970000      0.0000000E+00
  -1.960000      0.0000000E+00
  -1.950000      0.0000000E+00
  -1.940000      0.0000000E+00
  -1.930000      0.0000000E+00
  -1.920000      0.0000000E+00
  -1.910000      0.0000000E+00
  -1.900000      0.0000000E+00
  -1.890000      0.0000000E+00
  -1.880000      0.0000000E+00
  -1.870000      0.0000000E+00
  -1.860000      0.0000000E+00
  -1.850000      0.0000000E+00
  -1.840000      0.0000000E+00
  -1.830000      0.0000000E+00
  -1.820000      0.0000000E+00
  -1.810000      0.0000000E+00
  -1.800000      0.0000000E+00
  -1.790000      0.0000000E+00
  -1.780000      0.0000000E+00
  -1.770000      0.0000000E+00
  -1.760000      0.0000000E+00
  -1.750000      0.0000000E+00
  -1.740000      0.0000000E+00
  -1.730000      0.0000000E+00
  -1.720000      0.0000000E+00
  -1.710000      0.0000000E+00
  -1.700000      0.0000000E+00
  -1.690000      0.0000000E+00
  -1.680000      0.0000000E+00
  -1.670000      0.0000000E+00
  -1.660000      0.0000000E+00
  -1.650000      0.0000000E+00
  -1.640000      0.0000000E+00
  -1.630000      0.0000000E+00
  -1.620000      0.0000000E+00
  -1.610000      0.0000000E+00
  -1.600000      0.0000000E+00
  -1.590000      0.0000000E+00
  -1.580000      0.0000000E+00
  -1.570000      0.0000000E+00
  -1.560000      0.0000000E+00
  -1.550000      0.0000000E+00
  -1.540000      0.0000000E+00
  -1.530000      0.0000000E+00
  -1.520000      0.0000000E+00
  -1.510000      0.0000000E+00
  -1.500000      0.0000000E+00
  -1.490000      0.0000000E+00
  -1.480000      0.0000000E+00
  -1.470000      0.0000000E+00
  -1.460000      0.0000000E+00
  -1.450000      0.0000000E+00
  -1.440000      0.0000000E+00
  -1.430000      0.0000000E+00
  -1.420000      0.0000000E+00
  -1.410000      0.0000000E+00
  -1.400000      0.0000000E+00
  -1.390000      0.0000000E+00
  -1.380000      0.0000000E+00
  -1.370000      0.0000000E+00
  -1.360000      0.0000000E+00
  -1.350000      0.0000000E+00
  -1.340000      0.0000000E+00
  -1.330000      0.0000000E+00
  -1.320000      0.0000000E+00
  -1.310000      0.0000000E+00
  -1.300000      0.0000000E+00
  -1.290000      0.0000000E+00
  -1.280000      0.0000000E+00
  -1.270000      0.0000000E+00
  -1.260000      0.0000000E+00
  -1.250000      0.0000000E+00
  -1.240000      0.0000000E+00
  -1.230000      0.0000000E+00
  -1.220000      0.0000000E+00
  -1.210000      0.0000000E+00
  -1.200000      0.0000000E+00
  -1.190000      0.0000000E+00
  -1.180000      0.0000000E+00
  -1.170000      0.0000000E+00
  -1.160000      0.0000000E+00
  -1.150000      0.0000000E+00
  -1.140000      0.0000000E+00
  -1.130000      0.0000000E+00
  -1.120000      0.0000000E+00
  -1.110000      0.0000000E+00
  -1.100000      0.0000000E+00
  -1.090000      0.0000000E+00
  -1.080000      0.0000000E+00
  -1.070000      0.0000000E+00
  -1.060000      0.0000000E+00
  -1.050000      0.0000000E+00
  -1.040000      0.0000000E+00
  -1.030000      0.0000000E+00
  -1.020000      0.0000000E+00
  -1.010000      0.0000000E+00
  -1.000000      0.0000000E+00
 -0.9900000      0.0000000E+00
 -0.9800000      0.0000000E+00
 -0.9700000      0.0000000E+00
 -0.9600000      0.0000000E+00
 -0.9500000      0.0000000E+00
 -0.9400000      0.0000000E+00
 -0.9300000      0.0000000E+00
 -0.9200000      0.0000000E+00
 -0.9100000      0.0000000E+00
 -0.9000000      0.0000000E+00
 -0.8900000      0.0000000E+00
 -0.8800000      0.0000000E+00
 -0.8700000      0.0000000E+00
 -0.8600000      0.0000000E+00
 -0.8500000      0.0000000E+00
 -0.8400000      0.0000000E+00
 -0.8300000      0.0000000E+00
 -0.8200000      0.0000000E+00
 -0.8100000      0.0000000E+00
 -0.8000000      0.0000000E+00
 -0.7900000      0.0000000E+00
 -0.7800000      0.0000000E+00
 -0.7700000      0.0000000E+00
 -0.7600000      0.0000000E+00
 -0.7500000      0.0000000E+00
 -0.7400000      0.0000000E+00
 -0.7300000      0.0000000E+00
 -0.7200000      0.0000000E+00
 -0.7100000      0.0000000E+00
 -0.7000000      0.0000000E+00
 -0.6900000      0.0000000E+00
 -0.6800000      0.0000000E+00
 -0.6700000      0.0000000E+00
 -0.6600000      0.0000000E+00
 -0.6500000      0.0000000E+00
 -0.6400000      0.0000000E+00
 -0.6300000      0.0000000E+00
 -0.6200000      0.0000000E+00
 -0.6100000      0.0000000E+00
 -0.6000000      0.0000000E+00
 -0.5900000      0.0000000E+00
 -0.5800000      0.0000000E+00
 -0.5700000      0.0000000E+00
 -0.5600000      0.0000000E+00
 -0.5500000      0.0000000E+00
 -0.5400000      0.0000000E+00
 -0.5300000      0.0000000E+00
 -0.5200000      0.0000000E+00
 -0.5100000      0.0000000E+00
 -0.5000000      0.0000000E+00
 -0.4900000      0.0000000E+00
 -0.4800000      0.0000000E+00
 -0.4700000      0.0000000E+00
 -0.4600000      0.0000000E+00
 -0.4500000      0.0000000E+00
 -0.4400000      0.0000000E+00
 -0.4300000      0.0000000E+00
 -0.4200000      0.0000000E+00
 -0.4100000      0.0000000E+00
 -0.4000000      0.0000000E+00
 -0.3900000      0.0000000E+00
 -0.3800000      0.0000000E+00
 -0.3700000      0.0000000E+00
 -0.3600000      0.0000000E+00
 -0.3500000      0.0000000E+00
 -0.3400000      0.0000000E+00
 -0.3300000      0.0000000E+00
 -0.3200000      0.0000000E+00
 -0.3100000      0.0000000E+00
 -0.3000000      0.0000000E+00
 -0.2900000      0.0000000E+00
 -0.2800000      0.0000000E+00
 -0.2700000      0.0000000E+00
 -0.2600000      0.0000000E+00
 -0.2500000      0.0000000E+00
 -0.2400000      0.0000000E+00
 -0.2300000      0.0000000E+00
 -0.2200000      0.0000000E+00
 -0.2100000      0.0000000E+00
 -0.2000000      0.0000000E+00
 -0.1900000      0.0000000E+00
 -0.1800000      0.0000000E+00
 -0.1700000      0.0000000E+00
 -0.1600000      0.0000000E+00
 -0.1500000      0.0000000E+00
 -0.1400000      0.0000000E+00
 -0.1300000      0.0000000E+00
 -0.1200000      0.0000000E+00
 -0.1100000      0.0000000E+00
 -0.1000000      0.0000000E+00
 -9.0000004E-02  0.0000000E+00
 -7.9999998E-02  0.0000000E+00
 -7.0000000E-02  0.0000000E+00
 -5.9999999E-02  0.0000000E+00
 -5.0000001E-02  0.0000000E+00
 -3.9999999E-02  0.0000000E+00
 -2.9999999E-02  0.0000000E+00
 -2.0000000E-02  0.0000000E+00
 -9.9999998E-03  0.0000000E+00
 -3.4694470E-17  0.0000000E+00
  9.9999998E-03  0.0000000E+00
  2.0000000E-02  0.0000000E+00
  2.9999999E-02  0.0000000E+00
  3.9999999E-02  0.0000000E+00
  5.0000001E-02  0.0000000E+00
  5.9999999E-02  0.0000000E+00
  7.0000000E-02  0.0000000E+00
  7.9999998E-02  0.0000000E+00
  9.0000004E-02  0.0000000E+00
  0.1000000      0.0000000E+00
  0.1100000      0.0000000E+00
  0.1200000      0.0000000E+00
  0.1300000      0.0000000E+00
  0.1400000      0.0000000E+00
  0.1500000      0.0000000E+00
  0.1600000      0.0000000E+00
  0.1700000      0.0000000E+00
  0.1800000      0.0000000E+00
  0.1900000      0.0000000E+00
  0.2000000      0.0000000E+00
  0.2100000      0.0000000E+00
  0.2200000      0.0000000E+00
  0.2300000      0.0000000E+00
  0.2400000      0.0000000E+00
  0.2500000      0.0000000E+00
  0.2600000      0.0000000E+00
  0.2700000      0.0000000E+00
  0.2800000      0.0000000E+00
  0.2900000      0.0000000E+00
  0.3000000      0.0000000E+00
  0.3100000      0.0000000E+00
  0.3200000      0.0000000E+00
  0.3300000      0.0000000E+00
  0.3400000      0.0000000E+00
  0.3500000      0.0000000E+00
  0.3600000      0.0000000E+00
  0.3700000      0.0000000E+00
  0.3800000      0.0000000E+00
  0.3900000      0.0000000E+00
  0.4000000      0.0000000E+00
  0.4100000      0.0000000E+00
  0.4200000      0.0000000E+00
  0.4300000      0.0000000E+00
  0.4400000      0.0000000E+00
  0.4500000      0.0000000E+00
  0.4600000      0.0000000E+00
  0.4700000      0.0000000E+00
  0.4800000      0.0000000E+00
  0.4900000      0.0000000E+00
  0.5000000      0.0000000E+00
  0.5100000      0.0000000E+00
  0.5200000      0.0000000E+00
  0.5300000      0.0000000E+00
  0.5400000      0.0000000E+00
  0.5500000      0.0000000E+00
  0.5600000      0.0000000E+00
  0.5700000      0.0000000E+00
  0.5800000      0.0000000E+00
  0.5900000      0.0000000E+00
  0.6000000      0.0000000E+00
  0.6100000      0.0000000E+00
  0.6200000      0.0000000E+00
  0.6300000      0.0000000E+00
  0.6400000      0.0000000E+00
  0.6500000      0.0000000E+00
  0.6600000      0.0000000E+00
  0.6700000      0.0000000E+00
  0.6800000      0.0000000E+00
  0.6900000      0.0000000E+00
  0.7000000      0.0000000E+00
  0.7100000      0.0000000E+00
  0.7200000      0.0000000E+00
  0.7300000      0.0000000E+00
  0.7400000      0.0000000E+00
  0.7500000      0.0000000E+00
  0.7600000      0.0000000E+00
  0.7700000      0.0000000E+00
  0.7800000      0.0000000E+00
  0.7900000      0.0000000E+00
  0.8000000      0.0000000E+00
  0.8100000      0.0000000E+00
  0.8200000      0.0000000E+00
  0.8300000      0.0000000E+00
  0.8400000      0.0000000E+00
  0.8500000      0.0000000E+00
  0.8600000      0.0000000E+00
  0.8700000      0.0000000E+00
  0.8800000      0.0000000E+00
  0.8900000      0.0000000E+00
  0.9000000      0.0000000E+00
  0.9100000      0.0000000E+00
  0.9200000      0.0000000E+00
  0.9300000      0.0000000E+00
  0.9400000      0.0000000E+00
  0.9500000      0.0000000E+00
  0.9600000      0.0000000E+00
  0.9700000      0.0000000E+00
  0.9800000      0.0000000E+00
  0.9900000      0.0000000E+00
   1.000000      0.0000000E+00
   1.010000      0.0000000E+00
   1.020000      0.0000000E+00
   1.030000      0.0000000E+00
   1.040000      0.0000000E+00
   1.050000      0.0000000E+00
   1.060000      0.0000000E+00
   1.070000      0.0000000E+00
   1.080000      0.0000000E+00
   1.090000      0.0000000E+00
   1.100000      0.0000000E+00
   1.110000      0.0000000E+00
   1.120000      0.0000000E+00
   1.130000      0.0000000E+00
   1.140000      0.0000000E+00
   1.150000      0.0000000E+00
   1.160000      0.0000000E+00
   1.170000      0.0000000E+00
   1.180000      0.0000000E+00
   1.190000      0.0000000E+00
   1.200000      0.0000000E+00
   1.210000      0.0000000E+00
   1.220000      0.0000000E+00
   1.230000      0.0000000E+00
   1.240000      0.0000000E+00
   1.250000      0.0000000E+00
   1.260000      0.0000000E+00
   1.270000      0.0000000E+00
   1.280000      0.0000000E+00
   1.290000      0.0000000E+00
   1.300000      0.0000000E+00
   1.310000      0.0000000E+00
   1.320000      0.0000000E+00
   1.330000      0.0000000E+00
   1.340000      0.0000000E+00
   1.350000      0.0000000E+00
   1.360000      0.0000000E+00
   1.370000      0.0000000E+00
   1.380000      0.0000000E+00
   1.390000      0.0000000E+00
   1.400000      0.0000000E+00
   1.410000      0.0000000E+00
   1.420000      0.0000000E+00
   1.430000      0.0000000E+00
   1.440000      0.0000000E+00
   1.450000      0.0000000E+00
   1.460000      0.0000000E+00
   1.470000      0.0000000E+00
   1.480000      0.0000000E+00
   1.490000      0.0000000E+00
   1.500000      0.0000000E+00
   1.510000      0.0000000E+00
   1.520000      0.0000000E+00
   1.530000      0.0000000E+00
   1.540000      0.0000000E+00
   1.550000      0.0000000E+00
   1.560000      0.0000000E+00
   1.570000      0.0000000E+00
   1.580000      0.0000000E+00
   1.590000      0.0000000E+00
   1.600000      0.0000000E+00
   1.610000      0.0000000E+00
   1.620000      0.0000000E+00
   1.630000      0.0000000E+00
   1.640000      0.0000000E+00
   1.650000      0.0000000E+00
   1.660000      0.0000000E+00
   1.670000      0.0000000E+00
   1.680000      0.0000000E+00
   1.690000      0.0000000E+00
   1.700000      0.0000000E+00
   1.710000      0.0000000E+00
   1.720000      0.0000000E+00
   1.730000      0.0000000E+00
   1.740000      0.0000000E+00
   1.750000      0.0000000E+00
   1.760000      0.0000000E+00
   1.770000      0.0000000E+00
   1.780000      0.0000000E+00
   1.790000      0.0000000E+00
   1.800000      0.0000000E+00
   1.810000      0.0000000E+00
   1.820000      0.0000000E+00
   1.830000      0.0000000E+00
   1.840000      0.0000000E+00
   1.850000      0.0000000E+00
   1.860000      0.0000000E+00
   1.870000      0.0000000E+00
   1.880000      0.0000000E+00
   1.890000      0.0000000E+00
   1.900000      0.0000000E+00
   1.910000      0.0000000E+00
   1.920000      0.0000000E+00
   1.930000      0.0000000E+00
   1.940000      0.0000000E+00
   1.950000      0.0000000E+00
   1.960000      0.0000000E+00
   1.970000      0.0000000E+00
   1.980000      0.0000000E+00
   1.990000      0.0000000E+00
   2.000000      0.0000000E+00
   2.010000      0.0000000E+00
   2.020000      0.0000000E+00
   2.030000      0.0000000E+00
   2.040000      0.0000000E+00
   2.050000      0.0000000E+00
   2.060000      0.0000000E+00
   2.070000      0.0000000E+00
   2.080000      0.0000000E+00
   2.090000      0.0000000E+00
   2.100000      0.0000000E+00
   2.110000      0.0000000E+00
   2.120000      0.0000000E+00
   2.130000      0.0000000E+00
   2.140000      0.0000000E+00
   2.150000      0.0000000E+00
   2.160000      0.0000000E+00
   2.170000      0.0000000E+00
   2.180000      0.0000000E+00
   2.190000      0.0000000E+00
   2.200000      0.0000000E+00
   2.210000      0.0000000E+00
   2.220000      0.0000000E+00
   2.230000      0.0000000E+00
   2.240000      0.0000000E+00
   2.250000      0.0000000E+00
   2.260000      0.0000000E+00
   2.270000      0.0000000E+00
   2.280000      0.0000000E+00
   2.290000      0.0000000E+00
   2.300000      0.0000000E+00
   2.310000      0.0000000E+00
   2.320000      0.0000000E+00
   2.330000      0.0000000E+00
   2.340000      0.0000000E+00
   2.350000      0.0000000E+00
   2.360000      0.0000000E+00
   2.370000      0.0000000E+00
   2.380000      0.0000000E+00
   2.390000      0.0000000E+00
   2.400000      0.0000000E+00
   2.410000      0.0000000E+00
   2.420000      0.0000000E+00
   2.430000      0.0000000E+00
   2.440000      0.0000000E+00
   2.450000      0.0000000E+00
   2.460000      0.0000000E+00
   2.470000      0.0000000E+00
   2.480000      0.0000000E+00
   2.490000      0.0000000E+00
   2.500000      0.0000000E+00
   2.510000      0.0000000E+00
   2.520000      0.0000000E+00
   2.530000      0.0000000E+00
   2.540000      0.0000000E+00
   2.550000      0.0000000E+00
   2.560000      0.0000000E+00
   2.570000      0.0000000E+00
   2.580000      0.0000000E+00
   2.590000      0.0000000E+00
   2.600000      0.0000000E+00
   2.610000      0.0000000E+00
   2.620000      0.0000000E+00
   2.630000      0.0000000E+00
   2.640000      0.0000000E+00
   2.650000      0.0000000E+00
   2.660000      0.0000000E+00
   2.670000      0.0000000E+00
   2.680000      0.0000000E+00
   2.690000      0.0000000E+00
   2.700000      0.0000000E+00
   2.710000      0.0000000E+00
   2.720000      0.0000000E+00
   2.730000      0.0000000E+00
   2.740000      0.0000000E+00
   2.750000      0.0000000E+00
   2.760000      0.0000000E+00
   2.770000      0.0000000E+00
   2.780000      0.0000000E+00
   2.790000      0.0000000E+00
   2.800000      0.0000000E+00
   2.810000      0.0000000E+00
   2.820000      0.0000000E+00
   2.830000      0.0000000E+00
   2.840000      0.0000000E+00
   2.850000      0.0000000E+00
   2.860000      0.0000000E+00
   2.870000      0.0000000E+00
   2.880000      0.0000000E+00
   2.890000      0.0000000E+00
   2.900000      0.0000000E+00
   2.910000      0.0000000E+00
   2.920000      0.0000000E+00
   2.930000      0.0000000E+00
   2.940000      0.0000000E+00
   2.950000      0.0000000E+00
   2.960000      0.0000000E+00
   2.970000      0.0000000E+00
   2.980000      0.0000000E+00
   2.990000      0.0000000E+00
   3.000000      0.0000000E+00
   3.010000      0.0000000E+00
   3.020000      0.0000000E+00
   3.030000      0.0000000E+00
   3.040000      0.0000000E+00
   3.050000      0.0000000E+00
   3.060000      0.0000000E+00
   3.070000      0.0000000E+00
   3.080000      0.0000000E+00
   3.090000      0.0000000E+00
   3.100000      0.0000000E+00
   3.110000      0.0000000E+00
   3.120000      0.0000000E+00
   3.130000      0.0000000E+00
   3.140000      0.0000000E+00
   3.150000      0.0000000E+00
   3.160000      0.0000000E+00
   3.170000      0.0000000E+00
   3.180000      0.0000000E+00
   3.190000      0.0000000E+00
   3.200000      0.0000000E+00
   3.210000      0.0000000E+00
   3.220000      0.0000000E+00
   3.230000      0.0000000E+00
   3.240000      0.0000000E+00
   3.250000      0.0000000E+00
   3.260000      0.0000000E+00
   3.270000      0.0000000E+00
   3.280000      0.0000000E+00
   3.290000      0.0000000E+00
   3.300000      0.0000000E+00
   3.310000      0.0000000E+00
   3.320000      0.0000000E+00
   3.330000      0.0000000E+00
   3.340000      0.0000000E+00
   3.350000      0.0000000E+00
   3.360000      1.2031004E-38
   3.370000      0.0000000E+00
   3.380000      0.0000000E+00
   3.390000      0.0000000E+00
   3.400000      0.0000000E+00
   3.410000      0.0000000E+00
   3.420000      0.0000000E+00
   3.430000      0.0000000E+00
   3.440000      0.0000000E+00
   3.450000      0.0000000E+00
   3.460000     -1.1941081E-38
   3.470000     -1.4240334E-38
   3.480000     -1.5441730E-38
   3.490000     -1.5669799E-38
   3.500000     -1.5270504E-38
   3.510000     -1.4168518E-38
   3.520000     -1.2949200E-38
   3.530000      0.0000000E+00
   3.540000      0.0000000E+00
   3.550000      0.0000000E+00
   3.560000      0.0000000E+00
   3.570000      0.0000000E+00
   3.580000      0.0000000E+00
   3.590000      0.0000000E+00
   3.600000      0.0000000E+00
   3.610000      0.0000000E+00
   3.620000      1.9286877E-38
   3.630000      2.9146529E-38
   3.640000      3.9424232E-38
   3.650000      5.0781778E-38
   3.660000      6.2747612E-38
   3.670000      7.3709112E-38
   3.680000      8.2886916E-38
   3.690000      9.0834941E-38
   3.700000      9.7454882E-38
   3.710000      1.0295062E-37
   3.720000      1.0765961E-37
   3.730000      1.1159540E-37
   3.740000      1.1564506E-37
   3.750000      1.2010781E-37
   3.760000      1.2443247E-37
   3.770000      1.2915158E-37
   3.780000      1.3459246E-37
   3.790000      1.3942576E-37
   3.800000      1.4304773E-37
   3.810000      1.4677124E-37
   3.820000      1.5131664E-37
   3.830000      1.5529319E-37
   3.840000      1.5800803E-37
   3.850000      1.6351233E-37
   3.860000      1.7186261E-37
   3.870000      1.7886362E-37
   3.880000      1.8331882E-37
   3.890000      1.8485676E-37
   3.900000      1.8388977E-37
   3.910000      1.8101103E-37
   3.920000      1.7436246E-37
   3.930000      1.5916886E-37
   3.940000      1.3378950E-37
   3.950000      1.0288226E-37
   3.960000      6.8883040E-38
   3.970000      2.7290523E-38
   3.980000     -2.0263284E-38
   3.990000     -6.9858019E-38
   4.000000     -1.2750534E-37
   4.010000     -1.9219947E-37
   4.020000     -2.5888924E-37
   4.030000     -3.2396086E-37
   4.040000     -3.8211979E-37
   4.050000     -4.2738478E-37
   4.060000     -4.5433226E-37
   4.070000     -4.6640096E-37
   4.080000     -4.7134694E-37
   4.090000     -4.7275142E-37
   4.100000     -4.9549766E-37
   4.110000     -5.3955524E-37
   4.120000     -5.7399557E-37
   4.130000     -6.1100420E-37
   4.140000     -6.4717900E-37
   4.150000     -6.7437325E-37
   4.160000     -7.0773904E-37
   4.170000     -6.9688362E-37
   4.180000     -6.3863498E-37
   4.190000     -5.7637060E-37
   4.200000     -4.5912596E-37
   4.210000     -2.5577547E-37
   4.220000      2.5655295E-38
   4.230000      3.7442379E-37
   4.240000      7.7376105E-37
   4.250000      1.2088265E-36
   4.260000      1.6243005E-36
   4.270000      1.9403630E-36
   4.280000      2.1804190E-36
   4.290000      2.3701054E-36
   4.300000      2.4966554E-36
   4.310000      2.5933765E-36
   4.320000      2.6673367E-36
   4.330000      2.7076112E-36
   4.340000      2.7147344E-36
   4.350000      2.7177870E-36
   4.360000      2.7813262E-36
   4.370000      2.9308786E-36
   4.380000      3.1070244E-36
   4.390000      3.2760046E-36
   4.400000      3.4182219E-36
   4.410000      3.5088381E-36
   4.420000      3.4356549E-36
   4.430000      3.2392008E-36
   4.440000      2.9023676E-36
   4.450000      2.4007040E-36
   4.460000      1.8967314E-36
   4.470000      1.4537998E-36
   4.480000      1.1291291E-36
   4.490000      8.0368902E-37
   4.500000      4.4242575E-37
   4.510000      9.9996401E-38
   4.520000     -3.0967358E-37
   4.530000     -8.3142988E-37
   4.540000     -1.3709403E-36
   4.550000     -1.8808302E-36
   4.560000     -2.4521094E-36
   4.570000     -3.1066155E-36
   4.580000     -3.8519904E-36
   4.590000     -4.6950524E-36
   4.600000     -5.6220514E-36
   4.610000     -6.6210874E-36
   4.620000     -7.6961712E-36
   4.630000     -8.8800233E-36
   4.640000     -1.0092216E-35
   4.650000     -1.1299023E-35
   4.660000     -1.2518292E-35
   4.670000     -1.3761474E-35
   4.680000     -1.5084478E-35
   4.690000     -1.6535808E-35
   4.700000     -1.8051067E-35
   4.710000     -1.9409040E-35
   4.720000     -2.0537241E-35
   4.730000     -2.1528526E-35
   4.740000     -2.2501282E-35
   4.750000     -2.3340587E-35
   4.760000     -2.3748870E-35
   4.770000     -2.3790559E-35
   4.780000     -2.3765939E-35
   4.790000     -2.3679034E-35
   4.800000     -2.3361432E-35
   4.810000     -2.2928588E-35
   4.820000     -2.2472522E-35
   4.830000     -2.1646129E-35
   4.840000     -2.0457838E-35
   4.850000     -1.9158684E-35
   4.860000     -1.8540155E-35
   4.870000     -1.8582281E-35
   4.880000     -1.8371456E-35
   4.890000     -1.8304853E-35
   4.900000     -1.7916998E-35
   4.910000     -1.6627218E-35
   4.920000     -1.5342547E-35
   4.930000     -1.4311358E-35
   4.940000     -1.3617100E-35
   4.950000     -1.3046168E-35
   4.960000     -1.1902508E-35
   4.970000     -8.0798333E-36
   4.980000     -1.5702704E-36
   4.990000      5.7499126E-36
   5.000000      1.4114100E-35
   5.010000      2.2978576E-35
   5.020000      3.3142765E-35
   5.030000      4.6020480E-35
   5.040000      5.9808481E-35
   5.050000      7.2633882E-35
   5.060000      8.4205545E-35
   5.070000      9.5389880E-35
   5.080000      1.0625008E-34
   5.090000      1.1612134E-34
   5.100000      1.2369021E-34
   5.110000      1.2814246E-34
   5.120000      1.3189640E-34
   5.130000      1.3721583E-34
   5.140000      1.4679092E-34
   5.150000      1.6027022E-34
   5.160000      1.7596253E-34
   5.170000      1.9512747E-34
   5.180000      2.1343499E-34
   5.190000      2.2659151E-34
   5.200000      2.3735031E-34
   5.210000      2.4262135E-34
   5.220000      2.4317523E-34
   5.230000      2.4335385E-34
   5.240000      2.4166394E-34
   5.250000      2.3955691E-34
   5.260000      2.3659212E-34
   5.270000      2.3021644E-34
   5.280000      2.2027058E-34
   5.290000      2.0951940E-34
   5.300000      1.9884860E-34
   5.310000      1.8751922E-34
   5.320000      1.7403792E-34
   5.330000      1.5654845E-34
   5.340000      1.3749706E-34
   5.350000      1.1872089E-34
   5.360000      1.0080684E-34
   5.370000      8.4991622E-35
   5.380000      6.6143385E-35
   5.390000      4.2890397E-35
   5.400000      1.7622265E-35
   5.410000     -1.2130127E-35
   5.420000     -4.6947190E-35
   5.430000     -8.5760578E-35
   5.440000     -1.2746318E-34
   5.450000     -1.7223744E-34
   5.460000     -2.2269153E-34
   5.470000     -2.7563276E-34
   5.480000     -3.2928026E-34
   5.490000     -3.8433555E-34
   5.500000     -4.4151462E-34
   5.510000     -5.0494563E-34
   5.520000     -5.7400358E-34
   5.530000     -6.4652249E-34
   5.540000     -7.2225018E-34
   5.550000     -7.9940072E-34
   5.560000     -8.7789665E-34
   5.570000     -9.5921579E-34
   5.580000     -1.0416537E-33
   5.590000     -1.1248980E-33
   5.600000     -1.2118613E-33
   5.610000     -1.3016200E-33
   5.620000     -1.3894319E-33
   5.630000     -1.4757668E-33
   5.640000     -1.5612275E-33
   5.650000     -1.6444922E-33
   5.660000     -1.7263154E-33
   5.670000     -1.8039463E-33
   5.680000     -1.8762394E-33
   5.690000     -1.9442368E-33
   5.700000     -2.0064410E-33
   5.710000     -2.0616733E-33
   5.720000     -2.1087149E-33
   5.730000     -2.1472362E-33
   5.740000     -2.1761040E-33
   5.750000     -2.1941249E-33
   5.760000     -2.2006448E-33
   5.770000     -2.1943601E-33
   5.780000     -2.1755543E-33
   5.790000     -2.1412160E-33
   5.800000     -2.0911583E-33
   5.810000     -2.0278798E-33
   5.820000     -1.9485406E-33
   5.830000     -1.8514521E-33
   5.840000     -1.7362985E-33
   5.850000     -1.6017461E-33
   5.860000     -1.4476711E-33
   5.870000     -1.2743602E-33
   5.880000     -1.0796417E-33
   5.890000     -8.6307082E-34
   5.900000     -6.2382521E-34
   5.910000     -3.6050189E-34
   5.920000     -7.3059568E-35
   5.930000      2.4014723E-34
   5.940000      5.7900154E-34
   5.950000      9.4336755E-34
   5.960000      1.3347962E-33
   5.970000      1.7535982E-33
   5.980000      2.2002218E-33
   5.990000      2.6753449E-33
   6.000000      3.1793441E-33
   6.010000      3.7122519E-33
   6.020000      4.2738051E-33
   6.030000      4.8628471E-33
   6.040000      5.4811167E-33
   6.050000      6.1299015E-33
   6.060000      6.8062129E-33
   6.070000      7.5083592E-33
   6.080000      8.2353569E-33
   6.090000      8.9852782E-33
   6.100000      9.7559110E-33
   6.110000      1.0544580E-32
   6.120000      1.1348333E-32
   6.130000      1.2163863E-32
   6.140000      1.2987407E-32
   6.150000      1.3814823E-32
   6.160000      1.4641808E-32
   6.170000      1.5463878E-32
   6.180000      1.6275849E-32
   6.190000      1.7072876E-32
   6.200000      1.7849846E-32
   6.210000      1.8600943E-32
   6.220000      1.9320444E-32
   6.230000      2.0002401E-32
   6.240000      2.0640574E-32
   6.250000      2.1228579E-32
   6.260000      2.1759936E-32
   6.270000      2.2228021E-32
   6.280000      2.2625761E-32
   6.290000      2.2945952E-32
   6.300000      2.3181541E-32
   6.310000      2.3324816E-32
   6.320000      2.3367773E-32
   6.330000      2.3302080E-32
   6.340000      2.3119995E-32
   6.350000      2.2813461E-32
   6.360000      2.2373059E-32
   6.370000      2.1790165E-32
   6.380000      2.1055943E-32
   6.390000      2.0160790E-32
   6.400000      1.9095225E-32
   6.410000      1.7849610E-32
   6.420000      1.6413148E-32
   6.430000      1.4777569E-32
   6.440000      1.2933816E-32
   6.450000      1.0870780E-32
   6.460000      8.5794138E-33
   6.470000      6.0505670E-33
   6.480000      3.2754408E-33
   6.490000      2.4591002E-34
   6.500000     -3.0455027E-33
   6.510000     -6.6056214E-33
   6.520000     -1.0440387E-32
   6.530000     -1.4554746E-32
   6.540000     -1.8952465E-32
   6.550000     -2.3636148E-32
   6.560000     -2.8607104E-32
   6.570000     -3.3865275E-32
   6.580000     -3.9409150E-32
   6.590000     -4.5235712E-32
   6.600000     -5.1340356E-32
   6.610000     -5.7716890E-32
   6.620000     -6.4357428E-32
   6.630000     -7.1252326E-32
   6.640000     -7.8390139E-32
   6.650000     -8.5757585E-32
   6.660000     -9.3339488E-32
   6.670000     -1.0111868E-31
   6.680000     -1.0907598E-31
   6.690000     -1.1719007E-31
   6.700000     -1.2543746E-31
   6.710000     -1.3379245E-31
   6.720000     -1.4222705E-31
   6.730000     -1.5071075E-31
   6.740000     -1.5921067E-31
   6.750000     -1.6769131E-31
   6.760000     -1.7611451E-31
   6.770000     -1.8443944E-31
   6.780000     -1.9262246E-31
   6.790000     -2.0061699E-31
   6.800000     -2.0837349E-31
   6.810000     -2.1583936E-31
   6.820000     -2.2295891E-31
   6.830000     -2.2967333E-31
   6.840000     -2.3592068E-31
   6.850000     -2.4163579E-31
   6.860000     -2.4675042E-31
   6.870000     -2.5119317E-31
   6.880000     -2.5488980E-31
   6.890000     -2.5776308E-31
   6.900000     -2.5973316E-31
   6.910000     -2.6071766E-31
   6.920000     -2.6063195E-31
   6.930000     -2.5938933E-31
   6.940000     -2.5690140E-31
   6.950000     -2.5307831E-31
   6.960000     -2.4782912E-31
   6.970000     -2.4106211E-31
   6.980000     -2.3268523E-31
   6.990000     -2.2260633E-31
   7.000000     -2.1073376E-31
   7.010000     -1.9697661E-31
   7.020000     -1.8124523E-31
   7.030000     -1.6345165E-31
   7.040000     -1.4351004E-31
   7.050000     -1.2133720E-31
   7.060000     -9.6853006E-32