  -2.600000      0.0000000E+00
  -2.590000      0.0000000E+00
  -2.580000      0.0000000E+00
  -2.570000      0.0000000E+00
  -2.560000      0.0000000E+00
  -2.550000      0.0000000E+00
  -2.540000      0.0000000E+00
  -2.530000      0.0000000E+00
  -2.520000      0.0000000E+00
  -2.510000      0.0000000E+00
  -2.500000      0.0000000E+00
  -2.490000      0.0000000E+00
  -2.480000      0.0000000E+00
  -2.470000      0.0000000E+00
  -2.460000      0.0000000E+00
  -2.450000      0.0000000E+00
  -2.440000      0.0000000E+00
  -2.430000      0.0000000E+00
  -2.420000      0.0000000E+00
  -2.410000      0.0000000E+00
  -2.400000      0.0000000E+00
  -2.390000      0.0000000E+00
  -2.380000      0.0000000E+00
  -2.370000      0.0000000E+00
  -2.360000      0.0000000E+00
  -2.350000      0.0000000E+00
  -2.340000      0.0000000E+00
  -2.330000      0.0000000E+00
  -2.320000      0.0000000E+00
  -2.310000      0.0000000E+00
  -2.300000      0.0000000E+00
  -2.290000      0.0000000E+00
  -2.280000      0.0000000E+00
  -2.270000      0.0000000E+00
  -2.260000      0.0000000E+00
  -2.250000      0.0000000E+00
  -2.240000      0.0000000E+00
  -2.230000      0.0000000E+00
  -2.220000      0.0000000E+00
  -2.210000      0.0000000E+00
  -2.200000      0.0000000E+00
  -2.190000      0.0000000E+00
  -2.180000      0.0000000E+00
  -2.170000      0.0000000E+00
  -2.160000      0.0000000E+00
  -2.150000      0.0000000E+00
  -2.140000      0.0000000E+00
  -2.130000      0.0000000E+00
  -2.120000      0.0000000E+00
  -2.110000      0.0000000E+00
  -2.100000      0.0000000E+00
  -2.090000      0.0000000E+00
  -2.080000      0.0000000E+00
  -2.070000      0.0000000E+00
  -2.060000      0.0000000E+00
  -2.050000      0.0000000E+00
  -2.040000      0.0000000E+00
  -2.030000      0.0000000E+00
  -2.020000      0.0000000E+00
  -2.010000      0.0000000E+00
  -2.000000      0.0000000E+00
  -1.990000      0.0000000E+00
  -1.980000      0.0000000E+00
  -1.970000      0.0000000E+00
  -1.960000      0.0000000E+00
  -1.950000      0.0000000E+00
  -1.940000      0.0000000E+00
  -1.930000      0.0000000E+00
  -1.920000      0.0000000E+00
  -1.910000      0.0000000E+00
  -1.900000      0.0000000E+00
  -1.890000      0.0000000E+00
  -1.880000      0.0000000E+00
  -1.870000      0.0000000E+00
  -1.860000      0.0000000E+00
  -1.850000      0.0000000E+00
  -1.840000      0.0000000E+00
  -1.830000      0.0000000E+00
  -1.820000      0.0000000E+00
  -1.810000      0.0000000E+00
  -1.800000      0.0000000E+00
  -1.790000      0.0000000E+00
  -1.780000      0.0000000E+00
  -1.770000      0.0000000E+00
  -1.760000      0.0000000E+00
  -1.750000      0.0000000E+00
  -1.740000      0.0000000E+00
  -1.730000      0.0000000E+00
  -1.720000      0.0000000E+00
  -1.710000      0.0000000E+00
  -1.700000      0.0000000E+00
  -1.690000      0.0000000E+00
  -1.680000      0.0000000E+00
  -1.670000      0.0000000E+00
  -1.660000      0.0000000E+00
  -1.650000      0.0000000E+00
  -1.640000      0.0000000E+00
  -1.630000      0.0000000E+00
  -1.620000      0.0000000E+00
  -1.610000      0.0000000E+00
  -1.600000      0.0000000E+00
  -1.590000      0.0000000E+00
  -1.580000      0.0000000E+00
  -1.570000      0.0000000E+00
  -1.560000      0.0000000E+00
  -1.550000      0.0000000E+00
  -1.540000      0.0000000E+00
  -1.530000      0.0000000E+00
  -1.520000      0.0000000E+00
  -1.510000      0.0000000E+00
  -1.500000      0.0000000E+00
  -1.490000      0.0000000E+00
  -1.480000      0.0000000E+00
  -1.470000      0.0000000E+00
  -1.460000      0.0000000E+00
  -1.450000      0.0000000E+00
  -1.440000      0.0000000E+00
  -1.430000      0.0000000E+00
  -1.420000      0.0000000E+00
  -1.410000      0.0000000E+00
  -1.400000      0.0000000E+00
  -1.390000      0.0000000E+00
  -1.380000      0.0000000E+00
  -1.370000      0.0000000E+00
  -1.360000      0.0000000E+00
  -1.350000      0.0000000E+00
  -1.340000      0.0000000E+00
  -1.330000      0.0000000E+00
  -1.320000      0.0000000E+00
  -1.310000      0.0000000E+00
  -1.300000      0.0000000E+00
  -1.290000      0.0000000E+00
  -1.280000      0.0000000E+00
  -1.270000      0.0000000E+00
  -1.260000      0.0000000E+00
  -1.250000      0.0000000E+00
  -1.240000      0.0000000E+00
  -1.230000      0.0000000E+00
  -1.220000      0.0000000E+00
  -1.210000      0.0000000E+00
  -1.200000      0.0000000E+00
  -1.190000      0.0000000E+00
  -1.180000      0.0000000E+00
  -1.170000      0.0000000E+00
  -1.160000      0.0000000E+00
  -1.150000      0.0000000E+00
  -1.140000      0.0000000E+00
  -1.130000      0.0000000E+00
  -1.120000      0.0000000E+00
  -1.110000      0.0000000E+00
  -1.100000      0.0000000E+00
  -1.090000      0.0000000E+00
  -1.080000      0.0000000E+00
  -1.070000      0.0000000E+00
  -1.060000      0.0000000E+00
  -1.050000      0.0000000E+00
  -1.040000      0.0000000E+00
  -1.030000      0.0000000E+00
  -1.020000      0.0000000E+00
  -1.010000      0.0000000E+00
  -1.000000      0.0000000E+00
 -0.9900000      0.0000000E+00
 -0.9800000      0.0000000E+00
 -0.9700000      0.0000000E+00
 -0.9600000      0.0000000E+00
 -0.9500000      0.0000000E+00
 -0.9400000      0.0000000E+00
 -0.9300000      0.0000000E+00
 -0.9200000      0.0000000E+00
 -0.9100000      0.0000000E+00
 -0.9000000      0.0000000E+00
 -0.8900000      0.0000000E+00
 -0.8800000      0.0000000E+00
 -0.8700000      0.0000000E+00
 -0.8600000      0.0000000E+00
 -0.8500000      0.0000000E+00
 -0.8400000      0.0000000E+00
 -0.8300000      0.0000000E+00
 -0.8200000      0.0000000E+00
 -0.8100000      0.0000000E+00
 -0.8000000      0.0000000E+00
 -0.7900000      0.0000000E+00
 -0.7800000      0.0000000E+00
 -0.7700000      0.0000000E+00
 -0.7600000      0.0000000E+00
 -0.7500000      0.0000000E+00
 -0.7400000      0.0000000E+00
 -0.7300000      0.0000000E+00
 -0.7200000      0.0000000E+00
 -0.7100000      0.0000000E+00
 -0.7000000      0.0000000E+00
 -0.6900000      0.0000000E+00
 -0.6800000      0.0000000E+00
 -0.6700000      0.0000000E+00
 -0.6600000      0.0000000E+00
 -0.6500000      0.0000000E+00
 -0.6400000      0.0000000E+00
 -0.6300000      0.0000000E+00
 -0.6200000      0.0000000E+00
 -0.6100000      0.0000000E+00
 -0.6000000      0.0000000E+00
 -0.5900000      0.0000000E+00
 -0.5800000      0.0000000E+00
 -0.5700000      0.0000000E+00
 -0.5600000      0.0000000E+00
 -0.5500000      0.0000000E+00
 -0.5400000      0.0000000E+00
 -0.5300000      0.0000000E+00
 -0.5200000      0.0000000E+00
 -0.5100000      0.0000000E+00
 -0.5000000      0.0000000E+00
 -0.4900000      0.0000000E+00
 -0.4800000      0.0000000E+00
 -0.4700000      0.0000000E+00
 -0.4600000      0.0000000E+00
 -0.4500000      0.0000000E+00
 -0.4400000      0.0000000E+00
 -0.4300000      0.0000000E+00
 -0.4200000      0.0000000E+00
 -0.4100000      0.0000000E+00
 -0.4000000      0.0000000E+00
 -0.3900000      0.0000000E+00
 -0.3800000      0.0000000E+00
 -0.3700000      0.0000000E+00
 -0.3600000      0.0000000E+00
 -0.3500000      0.0000000E+00
 -0.3400000      0.0000000E+00
 -0.3300000      0.0000000E+00
 -0.3200000      0.0000000E+00
 -0.3100000      0.0000000E+00
 -0.3000000      0.0000000E+00
 -0.2900000      0.0000000E+00
 -0.2800000      0.0000000E+00
 -0.2700000      0.0000000E+00
 -0.2600000      0.0000000E+00
 -0.2500000      0.0000000E+00
 -0.2400000      0.0000000E+00
 -0.2300000      0.0000000E+00
 -0.2200000      0.0000000E+00
 -0.2100000      0.0000000E+00
 -0.2000000      0.0000000E+00
 -0.1900000      0.0000000E+00
 -0.1800000      0.0000000E+00
 -0.1700000      0.0000000E+00
 -0.1600000      0.0000000E+00
 -0.1500000      0.0000000E+00
 -0.1400000      0.0000000E+00
 -0.1300000      0.0000000E+00
 -0.1200000      0.0000000E+00
 -0.1100000      0.0000000E+00
 -0.1000000      0.0000000E+00
 -9.0000004E-02  0.0000000E+00
 -7.9999998E-02  0.0000000E+00
 -7.0000000E-02  0.0000000E+00
 -5.9999999E-02  0.0000000E+00
 -5.0000001E-02  0.0000000E+00
 -3.9999999E-02  0.0000000E+00
 -2.9999999E-02  0.0000000E+00
 -2.0000000E-02  0.0000000E+00
 -9.9999998E-03  0.0000000E+00
 -3.4694470E-17  0.0000000E+00
  9.9999998E-03  0.0000000E+00
  2.0000000E-02  0.0000000E+00
  2.9999999E-02  0.0000000E+00
  3.9999999E-02  0.0000000E+00
  5.0000001E-02  0.0000000E+00
  5.9999999E-02  0.0000000E+00
  7.0000000E-02  0.0000000E+00
  7.9999998E-02  0.0000000E+00
  9.0000004E-02  0.0000000E+00
  0.1000000      0.0000000E+00
  0.1100000      0.0000000E+00
  0.1200000      0.0000000E+00
  0.1300000      0.0000000E+00
  0.1400000      0.0000000E+00
  0.1500000      0.0000000E+00
  0.1600000      0.0000000E+00
  0.1700000      0.0000000E+00
  0.1800000      0.0000000E+00
  0.1900000      0.0000000E+00
  0.2000000      0.0000000E+00
  0.2100000      0.0000000E+00
  0.2200000      0.0000000E+00
  0.2300000      0.0000000E+00
  0.2400000      0.0000000E+00
  0.2500000      0.0000000E+00
  0.2600000      0.0000000E+00
  0.2700000      0.0000000E+00
  0.2800000      0.0000000E+00
  0.2900000      0.0000000E+00
  0.3000000      0.0000000E+00
  0.3100000      0.0000000E+00
  0.3200000      0.0000000E+00
  0.3300000      0.0000000E+00
  0.3400000      0.0000000E+00
  0.3500000      0.0000000E+00
  0.3600000      0.0000000E+00
  0.3700000      0.0000000E+00
  0.3800000      0.0000000E+00
  0.3900000      0.0000000E+00
  0.4000000      0.0000000E+00
  0.4100000      0.0000000E+00
  0.4200000      0.0000000E+00
  0.4300000      0.0000000E+00
  0.4400000      0.0000000E+00
  0.4500000      0.0000000E+00
  0.4600000      0.0000000E+00
  0.4700000      0.0000000E+00
  0.4800000      0.0000000E+00
  0.4900000      0.0000000E+00
  0.5000000      0.0000000E+00
  0.5100000      0.0000000E+00
  0.5200000      0.0000000E+00
  0.5300000      0.0000000E+00
  0.5400000      0.0000000E+00
  0.5500000      0.0000000E+00
  0.5600000      0.0000000E+00
  0.5700000      0.0000000E+00
  0.5800000      0.0000000E+00
  0.5900000      0.0000000E+00
  0.6000000      0.0000000E+00
  0.6100000      0.0000000E+00
  0.6200000      0.0000000E+00
  0.6300000      0.0000000E+00
  0.6400000      0.0000000E+00
  0.6500000      0.0000000E+00
  0.6600000      0.0000000E+00
  0.6700000      0.0000000E+00
  0.6800000      0.0000000E+00
  0.6900000      0.0000000E+00
  0.7000000      0.0000000E+00
  0.7100000      0.0000000E+00
  0.7200000      0.0000000E+00
  0.7300000      0.0000000E+00
  0.7400000      0.0000000E+00
  0.7500000      0.0000000E+00
  0.7600000      0.0000000E+00
  0.7700000      0.0000000E+00
  0.7800000      0.0000000E+00
  0.7900000      0.0000000E+00
  0.8000000      0.0000000E+00
  0.8100000      0.0000000E+00
  0.8200000      0.0000000E+00
  0.8300000      0.0000000E+00
  0.8400000      0.0000000E+00
  0.8500000      0.0000000E+00
  0.8600000      0.0000000E+00
  0.8700000      0.0000000E+00
  0.8800000      0.0000000E+00
  0.8900000      0.0000000E+00
  0.9000000      0.0000000E+00
  0.9100000      0.0000000E+00
  0.9200000      0.0000000E+00
  0.9300000      0.0000000E+00
  0.9400000      0.0000000E+00
  0.9500000      0.0000000E+00
  0.9600000      0.0000000E+00
  0.9700000      0.0000000E+00
  0.9800000      0.0000000E+00
  0.9900000      0.0000000E+00
   1.000000      0.0000000E+00
   1.010000      0.0000000E+00
   1.020000      0.0000000E+00
   1.030000      0.0000000E+00
   1.040000      0.0000000E+00
   1.050000      0.0000000E+00
   1.060000      0.0000000E+00
   1.070000      0.0000000E+00
   1.080000      0.0000000E+00
   1.090000      0.0000000E+00
   1.100000      0.0000000E+00
   1.110000      0.0000000E+00
   1.120000      0.0000000E+00
   1.130000      0.0000000E+00
   1.140000      0.0000000E+00
   1.150000      0.0000000E+00
   1.160000      0.0000000E+00
   1.170000      0.0000000E+00
   1.180000      0.0000000E+00
   1.190000      0.0000000E+00
   1.200000      0.0000000E+00
   1.210000      0.0000000E+00
   1.220000      0.0000000E+00
   1.230000      0.0000000E+00
   1.240000      0.0000000E+00
   1.250000      0.0000000E+00
   1.260000      0.0000000E+00
   1.270000      0.0000000E+00
   1.280000      0.0000000E+00
   1.290000      0.0000000E+00
   1.300000      0.0000000E+00
   1.310000      0.0000000E+00
   1.320000      0.0000000E+00
   1.330000      0.0000000E+00
   1.340000      0.0000000E+00
   1.350000      0.0000000E+00
   1.360000      0.0000000E+00
   1.370000      0.0000000E+00
   1.380000      0.0000000E+00
   1.390000      0.0000000E+00
   1.400000      0.0000000E+00
   1.410000      0.0000000E+00
   1.420000      0.0000000E+00
   1.430000      0.0000000E+00
   1.440000      0.0000000E+00
   1.450000      0.0000000E+00
   1.460000      0.0000000E+00
   1.470000      0.0000000E+00
   1.480000      0.0000000E+00
   1.490000      0.0000000E+00
   1.500000      0.0000000E+00
   1.510000      0.0000000E+00
   1.520000      0.0000000E+00
   1.530000      0.0000000E+00
   1.540000      0.0000000E+00
   1.550000      0.0000000E+00
   1.560000      0.0000000E+00
   1.570000      0.0000000E+00
   1.580000      0.0000000E+00
   1.590000      0.0000000E+00
   1.600000      0.0000000E+00
   1.610000      0.0000000E+00
   1.620000      0.0000000E+00
   1.630000      0.0000000E+00
   1.640000      0.0000000E+00
   1.650000      0.0000000E+00
   1.660000      0.0000000E+00
   1.670000      0.0000000E+00
   1.680000      0.0000000E+00
   1.690000      0.0000000E+00
   1.700000      0.0000000E+00
   1.710000      0.0000000E+00
   1.720000      0.0000000E+00
   1.730000      0.0000000E+00
   1.740000      0.0000000E+00
   1.750000      0.0000000E+00
   1.760000      0.0000000E+00
   1.770000      0.0000000E+00
   1.780000      0.0000000E+00
   1.790000      0.0000000E+00
   1.800000      0.0000000E+00
   1.810000      0.0000000E+00
   1.820000      0.0000000E+00
   1.830000      0.0000000E+00
   1.840000      0.0000000E+00
   1.850000      0.0000000E+00
   1.860000      0.0000000E+00
   1.870000      0.0000000E+00
   1.880000      0.0000000E+00
   1.890000      0.0000000E+00
   1.900000      0.0000000E+00
   1.910000      0.0000000E+00
   1.920000      0.0000000E+00
   1.930000      0.0000000E+00
   1.940000      0.0000000E+00
   1.950000      0.0000000E+00
   1.960000      0.0000000E+00
   1.970000      0.0000000E+00
   1.980000      0.0000000E+00
   1.990000      0.0000000E+00
   2.000000      0.0000000E+00
   2.010000      0.0000000E+00
   2.020000      0.0000000E+00
   2.030000      0.0000000E+00
   2.040000      0.0000000E+00
   2.050000      0.0000000E+00
   2.060000      0.0000000E+00
   2.070000      0.0000000E+00
   2.080000      0.0000000E+00
   2.090000      0.0000000E+00
   2.100000      0.0000000E+00
   2.110000      0.0000000E+00
   2.120000      0.0000000E+00
   2.130000      0.0000000E+00
   2.140000      0.0000000E+00
   2.150000      0.0000000E+00
   2.160000      0.0000000E+00
   2.170000      0.0000000E+00
   2.180000      0.0000000E+00
   2.190000      0.0000000E+00
   2.200000      0.0000000E+00
   2.210000      0.0000000E+00
   2.220000      0.0000000E+00
   2.230000      0.0000000E+00
   2.240000      0.0000000E+00
   2.250000      0.0000000E+00
   2.260000      0.0000000E+00
   2.270000      0.0000000E+00
   2.280000      0.0000000E+00
   2.290000      0.0000000E+00
   2.300000      0.0000000E+00
   2.310000      0.0000000E+00
   2.320000      0.0000000E+00
   2.330000      0.0000000E+00
   2.340000      0.0000000E+00
   2.350000      0.0000000E+00
   2.360000      0.0000000E+00
   2.370000      0.0000000E+00
   2.380000      0.0000000E+00
   2.390000      0.0000000E+00
   2.400000      0.0000000E+00
   2.410000      0.0000000E+00
   2.420000      0.0000000E+00
   2.430000      0.0000000E+00
   2.440000      0.0000000E+00
   2.450000      0.0000000E+00
   2.460000      0.0000000E+00
   2.470000      0.0000000E+00
   2.480000      0.0000000E+00
   2.490000      0.0000000E+00
   2.500000      0.0000000E+00
   2.510000      0.0000000E+00
   2.520000      0.0000000E+00
   2.530000      0.0000000E+00
   2.540000      0.0000000E+00
   2.550000      0.0000000E+00
   2.560000      0.0000000E+00
   2.570000      0.0000000E+00
   2.580000      0.0000000E+00
   2.590000      0.0000000E+00
   2.600000      0.0000000E+00
   2.610000      0.0000000E+00
   2.620000      0.0000000E+00
   2.630000      0.0000000E+00
   2.640000      0.0000000E+00
   2.650000      0.0000000E+00
   2.660000      0.0000000E+00
   2.670000      0.0000000E+00
   2.680000      0.0000000E+00
   2.690000      0.0000000E+00
   2.700000      0.0000000E+00
   2.710000      0.0000000E+00
   2.720000      0.0000000E+00
   2.730000      0.0000000E+00
   2.740000      0.0000000E+00
   2.750000      0.0000000E+00
   2.760000      0.0000000E+00
   2.770000      0.0000000E+00
   2.780000      0.0000000E+00
   2.790000      0.0000000E+00
   2.800000      0.0000000E+00
   2.810000      0.0000000E+00
   2.820000      0.0000000E+00
   2.830000      0.0000000E+00
   2.840000      0.0000000E+00
   2.850000      0.0000000E+00
   2.860000      0.0000000E+00
   2.870000      0.0000000E+00
   2.880000      0.0000000E+00
   2.890000      0.0000000E+00
   2.900000      0.0000000E+00
   2.910000      0.0000000E+00
   2.920000      0.0000000E+00
   2.930000      0.0000000E+00
   2.940000      0.0000000E+00
   2.950000      0.0000000E+00
   2.960000      0.0000000E+00
   2.970000      0.0000000E+00
   2.980000      0.0000000E+00
   2.990000      0.0000000E+00
   3.000000      0.0000000E+00
   3.010000      0.0000000E+00
   3.020000      0.0000000E+00
   3.030000      0.0000000E+00
   3.040000      0.0000000E+00
   3.050000      0.0000000E+00
   3.060000      0.0000000E+00
   3.070000      0.0000000E+00
   3.080000      0.0000000E+00
   3.090000      0.0000000E+00
   3.100000      0.0000000E+00
   3.110000      0.0000000E+00
   3.120000      0.0000000E+00
   3.130000      0.0000000E+00
   3.140000      0.0000000E+00
   3.150000      0.0000000E+00
   3.160000      0.0000000E+00
   3.170000      0.0000000E+00
   3.180000      0.0000000E+00
   3.190000      0.0000000E+00
   3.200000      0.0000000E+00
   3.210000      0.0000000E+00
   3.220000      0.0000000E+00
   3.230000      0.0000000E+00
   3.240000      0.0000000E+00
   3.250000      0.0000000E+00
   3.260000      0.0000000E+00
   3.270000      0.0000000E+00
   3.280000      0.0000000E+00
   3.290000      0.0000000E+00
   3.300000      0.0000000E+00
   3.310000      0.0000000E+00
   3.320000      0.0000000E+00
   3.330000      0.0000000E+00
   3.340000      0.0000000E+00
   3.350000      1.2858117E-38
   3.360000      1.4718660E-38
   3.370000      1.3974780E-38
   3.380000      0.0000000E+00
   3.390000      0.0000000E+00
   3.400000      0.0000000E+00
   3.410000      0.0000000E+00
   3.420000      0.0000000E+00
   3.430000      0.0000000E+00
   3.440000      0.0000000E+00
   3.450000      0.0000000E+00
   3.460000      0.0000000E+00
   3.470000      0.0000000E+00
   3.480000      0.0000000E+00
   3.490000      0.0000000E+00
   3.500000      0.0000000E+00
   3.510000      0.0000000E+00
   3.520000      0.0000000E+00
   3.530000      0.0000000E+00
   3.540000      0.0000000E+00
   3.550000      0.0000000E+00
   3.560000      0.0000000E+00
   3.570000     -1.3564456E-38
   3.580000     -2.2435936E-38
   3.590000     -3.2119512E-38
   3.600000     -4.3489155E-38
   3.610000     -5.0129177E-38
   3.620000     -5.0191176E-38
   3.630000     -4.9079728E-38
   3.640000     -4.6853908E-38
   3.650000     -4.4280970E-38
   3.660000     -4.3660528E-38
   3.670000     -4.7058977E-38
   3.680000     -5.5613063E-38
   3.690000     -6.5327161E-38
   3.700000     -7.2272120E-38
   3.710000     -7.6787451E-38
   3.720000     -7.9255037E-38
   3.730000     -7.9844322E-38
   3.740000     -7.9504042E-38
   3.750000     -7.8725828E-38
   3.760000     -7.7905429E-38
   3.770000     -6.5238156E-38
   3.780000     -4.0796386E-38
   3.790000     -1.8408757E-38
   3.800000      0.0000000E+00
   3.810000     -1.4790296E-38
   3.820000     -1.7421956E-38
   3.830000     -1.6617430E-38
   3.840000      0.0000000E+00
   3.850000      0.0000000E+00
   3.860000      1.2594177E-38
   3.870000      0.0000000E+00
   3.880000      0.0000000E+00
   3.890000      0.0000000E+00
   3.900000     -2.0036825E-38
   3.910000     -1.9935360E-38
   3.920000      0.0000000E+00
   3.930000      4.1811652E-38
   3.940000      1.0127683E-37
   3.950000      1.5922775E-37
   3.960000      2.0725460E-37
   3.970000      2.1372860E-37
   3.980000      2.2227934E-37
   3.990000      2.8494250E-37
   4.000000      3.6039240E-37
   4.010000      4.3107178E-37
   4.020000      4.9187361E-37
   4.030000      5.0838915E-37
   4.040000      5.1232745E-37
   4.050000      5.5843017E-37
   4.060000      6.4578057E-37
   4.070000      6.9105928E-37
   4.080000      6.6184757E-37
   4.090000      5.6648475E-37
   4.100000      3.2679278E-37
   4.110000     -1.4974742E-37
   4.120000     -8.0088149E-37
   4.130000     -1.1978004E-36
   4.140000     -1.1445333E-36
   4.150000     -8.1824333E-37
   4.160000     -3.6801602E-37
   4.170000      1.6650184E-37
   4.180000      7.9231137E-37
   4.190000      1.3920946E-36
   4.200000      1.8462890E-36
   4.210000      1.8883121E-36
   4.220000      1.6191823E-36
   4.230000      1.3808878E-36
   4.240000      1.1740450E-36
   4.250000      9.8185930E-37
   4.260000      8.6853752E-37
   4.270000      9.4182440E-37
   4.280000      1.1312111E-36
   4.290000      1.3085916E-36
   4.300000      1.4875905E-36
   4.310000      1.6570243E-36
   4.320000      1.7527208E-36
   4.330000      1.7849965E-36
   4.340000      1.7779153E-36
   4.350000      1.8185502E-36
   4.360000      1.6359932E-36
   4.370000      1.1374176E-36
   4.380000      6.2650534E-37
   4.390000      3.5194239E-37
   4.400000      4.6435879E-37
   4.410000      1.0740013E-36
   4.420000      2.0635599E-36
   4.430000      3.1162478E-36
   4.440000      4.2921963E-36
   4.450000      5.2874179E-36
   4.460000      5.9584477E-36
   4.470000      6.0779257E-36
   4.480000      5.7060188E-36
   4.490000      5.2382777E-36
   4.500000      4.5850052E-36
   4.510000      3.9012121E-36
   4.520000      3.1819209E-36
   4.530000      2.3523887E-36
   4.540000      1.4410868E-36
   4.550000      3.8520793E-37
   4.560000     -7.9934333E-37
   4.570000     -2.0375518E-36
   4.580000     -3.2315261E-36
   4.590000     -4.2842974E-36
   4.600000     -5.1559267E-36
   4.610000     -5.9884532E-36
   4.620000     -7.0263639E-36
   4.630000     -8.1989798E-36
   4.640000     -9.4488954E-36
   4.650000     -1.0993752E-35
   4.660000     -1.2668222E-35
   4.670000     -1.4316541E-35
   4.680000     -1.5836660E-35
   4.690000     -1.7135607E-35
   4.700000     -1.8089624E-35
   4.710000     -1.8593962E-35
   4.720000     -1.8715938E-35
   4.730000     -1.9747193E-35
   4.740000     -2.1848670E-35
   4.750000     -2.3894260E-35
   4.760000     -2.5286376E-35
   4.770000     -2.6017817E-35
   4.780000     -2.6951827E-35
   4.790000     -2.8176720E-35
   4.800000     -3.0895272E-35
   4.810000     -3.3934855E-35
   4.820000     -3.5367041E-35
   4.830000     -3.5143854E-35
   4.840000     -3.5403307E-35
   4.850000     -3.7513520E-35
   4.860000     -4.1517298E-35
   4.870000     -4.6842580E-35
   4.880000     -5.2535942E-35
   4.890000     -5.8801017E-35
   4.900000     -6.5653707E-35
   4.910000     -6.6846690E-35
   4.920000     -6.0454389E-35
   4.930000     -5.4232241E-35
   4.940000     -4.2706028E-35
   4.950000     -2.1944874E-35
   4.960000     -1.1514437E-36
   4.970000      1.7759256E-35
   4.980000      3.6835063E-35
   4.990000      5.5055770E-35
   5.000000      7.2279047E-35
   5.010000      8.7682775E-35
   5.020000      9.1652554E-35
   5.030000      8.3213503E-35
   5.040000      6.9882760E-35
   5.050000      5.2511663E-35
   5.060000      3.6196390E-35
   5.070000      2.8390748E-35
   5.080000      2.8636096E-35
   5.090000      2.7761256E-35
   5.100000      2.3449218E-35
   5.110000      1.7451187E-35
   5.120000      9.3868052E-36
   5.130000      2.1010403E-35
   5.140000      5.4302317E-35
   5.150000      9.1472574E-35
   5.160000      1.3463722E-34
   5.170000      1.8433497E-34
   5.180000      2.3931883E-34
   5.190000      2.9587500E-34
   5.200000      3.4760240E-34
   5.210000      3.9024387E-34
   5.220000      4.1459947E-34
   5.230000      4.1610016E-34
   5.240000      4.0461402E-34
   5.250000      3.8053966E-34
   5.260000      3.4442304E-34
   5.270000      3.0377531E-34
   5.280000      2.6793679E-34
   5.290000      2.3853930E-34
   5.300000      2.0812649E-34
   5.310000      1.8705326E-34
   5.320000      1.8277999E-34
   5.330000      1.8712234E-34
   5.340000      1.9725163E-34
   5.350000      2.1130909E-34
   5.360000      2.2412898E-34
   5.370000      2.2588701E-34
   5.380000      2.1847279E-34
   5.390000      2.0818932E-34
   5.400000      1.8527658E-34
   5.410000      1.5514426E-34
   5.420000      1.1371517E-34
   5.430000      4.9388533E-35
   5.440000     -3.3282329E-35
   5.450000     -1.2190730E-34
   5.460000     -2.0616392E-34
   5.470000     -2.8778531E-34
   5.480000     -3.6458703E-34
   5.490000     -4.3236294E-34
   5.500000     -4.8655631E-34
   5.510000     -5.2327168E-34
   5.520000     -5.4871906E-34
   5.530000     -5.7101663E-34
   5.540000     -5.9288170E-34
   5.550000     -6.1659105E-34
   5.560000     -6.4944699E-34
   5.570000     -7.0036073E-34
   5.580000     -7.7201519E-34
   5.590000     -8.6529921E-34
   5.600000     -9.7828800E-34
   5.610000     -1.1091384E-33
   5.620000     -1.2509669E-33
   5.630000     -1.3979339E-33
   5.640000     -1.5471102E-33
   5.650000     -1.6875463E-33
   5.660000     -1.8125318E-33
   5.670000     -1.9199965E-33
   5.680000     -2.0069028E-33
   5.690000     -2.0735162E-33
   5.700000     -2.1233739E-33
   5.710000     -2.1609882E-33
   5.720000     -2.1910263E-33
   5.730000     -2.2191719E-33
   5.740000     -2.2508145E-33
   5.750000     -2.2891094E-33
   5.760000     -2.3341677E-33
   5.770000     -2.3875108E-33
   5.780000     -2.4461343E-33
   5.790000     -2.5042759E-33
   5.800000     -2.5569572E-33
   5.810000     -2.5955433E-33
   5.820000     -2.6129493E-33
   5.830000     -2.6041628E-33
   5.840000     -2.5641135E-33
   5.850000     -2.4895615E-33
   5.860000     -2.3800772E-33
   5.870000     -2.2369514E-33
   5.880000     -2.0642561E-33
   5.890000     -1.8652118E-33
   5.900000     -1.6451431E-33
   5.910000     -1.4105985E-33
   5.920000     -1.1597370E-33
   5.930000     -9.0098262E-34
   5.940000     -6.3771735E-34
   5.950000     -3.6915867E-34
   5.960000     -8.9236460E-35
   5.970000      2.1564228E-34
   5.980000      5.4951082E-34
   5.990000      9.1992489E-34
   6.000000      1.3339067E-33
   6.010000      1.7990974E-33
   6.020000      2.3121950E-33
   6.030000      2.8763360E-33
   6.040000      3.4963893E-33
   6.050000      4.1647515E-33
   6.060000      4.8750249E-33
   6.070000      5.6196124E-33
   6.080000      6.3917145E-33
   6.090000      7.1841028E-33
   6.100000      7.9913339E-33
   6.110000      8.8094243E-33
   6.120000      9.6359658E-33
   6.130000      1.0471290E-32
   6.140000      1.1317380E-32
   6.150000      1.2177339E-32
   6.160000      1.3054720E-32
   6.170000      1.3952626E-32
   6.180000      1.4872914E-32
   6.190000      1.5815596E-32
   6.200000      1.6778091E-32
   6.210000      1.7755118E-32
   6.220000      1.8738992E-32
   6.230000      1.9719824E-32
   6.240000      2.0686162E-32
   6.250000      2.1625809E-32
   6.260000      2.2526612E-32
   6.270000      2.3377307E-32
   6.280000      2.4168143E-32
   6.290000      2.4891284E-32
   6.300000      2.5541009E-32
   6.310000      2.6113460E-32
   6.320000      2.6606077E-32
   6.330000      2.7017045E-32
   6.340000      2.7344497E-32
   6.350000      2.7585679E-32
   6.360000      2.7735995E-32
   6.370000      2.7788584E-32
   6.380000      2.7734029E-32
   6.390000      2.7560197E-32
   6.400000      2.7252517E-32
   6.410000      2.6794988E-32
   6.420000      2.6170151E-32
   6.430000      2.5360145E-32
   6.440000      2.4348377E-32
   6.450000      2.3120287E-32
   6.460000      2.1661703E-32
   6.470000      1.9960899E-32
   6.480000      1.8013672E-32
   6.490000      1.5810287E-32
   6.500000      1.3342767E-32
   6.510000      1.0611247E-32
   6.520000      7.6128254E-33
   6.530000      4.3441992E-33
   6.540000      8.0099489E-34
   6.550000     -3.0227079E-33
   6.560000     -7.1344565E-33
   6.570000     -1.1543238E-32
   6.580000     -1.6258982E-32
   6.590000     -2.1291895E-32
   6.600000     -2.6651651E-32
   6.610000     -3.2346319E-32
   6.620000     -3.8381498E-32
   6.630000     -4.4759566E-32
   6.640000     -5.1479159E-32
   6.650000     -5.8534934E-32
   6.660000     -6.5917632E-32
   6.670000     -7.3614452E-32
   6.680000     -8.1609612E-32
   6.690000     -8.9885063E-32
   6.700000     -9.8421244E-32
   6.710000     -1.0719775E-31
   6.720000     -1.1619382E-31
   6.730000     -1.2538865E-31
   6.740000     -1.3476123E-31
   6.750000     -1.4429009E-31
   6.760000     -1.5395259E-31
   6.770000     -1.6372416E-31
   6.780000     -1.7357733E-31
   6.790000     -1.8348080E-31
   6.800000     -1.9339860E-31
   6.810000     -2.0328950E-31
   6.820000     -2.1310662E-31
   6.830000     -2.2279739E-31
   6.840000     -2.3230387E-31
   6.850000     -2.4156313E-31
   6.860000     -2.5050819E-31
   6.870000     -2.5906878E-31
   6.880000     -2.6717207E-31
   6.890000     -2.7474348E-31
   6.900000     -2.8170717E-31
   6.910000     -2.8798641E-31
   6.920000     -2.9350338E-31
   6.930000     -2.9817912E-31
   6.940000     -3.0193287E-31
   6.950000     -3.0468151E-31
   6.960000     -3.0633876E-31
   6.970000     -3.0681477E-31
   6.980000     -3.0601553E-31
   6.990000     -3.0384277E-31
   7.000000     -3.0019403E-31
   7.010000     -2.9496332E-31
   7.020000     -2.8804161E-31
   7.030000     -2.7931803E-31
   7.040000     -2.6868122E-31
   7.050000     -2.5602027E-31
   7.060000     -2.4122583E-31