  -2.600000      0.0000000E+00
  -2.590000      0.0000000E+00
  -2.580000      0.0000000E+00
  -2.570000      0.0000000E+00
  -2.560000      0.0000000E+00
  -2.550000      0.0000000E+00
  -2.540000      0.0000000E+00
  -2.530000      0.0000000E+00
  -2.520000      0.0000000E+00
  -2.510000      0.0000000E+00
  -2.500000      0.0000000E+00
  -2.490000      0.0000000E+00
  -2.480000      0.0000000E+00
  -2.470000      0.0000000E+00
  -2.460000      0.0000000E+00
  -2.450000      0.0000000E+00
  -2.440000      0.0000000E+00
  -2.430000      0.0000000E+00
  -2.420000      0.0000000E+00
  -2.410000      0.0000000E+00
  -2.400000      0.0000000E+00
  -2.390000      0.0000000E+00
  -2.380000      0.0000000E+00
  -2.370000      0.0000000E+00
  -2.360000      0.0000000E+00
  -2.350000      0.0000000E+00
  -2.340000      0.0000000E+00
  -2.330000      0.0000000E+00
  -2.320000      0.0000000E+00
  -2.310000      0.0000000E+00
  -2.300000      0.0000000E+00
  -2.290000      0.0000000E+00
  -2.280000      0.0000000E+00
  -2.270000      0.0000000E+00
  -2.260000      0.0000000E+00
  -2.250000      0.0000000E+00
  -2.240000      0.0000000E+00
  -2.230000      0.0000000E+00
  -2.220000      0.0000000E+00
  -2.210000      0.0000000E+00
  -2.200000      0.0000000E+00
  -2.190000      0.0000000E+00
  -2.180000      0.0000000E+00
  -2.170000      0.0000000E+00
  -2.160000      0.0000000E+00
  -2.150000      0.0000000E+00
  -2.140000      0.0000000E+00
  -2.130000      0.0000000E+00
  -2.120000      0.0000000E+00
  -2.110000      0.0000000E+00
  -2.100000      0.0000000E+00
  -2.090000      0.0000000E+00
  -2.080000      0.0000000E+00
  -2.070000      0.0000000E+00
  -2.060000      0.0000000E+00
  -2.050000      0.0000000E+00
  -2.040000      0.0000000E+00
  -2.030000      0.0000000E+00
  -2.020000      0.0000000E+00
  -2.010000      0.0000000E+00
  -2.000000      0.0000000E+00
  -1.990000      0.0000000E+00
  -1.980000      0.0000000E+00
  -1.970000      0.0000000E+00
  -1.960000      0.0000000E+00
  -1.950000      0.0000000E+00
  -1.940000      0.0000000E+00
  -1.930000      0.0000000E+00
  -1.920000      0.0000000E+00
  -1.910000      0.0000000E+00
  -1.900000      0.0000000E+00
  -1.890000      0.0000000E+00
  -1.880000      0.0000000E+00
  -1.870000      0.0000000E+00
  -1.860000      0.0000000E+00
  -1.850000      0.0000000E+00
  -1.840000      0.0000000E+00
  -1.830000      0.0000000E+00
  -1.820000      0.0000000E+00
  -1.810000      0.0000000E+00
  -1.800000      0.0000000E+00
  -1.790000      0.0000000E+00
  -1.780000      0.0000000E+00
  -1.770000      0.0000000E+00
  -1.760000      0.0000000E+00
  -1.750000      0.0000000E+00
  -1.740000      0.0000000E+00
  -1.730000      0.0000000E+00
  -1.720000      0.0000000E+00
  -1.710000      0.0000000E+00
  -1.700000      0.0000000E+00
  -1.690000      0.0000000E+00
  -1.680000      0.0000000E+00
  -1.670000      0.0000000E+00
  -1.660000      0.0000000E+00
  -1.650000      0.0000000E+00
  -1.640000      0.0000000E+00
  -1.630000      0.0000000E+00
  -1.620000      0.0000000E+00
  -1.610000      0.0000000E+00
  -1.600000      0.0000000E+00
  -1.590000      0.0000000E+00
  -1.580000      0.0000000E+00
  -1.570000      0.0000000E+00
  -1.560000      0.0000000E+00
  -1.550000      0.0000000E+00
  -1.540000      0.0000000E+00
  -1.530000      0.0000000E+00
  -1.520000      0.0000000E+00
  -1.510000      0.0000000E+00
  -1.500000      0.0000000E+00
  -1.490000      0.0000000E+00
  -1.480000      0.0000000E+00
  -1.470000      0.0000000E+00
  -1.460000      0.0000000E+00
  -1.450000      0.0000000E+00
  -1.440000      0.0000000E+00
  -1.430000      0.0000000E+00
  -1.420000      0.0000000E+00
  -1.410000      0.0000000E+00
  -1.400000      0.0000000E+00
  -1.390000      0.0000000E+00
  -1.380000      0.0000000E+00
  -1.370000      0.0000000E+00
  -1.360000      0.0000000E+00
  -1.350000      0.0000000E+00
  -1.340000      0.0000000E+00
  -1.330000      0.0000000E+00
  -1.320000      0.0000000E+00
  -1.310000      0.0000000E+00
  -1.300000      0.0000000E+00
  -1.290000      0.0000000E+00
  -1.280000      0.0000000E+00
  -1.270000      0.0000000E+00
  -1.260000      0.0000000E+00
  -1.250000      0.0000000E+00
  -1.240000      0.0000000E+00
  -1.230000      0.0000000E+00
  -1.220000      0.0000000E+00
  -1.210000      0.0000000E+00
  -1.200000      0.0000000E+00
  -1.190000      0.0000000E+00
  -1.180000      0.0000000E+00
  -1.170000      0.0000000E+00
  -1.160000      0.0000000E+00
  -1.150000      0.0000000E+00
  -1.140000      0.0000000E+00
  -1.130000      0.0000000E+00
  -1.120000      0.0000000E+00
  -1.110000      0.0000000E+00
  -1.100000      0.0000000E+00
  -1.090000      0.0000000E+00
  -1.080000      0.0000000E+00
  -1.070000      0.0000000E+00
  -1.060000      0.0000000E+00
  -1.050000      0.0000000E+00
  -1.040000      0.0000000E+00
  -1.030000      0.0000000E+00
  -1.020000      0.0000000E+00
  -1.010000      0.0000000E+00
  -1.000000      0.0000000E+00
 -0.9900000      0.0000000E+00
 -0.9800000      0.0000000E+00
 -0.9700000      0.0000000E+00
 -0.9600000      0.0000000E+00
 -0.9500000      0.0000000E+00
 -0.9400000      0.0000000E+00
 -0.9300000      0.0000000E+00
 -0.9200000      0.0000000E+00
 -0.9100000      0.0000000E+00
 -0.9000000      0.0000000E+00
 -0.8900000      0.0000000E+00
 -0.8800000      0.0000000E+00
 -0.8700000      0.0000000E+00
 -0.8600000      0.0000000E+00
 -0.8500000      0.0000000E+00
 -0.8400000      0.0000000E+00
 -0.8300000      0.0000000E+00
 -0.8200000      0.0000000E+00
 -0.8100000      0.0000000E+00
 -0.8000000      0.0000000E+00
 -0.7900000      0.0000000E+00
 -0.7800000      0.0000000E+00
 -0.7700000      0.0000000E+00
 -0.7600000      0.0000000E+00
 -0.7500000      0.0000000E+00
 -0.7400000      0.0000000E+00
 -0.7300000      0.0000000E+00
 -0.7200000      0.0000000E+00
 -0.7100000      0.0000000E+00
 -0.7000000      0.0000000E+00
 -0.6900000      0.0000000E+00
 -0.6800000      0.0000000E+00
 -0.6700000      0.0000000E+00
 -0.6600000      0.0000000E+00
 -0.6500000      0.0000000E+00
 -0.6400000      0.0000000E+00
 -0.6300000      0.0000000E+00
 -0.6200000      0.0000000E+00
 -0.6100000      0.0000000E+00
 -0.6000000      0.0000000E+00
 -0.5900000      0.0000000E+00
 -0.5800000      0.0000000E+00
 -0.5700000      0.0000000E+00
 -0.5600000      0.0000000E+00
 -0.5500000      0.0000000E+00
 -0.5400000      0.0000000E+00
 -0.5300000      0.0000000E+00
 -0.5200000      0.0000000E+00
 -0.5100000      0.0000000E+00
 -0.5000000      0.0000000E+00
 -0.4900000      0.0000000E+00
 -0.4800000      0.0000000E+00
 -0.4700000      0.0000000E+00
 -0.4600000      0.0000000E+00
 -0.4500000      0.0000000E+00
 -0.4400000      0.0000000E+00
 -0.4300000      0.0000000E+00
 -0.4200000      0.0000000E+00
 -0.4100000      0.0000000E+00
 -0.4000000      0.0000000E+00
 -0.3900000      0.0000000E+00
 -0.3800000      0.0000000E+00
 -0.3700000      0.0000000E+00
 -0.3600000      0.0000000E+00
 -0.3500000      0.0000000E+00
 -0.3400000      0.0000000E+00
 -0.3300000      0.0000000E+00
 -0.3200000      0.0000000E+00
 -0.3100000      0.0000000E+00
 -0.3000000      0.0000000E+00
 -0.2900000      0.0000000E+00
 -0.2800000      0.0000000E+00
 -0.2700000      0.0000000E+00
 -0.2600000      0.0000000E+00
 -0.2500000      0.0000000E+00
 -0.2400000      0.0000000E+00
 -0.2300000      0.0000000E+00
 -0.2200000      0.0000000E+00
 -0.2100000      0.0000000E+00
 -0.2000000      0.0000000E+00
 -0.1900000      0.0000000E+00
 -0.1800000      0.0000000E+00
 -0.1700000      0.0000000E+00
 -0.1600000      0.0000000E+00
 -0.1500000      0.0000000E+00
 -0.1400000      0.0000000E+00
 -0.1300000      0.0000000E+00
 -0.1200000      0.0000000E+00
 -0.1100000      0.0000000E+00
 -0.1000000      0.0000000E+00
 -9.0000004E-02  0.0000000E+00
 -7.9999998E-02  0.0000000E+00
 -7.0000000E-02  0.0000000E+00
 -5.9999999E-02  0.0000000E+00
 -5.0000001E-02  0.0000000E+00
 -3.9999999E-02  0.0000000E+00
 -2.9999999E-02  0.0000000E+00
 -2.0000000E-02  0.0000000E+00
 -9.9999998E-03  0.0000000E+00
 -3.4694470E-17  0.0000000E+00
  9.9999998E-03  0.0000000E+00
  2.0000000E-02  0.0000000E+00
  2.9999999E-02  0.0000000E+00
  3.9999999E-02  0.0000000E+00
  5.0000001E-02  0.0000000E+00
  5.9999999E-02  0.0000000E+00
  7.0000000E-02  0.0000000E+00
  7.9999998E-02  0.0000000E+00
  9.0000004E-02  0.0000000E+00
  0.1000000      0.0000000E+00
  0.1100000      0.0000000E+00
  0.1200000      0.0000000E+00
  0.1300000      0.0000000E+00
  0.1400000      0.0000000E+00
  0.1500000      0.0000000E+00
  0.1600000      0.0000000E+00
  0.1700000      0.0000000E+00
  0.1800000      0.0000000E+00
  0.1900000      0.0000000E+00
  0.2000000      0.0000000E+00
  0.2100000      0.0000000E+00
  0.2200000      0.0000000E+00
  0.2300000      0.0000000E+00
  0.2400000      0.0000000E+00
  0.2500000      0.0000000E+00
  0.2600000      0.0000000E+00
  0.2700000      0.0000000E+00
  0.2800000      0.0000000E+00
  0.2900000      0.0000000E+00
  0.3000000      0.0000000E+00
  0.3100000      0.0000000E+00
  0.3200000      0.0000000E+00
  0.3300000      0.0000000E+00
  0.3400000      0.0000000E+00
  0.3500000      0.0000000E+00
  0.3600000      0.0000000E+00
  0.3700000      0.0000000E+00
  0.3800000      0.0000000E+00
  0.3900000      0.0000000E+00
  0.4000000      0.0000000E+00
  0.4100000      0.0000000E+00
  0.4200000      0.0000000E+00
  0.4300000      0.0000000E+00
  0.4400000      0.0000000E+00
  0.4500000      0.0000000E+00
  0.4600000      0.0000000E+00
  0.4700000      0.0000000E+00
  0.4800000      0.0000000E+00
  0.4900000      0.0000000E+00
  0.5000000      0.0000000E+00
  0.5100000      0.0000000E+00
  0.5200000      0.0000000E+00
  0.5300000      0.0000000E+00
  0.5400000      0.0000000E+00
  0.5500000      0.0000000E+00
  0.5600000      0.0000000E+00
  0.5700000      0.0000000E+00
  0.5800000      0.0000000E+00
  0.5900000      0.0000000E+00
  0.6000000      0.0000000E+00
  0.6100000      0.0000000E+00
  0.6200000      0.0000000E+00
  0.6300000      0.0000000E+00
  0.6400000      0.0000000E+00
  0.6500000      0.0000000E+00
  0.6600000      0.0000000E+00
  0.6700000      0.0000000E+00
  0.6800000      0.0000000E+00
  0.6900000      0.0000000E+00
  0.7000000      0.0000000E+00
  0.7100000      0.0000000E+00
  0.7200000      0.0000000E+00
  0.7300000      0.0000000E+00
  0.7400000      0.0000000E+00
  0.7500000      0.0000000E+00
  0.7600000      0.0000000E+00
  0.7700000      0.0000000E+00
  0.7800000      0.0000000E+00
  0.7900000      0.0000000E+00
  0.8000000      0.0000000E+00
  0.8100000      0.0000000E+00
  0.8200000      0.0000000E+00
  0.8300000      0.0000000E+00
  0.8400000      0.0000000E+00
  0.8500000      0.0000000E+00
  0.8600000      0.0000000E+00
  0.8700000      0.0000000E+00
  0.8800000      0.0000000E+00
  0.8900000      0.0000000E+00
  0.9000000      0.0000000E+00
  0.9100000      0.0000000E+00
  0.9200000      0.0000000E+00
  0.9300000      0.0000000E+00
  0.9400000      0.0000000E+00
  0.9500000      0.0000000E+00
  0.9600000      0.0000000E+00
  0.9700000      0.0000000E+00
  0.9800000      0.0000000E+00
  0.9900000      0.0000000E+00
   1.000000      0.0000000E+00
   1.010000      0.0000000E+00
   1.020000      0.0000000E+00
   1.030000      0.0000000E+00
   1.040000      0.0000000E+00
   1.050000      0.0000000E+00
   1.060000      0.0000000E+00
   1.070000      0.0000000E+00
   1.080000      0.0000000E+00
   1.090000      0.0000000E+00
   1.100000      0.0000000E+00
   1.110000      0.0000000E+00
   1.120000      0.0000000E+00
   1.130000      0.0000000E+00
   1.140000      0.0000000E+00
   1.150000      0.0000000E+00
   1.160000      0.0000000E+00
   1.170000      0.0000000E+00
   1.180000      0.0000000E+00
   1.190000      0.0000000E+00
   1.200000      0.0000000E+00
   1.210000      0.0000000E+00
   1.220000      0.0000000E+00
   1.230000      0.0000000E+00
   1.240000      0.0000000E+00
   1.250000      0.0000000E+00
   1.260000      0.0000000E+00
   1.270000      0.0000000E+00
   1.280000      0.0000000E+00
   1.290000      0.0000000E+00
   1.300000      0.0000000E+00
   1.310000      0.0000000E+00
   1.320000      0.0000000E+00
   1.330000      0.0000000E+00
   1.340000      0.0000000E+00
   1.350000      0.0000000E+00
   1.360000      0.0000000E+00
   1.370000      0.0000000E+00
   1.380000      0.0000000E+00
   1.390000      0.0000000E+00
   1.400000      0.0000000E+00
   1.410000      0.0000000E+00
   1.420000      0.0000000E+00
   1.430000      0.0000000E+00
   1.440000      0.0000000E+00
   1.450000      0.0000000E+00
   1.460000      0.0000000E+00
   1.470000      0.0000000E+00
   1.480000      0.0000000E+00
   1.490000      0.0000000E+00
   1.500000      0.0000000E+00
   1.510000      0.0000000E+00
   1.520000      0.0000000E+00
   1.530000      0.0000000E+00
   1.540000      0.0000000E+00
   1.550000      0.0000000E+00
   1.560000      0.0000000E+00
   1.570000      0.0000000E+00
   1.580000      0.0000000E+00
   1.590000      0.0000000E+00
   1.600000      0.0000000E+00
   1.610000      0.0000000E+00
   1.620000      0.0000000E+00
   1.630000      0.0000000E+00
   1.640000      0.0000000E+00
   1.650000      0.0000000E+00
   1.660000      0.0000000E+00
   1.670000      0.0000000E+00
   1.680000      0.0000000E+00
   1.690000      0.0000000E+00
   1.700000      0.0000000E+00
   1.710000      0.0000000E+00
   1.720000      0.0000000E+00
   1.730000      0.0000000E+00
   1.740000      0.0000000E+00
   1.750000      0.0000000E+00
   1.760000      0.0000000E+00
   1.770000      0.0000000E+00
   1.780000      0.0000000E+00
   1.790000      0.0000000E+00
   1.800000      0.0000000E+00
   1.810000      0.0000000E+00
   1.820000      0.0000000E+00
   1.830000      0.0000000E+00
   1.840000      0.0000000E+00
   1.850000      0.0000000E+00
   1.860000      0.0000000E+00
   1.870000      0.0000000E+00
   1.880000      0.0000000E+00
   1.890000      0.0000000E+00
   1.900000      0.0000000E+00
   1.910000      0.0000000E+00
   1.920000      0.0000000E+00
   1.930000      0.0000000E+00
   1.940000      0.0000000E+00
   1.950000      0.0000000E+00
   1.960000      0.0000000E+00
   1.970000      0.0000000E+00
   1.980000      0.0000000E+00
   1.990000      0.0000000E+00
   2.000000      0.0000000E+00
   2.010000      0.0000000E+00
   2.020000      0.0000000E+00
   2.030000      0.0000000E+00
   2.040000      0.0000000E+00
   2.050000      0.0000000E+00
   2.060000      0.0000000E+00
   2.070000      0.0000000E+00
   2.080000      0.0000000E+00
   2.090000      0.0000000E+00
   2.100000      0.0000000E+00
   2.110000      0.0000000E+00
   2.120000      0.0000000E+00
   2.130000      0.0000000E+00
   2.140000      0.0000000E+00
   2.150000      0.0000000E+00
   2.160000      0.0000000E+00
   2.170000      0.0000000E+00
   2.180000      0.0000000E+00
   2.190000      0.0000000E+00
   2.200000      0.0000000E+00
   2.210000      0.0000000E+00
   2.220000      0.0000000E+00
   2.230000      0.0000000E+00
   2.240000      0.0000000E+00
   2.250000      0.0000000E+00
   2.260000      0.0000000E+00
   2.270000      0.0000000E+00
   2.280000      0.0000000E+00
   2.290000      0.0000000E+00
   2.300000      0.0000000E+00
   2.310000      0.0000000E+00
   2.320000      0.0000000E+00
   2.330000      0.0000000E+00
   2.340000      0.0000000E+00
   2.350000      0.0000000E+00
   2.360000      0.0000000E+00
   2.370000      0.0000000E+00
   2.380000      0.0000000E+00
   2.390000      0.0000000E+00
   2.400000      0.0000000E+00
   2.410000      0.0000000E+00
   2.420000      0.0000000E+00
   2.430000      0.0000000E+00
   2.440000      0.0000000E+00
   2.450000      0.0000000E+00
   2.460000      0.0000000E+00
   2.470000      0.0000000E+00
   2.480000      0.0000000E+00
   2.490000      0.0000000E+00
   2.500000      0.0000000E+00
   2.510000      0.0000000E+00
   2.520000      0.0000000E+00
   2.530000      0.0000000E+00
   2.540000      0.0000000E+00
   2.550000      0.0000000E+00
   2.560000      0.0000000E+00
   2.570000      0.0000000E+00
   2.580000      0.0000000E+00
   2.590000      0.0000000E+00
   2.600000      0.0000000E+00
   2.610000      0.0000000E+00
   2.620000      0.0000000E+00
   2.630000      0.0000000E+00
   2.640000      0.0000000E+00
   2.650000      0.0000000E+00
   2.660000      0.0000000E+00
   2.670000      0.0000000E+00
   2.680000      0.0000000E+00
   2.690000      0.0000000E+00
   2.700000      0.0000000E+00
   2.710000      0.0000000E+00
   2.720000      0.0000000E+00
   2.730000      0.0000000E+00
   2.740000      0.0000000E+00
   2.750000      0.0000000E+00
   2.760000      0.0000000E+00
   2.770000      0.0000000E+00
   2.780000      0.0000000E+00
   2.790000      0.0000000E+00
   2.800000      0.0000000E+00
   2.810000      0.0000000E+00
   2.820000      0.0000000E+00
   2.830000      0.0000000E+00
   2.840000      0.0000000E+00
   2.850000      0.0000000E+00
   2.860000      0.0000000E+00
   2.870000      0.0000000E+00
   2.880000      0.0000000E+00
   2.890000      0.0000000E+00
   2.900000      0.0000000E+00
   2.910000      0.0000000E+00
   2.920000      0.0000000E+00
   2.930000      0.0000000E+00
   2.940000      0.0000000E+00
   2.950000      0.0000000E+00
   2.960000      0.0000000E+00
   2.970000      0.0000000E+00
   2.980000      0.0000000E+00
   2.990000      0.0000000E+00
   3.000000      0.0000000E+00
   3.010000      0.0000000E+00
   3.020000      0.0000000E+00
   3.030000      0.0000000E+00
   3.040000      0.0000000E+00
   3.050000      0.0000000E+00
   3.060000      0.0000000E+00
   3.070000      0.0000000E+00
   3.080000      0.0000000E+00
   3.090000      0.0000000E+00
   3.100000      0.0000000E+00
   3.110000      0.0000000E+00
   3.120000      0.0000000E+00
   3.130000      0.0000000E+00
   3.140000      0.0000000E+00
   3.150000      0.0000000E+00
   3.160000      0.0000000E+00
   3.170000      0.0000000E+00
   3.180000      0.0000000E+00
   3.190000      0.0000000E+00
   3.200000      0.0000000E+00
   3.210000      0.0000000E+00
   3.220000      0.0000000E+00
   3.230000      0.0000000E+00
   3.240000      0.0000000E+00
   3.250000      0.0000000E+00
   3.260000      0.0000000E+00
   3.270000      0.0000000E+00
   3.280000      0.0000000E+00
   3.290000      0.0000000E+00
   3.300000      0.0000000E+00
   3.310000      0.0000000E+00
   3.320000      0.0000000E+00
   3.330000      0.0000000E+00
   3.340000      0.0000000E+00
   3.350000      0.0000000E+00
   3.360000      0.0000000E+00
   3.370000      0.0000000E+00
   3.380000      0.0000000E+00
   3.390000      1.3075663E-38
   3.400000      1.5172670E-38
   3.410000      1.5269518E-38
   3.420000      1.4071367E-38
   3.430000      1.2511318E-38
   3.440000      0.0000000E+00
   3.450000      0.0000000E+00
   3.460000      0.0000000E+00
   3.470000      0.0000000E+00
   3.480000      0.0000000E+00
   3.490000      0.0000000E+00
   3.500000      0.0000000E+00
   3.510000     -1.2815634E-38
   3.520000     -1.6910678E-38
   3.530000     -2.0175217E-38
   3.540000     -2.1037129E-38
   3.550000     -2.0591513E-38
   3.560000     -1.8963752E-38
   3.570000     -1.6470219E-38
   3.580000     -1.5205404E-38
   3.590000     -1.4465593E-38
   3.600000     -1.3106792E-38
   3.610000     -1.3394059E-38
   3.620000     -1.6921147E-38
   3.630000     -2.2739377E-38
   3.640000     -3.0071518E-38
   3.650000     -3.7953894E-38
   3.660000     -4.7278852E-38
   3.670000     -5.8309688E-38
   3.680000     -6.6447056E-38
   3.690000     -7.1938964E-38
   3.700000     -7.7752458E-38
   3.710000     -8.3783674E-38
   3.720000     -8.9980379E-38
   3.730000     -9.4439367E-38
   3.740000     -9.7028910E-38
   3.750000     -9.9271997E-38
   3.760000     -1.0169400E-37
   3.770000     -1.0562519E-37
   3.780000     -1.1082122E-37
   3.790000     -1.1733108E-37
   3.800000     -1.2350672E-37
   3.810000     -1.2842425E-37
   3.820000     -1.3245988E-37
   3.830000     -1.3624947E-37
   3.840000     -1.4110753E-37
   3.850000     -1.4774939E-37
   3.860000     -1.5333617E-37
   3.870000     -1.5480229E-37
   3.880000     -1.5265397E-37
   3.890000     -1.4472522E-37
   3.900000     -1.3106606E-37
   3.910000     -1.1911317E-37
   3.920000     -1.1294988E-37
   3.930000     -1.0609302E-37
   3.940000     -9.3526224E-38
   3.950000     -7.5705189E-38
   3.960000     -4.9276823E-38
   3.970000      0.0000000E+00
   3.980000      6.0811516E-38
   3.990000      1.2594617E-37
   4.000000      1.9940233E-37
   4.010000      2.7285720E-37
   4.020000      3.4810635E-37
   4.030000      4.3631941E-37
   4.040000      5.2482452E-37
   4.050000      5.8495516E-37
   4.060000      6.1434185E-37
   4.070000      6.3589014E-37
   4.080000      6.6405117E-37
   4.090000      6.9353754E-37
   4.100000      7.4420428E-37
   4.110000      8.2149371E-37
   4.120000      8.2846810E-37
   4.130000      7.4048781E-37
   4.140000      6.4157650E-37
   4.150000      5.4667344E-37
   4.160000      4.5247488E-37
   4.170000      3.7535885E-37
   4.180000      3.0467699E-37
   4.190000      3.1753282E-37
   4.200000      4.1273441E-37
   4.210000      5.0561521E-37
   4.220000      6.1358447E-37
   4.230000      7.1695245E-37
   4.240000      7.8252937E-37
   4.250000      9.4661438E-37
   4.260000      1.2459606E-36
   4.270000      1.6749892E-36
   4.280000      2.2135802E-36
   4.290000      2.7622458E-36
   4.300000      3.3153048E-36
   4.310000      3.7958010E-36
   4.320000      4.1636890E-36
   4.330000      4.3746273E-36
   4.340000      4.4309038E-36
   4.350000      4.4299391E-36
   4.360000      4.3847285E-36
   4.370000      4.3632433E-36
   4.380000      4.2259589E-36
   4.390000      4.0121508E-36
   4.400000      3.8978070E-36
   4.410000      3.7828648E-36
   4.420000      3.5561316E-36
   4.430000      3.1794694E-36
   4.440000      2.6978573E-36
   4.450000      2.2339088E-36
   4.460000      1.8325203E-36
   4.470000      1.3890407E-36
   4.480000      9.7080828E-37
   4.490000      5.8082772E-37
   4.500000      9.4553118E-38
   4.510000     -4.9815362E-37
   4.520000     -1.0873393E-36
   4.530000     -1.6582696E-36
   4.540000     -2.2855801E-36
   4.550000     -2.9494973E-36
   4.560000     -3.7190639E-36
   4.570000     -4.5551059E-36
   4.580000     -5.3748916E-36
   4.590000     -6.1529955E-36
   4.600000     -6.8821743E-36
   4.610000     -7.6362399E-36
   4.620000     -8.5555304E-36
   4.630000     -9.5536352E-36
   4.640000     -1.0503786E-35
   4.650000     -1.1665014E-35
   4.660000     -1.3131482E-35
   4.670000     -1.4761211E-35
   4.680000     -1.6405629E-35
   4.690000     -1.7934286E-35
   4.700000     -1.9531272E-35
   4.710000     -2.1447256E-35
   4.720000     -2.3477050E-35
   4.730000     -2.5938325E-35
   4.740000     -2.8575820E-35
   4.750000     -3.0967945E-35
   4.760000     -3.3644072E-35
   4.770000     -3.6185283E-35
   4.780000     -3.7949937E-35
   4.790000     -3.9071639E-35
   4.800000     -4.0004107E-35
   4.810000     -4.0813617E-35
   4.820000     -4.1100744E-35
   4.830000     -4.1127663E-35
   4.840000     -4.1114014E-35
   4.850000     -4.1025941E-35
   4.860000     -4.0963278E-35
   4.870000     -4.0694865E-35
   4.880000     -4.0076617E-35
   4.890000     -3.9598906E-35
   4.900000     -3.9377104E-35
   4.910000     -3.9008740E-35
   4.920000     -3.8172727E-35
   4.930000     -3.6841916E-35
   4.940000     -3.4768497E-35
   4.950000     -3.2008266E-35
   4.960000     -2.8878630E-35
   4.970000     -2.4891434E-35
   4.980000     -1.9004412E-35
   4.990000     -1.1220251E-35
   5.000000     -2.8220203E-36
   5.010000      6.1050473E-36
   5.020000      1.5368235E-35
   5.030000      2.0773392E-35
   5.040000      2.2112875E-35
   5.050000      2.2901118E-35
   5.060000      2.4749379E-35
   5.070000      2.7159570E-35
   5.080000      3.1757621E-35
   5.090000      3.8188259E-35
   5.100000      5.1321710E-35
   5.110000      7.3162143E-35
   5.120000      9.7037277E-35
   5.130000      1.2264303E-34
   5.140000      1.4964350E-34
   5.150000      1.7145618E-34
   5.160000      1.8715986E-34
   5.170000      2.0262605E-34
   5.180000      2.1675753E-34
   5.190000      2.2917934E-34
   5.200000      2.4253396E-34
   5.210000      2.5823161E-34
   5.220000      2.7503884E-34
   5.230000      2.9255132E-34
   5.240000      3.1033678E-34
   5.250000      3.2766813E-34
   5.260000      3.4387551E-34
   5.270000      3.6088969E-34
   5.280000      3.7825539E-34
   5.290000      3.9489080E-34
   5.300000      4.1165169E-34
   5.310000      4.2722020E-34
   5.320000      4.4110825E-34
   5.330000      4.5343418E-34
   5.340000      4.6260391E-34
   5.350000      4.6627425E-34
   5.360000      4.6721143E-34
   5.370000      4.6622957E-34
   5.380000      4.6079525E-34
   5.390000      4.5158911E-34
   5.400000      4.3873710E-34
   5.410000      4.1976844E-34
   5.420000      3.9334305E-34
   5.430000      3.6411826E-34
   5.440000      3.2947759E-34
   5.450000      2.8842122E-34
   5.460000      2.4258195E-34
   5.470000      1.8944142E-34
   5.480000      1.3460720E-34
   5.490000      7.9072939E-35
   5.500000      1.7832477E-35
   5.510000     -4.6221339E-35
   5.520000     -1.1279736E-34
   5.530000     -1.8364679E-34
   5.540000     -2.5970415E-34
   5.550000     -3.4276515E-34
   5.560000     -4.3207765E-34
   5.570000     -5.2724306E-34
   5.580000     -6.2831619E-34
   5.590000     -7.3569219E-34
   5.600000     -8.4782466E-34
   5.610000     -9.6815506E-34
   5.620000     -1.0965345E-33
   5.630000     -1.2331433E-33
   5.640000     -1.3761756E-33
   5.650000     -1.5223713E-33
   5.660000     -1.6764719E-33
   5.670000     -1.8399578E-33
   5.680000     -2.0084689E-33
   5.690000     -2.1779614E-33
   5.700000     -2.3503714E-33
   5.710000     -2.5264672E-33
   5.720000     -2.7034662E-33
   5.730000     -2.8796638E-33
   5.740000     -3.0544833E-33
   5.750000     -3.2266240E-33
   5.760000     -3.3941999E-33
   5.770000     -3.5527734E-33
   5.780000     -3.7031334E-33
   5.790000     -3.8515686E-33
   5.800000     -3.9935055E-33
   5.810000     -4.1251539E-33
   5.820000     -4.2450870E-33
   5.830000     -4.3503911E-33
   5.840000     -4.4416179E-33
   5.850000     -4.5175313E-33
   5.860000     -4.5759251E-33
   5.870000     -4.6151513E-33
   5.880000     -4.6338138E-33
   5.890000     -4.6303949E-33
   5.900000     -4.6035492E-33
   5.910000     -4.5514205E-33
   5.920000     -4.4723325E-33
   5.930000     -4.3648662E-33
   5.940000     -4.2269010E-33
   5.950000     -4.0566597E-33
   5.960000     -3.8520241E-33
   5.970000     -3.6106576E-33
   5.980000     -3.3307893E-33
   5.990000     -3.0103626E-33
   6.000000     -2.6474611E-33
   6.010000     -2.2397869E-33
   6.020000     -1.7851535E-33
   6.030000     -1.2816899E-33
   6.040000     -7.2743714E-34
   6.050000     -1.2052952E-34
   6.060000      5.4058625E-34
   6.070000      1.2572721E-33
   6.080000      2.0309389E-33
   6.090000      2.8626988E-33
   6.100000      3.7532892E-33
   6.110000      4.7034490E-33
   6.120000      5.7133254E-33
   6.130000      6.7824408E-33
   6.140000      7.9107500E-33
   6.150000      9.0976717E-33
   6.160000      1.0341848E-32
   6.170000      1.1641789E-32
   6.180000      1.2995459E-32
   6.190000      1.4400404E-32
   6.200000      1.5853832E-32
   6.210000      1.7352451E-32
   6.220000      1.8892504E-32
   6.230000      2.0469785E-32
   6.240000      2.2079641E-32
   6.250000      2.3716946E-32
   6.260000      2.5376117E-32
   6.270000      2.7051117E-32
   6.280000      2.8735430E-32
   6.290000      3.0422088E-32
   6.300000      3.2103632E-32
   6.310000      3.3772076E-32
   6.320000      3.5419017E-32
   6.330000      3.7035363E-32
   6.340000      3.8611445E-32
   6.350000      4.0136003E-32
   6.360000      4.1599158E-32
   6.370000      4.2993394E-32
   6.380000      4.4304814E-32
   6.390000      4.5516669E-32
   6.400000      4.6616565E-32
   6.410000      4.7591946E-32
   6.420000      4.8428248E-32
   6.430000      4.9110361E-32
   6.440000      4.9622654E-32
   6.450000      4.9948806E-32
   6.460000      5.0072027E-32
   6.470000      4.9975084E-32
   6.480000      4.9640304E-32
   6.490000      4.9049659E-32
   6.500000      4.8184801E-32
   6.510000      4.7027150E-32
   6.520000      4.5557962E-32
   6.530000      4.3758418E-32
   6.540000      4.1609917E-32
   6.550000      3.9093516E-32
   6.560000      3.6190471E-32
   6.570000      3.2882918E-32
   6.580000      2.9153006E-32
   6.590000      2.4983410E-32
   6.600000      2.0357715E-32
   6.610000      1.5260171E-32
   6.620000      9.6759591E-33
   6.630000      3.5912987E-33
   6.640000     -3.0064113E-33
   6.650000     -1.0128477E-32
   6.660000     -1.7784795E-32
   6.670000     -2.5983691E-32
   6.680000     -3.4731814E-32
   6.690000     -4.4033992E-32
   6.700000     -5.3893101E-32
   6.710000     -6.4309868E-32
   6.720000     -7.5282755E-32
   6.730000     -8.6807860E-32
   6.740000     -9.8878659E-32
   6.750000     -1.1148584E-31
   6.760000     -1.2461714E-31
   6.770000     -1.3825721E-31
   6.780000     -1.5238736E-31
   6.790000     -1.6698538E-31
   6.800000     -1.8202536E-31
   6.810000     -1.9747753E-31
   6.820000     -2.1330800E-31
   6.830000     -2.2947864E-31
   6.840000     -2.4594683E-31
   6.850000     -2.6266536E-31
   6.860000     -2.7958219E-31
   6.870000     -2.9664033E-31
   6.880000     -3.1377765E-31
   6.890000     -3.3092682E-31
   6.900000     -3.4801509E-31
   6.910000     -3.6496429E-31
   6.920000     -3.8169056E-31
   6.930000     -3.9810444E-31
   6.940000     -4.1411072E-31
   6.950000     -4.2960844E-31
   6.960000     -4.4449085E-31
   6.970000     -4.5864559E-31
   6.980000     -4.7195459E-31
   6.990000     -4.8429422E-31
   7.000000     -4.9553533E-31
   7.010000     -5.0554354E-31
   7.020000     -5.1417928E-31
   7.030000     -5.2129817E-31
   7.040000     -5.2675120E-31
   7.050000     -5.3038498E-31
   7.060000     -5.3204205E-31