  -2.600000      0.0000000E+00
  -2.590000      0.0000000E+00
  -2.580000      0.0000000E+00
  -2.570000      0.0000000E+00
  -2.560000      0.0000000E+00
  -2.550000      0.0000000E+00
  -2.540000      0.0000000E+00
  -2.530000      0.0000000E+00
  -2.520000      0.0000000E+00
  -2.510000      0.0000000E+00
  -2.500000      0.0000000E+00
  -2.490000      0.0000000E+00
  -2.480000      0.0000000E+00
  -2.470000      0.0000000E+00
  -2.460000      0.0000000E+00
  -2.450000      0.0000000E+00
  -2.440000      0.0000000E+00
  -2.430000      0.0000000E+00
  -2.420000      0.0000000E+00
  -2.410000      0.0000000E+00
  -2.400000      0.0000000E+00
  -2.390000      0.0000000E+00
  -2.380000      0.0000000E+00
  -2.370000      0.0000000E+00
  -2.360000      0.0000000E+00
  -2.350000      0.0000000E+00
  -2.340000      0.0000000E+00
  -2.330000      0.0000000E+00
  -2.320000      0.0000000E+00
  -2.310000      0.0000000E+00
  -2.300000      0.0000000E+00
  -2.290000      0.0000000E+00
  -2.280000      0.0000000E+00
  -2.270000      0.0000000E+00
  -2.260000      0.0000000E+00
  -2.250000      0.0000000E+00
  -2.240000      0.0000000E+00
  -2.230000      0.0000000E+00
  -2.220000      0.0000000E+00
  -2.210000      0.0000000E+00
  -2.200000      0.0000000E+00
  -2.190000      0.0000000E+00
  -2.180000      0.0000000E+00
  -2.170000      0.0000000E+00
  -2.160000      0.0000000E+00
  -2.150000      0.0000000E+00
  -2.140000      0.0000000E+00
  -2.130000      0.0000000E+00
  -2.120000      0.0000000E+00
  -2.110000      0.0000000E+00
  -2.100000      0.0000000E+00
  -2.090000      0.0000000E+00
  -2.080000      0.0000000E+00
  -2.070000      0.0000000E+00
  -2.060000      0.0000000E+00
  -2.050000      0.0000000E+00
  -2.040000      0.0000000E+00
  -2.030000      0.0000000E+00
  -2.020000      0.0000000E+00
  -2.010000      0.0000000E+00
  -2.000000      0.0000000E+00
  -1.990000      0.0000000E+00
  -1.980000      0.0000000E+00
  -1.970000      0.0000000E+00
  -1.960000      0.0000000E+00
  -1.950000      0.0000000E+00
  -1.940000      0.0000000E+00
  -1.930000      0.0000000E+00
  -1.920000      0.0000000E+00
  -1.910000      0.0000000E+00
  -1.900000      0.0000000E+00
  -1.890000      0.0000000E+00
  -1.880000      0.0000000E+00
  -1.870000      0.0000000E+00
  -1.860000      0.0000000E+00
  -1.850000      0.0000000E+00
  -1.840000      0.0000000E+00
  -1.830000      0.0000000E+00
  -1.820000      0.0000000E+00
  -1.810000      0.0000000E+00
  -1.800000      0.0000000E+00
  -1.790000      0.0000000E+00
  -1.780000      0.0000000E+00
  -1.770000      0.0000000E+00
  -1.760000      0.0000000E+00
  -1.750000      0.0000000E+00
  -1.740000      0.0000000E+00
  -1.730000      0.0000000E+00
  -1.720000      0.0000000E+00
  -1.710000      0.0000000E+00
  -1.700000      0.0000000E+00
  -1.690000      0.0000000E+00
  -1.680000      0.0000000E+00
  -1.670000      0.0000000E+00
  -1.660000      0.0000000E+00
  -1.650000      0.0000000E+00
  -1.640000      0.0000000E+00
  -1.630000      0.0000000E+00
  -1.620000      0.0000000E+00
  -1.610000      0.0000000E+00
  -1.600000      0.0000000E+00
  -1.590000      0.0000000E+00
  -1.580000      0.0000000E+00
  -1.570000      0.0000000E+00
  -1.560000      0.0000000E+00
  -1.550000      0.0000000E+00
  -1.540000      0.0000000E+00
  -1.530000      0.0000000E+00
  -1.520000      0.0000000E+00
  -1.510000      0.0000000E+00
  -1.500000      0.0000000E+00
  -1.490000      0.0000000E+00
  -1.480000      0.0000000E+00
  -1.470000      0.0000000E+00
  -1.460000      0.0000000E+00
  -1.450000      0.0000000E+00
  -1.440000      0.0000000E+00
  -1.430000      0.0000000E+00
  -1.420000      0.0000000E+00
  -1.410000      0.0000000E+00
  -1.400000      0.0000000E+00
  -1.390000      0.0000000E+00
  -1.380000      0.0000000E+00
  -1.370000      0.0000000E+00
  -1.360000      0.0000000E+00
  -1.350000      0.0000000E+00
  -1.340000      0.0000000E+00
  -1.330000      0.0000000E+00
  -1.320000      0.0000000E+00
  -1.310000      0.0000000E+00
  -1.300000      0.0000000E+00
  -1.290000      0.0000000E+00
  -1.280000      0.0000000E+00
  -1.270000      0.0000000E+00
  -1.260000      0.0000000E+00
  -1.250000      0.0000000E+00
  -1.240000      0.0000000E+00
  -1.230000      0.0000000E+00
  -1.220000      0.0000000E+00
  -1.210000      0.0000000E+00
  -1.200000      0.0000000E+00
  -1.190000      0.0000000E+00
  -1.180000      0.0000000E+00
  -1.170000      0.0000000E+00
  -1.160000      0.0000000E+00
  -1.150000      0.0000000E+00
  -1.140000      0.0000000E+00
  -1.130000      0.0000000E+00
  -1.120000      0.0000000E+00
  -1.110000      0.0000000E+00
  -1.100000      0.0000000E+00
  -1.090000      0.0000000E+00
  -1.080000      0.0000000E+00
  -1.070000      0.0000000E+00
  -1.060000      0.0000000E+00
  -1.050000      0.0000000E+00
  -1.040000      0.0000000E+00
  -1.030000      0.0000000E+00
  -1.020000      0.0000000E+00
  -1.010000      0.0000000E+00
  -1.000000      0.0000000E+00
 -0.9900000      0.0000000E+00
 -0.9800000      0.0000000E+00
 -0.9700000      0.0000000E+00
 -0.9600000      0.0000000E+00
 -0.9500000      0.0000000E+00
 -0.9400000      0.0000000E+00
 -0.9300000      0.0000000E+00
 -0.9200000      0.0000000E+00
 -0.9100000      0.0000000E+00
 -0.9000000      0.0000000E+00
 -0.8900000      0.0000000E+00
 -0.8800000      0.0000000E+00
 -0.8700000      0.0000000E+00
 -0.8600000      0.0000000E+00
 -0.8500000      0.0000000E+00
 -0.8400000      0.0000000E+00
 -0.8300000      0.0000000E+00
 -0.8200000      0.0000000E+00
 -0.8100000      0.0000000E+00
 -0.8000000      0.0000000E+00
 -0.7900000      0.0000000E+00
 -0.7800000      0.0000000E+00
 -0.7700000      0.0000000E+00
 -0.7600000      0.0000000E+00
 -0.7500000      0.0000000E+00
 -0.7400000      0.0000000E+00
 -0.7300000      0.0000000E+00
 -0.7200000      0.0000000E+00
 -0.7100000      0.0000000E+00
 -0.7000000      0.0000000E+00
 -0.6900000      0.0000000E+00
 -0.6800000      0.0000000E+00
 -0.6700000      0.0000000E+00
 -0.6600000      0.0000000E+00
 -0.6500000      0.0000000E+00
 -0.6400000      0.0000000E+00
 -0.6300000      0.0000000E+00
 -0.6200000      0.0000000E+00
 -0.6100000      0.0000000E+00
 -0.6000000      0.0000000E+00
 -0.5900000      0.0000000E+00
 -0.5800000      0.0000000E+00
 -0.5700000      0.0000000E+00
 -0.5600000      0.0000000E+00
 -0.5500000      0.0000000E+00
 -0.5400000      0.0000000E+00
 -0.5300000      0.0000000E+00
 -0.5200000      0.0000000E+00
 -0.5100000      0.0000000E+00
 -0.5000000      0.0000000E+00
 -0.4900000      0.0000000E+00
 -0.4800000      0.0000000E+00
 -0.4700000      0.0000000E+00
 -0.4600000      0.0000000E+00
 -0.4500000      0.0000000E+00
 -0.4400000      0.0000000E+00
 -0.4300000      0.0000000E+00
 -0.4200000      0.0000000E+00
 -0.4100000      0.0000000E+00
 -0.4000000      0.0000000E+00
 -0.3900000      0.0000000E+00
 -0.3800000      0.0000000E+00
 -0.3700000      0.0000000E+00
 -0.3600000      0.0000000E+00
 -0.3500000      0.0000000E+00
 -0.3400000      0.0000000E+00
 -0.3300000      0.0000000E+00
 -0.3200000      0.0000000E+00
 -0.3100000      0.0000000E+00
 -0.3000000      0.0000000E+00
 -0.2900000      0.0000000E+00
 -0.2800000      0.0000000E+00
 -0.2700000      0.0000000E+00
 -0.2600000      0.0000000E+00
 -0.2500000      0.0000000E+00
 -0.2400000      0.0000000E+00
 -0.2300000      0.0000000E+00
 -0.2200000      0.0000000E+00
 -0.2100000      0.0000000E+00
 -0.2000000      0.0000000E+00
 -0.1900000      0.0000000E+00
 -0.1800000      0.0000000E+00
 -0.1700000      0.0000000E+00
 -0.1600000      0.0000000E+00
 -0.1500000      0.0000000E+00
 -0.1400000      0.0000000E+00
 -0.1300000      0.0000000E+00
 -0.1200000      0.0000000E+00
 -0.1100000      0.0000000E+00
 -0.1000000      0.0000000E+00
 -9.0000004E-02  0.0000000E+00
 -7.9999998E-02  0.0000000E+00
 -7.0000000E-02  0.0000000E+00
 -5.9999999E-02  0.0000000E+00
 -5.0000001E-02  0.0000000E+00
 -3.9999999E-02  0.0000000E+00
 -2.9999999E-02  0.0000000E+00
 -2.0000000E-02  0.0000000E+00
 -9.9999998E-03  0.0000000E+00
 -3.4694470E-17  0.0000000E+00
  9.9999998E-03  0.0000000E+00
  2.0000000E-02  0.0000000E+00
  2.9999999E-02  0.0000000E+00
  3.9999999E-02  0.0000000E+00
  5.0000001E-02  0.0000000E+00
  5.9999999E-02  0.0000000E+00
  7.0000000E-02  0.0000000E+00
  7.9999998E-02  0.0000000E+00
  9.0000004E-02  0.0000000E+00
  0.1000000      0.0000000E+00
  0.1100000      0.0000000E+00
  0.1200000      0.0000000E+00
  0.1300000      0.0000000E+00
  0.1400000      0.0000000E+00
  0.1500000      0.0000000E+00
  0.1600000      0.0000000E+00
  0.1700000      0.0000000E+00
  0.1800000      0.0000000E+00
  0.1900000      0.0000000E+00
  0.2000000      0.0000000E+00
  0.2100000      0.0000000E+00
  0.2200000      0.0000000E+00
  0.2300000      0.0000000E+00
  0.2400000      0.0000000E+00
  0.2500000      0.0000000E+00
  0.2600000      0.0000000E+00
  0.2700000      0.0000000E+00
  0.2800000      0.0000000E+00
  0.2900000      0.0000000E+00
  0.3000000      0.0000000E+00
  0.3100000      0.0000000E+00
  0.3200000      0.0000000E+00
  0.3300000      0.0000000E+00
  0.3400000      0.0000000E+00
  0.3500000      0.0000000E+00
  0.3600000      0.0000000E+00
  0.3700000      0.0000000E+00
  0.3800000      0.0000000E+00
  0.3900000      0.0000000E+00
  0.4000000      0.0000000E+00
  0.4100000      0.0000000E+00
  0.4200000      0.0000000E+00
  0.4300000      0.0000000E+00
  0.4400000      0.0000000E+00
  0.4500000      0.0000000E+00
  0.4600000      0.0000000E+00
  0.4700000      0.0000000E+00
  0.4800000      0.0000000E+00
  0.4900000      0.0000000E+00
  0.5000000      0.0000000E+00
  0.5100000      0.0000000E+00
  0.5200000      0.0000000E+00
  0.5300000      0.0000000E+00
  0.5400000      0.0000000E+00
  0.5500000      0.0000000E+00
  0.5600000      0.0000000E+00
  0.5700000      0.0000000E+00
  0.5800000      0.0000000E+00
  0.5900000      0.0000000E+00
  0.6000000      0.0000000E+00
  0.6100000      0.0000000E+00
  0.6200000      0.0000000E+00
  0.6300000      0.0000000E+00
  0.6400000      0.0000000E+00
  0.6500000      0.0000000E+00
  0.6600000      0.0000000E+00
  0.6700000      0.0000000E+00
  0.6800000      0.0000000E+00
  0.6900000      0.0000000E+00
  0.7000000      0.0000000E+00
  0.7100000      0.0000000E+00
  0.7200000      0.0000000E+00
  0.7300000      0.0000000E+00
  0.7400000      0.0000000E+00
  0.7500000      0.0000000E+00
  0.7600000      0.0000000E+00
  0.7700000      0.0000000E+00
  0.7800000      0.0000000E+00
  0.7900000      0.0000000E+00
  0.8000000      0.0000000E+00
  0.8100000      0.0000000E+00
  0.8200000      0.0000000E+00
  0.8300000      0.0000000E+00
  0.8400000      0.0000000E+00
  0.8500000      0.0000000E+00
  0.8600000      0.0000000E+00
  0.8700000      0.0000000E+00
  0.8800000      0.0000000E+00
  0.8900000      0.0000000E+00
  0.9000000      0.0000000E+00
  0.9100000      0.0000000E+00
  0.9200000      0.0000000E+00
  0.9300000      0.0000000E+00
  0.9400000      0.0000000E+00
  0.9500000      0.0000000E+00
  0.9600000      0.0000000E+00
  0.9700000      0.0000000E+00
  0.9800000      0.0000000E+00
  0.9900000      0.0000000E+00
   1.000000      0.0000000E+00
   1.010000      0.0000000E+00
   1.020000      0.0000000E+00
   1.030000      0.0000000E+00
   1.040000      0.0000000E+00
   1.050000      0.0000000E+00
   1.060000      0.0000000E+00
   1.070000      0.0000000E+00
   1.080000      0.0000000E+00
   1.090000      0.0000000E+00
   1.100000      0.0000000E+00
   1.110000      0.0000000E+00
   1.120000      0.0000000E+00
   1.130000      0.0000000E+00
   1.140000      0.0000000E+00
   1.150000      0.0000000E+00
   1.160000      0.0000000E+00
   1.170000      0.0000000E+00
   1.180000      0.0000000E+00
   1.190000      0.0000000E+00
   1.200000      0.0000000E+00
   1.210000      0.0000000E+00
   1.220000      0.0000000E+00
   1.230000      0.0000000E+00
   1.240000      0.0000000E+00
   1.250000      0.0000000E+00
   1.260000      0.0000000E+00
   1.270000      0.0000000E+00
   1.280000      0.0000000E+00
   1.290000      0.0000000E+00
   1.300000      0.0000000E+00
   1.310000      0.0000000E+00
   1.320000      0.0000000E+00
   1.330000      0.0000000E+00
   1.340000      0.0000000E+00
   1.350000      0.0000000E+00
   1.360000      0.0000000E+00
   1.370000      0.0000000E+00
   1.380000      0.0000000E+00
   1.390000      0.0000000E+00
   1.400000      0.0000000E+00
   1.410000      0.0000000E+00
   1.420000      0.0000000E+00
   1.430000      0.0000000E+00
   1.440000      0.0000000E+00
   1.450000      0.0000000E+00
   1.460000      0.0000000E+00
   1.470000      0.0000000E+00
   1.480000      0.0000000E+00
   1.490000      0.0000000E+00
   1.500000      0.0000000E+00
   1.510000      0.0000000E+00
   1.520000      0.0000000E+00
   1.530000      0.0000000E+00
   1.540000      0.0000000E+00
   1.550000      0.0000000E+00
   1.560000      0.0000000E+00
   1.570000      0.0000000E+00
   1.580000      0.0000000E+00
   1.590000      0.0000000E+00
   1.600000      0.0000000E+00
   1.610000      0.0000000E+00
   1.620000      0.0000000E+00
   1.630000      0.0000000E+00
   1.640000      0.0000000E+00
   1.650000      0.0000000E+00
   1.660000      0.0000000E+00
   1.670000      0.0000000E+00
   1.680000      0.0000000E+00
   1.690000      0.0000000E+00
   1.700000      0.0000000E+00
   1.710000      0.0000000E+00
   1.720000      0.0000000E+00
   1.730000      0.0000000E+00
   1.740000      0.0000000E+00
   1.750000      0.0000000E+00
   1.760000      0.0000000E+00
   1.770000      0.0000000E+00
   1.780000      0.0000000E+00
   1.790000      0.0000000E+00
   1.800000      0.0000000E+00
   1.810000      0.0000000E+00
   1.820000      0.0000000E+00
   1.830000      0.0000000E+00
   1.840000      0.0000000E+00
   1.850000      0.0000000E+00
   1.860000      0.0000000E+00
   1.870000      0.0000000E+00
   1.880000      0.0000000E+00
   1.890000      0.0000000E+00
   1.900000      0.0000000E+00
   1.910000      0.0000000E+00
   1.920000      0.0000000E+00
   1.930000      0.0000000E+00
   1.940000      0.0000000E+00
   1.950000      0.0000000E+00
   1.960000      0.0000000E+00
   1.970000      0.0000000E+00
   1.980000      0.0000000E+00
   1.990000      0.0000000E+00
   2.000000      0.0000000E+00
   2.010000      0.0000000E+00
   2.020000      0.0000000E+00
   2.030000      0.0000000E+00
   2.040000      0.0000000E+00
   2.050000      0.0000000E+00
   2.060000      0.0000000E+00
   2.070000      0.0000000E+00
   2.080000      0.0000000E+00
   2.090000      0.0000000E+00
   2.100000      0.0000000E+00
   2.110000      0.0000000E+00
   2.120000      0.0000000E+00
   2.130000      0.0000000E+00
   2.140000      0.0000000E+00
   2.150000      0.0000000E+00
   2.160000      0.0000000E+00
   2.170000      0.0000000E+00
   2.180000      0.0000000E+00
   2.190000      0.0000000E+00
   2.200000      0.0000000E+00
   2.210000      0.0000000E+00
   2.220000      0.0000000E+00
   2.230000      0.0000000E+00
   2.240000      0.0000000E+00
   2.250000      0.0000000E+00
   2.260000      0.0000000E+00
   2.270000      0.0000000E+00
   2.280000      0.0000000E+00
   2.290000      0.0000000E+00
   2.300000      0.0000000E+00
   2.310000      0.0000000E+00
   2.320000      0.0000000E+00
   2.330000      0.0000000E+00
   2.340000      0.0000000E+00
   2.350000      0.0000000E+00
   2.360000      0.0000000E+00
   2.370000      0.0000000E+00
   2.380000      0.0000000E+00
   2.390000      0.0000000E+00
   2.400000      0.0000000E+00
   2.410000      0.0000000E+00
   2.420000      0.0000000E+00
   2.430000      0.0000000E+00
   2.440000      0.0000000E+00
   2.450000      0.0000000E+00
   2.460000      0.0000000E+00
   2.470000      0.0000000E+00
   2.480000      0.0000000E+00
   2.490000      0.0000000E+00
   2.500000      0.0000000E+00
   2.510000      0.0000000E+00
   2.520000      0.0000000E+00
   2.530000      0.0000000E+00
   2.540000      0.0000000E+00
   2.550000      0.0000000E+00
   2.560000      0.0000000E+00
   2.570000      0.0000000E+00
   2.580000      0.0000000E+00
   2.590000      0.0000000E+00
   2.600000      0.0000000E+00
   2.610000      0.0000000E+00
   2.620000      0.0000000E+00
   2.630000      0.0000000E+00
   2.640000      0.0000000E+00
   2.650000      0.0000000E+00
   2.660000      0.0000000E+00
   2.670000      0.0000000E+00
   2.680000      0.0000000E+00
   2.690000      0.0000000E+00
   2.700000      0.0000000E+00
   2.710000      0.0000000E+00
   2.720000      0.0000000E+00
   2.730000      0.0000000E+00
   2.740000      0.0000000E+00
   2.750000      0.0000000E+00
   2.760000      0.0000000E+00
   2.770000      0.0000000E+00
   2.780000      0.0000000E+00
   2.790000      0.0000000E+00
   2.800000      0.0000000E+00
   2.810000      0.0000000E+00
   2.820000      0.0000000E+00
   2.830000      0.0000000E+00
   2.840000      0.0000000E+00
   2.850000      0.0000000E+00
   2.860000      0.0000000E+00
   2.870000      0.0000000E+00
   2.880000      0.0000000E+00
   2.890000      0.0000000E+00
   2.900000      0.0000000E+00
   2.910000      0.0000000E+00
   2.920000      0.0000000E+00
   2.930000      0.0000000E+00
   2.940000      0.0000000E+00
   2.950000      0.0000000E+00
   2.960000      0.0000000E+00
   2.970000      0.0000000E+00
   2.980000      1.3230160E-38
   2.990000      1.8353532E-38
   3.000000      2.3606804E-38
   3.010000      2.1095698E-38
   3.020000      0.0000000E+00
   3.030000      0.0000000E+00
   3.040000     -2.3156055E-38
   3.050000     -3.9877022E-38
   3.060000     -5.5132188E-38
   3.070000     -6.7905119E-38
   3.080000     -7.7349562E-38
   3.090000     -7.6710088E-38
   3.100000     -6.8970038E-38
   3.110000     -6.2678270E-38
   3.120000     -5.6666845E-38
   3.130000     -5.2383255E-38
   3.140000     -5.0192224E-38
   3.150000     -4.7549302E-38
   3.160000     -6.3796994E-38
   3.170000     -9.8272176E-38
   3.180000     -1.2313044E-37
   3.190000     -1.4188645E-37
   3.200000     -1.6360186E-37
   3.210000     -1.8468946E-37
   3.220000     -1.9412118E-37
   3.230000     -1.9829629E-37
   3.240000     -2.0850494E-37
   3.250000     -2.2106660E-37
   3.260000     -2.4028262E-37
   3.270000     -2.5615321E-37
   3.280000     -2.6354400E-37
   3.290000     -2.7190883E-37
   3.300000     -2.6822216E-37
   3.310000     -2.4640179E-37
   3.320000     -1.9353681E-37
   3.330000     -1.1093907E-37
   3.340000     -2.1748738E-38
   3.350000      7.0554632E-38
   3.360000      1.6025425E-37
   3.370000      2.2283145E-37
   3.380000      2.5971175E-37
   3.390000      2.9466791E-37
   3.400000      3.3063283E-37
   3.410000      3.6562334E-37
   3.420000      3.9875511E-37
   3.430000      4.3267814E-37
   3.440000      4.6467846E-37
   3.450000      4.9243310E-37
   3.460000      5.1961551E-37
   3.470000      5.5396723E-37
   3.480000      5.9484945E-37
   3.490000      6.4158430E-37
   3.500000      6.9359705E-37
   3.510000      7.4784905E-37
   3.520000      8.0740620E-37
   3.530000      8.8355989E-37
   3.540000      9.4759201E-37
   3.550000      9.7783809E-37
   3.560000      1.0083277E-36
   3.570000      1.0467448E-36
   3.580000      1.1312322E-36
   3.590000      1.2566188E-36
   3.600000      1.3804793E-36
   3.610000      1.5147153E-36
   3.620000      1.5920510E-36
   3.630000      1.5888829E-36
   3.640000      1.5360009E-36
   3.650000      1.4491154E-36
   3.660000      1.3499341E-36
   3.670000      9.8748709E-37
   3.680000      4.5265120E-37
   3.690000      0.0000000E+00
   3.700000     -4.5449750E-37
   3.710000     -6.4374956E-37
   3.720000     -6.5961204E-37
   3.730000     -7.5078612E-37
   3.740000     -9.2563804E-37
   3.750000     -1.1608451E-36
   3.760000     -1.2933222E-36
   3.770000     -1.3754278E-36
   3.780000     -1.4940921E-36
   3.790000     -1.6085391E-36
   3.800000     -1.7778360E-36
   3.810000     -2.0501731E-36
   3.820000     -2.3010811E-36
   3.830000     -2.4702055E-36
   3.840000     -2.7849541E-36
   3.850000     -3.3277822E-36
   3.860000     -3.9861122E-36
   3.870000     -4.7535326E-36
   3.880000     -5.6073936E-36
   3.890000     -6.5534886E-36
   3.900000     -7.2147903E-36
   3.910000     -7.5111714E-36
   3.920000     -7.8536030E-36
   3.930000     -8.1186848E-36
   3.940000     -8.1322111E-36
   3.950000     -7.9209658E-36
   3.960000     -7.6561646E-36
   3.970000     -7.4741452E-36
   3.980000     -6.9617778E-36
   3.990000     -6.1013014E-36
   4.000000     -5.3634947E-36
   4.010000     -5.0467304E-36
   4.020000     -4.8387269E-36
   4.030000     -4.4687662E-36
   4.040000     -4.0838987E-36
   4.050000     -3.6073370E-36
   4.060000     -3.0729567E-36
   4.070000     -2.6204565E-36
   4.080000     -2.0669051E-36
   4.090000     -1.0010593E-36
   4.100000      5.7895146E-37
   4.110000      2.4625939E-36
   4.120000      4.5343769E-36
   4.130000      6.5609610E-36
   4.140000      8.5353833E-36
   4.150000      1.0657705E-35
   4.160000      1.2295658E-35
   4.170000      1.3319228E-35
   4.180000      1.4130889E-35
   4.190000      1.4687628E-35
   4.200000      1.5097664E-35
   4.210000      1.5611255E-35
   4.220000      1.6278130E-35
   4.230000      1.7348372E-35
   4.240000      1.9159152E-35
   4.250000      2.1584078E-35
   4.260000      2.4101973E-35
   4.270000      2.6095277E-35
   4.280000      2.7830044E-35
   4.290000      2.9308280E-35
   4.300000      3.0314917E-35
   4.310000      3.1221922E-35
   4.320000      3.2029710E-35
   4.330000      3.2900612E-35
   4.340000      3.4507113E-35
   4.350000      3.6652901E-35
   4.360000      3.8399558E-35
   4.370000      3.9648440E-35
   4.380000      4.0861946E-35
   4.390000      4.2088239E-35
   4.400000      4.2339401E-35
   4.410000      4.0244418E-35
   4.420000      3.6076676E-35
   4.430000      3.0449893E-35
   4.440000      2.3750104E-35
   4.450000      1.6811526E-35
   4.460000      1.0527594E-35
   4.470000      5.5162738E-36
   4.480000      2.0896699E-36
   4.490000      1.3386078E-37
   4.500000     -2.8295917E-36
   4.510000     -7.3087832E-36
   4.520000     -1.1566854E-35
   4.530000     -1.5867498E-35
   4.540000     -2.0367869E-35
   4.550000     -2.5397993E-35
   4.560000     -3.1826619E-35
   4.570000     -3.9339976E-35
   4.580000     -4.6646526E-35
   4.590000     -5.3861599E-35
   4.600000     -6.1506887E-35
   4.610000     -6.8543655E-35
   4.620000     -7.3607510E-35
   4.630000     -7.7954607E-35
   4.640000     -8.2766689E-35
   4.650000     -8.7654094E-35
   4.660000     -9.1750095E-35
   4.670000     -9.8845093E-35
   4.680000     -1.1059522E-34
   4.690000     -1.2251348E-34
   4.700000     -1.3724493E-34
   4.710000     -1.5888135E-34
   4.720000     -1.8291306E-34
   4.730000     -2.0605566E-34
   4.740000     -2.2501177E-34
   4.750000     -2.3828024E-34
   4.760000     -2.4163737E-34
   4.770000     -2.3694885E-34
   4.780000     -2.2673419E-34
   4.790000     -2.0739855E-34
   4.800000     -1.8562418E-34
   4.810000     -1.7102107E-34
   4.820000     -1.6649989E-34
   4.830000     -1.5675112E-34
   4.840000     -1.4090937E-34
   4.850000     -1.3842658E-34
   4.860000     -1.4436561E-34
   4.870000     -1.4414643E-34
   4.880000     -1.4723547E-34
   4.890000     -1.5551765E-34
   4.900000     -1.6108174E-34
   4.910000     -1.5106379E-34
   4.920000     -1.2437203E-34
   4.930000     -9.2626039E-35
   4.940000     -5.8062705E-35
   4.950000     -3.1856907E-35
   4.960000     -1.6124387E-35
   4.970000      1.4107496E-36
   4.980000      2.0689481E-35
   4.990000      4.4592734E-35
   5.000000      8.2999550E-35
   5.010000      1.2129081E-34
   5.020000      1.5445325E-34
   5.030000      1.8910551E-34
   5.040000      2.2388688E-34
   5.050000      2.6475643E-34
   5.060000      3.1178796E-34
   5.070000      3.6234685E-34
   5.080000      4.1579347E-34
   5.090000      4.7504794E-34
   5.100000      5.4620328E-34
   5.110000      6.3560591E-34
   5.120000      7.3645125E-34
   5.130000      8.3855745E-34
   5.140000      9.4363929E-34
   5.150000      1.0304415E-33
   5.160000      1.0880086E-33
   5.170000      1.1262055E-33
   5.180000      1.1472275E-33
   5.190000      1.1546905E-33
   5.200000      1.1540417E-33
   5.210000      1.1511430E-33
   5.220000      1.1460013E-33
   5.230000      1.1444318E-33
   5.240000      1.1542242E-33
   5.250000      1.1757317E-33
   5.260000      1.2080281E-33
   5.270000      1.2539873E-33
   5.280000      1.3078685E-33
   5.290000      1.3588641E-33
   5.300000      1.3968959E-33
   5.310000      1.4156811E-33
   5.320000      1.4167545E-33
   5.330000      1.3975734E-33
   5.340000      1.3571687E-33
   5.350000      1.2943954E-33
   5.360000      1.2083682E-33
   5.370000      1.1043163E-33
   5.380000      9.8923571E-34
   5.390000      8.7176654E-34
   5.400000      7.5875731E-34
   5.410000      6.5059544E-34
   5.420000      5.4948033E-34
   5.430000      4.5251468E-34
   5.440000      3.5370203E-34
   5.450000      2.5032735E-34
   5.460000      1.4233551E-34
   5.470000      1.9734035E-35
   5.480000     -1.1881982E-34
   5.490000     -2.7463589E-34
   5.500000     -4.6379685E-34
   5.510000     -6.9320624E-34
   5.520000     -9.5753951E-34
   5.530000     -1.2456560E-33
   5.540000     -1.5574780E-33
   5.550000     -1.8857431E-33
   5.560000     -2.2248374E-33
   5.570000     -2.5702270E-33
   5.580000     -2.9146338E-33
   5.590000     -3.2539417E-33
   5.600000     -3.5837010E-33
   5.610000     -3.9051377E-33
   5.620000     -4.2198003E-33
   5.630000     -4.5317776E-33
   5.640000     -4.8499431E-33
   5.650000     -5.1786598E-33
   5.660000     -5.5194371E-33
   5.670000     -5.8800648E-33
   5.680000     -6.2630457E-33
   5.690000     -6.6646291E-33
   5.700000     -7.0795484E-33
   5.710000     -7.5011277E-33
   5.720000     -7.9224918E-33
   5.730000     -8.3348199E-33
   5.740000     -8.7284783E-33
   5.750000     -9.0958761E-33
   5.760000     -9.4308839E-33
   5.770000     -9.7300685E-33
   5.780000     -9.9920414E-33
   5.790000     -1.0217334E-32
   5.800000     -1.0408177E-32
   5.810000     -1.0568272E-32
   5.820000     -1.0702816E-32
   5.830000     -1.0815156E-32
   5.840000     -1.0907413E-32
   5.850000     -1.0979285E-32
   5.860000     -1.1028240E-32
   5.870000     -1.1048689E-32
   5.880000     -1.1032322E-32
   5.890000     -1.0970853E-32
   5.900000     -1.0852787E-32
   5.910000     -1.0666846E-32
   5.920000     -1.0401200E-32
   5.930000     -1.0048331E-32
   5.940000     -9.6048159E-33
   5.950000     -9.0653779E-33
   5.960000     -8.4272064E-33
   5.970000     -7.6941285E-33
   5.980000     -6.8708431E-33
   5.990000     -5.9583678E-33
   6.000000     -4.9631524E-33
   6.010000     -3.8897439E-33
   6.020000     -2.7376466E-33
   6.030000     -1.5049781E-33
   6.040000     -1.8720744E-34
   6.050000      1.2213844E-33
   6.060000      2.7288872E-33
   6.070000      4.3445786E-33
   6.080000      6.0771438E-33
   6.090000      7.9344708E-33
   6.100000      9.9225300E-33
   6.110000      1.2044661E-32
   6.120000      1.4301080E-32
   6.130000      1.6688921E-32
   6.140000      1.9202489E-32
   6.150000      2.1833791E-32
   6.160000      2.4573088E-32
   6.170000      2.7410251E-32
   6.180000      3.0335718E-32
   6.190000      3.3340846E-32
   6.200000      3.6418652E-32
   6.210000      3.9564648E-32
   6.220000      4.2775878E-32
   6.230000      4.6050535E-32
   6.240000      4.9387890E-32
   6.250000      5.2786467E-32
   6.260000      5.6244113E-32
   6.270000      5.9756026E-32
   6.280000      6.3313730E-32
   6.290000      6.6905606E-32
   6.300000      7.0515890E-32
   6.310000      7.4125075E-32
   6.320000      7.7710468E-32
   6.330000      8.1247084E-32
   6.340000      8.4708439E-32
   6.350000      8.8067208E-32
   6.360000      9.1297149E-32
   6.370000      9.4373065E-32
   6.380000      9.7270853E-32
   6.390000      9.9968330E-32
   6.400000      1.0244464E-31
   6.410000      1.0467965E-31
   6.420000      1.0665311E-31
   6.430000      1.0834355E-31
   6.440000      1.0972741E-31
   6.450000      1.1077812E-31
   6.460000      1.1146563E-31
   6.470000      1.1175598E-31
   6.480000      1.1161143E-31
   6.490000      1.1099131E-31
   6.500000      1.0985243E-31
   6.510000      1.0815021E-31
   6.520000      1.0584017E-31
   6.530000      1.0287883E-31
   6.540000      9.9224677E-32
   6.550000      9.4838637E-32
   6.560000      8.9684788E-32
   6.570000      8.3730457E-32
   6.580000      7.6945691E-32
   6.590000      6.9302639E-32
   6.600000      6.0774774E-32
   6.610000      5.1336119E-32
   6.620000      4.0960450E-32
   6.630000      2.9620835E-32
   6.640000      1.7289493E-32
   6.650000      3.9379171E-33
   6.660000     -1.0462622E-32
   6.670000     -2.5939957E-32
   6.680000     -4.2519893E-32
   6.690000     -6.0224925E-32
   6.700000     -7.9072831E-32
   6.710000     -9.9075483E-32
   6.720000     -1.2023780E-31
   6.730000     -1.4255721E-31
   6.740000     -1.6602325E-31
   6.750000     -1.9061760E-31
   6.760000     -2.1631475E-31
   6.770000     -2.4308255E-31
   6.780000     -2.7088273E-31
   6.790000     -2.9967188E-31
   6.800000     -3.2940187E-31
   6.810000     -3.6002009E-31
   6.820000     -3.9146943E-31
   6.830000     -4.2368775E-31
   6.840000     -4.5660705E-31
   6.850000     -4.9015218E-31
   6.860000     -5.2424001E-31
   6.870000     -5.5877749E-31
   6.880000     -5.9366076E-31
   6.890000     -6.2877428E-31
   6.900000     -6.6398979E-31
   6.910000     -6.9916631E-31
   6.920000     -7.3415034E-31
   6.930000     -7.6877617E-31
   6.940000     -8.0286687E-31
   6.950000     -8.3623549E-31
   6.960000     -8.6868609E-31
   6.970000     -9.0001452E-31
   6.980000     -9.3000975E-31
   6.990000     -9.5845390E-31
   7.000000     -9.8512295E-31
   7.010000     -1.0097857E-30
   7.020000     -1.0322038E-30
   7.030000     -1.0521319E-30
   7.040000     -1.0693154E-30
   7.050000     -1.0834912E-30
   7.060000     -1.0943863E-30