  -2.600000      0.0000000E+00
  -2.590000      0.0000000E+00
  -2.580000      0.0000000E+00
  -2.570000      0.0000000E+00
  -2.560000      0.0000000E+00
  -2.550000      0.0000000E+00
  -2.540000      0.0000000E+00
  -2.530000      0.0000000E+00
  -2.520000      0.0000000E+00
  -2.510000      0.0000000E+00
  -2.500000      0.0000000E+00
  -2.490000      0.0000000E+00
  -2.480000      0.0000000E+00
  -2.470000      0.0000000E+00
  -2.460000      0.0000000E+00
  -2.450000      0.0000000E+00
  -2.440000      0.0000000E+00
  -2.430000      0.0000000E+00
  -2.420000      0.0000000E+00
  -2.410000      0.0000000E+00
  -2.400000      0.0000000E+00
  -2.390000      0.0000000E+00
  -2.380000      0.0000000E+00
  -2.370000      0.0000000E+00
  -2.360000      0.0000000E+00
  -2.350000      0.0000000E+00
  -2.340000      0.0000000E+00
  -2.330000      0.0000000E+00
  -2.320000      0.0000000E+00
  -2.310000      0.0000000E+00
  -2.300000      0.0000000E+00
  -2.290000      0.0000000E+00
  -2.280000      0.0000000E+00
  -2.270000      0.0000000E+00
  -2.260000      0.0000000E+00
  -2.250000      0.0000000E+00
  -2.240000      0.0000000E+00
  -2.230000      0.0000000E+00
  -2.220000      0.0000000E+00
  -2.210000      0.0000000E+00
  -2.200000      0.0000000E+00
  -2.190000      0.0000000E+00
  -2.180000      0.0000000E+00
  -2.170000      0.0000000E+00
  -2.160000      0.0000000E+00
  -2.150000      0.0000000E+00
  -2.140000      0.0000000E+00
  -2.130000      0.0000000E+00
  -2.120000      0.0000000E+00
  -2.110000      0.0000000E+00
  -2.100000      0.0000000E+00
  -2.090000      0.0000000E+00
  -2.080000      0.0000000E+00
  -2.070000      0.0000000E+00
  -2.060000      0.0000000E+00
  -2.050000      0.0000000E+00
  -2.040000      0.0000000E+00
  -2.030000      0.0000000E+00
  -2.020000      0.0000000E+00
  -2.010000      0.0000000E+00
  -2.000000      0.0000000E+00
  -1.990000      0.0000000E+00
  -1.980000      0.0000000E+00
  -1.970000      0.0000000E+00
  -1.960000      0.0000000E+00
  -1.950000      0.0000000E+00
  -1.940000      0.0000000E+00
  -1.930000      0.0000000E+00
  -1.920000      0.0000000E+00
  -1.910000      0.0000000E+00
  -1.900000      0.0000000E+00
  -1.890000      0.0000000E+00
  -1.880000      0.0000000E+00
  -1.870000      0.0000000E+00
  -1.860000      0.0000000E+00
  -1.850000      0.0000000E+00
  -1.840000      0.0000000E+00
  -1.830000      0.0000000E+00
  -1.820000      0.0000000E+00
  -1.810000      0.0000000E+00
  -1.800000      0.0000000E+00
  -1.790000      0.0000000E+00
  -1.780000      0.0000000E+00
  -1.770000      0.0000000E+00
  -1.760000      0.0000000E+00
  -1.750000      0.0000000E+00
  -1.740000      0.0000000E+00
  -1.730000      0.0000000E+00
  -1.720000      0.0000000E+00
  -1.710000      0.0000000E+00
  -1.700000      0.0000000E+00
  -1.690000      0.0000000E+00
  -1.680000      0.0000000E+00
  -1.670000      0.0000000E+00
  -1.660000      0.0000000E+00
  -1.650000      0.0000000E+00
  -1.640000      0.0000000E+00
  -1.630000      0.0000000E+00
  -1.620000      0.0000000E+00
  -1.610000      0.0000000E+00
  -1.600000      0.0000000E+00
  -1.590000      0.0000000E+00
  -1.580000      0.0000000E+00
  -1.570000      0.0000000E+00
  -1.560000      0.0000000E+00
  -1.550000      0.0000000E+00
  -1.540000      0.0000000E+00
  -1.530000      0.0000000E+00
  -1.520000      0.0000000E+00
  -1.510000      0.0000000E+00
  -1.500000      0.0000000E+00
  -1.490000      0.0000000E+00
  -1.480000      0.0000000E+00
  -1.470000      0.0000000E+00
  -1.460000      0.0000000E+00
  -1.450000      0.0000000E+00
  -1.440000      0.0000000E+00
  -1.430000      0.0000000E+00
  -1.420000      0.0000000E+00
  -1.410000      0.0000000E+00
  -1.400000      0.0000000E+00
  -1.390000      0.0000000E+00
  -1.380000      0.0000000E+00
  -1.370000      0.0000000E+00
  -1.360000      0.0000000E+00
  -1.350000      0.0000000E+00
  -1.340000      0.0000000E+00
  -1.330000      0.0000000E+00
  -1.320000      0.0000000E+00
  -1.310000      0.0000000E+00
  -1.300000      0.0000000E+00
  -1.290000      0.0000000E+00
  -1.280000      0.0000000E+00
  -1.270000      0.0000000E+00
  -1.260000      0.0000000E+00
  -1.250000      0.0000000E+00
  -1.240000      0.0000000E+00
  -1.230000      0.0000000E+00
  -1.220000      0.0000000E+00
  -1.210000      0.0000000E+00
  -1.200000      0.0000000E+00
  -1.190000      0.0000000E+00
  -1.180000      0.0000000E+00
  -1.170000      0.0000000E+00
  -1.160000      0.0000000E+00
  -1.150000      0.0000000E+00
  -1.140000      0.0000000E+00
  -1.130000      0.0000000E+00
  -1.120000      0.0000000E+00
  -1.110000      0.0000000E+00
  -1.100000      0.0000000E+00
  -1.090000      0.0000000E+00
  -1.080000      0.0000000E+00
  -1.070000      0.0000000E+00
  -1.060000      0.0000000E+00
  -1.050000      0.0000000E+00
  -1.040000      0.0000000E+00
  -1.030000      0.0000000E+00
  -1.020000      0.0000000E+00
  -1.010000      0.0000000E+00
  -1.000000      0.0000000E+00
 -0.9900000      0.0000000E+00
 -0.9800000      0.0000000E+00
 -0.9700000      0.0000000E+00
 -0.9600000      0.0000000E+00
 -0.9500000      0.0000000E+00
 -0.9400000      0.0000000E+00
 -0.9300000      0.0000000E+00
 -0.9200000      0.0000000E+00
 -0.9100000      0.0000000E+00
 -0.9000000      0.0000000E+00
 -0.8900000      0.0000000E+00
 -0.8800000      0.0000000E+00
 -0.8700000      0.0000000E+00
 -0.8600000      0.0000000E+00
 -0.8500000      0.0000000E+00
 -0.8400000      0.0000000E+00
 -0.8300000      0.0000000E+00
 -0.8200000      0.0000000E+00
 -0.8100000      0.0000000E+00
 -0.8000000      0.0000000E+00
 -0.7900000      0.0000000E+00
 -0.7800000      0.0000000E+00
 -0.7700000      0.0000000E+00
 -0.7600000      0.0000000E+00
 -0.7500000      0.0000000E+00
 -0.7400000      0.0000000E+00
 -0.7300000      0.0000000E+00
 -0.7200000      0.0000000E+00
 -0.7100000      0.0000000E+00
 -0.7000000      0.0000000E+00
 -0.6900000      0.0000000E+00
 -0.6800000      0.0000000E+00
 -0.6700000      0.0000000E+00
 -0.6600000      0.0000000E+00
 -0.6500000      0.0000000E+00
 -0.6400000      0.0000000E+00
 -0.6300000      0.0000000E+00
 -0.6200000      0.0000000E+00
 -0.6100000      0.0000000E+00
 -0.6000000      0.0000000E+00
 -0.5900000      0.0000000E+00
 -0.5800000      0.0000000E+00
 -0.5700000      0.0000000E+00
 -0.5600000      0.0000000E+00
 -0.5500000      0.0000000E+00
 -0.5400000      0.0000000E+00
 -0.5300000      0.0000000E+00
 -0.5200000      0.0000000E+00
 -0.5100000      0.0000000E+00
 -0.5000000      0.0000000E+00
 -0.4900000      0.0000000E+00
 -0.4800000      0.0000000E+00
 -0.4700000      0.0000000E+00
 -0.4600000      0.0000000E+00
 -0.4500000      0.0000000E+00
 -0.4400000      0.0000000E+00
 -0.4300000      0.0000000E+00
 -0.4200000      0.0000000E+00
 -0.4100000      0.0000000E+00
 -0.4000000      0.0000000E+00
 -0.3900000      0.0000000E+00
 -0.3800000      0.0000000E+00
 -0.3700000      0.0000000E+00
 -0.3600000      0.0000000E+00
 -0.3500000      0.0000000E+00
 -0.3400000      0.0000000E+00
 -0.3300000      0.0000000E+00
 -0.3200000      0.0000000E+00
 -0.3100000      0.0000000E+00
 -0.3000000      0.0000000E+00
 -0.2900000      0.0000000E+00
 -0.2800000      0.0000000E+00
 -0.2700000      0.0000000E+00
 -0.2600000      0.0000000E+00
 -0.2500000      0.0000000E+00
 -0.2400000      0.0000000E+00
 -0.2300000      0.0000000E+00
 -0.2200000      0.0000000E+00
 -0.2100000      0.0000000E+00
 -0.2000000      0.0000000E+00
 -0.1900000      0.0000000E+00
 -0.1800000      0.0000000E+00
 -0.1700000      0.0000000E+00
 -0.1600000      0.0000000E+00
 -0.1500000      0.0000000E+00
 -0.1400000      0.0000000E+00
 -0.1300000      0.0000000E+00
 -0.1200000      0.0000000E+00
 -0.1100000      0.0000000E+00
 -0.1000000      0.0000000E+00
 -9.0000004E-02  0.0000000E+00
 -7.9999998E-02  0.0000000E+00
 -7.0000000E-02  0.0000000E+00
 -5.9999999E-02  0.0000000E+00
 -5.0000001E-02  0.0000000E+00
 -3.9999999E-02  0.0000000E+00
 -2.9999999E-02  0.0000000E+00
 -2.0000000E-02  0.0000000E+00
 -9.9999998E-03  0.0000000E+00
 -3.4694470E-17  0.0000000E+00
  9.9999998E-03  0.0000000E+00
  2.0000000E-02  0.0000000E+00
  2.9999999E-02  0.0000000E+00
  3.9999999E-02  0.0000000E+00
  5.0000001E-02  0.0000000E+00
  5.9999999E-02  0.0000000E+00
  7.0000000E-02  0.0000000E+00
  7.9999998E-02  0.0000000E+00
  9.0000004E-02  0.0000000E+00
  0.1000000      0.0000000E+00
  0.1100000      0.0000000E+00
  0.1200000      0.0000000E+00
  0.1300000      0.0000000E+00
  0.1400000      0.0000000E+00
  0.1500000      0.0000000E+00
  0.1600000      0.0000000E+00
  0.1700000      0.0000000E+00
  0.1800000      0.0000000E+00
  0.1900000      0.0000000E+00
  0.2000000      0.0000000E+00
  0.2100000      0.0000000E+00
  0.2200000      0.0000000E+00
  0.2300000      0.0000000E+00
  0.2400000      0.0000000E+00
  0.2500000      0.0000000E+00
  0.2600000      0.0000000E+00
  0.2700000      0.0000000E+00
  0.2800000      0.0000000E+00
  0.2900000      0.0000000E+00
  0.3000000      0.0000000E+00
  0.3100000      0.0000000E+00
  0.3200000      0.0000000E+00
  0.3300000      0.0000000E+00
  0.3400000      0.0000000E+00
  0.3500000      0.0000000E+00
  0.3600000      0.0000000E+00
  0.3700000      0.0000000E+00
  0.3800000      0.0000000E+00
  0.3900000      0.0000000E+00
  0.4000000      0.0000000E+00
  0.4100000      0.0000000E+00
  0.4200000      0.0000000E+00
  0.4300000      0.0000000E+00
  0.4400000      0.0000000E+00
  0.4500000      0.0000000E+00
  0.4600000      0.0000000E+00
  0.4700000      0.0000000E+00
  0.4800000      0.0000000E+00
  0.4900000      0.0000000E+00
  0.5000000      0.0000000E+00
  0.5100000      0.0000000E+00
  0.5200000      0.0000000E+00
  0.5300000      0.0000000E+00
  0.5400000      0.0000000E+00
  0.5500000      0.0000000E+00
  0.5600000      0.0000000E+00
  0.5700000      0.0000000E+00
  0.5800000      0.0000000E+00
  0.5900000      0.0000000E+00
  0.6000000      0.0000000E+00
  0.6100000      0.0000000E+00
  0.6200000      0.0000000E+00
  0.6300000      0.0000000E+00
  0.6400000      0.0000000E+00
  0.6500000      0.0000000E+00
  0.6600000      0.0000000E+00
  0.6700000      0.0000000E+00
  0.6800000      0.0000000E+00
  0.6900000      0.0000000E+00
  0.7000000      0.0000000E+00
  0.7100000      0.0000000E+00
  0.7200000      0.0000000E+00
  0.7300000      0.0000000E+00
  0.7400000      0.0000000E+00
  0.7500000      0.0000000E+00
  0.7600000      0.0000000E+00
  0.7700000      0.0000000E+00
  0.7800000      0.0000000E+00
  0.7900000      0.0000000E+00
  0.8000000      0.0000000E+00
  0.8100000      0.0000000E+00
  0.8200000      0.0000000E+00
  0.8300000      0.0000000E+00
  0.8400000      0.0000000E+00
  0.8500000      0.0000000E+00
  0.8600000      0.0000000E+00
  0.8700000      0.0000000E+00
  0.8800000      0.0000000E+00
  0.8900000      0.0000000E+00
  0.9000000      0.0000000E+00
  0.9100000      0.0000000E+00
  0.9200000      0.0000000E+00
  0.9300000      0.0000000E+00
  0.9400000      0.0000000E+00
  0.9500000      0.0000000E+00
  0.9600000      0.0000000E+00
  0.9700000      0.0000000E+00
  0.9800000      0.0000000E+00
  0.9900000      0.0000000E+00
   1.000000      0.0000000E+00
   1.010000      0.0000000E+00
   1.020000      0.0000000E+00
   1.030000      0.0000000E+00
   1.040000      0.0000000E+00
   1.050000      0.0000000E+00
   1.060000      0.0000000E+00
   1.070000      0.0000000E+00
   1.080000      0.0000000E+00
   1.090000      0.0000000E+00
   1.100000      0.0000000E+00
   1.110000      0.0000000E+00
   1.120000      0.0000000E+00
   1.130000      0.0000000E+00
   1.140000      0.0000000E+00
   1.150000      0.0000000E+00
   1.160000      0.0000000E+00
   1.170000      0.0000000E+00
   1.180000      0.0000000E+00
   1.190000      0.0000000E+00
   1.200000      0.0000000E+00
   1.210000      0.0000000E+00
   1.220000      0.0000000E+00
   1.230000      0.0000000E+00
   1.240000      0.0000000E+00
   1.250000      0.0000000E+00
   1.260000      0.0000000E+00
   1.270000      0.0000000E+00
   1.280000      0.0000000E+00
   1.290000      0.0000000E+00
   1.300000      0.0000000E+00
   1.310000      0.0000000E+00
   1.320000      0.0000000E+00
   1.330000      0.0000000E+00
   1.340000      0.0000000E+00
   1.350000      0.0000000E+00
   1.360000      0.0000000E+00
   1.370000      0.0000000E+00
   1.380000      0.0000000E+00
   1.390000      0.0000000E+00
   1.400000      0.0000000E+00
   1.410000      0.0000000E+00
   1.420000      0.0000000E+00
   1.430000      0.0000000E+00
   1.440000      0.0000000E+00
   1.450000      0.0000000E+00
   1.460000      0.0000000E+00
   1.470000      0.0000000E+00
   1.480000      0.0000000E+00
   1.490000      0.0000000E+00
   1.500000      0.0000000E+00
   1.510000      0.0000000E+00
   1.520000      0.0000000E+00
   1.530000      0.0000000E+00
   1.540000      0.0000000E+00
   1.550000      0.0000000E+00
   1.560000      0.0000000E+00
   1.570000      0.0000000E+00
   1.580000      0.0000000E+00
   1.590000      0.0000000E+00
   1.600000      0.0000000E+00
   1.610000      0.0000000E+00
   1.620000      0.0000000E+00
   1.630000      0.0000000E+00
   1.640000      0.0000000E+00
   1.650000      0.0000000E+00
   1.660000      0.0000000E+00
   1.670000      0.0000000E+00
   1.680000      0.0000000E+00
   1.690000      0.0000000E+00
   1.700000      0.0000000E+00
   1.710000      0.0000000E+00
   1.720000      0.0000000E+00
   1.730000      0.0000000E+00
   1.740000      0.0000000E+00
   1.750000      0.0000000E+00
   1.760000      0.0000000E+00
   1.770000      0.0000000E+00
   1.780000      0.0000000E+00
   1.790000      0.0000000E+00
   1.800000      0.0000000E+00
   1.810000      0.0000000E+00
   1.820000      0.0000000E+00
   1.830000      0.0000000E+00
   1.840000      0.0000000E+00
   1.850000      0.0000000E+00
   1.860000      0.0000000E+00
   1.870000      0.0000000E+00
   1.880000      0.0000000E+00
   1.890000      0.0000000E+00
   1.900000      0.0000000E+00
   1.910000      0.0000000E+00
   1.920000      0.0000000E+00
   1.930000      0.0000000E+00
   1.940000      0.0000000E+00
   1.950000      0.0000000E+00
   1.960000      0.0000000E+00
   1.970000      0.0000000E+00
   1.980000      0.0000000E+00
   1.990000      0.0000000E+00
   2.000000      0.0000000E+00
   2.010000      0.0000000E+00
   2.020000      0.0000000E+00
   2.030000      0.0000000E+00
   2.040000      0.0000000E+00
   2.050000      0.0000000E+00
   2.060000      0.0000000E+00
   2.070000      0.0000000E+00
   2.080000      0.0000000E+00
   2.090000      0.0000000E+00
   2.100000      0.0000000E+00
   2.110000      0.0000000E+00
   2.120000      0.0000000E+00
   2.130000      0.0000000E+00
   2.140000      0.0000000E+00
   2.150000      0.0000000E+00
   2.160000      0.0000000E+00
   2.170000      0.0000000E+00
   2.180000      0.0000000E+00
   2.190000      0.0000000E+00
   2.200000      0.0000000E+00
   2.210000      0.0000000E+00
   2.220000      0.0000000E+00
   2.230000      0.0000000E+00
   2.240000      0.0000000E+00
   2.250000      0.0000000E+00
   2.260000      0.0000000E+00
   2.270000      0.0000000E+00
   2.280000      0.0000000E+00
   2.290000      0.0000000E+00
   2.300000      0.0000000E+00
   2.310000      0.0000000E+00
   2.320000      0.0000000E+00
   2.330000      0.0000000E+00
   2.340000      0.0000000E+00
   2.350000      0.0000000E+00
   2.360000      0.0000000E+00
   2.370000      0.0000000E+00
   2.380000      0.0000000E+00
   2.390000      0.0000000E+00
   2.400000      0.0000000E+00
   2.410000      0.0000000E+00
   2.420000      0.0000000E+00
   2.430000      0.0000000E+00
   2.440000      0.0000000E+00
   2.450000      0.0000000E+00
   2.460000      0.0000000E+00
   2.470000      0.0000000E+00
   2.480000      0.0000000E+00
   2.490000      0.0000000E+00
   2.500000      0.0000000E+00
   2.510000      0.0000000E+00
   2.520000      0.0000000E+00
   2.530000      0.0000000E+00
   2.540000      0.0000000E+00
   2.550000      0.0000000E+00
   2.560000      0.0000000E+00
   2.570000      0.0000000E+00
   2.580000      0.0000000E+00
   2.590000      0.0000000E+00
   2.600000      0.0000000E+00
   2.610000      0.0000000E+00
   2.620000      0.0000000E+00
   2.630000      0.0000000E+00
   2.640000      0.0000000E+00
   2.650000      0.0000000E+00
   2.660000      0.0000000E+00
   2.670000      0.0000000E+00
   2.680000      0.0000000E+00
   2.690000      0.0000000E+00
   2.700000      0.0000000E+00
   2.710000      0.0000000E+00
   2.720000      0.0000000E+00
   2.730000      0.0000000E+00
   2.740000      0.0000000E+00
   2.750000      0.0000000E+00
   2.760000      0.0000000E+00
   2.770000      0.0000000E+00
   2.780000      0.0000000E+00
   2.790000      0.0000000E+00
   2.800000      0.0000000E+00
   2.810000      0.0000000E+00
   2.820000      0.0000000E+00
   2.830000      0.0000000E+00
   2.840000      0.0000000E+00
   2.850000      0.0000000E+00
   2.860000      0.0000000E+00
   2.870000      0.0000000E+00
   2.880000      0.0000000E+00
   2.890000      0.0000000E+00
   2.900000      0.0000000E+00
   2.910000      0.0000000E+00
   2.920000     -1.1757033E-38
   2.930000     -1.3063525E-38
   2.940000     -1.4313339E-38
   2.950000     -1.5046351E-38
   2.960000     -1.5222885E-38
   2.970000     -1.5080927E-38
   2.980000     -1.4519337E-38
   2.990000     -1.3465294E-38
   3.000000      0.0000000E+00
   3.010000      0.0000000E+00
   3.020000      0.0000000E+00
   3.030000      0.0000000E+00
   3.040000      0.0000000E+00
   3.050000      0.0000000E+00
   3.060000      0.0000000E+00
   3.070000      0.0000000E+00
   3.080000      1.8650595E-38
   3.090000      3.1261408E-38
   3.100000      4.6276021E-38
   3.110000      6.2778620E-38
   3.120000      8.0056209E-38
   3.130000      9.7532727E-38
   3.140000      1.1254210E-37
   3.150000      1.2381832E-37
   3.160000      1.3265911E-37
   3.170000      1.4010257E-37
   3.180000      1.4786179E-37
   3.190000      1.5579157E-37
   3.200000      1.6143926E-37
   3.210000      1.6464823E-37
   3.220000      1.6578428E-37
   3.230000      1.6373091E-37
   3.240000      1.5612029E-37
   3.250000      1.4408804E-37
   3.260000      1.3153498E-37
   3.270000      1.1997891E-37
   3.280000      1.0558518E-37
   3.290000      8.6580834E-38
   3.300000      6.6670491E-38
   3.310000      4.8330313E-38
   3.320000      3.2300950E-38
   3.330000      1.7774546E-38
   3.340000      0.0000000E+00
   3.350000     -1.7392729E-38
   3.360000     -3.6739179E-38
   3.370000     -5.5036149E-38
   3.380000     -7.3874504E-38
   3.390000     -9.2024453E-38
   3.400000     -1.1153286E-37
   3.410000     -1.3276193E-37
   3.420000     -1.5733377E-37
   3.430000     -1.8409470E-37
   3.440000     -2.1170160E-37
   3.450000     -2.4137016E-37
   3.460000     -2.7331345E-37
   3.470000     -3.0874065E-37
   3.480000     -3.4913295E-37
   3.490000     -3.9483053E-37
   3.500000     -4.4368118E-37
   3.510000     -4.8984897E-37
   3.520000     -5.3344872E-37
   3.530000     -5.8002138E-37
   3.540000     -6.3232761E-37
   3.550000     -6.8934638E-37
   3.560000     -7.4763443E-37
   3.570000     -8.0012689E-37
   3.580000     -8.4796323E-37
   3.590000     -8.9505700E-37
   3.600000     -9.3175012E-37
   3.610000     -9.5863093E-37
   3.620000     -9.8019029E-37
   3.630000     -9.9708193E-37
   3.640000     -1.0038754E-36
   3.650000     -9.9341192E-37
   3.660000     -9.5921952E-37
   3.670000     -8.9539456E-37
   3.680000     -8.0308419E-37
   3.690000     -6.9391502E-37
   3.700000     -5.6444351E-37
   3.710000     -4.0362041E-37
   3.720000     -2.2161315E-37
   3.730000     -2.6132938E-38
   3.740000      1.8877403E-37
   3.750000      4.2278049E-37
   3.760000      6.7351695E-37
   3.770000      9.4724072E-37
   3.780000      1.2176517E-36
   3.790000      1.4730130E-36
   3.800000      1.7362683E-36
   3.810000      1.9936677E-36
   3.820000      2.2306309E-36
   3.830000      2.4618189E-36
   3.840000      2.6860430E-36
   3.850000      2.9030752E-36
   3.860000      3.1041542E-36
   3.870000      3.2793372E-36
   3.880000      3.4515582E-36
   3.890000      3.6503910E-36
   3.900000      3.9038025E-36
   3.910000      4.1994328E-36
   3.920000      4.5216487E-36
   3.930000      4.8715283E-36
   3.940000      5.2328580E-36
   3.950000      5.5670455E-36
   3.960000      5.8286210E-36
   3.970000      6.0197414E-36
   3.980000      5.9583659E-36
   3.990000      5.5148754E-36
   4.000000      4.8576698E-36
   4.010000      4.1237036E-36
   4.020000      3.3124220E-36
   4.030000      2.3817041E-36
   4.040000      1.3588941E-36
   4.050000      4.1784550E-37
   4.060000     -3.1387404E-37
   4.070000     -1.0028192E-36
   4.080000     -1.6589629E-36
   4.090000     -2.2111304E-36
   4.100000     -2.7985031E-36
   4.110000     -3.4672775E-36
   4.120000     -4.2037200E-36
   4.130000     -4.9922841E-36
   4.140000     -5.8436028E-36
   4.150000     -6.8696603E-36
   4.160000     -7.8602424E-36
   4.170000     -8.7645243E-36
   4.180000     -9.8126378E-36
   4.190000     -1.0995281E-35
   4.200000     -1.2367904E-35
   4.210000     -1.3588875E-35
   4.220000     -1.4541657E-35
   4.230000     -1.5551378E-35
   4.240000     -1.6705712E-35
   4.250000     -1.7869499E-35
   4.260000     -1.9035538E-35
   4.270000     -2.0362527E-35
   4.280000     -2.1851852E-35
   4.290000     -2.3512047E-35
   4.300000     -2.5140475E-35
   4.310000     -2.6688618E-35
   4.320000     -2.8195776E-35
   4.330000     -2.9533894E-35
   4.340000     -3.0750154E-35
   4.350000     -3.1737036E-35
   4.360000     -3.2420866E-35
   4.370000     -3.2720706E-35
   4.380000     -3.2610208E-35
   4.390000     -3.2110689E-35
   4.400000     -3.0949130E-35
   4.410000     -2.9284385E-35
   4.420000     -2.7568235E-35
   4.430000     -2.5714286E-35
   4.440000     -2.3521679E-35
   4.450000     -2.0880069E-35
   4.460000     -1.7653563E-35
   4.470000     -1.4043287E-35
   4.480000     -1.0093130E-35
   4.490000     -5.7571920E-36
   4.500000     -1.0850073E-36
   4.510000      4.0051297E-36
   4.520000      9.3390056E-36
   4.530000      1.4941307E-35
   4.540000      2.0887230E-35
   4.550000      2.7024377E-35
   4.560000      3.3177935E-35
   4.570000      3.9317666E-35
   4.580000      4.5602563E-35
   4.590000      5.2036409E-35
   4.600000      5.8622299E-35
   4.610000      6.5343969E-35
   4.620000      7.2209430E-35
   4.630000      7.9174745E-35
   4.640000      8.6271407E-35
   4.650000      9.3507384E-35
   4.660000      1.0073304E-34
   4.670000      1.0765146E-34
   4.680000      1.1437715E-34
   4.690000      1.2110914E-34
   4.700000      1.2772884E-34
   4.710000      1.3395282E-34
   4.720000      1.4002941E-34
   4.730000      1.4588723E-34
   4.740000      1.5126204E-34
   4.750000      1.5581678E-34
   4.760000      1.5953114E-34
   4.770000      1.6268562E-34
   4.780000      1.6441739E-34
   4.790000      1.6513303E-34
   4.800000      1.6485963E-34
   4.810000      1.6405216E-34
   4.820000      1.6311006E-34
   4.830000      1.6007198E-34
   4.840000      1.5626348E-34
   4.850000      1.5123234E-34
   4.860000      1.4418585E-34
   4.870000      1.3711453E-34
   4.880000      1.2685205E-34
   4.890000      1.1231720E-34
   4.900000      9.4396122E-35
   4.910000      7.5850788E-35
   4.920000      5.8107349E-35
   4.930000      3.9107879E-35
   4.940000      1.9286889E-35
   4.950000     -2.4483424E-36
   4.960000     -2.6733990E-35
   4.970000     -5.4092301E-35
   4.980000     -8.4820923E-35
   4.990000     -1.1569661E-34
   5.000000     -1.4633456E-34
   5.010000     -1.7597498E-34
   5.020000     -2.0379123E-34
   5.030000     -2.3195148E-34
   5.040000     -2.5976104E-34
   5.050000     -2.8636636E-34
   5.060000     -3.1263163E-34
   5.070000     -3.3844023E-34
   5.080000     -3.6458065E-34
   5.090000     -3.9165608E-34
   5.100000     -4.1960423E-34
   5.110000     -4.4701208E-34
   5.120000     -4.7562191E-34
   5.130000     -5.0958006E-34
   5.140000     -5.5125478E-34
   5.150000     -5.9333224E-34
   5.160000     -6.3087248E-34
   5.170000     -6.6529082E-34
   5.180000     -6.9867633E-34
   5.190000     -7.3385176E-34
   5.200000     -7.6753330E-34
   5.210000     -7.9810648E-34
   5.220000     -8.2539852E-34
   5.230000     -8.4971472E-34
   5.240000     -8.7146192E-34
   5.250000     -8.8913438E-34
   5.260000     -9.0084607E-34
   5.270000     -9.0615223E-34
   5.280000     -9.0605249E-34
   5.290000     -9.0232902E-34
   5.300000     -8.9389008E-34
   5.310000     -8.7860268E-34
   5.320000     -8.5948125E-34
   5.330000     -8.3809662E-34
   5.340000     -8.0975003E-34
   5.350000     -7.7374418E-34
   5.360000     -7.3059536E-34
   5.370000     -6.7913961E-34
   5.380000     -6.1788974E-34
   5.390000     -5.5075988E-34
   5.400000     -4.7945072E-34
   5.410000     -4.0118846E-34
   5.420000     -3.1601999E-34
   5.430000     -2.2379945E-34
   5.440000     -1.2350377E-34
   5.450000     -1.5056773E-35
   5.460000      1.0284154E-34
   5.470000      2.2993354E-34
   5.480000      3.6458081E-34
   5.490000      5.0760560E-34
   5.500000      6.5818932E-34
   5.510000      8.1574211E-34
   5.520000      9.8120534E-34
   5.530000      1.1548800E-33
   5.540000      1.3373626E-33
   5.550000      1.5274730E-33
   5.560000      1.7241657E-33
   5.570000      1.9267447E-33
   5.580000      2.1359643E-33
   5.590000      2.3536890E-33
   5.600000      2.5769608E-33
   5.610000      2.8013323E-33
   5.620000      3.0301111E-33
   5.630000      3.2640672E-33
   5.640000      3.4958555E-33
   5.650000      3.7270881E-33
   5.660000      3.9600597E-33
   5.670000      4.1925112E-33
   5.680000      4.4228728E-33
   5.690000      4.6492436E-33
   5.700000      4.8699838E-33
   5.710000      5.0852062E-33
   5.720000      5.2933837E-33
   5.730000      5.4910052E-33
   5.740000      5.6766988E-33
   5.750000      5.8479331E-33
   5.760000      6.0060411E-33
   5.770000      6.1510438E-33
   5.780000      6.2769804E-33
   5.790000      6.3825765E-33
   5.800000      6.4674810E-33
   5.810000      6.5284855E-33
   5.820000      6.5628386E-33
   5.830000      6.5686191E-33
   5.840000      6.5442856E-33
   5.850000      6.4876393E-33
   5.860000      6.3968720E-33
   5.870000      6.2691119E-33
   5.880000      6.1011037E-33
   5.890000      5.8910171E-33
   5.900000      5.6372025E-33
   5.910000      5.3377781E-33
   5.920000      4.9899349E-33
   5.930000      4.5919640E-33
   5.940000      4.1421640E-33
   5.950000      3.6384096E-33
   5.960000      3.0790611E-33
   5.970000      2.4621580E-33
   5.980000      1.7860492E-33
   5.990000      1.0498577E-33
   6.000000      2.5179654E-34
   6.010000     -6.0950778E-34
   6.020000     -1.5348277E-33
   6.030000     -2.5246573E-33
   6.040000     -3.5791529E-33
   6.050000     -4.6990563E-33
   6.060000     -5.8840101E-33
   6.070000     -7.1334706E-33
   6.080000     -8.4471516E-33
   6.090000     -9.8240853E-33
   6.100000     -1.1262963E-32
   6.110000     -1.2762179E-32
   6.120000     -1.4319840E-32
   6.130000     -1.5933973E-32
   6.140000     -1.7601445E-32
   6.150000     -1.9318690E-32
   6.160000     -2.1082471E-32
   6.170000     -2.2888723E-32
   6.180000     -2.4734617E-32
   6.190000     -2.6613254E-32
   6.200000     -2.8517240E-32
   6.210000     -3.0442142E-32
   6.220000     -3.2381246E-32
   6.230000     -3.4327280E-32
   6.240000     -3.6272320E-32
   6.250000     -3.8208107E-32
   6.260000     -4.0125435E-32
   6.270000     -4.2014428E-32
   6.280000     -4.3864991E-32
   6.290000     -4.5666204E-32
   6.300000     -4.7406553E-32
   6.310000     -4.9073630E-32
   6.320000     -5.0655096E-32
   6.330000     -5.2137353E-32
   6.340000     -5.3507269E-32
   6.350000     -5.4750789E-32
   6.360000     -5.5851945E-32
   6.370000     -5.6795579E-32
   6.380000     -5.7565675E-32
   6.390000     -5.8145663E-32
   6.400000     -5.8518883E-32
   6.410000     -5.8667865E-32
   6.420000     -5.8575019E-32
   6.430000     -5.8222453E-32
   6.440000     -5.7591624E-32
   6.450000     -5.6664188E-32
   6.460000     -5.5421461E-32
   6.470000     -5.3844771E-32
   6.480000     -5.1915408E-32
   6.490000     -4.9614654E-32
   6.500000     -4.6923986E-32
   6.510000     -4.3825130E-32
   6.520000     -4.0300093E-32
   6.530000     -3.6331289E-32
   6.540000     -3.1901647E-32
   6.550000     -2.6994696E-32
   6.560000     -2.1594669E-32
   6.570000     -1.5686458E-32
   6.580000     -9.2562929E-33
   6.590000     -2.2914683E-33
   6.600000      5.2199057E-33
   6.610000      1.3288198E-32
   6.620000      2.1922304E-32
   6.630000      3.1129491E-32
   6.640000      4.0915267E-32
   6.650000      5.1283186E-32
   6.660000      6.2234744E-32
   6.670000      7.3769206E-32
   6.680000      8.5883398E-32
   6.690000      9.8571578E-32
   6.700000      1.1182527E-31
   6.710000      1.2563306E-31
   6.720000      1.3998044E-31
   6.730000      1.5484950E-31
   6.740000      1.7021907E-31
   6.750000      1.8606415E-31
   6.760000      2.0235599E-31
   6.770000      2.1906195E-31
   6.780000      2.3614480E-31
   6.790000      2.5356302E-31
   6.800000      2.7127052E-31
   6.810000      2.8921644E-31
   6.820000      3.0734496E-31
   6.830000      3.2559522E-31
   6.840000      3.4390105E-31
   6.850000      3.6219092E-31
   6.860000      3.8038788E-31
   6.870000      3.9840936E-31
   6.880000      4.1616708E-31
   6.890000      4.3356713E-31
   6.900000      4.5050990E-31
   6.910000      4.6688995E-31
   6.920000      4.8259601E-31
   6.930000      4.9751124E-31
   6.940000      5.1151303E-31
   6.950000      5.2447318E-31
   6.960000      5.3625808E-31
   6.970000      5.4672872E-31
   6.980000      5.5574100E-31
   6.990000      5.6314577E-31
   7.000000      5.6878908E-31
   7.010000      5.7251267E-31
   7.020000      5.7415390E-31
   7.030000      5.7354655E-31
   7.040000      5.7052082E-31
   7.050000      5.6490393E-31
   7.060000      5.5652064E-31