  -2.600000      0.0000000E+00
  -2.590000      0.0000000E+00
  -2.580000      0.0000000E+00
  -2.570000      0.0000000E+00
  -2.560000      0.0000000E+00
  -2.550000      0.0000000E+00
  -2.540000      0.0000000E+00
  -2.530000      0.0000000E+00
  -2.520000      0.0000000E+00
  -2.510000      0.0000000E+00
  -2.500000      0.0000000E+00
  -2.490000      0.0000000E+00
  -2.480000      0.0000000E+00
  -2.470000      0.0000000E+00
  -2.460000      0.0000000E+00
  -2.450000      0.0000000E+00
  -2.440000      0.0000000E+00
  -2.430000      0.0000000E+00
  -2.420000      0.0000000E+00
  -2.410000      0.0000000E+00
  -2.400000      0.0000000E+00
  -2.390000      0.0000000E+00
  -2.380000      0.0000000E+00
  -2.370000      0.0000000E+00
  -2.360000      0.0000000E+00
  -2.350000      0.0000000E+00
  -2.340000      0.0000000E+00
  -2.330000      0.0000000E+00
  -2.320000      0.0000000E+00
  -2.310000      0.0000000E+00
  -2.300000      0.0000000E+00
  -2.290000      0.0000000E+00
  -2.280000      0.0000000E+00
  -2.270000      0.0000000E+00
  -2.260000      0.0000000E+00
  -2.250000      0.0000000E+00
  -2.240000      0.0000000E+00
  -2.230000      0.0000000E+00
  -2.220000      0.0000000E+00
  -2.210000      0.0000000E+00
  -2.200000      0.0000000E+00
  -2.190000      0.0000000E+00
  -2.180000      0.0000000E+00
  -2.170000      0.0000000E+00
  -2.160000      0.0000000E+00
  -2.150000      0.0000000E+00
  -2.140000      0.0000000E+00
  -2.130000      0.0000000E+00
  -2.120000      0.0000000E+00
  -2.110000      0.0000000E+00
  -2.100000      0.0000000E+00
  -2.090000      0.0000000E+00
  -2.080000      0.0000000E+00
  -2.070000      0.0000000E+00
  -2.060000      0.0000000E+00
  -2.050000      0.0000000E+00
  -2.040000      0.0000000E+00
  -2.030000      0.0000000E+00
  -2.020000      0.0000000E+00
  -2.010000      0.0000000E+00
  -2.000000      0.0000000E+00
  -1.990000      0.0000000E+00
  -1.980000      0.0000000E+00
  -1.970000      0.0000000E+00
  -1.960000      0.0000000E+00
  -1.950000      0.0000000E+00
  -1.940000      0.0000000E+00
  -1.930000      0.0000000E+00
  -1.920000      0.0000000E+00
  -1.910000      0.0000000E+00
  -1.900000      0.0000000E+00
  -1.890000      0.0000000E+00
  -1.880000      0.0000000E+00
  -1.870000      0.0000000E+00
  -1.860000      0.0000000E+00
  -1.850000      0.0000000E+00
  -1.840000      0.0000000E+00
  -1.830000      0.0000000E+00
  -1.820000      0.0000000E+00
  -1.810000      0.0000000E+00
  -1.800000      0.0000000E+00
  -1.790000      0.0000000E+00
  -1.780000      0.0000000E+00
  -1.770000      0.0000000E+00
  -1.760000      0.0000000E+00
  -1.750000      0.0000000E+00
  -1.740000      0.0000000E+00
  -1.730000      0.0000000E+00
  -1.720000      0.0000000E+00
  -1.710000      0.0000000E+00
  -1.700000      0.0000000E+00
  -1.690000      0.0000000E+00
  -1.680000      0.0000000E+00
  -1.670000      0.0000000E+00
  -1.660000      0.0000000E+00
  -1.650000      0.0000000E+00
  -1.640000      0.0000000E+00
  -1.630000      0.0000000E+00
  -1.620000      0.0000000E+00
  -1.610000      0.0000000E+00
  -1.600000      0.0000000E+00
  -1.590000      0.0000000E+00
  -1.580000      0.0000000E+00
  -1.570000      0.0000000E+00
  -1.560000      0.0000000E+00
  -1.550000      0.0000000E+00
  -1.540000      0.0000000E+00
  -1.530000      0.0000000E+00
  -1.520000      0.0000000E+00
  -1.510000      0.0000000E+00
  -1.500000      0.0000000E+00
  -1.490000      0.0000000E+00
  -1.480000      0.0000000E+00
  -1.470000      0.0000000E+00
  -1.460000      0.0000000E+00
  -1.450000      0.0000000E+00
  -1.440000      0.0000000E+00
  -1.430000      0.0000000E+00
  -1.420000      0.0000000E+00
  -1.410000      0.0000000E+00
  -1.400000      0.0000000E+00
  -1.390000      0.0000000E+00
  -1.380000      0.0000000E+00
  -1.370000      0.0000000E+00
  -1.360000      0.0000000E+00
  -1.350000      0.0000000E+00
  -1.340000      0.0000000E+00
  -1.330000      0.0000000E+00
  -1.320000      0.0000000E+00
  -1.310000      0.0000000E+00
  -1.300000      0.0000000E+00
  -1.290000      0.0000000E+00
  -1.280000      0.0000000E+00
  -1.270000      0.0000000E+00
  -1.260000      0.0000000E+00
  -1.250000      0.0000000E+00
  -1.240000      0.0000000E+00
  -1.230000      0.0000000E+00
  -1.220000      0.0000000E+00
  -1.210000      0.0000000E+00
  -1.200000      0.0000000E+00
  -1.190000      0.0000000E+00
  -1.180000      0.0000000E+00
  -1.170000      0.0000000E+00
  -1.160000      0.0000000E+00
  -1.150000      0.0000000E+00
  -1.140000      0.0000000E+00
  -1.130000      0.0000000E+00
  -1.120000      0.0000000E+00
  -1.110000      0.0000000E+00
  -1.100000      0.0000000E+00
  -1.090000      0.0000000E+00
  -1.080000      0.0000000E+00
  -1.070000      0.0000000E+00
  -1.060000      0.0000000E+00
  -1.050000      0.0000000E+00
  -1.040000      0.0000000E+00
  -1.030000      0.0000000E+00
  -1.020000      0.0000000E+00
  -1.010000      0.0000000E+00
  -1.000000      0.0000000E+00
 -0.9900000      0.0000000E+00
 -0.9800000      0.0000000E+00
 -0.9700000      0.0000000E+00
 -0.9600000      0.0000000E+00
 -0.9500000      0.0000000E+00
 -0.9400000      0.0000000E+00
 -0.9300000      0.0000000E+00
 -0.9200000      0.0000000E+00
 -0.9100000      0.0000000E+00
 -0.9000000      0.0000000E+00
 -0.8900000      0.0000000E+00
 -0.8800000      0.0000000E+00
 -0.8700000      0.0000000E+00
 -0.8600000      0.0000000E+00
 -0.8500000      0.0000000E+00
 -0.8400000      0.0000000E+00
 -0.8300000      0.0000000E+00
 -0.8200000      0.0000000E+00
 -0.8100000      0.0000000E+00
 -0.8000000      0.0000000E+00
 -0.7900000      0.0000000E+00
 -0.7800000      0.0000000E+00
 -0.7700000      0.0000000E+00
 -0.7600000      0.0000000E+00
 -0.7500000      0.0000000E+00
 -0.7400000      0.0000000E+00
 -0.7300000      0.0000000E+00
 -0.7200000      0.0000000E+00
 -0.7100000      0.0000000E+00
 -0.7000000      0.0000000E+00
 -0.6900000      0.0000000E+00
 -0.6800000      0.0000000E+00
 -0.6700000      0.0000000E+00
 -0.6600000      0.0000000E+00
 -0.6500000      0.0000000E+00
 -0.6400000      0.0000000E+00
 -0.6300000      0.0000000E+00
 -0.6200000      0.0000000E+00
 -0.6100000      0.0000000E+00
 -0.6000000      0.0000000E+00
 -0.5900000      0.0000000E+00
 -0.5800000      0.0000000E+00
 -0.5700000      0.0000000E+00
 -0.5600000      0.0000000E+00
 -0.5500000      0.0000000E+00
 -0.5400000      0.0000000E+00
 -0.5300000      0.0000000E+00
 -0.5200000      0.0000000E+00
 -0.5100000      0.0000000E+00
 -0.5000000      0.0000000E+00
 -0.4900000      0.0000000E+00
 -0.4800000      0.0000000E+00
 -0.4700000      0.0000000E+00
 -0.4600000      0.0000000E+00
 -0.4500000      0.0000000E+00
 -0.4400000      0.0000000E+00
 -0.4300000      0.0000000E+00
 -0.4200000      0.0000000E+00
 -0.4100000      0.0000000E+00
 -0.4000000      0.0000000E+00
 -0.3900000      0.0000000E+00
 -0.3800000      0.0000000E+00
 -0.3700000      0.0000000E+00
 -0.3600000      0.0000000E+00
 -0.3500000      0.0000000E+00
 -0.3400000      0.0000000E+00
 -0.3300000      0.0000000E+00
 -0.3200000      0.0000000E+00
 -0.3100000      0.0000000E+00
 -0.3000000      0.0000000E+00
 -0.2900000      0.0000000E+00
 -0.2800000      0.0000000E+00
 -0.2700000      0.0000000E+00
 -0.2600000      0.0000000E+00
 -0.2500000      0.0000000E+00
 -0.2400000      0.0000000E+00
 -0.2300000      0.0000000E+00
 -0.2200000      0.0000000E+00
 -0.2100000      0.0000000E+00
 -0.2000000      0.0000000E+00
 -0.1900000      0.0000000E+00
 -0.1800000      0.0000000E+00
 -0.1700000      0.0000000E+00
 -0.1600000      0.0000000E+00
 -0.1500000      0.0000000E+00
 -0.1400000      0.0000000E+00
 -0.1300000      0.0000000E+00
 -0.1200000      0.0000000E+00
 -0.1100000      0.0000000E+00
 -0.1000000      0.0000000E+00
 -9.0000004E-02  0.0000000E+00
 -7.9999998E-02  0.0000000E+00
 -7.0000000E-02  0.0000000E+00
 -5.9999999E-02  0.0000000E+00
 -5.0000001E-02  0.0000000E+00
 -3.9999999E-02  0.0000000E+00
 -2.9999999E-02  0.0000000E+00
 -2.0000000E-02  0.0000000E+00
 -9.9999998E-03  0.0000000E+00
 -3.4694470E-17  0.0000000E+00
  9.9999998E-03  0.0000000E+00
  2.0000000E-02  0.0000000E+00
  2.9999999E-02  0.0000000E+00
  3.9999999E-02  0.0000000E+00
  5.0000001E-02  0.0000000E+00
  5.9999999E-02  0.0000000E+00
  7.0000000E-02  0.0000000E+00
  7.9999998E-02  0.0000000E+00
  9.0000004E-02  0.0000000E+00
  0.1000000      0.0000000E+00
  0.1100000      0.0000000E+00
  0.1200000      0.0000000E+00
  0.1300000      0.0000000E+00
  0.1400000      0.0000000E+00
  0.1500000      0.0000000E+00
  0.1600000      0.0000000E+00
  0.1700000      0.0000000E+00
  0.1800000      0.0000000E+00
  0.1900000      0.0000000E+00
  0.2000000      0.0000000E+00
  0.2100000      0.0000000E+00
  0.2200000      0.0000000E+00
  0.2300000      0.0000000E+00
  0.2400000      0.0000000E+00
  0.2500000      0.0000000E+00
  0.2600000      0.0000000E+00
  0.2700000      0.0000000E+00
  0.2800000      0.0000000E+00
  0.2900000      0.0000000E+00
  0.3000000      0.0000000E+00
  0.3100000      0.0000000E+00
  0.3200000      0.0000000E+00
  0.3300000      0.0000000E+00
  0.3400000      0.0000000E+00
  0.3500000      0.0000000E+00
  0.3600000      0.0000000E+00
  0.3700000      0.0000000E+00
  0.3800000      0.0000000E+00
  0.3900000      0.0000000E+00
  0.4000000      0.0000000E+00
  0.4100000      0.0000000E+00
  0.4200000      0.0000000E+00
  0.4300000      0.0000000E+00
  0.4400000      0.0000000E+00
  0.4500000      0.0000000E+00
  0.4600000      0.0000000E+00
  0.4700000      0.0000000E+00
  0.4800000      0.0000000E+00
  0.4900000      0.0000000E+00
  0.5000000      0.0000000E+00
  0.5100000      0.0000000E+00
  0.5200000      0.0000000E+00
  0.5300000      0.0000000E+00
  0.5400000      0.0000000E+00
  0.5500000      0.0000000E+00
  0.5600000      0.0000000E+00
  0.5700000      0.0000000E+00
  0.5800000      0.0000000E+00
  0.5900000      0.0000000E+00
  0.6000000      0.0000000E+00
  0.6100000      0.0000000E+00
  0.6200000      0.0000000E+00
  0.6300000      0.0000000E+00
  0.6400000      0.0000000E+00
  0.6500000      0.0000000E+00
  0.6600000      0.0000000E+00
  0.6700000      0.0000000E+00
  0.6800000      0.0000000E+00
  0.6900000      0.0000000E+00
  0.7000000      0.0000000E+00
  0.7100000      0.0000000E+00
  0.7200000      0.0000000E+00
  0.7300000      0.0000000E+00
  0.7400000      0.0000000E+00
  0.7500000      0.0000000E+00
  0.7600000      0.0000000E+00
  0.7700000      0.0000000E+00
  0.7800000      0.0000000E+00
  0.7900000      0.0000000E+00
  0.8000000      0.0000000E+00
  0.8100000      0.0000000E+00
  0.8200000      0.0000000E+00
  0.8300000      0.0000000E+00
  0.8400000      0.0000000E+00
  0.8500000      0.0000000E+00
  0.8600000      0.0000000E+00
  0.8700000      0.0000000E+00
  0.8800000      0.0000000E+00
  0.8900000      0.0000000E+00
  0.9000000      0.0000000E+00
  0.9100000      0.0000000E+00
  0.9200000      0.0000000E+00
  0.9300000      0.0000000E+00
  0.9400000      0.0000000E+00
  0.9500000      0.0000000E+00
  0.9600000      0.0000000E+00
  0.9700000      0.0000000E+00
  0.9800000      0.0000000E+00
  0.9900000      0.0000000E+00
   1.000000      0.0000000E+00
   1.010000      0.0000000E+00
   1.020000      0.0000000E+00
   1.030000      0.0000000E+00
   1.040000      0.0000000E+00
   1.050000      0.0000000E+00
   1.060000      0.0000000E+00
   1.070000      0.0000000E+00
   1.080000      0.0000000E+00
   1.090000      0.0000000E+00
   1.100000      0.0000000E+00
   1.110000      0.0000000E+00
   1.120000      0.0000000E+00
   1.130000      0.0000000E+00
   1.140000      0.0000000E+00
   1.150000      0.0000000E+00
   1.160000      0.0000000E+00
   1.170000      0.0000000E+00
   1.180000      0.0000000E+00
   1.190000      0.0000000E+00
   1.200000      0.0000000E+00
   1.210000      0.0000000E+00
   1.220000      0.0000000E+00
   1.230000      0.0000000E+00
   1.240000      0.0000000E+00
   1.250000      0.0000000E+00
   1.260000      0.0000000E+00
   1.270000      0.0000000E+00
   1.280000      0.0000000E+00
   1.290000      0.0000000E+00
   1.300000      0.0000000E+00
   1.310000      0.0000000E+00
   1.320000      0.0000000E+00
   1.330000      0.0000000E+00
   1.340000      0.0000000E+00
   1.350000      0.0000000E+00
   1.360000      0.0000000E+00
   1.370000      0.0000000E+00
   1.380000      0.0000000E+00
   1.390000      0.0000000E+00
   1.400000      0.0000000E+00
   1.410000      0.0000000E+00
   1.420000      0.0000000E+00
   1.430000      0.0000000E+00
   1.440000      0.0000000E+00
   1.450000      0.0000000E+00
   1.460000      0.0000000E+00
   1.470000      0.0000000E+00
   1.480000      0.0000000E+00
   1.490000      0.0000000E+00
   1.500000      0.0000000E+00
   1.510000      0.0000000E+00
   1.520000      0.0000000E+00
   1.530000      0.0000000E+00
   1.540000      0.0000000E+00
   1.550000      0.0000000E+00
   1.560000      0.0000000E+00
   1.570000      0.0000000E+00
   1.580000      0.0000000E+00
   1.590000      0.0000000E+00
   1.600000      0.0000000E+00
   1.610000      0.0000000E+00
   1.620000      0.0000000E+00
   1.630000      0.0000000E+00
   1.640000      0.0000000E+00
   1.650000      0.0000000E+00
   1.660000      0.0000000E+00
   1.670000      0.0000000E+00
   1.680000      0.0000000E+00
   1.690000      0.0000000E+00
   1.700000      0.0000000E+00
   1.710000      0.0000000E+00
   1.720000      0.0000000E+00
   1.730000      0.0000000E+00
   1.740000      0.0000000E+00
   1.750000      0.0000000E+00
   1.760000      0.0000000E+00
   1.770000      0.0000000E+00
   1.780000      0.0000000E+00
   1.790000      0.0000000E+00
   1.800000      0.0000000E+00
   1.810000      0.0000000E+00
   1.820000      0.0000000E+00
   1.830000      0.0000000E+00
   1.840000      0.0000000E+00
   1.850000      0.0000000E+00
   1.860000      0.0000000E+00
   1.870000      0.0000000E+00
   1.880000      0.0000000E+00
   1.890000      0.0000000E+00
   1.900000      0.0000000E+00
   1.910000      0.0000000E+00
   1.920000      0.0000000E+00
   1.930000      0.0000000E+00
   1.940000      0.0000000E+00
   1.950000      0.0000000E+00
   1.960000      0.0000000E+00
   1.970000      0.0000000E+00
   1.980000      0.0000000E+00
   1.990000      0.0000000E+00
   2.000000      0.0000000E+00
   2.010000      0.0000000E+00
   2.020000      0.0000000E+00
   2.030000      0.0000000E+00
   2.040000      0.0000000E+00
   2.050000      0.0000000E+00
   2.060000      0.0000000E+00
   2.070000      0.0000000E+00
   2.080000      0.0000000E+00
   2.090000      0.0000000E+00
   2.100000      0.0000000E+00
   2.110000      0.0000000E+00
   2.120000      0.0000000E+00
   2.130000      0.0000000E+00
   2.140000      0.0000000E+00
   2.150000      0.0000000E+00
   2.160000      0.0000000E+00
   2.170000      0.0000000E+00
   2.180000      0.0000000E+00
   2.190000      0.0000000E+00
   2.200000      0.0000000E+00
   2.210000      0.0000000E+00
   2.220000      0.0000000E+00
   2.230000      0.0000000E+00
   2.240000      0.0000000E+00
   2.250000      0.0000000E+00
   2.260000      0.0000000E+00
   2.270000      0.0000000E+00
   2.280000      0.0000000E+00
   2.290000      0.0000000E+00
   2.300000      0.0000000E+00
   2.310000      0.0000000E+00
   2.320000      0.0000000E+00
   2.330000      0.0000000E+00
   2.340000      0.0000000E+00
   2.350000      0.0000000E+00
   2.360000      0.0000000E+00
   2.370000      0.0000000E+00
   2.380000      0.0000000E+00
   2.390000      0.0000000E+00
   2.400000      0.0000000E+00
   2.410000      0.0000000E+00
   2.420000      0.0000000E+00
   2.430000      0.0000000E+00
   2.440000      0.0000000E+00
   2.450000      0.0000000E+00
   2.460000      0.0000000E+00
   2.470000      0.0000000E+00
   2.480000      0.0000000E+00
   2.490000      0.0000000E+00
   2.500000      0.0000000E+00
   2.510000      0.0000000E+00
   2.520000      0.0000000E+00
   2.530000      0.0000000E+00
   2.540000      0.0000000E+00
   2.550000      0.0000000E+00
   2.560000      0.0000000E+00
   2.570000      0.0000000E+00
   2.580000      0.0000000E+00
   2.590000      0.0000000E+00
   2.600000      0.0000000E+00
   2.610000      0.0000000E+00
   2.620000      0.0000000E+00
   2.630000      0.0000000E+00
   2.640000      0.0000000E+00
   2.650000      0.0000000E+00
   2.660000      0.0000000E+00
   2.670000      0.0000000E+00
   2.680000      0.0000000E+00
   2.690000      0.0000000E+00
   2.700000      0.0000000E+00
   2.710000      0.0000000E+00
   2.720000      0.0000000E+00
   2.730000      0.0000000E+00
   2.740000      0.0000000E+00
   2.750000      0.0000000E+00
   2.760000      0.0000000E+00
   2.770000      0.0000000E+00
   2.780000      0.0000000E+00
   2.790000      0.0000000E+00
   2.800000      0.0000000E+00
   2.810000      0.0000000E+00
   2.820000      0.0000000E+00
   2.830000      0.0000000E+00
   2.840000     -1.2327895E-38
   2.850000     -1.3039433E-38
   2.860000     -1.3679184E-38
   2.870000     -1.4023312E-38
   2.880000     -1.3912625E-38
   2.890000     -1.3477839E-38
   2.900000     -1.2796641E-38
   2.910000      0.0000000E+00
   2.920000      0.0000000E+00
   2.930000      0.0000000E+00
   2.940000      0.0000000E+00
   2.950000      0.0000000E+00
   2.960000      0.0000000E+00
   2.970000      0.0000000E+00
   2.980000     -1.2846139E-38
   2.990000     -1.6772384E-38
   3.000000     -2.0204479E-38
   3.010000     -1.9486536E-38
   3.020000     -1.4778279E-38
   3.030000      0.0000000E+00
   3.040000      0.0000000E+00
   3.050000      0.0000000E+00
   3.060000      2.1102140E-38
   3.070000      3.8110447E-38
   3.080000      5.8050796E-38
   3.090000      7.7028693E-38
   3.100000      9.5991164E-38
   3.110000      1.1543194E-37
   3.120000      1.3392815E-37
   3.130000      1.4774408E-37
   3.140000      1.5841899E-37
   3.150000      1.6610862E-37
   3.160000      1.7007446E-37
   3.170000      1.7528981E-37
   3.180000      1.8206169E-37
   3.190000      1.8798604E-37
   3.200000      1.9451213E-37
   3.210000      1.9961837E-37
   3.220000      1.9992913E-37
   3.230000      1.9716899E-37
   3.240000      1.9221344E-37
   3.250000      1.8449485E-37
   3.260000      1.7618354E-37
   3.270000      1.6656443E-37
   3.280000      1.5244050E-37
   3.290000      1.3561759E-37
   3.300000      1.1638970E-37
   3.310000      9.4152706E-38
   3.320000      6.7871146E-38
   3.330000      3.7108586E-38
   3.340000      0.0000000E+00
   3.350000     -3.3628560E-38
   3.360000     -7.3143890E-38
   3.370000     -1.1335475E-37
   3.380000     -1.5779416E-37
   3.390000     -2.0745762E-37
   3.400000     -2.6795549E-37
   3.410000     -3.4152126E-37
   3.420000     -4.1914954E-37
   3.430000     -4.9825259E-37
   3.440000     -5.7139270E-37
   3.450000     -6.3904864E-37
   3.460000     -7.0797935E-37
   3.470000     -7.7851865E-37
   3.480000     -8.5516784E-37
   3.490000     -9.3965784E-37
   3.500000     -1.0279340E-36
   3.510000     -1.1176833E-36
   3.520000     -1.2052969E-36
   3.530000     -1.2869113E-36
   3.540000     -1.3648497E-36
   3.550000     -1.4463557E-36
   3.560000     -1.5238253E-36
   3.570000     -1.5811635E-36
   3.580000     -1.6098587E-36
   3.590000     -1.6106968E-36
   3.600000     -1.5880503E-36
   3.610000     -1.5557168E-36
   3.620000     -1.5074015E-36
   3.630000     -1.4323569E-36
   3.640000     -1.3349520E-36
   3.650000     -1.2230808E-36
   3.660000     -1.1136459E-36
   3.670000     -9.8067153E-37
   3.680000     -7.7711376E-37
   3.690000     -5.2385379E-37
   3.700000     -2.5938772E-37
   3.710000      0.0000000E+00
   3.720000      2.6236610E-37
   3.730000      5.2970499E-37
   3.740000      8.0896803E-37
   3.750000      1.1124180E-36
   3.760000      1.4152831E-36
   3.770000      1.6999369E-36
   3.780000      1.9830423E-36
   3.790000      2.2851376E-36
   3.800000      2.6196816E-36
   3.810000      2.8602294E-36
   3.820000      3.0133339E-36
   3.830000      3.1904207E-36
   3.840000      3.4185828E-36
   3.850000      3.7421566E-36
   3.860000      4.2568708E-36
   3.870000      4.9569683E-36
   3.880000      5.7149373E-36
   3.890000      6.5287777E-36
   3.900000      7.2634107E-36
   3.910000      7.8754950E-36
   3.920000      8.3634457E-36
   3.930000      8.6688461E-36
   3.940000      8.8165391E-36
   3.950000      8.8058288E-36
   3.960000      8.7040829E-36
   3.970000      8.5225235E-36
   3.980000      8.2826664E-36
   3.990000      7.9961927E-36
   4.000000      7.7687686E-36
   4.010000      7.6740223E-36
   4.020000      7.6335831E-36
   4.030000      7.5748285E-36
   4.040000      7.4379936E-36
   4.050000      7.2245335E-36
   4.060000      6.9225159E-36
   4.070000      6.3465431E-36
   4.080000      5.4946325E-36
   4.090000      4.5271897E-36
   4.100000      3.4033001E-36
   4.110000      2.1190384E-36
   4.120000      6.9747732E-37
   4.130000     -7.6129689E-37
   4.140000     -2.2970120E-36
   4.150000     -3.9618012E-36
   4.160000     -5.7461090E-36
   4.170000     -7.6503094E-36
   4.180000     -9.5214562E-36
   4.190000     -1.1312570E-35
   4.200000     -1.3244122E-35
   4.210000     -1.5423490E-35
   4.220000     -1.7691075E-35
   4.230000     -2.0101031E-35
   4.240000     -2.2772520E-35
   4.250000     -2.5539055E-35
   4.260000     -2.8281306E-35
   4.270000     -3.0875042E-35
   4.280000     -3.3115699E-35
   4.290000     -3.5078674E-35
   4.300000     -3.6882613E-35
   4.310000     -3.8536031E-35
   4.320000     -4.0011414E-35
   4.330000     -4.1281912E-35
   4.340000     -4.2391704E-35
   4.350000     -4.3471265E-35
   4.360000     -4.4591778E-35
   4.370000     -4.5909778E-35
   4.380000     -4.7396136E-35
   4.390000     -4.8727754E-35
   4.400000     -4.9638199E-35
   4.410000     -5.0217159E-35
   4.420000     -5.0493928E-35
   4.430000     -5.0384931E-35
   4.440000     -4.9639755E-35
   4.450000     -4.8152599E-35
   4.460000     -4.6200702E-35
   4.470000     -4.3474416E-35
   4.480000     -3.9698958E-35
   4.490000     -3.4868758E-35
   4.500000     -2.8907082E-35
   4.510000     -2.1925627E-35
   4.520000     -1.4089552E-35
   4.530000     -5.7696522E-36
   4.540000      2.6872716E-36
   4.550000      1.1447008E-35
   4.560000      2.0794277E-35
   4.570000      3.0479469E-35
   4.580000      3.9921163E-35
   4.590000      4.9686470E-35
   4.600000      5.9990109E-35
   4.610000      7.1007229E-35
   4.620000      8.2928004E-35
   4.630000      9.4418863E-35
   4.640000      1.0468736E-34
   4.650000      1.1350251E-34
   4.660000      1.2120335E-34
   4.670000      1.2769502E-34
   4.680000      1.3360743E-34
   4.690000      1.3976966E-34
   4.700000      1.4667993E-34
   4.710000      1.5463997E-34
   4.720000      1.6531528E-34
   4.730000      1.7887394E-34
   4.740000      1.9714266E-34
   4.750000      2.1937549E-34
   4.760000      2.4123497E-34
   4.770000      2.6312270E-34
   4.780000      2.8464717E-34
   4.790000      3.0551782E-34
   4.800000      3.2598086E-34
   4.810000      3.4549267E-34
   4.820000      3.6261471E-34
   4.830000      3.7378943E-34
   4.840000      3.7631574E-34
   4.850000      3.7166808E-34
   4.860000      3.6217768E-34
   4.870000      3.4847957E-34
   4.880000      3.2654723E-34
   4.890000      2.9672494E-34
   4.900000      2.6622543E-34
   4.910000      2.3481728E-34
   4.920000      2.0066276E-34
   4.930000      1.6463321E-34
   4.940000      1.2729739E-34
   4.950000      8.8626615E-35
   4.960000      4.9168168E-35
   4.970000      1.0227345E-35
   4.980000     -2.7697985E-35
   4.990000     -6.3256204E-35
   5.000000     -9.6299723E-35
   5.010000     -1.2910454E-34
   5.020000     -1.6066564E-34
   5.030000     -1.8926680E-34
   5.040000     -2.1858081E-34
   5.050000     -2.4786644E-34
   5.060000     -2.7852303E-34
   5.070000     -3.1354629E-34
   5.080000     -3.5363505E-34
   5.090000     -4.0595964E-34
   5.100000     -4.7224843E-34
   5.110000     -5.4480609E-34
   5.120000     -6.2157538E-34
   5.130000     -7.0358181E-34
   5.140000     -7.8981658E-34
   5.150000     -8.8234737E-34
   5.160000     -9.8119588E-34
   5.170000     -1.0837017E-33
   5.180000     -1.1889029E-33
   5.190000     -1.2965727E-33
   5.200000     -1.4062645E-33
   5.210000     -1.5165110E-33
   5.220000     -1.6252201E-33
   5.230000     -1.7311972E-33
   5.240000     -1.8322939E-33
   5.250000     -1.9246532E-33
   5.260000     -2.0063472E-33
   5.270000     -2.0801170E-33
   5.280000     -2.1466257E-33
   5.290000     -2.2046902E-33
   5.300000     -2.2529240E-33
   5.310000     -2.2872672E-33
   5.320000     -2.3080549E-33
   5.330000     -2.3163664E-33
   5.340000     -2.3117779E-33
   5.350000     -2.2950967E-33
   5.360000     -2.2656598E-33
   5.370000     -2.2250510E-33
   5.380000     -2.1743418E-33
   5.390000     -2.1111203E-33
   5.400000     -2.0329868E-33
   5.410000     -1.9419725E-33
   5.420000     -1.8386866E-33
   5.430000     -1.7221602E-33
   5.440000     -1.5926306E-33
   5.450000     -1.4470442E-33
   5.460000     -1.2856787E-33
   5.470000     -1.1091041E-33
   5.480000     -9.1501105E-34
   5.490000     -7.0270129E-34
   5.500000     -4.7031143E-34
   5.510000     -2.1663704E-34
   5.520000      5.8164511E-35
   5.530000      3.5815322E-34
   5.540000      6.8454055E-34
   5.550000      1.0352853E-33
   5.560000      1.4166048E-33
   5.570000      1.8269478E-33
   5.580000      2.2603019E-33
   5.590000      2.7201150E-33
   5.600000      3.2075843E-33
   5.610000      3.7206475E-33
   5.620000      4.2578609E-33
   5.630000      4.8192208E-33
   5.640000      5.4034099E-33
   5.650000      6.0079028E-33
   5.660000      6.6293488E-33
   5.670000      7.2658805E-33
   5.680000      7.9155740E-33
   5.690000      8.5741579E-33
   5.700000      9.2400997E-33
   5.710000      9.9115031E-33
   5.720000      1.0584306E-32
   5.730000      1.1253721E-32
   5.740000      1.1918422E-32
   5.750000      1.2578166E-32
   5.760000      1.3227493E-32
   5.770000      1.3861707E-32
   5.780000      1.4479262E-32
   5.790000      1.5075217E-32
   5.800000      1.5647902E-32
   5.810000      1.6194601E-32
   5.820000      1.6708700E-32
   5.830000      1.7187598E-32
   5.840000      1.7626791E-32
   5.850000      1.8021732E-32
   5.860000      1.8368973E-32
   5.870000      1.8663505E-32
   5.880000      1.8899967E-32
   5.890000      1.9074800E-32
   5.900000      1.9181070E-32
   5.910000      1.9210790E-32
   5.920000      1.9158461E-32
   5.930000      1.9019330E-32
   5.940000      1.8788098E-32
   5.950000      1.8456716E-32
   5.960000      1.8017421E-32
   5.970000      1.7463657E-32
   5.980000      1.6788378E-32
   5.990000      1.5985226E-32
   6.000000      1.5046334E-32
   6.010000      1.3965993E-32
   6.020000      1.2741145E-32
   6.030000      1.1364603E-32
   6.040000      9.8290290E-33
   6.050000      8.1295691E-33
   6.060000      6.2615307E-33
   6.070000      4.2210783E-33
   6.080000      2.0044568E-33
   6.090000     -3.9117633E-34
   6.100000     -2.9682713E-33
   6.110000     -5.7293944E-33
   6.120000     -8.6760461E-33
   6.130000     -1.1809579E-32
   6.140000     -1.5130423E-32
   6.150000     -1.8638486E-32
   6.160000     -2.2333157E-32
   6.170000     -2.6213163E-32
   6.180000     -3.0276750E-32
   6.190000     -3.4521201E-32
   6.200000     -3.8943079E-32
   6.210000     -4.3538118E-32
   6.220000     -4.8301098E-32
   6.230000     -5.3225820E-32
   6.240000     -5.8305031E-32
   6.250000     -6.3530403E-32
   6.260000     -6.8892233E-32
   6.270000     -7.4379493E-32
   6.280000     -7.9979742E-32
   6.290000     -8.5679027E-32
   6.300000     -9.1461818E-32
   6.310000     -9.7310808E-32
   6.320000     -1.0320693E-31
   6.330000     -1.0912929E-31
   6.340000     -1.1505506E-31
   6.350000     -1.2095950E-31
   6.360000     -1.2681624E-31
   6.370000     -1.3259639E-31
   6.380000     -1.3826838E-31
   6.390000     -1.4380006E-31
   6.400000     -1.4915729E-31
   6.410000     -1.5430317E-31
   6.420000     -1.5919934E-31
   6.430000     -1.6380563E-31
   6.440000     -1.6808021E-31
   6.450000     -1.7197904E-31
   6.460000     -1.7545656E-31
   6.470000     -1.7846603E-31
   6.480000     -1.8095935E-31
   6.490000     -1.8288555E-31
   6.500000     -1.8419303E-31
   6.510000     -1.8482989E-31
   6.520000     -1.8474162E-31
   6.530000     -1.8387284E-31
   6.540000     -1.8216792E-31
   6.550000     -1.7956935E-31
   6.560000     -1.7601850E-31
   6.570000     -1.7145697E-31
   6.580000     -1.6582561E-31
   6.590000     -1.5906505E-31
   6.600000     -1.5111593E-31
   6.610000     -1.4191887E-31
   6.620000     -1.3141504E-31
   6.630000     -1.1954676E-31
   6.640000     -1.0625739E-31
   6.650000     -9.1491811E-32
   6.660000     -7.5196914E-32
   6.670000     -5.7321965E-32
   6.680000     -3.7819048E-32
   6.690000     -1.6643550E-32
   6.700000      6.2453758E-33
   6.710000      3.0884286E-32
   6.720000      5.7304932E-32
   6.730000      8.5533806E-32
   6.740000      1.1559153E-31
   6.750000      1.4749233E-31
   6.760000      1.8124354E-31
   6.770000      2.1684509E-31
   6.780000      2.5428884E-31
   6.790000      2.9355823E-31
   6.800000      3.3462760E-31
   6.810000      3.7746174E-31
   6.820000      4.2201536E-31
   6.830000      4.6823264E-31
   6.840000      5.1604653E-31
   6.850000      5.6537846E-31
   6.860000      6.1613762E-31
   6.870000      6.6822072E-31
   6.880000      7.2151119E-31
   6.890000      7.7587889E-31
   6.900000      8.3117974E-31
   6.910000      8.8725486E-31
   6.920000      9.4393062E-31
   6.930000      1.0010178E-30
   6.940000      1.0583116E-30
   6.950000      1.1155911E-30
   6.960000      1.1726189E-30
   6.970000      1.2291411E-30
   6.980000      1.2848871E-30
   6.990000      1.3395693E-30
   7.000000      1.3928833E-30
   7.010000      1.4445078E-30
   7.020000      1.4941049E-30
   7.030000      1.5413203E-30
   7.040000      1.5857834E-30
   7.050000      1.6271078E-30
   7.060000      1.6648923E-30