  -2.600000      0.0000000E+00
  -2.590000      0.0000000E+00
  -2.580000      0.0000000E+00
  -2.570000      0.0000000E+00
  -2.560000      0.0000000E+00
  -2.550000      0.0000000E+00
  -2.540000      0.0000000E+00
  -2.530000      0.0000000E+00
  -2.520000      0.0000000E+00
  -2.510000      0.0000000E+00
  -2.500000      0.0000000E+00
  -2.490000      0.0000000E+00
  -2.480000      0.0000000E+00
  -2.470000      0.0000000E+00
  -2.460000      0.0000000E+00
  -2.450000      0.0000000E+00
  -2.440000      0.0000000E+00
  -2.430000      0.0000000E+00
  -2.420000      0.0000000E+00
  -2.410000      0.0000000E+00
  -2.400000      0.0000000E+00
  -2.390000      0.0000000E+00
  -2.380000      0.0000000E+00
  -2.370000      0.0000000E+00
  -2.360000      0.0000000E+00
  -2.350000      0.0000000E+00
  -2.340000      0.0000000E+00
  -2.330000      0.0000000E+00
  -2.320000      0.0000000E+00
  -2.310000      0.0000000E+00
  -2.300000      0.0000000E+00
  -2.290000      0.0000000E+00
  -2.280000      0.0000000E+00
  -2.270000      0.0000000E+00
  -2.260000      0.0000000E+00
  -2.250000      0.0000000E+00
  -2.240000      0.0000000E+00
  -2.230000      0.0000000E+00
  -2.220000      0.0000000E+00
  -2.210000      0.0000000E+00
  -2.200000      0.0000000E+00
  -2.190000      0.0000000E+00
  -2.180000      0.0000000E+00
  -2.170000      0.0000000E+00
  -2.160000      0.0000000E+00
  -2.150000      0.0000000E+00
  -2.140000      0.0000000E+00
  -2.130000      0.0000000E+00
  -2.120000      0.0000000E+00
  -2.110000      0.0000000E+00
  -2.100000      0.0000000E+00
  -2.090000      0.0000000E+00
  -2.080000      0.0000000E+00
  -2.070000      0.0000000E+00
  -2.060000      0.0000000E+00
  -2.050000      0.0000000E+00
  -2.040000      0.0000000E+00
  -2.030000      0.0000000E+00
  -2.020000      0.0000000E+00
  -2.010000      0.0000000E+00
  -2.000000      0.0000000E+00
  -1.990000      0.0000000E+00
  -1.980000      0.0000000E+00
  -1.970000      0.0000000E+00
  -1.960000      0.0000000E+00
  -1.950000      0.0000000E+00
  -1.940000      0.0000000E+00
  -1.930000      0.0000000E+00
  -1.920000      0.0000000E+00
  -1.910000      0.0000000E+00
  -1.900000      0.0000000E+00
  -1.890000      0.0000000E+00
  -1.880000      0.0000000E+00
  -1.870000      0.0000000E+00
  -1.860000      0.0000000E+00
  -1.850000      0.0000000E+00
  -1.840000      0.0000000E+00
  -1.830000      0.0000000E+00
  -1.820000      0.0000000E+00
  -1.810000      0.0000000E+00
  -1.800000      0.0000000E+00
  -1.790000      0.0000000E+00
  -1.780000      0.0000000E+00
  -1.770000      0.0000000E+00
  -1.760000      0.0000000E+00
  -1.750000      0.0000000E+00
  -1.740000      0.0000000E+00
  -1.730000      0.0000000E+00
  -1.720000      0.0000000E+00
  -1.710000      0.0000000E+00
  -1.700000      0.0000000E+00
  -1.690000      0.0000000E+00
  -1.680000      0.0000000E+00
  -1.670000      0.0000000E+00
  -1.660000      0.0000000E+00
  -1.650000      0.0000000E+00
  -1.640000      0.0000000E+00
  -1.630000      0.0000000E+00
  -1.620000      0.0000000E+00
  -1.610000      0.0000000E+00
  -1.600000      0.0000000E+00
  -1.590000      0.0000000E+00
  -1.580000      0.0000000E+00
  -1.570000      0.0000000E+00
  -1.560000      0.0000000E+00
  -1.550000      0.0000000E+00
  -1.540000      0.0000000E+00
  -1.530000      0.0000000E+00
  -1.520000      0.0000000E+00
  -1.510000      0.0000000E+00
  -1.500000      0.0000000E+00
  -1.490000      0.0000000E+00
  -1.480000      0.0000000E+00
  -1.470000      0.0000000E+00
  -1.460000      0.0000000E+00
  -1.450000      0.0000000E+00
  -1.440000      0.0000000E+00
  -1.430000      0.0000000E+00
  -1.420000      0.0000000E+00
  -1.410000      0.0000000E+00
  -1.400000      0.0000000E+00
  -1.390000      0.0000000E+00
  -1.380000      0.0000000E+00
  -1.370000      0.0000000E+00
  -1.360000      0.0000000E+00
  -1.350000      0.0000000E+00
  -1.340000      0.0000000E+00
  -1.330000      0.0000000E+00
  -1.320000      0.0000000E+00
  -1.310000      0.0000000E+00
  -1.300000      0.0000000E+00
  -1.290000      0.0000000E+00
  -1.280000      0.0000000E+00
  -1.270000      0.0000000E+00
  -1.260000      0.0000000E+00
  -1.250000      0.0000000E+00
  -1.240000      0.0000000E+00
  -1.230000      0.0000000E+00
  -1.220000      0.0000000E+00
  -1.210000      0.0000000E+00
  -1.200000      0.0000000E+00
  -1.190000      0.0000000E+00
  -1.180000      0.0000000E+00
  -1.170000      0.0000000E+00
  -1.160000      0.0000000E+00
  -1.150000      0.0000000E+00
  -1.140000      0.0000000E+00
  -1.130000      0.0000000E+00
  -1.120000      0.0000000E+00
  -1.110000      0.0000000E+00
  -1.100000      0.0000000E+00
  -1.090000      0.0000000E+00
  -1.080000      0.0000000E+00
  -1.070000      0.0000000E+00
  -1.060000      0.0000000E+00
  -1.050000      0.0000000E+00
  -1.040000      0.0000000E+00
  -1.030000      0.0000000E+00
  -1.020000      0.0000000E+00
  -1.010000      0.0000000E+00
  -1.000000      0.0000000E+00
 -0.9900000      0.0000000E+00
 -0.9800000      0.0000000E+00
 -0.9700000      0.0000000E+00
 -0.9600000      0.0000000E+00
 -0.9500000      0.0000000E+00
 -0.9400000      0.0000000E+00
 -0.9300000      0.0000000E+00
 -0.9200000      0.0000000E+00
 -0.9100000      0.0000000E+00
 -0.9000000      0.0000000E+00
 -0.8900000      0.0000000E+00
 -0.8800000      0.0000000E+00
 -0.8700000      0.0000000E+00
 -0.8600000      0.0000000E+00
 -0.8500000      0.0000000E+00
 -0.8400000      0.0000000E+00
 -0.8300000      0.0000000E+00
 -0.8200000      0.0000000E+00
 -0.8100000      0.0000000E+00
 -0.8000000      0.0000000E+00
 -0.7900000      0.0000000E+00
 -0.7800000      0.0000000E+00
 -0.7700000      0.0000000E+00
 -0.7600000      0.0000000E+00
 -0.7500000      0.0000000E+00
 -0.7400000      0.0000000E+00
 -0.7300000      0.0000000E+00
 -0.7200000      0.0000000E+00
 -0.7100000      0.0000000E+00
 -0.7000000      0.0000000E+00
 -0.6900000      0.0000000E+00
 -0.6800000      0.0000000E+00
 -0.6700000      0.0000000E+00
 -0.6600000      0.0000000E+00
 -0.6500000      0.0000000E+00
 -0.6400000      0.0000000E+00
 -0.6300000      0.0000000E+00
 -0.6200000      0.0000000E+00
 -0.6100000      0.0000000E+00
 -0.6000000      0.0000000E+00
 -0.5900000      0.0000000E+00
 -0.5800000      0.0000000E+00
 -0.5700000      0.0000000E+00
 -0.5600000      0.0000000E+00
 -0.5500000      0.0000000E+00
 -0.5400000      0.0000000E+00
 -0.5300000      0.0000000E+00
 -0.5200000      0.0000000E+00
 -0.5100000      0.0000000E+00
 -0.5000000      0.0000000E+00
 -0.4900000      0.0000000E+00
 -0.4800000      0.0000000E+00
 -0.4700000      0.0000000E+00
 -0.4600000      0.0000000E+00
 -0.4500000      0.0000000E+00
 -0.4400000      0.0000000E+00
 -0.4300000      0.0000000E+00
 -0.4200000      0.0000000E+00
 -0.4100000      0.0000000E+00
 -0.4000000      0.0000000E+00
 -0.3900000      0.0000000E+00
 -0.3800000      0.0000000E+00
 -0.3700000      0.0000000E+00
 -0.3600000      0.0000000E+00
 -0.3500000      0.0000000E+00
 -0.3400000      0.0000000E+00
 -0.3300000      0.0000000E+00
 -0.3200000      0.0000000E+00
 -0.3100000      0.0000000E+00
 -0.3000000      0.0000000E+00
 -0.2900000      0.0000000E+00
 -0.2800000      0.0000000E+00
 -0.2700000      0.0000000E+00
 -0.2600000      0.0000000E+00
 -0.2500000      0.0000000E+00
 -0.2400000      0.0000000E+00
 -0.2300000      0.0000000E+00
 -0.2200000      0.0000000E+00
 -0.2100000      0.0000000E+00
 -0.2000000      0.0000000E+00
 -0.1900000      0.0000000E+00
 -0.1800000      0.0000000E+00
 -0.1700000      0.0000000E+00
 -0.1600000      0.0000000E+00
 -0.1500000      0.0000000E+00
 -0.1400000      0.0000000E+00
 -0.1300000      0.0000000E+00
 -0.1200000      0.0000000E+00
 -0.1100000      0.0000000E+00
 -0.1000000      0.0000000E+00
 -9.0000004E-02  0.0000000E+00
 -7.9999998E-02  0.0000000E+00
 -7.0000000E-02  0.0000000E+00
 -5.9999999E-02  0.0000000E+00
 -5.0000001E-02  0.0000000E+00
 -3.9999999E-02  0.0000000E+00
 -2.9999999E-02  0.0000000E+00
 -2.0000000E-02  0.0000000E+00
 -9.9999998E-03  0.0000000E+00
 -3.4694470E-17  0.0000000E+00
  9.9999998E-03  0.0000000E+00
  2.0000000E-02  0.0000000E+00
  2.9999999E-02  0.0000000E+00
  3.9999999E-02  0.0000000E+00
  5.0000001E-02  0.0000000E+00
  5.9999999E-02  0.0000000E+00
  7.0000000E-02  0.0000000E+00
  7.9999998E-02  0.0000000E+00
  9.0000004E-02  0.0000000E+00
  0.1000000      0.0000000E+00
  0.1100000      0.0000000E+00
  0.1200000      0.0000000E+00
  0.1300000      0.0000000E+00
  0.1400000      0.0000000E+00
  0.1500000      0.0000000E+00
  0.1600000      0.0000000E+00
  0.1700000      0.0000000E+00
  0.1800000      0.0000000E+00
  0.1900000      0.0000000E+00
  0.2000000      0.0000000E+00
  0.2100000      0.0000000E+00
  0.2200000      0.0000000E+00
  0.2300000      0.0000000E+00
  0.2400000      0.0000000E+00
  0.2500000      0.0000000E+00
  0.2600000      0.0000000E+00
  0.2700000      0.0000000E+00
  0.2800000      0.0000000E+00
  0.2900000      0.0000000E+00
  0.3000000      0.0000000E+00
  0.3100000      0.0000000E+00
  0.3200000      0.0000000E+00
  0.3300000      0.0000000E+00
  0.3400000      0.0000000E+00
  0.3500000      0.0000000E+00
  0.3600000      0.0000000E+00
  0.3700000      0.0000000E+00
  0.3800000      0.0000000E+00
  0.3900000      0.0000000E+00
  0.4000000      0.0000000E+00
  0.4100000      0.0000000E+00
  0.4200000      0.0000000E+00
  0.4300000      0.0000000E+00
  0.4400000      0.0000000E+00
  0.4500000      0.0000000E+00
  0.4600000      0.0000000E+00
  0.4700000      0.0000000E+00
  0.4800000      0.0000000E+00
  0.4900000      0.0000000E+00
  0.5000000      0.0000000E+00
  0.5100000      0.0000000E+00
  0.5200000      0.0000000E+00
  0.5300000      0.0000000E+00
  0.5400000      0.0000000E+00
  0.5500000      0.0000000E+00
  0.5600000      0.0000000E+00
  0.5700000      0.0000000E+00
  0.5800000      0.0000000E+00
  0.5900000      0.0000000E+00
  0.6000000      0.0000000E+00
  0.6100000      0.0000000E+00
  0.6200000      0.0000000E+00
  0.6300000      0.0000000E+00
  0.6400000      0.0000000E+00
  0.6500000      0.0000000E+00
  0.6600000      0.0000000E+00
  0.6700000      0.0000000E+00
  0.6800000      0.0000000E+00
  0.6900000      0.0000000E+00
  0.7000000      0.0000000E+00
  0.7100000      0.0000000E+00
  0.7200000      0.0000000E+00
  0.7300000      0.0000000E+00
  0.7400000      0.0000000E+00
  0.7500000      0.0000000E+00
  0.7600000      0.0000000E+00
  0.7700000      0.0000000E+00
  0.7800000      0.0000000E+00
  0.7900000      0.0000000E+00
  0.8000000      0.0000000E+00
  0.8100000      0.0000000E+00
  0.8200000      0.0000000E+00
  0.8300000      0.0000000E+00
  0.8400000      0.0000000E+00
  0.8500000      0.0000000E+00
  0.8600000      0.0000000E+00
  0.8700000      0.0000000E+00
  0.8800000      0.0000000E+00
  0.8900000      0.0000000E+00
  0.9000000      0.0000000E+00
  0.9100000      0.0000000E+00
  0.9200000      0.0000000E+00
  0.9300000      0.0000000E+00
  0.9400000      0.0000000E+00
  0.9500000      0.0000000E+00
  0.9600000      0.0000000E+00
  0.9700000      0.0000000E+00
  0.9800000      0.0000000E+00
  0.9900000      0.0000000E+00
   1.000000      0.0000000E+00
   1.010000      0.0000000E+00
   1.020000      0.0000000E+00
   1.030000      0.0000000E+00
   1.040000      0.0000000E+00
   1.050000      0.0000000E+00
   1.060000      0.0000000E+00
   1.070000      0.0000000E+00
   1.080000      0.0000000E+00
   1.090000      0.0000000E+00
   1.100000      0.0000000E+00
   1.110000      0.0000000E+00
   1.120000      0.0000000E+00
   1.130000      0.0000000E+00
   1.140000      0.0000000E+00
   1.150000      0.0000000E+00
   1.160000      0.0000000E+00
   1.170000      0.0000000E+00
   1.180000      0.0000000E+00
   1.190000      0.0000000E+00
   1.200000      0.0000000E+00
   1.210000      0.0000000E+00
   1.220000      0.0000000E+00
   1.230000      0.0000000E+00
   1.240000      0.0000000E+00
   1.250000      0.0000000E+00
   1.260000      0.0000000E+00
   1.270000      0.0000000E+00
   1.280000      0.0000000E+00
   1.290000      0.0000000E+00
   1.300000      0.0000000E+00
   1.310000      0.0000000E+00
   1.320000      0.0000000E+00
   1.330000      0.0000000E+00
   1.340000      0.0000000E+00
   1.350000      0.0000000E+00
   1.360000      0.0000000E+00
   1.370000      0.0000000E+00
   1.380000      0.0000000E+00
   1.390000      0.0000000E+00
   1.400000      0.0000000E+00
   1.410000      0.0000000E+00
   1.420000      0.0000000E+00
   1.430000      0.0000000E+00
   1.440000      0.0000000E+00
   1.450000      0.0000000E+00
   1.460000      0.0000000E+00
   1.470000      0.0000000E+00
   1.480000      0.0000000E+00
   1.490000      0.0000000E+00
   1.500000      0.0000000E+00
   1.510000      0.0000000E+00
   1.520000      0.0000000E+00
   1.530000      0.0000000E+00
   1.540000      0.0000000E+00
   1.550000      0.0000000E+00
   1.560000      0.0000000E+00
   1.570000      0.0000000E+00
   1.580000      0.0000000E+00
   1.590000      0.0000000E+00
   1.600000      0.0000000E+00
   1.610000      0.0000000E+00
   1.620000      0.0000000E+00
   1.630000      0.0000000E+00
   1.640000      0.0000000E+00
   1.650000      0.0000000E+00
   1.660000      0.0000000E+00
   1.670000      0.0000000E+00
   1.680000      0.0000000E+00
   1.690000      0.0000000E+00
   1.700000      0.0000000E+00
   1.710000      0.0000000E+00
   1.720000      0.0000000E+00
   1.730000      0.0000000E+00
   1.740000      0.0000000E+00
   1.750000      0.0000000E+00
   1.760000      0.0000000E+00
   1.770000      0.0000000E+00
   1.780000      0.0000000E+00
   1.790000      0.0000000E+00
   1.800000      0.0000000E+00
   1.810000      0.0000000E+00
   1.820000      0.0000000E+00
   1.830000      0.0000000E+00
   1.840000      0.0000000E+00
   1.850000      0.0000000E+00
   1.860000      0.0000000E+00
   1.870000      0.0000000E+00
   1.880000      0.0000000E+00
   1.890000      0.0000000E+00
   1.900000      0.0000000E+00
   1.910000      0.0000000E+00
   1.920000      0.0000000E+00
   1.930000      0.0000000E+00
   1.940000      0.0000000E+00
   1.950000      0.0000000E+00
   1.960000      0.0000000E+00
   1.970000      0.0000000E+00
   1.980000      0.0000000E+00
   1.990000      0.0000000E+00
   2.000000      0.0000000E+00
   2.010000      0.0000000E+00
   2.020000      0.0000000E+00
   2.030000      0.0000000E+00
   2.040000      0.0000000E+00
   2.050000      0.0000000E+00
   2.060000      0.0000000E+00
   2.070000      0.0000000E+00
   2.080000      0.0000000E+00
   2.090000      0.0000000E+00
   2.100000      0.0000000E+00
   2.110000      0.0000000E+00
   2.120000      0.0000000E+00
   2.130000      0.0000000E+00
   2.140000      0.0000000E+00
   2.150000      0.0000000E+00
   2.160000      0.0000000E+00
   2.170000      0.0000000E+00
   2.180000      0.0000000E+00
   2.190000      0.0000000E+00
   2.200000      0.0000000E+00
   2.210000      0.0000000E+00
   2.220000      0.0000000E+00
   2.230000      0.0000000E+00
   2.240000      0.0000000E+00
   2.250000      0.0000000E+00
   2.260000      0.0000000E+00
   2.270000      0.0000000E+00
   2.280000      0.0000000E+00
   2.290000      0.0000000E+00
   2.300000      0.0000000E+00
   2.310000      0.0000000E+00
   2.320000      1.2192558E-38
   2.330000      1.3035067E-38
   2.340000      1.4027254E-38
   2.350000      1.5118847E-38
   2.360000      1.6320195E-38
   2.370000      1.7858441E-38
   2.380000      1.9785571E-38
   2.390000      2.1904861E-38
   2.400000      2.4159308E-38
   2.410000      2.6486018E-38
   2.420000      2.8762806E-38
   2.430000      3.0919099E-38
   2.440000      3.3897144E-38
   2.450000      3.7850787E-38
   2.460000      4.1944843E-38
   2.470000      4.6252591E-38
   2.480000      4.9728551E-38
   2.490000      5.2172018E-38
   2.500000      5.4475752E-38
   2.510000      5.6687338E-38
   2.520000      5.8999121E-38
   2.530000      6.4595980E-38
   2.540000      7.2962747E-38
   2.550000      8.4109672E-38
   2.560000      9.8748124E-38
   2.570000      1.1403399E-37
   2.580000      1.2860701E-37
   2.590000      1.3672494E-37
   2.600000      1.3778209E-37
   2.610000      1.3675074E-37
   2.620000      1.3495029E-37
   2.630000      1.3341448E-37
   2.640000      1.3257909E-37
   2.650000      1.3177416E-37
   2.660000      1.2385239E-37
   2.670000      1.0809819E-37
   2.680000      9.6762125E-38
   2.690000      9.0596423E-38
   2.700000      8.4917661E-38
   2.710000      7.9342248E-38
   2.720000      7.4015307E-38
   2.730000      7.0744037E-38
   2.740000      7.3674797E-38
   2.750000      8.1522786E-38
   2.760000      9.1012530E-38
   2.770000      1.0520124E-37
   2.780000      1.2386741E-37
   2.790000      1.4454973E-37
   2.800000      1.6671423E-37
   2.810000      1.8916146E-37
   2.820000      2.1065153E-37
   2.830000      2.3095793E-37
   2.840000      2.5239401E-37
   2.850000      2.7618573E-37
   2.860000      2.9660724E-37
   2.870000      3.0652736E-37
   2.880000      3.1193935E-37
   2.890000      3.2077686E-37
   2.900000      3.3205393E-37
   2.910000      3.4635006E-37
   2.920000      3.6123578E-37
   2.930000      3.7674472E-37
   2.940000      4.0017250E-37
   2.950000      4.3107999E-37
   2.960000      4.6440744E-37
   2.970000      5.0291154E-37
   2.980000      5.4506004E-37
   2.990000      5.8756880E-37
   3.000000      6.2763432E-37
   3.010000      6.7021424E-37
   3.020000      7.1385650E-37
   3.030000      7.6170477E-37
   3.040000      8.2537843E-37
   3.050000      9.1256672E-37
   3.060000      1.0180908E-36
   3.070000      1.1270889E-36
   3.080000      1.2622890E-36
   3.090000      1.4012560E-36
   3.100000      1.5211624E-36
   3.110000      1.6466504E-36
   3.120000      1.7877035E-36
   3.130000      1.9459429E-36
   3.140000      2.0919663E-36
   3.150000      2.2912917E-36
   3.160000      2.5593098E-36
   3.170000      2.7943000E-36
   3.180000      3.0086656E-36
   3.190000      3.2004896E-36
   3.200000      3.3532322E-36
   3.210000      3.4343477E-36
   3.220000      3.4389764E-36
   3.230000      3.4335764E-36
   3.240000      3.4512339E-36
   3.250000      3.4808268E-36
   3.260000      3.4982691E-36
   3.270000      3.4922069E-36
   3.280000      3.4500870E-36
   3.290000      3.1556000E-36
   3.300000      2.6543382E-36
   3.310000      2.2035743E-36
   3.320000      1.7735223E-36
   3.330000      1.3849243E-36
   3.340000      1.0041108E-36
   3.350000      5.5303094E-37
   3.360000      1.7321777E-37
   3.370000     -1.8340804E-37
   3.380000     -6.9587917E-37
   3.390000     -1.3173587E-36
   3.400000     -1.9737583E-36
   3.410000     -2.6610185E-36
   3.420000     -3.4195166E-36
   3.430000     -4.2594265E-36
   3.440000     -5.2054641E-36
   3.450000     -6.3969177E-36
   3.460000     -7.7714562E-36
   3.470000     -9.0138649E-36
   3.480000     -1.0194964E-35
   3.490000     -1.1583917E-35
   3.500000     -1.3366293E-35
   3.510000     -1.5417708E-35
   3.520000     -1.7550505E-35
   3.530000     -1.9800123E-35
   3.540000     -2.2078182E-35
   3.550000     -2.4374722E-35
   3.560000     -2.6840029E-35
   3.570000     -2.9433265E-35
   3.580000     -3.1861206E-35
   3.590000     -3.4117022E-35
   3.600000     -3.6438396E-35
   3.610000     -3.8838219E-35
   3.620000     -4.1354738E-35
   3.630000     -4.4210394E-35
   3.640000     -4.6897177E-35
   3.650000     -4.9085602E-35
   3.660000     -5.1005176E-35
   3.670000     -5.2608710E-35
   3.680000     -5.3977903E-35
   3.690000     -5.5005060E-35
   3.700000     -5.5616351E-35
   3.710000     -5.5912785E-35
   3.720000     -5.5776914E-35
   3.730000     -5.5089681E-35
   3.740000     -5.3699974E-35
   3.750000     -5.1607720E-35
   3.760000     -4.9060370E-35
   3.770000     -4.6150428E-35
   3.780000     -4.2718673E-35
   3.790000     -3.8667597E-35
   3.800000     -3.4078310E-35
   3.810000     -2.9186882E-35
   3.820000     -2.3945629E-35
   3.830000     -1.8083448E-35
   3.840000     -1.1545151E-35
   3.850000     -4.4570457E-36
   3.860000      3.1216202E-36
   3.870000      1.1195296E-35
   3.880000      1.9882731E-35
   3.890000      2.9112326E-35
   3.900000      3.8736132E-35
   3.910000      4.8978298E-35
   3.920000      5.9831038E-35
   3.930000      7.1361490E-35
   3.940000      8.3376087E-35
   3.950000      9.5743102E-35
   3.960000      1.0861498E-34
   3.970000      1.2185527E-34
   3.980000      1.3558005E-34
   3.990000      1.4940819E-34
   4.000000      1.6382864E-34
   4.010000      1.7974279E-34
   4.020000      1.9604883E-34
   4.030000      2.1292604E-34
   4.040000      2.2961149E-34
   4.050000      2.4524153E-34
   4.060000      2.6037602E-34
   4.070000      2.7444473E-34
   4.080000      2.8784365E-34
   4.090000      3.0069669E-34
   4.100000      3.1242833E-34
   4.110000      3.2262829E-34
   4.120000      3.3124361E-34
   4.130000      3.3849189E-34
   4.140000      3.4432468E-34
   4.150000      3.4812153E-34
   4.160000      3.4932432E-34
   4.170000      3.4780263E-34
   4.180000      3.4367162E-34
   4.190000      3.3695695E-34
   4.200000      3.2783119E-34
   4.210000      3.1576239E-34
   4.220000      2.9881741E-34
   4.230000      2.7580713E-34
   4.240000      2.4783967E-34
   4.250000      2.1476860E-34
   4.260000      1.7674726E-34
   4.270000      1.3557644E-34
   4.280000      9.1178844E-35
   4.290000      4.3210610E-35
   4.300000     -7.4242118E-36
   4.310000     -6.1345606E-35
   4.320000     -1.1989308E-34
   4.330000     -1.8336399E-34
   4.340000     -2.5366073E-34
   4.350000     -3.3536415E-34
   4.360000     -4.3080284E-34
   4.370000     -5.3357204E-34
   4.380000     -6.4068120E-34
   4.390000     -7.5110471E-34
   4.400000     -8.6476160E-34
   4.410000     -9.8731727E-34
   4.420000     -1.1163850E-33
   4.430000     -1.2463286E-33
   4.440000     -1.3761453E-33
   4.450000     -1.5037288E-33
   4.460000     -1.6264950E-33
   4.470000     -1.7466783E-33
   4.480000     -1.8675327E-33
   4.490000     -1.9862723E-33
   4.500000     -2.0996184E-33
   4.510000     -2.2045201E-33
   4.520000     -2.3013107E-33
   4.530000     -2.3926480E-33
   4.540000     -2.4769955E-33
   4.550000     -2.5539042E-33
   4.560000     -2.6235583E-33
   4.570000     -2.6826884E-33
   4.580000     -2.7290022E-33
   4.590000     -2.7647098E-33
   4.600000     -2.7898687E-33
   4.610000     -2.8024513E-33
   4.620000     -2.8008632E-33
   4.630000     -2.7843281E-33
   4.640000     -2.7510403E-33
   4.650000     -2.6975951E-33
   4.660000     -2.6212881E-33
   4.670000     -2.5235068E-33
   4.680000     -2.4034150E-33
   4.690000     -2.2566005E-33
   4.700000     -2.0794084E-33
   4.710000     -1.8683360E-33
   4.720000     -1.6211975E-33
   4.730000     -1.3373005E-33
   4.740000     -1.0116205E-33
   4.750000     -6.4152792E-34
   4.760000     -2.2944589E-34
   4.770000      2.2479077E-34
   4.780000      7.2301682E-34
   4.790000      1.2725392E-33
   4.800000      1.8720919E-33
   4.810000      2.5180178E-33
   4.820000      3.2123289E-33
   4.830000      3.9553805E-33
   4.840000      4.7470712E-33
   4.850000      5.5797492E-33
   4.860000      6.4580212E-33
   4.870000      7.3815645E-33
   4.880000      8.3409156E-33
   4.890000      9.3365615E-33
   4.900000      1.0365233E-32
   4.910000      1.1423535E-32
   4.920000      1.2507667E-32
   4.930000      1.3613828E-32
   4.940000      1.4737965E-32
   4.950000      1.5873682E-32
   4.960000      1.7017025E-32
   4.970000      1.8166134E-32
   4.980000      1.9315131E-32
   4.990000      2.0458160E-32
   5.000000      2.1586011E-32
   5.010000      2.2694422E-32
   5.020000      2.3779282E-32
   5.030000      2.4826197E-32
   5.040000      2.5828232E-32
   5.050000      2.6778334E-32
   5.060000      2.7663902E-32
   5.070000      2.8475084E-32
   5.080000      2.9200681E-32
   5.090000      2.9827728E-32
   5.100000      3.0343230E-32
   5.110000      3.0733506E-32
   5.120000      3.0984227E-32
   5.130000      3.1080635E-32
   5.140000      3.1007255E-32
   5.150000      3.0745357E-32
   5.160000      3.0277951E-32
   5.170000      2.9590284E-32
   5.180000      2.8665223E-32
   5.190000      2.7485515E-32
   5.200000      2.6033809E-32
   5.210000      2.4293138E-32
   5.220000      2.2246992E-32
   5.230000      1.9878281E-32
   5.240000      1.7171353E-32
   5.250000      1.4111767E-32
   5.260000      1.0684988E-32
   5.270000      6.8767830E-33
   5.280000      2.6741029E-33
   5.290000     -1.9344712E-33
   5.300000     -6.9595385E-33
   5.310000     -1.2410477E-32
   5.320000     -1.8295287E-32
   5.330000     -2.4620853E-32
   5.340000     -3.1392567E-32
   5.350000     -3.8613987E-32
   5.360000     -4.6287083E-32
   5.370000     -5.4412023E-32
   5.380000     -6.2986861E-32
   5.390000     -7.2007469E-32
   5.400000     -8.1467483E-32
   5.410000     -9.1357910E-32
   5.420000     -1.0166695E-31
   5.430000     -1.1237982E-31
   5.440000     -1.2347841E-31
   5.450000     -1.3494112E-31
   5.460000     -1.4674257E-31
   5.470000     -1.5885367E-31
   5.480000     -1.7124016E-31
   5.490000     -1.8386327E-31
   5.500000     -1.9668020E-31
   5.510000     -2.0964269E-31
   5.520000     -2.2269729E-31
   5.530000     -2.3578508E-31
   5.540000     -2.4884167E-31
   5.550000     -2.6179703E-31
   5.560000     -2.7457531E-31
   5.570000     -2.8709489E-31
   5.580000     -2.9926857E-31
   5.590000     -3.1100322E-31
   5.600000     -3.2219992E-31
   5.610000     -3.3275436E-31
   5.620000     -3.4255676E-31
   5.630000     -3.5149230E-31
   5.640000     -3.5944005E-31
   5.650000     -3.6627407E-31
   5.660000     -3.7186425E-31
   5.670000     -3.7607532E-31
   5.680000     -3.7876753E-31
   5.690000     -3.7979670E-31
   5.700000     -3.7901455E-31
   5.710000     -3.7626890E-31
   5.720000     -3.7140395E-31
   5.730000     -3.6426066E-31
   5.740000     -3.5467693E-31
   5.750000     -3.4248818E-31
   5.760000     -3.2752773E-31
   5.770000     -3.0962752E-31
   5.780000     -2.8861856E-31
   5.790000     -2.6433160E-31
   5.800000     -2.3659810E-31
   5.810000     -2.0525088E-31
   5.820000     -1.7012531E-31
   5.830000     -1.3106018E-31
   5.840000     -8.7899054E-32
   5.850000     -4.0491384E-32
   5.860000      1.1306124E-32
   5.870000      6.7628177E-32
   5.880000      1.2859941E-31
   5.890000      1.9433288E-31
   5.900000      2.6492845E-31
   5.910000      3.4047141E-31
   5.920000      4.2103053E-31
   5.930000      5.0665669E-31
   5.940000      5.9738110E-31
   5.950000      6.9321380E-31
   5.960000      7.9414198E-31
   5.970000      9.0012803E-31
   5.980000      1.0111082E-30
   5.990000      1.1269912E-30
   6.000000      1.2476559E-30
   6.010000      1.3729502E-30
   6.020000      1.5026893E-30
   6.030000      1.6366538E-30
   6.040000      1.7745880E-30
   6.050000      1.9161982E-30
   6.060000      2.0611517E-30
   6.070000      2.2090734E-30
   6.080000      2.3595457E-30
   6.090000      2.5121057E-30
   6.100000      2.6662435E-30
   6.110000      2.8214009E-30
   6.120000      2.9769692E-30
   6.130000      3.1322875E-30
   6.140000      3.2866412E-30
   6.150000      3.4392617E-30
   6.160000      3.5893225E-30
   6.170000      3.7359415E-30
   6.180000      3.8781770E-30
   6.190000      4.0150294E-30
   6.200000      4.1454401E-30
   6.210000      4.2682915E-30
   6.220000      4.3824066E-30
   6.230000      4.4865512E-30
   6.240000      4.5794345E-30
   6.250000      4.6597096E-30
   6.260000      4.7259767E-30
   6.270000      4.7767836E-30
   6.280000      4.8106296E-30
   6.290000      4.8259682E-30
   6.300000      4.8212109E-30
   6.310000      4.7947294E-30
   6.320000      4.7448598E-30
   6.330000      4.6699092E-30
   6.340000      4.5681569E-30
   6.350000      4.4378632E-30
   6.360000      4.2772711E-30
   6.370000      4.0846153E-30
   6.380000      3.8581259E-30
   6.390000      3.5960366E-30
   6.400000      3.2965917E-30
   6.410000      2.9580527E-30
   6.420000      2.5787070E-30
   6.430000      2.1568770E-30
   6.440000      1.6909289E-30
   6.450000      1.1792832E-30
   6.460000      6.2042390E-31
   6.470000      1.2911712E-32
   6.480000     -6.4460513E-31
   6.490000     -1.3533778E-30
   6.500000     -2.1145436E-30
   6.510000     -2.9291111E-30
   6.520000     -3.7979459E-30
   6.530000     -4.7217550E-30
   6.540000     -5.7010712E-30
   6.550000     -6.7362356E-30
   6.560000     -7.8273825E-30
   6.570000     -8.9744205E-30
   6.580000     -1.0177014E-29
   6.590000     -1.1434571E-29
   6.600000     -1.2746218E-29
   6.610000     -1.4110789E-29
   6.620000     -1.5526802E-29
   6.630000     -1.6992445E-29
   6.640000     -1.8505560E-29
   6.650000     -2.0063620E-29
   6.660000     -2.1663724E-29
   6.670000     -2.3302564E-29
   6.680000     -2.4976427E-29
   6.690000     -2.6681168E-29
   6.700000     -2.8412200E-29
   6.710000     -3.0164481E-29
   6.720000     -3.1932484E-29
   6.730000     -3.3710220E-29
   6.740000     -3.5491184E-29
   6.750000     -3.7268369E-29
   6.760000     -3.9034258E-29
   6.770000     -4.0780793E-29
   6.780000     -4.2499385E-29
   6.790000     -4.4180893E-29
   6.800000     -4.5815631E-29
   6.810000     -4.7393365E-29
   6.820000     -4.8903288E-29
   6.830000     -5.0334047E-29
   6.840000     -5.1673730E-29
   6.850000     -5.2909876E-29
   6.860000     -5.4029467E-29
   6.870000     -5.5018974E-29
   6.880000     -5.5864330E-29
   6.890000     -5.6550985E-29
   6.900000     -5.7063890E-29
   6.910000     -5.7387554E-29
   6.920000     -5.7506053E-29
   6.930000     -5.7403064E-29
   6.940000     -5.7061922E-29
   6.950000     -5.6465630E-29
   6.960000     -5.5596945E-29
   6.970000     -5.4438384E-29
   6.980000     -5.2972318E-29
   6.990000     -5.1181017E-29
   7.000000     -4.9046695E-29
   7.010000     -4.6551611E-29
   7.020000     -4.3678117E-29
   7.030000     -4.0408746E-29
   7.040000     -3.6726292E-29
   7.050000     -3.2613893E-29
   7.060000     -2.8055124E-29