  -2.600000      0.0000000E+00
  -2.590000      0.0000000E+00
  -2.580000      0.0000000E+00
  -2.570000      0.0000000E+00
  -2.560000      0.0000000E+00
  -2.550000      0.0000000E+00
  -2.540000      0.0000000E+00
  -2.530000      0.0000000E+00
  -2.520000      0.0000000E+00
  -2.510000      0.0000000E+00
  -2.500000      0.0000000E+00
  -2.490000      0.0000000E+00
  -2.480000      0.0000000E+00
  -2.470000      0.0000000E+00
  -2.460000      0.0000000E+00
  -2.450000      0.0000000E+00
  -2.440000      0.0000000E+00
  -2.430000      0.0000000E+00
  -2.420000      0.0000000E+00
  -2.410000      0.0000000E+00
  -2.400000      0.0000000E+00
  -2.390000      0.0000000E+00
  -2.380000      0.0000000E+00
  -2.370000      0.0000000E+00
  -2.360000      0.0000000E+00
  -2.350000      0.0000000E+00
  -2.340000      0.0000000E+00
  -2.330000      0.0000000E+00
  -2.320000      0.0000000E+00
  -2.310000      0.0000000E+00
  -2.300000      0.0000000E+00
  -2.290000      0.0000000E+00
  -2.280000      0.0000000E+00
  -2.270000      0.0000000E+00
  -2.260000      0.0000000E+00
  -2.250000      0.0000000E+00
  -2.240000      0.0000000E+00
  -2.230000      0.0000000E+00
  -2.220000      0.0000000E+00
  -2.210000      0.0000000E+00
  -2.200000      0.0000000E+00
  -2.190000      0.0000000E+00
  -2.180000      0.0000000E+00
  -2.170000      0.0000000E+00
  -2.160000      0.0000000E+00
  -2.150000      0.0000000E+00
  -2.140000      0.0000000E+00
  -2.130000      0.0000000E+00
  -2.120000      0.0000000E+00
  -2.110000      0.0000000E+00
  -2.100000      0.0000000E+00
  -2.090000      0.0000000E+00
  -2.080000      0.0000000E+00
  -2.070000      0.0000000E+00
  -2.060000      0.0000000E+00
  -2.050000      0.0000000E+00
  -2.040000      0.0000000E+00
  -2.030000      0.0000000E+00
  -2.020000      0.0000000E+00
  -2.010000      0.0000000E+00
  -2.000000      0.0000000E+00
  -1.990000      0.0000000E+00
  -1.980000      0.0000000E+00
  -1.970000      0.0000000E+00
  -1.960000      0.0000000E+00
  -1.950000      0.0000000E+00
  -1.940000      0.0000000E+00
  -1.930000      0.0000000E+00
  -1.920000      0.0000000E+00
  -1.910000      0.0000000E+00
  -1.900000      0.0000000E+00
  -1.890000      0.0000000E+00
  -1.880000      0.0000000E+00
  -1.870000      0.0000000E+00
  -1.860000      0.0000000E+00
  -1.850000      0.0000000E+00
  -1.840000      0.0000000E+00
  -1.830000      0.0000000E+00
  -1.820000      0.0000000E+00
  -1.810000      0.0000000E+00
  -1.800000      0.0000000E+00
  -1.790000      0.0000000E+00
  -1.780000      0.0000000E+00
  -1.770000      0.0000000E+00
  -1.760000      0.0000000E+00
  -1.750000      0.0000000E+00
  -1.740000      0.0000000E+00
  -1.730000      0.0000000E+00
  -1.720000      0.0000000E+00
  -1.710000      0.0000000E+00
  -1.700000      0.0000000E+00
  -1.690000      0.0000000E+00
  -1.680000      0.0000000E+00
  -1.670000      0.0000000E+00
  -1.660000      0.0000000E+00
  -1.650000      0.0000000E+00
  -1.640000      0.0000000E+00
  -1.630000      0.0000000E+00
  -1.620000      0.0000000E+00
  -1.610000      0.0000000E+00
  -1.600000      0.0000000E+00
  -1.590000      0.0000000E+00
  -1.580000      0.0000000E+00
  -1.570000      0.0000000E+00
  -1.560000      0.0000000E+00
  -1.550000      0.0000000E+00
  -1.540000      0.0000000E+00
  -1.530000      0.0000000E+00
  -1.520000      0.0000000E+00
  -1.510000      0.0000000E+00
  -1.500000      0.0000000E+00
  -1.490000      0.0000000E+00
  -1.480000      0.0000000E+00
  -1.470000      0.0000000E+00
  -1.460000      0.0000000E+00
  -1.450000      0.0000000E+00
  -1.440000      0.0000000E+00
  -1.430000      0.0000000E+00
  -1.420000      0.0000000E+00
  -1.410000      0.0000000E+00
  -1.400000      0.0000000E+00
  -1.390000      0.0000000E+00
  -1.380000      0.0000000E+00
  -1.370000      0.0000000E+00
  -1.360000      0.0000000E+00
  -1.350000      0.0000000E+00
  -1.340000      0.0000000E+00
  -1.330000      0.0000000E+00
  -1.320000      0.0000000E+00
  -1.310000      0.0000000E+00
  -1.300000      0.0000000E+00
  -1.290000      0.0000000E+00
  -1.280000      0.0000000E+00
  -1.270000      0.0000000E+00
  -1.260000      0.0000000E+00
  -1.250000      0.0000000E+00
  -1.240000      0.0000000E+00
  -1.230000      0.0000000E+00
  -1.220000      0.0000000E+00
  -1.210000      0.0000000E+00
  -1.200000      0.0000000E+00
  -1.190000      0.0000000E+00
  -1.180000      0.0000000E+00
  -1.170000      0.0000000E+00
  -1.160000      0.0000000E+00
  -1.150000      0.0000000E+00
  -1.140000      0.0000000E+00
  -1.130000      0.0000000E+00
  -1.120000      0.0000000E+00
  -1.110000      0.0000000E+00
  -1.100000      0.0000000E+00
  -1.090000      0.0000000E+00
  -1.080000      0.0000000E+00
  -1.070000      0.0000000E+00
  -1.060000      0.0000000E+00
  -1.050000      0.0000000E+00
  -1.040000      0.0000000E+00
  -1.030000      0.0000000E+00
  -1.020000      0.0000000E+00
  -1.010000      0.0000000E+00
  -1.000000      0.0000000E+00
 -0.9900000      0.0000000E+00
 -0.9800000      0.0000000E+00
 -0.9700000      0.0000000E+00
 -0.9600000      0.0000000E+00
 -0.9500000      0.0000000E+00
 -0.9400000      0.0000000E+00
 -0.9300000      0.0000000E+00
 -0.9200000      0.0000000E+00
 -0.9100000      0.0000000E+00
 -0.9000000      0.0000000E+00
 -0.8900000      0.0000000E+00
 -0.8800000      0.0000000E+00
 -0.8700000      0.0000000E+00
 -0.8600000      0.0000000E+00
 -0.8500000      0.0000000E+00
 -0.8400000      0.0000000E+00
 -0.8300000      0.0000000E+00
 -0.8200000      0.0000000E+00
 -0.8100000      0.0000000E+00
 -0.8000000      0.0000000E+00
 -0.7900000      0.0000000E+00
 -0.7800000      0.0000000E+00
 -0.7700000      0.0000000E+00
 -0.7600000      0.0000000E+00
 -0.7500000      0.0000000E+00
 -0.7400000      0.0000000E+00
 -0.7300000      0.0000000E+00
 -0.7200000      0.0000000E+00
 -0.7100000      0.0000000E+00
 -0.7000000      0.0000000E+00
 -0.6900000      0.0000000E+00
 -0.6800000      0.0000000E+00
 -0.6700000      0.0000000E+00
 -0.6600000      0.0000000E+00
 -0.6500000      0.0000000E+00
 -0.6400000      0.0000000E+00
 -0.6300000      0.0000000E+00
 -0.6200000      0.0000000E+00
 -0.6100000      0.0000000E+00
 -0.6000000      0.0000000E+00
 -0.5900000      0.0000000E+00
 -0.5800000      0.0000000E+00
 -0.5700000      0.0000000E+00
 -0.5600000      0.0000000E+00
 -0.5500000      0.0000000E+00
 -0.5400000      0.0000000E+00
 -0.5300000      0.0000000E+00
 -0.5200000      0.0000000E+00
 -0.5100000      0.0000000E+00
 -0.5000000      0.0000000E+00
 -0.4900000      0.0000000E+00
 -0.4800000      0.0000000E+00
 -0.4700000      0.0000000E+00
 -0.4600000      0.0000000E+00
 -0.4500000      0.0000000E+00
 -0.4400000      0.0000000E+00
 -0.4300000      0.0000000E+00
 -0.4200000      0.0000000E+00
 -0.4100000      0.0000000E+00
 -0.4000000      0.0000000E+00
 -0.3900000      0.0000000E+00
 -0.3800000      0.0000000E+00
 -0.3700000      0.0000000E+00
 -0.3600000      0.0000000E+00
 -0.3500000      0.0000000E+00
 -0.3400000      0.0000000E+00
 -0.3300000      0.0000000E+00
 -0.3200000      0.0000000E+00
 -0.3100000      0.0000000E+00
 -0.3000000      0.0000000E+00
 -0.2900000      0.0000000E+00
 -0.2800000      0.0000000E+00
 -0.2700000      0.0000000E+00
 -0.2600000      0.0000000E+00
 -0.2500000      0.0000000E+00
 -0.2400000      0.0000000E+00
 -0.2300000      0.0000000E+00
 -0.2200000      0.0000000E+00
 -0.2100000      0.0000000E+00
 -0.2000000      0.0000000E+00
 -0.1900000      0.0000000E+00
 -0.1800000      0.0000000E+00
 -0.1700000      0.0000000E+00
 -0.1600000      0.0000000E+00
 -0.1500000      0.0000000E+00
 -0.1400000      0.0000000E+00
 -0.1300000      0.0000000E+00
 -0.1200000      0.0000000E+00
 -0.1100000      0.0000000E+00
 -0.1000000      0.0000000E+00
 -9.0000004E-02  0.0000000E+00
 -7.9999998E-02  0.0000000E+00
 -7.0000000E-02  0.0000000E+00
 -5.9999999E-02  0.0000000E+00
 -5.0000001E-02  0.0000000E+00
 -3.9999999E-02  0.0000000E+00
 -2.9999999E-02  0.0000000E+00
 -2.0000000E-02  0.0000000E+00
 -9.9999998E-03  0.0000000E+00
 -3.4694470E-17  0.0000000E+00
  9.9999998E-03  0.0000000E+00
  2.0000000E-02  0.0000000E+00
  2.9999999E-02  0.0000000E+00
  3.9999999E-02  0.0000000E+00
  5.0000001E-02  0.0000000E+00
  5.9999999E-02  0.0000000E+00
  7.0000000E-02  0.0000000E+00
  7.9999998E-02  0.0000000E+00
  9.0000004E-02  0.0000000E+00
  0.1000000      0.0000000E+00
  0.1100000      0.0000000E+00
  0.1200000      0.0000000E+00
  0.1300000      0.0000000E+00
  0.1400000      0.0000000E+00
  0.1500000      0.0000000E+00
  0.1600000      0.0000000E+00
  0.1700000      0.0000000E+00
  0.1800000      0.0000000E+00
  0.1900000      0.0000000E+00
  0.2000000      0.0000000E+00
  0.2100000      0.0000000E+00
  0.2200000      0.0000000E+00
  0.2300000      0.0000000E+00
  0.2400000      0.0000000E+00
  0.2500000      0.0000000E+00
  0.2600000      0.0000000E+00
  0.2700000      0.0000000E+00
  0.2800000      0.0000000E+00
  0.2900000      0.0000000E+00
  0.3000000      0.0000000E+00
  0.3100000      0.0000000E+00
  0.3200000      0.0000000E+00
  0.3300000      0.0000000E+00
  0.3400000      0.0000000E+00
  0.3500000      0.0000000E+00
  0.3600000      0.0000000E+00
  0.3700000      0.0000000E+00
  0.3800000      0.0000000E+00
  0.3900000      0.0000000E+00
  0.4000000      0.0000000E+00
  0.4100000      0.0000000E+00
  0.4200000      0.0000000E+00
  0.4300000      0.0000000E+00
  0.4400000      0.0000000E+00
  0.4500000      0.0000000E+00
  0.4600000      0.0000000E+00
  0.4700000      0.0000000E+00
  0.4800000      0.0000000E+00
  0.4900000      0.0000000E+00
  0.5000000      0.0000000E+00
  0.5100000      0.0000000E+00
  0.5200000      0.0000000E+00
  0.5300000      0.0000000E+00
  0.5400000      0.0000000E+00
  0.5500000      0.0000000E+00
  0.5600000      0.0000000E+00
  0.5700000      0.0000000E+00
  0.5800000      0.0000000E+00
  0.5900000      0.0000000E+00
  0.6000000      0.0000000E+00
  0.6100000      0.0000000E+00
  0.6200000      0.0000000E+00
  0.6300000      0.0000000E+00
  0.6400000      0.0000000E+00
  0.6500000      0.0000000E+00
  0.6600000      0.0000000E+00
  0.6700000      0.0000000E+00
  0.6800000      0.0000000E+00
  0.6900000      0.0000000E+00
  0.7000000      0.0000000E+00
  0.7100000      0.0000000E+00
  0.7200000      0.0000000E+00
  0.7300000      0.0000000E+00
  0.7400000      0.0000000E+00
  0.7500000      0.0000000E+00
  0.7600000      0.0000000E+00
  0.7700000      0.0000000E+00
  0.7800000      0.0000000E+00
  0.7900000      0.0000000E+00
  0.8000000      0.0000000E+00
  0.8100000      0.0000000E+00
  0.8200000      0.0000000E+00
  0.8300000      0.0000000E+00
  0.8400000      0.0000000E+00
  0.8500000      0.0000000E+00
  0.8600000      0.0000000E+00
  0.8700000      0.0000000E+00
  0.8800000      0.0000000E+00
  0.8900000      0.0000000E+00
  0.9000000      0.0000000E+00
  0.9100000      0.0000000E+00
  0.9200000      0.0000000E+00
  0.9300000      0.0000000E+00
  0.9400000      0.0000000E+00
  0.9500000      0.0000000E+00
  0.9600000      0.0000000E+00
  0.9700000      0.0000000E+00
  0.9800000      0.0000000E+00
  0.9900000      0.0000000E+00
   1.000000      0.0000000E+00
   1.010000      0.0000000E+00
   1.020000      0.0000000E+00
   1.030000      0.0000000E+00
   1.040000      0.0000000E+00
   1.050000      0.0000000E+00
   1.060000      0.0000000E+00
   1.070000      0.0000000E+00
   1.080000      0.0000000E+00
   1.090000      0.0000000E+00
   1.100000      0.0000000E+00
   1.110000      0.0000000E+00
   1.120000      0.0000000E+00
   1.130000      0.0000000E+00
   1.140000      0.0000000E+00
   1.150000      0.0000000E+00
   1.160000      0.0000000E+00
   1.170000      0.0000000E+00
   1.180000      0.0000000E+00
   1.190000      0.0000000E+00
   1.200000      0.0000000E+00
   1.210000      0.0000000E+00
   1.220000      0.0000000E+00
   1.230000      0.0000000E+00
   1.240000      0.0000000E+00
   1.250000      0.0000000E+00
   1.260000      0.0000000E+00
   1.270000      0.0000000E+00
   1.280000      0.0000000E+00
   1.290000      0.0000000E+00
   1.300000      0.0000000E+00
   1.310000      0.0000000E+00
   1.320000      0.0000000E+00
   1.330000      0.0000000E+00
   1.340000      0.0000000E+00
   1.350000      0.0000000E+00
   1.360000      0.0000000E+00
   1.370000      0.0000000E+00
   1.380000      0.0000000E+00
   1.390000      0.0000000E+00
   1.400000      0.0000000E+00
   1.410000      0.0000000E+00
   1.420000      0.0000000E+00
   1.430000      0.0000000E+00
   1.440000      0.0000000E+00
   1.450000      0.0000000E+00
   1.460000      0.0000000E+00
   1.470000      0.0000000E+00
   1.480000      0.0000000E+00
   1.490000      0.0000000E+00
   1.500000      0.0000000E+00
   1.510000      0.0000000E+00
   1.520000      0.0000000E+00
   1.530000      0.0000000E+00
   1.540000      0.0000000E+00
   1.550000      0.0000000E+00
   1.560000      0.0000000E+00
   1.570000      0.0000000E+00
   1.580000      0.0000000E+00
   1.590000      0.0000000E+00
   1.600000      0.0000000E+00
   1.610000      0.0000000E+00
   1.620000      0.0000000E+00
   1.630000      0.0000000E+00
   1.640000      0.0000000E+00
   1.650000      0.0000000E+00
   1.660000      0.0000000E+00
   1.670000      0.0000000E+00
   1.680000      0.0000000E+00
   1.690000      0.0000000E+00
   1.700000      0.0000000E+00
   1.710000      0.0000000E+00
   1.720000      0.0000000E+00
   1.730000      0.0000000E+00
   1.740000      0.0000000E+00
   1.750000      0.0000000E+00
   1.760000      0.0000000E+00
   1.770000      0.0000000E+00
   1.780000      0.0000000E+00
   1.790000      0.0000000E+00
   1.800000      0.0000000E+00
   1.810000      0.0000000E+00
   1.820000      0.0000000E+00
   1.830000      0.0000000E+00
   1.840000      0.0000000E+00
   1.850000      0.0000000E+00
   1.860000      0.0000000E+00
   1.870000      0.0000000E+00
   1.880000      0.0000000E+00
   1.890000      0.0000000E+00
   1.900000      0.0000000E+00
   1.910000      0.0000000E+00
   1.920000      0.0000000E+00
   1.930000      0.0000000E+00
   1.940000      0.0000000E+00
   1.950000      0.0000000E+00
   1.960000      0.0000000E+00
   1.970000      0.0000000E+00
   1.980000      0.0000000E+00
   1.990000      0.0000000E+00
   2.000000      0.0000000E+00
   2.010000      0.0000000E+00
   2.020000      0.0000000E+00
   2.030000      0.0000000E+00
   2.040000      0.0000000E+00
   2.050000      0.0000000E+00
   2.060000      0.0000000E+00
   2.070000      0.0000000E+00
   2.080000      0.0000000E+00
   2.090000      0.0000000E+00
   2.100000      0.0000000E+00
   2.110000      0.0000000E+00
   2.120000      0.0000000E+00
   2.130000      0.0000000E+00
   2.140000      0.0000000E+00
   2.150000      0.0000000E+00
   2.160000      0.0000000E+00
   2.170000      0.0000000E+00
   2.180000      0.0000000E+00
   2.190000      0.0000000E+00
   2.200000      0.0000000E+00
   2.210000      0.0000000E+00
   2.220000      0.0000000E+00
   2.230000      0.0000000E+00
   2.240000      0.0000000E+00
   2.250000      0.0000000E+00
   2.260000      0.0000000E+00
   2.270000      0.0000000E+00
   2.280000      0.0000000E+00
   2.290000      0.0000000E+00
   2.300000      0.0000000E+00
   2.310000      0.0000000E+00
   2.320000      0.0000000E+00
   2.330000      0.0000000E+00
   2.340000      0.0000000E+00
   2.350000      0.0000000E+00
   2.360000      0.0000000E+00
   2.370000      0.0000000E+00
   2.380000      0.0000000E+00
   2.390000      0.0000000E+00
   2.400000      0.0000000E+00
   2.410000     -1.2158583E-38
   2.420000     -1.2663061E-38
   2.430000     -1.3180612E-38
   2.440000     -1.3733060E-38
   2.450000     -1.4311349E-38
   2.460000     -1.4873689E-38
   2.470000     -1.6184807E-38
   2.480000     -1.8973812E-38
   2.490000     -2.2409638E-38
   2.500000     -2.5760852E-38
   2.510000     -2.7782897E-38
   2.520000     -2.8404894E-38
   2.530000     -2.8588658E-38
   2.540000     -3.3386446E-38
   2.550000     -4.3822115E-38
   2.560000     -5.5594729E-38
   2.570000     -6.8909631E-38
   2.580000     -8.3978102E-38
   2.590000     -1.0020095E-37
   2.600000     -1.0340773E-37
   2.610000     -9.2100902E-38
   2.620000     -7.9528105E-38
   2.630000     -6.7330132E-38
   2.640000     -5.7216238E-38
   2.650000     -5.1249616E-38
   2.660000     -5.1237862E-38
   2.670000     -5.8020808E-38
   2.680000     -8.2224063E-38
   2.690000     -1.2227529E-37
   2.700000     -1.6536988E-37
   2.710000     -1.7733843E-37
   2.720000     -1.5396932E-37
   2.730000     -1.2618903E-37
   2.740000     -9.4585741E-38
   2.750000     -6.1793888E-38
   2.760000     -3.2351528E-38
   2.770000     -1.7675053E-38
   2.780000     -1.5721317E-38
   2.790000     -1.2205388E-38
   2.800000      0.0000000E+00
   2.810000      0.0000000E+00
   2.820000      0.0000000E+00
   2.830000      1.5906831E-38
   2.840000      1.3508038E-38
   2.850000      1.2956673E-38
   2.860000      1.3988529E-38
   2.870000      2.6586853E-38
   2.880000      4.8360475E-38
   2.890000      6.9819253E-38
   2.900000      9.5279013E-38
   2.910000      1.0432508E-37
   2.920000      9.5630381E-38
   2.930000      9.2662257E-38
   2.940000      9.2361039E-38
   2.950000      9.6183333E-38
   2.960000      1.0357788E-37
   2.970000      1.0834733E-37
   2.980000      1.1336867E-37
   2.990000      1.2033805E-37
   3.000000      1.2538325E-37
   3.010000      1.2978201E-37
   3.020000      1.3899339E-37
   3.030000      1.3776971E-37
   3.040000      8.3507350E-38
   3.050000     -2.1730358E-38
   3.060000     -1.4451286E-37
   3.070000     -2.8216694E-37
   3.080000     -4.3639196E-37
   3.090000     -6.7764301E-37
   3.100000     -9.7066191E-37
   3.110000     -1.3653464E-36
   3.120000     -1.8558603E-36
   3.130000     -2.3077675E-36
   3.140000     -2.7588915E-36
   3.150000     -3.2026973E-36
   3.160000     -3.6544468E-36
   3.170000     -3.6230047E-36
   3.180000     -2.9961573E-36
   3.190000     -2.3160546E-36
   3.200000     -1.7437245E-36
   3.210000     -1.3136364E-36
   3.220000     -1.0807205E-36
   3.230000     -1.1154438E-36
   3.240000     -1.7504269E-36
   3.250000     -2.8333010E-36
   3.260000     -3.8447795E-36
   3.270000     -4.8174383E-36
   3.280000     -5.1982044E-36
   3.290000     -4.8949873E-36
   3.300000     -3.9582448E-36
   3.310000     -2.4149536E-36
   3.320000     -9.1180262E-37
   3.330000     -8.2775496E-38
   3.340000      2.6951859E-37
   3.350000      7.7082186E-37
   3.360000      1.2797465E-36
   3.370000      1.8125613E-36
   3.380000      2.4625283E-36
   3.390000      3.1062926E-36
   3.400000      3.4593689E-36
   3.410000      3.2046639E-36
   3.420000      2.2074624E-36
   3.430000      1.0757067E-36
   3.440000      3.6476830E-37
   3.450000      1.3013976E-36
   3.460000      3.6748311E-36
   3.470000      6.0903472E-36
   3.480000      8.5689764E-36
   3.490000      1.0458985E-35
   3.500000      1.1845925E-35
   3.510000      1.3783252E-35
   3.520000      1.6026786E-35
   3.530000      1.7835606E-35
   3.540000      1.9568378E-35
   3.550000      2.1310266E-35
   3.560000      2.2898852E-35
   3.570000      2.4580310E-35
   3.580000      2.6006194E-35
   3.590000      2.6010453E-35
   3.600000      2.4554745E-35
   3.610000      2.2881991E-35
   3.620000      2.1549934E-35
   3.630000      2.1269064E-35
   3.640000      2.1808501E-35
   3.650000      2.2756087E-35
   3.660000      2.4024697E-35
   3.670000      2.5200799E-35
   3.680000      2.7032694E-35
   3.690000      2.9614411E-35
   3.700000      3.1901269E-35
   3.710000      3.3933724E-35
   3.720000      3.5904935E-35
   3.730000      3.6938906E-35
   3.740000      3.6457225E-35
   3.750000      3.4485230E-35
   3.760000      3.0223228E-35
   3.770000      2.3898740E-35
   3.780000      1.6825002E-35
   3.790000      9.3431181E-36
   3.800000      2.7255769E-36
   3.810000     -2.6479239E-36
   3.820000     -7.4238265E-36
   3.830000     -1.1322450E-35
   3.840000     -1.4397886E-35
   3.850000     -1.7139616E-35
   3.860000     -1.9719889E-35
   3.870000     -2.1962809E-35
   3.880000     -2.4188305E-35
   3.890000     -2.6282739E-35
   3.900000     -2.8820754E-35
   3.910000     -3.3885507E-35
   3.920000     -4.0928742E-35
   3.930000     -4.9323370E-35
   3.940000     -5.9430193E-35
   3.950000     -7.1116467E-35
   3.960000     -8.4570838E-35
   3.970000     -9.8050693E-35
   3.980000     -1.1025777E-34
   3.990000     -1.2003637E-34
   4.000000     -1.2804234E-34
   4.010000     -1.3485802E-34
   4.020000     -1.4025611E-34
   4.030000     -1.4521246E-34
   4.040000     -1.5011567E-34
   4.050000     -1.5356795E-34
   4.060000     -1.5518293E-34
   4.070000     -1.6054475E-34
   4.080000     -1.6915631E-34
   4.090000     -1.7870415E-34
   4.100000     -1.9144031E-34
   4.110000     -2.0608260E-34
   4.120000     -2.2042496E-34
   4.130000     -2.2572063E-34
   4.140000     -2.2127818E-34
   4.150000     -2.0996430E-34
   4.160000     -1.8475346E-34
   4.170000     -1.4902005E-34
   4.180000     -1.1486670E-34
   4.190000     -8.8393640E-35
   4.200000     -7.0508705E-35
   4.210000     -5.4875497E-35
   4.220000     -3.4764984E-35
   4.230000     -8.1361471E-36
   4.240000      1.5533854E-35
   4.250000      2.9482647E-35
   4.260000      3.5141142E-35
   4.270000      3.3919854E-35
   4.280000      3.4864353E-35
   4.290000      4.6511258E-35
   4.300000      7.3963505E-35
   4.310000      1.1798074E-34
   4.320000      1.8155478E-34
   4.330000      2.5791990E-34
   4.340000      3.3804217E-34
   4.350000      4.2631686E-34
   4.360000      5.1915373E-34
   4.370000      6.0528316E-34
   4.380000      6.7998413E-34
   4.390000      7.4495701E-34
   4.400000      8.0767445E-34
   4.410000      8.6023246E-34
   4.420000      8.9724510E-34
   4.430000      9.3122763E-34
   4.440000      9.6430825E-34
   4.450000      9.9534856E-34
   4.460000      1.0225714E-33
   4.470000      1.0542110E-33
   4.480000      1.0992286E-33
   4.490000      1.1551803E-33
   4.500000      1.2230616E-33
   4.510000      1.2982074E-33
   4.520000      1.3738633E-33
   4.530000      1.4502827E-33
   4.540000      1.5177823E-33
   4.550000      1.5661879E-33
   4.560000      1.5892393E-33
   4.570000      1.5793709E-33
   4.580000      1.5385332E-33
   4.590000      1.4698771E-33
   4.600000      1.3784187E-33
   4.610000      1.2686462E-33
   4.620000      1.1439442E-33
   4.630000      1.0109741E-33
   4.640000      8.7807114E-34
   4.650000      7.5264566E-34
   4.660000      6.3631066E-34
   4.670000      5.2565481E-34
   4.680000      4.1097294E-34
   4.690000      2.8424560E-34
   4.700000      1.4509625E-34
   4.710000     -1.1264200E-35
   4.720000     -1.9511002E-34
   4.730000     -4.1053966E-34
   4.740000     -6.5963164E-34
   4.750000     -9.4264582E-34
   4.760000     -1.2740444E-33
   4.770000     -1.6575793E-33
   4.780000     -2.0666789E-33
   4.790000     -2.4830127E-33
   4.800000     -2.9101299E-33
   4.810000     -3.3486557E-33
   4.820000     -3.7896637E-33
   4.830000     -4.2326624E-33
   4.840000     -4.6759292E-33
   4.850000     -5.1213475E-33
   4.860000     -5.5728997E-33
   4.870000     -6.0343176E-33
   4.880000     -6.5101008E-33
   4.890000     -7.0030877E-33
   4.900000     -7.5179645E-33
   4.910000     -8.0538165E-33
   4.920000     -8.6095124E-33
   4.930000     -9.1861423E-33
   4.940000     -9.7760774E-33
   4.950000     -1.0368961E-32
   4.960000     -1.0954556E-32
   4.970000     -1.1521976E-32
   4.980000     -1.2060760E-32
   4.990000     -1.2561393E-32
   5.000000     -1.3016541E-32
   5.010000     -1.3420950E-32
   5.020000     -1.3770715E-32
   5.030000     -1.4064057E-32
   5.040000     -1.4300477E-32
   5.050000     -1.4480176E-32
   5.060000     -1.4603237E-32
   5.070000     -1.4668393E-32
   5.080000     -1.4673643E-32
   5.090000     -1.4614006E-32
   5.100000     -1.4480523E-32
   5.110000     -1.4264858E-32
   5.120000     -1.3956875E-32
   5.130000     -1.3542679E-32
   5.140000     -1.3008652E-32
   5.150000     -1.2341277E-32
   5.160000     -1.1528214E-32
   5.170000     -1.0559035E-32
   5.180000     -9.4247926E-33
   5.190000     -8.1191799E-33
   5.200000     -6.6385265E-33
   5.210000     -4.9801912E-33
   5.220000     -3.1476477E-33
   5.230000     -1.1375701E-33
   5.240000      1.0546634E-33
   5.250000      3.4263199E-33
   5.260000      5.9796465E-33
   5.270000      8.7204901E-33
   5.280000      1.1651540E-32
   5.290000      1.4776953E-32
   5.300000      1.8106583E-32
   5.310000      2.1648211E-32
   5.320000      2.5409036E-32
   5.330000      2.9394791E-32
   5.340000      3.3608912E-32
   5.350000      3.8051910E-32
   5.360000      4.2720932E-32
   5.370000      4.7609584E-32
   5.380000      5.2708026E-32
   5.390000      5.8003687E-32
   5.400000      6.3481268E-32
   5.410000      6.9123893E-32
   5.420000      7.4913526E-32
   5.430000      8.0831006E-32
   5.440000      8.6857278E-32
   5.450000      9.2972893E-32
   5.460000      9.9158050E-32
   5.470000      1.0539234E-31
   5.480000      1.1165414E-31
   5.490000      1.1791990E-31
   5.500000      1.2416342E-31
   5.510000      1.3035511E-31
   5.520000      1.3646142E-31
   5.530000      1.4244451E-31
   5.540000      1.4826198E-31
   5.550000      1.5386706E-31
   5.560000      1.5920894E-31
   5.570000      1.6423336E-31
   5.580000      1.6888318E-31
   5.590000      1.7309914E-31
   5.600000      1.7682046E-31
   5.610000      1.7998538E-31
   5.620000      1.8253154E-31
   5.630000      1.8439613E-31
   5.640000      1.8551540E-31
   5.650000      1.8582462E-31
   5.660000      1.8525785E-31
   5.670000      1.8374733E-31
   5.680000      1.8122216E-31
   5.690000      1.7760845E-31
   5.700000      1.7282954E-31
   5.710000      1.6680581E-31
   5.720000      1.5945479E-31
   5.730000      1.5069079E-31
   5.740000      1.4042657E-31
   5.750000      1.2857434E-31
   5.760000      1.1504673E-31
   5.770000      9.9757646E-32
   5.780000      8.2623464E-32
   5.790000      6.3563870E-32
   5.800000      4.2502664E-32
   5.810000      1.9368337E-32
   5.820000     -5.9073631E-33
   5.830000     -3.3383760E-32
   5.840000     -6.3114901E-32
   5.850000     -9.5153182E-32
   5.860000     -1.2954384E-31
   5.870000     -1.6632642E-31
   5.880000     -2.0553434E-31
   5.890000     -2.4719440E-31
   5.900000     -2.9132592E-31
   5.910000     -3.3793972E-31
   5.920000     -3.8703702E-31
   5.930000     -4.3860788E-31
   5.940000     -4.9263022E-31
   5.950000     -5.4906824E-31
   5.960000     -6.0787145E-31
   5.970000     -6.6897341E-31
   5.980000     -7.3229099E-31
   5.990000     -7.9772357E-31
   6.000000     -8.6515246E-31
   6.010000     -9.3444061E-31
   6.020000     -1.0054317E-30
   6.030000     -1.0779504E-30
   6.040000     -1.1518015E-30
   6.050000     -1.2267694E-30
   6.060000     -1.3026176E-30
   6.070000     -1.3790874E-30
   6.080000     -1.4558973E-30
   6.090000     -1.5327416E-30
   6.100000     -1.6092894E-30
   6.110000     -1.6851829E-30
   6.120000     -1.7600368E-30
   6.130000     -1.8334379E-30
   6.140000     -1.9049430E-30
   6.150000     -1.9740803E-30
   6.160000     -2.0403479E-30
   6.170000     -2.1032152E-30
   6.180000     -2.1621227E-30
   6.190000     -2.2164834E-30
   6.200000     -2.2656837E-30
   6.210000     -2.3090849E-30
   6.220000     -2.3460230E-30
   6.230000     -2.3758119E-30
   6.240000     -2.3977429E-30
   6.250000     -2.4110867E-30
   6.260000     -2.4150945E-30
   6.270000     -2.4089985E-30
   6.280000     -2.3920136E-30
   6.290000     -2.3633389E-30
   6.300000     -2.3221581E-30
   6.310000     -2.2676418E-30
   6.320000     -2.1989503E-30
   6.330000     -2.1152346E-30
   6.340000     -2.0156407E-30
   6.350000     -1.8993122E-30
   6.360000     -1.7653928E-30
   6.370000     -1.6130312E-30
   6.380000     -1.4413867E-30
   6.390000     -1.2496311E-30
   6.400000     -1.0369546E-30
   6.410000     -8.0257065E-31
   6.420000     -5.4572137E-31
   6.430000     -2.6568262E-31
   6.440000      3.8230817E-32
   6.450000      3.6666006E-31
   6.460000      7.2019544E-31
   6.470000      1.0993699E-30
   6.480000      1.5046540E-30
   6.490000      1.9364477E-30
   6.500000      2.3950741E-30
   6.510000      2.8807716E-30
   6.520000      3.3936868E-30
   6.530000      3.9338646E-30
   6.540000      4.5012436E-30
   6.550000      5.0956454E-30
   6.560000      5.7167657E-30
   6.570000      6.3641670E-30
   6.580000      7.0372720E-30
   6.590000      7.7353539E-30
   6.600000      8.4575273E-30
   6.610000      9.2027433E-30
   6.620000      9.9697810E-30
   6.630000      1.0757239E-29
   6.640000      1.1563529E-29
   6.650000      1.2386873E-29
   6.660000      1.3225287E-29
   6.670000      1.4076581E-29
   6.680000      1.4938351E-29
   6.690000      1.5807968E-29
   6.700000      1.6682578E-29
   6.710000      1.7559090E-29
   6.720000      1.8434172E-29
   6.730000      1.9304243E-29
   6.740000      2.0165468E-29
   6.750000      2.1013757E-29
   6.760000      2.1844755E-29
   6.770000      2.2653843E-29
   6.780000      2.3436134E-29
   6.790000      2.4186472E-29
   6.800000      2.4899441E-29
   6.810000      2.5569353E-29
   6.820000      2.6190258E-29
   6.830000      2.6755952E-29
   6.840000      2.7259977E-29
   6.850000      2.7695637E-29
   6.860000      2.8055993E-29
   6.870000      2.8333890E-29
   6.880000      2.8521954E-29
   6.890000      2.8612614E-29
   6.900000      2.8598119E-29
   6.910000      2.8470550E-29
   6.920000      2.8221840E-29
   6.930000      2.7843795E-29
   6.940000      2.7328112E-29
   6.950000      2.6666417E-29
   6.960000      2.5850280E-29
   6.970000      2.4871247E-29
   6.980000      2.3720873E-29
   6.990000      2.2390750E-29
   7.000000      2.0872553E-29
   7.010000      1.9158068E-29
   7.020000      1.7239231E-29
   7.030000      1.5108179E-29
   7.040000      1.2757282E-29
   7.050000      1.0179194E-29
   7.060000      7.3669085E-30