  -2.600000      0.0000000E+00
  -2.590000      0.0000000E+00
  -2.580000      0.0000000E+00
  -2.570000      0.0000000E+00
  -2.560000      0.0000000E+00
  -2.550000      0.0000000E+00
  -2.540000      0.0000000E+00
  -2.530000      0.0000000E+00
  -2.520000      0.0000000E+00
  -2.510000      0.0000000E+00
  -2.500000      0.0000000E+00
  -2.490000      0.0000000E+00
  -2.480000      0.0000000E+00
  -2.470000      0.0000000E+00
  -2.460000      0.0000000E+00
  -2.450000      0.0000000E+00
  -2.440000      0.0000000E+00
  -2.430000      0.0000000E+00
  -2.420000      0.0000000E+00
  -2.410000      0.0000000E+00
  -2.400000      0.0000000E+00
  -2.390000      0.0000000E+00
  -2.380000      0.0000000E+00
  -2.370000      0.0000000E+00
  -2.360000      0.0000000E+00
  -2.350000      0.0000000E+00
  -2.340000      0.0000000E+00
  -2.330000      0.0000000E+00
  -2.320000      0.0000000E+00
  -2.310000      0.0000000E+00
  -2.300000      0.0000000E+00
  -2.290000      0.0000000E+00
  -2.280000      0.0000000E+00
  -2.270000      0.0000000E+00
  -2.260000      0.0000000E+00
  -2.250000      0.0000000E+00
  -2.240000      0.0000000E+00
  -2.230000      0.0000000E+00
  -2.220000      0.0000000E+00
  -2.210000      0.0000000E+00
  -2.200000      0.0000000E+00
  -2.190000      0.0000000E+00
  -2.180000      0.0000000E+00
  -2.170000      0.0000000E+00
  -2.160000      0.0000000E+00
  -2.150000      0.0000000E+00
  -2.140000      0.0000000E+00
  -2.130000      0.0000000E+00
  -2.120000      0.0000000E+00
  -2.110000      0.0000000E+00
  -2.100000      0.0000000E+00
  -2.090000      0.0000000E+00
  -2.080000      0.0000000E+00
  -2.070000      0.0000000E+00
  -2.060000      0.0000000E+00
  -2.050000      0.0000000E+00
  -2.040000      0.0000000E+00
  -2.030000      0.0000000E+00
  -2.020000      0.0000000E+00
  -2.010000      0.0000000E+00
  -2.000000      0.0000000E+00
  -1.990000      0.0000000E+00
  -1.980000      0.0000000E+00
  -1.970000      0.0000000E+00
  -1.960000      0.0000000E+00
  -1.950000      0.0000000E+00
  -1.940000      0.0000000E+00
  -1.930000      0.0000000E+00
  -1.920000      0.0000000E+00
  -1.910000      0.0000000E+00
  -1.900000      0.0000000E+00
  -1.890000      0.0000000E+00
  -1.880000      0.0000000E+00
  -1.870000      0.0000000E+00
  -1.860000      0.0000000E+00
  -1.850000      0.0000000E+00
  -1.840000      0.0000000E+00
  -1.830000      0.0000000E+00
  -1.820000      0.0000000E+00
  -1.810000      0.0000000E+00
  -1.800000      0.0000000E+00
  -1.790000      0.0000000E+00
  -1.780000      0.0000000E+00
  -1.770000      0.0000000E+00
  -1.760000      0.0000000E+00
  -1.750000      0.0000000E+00
  -1.740000      0.0000000E+00
  -1.730000      0.0000000E+00
  -1.720000      0.0000000E+00
  -1.710000      0.0000000E+00
  -1.700000      0.0000000E+00
  -1.690000      0.0000000E+00
  -1.680000      0.0000000E+00
  -1.670000      0.0000000E+00
  -1.660000      0.0000000E+00
  -1.650000      0.0000000E+00
  -1.640000      0.0000000E+00
  -1.630000      0.0000000E+00
  -1.620000      0.0000000E+00
  -1.610000      0.0000000E+00
  -1.600000      0.0000000E+00
  -1.590000      0.0000000E+00
  -1.580000      0.0000000E+00
  -1.570000      0.0000000E+00
  -1.560000      0.0000000E+00
  -1.550000      0.0000000E+00
  -1.540000      0.0000000E+00
  -1.530000      0.0000000E+00
  -1.520000      0.0000000E+00
  -1.510000      0.0000000E+00
  -1.500000      0.0000000E+00
  -1.490000      0.0000000E+00
  -1.480000      0.0000000E+00
  -1.470000      0.0000000E+00
  -1.460000      0.0000000E+00
  -1.450000      0.0000000E+00
  -1.440000      0.0000000E+00
  -1.430000      0.0000000E+00
  -1.420000      0.0000000E+00
  -1.410000      0.0000000E+00
  -1.400000      0.0000000E+00
  -1.390000      0.0000000E+00
  -1.380000      0.0000000E+00
  -1.370000      0.0000000E+00
  -1.360000      0.0000000E+00
  -1.350000      0.0000000E+00
  -1.340000      0.0000000E+00
  -1.330000      0.0000000E+00
  -1.320000      0.0000000E+00
  -1.310000      0.0000000E+00
  -1.300000      0.0000000E+00
  -1.290000      0.0000000E+00
  -1.280000      0.0000000E+00
  -1.270000      0.0000000E+00
  -1.260000      0.0000000E+00
  -1.250000      0.0000000E+00
  -1.240000      0.0000000E+00
  -1.230000      0.0000000E+00
  -1.220000      0.0000000E+00
  -1.210000      0.0000000E+00
  -1.200000      0.0000000E+00
  -1.190000      0.0000000E+00
  -1.180000      0.0000000E+00
  -1.170000      0.0000000E+00
  -1.160000      0.0000000E+00
  -1.150000      0.0000000E+00
  -1.140000      0.0000000E+00
  -1.130000      0.0000000E+00
  -1.120000      0.0000000E+00
  -1.110000      0.0000000E+00
  -1.100000      0.0000000E+00
  -1.090000      0.0000000E+00
  -1.080000      0.0000000E+00
  -1.070000      0.0000000E+00
  -1.060000      0.0000000E+00
  -1.050000      0.0000000E+00
  -1.040000      0.0000000E+00
  -1.030000      0.0000000E+00
  -1.020000      0.0000000E+00
  -1.010000      0.0000000E+00
  -1.000000      0.0000000E+00
 -0.9900000      0.0000000E+00
 -0.9800000      0.0000000E+00
 -0.9700000      0.0000000E+00
 -0.9600000      0.0000000E+00
 -0.9500000      0.0000000E+00
 -0.9400000      0.0000000E+00
 -0.9300000      0.0000000E+00
 -0.9200000      0.0000000E+00
 -0.9100000      0.0000000E+00
 -0.9000000      0.0000000E+00
 -0.8900000      0.0000000E+00
 -0.8800000      0.0000000E+00
 -0.8700000      0.0000000E+00
 -0.8600000      0.0000000E+00
 -0.8500000      0.0000000E+00
 -0.8400000      0.0000000E+00
 -0.8300000      0.0000000E+00
 -0.8200000      0.0000000E+00
 -0.8100000      0.0000000E+00
 -0.8000000      0.0000000E+00
 -0.7900000      0.0000000E+00
 -0.7800000      0.0000000E+00
 -0.7700000      0.0000000E+00
 -0.7600000      0.0000000E+00
 -0.7500000      0.0000000E+00
 -0.7400000      0.0000000E+00
 -0.7300000      0.0000000E+00
 -0.7200000      0.0000000E+00
 -0.7100000      0.0000000E+00
 -0.7000000      0.0000000E+00
 -0.6900000      0.0000000E+00
 -0.6800000      0.0000000E+00
 -0.6700000      0.0000000E+00
 -0.6600000      0.0000000E+00
 -0.6500000      0.0000000E+00
 -0.6400000      0.0000000E+00
 -0.6300000      0.0000000E+00
 -0.6200000      0.0000000E+00
 -0.6100000      0.0000000E+00
 -0.6000000      0.0000000E+00
 -0.5900000      0.0000000E+00
 -0.5800000      0.0000000E+00
 -0.5700000      0.0000000E+00
 -0.5600000      0.0000000E+00
 -0.5500000      0.0000000E+00
 -0.5400000      0.0000000E+00
 -0.5300000      0.0000000E+00
 -0.5200000      0.0000000E+00
 -0.5100000      0.0000000E+00
 -0.5000000      0.0000000E+00
 -0.4900000      0.0000000E+00
 -0.4800000      0.0000000E+00
 -0.4700000      0.0000000E+00
 -0.4600000      0.0000000E+00
 -0.4500000      0.0000000E+00
 -0.4400000      0.0000000E+00
 -0.4300000      0.0000000E+00
 -0.4200000      0.0000000E+00
 -0.4100000      0.0000000E+00
 -0.4000000      0.0000000E+00
 -0.3900000      0.0000000E+00
 -0.3800000      0.0000000E+00
 -0.3700000      0.0000000E+00
 -0.3600000      0.0000000E+00
 -0.3500000      0.0000000E+00
 -0.3400000      0.0000000E+00
 -0.3300000      0.0000000E+00
 -0.3200000      0.0000000E+00
 -0.3100000      0.0000000E+00
 -0.3000000      0.0000000E+00
 -0.2900000      0.0000000E+00
 -0.2800000      0.0000000E+00
 -0.2700000      0.0000000E+00
 -0.2600000      0.0000000E+00
 -0.2500000      0.0000000E+00
 -0.2400000      0.0000000E+00
 -0.2300000      0.0000000E+00
 -0.2200000      0.0000000E+00
 -0.2100000      0.0000000E+00
 -0.2000000      0.0000000E+00
 -0.1900000      0.0000000E+00
 -0.1800000      0.0000000E+00
 -0.1700000      0.0000000E+00
 -0.1600000      0.0000000E+00
 -0.1500000      0.0000000E+00
 -0.1400000      0.0000000E+00
 -0.1300000      0.0000000E+00
 -0.1200000      0.0000000E+00
 -0.1100000      0.0000000E+00
 -0.1000000      0.0000000E+00
 -9.0000004E-02  0.0000000E+00
 -7.9999998E-02  0.0000000E+00
 -7.0000000E-02  0.0000000E+00
 -5.9999999E-02  0.0000000E+00
 -5.0000001E-02  0.0000000E+00
 -3.9999999E-02  0.0000000E+00
 -2.9999999E-02  0.0000000E+00
 -2.0000000E-02  0.0000000E+00
 -9.9999998E-03  0.0000000E+00
 -3.4694470E-17  0.0000000E+00
  9.9999998E-03  0.0000000E+00
  2.0000000E-02  0.0000000E+00
  2.9999999E-02  0.0000000E+00
  3.9999999E-02  0.0000000E+00
  5.0000001E-02  0.0000000E+00
  5.9999999E-02  0.0000000E+00
  7.0000000E-02  0.0000000E+00
  7.9999998E-02  0.0000000E+00
  9.0000004E-02  0.0000000E+00
  0.1000000      0.0000000E+00
  0.1100000      0.0000000E+00
  0.1200000      0.0000000E+00
  0.1300000      0.0000000E+00
  0.1400000      0.0000000E+00
  0.1500000      0.0000000E+00
  0.1600000      0.0000000E+00
  0.1700000      0.0000000E+00
  0.1800000      0.0000000E+00
  0.1900000      0.0000000E+00
  0.2000000      0.0000000E+00
  0.2100000      0.0000000E+00
  0.2200000      0.0000000E+00
  0.2300000      0.0000000E+00
  0.2400000      0.0000000E+00
  0.2500000      0.0000000E+00
  0.2600000      0.0000000E+00
  0.2700000      0.0000000E+00
  0.2800000      0.0000000E+00
  0.2900000      0.0000000E+00
  0.3000000      0.0000000E+00
  0.3100000      0.0000000E+00
  0.3200000      0.0000000E+00
  0.3300000      0.0000000E+00
  0.3400000      0.0000000E+00
  0.3500000      0.0000000E+00
  0.3600000      0.0000000E+00
  0.3700000      0.0000000E+00
  0.3800000      0.0000000E+00
  0.3900000      0.0000000E+00
  0.4000000      0.0000000E+00
  0.4100000      0.0000000E+00
  0.4200000      0.0000000E+00
  0.4300000      0.0000000E+00
  0.4400000      0.0000000E+00
  0.4500000      0.0000000E+00
  0.4600000      0.0000000E+00
  0.4700000      0.0000000E+00
  0.4800000      0.0000000E+00
  0.4900000      0.0000000E+00
  0.5000000      0.0000000E+00
  0.5100000      0.0000000E+00
  0.5200000      0.0000000E+00
  0.5300000      0.0000000E+00
  0.5400000      0.0000000E+00
  0.5500000      0.0000000E+00
  0.5600000      0.0000000E+00
  0.5700000      0.0000000E+00
  0.5800000      0.0000000E+00
  0.5900000      0.0000000E+00
  0.6000000      0.0000000E+00
  0.6100000      0.0000000E+00
  0.6200000      0.0000000E+00
  0.6300000      0.0000000E+00
  0.6400000      0.0000000E+00
  0.6500000      0.0000000E+00
  0.6600000      0.0000000E+00
  0.6700000      0.0000000E+00
  0.6800000      0.0000000E+00
  0.6900000      0.0000000E+00
  0.7000000      0.0000000E+00
  0.7100000      0.0000000E+00
  0.7200000      0.0000000E+00
  0.7300000      0.0000000E+00
  0.7400000      0.0000000E+00
  0.7500000      0.0000000E+00
  0.7600000      0.0000000E+00
  0.7700000      0.0000000E+00
  0.7800000      0.0000000E+00
  0.7900000      0.0000000E+00
  0.8000000      0.0000000E+00
  0.8100000      0.0000000E+00
  0.8200000      0.0000000E+00
  0.8300000      0.0000000E+00
  0.8400000      0.0000000E+00
  0.8500000      0.0000000E+00
  0.8600000      0.0000000E+00
  0.8700000      0.0000000E+00
  0.8800000      0.0000000E+00
  0.8900000      0.0000000E+00
  0.9000000      0.0000000E+00
  0.9100000      0.0000000E+00
  0.9200000      0.0000000E+00
  0.9300000      0.0000000E+00
  0.9400000      0.0000000E+00
  0.9500000      0.0000000E+00
  0.9600000      0.0000000E+00
  0.9700000      0.0000000E+00
  0.9800000      0.0000000E+00
  0.9900000      0.0000000E+00
   1.000000      0.0000000E+00
   1.010000      0.0000000E+00
   1.020000      0.0000000E+00
   1.030000      0.0000000E+00
   1.040000      0.0000000E+00
   1.050000      0.0000000E+00
   1.060000      0.0000000E+00
   1.070000      0.0000000E+00
   1.080000      0.0000000E+00
   1.090000      0.0000000E+00
   1.100000      0.0000000E+00
   1.110000      0.0000000E+00
   1.120000      0.0000000E+00
   1.130000      0.0000000E+00
   1.140000      0.0000000E+00
   1.150000      0.0000000E+00
   1.160000      0.0000000E+00
   1.170000      0.0000000E+00
   1.180000      0.0000000E+00
   1.190000      0.0000000E+00
   1.200000      0.0000000E+00
   1.210000      0.0000000E+00
   1.220000      0.0000000E+00
   1.230000      0.0000000E+00
   1.240000      0.0000000E+00
   1.250000      0.0000000E+00
   1.260000      0.0000000E+00
   1.270000      0.0000000E+00
   1.280000      0.0000000E+00
   1.290000      0.0000000E+00
   1.300000      0.0000000E+00
   1.310000      0.0000000E+00
   1.320000      0.0000000E+00
   1.330000      0.0000000E+00
   1.340000      0.0000000E+00
   1.350000      0.0000000E+00
   1.360000      0.0000000E+00
   1.370000      0.0000000E+00
   1.380000      0.0000000E+00
   1.390000      0.0000000E+00
   1.400000      0.0000000E+00
   1.410000      0.0000000E+00
   1.420000      0.0000000E+00
   1.430000      0.0000000E+00
   1.440000      0.0000000E+00
   1.450000      0.0000000E+00
   1.460000      0.0000000E+00
   1.470000      0.0000000E+00
   1.480000      0.0000000E+00
   1.490000      0.0000000E+00
   1.500000      0.0000000E+00
   1.510000      0.0000000E+00
   1.520000      0.0000000E+00
   1.530000      0.0000000E+00
   1.540000      0.0000000E+00
   1.550000      0.0000000E+00
   1.560000      0.0000000E+00
   1.570000      0.0000000E+00
   1.580000      0.0000000E+00
   1.590000      0.0000000E+00
   1.600000      0.0000000E+00
   1.610000      0.0000000E+00
   1.620000      0.0000000E+00
   1.630000      0.0000000E+00
   1.640000      0.0000000E+00
   1.650000      0.0000000E+00
   1.660000      0.0000000E+00
   1.670000      0.0000000E+00
   1.680000      0.0000000E+00
   1.690000      0.0000000E+00
   1.700000      0.0000000E+00
   1.710000      0.0000000E+00
   1.720000      0.0000000E+00
   1.730000      0.0000000E+00
   1.740000      0.0000000E+00
   1.750000      0.0000000E+00
   1.760000      0.0000000E+00
   1.770000      0.0000000E+00
   1.780000      0.0000000E+00
   1.790000      0.0000000E+00
   1.800000      0.0000000E+00
   1.810000      0.0000000E+00
   1.820000      0.0000000E+00
   1.830000      0.0000000E+00
   1.840000      0.0000000E+00
   1.850000      0.0000000E+00
   1.860000      0.0000000E+00
   1.870000      0.0000000E+00
   1.880000      0.0000000E+00
   1.890000      0.0000000E+00
   1.900000      0.0000000E+00
   1.910000      0.0000000E+00
   1.920000      0.0000000E+00
   1.930000      0.0000000E+00
   1.940000      0.0000000E+00
   1.950000      0.0000000E+00
   1.960000      0.0000000E+00
   1.970000      0.0000000E+00
   1.980000      0.0000000E+00
   1.990000      0.0000000E+00
   2.000000      0.0000000E+00
   2.010000      0.0000000E+00
   2.020000      0.0000000E+00
   2.030000      0.0000000E+00
   2.040000      0.0000000E+00
   2.050000      0.0000000E+00
   2.060000      0.0000000E+00
   2.070000      0.0000000E+00
   2.080000      0.0000000E+00
   2.090000      0.0000000E+00
   2.100000      0.0000000E+00
   2.110000      0.0000000E+00
   2.120000      0.0000000E+00
   2.130000      0.0000000E+00
   2.140000      0.0000000E+00
   2.150000      0.0000000E+00
   2.160000      0.0000000E+00
   2.170000      0.0000000E+00
   2.180000      0.0000000E+00
   2.190000      0.0000000E+00
   2.200000      0.0000000E+00
   2.210000      0.0000000E+00
   2.220000      0.0000000E+00
   2.230000      0.0000000E+00
   2.240000      0.0000000E+00
   2.250000      0.0000000E+00
   2.260000      0.0000000E+00
   2.270000      0.0000000E+00
   2.280000      0.0000000E+00
   2.290000      0.0000000E+00
   2.300000      0.0000000E+00
   2.310000      0.0000000E+00
   2.320000      0.0000000E+00
   2.330000      0.0000000E+00
   2.340000      0.0000000E+00
   2.350000      0.0000000E+00
   2.360000      0.0000000E+00
   2.370000      0.0000000E+00
   2.380000      0.0000000E+00
   2.390000      0.0000000E+00
   2.400000      0.0000000E+00
   2.410000      0.0000000E+00
   2.420000      0.0000000E+00
   2.430000      0.0000000E+00
   2.440000      0.0000000E+00
   2.450000      0.0000000E+00
   2.460000      0.0000000E+00
   2.470000      0.0000000E+00
   2.480000      0.0000000E+00
   2.490000      0.0000000E+00
   2.500000      0.0000000E+00
   2.510000      0.0000000E+00
   2.520000      0.0000000E+00
   2.530000      0.0000000E+00
   2.540000      0.0000000E+00
   2.550000      0.0000000E+00
   2.560000      0.0000000E+00
   2.570000      0.0000000E+00
   2.580000      0.0000000E+00
   2.590000      0.0000000E+00
   2.600000      1.4621560E-38
   2.610000      1.6757146E-38
   2.620000      2.0188906E-38
   2.630000      2.7059911E-38
   2.640000      3.7327371E-38
   2.650000      4.9917211E-38
   2.660000      6.5237730E-38
   2.670000      8.3730335E-38
   2.680000      1.1047363E-37
   2.690000      1.4562245E-37
   2.700000      1.8454109E-37
   2.710000      2.2504024E-37
   2.720000      2.6577645E-37
   2.730000      3.0864123E-37
   2.740000      3.5036618E-37
   2.750000      3.8888732E-37
   2.760000      4.2453797E-37
   2.770000      4.5830249E-37
   2.780000      4.9053778E-37
   2.790000      5.2202601E-37
   2.800000      5.5521077E-37
   2.810000      5.8484382E-37
   2.820000      6.0836770E-37
   2.830000      6.2804856E-37
   2.840000      6.4834784E-37
   2.850000      6.6971175E-37
   2.860000      6.8009633E-37
   2.870000      6.7791492E-37
   2.880000      6.6816736E-37
   2.890000      6.5310208E-37
   2.900000      6.3770492E-37
   2.910000      6.2262206E-37
   2.920000      6.0955833E-37
   2.930000      5.9497631E-37
   2.940000      5.7770747E-37
   2.950000      5.6176172E-37
   2.960000      5.4553554E-37
   2.970000      5.2507304E-37
   2.980000      4.9832599E-37
   2.990000      4.6308663E-37
   3.000000      4.2352795E-37
   3.010000      3.8062603E-37
   3.020000      3.2815919E-37
   3.030000      2.6789943E-37
   3.040000      2.0009540E-37
   3.050000      1.2506927E-37
   3.060000      4.2466070E-38
   3.070000     -5.2424380E-38
   3.080000     -1.6540971E-37
   3.090000     -2.9793632E-37
   3.100000     -4.5243192E-37
   3.110000     -6.2538345E-37
   3.120000     -8.1448632E-37
   3.130000     -1.0321627E-36
   3.140000     -1.2727462E-36
   3.150000     -1.5253711E-36
   3.160000     -1.7866633E-36
   3.170000     -2.0486971E-36
   3.180000     -2.3098168E-36
   3.190000     -2.5713214E-36
   3.200000     -2.8140068E-36
   3.210000     -3.0345253E-36
   3.220000     -3.2322461E-36
   3.230000     -3.3927917E-36
   3.240000     -3.5280220E-36
   3.250000     -3.6478867E-36
   3.260000     -3.7737587E-36
   3.270000     -3.9013911E-36
   3.280000     -4.0095101E-36
   3.290000     -4.0990935E-36
   3.300000     -4.1556003E-36
   3.310000     -4.1301942E-36
   3.320000     -4.0164050E-36
   3.330000     -3.7995900E-36
   3.340000     -3.4649637E-36
   3.350000     -3.0353113E-36
   3.360000     -2.5493084E-36
   3.370000     -2.0065968E-36
   3.380000     -1.4212152E-36
   3.390000     -8.0271703E-37
   3.400000     -6.4896015E-38
   3.410000      9.1189168E-37
   3.420000      2.0791965E-36
   3.430000      3.2548893E-36
   3.440000      4.4188450E-36
   3.450000      5.2994398E-36
   3.460000      5.9227825E-36
   3.470000      6.6073236E-36
   3.480000      7.5437537E-36
   3.490000      8.7181237E-36
   3.500000      9.8493900E-36
   3.510000      1.0898240E-35
   3.520000      1.1960187E-35
   3.530000      1.3236632E-35
   3.540000      1.4750663E-35
   3.550000      1.6382173E-35
   3.560000      1.8270523E-35
   3.570000      2.0259278E-35
   3.580000      2.2249759E-35
   3.590000      2.4193906E-35
   3.600000      2.5831603E-35
   3.610000      2.7198781E-35
   3.620000      2.8329359E-35
   3.630000      2.9037953E-35
   3.640000      2.9321292E-35
   3.650000      2.9228885E-35
   3.660000      2.8950348E-35
   3.670000      2.8530493E-35
   3.680000      2.7710603E-35
   3.690000      2.6812082E-35
   3.700000      2.5821464E-35
   3.710000      2.4250207E-35
   3.720000      2.2037415E-35
   3.730000      1.9234206E-35
   3.740000      1.5887554E-35
   3.750000      1.2242449E-35
   3.760000      8.2880086E-36
   3.770000      3.8588888E-36
   3.780000     -9.4301710E-37
   3.790000     -5.9551007E-36
   3.800000     -1.1378723E-35
   3.810000     -1.7391178E-35
   3.820000     -2.3892547E-35
   3.830000     -3.0710071E-35
   3.840000     -3.7959387E-35
   3.850000     -4.5746920E-35
   3.860000     -5.4114738E-35
   3.870000     -6.3375062E-35
   3.880000     -7.3128003E-35
   3.890000     -8.3166690E-35
   3.900000     -9.3566785E-35
   3.910000     -1.0404070E-34
   3.920000     -1.1478061E-34
   3.930000     -1.2594789E-34
   3.940000     -1.3740163E-34
   3.950000     -1.4894557E-34
   3.960000     -1.6059245E-34
   3.970000     -1.7232176E-34
   3.980000     -1.8398547E-34
   3.990000     -1.9559055E-34
   4.000000     -2.0715647E-34
   4.010000     -2.1845573E-34
   4.020000     -2.2924980E-34
   4.030000     -2.3933912E-34
   4.040000     -2.4871619E-34
   4.050000     -2.5766317E-34
   4.060000     -2.6626970E-34
   4.070000     -2.7180547E-34
   4.080000     -2.7365045E-34
   4.090000     -2.7276522E-34
   4.100000     -2.6885078E-34
   4.110000     -2.6352584E-34
   4.120000     -2.5727478E-34
   4.130000     -2.4358018E-34
   4.140000     -2.2167165E-34
   4.150000     -1.9848883E-34
   4.160000     -1.7465392E-34
   4.170000     -1.5041899E-34
   4.180000     -1.2575263E-34
   4.190000     -9.5230689E-35
   4.200000     -5.9484210E-35
   4.210000     -2.2816526E-35
   4.220000      1.1308319E-35
   4.230000      3.9441770E-35
   4.240000      6.6784776E-35
   4.250000      9.8104084E-35
   4.260000      1.3042399E-34
   4.270000      1.6234741E-34
   4.280000      1.9478559E-34
   4.290000      2.2770366E-34
   4.300000      2.6373492E-34
   4.310000      3.0355381E-34
   4.320000      3.4650676E-34
   4.330000      3.9318886E-34
   4.340000      4.4042926E-34
   4.350000      4.9167228E-34
   4.360000      5.4692400E-34
   4.370000      6.0460285E-34
   4.380000      6.6869727E-34
   4.390000      7.3613795E-34
   4.400000      8.0488633E-34
   4.410000      8.7777442E-34
   4.420000      9.5503286E-34
   4.430000      1.0321049E-33
   4.440000      1.1101675E-33
   4.450000      1.1884877E-33
   4.460000      1.2610577E-33
   4.470000      1.3245071E-33
   4.480000      1.3830919E-33
   4.490000      1.4396353E-33
   4.500000      1.4904500E-33
   4.510000      1.5313020E-33
   4.520000      1.5604024E-33
   4.530000      1.5764516E-33
   4.540000      1.5794407E-33
   4.550000      1.5723117E-33
   4.560000      1.5537984E-33
   4.570000      1.5224797E-33
   4.580000      1.4783246E-33
   4.590000      1.4203661E-33
   4.600000      1.3456763E-33
   4.610000      1.2531124E-33
   4.620000      1.1438373E-33
   4.630000      1.0187088E-33
   4.640000      8.7639900E-34
   4.650000      7.1383791E-34
   4.660000      5.3079374E-34
   4.670000      3.3000739E-34
   4.680000      1.1241644E-34
   4.690000     -1.2265653E-34
   4.700000     -3.7823351E-34
   4.710000     -6.5385330E-34
   4.720000     -9.4587576E-34
   4.730000     -1.2571407E-33
   4.740000     -1.5915345E-33
   4.750000     -1.9486241E-33
   4.760000     -2.3282166E-33
   4.770000     -2.7280417E-33
   4.780000     -3.1533051E-33
   4.790000     -3.6032785E-33
   4.800000     -4.0737918E-33
   4.810000     -4.5683274E-33
   4.820000     -5.0848403E-33
   4.830000     -5.6233424E-33
   4.840000     -6.1815200E-33
   4.850000     -6.7552935E-33
   4.860000     -7.3473209E-33
   4.870000     -7.9547437E-33
   4.880000     -8.5690217E-33
   4.890000     -9.1899987E-33
   4.900000     -9.8163123E-33
   4.910000     -1.0442847E-32
   4.920000     -1.1063797E-32
   4.930000     -1.1673726E-32
   4.940000     -1.2267454E-32
   4.950000     -1.2839108E-32
   4.960000     -1.3382432E-32
   4.970000     -1.3891030E-32
   4.980000     -1.4357935E-32
   4.990000     -1.4775968E-32
   5.000000     -1.5137980E-32
   5.010000     -1.5436308E-32
   5.020000     -1.5663353E-32
   5.030000     -1.5811495E-32
   5.040000     -1.5872781E-32
   5.050000     -1.5839025E-32
   5.060000     -1.5704096E-32
   5.070000     -1.5456383E-32
   5.080000     -1.5085877E-32
   5.090000     -1.4587014E-32
   5.100000     -1.3950307E-32
   5.110000     -1.3166924E-32
   5.120000     -1.2227907E-32
   5.130000     -1.1124201E-32
   5.140000     -9.8467635E-33
   5.150000     -8.3862904E-33
   5.160000     -6.7332324E-33
   5.170000     -4.8787582E-33
   5.180000     -2.8145131E-33
   5.190000     -5.3073345E-34
   5.200000      1.9819206E-33
   5.210000      4.7314224E-33
   5.220000      7.7258565E-33
   5.230000      1.0972953E-32
   5.240000      1.4479692E-32
   5.250000      1.8252305E-32
   5.260000      2.2296251E-32
   5.270000      2.6615799E-32
   5.280000      3.1214497E-32
   5.290000      3.6094274E-32
   5.300000      4.1255308E-32
   5.310000      4.6696519E-32
   5.320000      5.2414982E-32
   5.330000      5.8405795E-32
   5.340000      6.4661981E-32
   5.350000      7.1174373E-32
   5.360000      7.7931449E-32
   5.370000      8.4919569E-32
   5.380000      9.2121823E-32
   5.390000      9.9518657E-32
   5.400000      1.0708850E-31
   5.410000      1.1480657E-31
   5.420000      1.2264517E-31
   5.430000      1.3057370E-31
   5.440000      1.3855859E-31
   5.450000      1.4656316E-31
   5.460000      1.5454760E-31
   5.470000      1.6246907E-31
   5.480000      1.7028152E-31
   5.490000      1.7793557E-31
   5.500000      1.8537859E-31
   5.510000      1.9255457E-31
   5.520000      1.9940416E-31
   5.530000      2.0586461E-31
   5.540000      2.1186962E-31
   5.550000      2.1734942E-31
   5.560000      2.2223069E-31
   5.570000      2.2643651E-31
   5.580000      2.2988642E-31
   5.590000      2.3249623E-31
   5.600000      2.3417860E-31
   5.610000      2.3484271E-31
   5.620000      2.3439404E-31
   5.630000      2.3273512E-31
   5.640000      2.2976535E-31
   5.650000      2.2538143E-31
   5.660000      2.1947754E-31
   5.670000      2.1194568E-31
   5.680000      2.0267601E-31
   5.690000      1.9155743E-31
   5.700000      1.7847789E-31
   5.710000      1.6332508E-31
   5.720000      1.4598688E-31
   5.730000      1.2635210E-31
   5.740000      1.0431105E-31
   5.750000      7.9756310E-32
   5.760000      5.2583424E-32
   5.770000      2.2691665E-32
   5.780000     -1.0015196E-32
   5.790000     -4.5628074E-32
   5.800000     -8.4231782E-32
   5.810000     -1.2590425E-31
   5.820000     -1.7071554E-31
   5.830000     -2.1872727E-31
   5.840000     -2.6999130E-31
   5.850000     -3.2454901E-31
   5.860000     -3.8243061E-31
   5.870000     -4.4365414E-31
   5.880000     -5.0822447E-31
   5.890000     -5.7613188E-31
   5.900000     -6.4735146E-31
   5.910000     -7.2184193E-31
   5.920000     -7.9954436E-31
   5.930000     -8.8038113E-31
   5.940000     -9.6425491E-31
   5.950000     -1.0510467E-30
   5.960000     -1.1406156E-30
   5.970000     -1.2327963E-30
   5.980000     -1.3273986E-30
   5.990000     -1.4242058E-30
   6.000000     -1.5229735E-30
   6.010000     -1.6234279E-30
   6.020000     -1.7252646E-30
   6.030000     -1.8281478E-30
   6.040000     -1.9317085E-30
   6.050000     -2.0355438E-30
   6.060000     -2.1392156E-30
   6.070000     -2.2422500E-30
   6.080000     -2.3441364E-30
   6.090000     -2.4443265E-30
   6.100000     -2.5422337E-30
   6.110000     -2.6372340E-30
   6.120000     -2.7286639E-30
   6.130000     -2.8158219E-30
   6.140000     -2.8979679E-30
   6.150000     -2.9743235E-30
   6.160000     -3.0440722E-30
   6.170000     -3.1063608E-30
   6.180000     -3.1602994E-30
   6.190000     -3.2049630E-30
   6.200000     -3.2393916E-30
   6.210000     -3.2625927E-30
   6.220000     -3.2735411E-30
   6.230000     -3.2711830E-30
   6.240000     -3.2544357E-30
   6.250000     -3.2221906E-30
   6.260000     -3.1733156E-30
   6.270000     -3.1066574E-30
   6.280000     -3.0210451E-30
   6.290000     -2.9152920E-30
   6.300000     -2.7882009E-30
   6.310000     -2.6385667E-30
   6.320000     -2.4651819E-30
   6.330000     -2.2668402E-30
   6.340000     -2.0423426E-30
   6.350000     -1.7905025E-30
   6.360000     -1.5101514E-30
   6.370000     -1.2001465E-30
   6.380000     -8.5937693E-31
   6.390000     -4.8677061E-31
   6.400000     -8.1303672E-32
   6.410000      3.5799236E-31
   6.420000      8.3202214E-31
   6.430000      1.3416166E-30
   6.440000      1.8875240E-30
   6.450000      2.4704005E-30
   6.460000      3.0907988E-30
   6.470000      3.7491589E-30
   6.480000      4.4457986E-30
   6.490000      5.1809005E-30
   6.500000      5.9545018E-30
   6.510000      6.7664848E-30
   6.520000      7.6165639E-30
   6.530000      8.5042747E-30
   6.540000      9.4289618E-30
   6.550000      1.0389769E-29
   6.560000      1.1385625E-29
   6.570000      1.2415237E-29
   6.580000      1.3477071E-29
   6.590000      1.4569349E-29
   6.600000      1.5690029E-29
   6.610000      1.6836802E-29
   6.620000      1.8007069E-29
   6.630000      1.9197942E-29
   6.640000      2.0406224E-29
   6.650000      2.1628402E-29
   6.660000      2.2860639E-29
   6.670000      2.4098754E-29
   6.680000      2.5338223E-29
   6.690000      2.6574168E-29
   6.700000      2.7801340E-29
   6.710000      2.9014126E-29
   6.720000      3.0206538E-29
   6.730000      3.1372195E-29
   6.740000      3.2504344E-29
   6.750000      3.3595838E-29
   6.760000      3.4639138E-29
   6.770000      3.5626325E-29
   6.780000      3.6549092E-29
   6.790000      3.7398758E-29
   6.800000      3.8166259E-29
   6.810000      3.8842179E-29
   6.820000      3.9416741E-29
   6.830000      3.9879831E-29
   6.840000      4.0221016E-29
   6.850000      4.0429543E-29
   6.860000      4.0494386E-29
   6.870000      4.0404247E-29
   6.880000      4.0147587E-29
   6.890000      3.9712669E-29
   6.900000      3.9087561E-29
   6.910000      3.8260190E-29
   6.920000      3.7218367E-29
   6.930000      3.5949836E-29
   6.940000      3.4442296E-29
   6.950000      3.2683474E-29
   6.960000      3.0661142E-29
   6.970000      2.8363191E-29
   6.980000      2.5777682E-29
   6.990000      2.2892884E-29
   7.000000      1.9697361E-29
   7.010000      1.6180025E-29
   7.020000      1.2330201E-29
   7.030000      8.1377085E-30
   7.040000      3.5929269E-30
   7.050000     -1.3131182E-30
   7.060000     -6.5886748E-30