  -2.600000      0.0000000E+00
  -2.590000      0.0000000E+00
  -2.580000      0.0000000E+00
  -2.570000      0.0000000E+00
  -2.560000      0.0000000E+00
  -2.550000      0.0000000E+00
  -2.540000      0.0000000E+00
  -2.530000      0.0000000E+00
  -2.520000      0.0000000E+00
  -2.510000      0.0000000E+00
  -2.500000      0.0000000E+00
  -2.490000      0.0000000E+00
  -2.480000      0.0000000E+00
  -2.470000      0.0000000E+00
  -2.460000      0.0000000E+00
  -2.450000      0.0000000E+00
  -2.440000      0.0000000E+00
  -2.430000      0.0000000E+00
  -2.420000      0.0000000E+00
  -2.410000      0.0000000E+00
  -2.400000      0.0000000E+00
  -2.390000      0.0000000E+00
  -2.380000      0.0000000E+00
  -2.370000      0.0000000E+00
  -2.360000      0.0000000E+00
  -2.350000      0.0000000E+00
  -2.340000      0.0000000E+00
  -2.330000      0.0000000E+00
  -2.320000      0.0000000E+00
  -2.310000      0.0000000E+00
  -2.300000      0.0000000E+00
  -2.290000      0.0000000E+00
  -2.280000      0.0000000E+00
  -2.270000      0.0000000E+00
  -2.260000      0.0000000E+00
  -2.250000      0.0000000E+00
  -2.240000      0.0000000E+00
  -2.230000      0.0000000E+00
  -2.220000      0.0000000E+00
  -2.210000      0.0000000E+00
  -2.200000      0.0000000E+00
  -2.190000      0.0000000E+00
  -2.180000      0.0000000E+00
  -2.170000      0.0000000E+00
  -2.160000      0.0000000E+00
  -2.150000      0.0000000E+00
  -2.140000      0.0000000E+00
  -2.130000      0.0000000E+00
  -2.120000      0.0000000E+00
  -2.110000      0.0000000E+00
  -2.100000      0.0000000E+00
  -2.090000      0.0000000E+00
  -2.080000      0.0000000E+00
  -2.070000      0.0000000E+00
  -2.060000      0.0000000E+00
  -2.050000      0.0000000E+00
  -2.040000      0.0000000E+00
  -2.030000      0.0000000E+00
  -2.020000      0.0000000E+00
  -2.010000      0.0000000E+00
  -2.000000      0.0000000E+00
  -1.990000      0.0000000E+00
  -1.980000      0.0000000E+00
  -1.970000      0.0000000E+00
  -1.960000      0.0000000E+00
  -1.950000      0.0000000E+00
  -1.940000      0.0000000E+00
  -1.930000      0.0000000E+00
  -1.920000      0.0000000E+00
  -1.910000      0.0000000E+00
  -1.900000      0.0000000E+00
  -1.890000      0.0000000E+00
  -1.880000      0.0000000E+00
  -1.870000      0.0000000E+00
  -1.860000      0.0000000E+00
  -1.850000      0.0000000E+00
  -1.840000      0.0000000E+00
  -1.830000      0.0000000E+00
  -1.820000      0.0000000E+00
  -1.810000      0.0000000E+00
  -1.800000      0.0000000E+00
  -1.790000      0.0000000E+00
  -1.780000      0.0000000E+00
  -1.770000      0.0000000E+00
  -1.760000      0.0000000E+00
  -1.750000      0.0000000E+00
  -1.740000      0.0000000E+00
  -1.730000      0.0000000E+00
  -1.720000      0.0000000E+00
  -1.710000      0.0000000E+00
  -1.700000      0.0000000E+00
  -1.690000      0.0000000E+00
  -1.680000      0.0000000E+00
  -1.670000      0.0000000E+00
  -1.660000      0.0000000E+00
  -1.650000      0.0000000E+00
  -1.640000      0.0000000E+00
  -1.630000      0.0000000E+00
  -1.620000      0.0000000E+00
  -1.610000      0.0000000E+00
  -1.600000      0.0000000E+00
  -1.590000      0.0000000E+00
  -1.580000      0.0000000E+00
  -1.570000      0.0000000E+00
  -1.560000      0.0000000E+00
  -1.550000      0.0000000E+00
  -1.540000      0.0000000E+00
  -1.530000      0.0000000E+00
  -1.520000      0.0000000E+00
  -1.510000      0.0000000E+00
  -1.500000      0.0000000E+00
  -1.490000      0.0000000E+00
  -1.480000      0.0000000E+00
  -1.470000      0.0000000E+00
  -1.460000      0.0000000E+00
  -1.450000      0.0000000E+00
  -1.440000      0.0000000E+00
  -1.430000      0.0000000E+00
  -1.420000      0.0000000E+00
  -1.410000      0.0000000E+00
  -1.400000      0.0000000E+00
  -1.390000      0.0000000E+00
  -1.380000      0.0000000E+00
  -1.370000      0.0000000E+00
  -1.360000      0.0000000E+00
  -1.350000      0.0000000E+00
  -1.340000      0.0000000E+00
  -1.330000      0.0000000E+00
  -1.320000      0.0000000E+00
  -1.310000      0.0000000E+00
  -1.300000      0.0000000E+00
  -1.290000      0.0000000E+00
  -1.280000      0.0000000E+00
  -1.270000      0.0000000E+00
  -1.260000      0.0000000E+00
  -1.250000      0.0000000E+00
  -1.240000      0.0000000E+00
  -1.230000      0.0000000E+00
  -1.220000      0.0000000E+00
  -1.210000      0.0000000E+00
  -1.200000      0.0000000E+00
  -1.190000      0.0000000E+00
  -1.180000      0.0000000E+00
  -1.170000      0.0000000E+00
  -1.160000      0.0000000E+00
  -1.150000      0.0000000E+00
  -1.140000      0.0000000E+00
  -1.130000      0.0000000E+00
  -1.120000      0.0000000E+00
  -1.110000      0.0000000E+00
  -1.100000      0.0000000E+00
  -1.090000      0.0000000E+00
  -1.080000      0.0000000E+00
  -1.070000      0.0000000E+00
  -1.060000      0.0000000E+00
  -1.050000      0.0000000E+00
  -1.040000      0.0000000E+00
  -1.030000      0.0000000E+00
  -1.020000      0.0000000E+00
  -1.010000      0.0000000E+00
  -1.000000      0.0000000E+00
 -0.9900000      0.0000000E+00
 -0.9800000      0.0000000E+00
 -0.9700000      0.0000000E+00
 -0.9600000      0.0000000E+00
 -0.9500000      0.0000000E+00
 -0.9400000      0.0000000E+00
 -0.9300000      0.0000000E+00
 -0.9200000      0.0000000E+00
 -0.9100000      0.0000000E+00
 -0.9000000      0.0000000E+00
 -0.8900000      0.0000000E+00
 -0.8800000      0.0000000E+00
 -0.8700000      0.0000000E+00
 -0.8600000      0.0000000E+00
 -0.8500000      0.0000000E+00
 -0.8400000      0.0000000E+00
 -0.8300000      0.0000000E+00
 -0.8200000      0.0000000E+00
 -0.8100000      0.0000000E+00
 -0.8000000      0.0000000E+00
 -0.7900000      0.0000000E+00
 -0.7800000      0.0000000E+00
 -0.7700000      0.0000000E+00
 -0.7600000      0.0000000E+00
 -0.7500000      0.0000000E+00
 -0.7400000      0.0000000E+00
 -0.7300000      0.0000000E+00
 -0.7200000      0.0000000E+00
 -0.7100000      0.0000000E+00
 -0.7000000      0.0000000E+00
 -0.6900000      0.0000000E+00
 -0.6800000      0.0000000E+00
 -0.6700000      0.0000000E+00
 -0.6600000      0.0000000E+00
 -0.6500000      0.0000000E+00
 -0.6400000      0.0000000E+00
 -0.6300000      0.0000000E+00
 -0.6200000      0.0000000E+00
 -0.6100000      0.0000000E+00
 -0.6000000      0.0000000E+00
 -0.5900000      0.0000000E+00
 -0.5800000      0.0000000E+00
 -0.5700000      1.3914106E-38
 -0.5600000      1.9213988E-38
 -0.5500000      2.4865800E-38
 -0.5400000      3.0177094E-38
 -0.5300000      3.2537993E-38
 -0.5200000      2.9772043E-38
 -0.5100000      2.3259602E-38
 -0.5000000      1.2259865E-38
 -0.4900000      0.0000000E+00
 -0.4800000     -4.2077577E-38
 -0.4700000     -7.9072969E-38
 -0.4600000     -1.2087135E-37
 -0.4500000     -1.7124553E-37
 -0.4400000     -2.2791205E-37
 -0.4300000     -2.6656020E-37
 -0.4200000     -2.7669185E-37
 -0.4100000     -2.6000234E-37
 -0.4000000     -1.0243547E-37
 -0.3900000      5.5658381E-38
 -0.3800000      6.4001976E-38
 -0.3700000      3.2357974E-38
 -0.3600000      0.0000000E+00
 -0.3500000     -1.9167985E-37
 -0.3400000     -5.9424602E-37
 -0.3300000     -1.0381034E-36
 -0.3200000     -1.3894794E-36
 -0.3100000     -1.5719848E-36
 -0.3000000     -1.4651978E-36
 -0.2900000     -9.9272449E-37
 -0.2800000     -4.2994564E-38
 -0.2700000      1.5095341E-36
 -0.2600000      3.4530767E-36
 -0.2500000      5.6953641E-36
 -0.2400000      8.2998166E-36
 -0.2300000      1.1152185E-35
 -0.2200000      1.3916834E-35
 -0.2100000      1.6230753E-35
 -0.2000000      1.7893610E-35
 -0.1900000      1.8639244E-35
 -0.1800000      1.8194565E-35
 -0.1700000      1.6353508E-35
 -0.1600000      1.2827327E-35
 -0.1500000      7.2851557E-36
 -0.1400000     -1.6267483E-37
 -0.1300000     -8.8877324E-36
 -0.1200000     -1.8627949E-35
 -0.1100000     -3.0284204E-35
 -0.1000000     -4.4204491E-35
 -9.0000004E-02 -5.7662779E-35
 -7.9999998E-02 -6.8058511E-35
 -7.0000000E-02 -7.8225344E-35
 -5.9999999E-02 -8.8234678E-35
 -5.0000001E-02 -9.9416333E-35
 -3.9999999E-02 -1.1158886E-34
 -2.9999999E-02 -1.1900487E-34
 -2.0000000E-02 -1.2121189E-34
 -9.9999998E-03 -1.1754309E-34
 -3.4694470E-17 -1.0906253E-34
  9.9999998E-03 -1.0253603E-34
  2.0000000E-02 -9.9921956E-35
  2.9999999E-02 -8.6085423E-35
  3.9999999E-02 -5.2870493E-35
  5.0000001E-02 -1.9496462E-36
  5.9999999E-02  7.7509067E-35
  7.0000000E-02  1.9558550E-34
  7.9999998E-02  3.4136804E-34
  9.0000004E-02  4.9900125E-34
  0.1000000      6.6799790E-34
  0.1100000      8.5475273E-34
  0.1200000      1.0484717E-33
  0.1300000      1.2121696E-33
  0.1400000      1.3572479E-33
  0.1500000      1.4682756E-33
  0.1600000      1.4978341E-33
  0.1700000      1.4384474E-33
  0.1800000      1.2719370E-33
  0.1900000      9.8006979E-34
  0.2000000      5.4324291E-34
  0.2100000     -5.4987353E-35
  0.2200000     -8.3172286E-34
  0.2300000     -1.8089249E-33
  0.2400000     -3.0092984E-33
  0.2500000     -4.4584708E-33
  0.2600000     -6.1855380E-33
  0.2700000     -8.2233654E-33
  0.2800000     -1.0608617E-32
  0.2900000     -1.3381497E-32
  0.3000000     -1.6585178E-32
  0.3100000     -2.0265105E-32
  0.3200000     -2.4468212E-32
  0.3300000     -2.9242056E-32
  0.3400000     -3.4634046E-32
  0.3500000     -4.0690854E-32
  0.3600000     -4.7457890E-32
  0.3700000     -5.4979023E-32
  0.3800000     -6.3296380E-32
  0.3900000     -7.2450184E-32
  0.4000000     -8.2478596E-32
  0.4100000     -9.3417382E-32
  0.4200000     -1.0529933E-31
  0.4300000     -1.1815338E-31
  0.4400000     -1.3200347E-31
  0.4500000     -1.4686691E-31
  0.4600000     -1.6275275E-31
  0.4700000     -1.7965986E-31
  0.4800000     -1.9757521E-31
  0.4900000     -2.1647232E-31
  0.5000000     -2.3631026E-31
  0.5100000     -2.5703338E-31
  0.5200000     -2.7857180E-31
  0.5300000     -3.0084302E-31
  0.5400000     -3.2375444E-31
  0.5500000     -3.4720697E-31
  0.5600000     -3.7109957E-31
  0.5700000     -3.9533445E-31
  0.5800000     -4.1982306E-31
  0.5900000     -4.4449165E-31
  0.6000000     -4.6928758E-31
  0.6100000     -4.9418502E-31
  0.6200000     -5.1918976E-31
  0.6300000     -5.4434355E-31
  0.6400000     -5.6972722E-31
  0.6500000     -5.9546260E-31
  0.6600000     -6.2171341E-31
  0.6700000     -6.4868461E-31
  0.6800000     -6.7662099E-31
  0.6900000     -7.0580381E-31
  0.7000000     -7.3654736E-31
  0.7100000     -7.6919366E-31
  0.7200000     -8.0410707E-31
  0.7300000     -8.4166787E-31
  0.7400000     -8.8226569E-31
  0.7500000     -9.2629293E-31
  0.7600000     -9.7413809E-31
  0.7700000     -1.0261798E-30
  0.7800000     -1.0827812E-30
  0.7900000     -1.1442864E-30
  0.8000000     -1.2110169E-30
  0.8100000     -1.2832716E-30
  0.8200000     -1.3613277E-30
  0.8300000     -1.4454442E-30
  0.8400000     -1.5358676E-30
  0.8500000     -1.6328395E-30
  0.8600000     -1.7366063E-30
  0.8700000     -1.8474301E-30
  0.8800000     -1.9656003E-30
  0.8900000     -2.0914454E-30
  0.9000000     -2.2253423E-30
  0.9100000     -2.3677255E-30
  0.9200000     -2.5190917E-30
  0.9300000     -2.6800024E-30
  0.9400000     -2.8510794E-30
  0.9500000     -3.0329960E-30
  0.9600000     -3.2264642E-30
  0.9700000     -3.4322148E-30
  0.9800000     -3.6509745E-30
  0.9900000     -3.8834372E-30
   1.000000     -4.1302350E-30
   1.010000     -4.3919072E-30
   1.020000     -4.6688695E-30
   1.030000     -4.9613889E-30
   1.040000     -5.2695602E-30
   1.050000     -5.5932921E-30
   1.060000     -5.9323002E-30
   1.070000     -6.2861116E-30
   1.080000     -6.6540782E-30
   1.090000     -7.0354063E-30
   1.100000     -7.4291920E-30
   1.110000     -7.8344709E-30
   1.120000     -8.2502776E-30
   1.130000     -8.6757088E-30
   1.140000     -9.1099909E-30
   1.150000     -9.5525523E-30
   1.160000     -1.0003092E-29
   1.170000     -1.0461642E-29
   1.180000     -1.0928613E-29
   1.190000     -1.1404835E-29
   1.200000     -1.1891571E-29
   1.210000     -1.2390516E-29
   1.220000     -1.2903777E-29
   1.230000     -1.3433817E-29
   1.240000     -1.3983392E-29
   1.250000     -1.4555443E-29
   1.260000     -1.5152990E-29
   1.270000     -1.5779001E-29
   1.280000     -1.6436259E-29
   1.290000     -1.7127212E-29
   1.300000     -1.7853849E-29
   1.310000     -1.8617565E-29
   1.320000     -1.9419070E-29
   1.330000     -2.0258306E-29
   1.340000     -2.1134416E-29
   1.350000     -2.2045747E-29
   1.360000     -2.2989887E-29
   1.370000     -2.3963778E-29
   1.380000     -2.4963832E-29
   1.390000     -2.5986115E-29
   1.400000     -2.7026557E-29
   1.410000     -2.8081178E-29
   1.420000     -2.9146338E-29
   1.430000     -3.0218954E-29
   1.440000     -3.1296738E-29
   1.450000     -3.2378382E-29
   1.460000     -3.3463674E-29
   1.470000     -3.4553585E-29
   1.480000     -3.5650254E-29
   1.490000     -3.6756897E-29
   1.500000     -3.7877625E-29
   1.510000     -3.9017195E-29
   1.520000     -4.0180637E-29
   1.530000     -4.1372845E-29
   1.540000     -4.2598110E-29
   1.550000     -4.3859591E-29
   1.560000     -4.5158811E-29
   1.570000     -4.6495151E-29
   1.580000     -4.7865411E-29
   1.590000     -4.9263440E-29
   1.600000     -5.0679859E-29
   1.610000     -5.2101960E-29
   1.620000     -5.3513691E-29
   1.630000     -5.4895871E-29
   1.640000     -5.6226556E-29
   1.650000     -5.7481546E-29
   1.660000     -5.8635070E-29
   1.670000     -5.9660609E-29
   1.680000     -6.0531786E-29
   1.690000     -6.1223327E-29
   1.700000     -6.1712020E-29
   1.710000     -6.1977635E-29
   1.720000     -6.2003726E-29
   1.730000     -6.1778320E-29
   1.740000     -6.1294297E-29
   1.750000     -6.0549637E-29
   1.760000     -5.9547298E-29
   1.770000     -5.8294848E-29
   1.780000     -5.6803751E-29
   1.790000     -5.5088331E-29
   1.800000     -5.3164556E-29
   1.810000     -5.1048519E-29
   1.820000     -4.8754820E-29
   1.830000     -4.6294929E-29
   1.840000     -4.3675472E-29
   1.850000     -4.0896668E-29
   1.860000     -3.7951045E-29
   1.870000     -3.4822420E-29
   1.880000     -3.1485271E-29
   1.890000     -2.7904612E-29
   1.900000     -2.4036409E-29
   1.910000     -1.9828455E-29
   1.920000     -1.5221858E-29
   1.930000     -1.0152980E-29
   1.940000     -4.5558272E-30
   1.950000      1.6352535E-30
   1.960000      8.4826772E-30
   1.970000      1.6042625E-29
   1.980000      2.4362237E-29
   1.990000      3.3477068E-29
   2.000000      4.3408992E-29
   2.010000      5.4164745E-29
   2.020000      6.5735191E-29
   2.030000      7.8095442E-29
   2.040000      9.1205867E-29
   2.050000      1.0501407E-28
   2.060000      1.1945783E-28
   2.070000      1.3446861E-28
   2.080000      1.4997594E-28
   2.090000      1.6591216E-28
   2.100000      1.8221720E-28
   2.110000      1.9884356E-28
   2.120000      2.1576080E-28
   2.130000      2.3295926E-28
   2.140000      2.5045296E-28
   2.150000      2.6828127E-28
   2.160000      2.8650921E-28
   2.170000      3.0522588E-28
   2.180000      3.2454168E-28
   2.190000      3.4458382E-28
   2.200000      3.6549001E-28
   2.210000      3.8740127E-28
   2.220000      4.1045366E-28
   2.230000      4.3476930E-28
   2.240000      4.6044719E-28
   2.250000      4.8755456E-28
   2.260000      5.1611908E-28
   2.270000      5.4612218E-28
   2.280000      5.7749428E-28
   2.290000      6.1011260E-28
   2.300000      6.4380102E-28
   2.310000      6.7833309E-28
   2.320000      7.1343759E-28
   2.330000      7.4880681E-28
   2.340000      7.8410747E-28
   2.350000      8.1899333E-28
   2.360000      8.5311946E-28
   2.370000      8.8615773E-28
   2.380000      9.1781106E-28
   2.390000      9.4782803E-28
   2.400000      9.7601469E-28
   2.410000      1.0022455E-27
   2.420000      1.0264686E-27
   2.430000      1.0487095E-27
   2.440000      1.0690688E-27
   2.450000      1.0877163E-27
   2.460000      1.1048798E-27
   2.470000      1.1208305E-27
   2.480000      1.1358642E-27
   2.490000      1.1502798E-27
   2.500000      1.1643553E-27
   2.510000      1.1783248E-27
   2.520000      1.1923541E-27
   2.530000      1.2065205E-27
   2.540000      1.2207945E-27
   2.550000      1.2350268E-27
   2.560000      1.2489415E-27
   2.570000      1.2621357E-27
   2.580000      1.2740870E-27
   2.590000      1.2841679E-27
   2.600000      1.2916683E-27
   2.610000      1.2958230E-27
   2.620000      1.2958467E-27
   2.630000      1.2909723E-27
   2.640000      1.2804907E-27
   2.650000      1.2637920E-27
   2.660000      1.2404028E-27
   2.670000      1.2100208E-27
   2.680000      1.1725426E-27
   2.690000      1.1280816E-27
   2.700000      1.0769776E-27
   2.710000      1.0197939E-27
   2.720000      9.5730206E-28
   2.730000      8.9045592E-28
   2.740000      8.2035352E-28
   2.750000      7.4818916E-28
   2.760000      6.7519709E-28
   2.770000      6.0259108E-28
   2.780000      5.3150081E-28
   2.790000      4.6290993E-28
   2.800000      3.9759959E-28
   2.810000      3.3609972E-28
   2.820000      2.7865233E-28
   2.830000      2.2519013E-28
   2.840000      1.7533156E-28
   2.850000      1.2839417E-28
   2.860000      8.3427680E-29
   2.870000      3.9265390E-29
   2.880000     -5.4081253E-30
   2.890000     -5.1974728E-29
   2.900000     -1.0179063E-28
   2.910000     -1.5608798E-28
   2.920000     -2.1587568E-28
   2.930000     -2.8184591E-28
   2.940000     -3.5429087E-28
   2.950000     -4.3303634E-28
   2.960000     -5.1739516E-28
   2.970000     -6.0614726E-28
   2.980000     -6.9754823E-28
   2.990000     -7.8936694E-28
   3.000000     -8.7895369E-28
   3.010000     -9.6333706E-28
   3.020000     -1.0393447E-27
   3.030000     -1.1037458E-27
   3.040000     -1.1534072E-27
   3.050000     -1.1854525E-27
   3.060000     -1.1974232E-27
   3.070000     -1.1874249E-27
   3.080000     -1.1542557E-27
   3.090000     -1.0975056E-27
   3.100000     -1.0176198E-27
   3.110000     -9.1592019E-28
   3.120000     -7.9458337E-28
   3.130000     -6.5657104E-28
   3.140000     -5.0551515E-28
   3.150000     -3.4556135E-28
   3.160000     -1.8117713E-28
   3.170000     -1.6933279E-29
   3.180000      1.4273135E-28
   3.190000      2.9374765E-28
   3.200000      4.3264456E-28
   3.210000      5.5675394E-28
   3.220000      6.6437760E-28
   3.230000      7.5490734E-28
   3.240000      8.2888433E-28
   3.250000      8.8799237E-28
   3.260000      9.3498140E-28
   3.270000      9.7352032E-28
   3.280000      1.0079813E-27
   3.290000      1.0431640E-27
   3.300000      1.0839731E-27
   3.310000      1.1350598E-27
   3.320000      1.2004500E-27
   3.330000      1.2831731E-27
   3.340000      1.3849165E-27
   3.350000      1.5057270E-27
   3.360000      1.6437750E-27
   3.370000      1.7952017E-27
   3.380000      1.9540628E-27
   3.390000      2.1123752E-27
   3.400000      2.2602720E-27
   3.410000      2.3862686E-27
   3.420000      2.4776268E-27
   3.430000      2.5208004E-27
   3.440000      2.5019529E-27
   3.450000      2.4075153E-27
   3.460000      2.2247574E-27
   3.470000      1.9423427E-27
   3.480000      1.5508391E-27
   3.490000      1.0431478E-27
   3.500000      4.1483034E-28
   3.510000     -3.3569315E-28
   3.520000     -1.2070935E-27
   3.530000     -2.1952370E-27
   3.540000     -3.2934473E-27
   3.550000     -4.4929234E-27
   3.560000     -5.7832891E-27
   3.570000     -7.1532543E-27
   3.580000     -8.5913562E-27
   3.590000     -1.0086747E-26
   3.600000     -1.1629964E-26
   3.610000     -1.3213665E-26
   3.620000     -1.4833263E-26
   3.630000     -1.6487422E-26
   3.640000     -1.8178369E-26
   3.650000     -1.9912008E-26
   3.660000     -2.1697796E-26
   3.670000     -2.3548381E-26
   3.680000     -2.5479002E-26
   3.690000     -2.7506668E-26
   3.700000     -2.9649137E-26
   3.710000     -3.1923749E-26
   3.720000     -3.4346156E-26
   3.730000     -3.6929020E-26
   3.740000     -3.9680720E-26
   3.750000     -4.2604180E-26
   3.760000     -4.5695831E-26
   3.770000     -4.8944826E-26
   3.780000     -5.2332509E-26
   3.790000     -5.5832222E-26
   3.800000     -5.9409417E-26
   3.810000     -6.3022172E-26
   3.820000     -6.6622027E-26
   3.830000     -7.0155095E-26
   3.840000     -7.3563498E-26
   3.850000     -7.6786950E-26
   3.860000     -7.9764438E-26
   3.870000     -8.2436008E-26
   3.880000     -8.4744393E-26
   3.890000     -8.6636495E-26
   3.900000     -8.8064629E-26
   3.910000     -8.8987380E-26
   3.920000     -8.9370058E-26
   3.930000     -8.9184682E-26
   3.940000     -8.8409503E-26
   3.950000     -8.7028004E-26
   3.960000     -8.5027440E-26
   3.970000     -8.2396965E-26
   3.980000     -7.9125522E-26
   3.990000     -7.5199380E-26
   4.000000     -7.0599686E-26
   4.010000     -6.5300026E-26
   4.020000     -5.9264211E-26
   4.030000     -5.2444397E-26
   4.040000     -4.4779603E-26
   4.050000     -3.6194895E-26
   4.060000     -2.6601160E-26
   4.070000     -1.5895672E-26
   4.080000     -3.9633855E-27
   4.090000      9.3210788E-27
   4.100000      2.4090726E-26
   4.110000      4.0482863E-26
   4.120000      5.8635427E-26
   4.130000      7.8682934E-26
   4.140000      1.0075235E-25
   4.150000      1.2495915E-25
   4.160000      1.5140352E-25
   4.170000      1.8016709E-25
   4.180000      2.1131045E-25
   4.190000      2.4487135E-25
   4.200000      2.8086399E-25
   4.210000      3.1927903E-25
   4.220000      3.6008490E-25
   4.230000      4.0322990E-25
   4.240000      4.4864516E-25
   4.250000      4.9624848E-25
   4.260000      5.4594820E-25
   4.270000      5.9764778E-25
   4.280000      6.5125023E-25
   4.290000      7.0666199E-25
   4.300000      7.6379677E-25
   4.310000      8.2257771E-25
   4.320000      8.8293927E-25
   4.330000      9.4482729E-25
   4.340000      1.0081978E-24
   4.350000      1.0730146E-24
   4.360000      1.1392452E-24
   4.370000      1.2068551E-24
   4.380000      1.2758014E-24
   4.390000      1.3460251E-24
   4.400000      1.4174436E-24
   4.410000      1.4899419E-24
   4.420000      1.5633646E-24
   4.430000      1.6375081E-24
   4.440000      1.7121137E-24
   4.450000      1.7868630E-24
   4.460000      1.8613733E-24
   4.470000      1.9351971E-24
   4.480000      2.0078206E-24
   4.490000      2.0786676E-24
   4.500000      2.1471023E-24
   4.510000      2.2124369E-24
   4.520000      2.2739383E-24
   4.530000      2.3308375E-24
   4.540000      2.3823390E-24
   4.550000      2.4276311E-24
   4.560000      2.4658950E-24
   4.570000      2.4963142E-24
   4.580000      2.5180817E-24
   4.590000      2.5304055E-24
   4.600000      2.5325117E-24
   4.610000      2.5236473E-24
   4.620000      2.5030766E-24
   4.630000      2.4700783E-24
   4.640000      2.4239382E-24
   4.650000      2.3639406E-24
   4.660000      2.2893582E-24
   4.670000      2.1994410E-24
   4.680000      2.0934035E-24
   4.690000      1.9704126E-24
   4.700000      1.8295791E-24
   4.710000      1.6699479E-24
   4.720000      1.4904929E-24
   4.730000      1.2901137E-24
   4.740000      1.0676359E-24
   4.750000      8.2181690E-25
   4.760000      5.5135550E-25
   4.770000      2.5490482E-25
   4.780000     -6.8910704E-26
   4.790000     -4.2147458E-25
   4.800000     -8.0415421E-25
   4.810000     -1.2182773E-24
   4.820000     -1.6651053E-24
   4.830000     -2.1458076E-24
   4.840000     -2.6614362E-24
   4.850000     -3.2129027E-24
   4.860000     -3.8009582E-24
   4.870000     -4.4261782E-24
   4.880000     -5.0889508E-24
   4.890000     -5.7894703E-24
   4.900000     -6.5277348E-24
   4.910000     -7.3035496E-24
   4.920000     -8.1165338E-24
   4.930000     -8.9661307E-24
   4.940000     -9.8516216E-24
   4.950000     -1.0772140E-23
   4.960000     -1.1726688E-23
   4.970000     -1.2714145E-23
   4.980000     -1.3733283E-23
   4.990000     -1.4782775E-23
   5.000000     -1.5861189E-23
   5.010000     -1.6966997E-23
   5.020000     -1.8098552E-23
   5.030000     -1.9254072E-23
   5.040000     -2.0431628E-23
   5.050000     -2.1629099E-23
   5.060000     -2.2844143E-23
   5.070000     -2.4074160E-23
   5.080000     -2.5316238E-23
   5.090000     -2.6567109E-23
   5.100000     -2.7823115E-23
   5.110000     -2.9080155E-23
   5.120000     -3.0333664E-23
   5.130000     -3.1578553E-23
   5.140000     -3.2809220E-23
   5.150000     -3.4019516E-23
   5.160000     -3.5202744E-23
   5.170000     -3.6351673E-23
   5.180000     -3.7458536E-23
   5.190000     -3.8515080E-23
   5.200000     -3.9512575E-23
   5.210000     -4.0441876E-23
   5.220000     -4.1293464E-23
   5.230000     -4.2057498E-23
   5.240000     -4.2723855E-23
   5.250000     -4.3282182E-23
   5.260000     -4.3721959E-23
   5.270000     -4.4032524E-23
   5.280000     -4.4203098E-23
   5.290000     -4.4222807E-23
   5.300000     -4.4080692E-23
   5.310000     -4.3765725E-23
   5.320000     -4.3266790E-23
   5.330000     -4.2572677E-23
   5.340000     -4.1672022E-23
   5.350000     -4.0553310E-23
   5.360000     -3.9204841E-23
   5.370000     -3.7614702E-23
   5.380000     -3.5770740E-23
   5.390000     -3.3660543E-23
   5.400000     -3.1271472E-23
   5.410000     -2.8590616E-23
   5.420000     -2.5604844E-23
   5.430000     -2.2300845E-23
   5.440000     -1.8665217E-23
   5.450000     -1.4684537E-23
   5.460000     -1.0345455E-23
   5.470000     -5.6348228E-24
   5.480000     -5.3983857E-25
   5.490000      4.9518219E-24
   5.500000      1.0851854E-23
   5.510000      1.7171156E-23
   5.520000      2.3919678E-23
   5.530000      3.1106269E-23
   5.540000      3.8738539E-23
   5.550000      4.6822716E-23
   5.560000      5.5363577E-23
   5.570000      6.4364310E-23
   5.580000      7.3826463E-23
   5.590000      8.3749879E-23
   5.600000      9.4132651E-23
   5.610000      1.0497110E-22
   5.620000      1.1625973E-22
   5.630000      1.2799129E-22
   5.640000      1.4015672E-22
   5.650000      1.5274509E-22
   5.660000      1.6574373E-22
   5.670000      1.7913803E-22
   5.680000      1.9291153E-22
   5.690000      2.0704577E-22
   5.700000      2.2152025E-22
   5.710000      2.3631228E-22
   5.720000      2.5139694E-22
   5.730000      2.6674666E-22
   5.740000      2.8233137E-22
   5.750000      2.9811798E-22
   5.760000      3.1407042E-22
   5.770000      3.3014919E-22
   5.780000      3.4631133E-22
   5.790000      3.6251006E-22
   5.800000      3.7869468E-22
   5.810000      3.9481037E-22
   5.820000      4.1079799E-22
   5.830000      4.2659407E-22
   5.840000      4.4213071E-22
   5.850000      4.5733551E-22
   5.860000      4.7213171E-22
   5.870000      4.8643809E-22
   5.880000      5.0016917E-22
   5.890000      5.1323548E-22
   5.900000      5.2554358E-22
   5.910000      5.3699637E-22
   5.920000      5.4749345E-22
   5.930000      5.5693105E-22
   5.940000      5.6520241E-22
   5.950000      5.7219815E-22
   5.960000      5.7780641E-22
   5.970000      5.8191288E-22
   5.980000      5.8440129E-22
   5.990000      5.8515349E-22
   6.000000      5.8404949E-22
   6.010000      5.8096746E-22
   6.020000      5.7578430E-22
   6.030000      5.6837522E-22
   6.040000      5.5861414E-22
   6.050000      5.4637410E-22
   6.060000      5.3152685E-22
   6.070000      5.1394341E-22
   6.080000      4.9349407E-22
   6.090000      4.7004912E-22
   6.100000      4.4347852E-22
   6.110000      4.1365296E-22
   6.120000      3.8044404E-22
   6.130000      3.4372495E-22
   6.140000      3.0337122E-22
   6.150000      2.5926147E-22
   6.160000      2.1127831E-22
   6.170000      1.5930907E-22
   6.180000      1.0324684E-22
   6.190000      4.2991629E-23
   6.200000     -2.1548745E-23
   6.210000     -9.0457588E-23
   6.220000     -1.6380858E-22
   6.230000     -2.4166462E-22
   6.240000     -3.2407663E-22
   6.250000     -4.1108304E-22
   6.260000     -5.0270862E-22
   6.270000     -5.9896378E-22
   6.280000     -6.9984412E-22
   6.290000     -8.0532975E-22
   6.300000     -9.1538430E-22
   6.310000     -1.0299546E-21
   6.320000     -1.1489699E-21
   6.330000     -1.2723417E-21
   6.340000     -1.3999625E-21
   6.350000     -1.5317058E-21
   6.360000     -1.6674259E-21
   6.370000     -1.8069559E-21
   6.380000     -1.9501088E-21
   6.390000     -2.0966747E-21
   6.400000     -2.2464218E-21
   6.410000     -2.3990948E-21
   6.420000     -2.5544137E-21
   6.430000     -2.7120724E-21
   6.440000     -2.8717397E-21
   6.450000     -3.0330564E-21
   6.460000     -3.1956354E-21
   6.470000     -3.3590599E-21
   6.480000     -3.5228839E-21
   6.490000     -3.6866293E-21
   6.500000     -3.8497874E-21
   6.510000     -4.0118179E-21
   6.520000     -4.1721471E-21
   6.530000     -4.3301701E-21
   6.540000     -4.4852495E-21
   6.550000     -4.6367157E-21
   6.560000     -4.7838666E-21
   6.570000     -4.9259700E-21
   6.580000     -5.0622638E-21
   6.590000     -5.1919562E-21
   6.600000     -5.3142287E-21
   6.610000     -5.4282354E-21
   6.620000     -5.5331068E-21
   6.630000     -5.6279495E-21
   6.640000     -5.7118489E-21
   6.650000     -5.7838690E-21
   6.660000     -5.8430552E-21
   6.670000     -5.8884387E-21
   6.680000     -5.9190347E-21
   6.690000     -5.9338452E-21
   6.700000     -5.9318608E-21
   6.710000     -5.9120634E-21
   6.720000     -5.8734295E-21
   6.730000     -5.8149299E-21
   6.740000     -5.7355318E-21
   6.750000     -5.6342022E-21
   6.760000     -5.5099090E-21
   6.770000     -5.3616272E-21
   6.780000     -5.1883385E-21
   6.790000     -4.9890361E-21
   6.800000     -4.7627287E-21
   6.810000     -4.5084449E-21
   6.820000     -4.2252370E-21
   6.830000     -3.9121842E-21
   6.840000     -3.5683998E-21
   6.850000     -3.1930379E-21
   6.860000     -2.7852969E-21
   6.870000     -2.3444251E-21
   6.880000     -1.8697279E-21
   6.890000     -1.3605728E-21
   6.900000     -8.1639450E-22
   6.910000     -2.3670242E-22
   6.920000      3.7891102E-22
   6.930000      1.0307666E-21
   6.940000      1.7190930E-21
   6.950000      2.4440170E-21
   6.960000      3.2055614E-21
   6.970000      4.0036353E-21
   6.980000      4.8380332E-21
   6.990000      5.7084271E-21
   7.000000      6.6143587E-21
   7.010000      7.5552399E-21
   7.020000      8.5303445E-21
   7.030000      9.5387996E-21
   7.040000      1.0579592E-20
   7.050000      1.1651555E-20
   7.060000      1.2753366E-20