  -2.600000      0.0000000E+00
  -2.590000      0.0000000E+00
  -2.580000      0.0000000E+00
  -2.570000      0.0000000E+00
  -2.560000      0.0000000E+00
  -2.550000      0.0000000E+00
  -2.540000      0.0000000E+00
  -2.530000      0.0000000E+00
  -2.520000      0.0000000E+00
  -2.510000      0.0000000E+00
  -2.500000      0.0000000E+00
  -2.490000      0.0000000E+00
  -2.480000      0.0000000E+00
  -2.470000      0.0000000E+00
  -2.460000      0.0000000E+00
  -2.450000      0.0000000E+00
  -2.440000      0.0000000E+00
  -2.430000      0.0000000E+00
  -2.420000      0.0000000E+00
  -2.410000      0.0000000E+00
  -2.400000      0.0000000E+00
  -2.390000      0.0000000E+00
  -2.380000      0.0000000E+00
  -2.370000      0.0000000E+00
  -2.360000      0.0000000E+00
  -2.350000      0.0000000E+00
  -2.340000      0.0000000E+00
  -2.330000      0.0000000E+00
  -2.320000      0.0000000E+00
  -2.310000      0.0000000E+00
  -2.300000      0.0000000E+00
  -2.290000      0.0000000E+00
  -2.280000      0.0000000E+00
  -2.270000      0.0000000E+00
  -2.260000      0.0000000E+00
  -2.250000      0.0000000E+00
  -2.240000      0.0000000E+00
  -2.230000      0.0000000E+00
  -2.220000      0.0000000E+00
  -2.210000      0.0000000E+00
  -2.200000      0.0000000E+00
  -2.190000      0.0000000E+00
  -2.180000      0.0000000E+00
  -2.170000      0.0000000E+00
  -2.160000      0.0000000E+00
  -2.150000      0.0000000E+00
  -2.140000      0.0000000E+00
  -2.130000      0.0000000E+00
  -2.120000      0.0000000E+00
  -2.110000      0.0000000E+00
  -2.100000      0.0000000E+00
  -2.090000      0.0000000E+00
  -2.080000      0.0000000E+00
  -2.070000      0.0000000E+00
  -2.060000      0.0000000E+00
  -2.050000      0.0000000E+00
  -2.040000      0.0000000E+00
  -2.030000      0.0000000E+00
  -2.020000      0.0000000E+00
  -2.010000      0.0000000E+00
  -2.000000      0.0000000E+00
  -1.990000      0.0000000E+00
  -1.980000      0.0000000E+00
  -1.970000      0.0000000E+00
  -1.960000      0.0000000E+00
  -1.950000      0.0000000E+00
  -1.940000      0.0000000E+00
  -1.930000      0.0000000E+00
  -1.920000      0.0000000E+00
  -1.910000      0.0000000E+00
  -1.900000      0.0000000E+00
  -1.890000      0.0000000E+00
  -1.880000      0.0000000E+00
  -1.870000      0.0000000E+00
  -1.860000      0.0000000E+00
  -1.850000      0.0000000E+00
  -1.840000      0.0000000E+00
  -1.830000      0.0000000E+00
  -1.820000      0.0000000E+00
  -1.810000      0.0000000E+00
  -1.800000      0.0000000E+00
  -1.790000      0.0000000E+00
  -1.780000      0.0000000E+00
  -1.770000      0.0000000E+00
  -1.760000      0.0000000E+00
  -1.750000      0.0000000E+00
  -1.740000      0.0000000E+00
  -1.730000      0.0000000E+00
  -1.720000      0.0000000E+00
  -1.710000      0.0000000E+00
  -1.700000      0.0000000E+00
  -1.690000      0.0000000E+00
  -1.680000      0.0000000E+00
  -1.670000      0.0000000E+00
  -1.660000      0.0000000E+00
  -1.650000      0.0000000E+00
  -1.640000      0.0000000E+00
  -1.630000      0.0000000E+00
  -1.620000      0.0000000E+00
  -1.610000      0.0000000E+00
  -1.600000      0.0000000E+00
  -1.590000      0.0000000E+00
  -1.580000      0.0000000E+00
  -1.570000      0.0000000E+00
  -1.560000      0.0000000E+00
  -1.550000      0.0000000E+00
  -1.540000      0.0000000E+00
  -1.530000      0.0000000E+00
  -1.520000      0.0000000E+00
  -1.510000      0.0000000E+00
  -1.500000      0.0000000E+00
  -1.490000      0.0000000E+00
  -1.480000      0.0000000E+00
  -1.470000      0.0000000E+00
  -1.460000      0.0000000E+00
  -1.450000      0.0000000E+00
  -1.440000      0.0000000E+00
  -1.430000      0.0000000E+00
  -1.420000      0.0000000E+00
  -1.410000      0.0000000E+00
  -1.400000      0.0000000E+00
  -1.390000      0.0000000E+00
  -1.380000      0.0000000E+00
  -1.370000      0.0000000E+00
  -1.360000      0.0000000E+00
  -1.350000      0.0000000E+00
  -1.340000      0.0000000E+00
  -1.330000      0.0000000E+00
  -1.320000      0.0000000E+00
  -1.310000      0.0000000E+00
  -1.300000      0.0000000E+00
  -1.290000      0.0000000E+00
  -1.280000      0.0000000E+00
  -1.270000      0.0000000E+00
  -1.260000      0.0000000E+00
  -1.250000      0.0000000E+00
  -1.240000      0.0000000E+00
  -1.230000      0.0000000E+00
  -1.220000      0.0000000E+00
  -1.210000      0.0000000E+00
  -1.200000      0.0000000E+00
  -1.190000      0.0000000E+00
  -1.180000      0.0000000E+00
  -1.170000      0.0000000E+00
  -1.160000      0.0000000E+00
  -1.150000      0.0000000E+00
  -1.140000      0.0000000E+00
  -1.130000      0.0000000E+00
  -1.120000      0.0000000E+00
  -1.110000      0.0000000E+00
  -1.100000      0.0000000E+00
  -1.090000      0.0000000E+00
  -1.080000      0.0000000E+00
  -1.070000      0.0000000E+00
  -1.060000      0.0000000E+00
  -1.050000      0.0000000E+00
  -1.040000      0.0000000E+00
  -1.030000      0.0000000E+00
  -1.020000      0.0000000E+00
  -1.010000      0.0000000E+00
  -1.000000      0.0000000E+00
 -0.9900000      0.0000000E+00
 -0.9800000      0.0000000E+00
 -0.9700000      0.0000000E+00
 -0.9600000      0.0000000E+00
 -0.9500000      0.0000000E+00
 -0.9400000      0.0000000E+00
 -0.9300000      0.0000000E+00
 -0.9200000      0.0000000E+00
 -0.9100000      0.0000000E+00
 -0.9000000      0.0000000E+00
 -0.8900000      0.0000000E+00
 -0.8800000      0.0000000E+00
 -0.8700000      0.0000000E+00
 -0.8600000      0.0000000E+00
 -0.8500000      0.0000000E+00
 -0.8400000      0.0000000E+00
 -0.8300000      0.0000000E+00
 -0.8200000      0.0000000E+00
 -0.8100000      0.0000000E+00
 -0.8000000      0.0000000E+00
 -0.7900000      0.0000000E+00
 -0.7800000      0.0000000E+00
 -0.7700000      0.0000000E+00
 -0.7600000      0.0000000E+00
 -0.7500000      0.0000000E+00
 -0.7400000      0.0000000E+00
 -0.7300000      0.0000000E+00
 -0.7200000      0.0000000E+00
 -0.7100000      0.0000000E+00
 -0.7000000      0.0000000E+00
 -0.6900000      0.0000000E+00
 -0.6800000      0.0000000E+00
 -0.6700000      0.0000000E+00
 -0.6600000      0.0000000E+00
 -0.6500000      0.0000000E+00
 -0.6400000      0.0000000E+00
 -0.6300000      0.0000000E+00
 -0.6200000      0.0000000E+00
 -0.6100000      0.0000000E+00
 -0.6000000      0.0000000E+00
 -0.5900000      0.0000000E+00
 -0.5800000      0.0000000E+00
 -0.5700000      0.0000000E+00
 -0.5600000      0.0000000E+00
 -0.5500000      0.0000000E+00
 -0.5400000      0.0000000E+00
 -0.5300000      0.0000000E+00
 -0.5200000      0.0000000E+00
 -0.5100000      0.0000000E+00
 -0.5000000      0.0000000E+00
 -0.4900000      0.0000000E+00
 -0.4800000      0.0000000E+00
 -0.4700000      0.0000000E+00
 -0.4600000      0.0000000E+00
 -0.4500000      0.0000000E+00
 -0.4400000      0.0000000E+00
 -0.4300000      0.0000000E+00
 -0.4200000      0.0000000E+00
 -0.4100000      0.0000000E+00
 -0.4000000      0.0000000E+00
 -0.3900000      0.0000000E+00
 -0.3800000      0.0000000E+00
 -0.3700000      0.0000000E+00
 -0.3600000      0.0000000E+00
 -0.3500000      0.0000000E+00
 -0.3400000      0.0000000E+00
 -0.3300000      0.0000000E+00
 -0.3200000      0.0000000E+00
 -0.3100000      0.0000000E+00
 -0.3000000      0.0000000E+00
 -0.2900000      0.0000000E+00
 -0.2800000      0.0000000E+00
 -0.2700000      0.0000000E+00
 -0.2600000      0.0000000E+00
 -0.2500000      0.0000000E+00
 -0.2400000      0.0000000E+00
 -0.2300000      0.0000000E+00
 -0.2200000      0.0000000E+00
 -0.2100000      0.0000000E+00
 -0.2000000      0.0000000E+00
 -0.1900000      0.0000000E+00
 -0.1800000      0.0000000E+00
 -0.1700000      0.0000000E+00
 -0.1600000      0.0000000E+00
 -0.1500000      0.0000000E+00
 -0.1400000      0.0000000E+00
 -0.1300000      0.0000000E+00
 -0.1200000      0.0000000E+00
 -0.1100000      0.0000000E+00
 -0.1000000      0.0000000E+00
 -9.0000004E-02  0.0000000E+00
 -7.9999998E-02  0.0000000E+00
 -7.0000000E-02  0.0000000E+00
 -5.9999999E-02  0.0000000E+00
 -5.0000001E-02  0.0000000E+00
 -3.9999999E-02  0.0000000E+00
 -2.9999999E-02  0.0000000E+00
 -2.0000000E-02  0.0000000E+00
 -9.9999998E-03  0.0000000E+00
 -3.4694470E-17  0.0000000E+00
  9.9999998E-03  0.0000000E+00
  2.0000000E-02  0.0000000E+00
  2.9999999E-02  0.0000000E+00
  3.9999999E-02  0.0000000E+00
  5.0000001E-02  0.0000000E+00
  5.9999999E-02  0.0000000E+00
  7.0000000E-02  0.0000000E+00
  7.9999998E-02  0.0000000E+00
  9.0000004E-02  0.0000000E+00
  0.1000000      0.0000000E+00
  0.1100000      0.0000000E+00
  0.1200000      0.0000000E+00
  0.1300000      0.0000000E+00
  0.1400000      0.0000000E+00
  0.1500000      0.0000000E+00
  0.1600000      0.0000000E+00
  0.1700000      0.0000000E+00
  0.1800000      0.0000000E+00
  0.1900000      0.0000000E+00
  0.2000000      0.0000000E+00
  0.2100000      0.0000000E+00
  0.2200000      0.0000000E+00
  0.2300000      0.0000000E+00
  0.2400000      0.0000000E+00
  0.2500000      0.0000000E+00
  0.2600000      0.0000000E+00
  0.2700000      0.0000000E+00
  0.2800000      0.0000000E+00
  0.2900000      0.0000000E+00
  0.3000000      0.0000000E+00
  0.3100000      0.0000000E+00
  0.3200000      0.0000000E+00
  0.3300000      0.0000000E+00
  0.3400000      0.0000000E+00
  0.3500000      0.0000000E+00
  0.3600000      0.0000000E+00
  0.3700000      0.0000000E+00
  0.3800000      0.0000000E+00
  0.3900000      0.0000000E+00
  0.4000000      0.0000000E+00
  0.4100000      0.0000000E+00
  0.4200000      0.0000000E+00
  0.4300000      0.0000000E+00
  0.4400000      0.0000000E+00
  0.4500000      0.0000000E+00
  0.4600000      0.0000000E+00
  0.4700000      0.0000000E+00
  0.4800000      0.0000000E+00
  0.4900000      0.0000000E+00
  0.5000000      0.0000000E+00
  0.5100000      0.0000000E+00
  0.5200000      0.0000000E+00
  0.5300000      0.0000000E+00
  0.5400000      0.0000000E+00
  0.5500000      0.0000000E+00
  0.5600000      0.0000000E+00
  0.5700000      0.0000000E+00
  0.5800000      0.0000000E+00
  0.5900000      0.0000000E+00
  0.6000000      0.0000000E+00
  0.6100000      0.0000000E+00
  0.6200000      0.0000000E+00
  0.6300000      0.0000000E+00
  0.6400000      0.0000000E+00
  0.6500000      0.0000000E+00
  0.6600000      0.0000000E+00
  0.6700000      0.0000000E+00
  0.6800000      0.0000000E+00
  0.6900000      0.0000000E+00
  0.7000000      0.0000000E+00
  0.7100000      0.0000000E+00
  0.7200000      0.0000000E+00
  0.7300000      0.0000000E+00
  0.7400000      0.0000000E+00
  0.7500000      0.0000000E+00
  0.7600000      0.0000000E+00
  0.7700000      0.0000000E+00
  0.7800000      0.0000000E+00
  0.7900000      0.0000000E+00
  0.8000000      0.0000000E+00
  0.8100000      0.0000000E+00
  0.8200000      0.0000000E+00
  0.8300000      0.0000000E+00
  0.8400000      0.0000000E+00
  0.8500000      0.0000000E+00
  0.8600000      0.0000000E+00
  0.8700000      0.0000000E+00
  0.8800000      0.0000000E+00
  0.8900000      0.0000000E+00
  0.9000000      0.0000000E+00
  0.9100000      0.0000000E+00
  0.9200000      0.0000000E+00
  0.9300000      0.0000000E+00
  0.9400000      0.0000000E+00
  0.9500000      0.0000000E+00
  0.9600000      0.0000000E+00
  0.9700000      0.0000000E+00
  0.9800000      0.0000000E+00
  0.9900000      0.0000000E+00
   1.000000      0.0000000E+00
   1.010000      0.0000000E+00
   1.020000      0.0000000E+00
   1.030000      0.0000000E+00
   1.040000      0.0000000E+00
   1.050000      0.0000000E+00
   1.060000      0.0000000E+00
   1.070000      0.0000000E+00
   1.080000      0.0000000E+00
   1.090000      0.0000000E+00
   1.100000      0.0000000E+00
   1.110000      0.0000000E+00
   1.120000      0.0000000E+00
   1.130000      0.0000000E+00
   1.140000      0.0000000E+00
   1.150000      0.0000000E+00
   1.160000      0.0000000E+00
   1.170000      0.0000000E+00
   1.180000      0.0000000E+00
   1.190000      0.0000000E+00
   1.200000      0.0000000E+00
   1.210000      0.0000000E+00
   1.220000      0.0000000E+00
   1.230000      0.0000000E+00
   1.240000      0.0000000E+00
   1.250000      0.0000000E+00
   1.260000      0.0000000E+00
   1.270000      0.0000000E+00
   1.280000      0.0000000E+00
   1.290000      0.0000000E+00
   1.300000      0.0000000E+00
   1.310000      0.0000000E+00
   1.320000      0.0000000E+00
   1.330000      0.0000000E+00
   1.340000      0.0000000E+00
   1.350000      0.0000000E+00
   1.360000      0.0000000E+00
   1.370000      0.0000000E+00
   1.380000      0.0000000E+00
   1.390000      0.0000000E+00
   1.400000      0.0000000E+00
   1.410000      0.0000000E+00
   1.420000      0.0000000E+00
   1.430000      0.0000000E+00
   1.440000      0.0000000E+00
   1.450000      0.0000000E+00
   1.460000      0.0000000E+00
   1.470000      0.0000000E+00
   1.480000      0.0000000E+00
   1.490000      0.0000000E+00
   1.500000      0.0000000E+00
   1.510000      0.0000000E+00
   1.520000      0.0000000E+00
   1.530000      0.0000000E+00
   1.540000      0.0000000E+00
   1.550000      0.0000000E+00
   1.560000      0.0000000E+00
   1.570000      0.0000000E+00
   1.580000      0.0000000E+00
   1.590000      0.0000000E+00
   1.600000      0.0000000E+00
   1.610000      0.0000000E+00
   1.620000      0.0000000E+00
   1.630000      0.0000000E+00
   1.640000      0.0000000E+00
   1.650000      0.0000000E+00
   1.660000      0.0000000E+00
   1.670000      0.0000000E+00
   1.680000      0.0000000E+00
   1.690000      0.0000000E+00
   1.700000      0.0000000E+00
   1.710000      0.0000000E+00
   1.720000      0.0000000E+00
   1.730000      0.0000000E+00
   1.740000      0.0000000E+00
   1.750000      0.0000000E+00
   1.760000      0.0000000E+00
   1.770000      0.0000000E+00
   1.780000      0.0000000E+00
   1.790000      0.0000000E+00
   1.800000      0.0000000E+00
   1.810000      0.0000000E+00
   1.820000      0.0000000E+00
   1.830000      0.0000000E+00
   1.840000      0.0000000E+00
   1.850000      0.0000000E+00
   1.860000      0.0000000E+00
   1.870000      0.0000000E+00
   1.880000      0.0000000E+00
   1.890000      0.0000000E+00
   1.900000      0.0000000E+00
   1.910000      0.0000000E+00
   1.920000      0.0000000E+00
   1.930000      0.0000000E+00
   1.940000      0.0000000E+00
   1.950000      0.0000000E+00
   1.960000      0.0000000E+00
   1.970000      0.0000000E+00
   1.980000      0.0000000E+00
   1.990000      0.0000000E+00
   2.000000      0.0000000E+00
   2.010000      0.0000000E+00
   2.020000      0.0000000E+00
   2.030000      0.0000000E+00
   2.040000      0.0000000E+00
   2.050000      0.0000000E+00
   2.060000      0.0000000E+00
   2.070000      0.0000000E+00
   2.080000      0.0000000E+00
   2.090000      0.0000000E+00
   2.100000      0.0000000E+00
   2.110000      0.0000000E+00
   2.120000      0.0000000E+00
   2.130000      0.0000000E+00
   2.140000      0.0000000E+00
   2.150000      0.0000000E+00
   2.160000      0.0000000E+00
   2.170000      0.0000000E+00
   2.180000      0.0000000E+00
   2.190000      0.0000000E+00
   2.200000      0.0000000E+00
   2.210000      0.0000000E+00
   2.220000      0.0000000E+00
   2.230000      0.0000000E+00
   2.240000      0.0000000E+00
   2.250000      0.0000000E+00
   2.260000      0.0000000E+00
   2.270000      0.0000000E+00
   2.280000      0.0000000E+00
   2.290000      0.0000000E+00
   2.300000      0.0000000E+00
   2.310000      0.0000000E+00
   2.320000      0.0000000E+00
   2.330000      0.0000000E+00
   2.340000      0.0000000E+00
   2.350000      0.0000000E+00
   2.360000      0.0000000E+00
   2.370000      0.0000000E+00
   2.380000      0.0000000E+00
   2.390000      0.0000000E+00
   2.400000      0.0000000E+00
   2.410000      0.0000000E+00
   2.420000      0.0000000E+00
   2.430000      0.0000000E+00
   2.440000      0.0000000E+00
   2.450000      0.0000000E+00
   2.460000      0.0000000E+00
   2.470000      0.0000000E+00
   2.480000      0.0000000E+00
   2.490000      0.0000000E+00
   2.500000      0.0000000E+00
   2.510000      0.0000000E+00
   2.520000      0.0000000E+00
   2.530000      0.0000000E+00
   2.540000      0.0000000E+00
   2.550000      0.0000000E+00
   2.560000      0.0000000E+00
   2.570000      0.0000000E+00
   2.580000      0.0000000E+00
   2.590000      0.0000000E+00
   2.600000      0.0000000E+00
   2.610000      0.0000000E+00
   2.620000      0.0000000E+00
   2.630000      0.0000000E+00
   2.640000      0.0000000E+00
   2.650000      0.0000000E+00
   2.660000      0.0000000E+00
   2.670000      0.0000000E+00
   2.680000      0.0000000E+00
   2.690000      0.0000000E+00
   2.700000      0.0000000E+00
   2.710000      0.0000000E+00
   2.720000      0.0000000E+00
   2.730000      0.0000000E+00
   2.740000      0.0000000E+00
   2.750000      0.0000000E+00
   2.760000      0.0000000E+00
   2.770000      0.0000000E+00
   2.780000      0.0000000E+00
   2.790000      0.0000000E+00
   2.800000      0.0000000E+00
   2.810000      0.0000000E+00
   2.820000      0.0000000E+00
   2.830000      0.0000000E+00
   2.840000      0.0000000E+00
   2.850000      0.0000000E+00
   2.860000      0.0000000E+00
   2.870000      0.0000000E+00
   2.880000      0.0000000E+00
   2.890000      0.0000000E+00
   2.900000      0.0000000E+00
   2.910000      0.0000000E+00
   2.920000      0.0000000E+00
   2.930000      0.0000000E+00
   2.940000      0.0000000E+00
   2.950000      0.0000000E+00
   2.960000      0.0000000E+00
   2.970000      0.0000000E+00
   2.980000      0.0000000E+00
   2.990000      0.0000000E+00
   3.000000      0.0000000E+00
   3.010000      0.0000000E+00
   3.020000      0.0000000E+00
   3.030000      0.0000000E+00
   3.040000      0.0000000E+00
   3.050000      0.0000000E+00
   3.060000      0.0000000E+00
   3.070000      0.0000000E+00
   3.080000      0.0000000E+00
   3.090000      0.0000000E+00
   3.100000      0.0000000E+00
   3.110000      0.0000000E+00
   3.120000      0.0000000E+00
   3.130000      0.0000000E+00
   3.140000      0.0000000E+00
   3.150000      0.0000000E+00
   3.160000      0.0000000E+00
   3.170000      0.0000000E+00
   3.180000      0.0000000E+00
   3.190000      0.0000000E+00
   3.200000      0.0000000E+00
   3.210000      0.0000000E+00
   3.220000      0.0000000E+00
   3.230000      0.0000000E+00
   3.240000      0.0000000E+00
   3.250000      0.0000000E+00
   3.260000      0.0000000E+00
   3.270000     -1.3723319E-38
   3.280000     -1.5853936E-38
   3.290000     -1.8047436E-38
   3.300000     -2.0298565E-38
   3.310000     -2.2499478E-38
   3.320000     -2.4517182E-38
   3.330000     -2.6347057E-38
   3.340000     -2.8020392E-38
   3.350000     -2.9713054E-38
   3.360000     -3.1004014E-38
   3.370000     -3.2337507E-38
   3.380000     -3.4182243E-38
   3.390000     -3.5638817E-38
   3.400000     -3.6812898E-38
   3.410000     -3.7971881E-38
   3.420000     -3.9001435E-38
   3.430000     -3.9912966E-38
   3.440000     -4.0373163E-38
   3.450000     -4.0101059E-38
   3.460000     -3.8275290E-38
   3.470000     -3.5041741E-38
   3.480000     -3.1439398E-38
   3.490000     -2.7289408E-38
   3.500000     -2.2502124E-38
   3.510000     -1.7237434E-38
   3.520000      0.0000000E+00
   3.530000      0.0000000E+00
   3.540000      0.0000000E+00
   3.550000      1.7858185E-38
   3.560000      2.6980301E-38
   3.570000      3.6615374E-38
   3.580000      4.6794120E-38
   3.590000      5.7608058E-38
   3.600000      6.8982476E-38
   3.610000      8.0871832E-38
   3.620000      9.3137538E-38
   3.630000      1.0503313E-37
   3.640000      1.1664501E-37
   3.650000      1.2769089E-37
   3.660000      1.3964456E-37
   3.670000      1.5374104E-37
   3.680000      1.6924936E-37
   3.690000      1.8558116E-37
   3.700000      2.0279964E-37
   3.710000      2.2085511E-37
   3.720000      2.3874074E-37
   3.730000      2.5688494E-37
   3.740000      2.7387773E-37
   3.750000      2.8876703E-37
   3.760000      3.0334885E-37
   3.770000      3.1704909E-37
   3.780000      3.2853418E-37
   3.790000      3.3632894E-37
   3.800000      3.4071525E-37
   3.810000      3.4278653E-37
   3.820000      3.4307997E-37
   3.830000      3.4149762E-37
   3.840000      3.4064158E-37
   3.850000      3.4325905E-37
   3.860000      3.4748944E-37
   3.870000      3.4314992E-37
   3.880000      3.2866043E-37
   3.890000      3.1151421E-37
   3.900000      2.9545623E-37
   3.910000      2.7519598E-37
   3.920000      2.5240744E-37
   3.930000      2.3930754E-37
   3.940000      2.2918039E-37
   3.950000      2.1359466E-37
   3.960000      1.8422832E-37
   3.970000      1.4231727E-37
   3.980000      9.6858714E-38
   3.990000      5.5098007E-38
   4.000000      0.0000000E+00
   4.010000     -5.1202650E-38
   4.020000     -1.0038391E-37
   4.030000     -1.6666113E-37
   4.040000     -2.6294424E-37
   4.050000     -3.9709346E-37
   4.060000     -5.5958758E-37
   4.070000     -7.3624320E-37
   4.080000     -9.4065861E-37
   4.090000     -1.1697789E-36
   4.100000     -1.4079180E-36
   4.110000     -1.6458379E-36
   4.120000     -1.8738057E-36
   4.130000     -2.0879015E-36
   4.140000     -2.2761808E-36
   4.150000     -2.4239011E-36
   4.160000     -2.5430512E-36
   4.170000     -2.6473596E-36
   4.180000     -2.7212983E-36
   4.190000     -2.7711244E-36
   4.200000     -2.8130366E-36
   4.210000     -2.8492074E-36
   4.220000     -2.9493868E-36
   4.230000     -3.2207763E-36
   4.240000     -3.6014334E-36
   4.250000     -3.9289220E-36
   4.260000     -4.2094999E-36
   4.270000     -4.5030499E-36
   4.280000     -4.8130711E-36
   4.290000     -5.1326371E-36
   4.300000     -5.3323208E-36
   4.310000     -5.3692782E-36
   4.320000     -5.3046913E-36
   4.330000     -5.1810993E-36
   4.340000     -4.9620918E-36
   4.350000     -4.6067207E-36
   4.360000     -4.1577075E-36
   4.370000     -3.6145199E-36
   4.380000     -3.0255391E-36
   4.390000     -2.4359773E-36
   4.400000     -1.8459502E-36
   4.410000     -1.1428216E-36
   4.420000     -3.0350493E-37
   4.430000      5.3566501E-37
   4.440000      1.3925355E-36
   4.450000      2.3283697E-36
   4.460000      3.2164751E-36
   4.470000      4.0449741E-36
   4.480000      4.9368252E-36
   4.490000      5.8793938E-36
   4.500000      6.9288999E-36
   4.510000      8.1515131E-36
   4.520000      9.4949631E-36
   4.530000      1.0949247E-35
   4.540000      1.2406323E-35
   4.550000      1.3995509E-35
   4.560000      1.5784104E-35
   4.570000      1.7827408E-35
   4.580000      2.0069285E-35
   4.590000      2.2175067E-35
   4.600000      2.4344976E-35
   4.610000      2.6676441E-35
   4.620000      2.8601657E-35
   4.630000      3.0099589E-35
   4.640000      3.1594832E-35
   4.650000      3.3036287E-35
   4.660000      3.4410961E-35
   4.670000      3.5613289E-35
   4.680000      3.6554818E-35
   4.690000      3.7461068E-35
   4.700000      3.8234874E-35
   4.710000      3.8732054E-35
   4.720000      3.9025454E-35
   4.730000      3.8948662E-35
   4.740000      3.8482333E-35
   4.750000      3.7778778E-35
   4.760000      3.6723729E-35
   4.770000      3.5207884E-35
   4.780000      3.3375860E-35
   4.790000      3.1273149E-35
   4.800000      2.9101598E-35
   4.810000      2.6950593E-35
   4.820000      2.4644882E-35
   4.830000      2.2547359E-35
   4.840000      2.0906830E-35
   4.850000      1.9209439E-35
   4.860000      1.9150403E-35
   4.870000      2.0567212E-35
   4.880000      2.1218966E-35
   4.890000      2.0916501E-35
   4.900000      1.9280825E-35
   4.910000      1.6725954E-35
   4.920000      1.2897558E-35
   4.930000      7.6612335E-36
   4.940000      6.7038571E-37
   4.950000     -7.7512438E-36
   4.960000     -1.9850884E-35
   4.970000     -3.9554383E-35
   4.980000     -6.2689114E-35
   4.990000     -8.4989085E-35
   5.000000     -1.0968316E-34
   5.010000     -1.3786416E-34
   5.020000     -1.6800429E-34
   5.030000     -1.9895612E-34
   5.040000     -2.2941710E-34
   5.050000     -2.5830017E-34
   5.060000     -2.8191658E-34
   5.070000     -2.9902673E-34
   5.080000     -3.1539882E-34
   5.090000     -3.3263329E-34
   5.100000     -3.4434176E-34
   5.110000     -3.5090752E-34
   5.120000     -3.5614366E-34
   5.130000     -3.5985007E-34
   5.140000     -3.6323409E-34
   5.150000     -3.6971010E-34
   5.160000     -3.7895079E-34
   5.170000     -3.8587599E-34
   5.180000     -3.9310455E-34
   5.190000     -4.0360204E-34
   5.200000     -4.1458166E-34
   5.210000     -4.2182353E-34
   5.220000     -4.2479216E-34
   5.230000     -4.2837035E-34
   5.240000     -4.3401125E-34
   5.250000     -4.3890374E-34
   5.260000     -4.4153326E-34
   5.270000     -4.4259787E-34
   5.280000     -4.4038734E-34
   5.290000     -4.3468275E-34
   5.300000     -4.2376007E-34
   5.310000     -4.0879341E-34
   5.320000     -3.9035720E-34
   5.330000     -3.6675589E-34
   5.340000     -3.3784697E-34
   5.350000     -3.0281648E-34
   5.360000     -2.6211035E-34
   5.370000     -2.1491843E-34
   5.380000     -1.6008445E-34
   5.390000     -9.5662792E-35
   5.400000     -2.3783155E-35
   5.410000      5.2991871E-35
   5.420000      1.3527153E-34
   5.430000      2.2574579E-34
   5.440000      3.2507954E-34
   5.450000      4.3142121E-34
   5.460000      5.4459946E-34
   5.470000      6.6530652E-34
   5.480000      7.9313432E-34
   5.490000      9.2749572E-34
   5.500000      1.0702674E-33
   5.510000      1.2214041E-33
   5.520000      1.3811578E-33
   5.530000      1.5477855E-33
   5.540000      1.7192799E-33
   5.550000      1.8958538E-33
   5.560000      2.0770886E-33
   5.570000      2.2628865E-33
   5.580000      2.4515934E-33
   5.590000      2.6427629E-33
   5.600000      2.8342313E-33
   5.610000      3.0243809E-33
   5.620000      3.2172230E-33
   5.630000      3.4114528E-33
   5.640000      3.6034706E-33
   5.650000      3.7933989E-33
   5.660000      3.9807727E-33
   5.670000      4.1641391E-33
   5.680000      4.3419823E-33
   5.690000      4.5152982E-33
   5.700000      4.6809717E-33
   5.710000      4.8365991E-33
   5.720000      4.9823519E-33
   5.730000      5.1172142E-33
   5.740000      5.2404210E-33
   5.750000      5.3480563E-33
   5.760000      5.4377513E-33
   5.770000      5.5080866E-33
   5.780000      5.5566885E-33
   5.790000      5.5805242E-33
   5.800000      5.5767208E-33
   5.810000      5.5430432E-33
   5.820000      5.4769562E-33
   5.830000      5.3751426E-33
   5.840000      5.2348639E-33
   5.850000      5.0538304E-33
   5.860000      4.8293753E-33
   5.870000      4.5590612E-33
   5.880000      4.2404012E-33
   5.890000      3.8711806E-33
   5.900000      3.4492226E-33
   5.910000      2.9707295E-33
   5.920000      2.4355159E-33
   5.930000      1.8438836E-33
   5.940000      1.1922144E-33
   5.950000      4.7876177E-34
   5.960000     -2.9762511E-34
   5.970000     -1.1380991E-33
   5.980000     -2.0436766E-33
   5.990000     -3.0176007E-33
   6.000000     -4.0604323E-33
   6.010000     -5.1704288E-33
   6.020000     -6.3483065E-33
   6.030000     -7.5944150E-33
   6.040000     -8.9090651E-33
   6.050000     -1.0292435E-32
   6.060000     -1.1744173E-32
   6.070000     -1.3264331E-32
   6.080000     -1.4850374E-32
   6.090000     -1.6501378E-32
   6.100000     -1.8217159E-32
   6.110000     -1.9994454E-32
   6.120000     -2.1833938E-32
   6.130000     -2.3733797E-32
   6.140000     -2.5688560E-32
   6.150000     -2.7694174E-32
   6.160000     -2.9745696E-32
   6.170000     -3.1837453E-32
   6.180000     -3.3962973E-32
   6.190000     -3.6114957E-32
   6.200000     -3.8285225E-32
   6.210000     -4.0464783E-32
   6.220000     -4.2643179E-32
   6.230000     -4.4810256E-32
   6.240000     -4.6954937E-32
   6.250000     -4.9064129E-32
   6.260000     -5.1124495E-32
   6.270000     -5.3121865E-32
   6.280000     -5.5041300E-32
   6.290000     -5.6867061E-32
   6.300000     -5.8582671E-32
   6.310000     -6.0171123E-32
   6.320000     -6.1614730E-32
   6.330000     -6.2895002E-32
   6.340000     -6.3992960E-32
   6.350000     -6.4889040E-32
   6.360000     -6.5563127E-32
   6.370000     -6.5994557E-32
   6.380000     -6.6162112E-32
   6.390000     -6.6044069E-32
   6.400000     -6.5618287E-32
   6.410000     -6.4861980E-32
   6.420000     -6.3751902E-32
   6.430000     -6.2264525E-32
   6.440000     -6.0375823E-32
   6.450000     -5.8061492E-32
   6.460000     -5.5296918E-32
   6.470000     -5.2057061E-32
   6.480000     -4.8317282E-32
   6.490000     -4.4052938E-32
   6.500000     -3.9239033E-32
   6.510000     -3.3851084E-32
   6.520000     -2.7865020E-32
   6.530000     -2.1257356E-32
   6.540000     -1.4005342E-32
   6.550000     -6.0872266E-33
   6.560000      2.5175948E-33
   6.570000      1.1828430E-32
   6.580000      2.1862947E-32
   6.590000      3.2637016E-32
   6.600000      4.4164472E-32
   6.610000      5.6456831E-32
   6.620000      6.9523091E-32
   6.630000      8.3369445E-32
   6.640000      9.7999042E-32
   6.650000      1.1340992E-31
   6.660000      1.2960032E-31
   6.670000      1.4656467E-31
   6.680000      1.6428966E-31
   6.690000      1.8275953E-31
   6.700000      2.0195404E-31
   6.710000      2.2184823E-31
   6.720000      2.4241218E-31
   6.730000      2.6361089E-31
   6.740000      2.8540392E-31
   6.750000      3.0774527E-31
   6.760000      3.3058322E-31
   6.770000      3.5385993E-31
   6.780000      3.7751149E-31
   6.790000      4.0146743E-31
   6.800000      4.2565069E-31
   6.810000      4.4997740E-31
   6.820000      4.7435650E-31
   6.830000      4.9868989E-31
   6.840000      5.2287188E-31
   6.850000      5.4678924E-31
   6.860000      5.7032099E-31
   6.870000      5.9333825E-31
   6.880000      6.1570419E-31
   6.890000      6.3727386E-31
   6.900000      6.5789428E-31
   6.910000      6.7740429E-31
   6.920000      6.9563461E-31
   6.930000      7.1240793E-31
   6.940000      7.2753908E-31
   6.950000      7.4083519E-31
   6.960000      7.5209558E-31
   6.970000      7.6111242E-31
   6.980000      7.6767097E-31
   6.990000      7.7154978E-31
   7.000000      7.7252120E-31
   7.010000      7.7035199E-31
   7.020000      7.6480376E-31
   7.030000      7.5563363E-31
   7.040000      7.4259495E-31
   7.050000      7.2543814E-31
   7.060000      7.0391131E-31