  -2.600000      0.0000000E+00
  -2.590000      0.0000000E+00
  -2.580000      0.0000000E+00
  -2.570000      0.0000000E+00
  -2.560000      0.0000000E+00
  -2.550000      0.0000000E+00
  -2.540000      0.0000000E+00
  -2.530000      0.0000000E+00
  -2.520000      0.0000000E+00
  -2.510000      0.0000000E+00
  -2.500000      0.0000000E+00
  -2.490000      0.0000000E+00
  -2.480000      0.0000000E+00
  -2.470000      0.0000000E+00
  -2.460000      0.0000000E+00
  -2.450000      0.0000000E+00
  -2.440000      0.0000000E+00
  -2.430000      0.0000000E+00
  -2.420000      0.0000000E+00
  -2.410000      0.0000000E+00
  -2.400000      0.0000000E+00
  -2.390000      0.0000000E+00
  -2.380000      0.0000000E+00
  -2.370000      0.0000000E+00
  -2.360000      0.0000000E+00
  -2.350000      0.0000000E+00
  -2.340000      0.0000000E+00
  -2.330000      0.0000000E+00
  -2.320000      0.0000000E+00
  -2.310000      0.0000000E+00
  -2.300000      0.0000000E+00
  -2.290000      0.0000000E+00
  -2.280000      0.0000000E+00
  -2.270000      0.0000000E+00
  -2.260000      0.0000000E+00
  -2.250000      0.0000000E+00
  -2.240000      0.0000000E+00
  -2.230000      0.0000000E+00
  -2.220000      0.0000000E+00
  -2.210000      0.0000000E+00
  -2.200000      0.0000000E+00
  -2.190000      0.0000000E+00
  -2.180000      0.0000000E+00
  -2.170000      0.0000000E+00
  -2.160000      0.0000000E+00
  -2.150000      0.0000000E+00
  -2.140000      0.0000000E+00
  -2.130000      0.0000000E+00
  -2.120000      0.0000000E+00
  -2.110000      0.0000000E+00
  -2.100000      0.0000000E+00
  -2.090000      0.0000000E+00
  -2.080000      0.0000000E+00
  -2.070000      0.0000000E+00
  -2.060000      0.0000000E+00
  -2.050000      0.0000000E+00
  -2.040000      0.0000000E+00
  -2.030000      0.0000000E+00
  -2.020000      0.0000000E+00
  -2.010000      0.0000000E+00
  -2.000000      0.0000000E+00
  -1.990000      0.0000000E+00
  -1.980000      0.0000000E+00
  -1.970000      0.0000000E+00
  -1.960000      0.0000000E+00
  -1.950000      0.0000000E+00
  -1.940000      0.0000000E+00
  -1.930000      0.0000000E+00
  -1.920000      0.0000000E+00
  -1.910000      0.0000000E+00
  -1.900000      0.0000000E+00
  -1.890000      0.0000000E+00
  -1.880000      0.0000000E+00
  -1.870000      0.0000000E+00
  -1.860000      0.0000000E+00
  -1.850000      0.0000000E+00
  -1.840000      0.0000000E+00
  -1.830000      0.0000000E+00
  -1.820000      0.0000000E+00
  -1.810000      0.0000000E+00
  -1.800000      0.0000000E+00
  -1.790000      0.0000000E+00
  -1.780000      0.0000000E+00
  -1.770000      0.0000000E+00
  -1.760000      0.0000000E+00
  -1.750000      0.0000000E+00
  -1.740000      0.0000000E+00
  -1.730000      0.0000000E+00
  -1.720000      0.0000000E+00
  -1.710000      0.0000000E+00
  -1.700000      0.0000000E+00
  -1.690000      0.0000000E+00
  -1.680000      0.0000000E+00
  -1.670000      0.0000000E+00
  -1.660000      0.0000000E+00
  -1.650000      0.0000000E+00
  -1.640000      0.0000000E+00
  -1.630000      0.0000000E+00
  -1.620000      0.0000000E+00
  -1.610000      0.0000000E+00
  -1.600000      0.0000000E+00
  -1.590000      0.0000000E+00
  -1.580000      0.0000000E+00
  -1.570000      0.0000000E+00
  -1.560000      0.0000000E+00
  -1.550000      0.0000000E+00
  -1.540000      0.0000000E+00
  -1.530000      0.0000000E+00
  -1.520000      0.0000000E+00
  -1.510000      0.0000000E+00
  -1.500000      0.0000000E+00
  -1.490000      0.0000000E+00
  -1.480000      0.0000000E+00
  -1.470000      0.0000000E+00
  -1.460000      0.0000000E+00
  -1.450000      0.0000000E+00
  -1.440000      0.0000000E+00
  -1.430000      0.0000000E+00
  -1.420000      0.0000000E+00
  -1.410000      0.0000000E+00
  -1.400000      0.0000000E+00
  -1.390000      0.0000000E+00
  -1.380000      0.0000000E+00
  -1.370000      0.0000000E+00
  -1.360000      0.0000000E+00
  -1.350000      0.0000000E+00
  -1.340000      0.0000000E+00
  -1.330000      0.0000000E+00
  -1.320000      0.0000000E+00
  -1.310000      0.0000000E+00
  -1.300000      0.0000000E+00
  -1.290000      0.0000000E+00
  -1.280000      0.0000000E+00
  -1.270000      0.0000000E+00
  -1.260000      0.0000000E+00
  -1.250000      0.0000000E+00
  -1.240000      0.0000000E+00
  -1.230000      0.0000000E+00
  -1.220000      0.0000000E+00
  -1.210000      0.0000000E+00
  -1.200000      0.0000000E+00
  -1.190000      0.0000000E+00
  -1.180000      0.0000000E+00
  -1.170000      0.0000000E+00
  -1.160000      0.0000000E+00
  -1.150000      0.0000000E+00
  -1.140000      0.0000000E+00
  -1.130000      0.0000000E+00
  -1.120000      0.0000000E+00
  -1.110000      0.0000000E+00
  -1.100000      0.0000000E+00
  -1.090000      0.0000000E+00
  -1.080000      0.0000000E+00
  -1.070000      0.0000000E+00
  -1.060000      0.0000000E+00
  -1.050000      0.0000000E+00
  -1.040000      0.0000000E+00
  -1.030000      0.0000000E+00
  -1.020000      0.0000000E+00
  -1.010000      0.0000000E+00
  -1.000000      0.0000000E+00
 -0.9900000      0.0000000E+00
 -0.9800000      0.0000000E+00
 -0.9700000      0.0000000E+00
 -0.9600000      0.0000000E+00
 -0.9500000      0.0000000E+00
 -0.9400000      0.0000000E+00
 -0.9300000      0.0000000E+00
 -0.9200000      0.0000000E+00
 -0.9100000      0.0000000E+00
 -0.9000000      0.0000000E+00
 -0.8900000      0.0000000E+00
 -0.8800000      0.0000000E+00
 -0.8700000      0.0000000E+00
 -0.8600000      0.0000000E+00
 -0.8500000      0.0000000E+00
 -0.8400000      0.0000000E+00
 -0.8300000      0.0000000E+00
 -0.8200000      0.0000000E+00
 -0.8100000      0.0000000E+00
 -0.8000000      0.0000000E+00
 -0.7900000      0.0000000E+00
 -0.7800000      0.0000000E+00
 -0.7700000      0.0000000E+00
 -0.7600000      0.0000000E+00
 -0.7500000      0.0000000E+00
 -0.7400000      0.0000000E+00
 -0.7300000      0.0000000E+00
 -0.7200000      0.0000000E+00
 -0.7100000      0.0000000E+00
 -0.7000000      0.0000000E+00
 -0.6900000      0.0000000E+00
 -0.6800000      0.0000000E+00
 -0.6700000      0.0000000E+00
 -0.6600000      0.0000000E+00
 -0.6500000      0.0000000E+00
 -0.6400000      0.0000000E+00
 -0.6300000      0.0000000E+00
 -0.6200000      0.0000000E+00
 -0.6100000      0.0000000E+00
 -0.6000000      0.0000000E+00
 -0.5900000      0.0000000E+00
 -0.5800000      0.0000000E+00
 -0.5700000      0.0000000E+00
 -0.5600000      0.0000000E+00
 -0.5500000      0.0000000E+00
 -0.5400000      0.0000000E+00
 -0.5300000      0.0000000E+00
 -0.5200000      0.0000000E+00
 -0.5100000      0.0000000E+00
 -0.5000000      0.0000000E+00
 -0.4900000      0.0000000E+00
 -0.4800000      0.0000000E+00
 -0.4700000      0.0000000E+00
 -0.4600000      0.0000000E+00
 -0.4500000      0.0000000E+00
 -0.4400000      0.0000000E+00
 -0.4300000      0.0000000E+00
 -0.4200000      0.0000000E+00
 -0.4100000      0.0000000E+00
 -0.4000000      0.0000000E+00
 -0.3900000      0.0000000E+00
 -0.3800000      0.0000000E+00
 -0.3700000      0.0000000E+00
 -0.3600000      0.0000000E+00
 -0.3500000      0.0000000E+00
 -0.3400000      0.0000000E+00
 -0.3300000      0.0000000E+00
 -0.3200000      0.0000000E+00
 -0.3100000      0.0000000E+00
 -0.3000000      0.0000000E+00
 -0.2900000      0.0000000E+00
 -0.2800000      0.0000000E+00
 -0.2700000      0.0000000E+00
 -0.2600000      0.0000000E+00
 -0.2500000      0.0000000E+00
 -0.2400000      0.0000000E+00
 -0.2300000      0.0000000E+00
 -0.2200000      0.0000000E+00
 -0.2100000      0.0000000E+00
 -0.2000000      0.0000000E+00
 -0.1900000      0.0000000E+00
 -0.1800000      0.0000000E+00
 -0.1700000      0.0000000E+00
 -0.1600000      0.0000000E+00
 -0.1500000      0.0000000E+00
 -0.1400000      0.0000000E+00
 -0.1300000      0.0000000E+00
 -0.1200000      0.0000000E+00
 -0.1100000      0.0000000E+00
 -0.1000000      0.0000000E+00
 -9.0000004E-02  0.0000000E+00
 -7.9999998E-02  0.0000000E+00
 -7.0000000E-02  0.0000000E+00
 -5.9999999E-02  0.0000000E+00
 -5.0000001E-02  0.0000000E+00
 -3.9999999E-02  0.0000000E+00
 -2.9999999E-02  0.0000000E+00
 -2.0000000E-02  0.0000000E+00
 -9.9999998E-03  0.0000000E+00
 -3.4694470E-17  0.0000000E+00
  9.9999998E-03  0.0000000E+00
  2.0000000E-02  0.0000000E+00
  2.9999999E-02  0.0000000E+00
  3.9999999E-02  0.0000000E+00
  5.0000001E-02  0.0000000E+00
  5.9999999E-02  0.0000000E+00
  7.0000000E-02  0.0000000E+00
  7.9999998E-02  0.0000000E+00
  9.0000004E-02  0.0000000E+00
  0.1000000      0.0000000E+00
  0.1100000      0.0000000E+00
  0.1200000      0.0000000E+00
  0.1300000      0.0000000E+00
  0.1400000      0.0000000E+00
  0.1500000      0.0000000E+00
  0.1600000      0.0000000E+00
  0.1700000      0.0000000E+00
  0.1800000      0.0000000E+00
  0.1900000      0.0000000E+00
  0.2000000      0.0000000E+00
  0.2100000      0.0000000E+00
  0.2200000      0.0000000E+00
  0.2300000      0.0000000E+00
  0.2400000      0.0000000E+00
  0.2500000      0.0000000E+00
  0.2600000      0.0000000E+00
  0.2700000      0.0000000E+00
  0.2800000      0.0000000E+00
  0.2900000      0.0000000E+00
  0.3000000      0.0000000E+00
  0.3100000      0.0000000E+00
  0.3200000      0.0000000E+00
  0.3300000      0.0000000E+00
  0.3400000      0.0000000E+00
  0.3500000      0.0000000E+00
  0.3600000      0.0000000E+00
  0.3700000      0.0000000E+00
  0.3800000      0.0000000E+00
  0.3900000      0.0000000E+00
  0.4000000      0.0000000E+00
  0.4100000      0.0000000E+00
  0.4200000      0.0000000E+00
  0.4300000      0.0000000E+00
  0.4400000      0.0000000E+00
  0.4500000      0.0000000E+00
  0.4600000      0.0000000E+00
  0.4700000      0.0000000E+00
  0.4800000      0.0000000E+00
  0.4900000      0.0000000E+00
  0.5000000      0.0000000E+00
  0.5100000      0.0000000E+00
  0.5200000      0.0000000E+00
  0.5300000      0.0000000E+00
  0.5400000      0.0000000E+00
  0.5500000      0.0000000E+00
  0.5600000      0.0000000E+00
  0.5700000      0.0000000E+00
  0.5800000      0.0000000E+00
  0.5900000      0.0000000E+00
  0.6000000      0.0000000E+00
  0.6100000      0.0000000E+00
  0.6200000      0.0000000E+00
  0.6300000      0.0000000E+00
  0.6400000      0.0000000E+00
  0.6500000      0.0000000E+00
  0.6600000      0.0000000E+00
  0.6700000      0.0000000E+00
  0.6800000      0.0000000E+00
  0.6900000      0.0000000E+00
  0.7000000      0.0000000E+00
  0.7100000      0.0000000E+00
  0.7200000      0.0000000E+00
  0.7300000      0.0000000E+00
  0.7400000      0.0000000E+00
  0.7500000      0.0000000E+00
  0.7600000      0.0000000E+00
  0.7700000      0.0000000E+00
  0.7800000      0.0000000E+00
  0.7900000      0.0000000E+00
  0.8000000      0.0000000E+00
  0.8100000      0.0000000E+00
  0.8200000      0.0000000E+00
  0.8300000      0.0000000E+00
  0.8400000      0.0000000E+00
  0.8500000      0.0000000E+00
  0.8600000      0.0000000E+00
  0.8700000      0.0000000E+00
  0.8800000      0.0000000E+00
  0.8900000      0.0000000E+00
  0.9000000      0.0000000E+00
  0.9100000      0.0000000E+00
  0.9200000      0.0000000E+00
  0.9300000      0.0000000E+00
  0.9400000      0.0000000E+00
  0.9500000      0.0000000E+00
  0.9600000      0.0000000E+00
  0.9700000      0.0000000E+00
  0.9800000      0.0000000E+00
  0.9900000      0.0000000E+00
   1.000000      0.0000000E+00
   1.010000      0.0000000E+00
   1.020000      0.0000000E+00
   1.030000      0.0000000E+00
   1.040000      0.0000000E+00
   1.050000      0.0000000E+00
   1.060000      0.0000000E+00
   1.070000      0.0000000E+00
   1.080000      0.0000000E+00
   1.090000      0.0000000E+00
   1.100000      0.0000000E+00
   1.110000      0.0000000E+00
   1.120000      0.0000000E+00
   1.130000      0.0000000E+00
   1.140000      0.0000000E+00
   1.150000      0.0000000E+00
   1.160000      0.0000000E+00
   1.170000      0.0000000E+00
   1.180000      0.0000000E+00
   1.190000      0.0000000E+00
   1.200000      0.0000000E+00
   1.210000      0.0000000E+00
   1.220000      0.0000000E+00
   1.230000      0.0000000E+00
   1.240000      0.0000000E+00
   1.250000      0.0000000E+00
   1.260000      0.0000000E+00
   1.270000      0.0000000E+00
   1.280000      0.0000000E+00
   1.290000      0.0000000E+00
   1.300000      0.0000000E+00
   1.310000      0.0000000E+00
   1.320000      0.0000000E+00
   1.330000      0.0000000E+00
   1.340000      0.0000000E+00
   1.350000      0.0000000E+00
   1.360000      0.0000000E+00
   1.370000      0.0000000E+00
   1.380000      0.0000000E+00
   1.390000      0.0000000E+00
   1.400000      0.0000000E+00
   1.410000      0.0000000E+00
   1.420000      0.0000000E+00
   1.430000      0.0000000E+00
   1.440000      0.0000000E+00
   1.450000      0.0000000E+00
   1.460000      0.0000000E+00
   1.470000      0.0000000E+00
   1.480000      0.0000000E+00
   1.490000      0.0000000E+00
   1.500000      0.0000000E+00
   1.510000      0.0000000E+00
   1.520000      0.0000000E+00
   1.530000      0.0000000E+00
   1.540000      0.0000000E+00
   1.550000      0.0000000E+00
   1.560000      0.0000000E+00
   1.570000      0.0000000E+00
   1.580000      0.0000000E+00
   1.590000      0.0000000E+00
   1.600000      0.0000000E+00
   1.610000      0.0000000E+00
   1.620000      0.0000000E+00
   1.630000      0.0000000E+00
   1.640000      0.0000000E+00
   1.650000      0.0000000E+00
   1.660000      0.0000000E+00
   1.670000      0.0000000E+00
   1.680000      0.0000000E+00
   1.690000      0.0000000E+00
   1.700000      0.0000000E+00
   1.710000      0.0000000E+00
   1.720000      0.0000000E+00
   1.730000      0.0000000E+00
   1.740000      0.0000000E+00
   1.750000      0.0000000E+00
   1.760000      0.0000000E+00
   1.770000      0.0000000E+00
   1.780000      0.0000000E+00
   1.790000      0.0000000E+00
   1.800000      0.0000000E+00
   1.810000      0.0000000E+00
   1.820000      0.0000000E+00
   1.830000      0.0000000E+00
   1.840000      0.0000000E+00
   1.850000      0.0000000E+00
   1.860000      0.0000000E+00
   1.870000      0.0000000E+00
   1.880000      0.0000000E+00
   1.890000      0.0000000E+00
   1.900000      0.0000000E+00
   1.910000      0.0000000E+00
   1.920000      0.0000000E+00
   1.930000      0.0000000E+00
   1.940000      0.0000000E+00
   1.950000      0.0000000E+00
   1.960000      0.0000000E+00
   1.970000      0.0000000E+00
   1.980000      0.0000000E+00
   1.990000      0.0000000E+00
   2.000000      0.0000000E+00
   2.010000      0.0000000E+00
   2.020000      0.0000000E+00
   2.030000      0.0000000E+00
   2.040000      0.0000000E+00
   2.050000      0.0000000E+00
   2.060000      0.0000000E+00
   2.070000      0.0000000E+00
   2.080000      0.0000000E+00
   2.090000      0.0000000E+00
   2.100000      0.0000000E+00
   2.110000      0.0000000E+00
   2.120000      0.0000000E+00
   2.130000      0.0000000E+00
   2.140000      0.0000000E+00
   2.150000      0.0000000E+00
   2.160000      0.0000000E+00
   2.170000      0.0000000E+00
   2.180000      0.0000000E+00
   2.190000      0.0000000E+00
   2.200000      0.0000000E+00
   2.210000      0.0000000E+00
   2.220000      0.0000000E+00
   2.230000      0.0000000E+00
   2.240000      0.0000000E+00
   2.250000      0.0000000E+00
   2.260000      0.0000000E+00
   2.270000      0.0000000E+00
   2.280000      0.0000000E+00
   2.290000      0.0000000E+00
   2.300000      0.0000000E+00
   2.310000      0.0000000E+00
   2.320000      0.0000000E+00
   2.330000      0.0000000E+00
   2.340000      0.0000000E+00
   2.350000      0.0000000E+00
   2.360000      0.0000000E+00
   2.370000      0.0000000E+00
   2.380000      0.0000000E+00
   2.390000      0.0000000E+00
   2.400000      0.0000000E+00
   2.410000      0.0000000E+00
   2.420000      0.0000000E+00
   2.430000      0.0000000E+00
   2.440000      0.0000000E+00
   2.450000      0.0000000E+00
   2.460000      0.0000000E+00
   2.470000      0.0000000E+00
   2.480000      0.0000000E+00
   2.490000      0.0000000E+00
   2.500000      0.0000000E+00
   2.510000      0.0000000E+00
   2.520000      0.0000000E+00
   2.530000      0.0000000E+00
   2.540000      0.0000000E+00
   2.550000      0.0000000E+00
   2.560000      0.0000000E+00
   2.570000      0.0000000E+00
   2.580000      0.0000000E+00
   2.590000      0.0000000E+00
   2.600000      0.0000000E+00
   2.610000      0.0000000E+00
   2.620000      0.0000000E+00
   2.630000      0.0000000E+00
   2.640000      0.0000000E+00
   2.650000      0.0000000E+00
   2.660000      0.0000000E+00
   2.670000      0.0000000E+00
   2.680000      0.0000000E+00
   2.690000      0.0000000E+00
   2.700000      0.0000000E+00
   2.710000      0.0000000E+00
   2.720000      0.0000000E+00
   2.730000      0.0000000E+00
   2.740000      0.0000000E+00
   2.750000      0.0000000E+00
   2.760000      0.0000000E+00
   2.770000      0.0000000E+00
   2.780000      0.0000000E+00
   2.790000      0.0000000E+00
   2.800000      0.0000000E+00
   2.810000      0.0000000E+00
   2.820000      0.0000000E+00
   2.830000      0.0000000E+00
   2.840000      0.0000000E+00
   2.850000      0.0000000E+00
   2.860000      0.0000000E+00
   2.870000      0.0000000E+00
   2.880000      0.0000000E+00
   2.890000      0.0000000E+00
   2.900000      0.0000000E+00
   2.910000      0.0000000E+00
   2.920000      0.0000000E+00
   2.930000      0.0000000E+00
   2.940000      0.0000000E+00
   2.950000      0.0000000E+00
   2.960000      0.0000000E+00
   2.970000      0.0000000E+00
   2.980000      0.0000000E+00
   2.990000      0.0000000E+00
   3.000000      0.0000000E+00
   3.010000      0.0000000E+00
   3.020000      0.0000000E+00
   3.030000      0.0000000E+00
   3.040000      0.0000000E+00
   3.050000      0.0000000E+00
   3.060000      0.0000000E+00
   3.070000      0.0000000E+00
   3.080000      0.0000000E+00
   3.090000      0.0000000E+00
   3.100000      0.0000000E+00
   3.110000      0.0000000E+00
   3.120000      0.0000000E+00
   3.130000      0.0000000E+00
   3.140000      0.0000000E+00
   3.150000      0.0000000E+00
   3.160000      0.0000000E+00
   3.170000      0.0000000E+00
   3.180000      0.0000000E+00
   3.190000      0.0000000E+00
   3.200000      0.0000000E+00
   3.210000      0.0000000E+00
   3.220000      0.0000000E+00
   3.230000      0.0000000E+00
   3.240000      0.0000000E+00
   3.250000      0.0000000E+00
   3.260000      0.0000000E+00
   3.270000      0.0000000E+00
   3.280000      0.0000000E+00
   3.290000      0.0000000E+00
   3.300000      0.0000000E+00
   3.310000      1.2330963E-38
   3.320000      1.4089439E-38
   3.330000      1.5827546E-38
   3.340000      1.7435216E-38
   3.350000      1.8933517E-38
   3.360000      2.0405750E-38
   3.370000      2.1562850E-38
   3.380000      2.2369733E-38
   3.390000      2.3388237E-38
   3.400000      2.4639107E-38
   3.410000      2.5933152E-38
   3.420000      2.7154866E-38
   3.430000      2.8190241E-38
   3.440000      2.9072493E-38
   3.450000      2.9930194E-38
   3.460000      3.0804063E-38
   3.470000      3.1107144E-38
   3.480000      3.1058808E-38
   3.490000      3.1492913E-38
   3.500000      3.2139921E-38
   3.510000      3.2646303E-38
   3.520000      3.3342459E-38
   3.530000      3.3880272E-38
   3.540000      3.3953515E-38
   3.550000      3.4249464E-38
   3.560000      3.5052750E-38
   3.570000      3.5911056E-38
   3.580000      3.6456293E-38
   3.590000      3.6537372E-38
   3.600000      3.6381873E-38
   3.610000      3.5917281E-38
   3.620000      3.4598017E-38
   3.630000      3.1835528E-38
   3.640000      2.7326898E-38
   3.650000      2.1723558E-38
   3.660000      1.5363724E-38
   3.670000      0.0000000E+00
   3.680000      0.0000000E+00
   3.690000      0.0000000E+00
   3.700000     -2.3445481E-38
   3.710000     -3.7024234E-38
   3.720000     -5.1564835E-38
   3.730000     -6.8004510E-38
   3.740000     -8.6631993E-38
   3.750000     -1.0575249E-37
   3.760000     -1.2267702E-37
   3.770000     -1.3764119E-37
   3.780000     -1.5318951E-37
   3.790000     -1.6861238E-37
   3.800000     -1.8297266E-37
   3.810000     -1.9662482E-37
   3.820000     -2.0993216E-37
   3.830000     -2.1993812E-37
   3.840000     -2.2731926E-37
   3.850000     -2.3651777E-37
   3.860000     -2.4775506E-37
   3.870000     -2.5826159E-37
   3.880000     -2.6808391E-37
   3.890000     -2.7851540E-37
   3.900000     -2.8839415E-37
   3.910000     -2.9673668E-37
   3.920000     -3.0174835E-37
   3.930000     -2.9994724E-37
   3.940000     -2.9205385E-37
   3.950000     -2.8113666E-37
   3.960000     -2.6584623E-37
   3.970000     -2.4547184E-37
   3.980000     -2.2020829E-37
   3.990000     -1.9217820E-37
   4.000000     -1.5926971E-37
   4.010000     -1.2381923E-37
   4.020000     -8.8191661E-38
   4.030000     -4.7950825E-38
   4.040000      0.0000000E+00
   4.050000      6.0670960E-38
   4.060000      1.3069609E-37
   4.070000      2.1653357E-37
   4.080000      3.2224461E-37
   4.090000      4.6474658E-37
   4.100000      6.6001566E-37
   4.110000      9.0185489E-37
   4.120000      1.1696362E-36
   4.130000      1.4545730E-36
   4.140000      1.7356859E-36
   4.150000      2.0375339E-36
   4.160000      2.3446370E-36
   4.170000      2.6008661E-36
   4.180000      2.8184900E-36
   4.190000      3.0103059E-36
   4.200000      3.1353019E-36
   4.210000      3.1930581E-36
   4.220000      3.2204535E-36
   4.230000      3.2208057E-36
   4.240000      3.2021057E-36
   4.250000      3.1824992E-36
   4.260000      3.1629099E-36
   4.270000      3.1369309E-36
   4.280000      3.1121120E-36
   4.290000      3.0751927E-36
   4.300000      2.9970204E-36
   4.310000      2.8890032E-36
   4.320000      2.7897744E-36
   4.330000      2.6513001E-36
   4.340000      2.4986968E-36
   4.350000      2.3610696E-36
   4.360000      2.1659432E-36
   4.370000      1.8722583E-36
   4.380000      1.4868165E-36
   4.390000      1.0397642E-36
   4.400000      5.2814428E-37
   4.410000      3.0097069E-38
   4.420000     -4.1447462E-37
   4.430000     -8.7032356E-37
   4.440000     -1.3566937E-36
   4.450000     -1.8068110E-36
   4.460000     -2.2215882E-36
   4.470000     -2.6838549E-36
   4.480000     -3.2064665E-36
   4.490000     -3.7933240E-36
   4.500000     -4.4687382E-36
   4.510000     -5.2461644E-36
   4.520000     -6.1234553E-36
   4.530000     -7.1183200E-36
   4.540000     -8.2297418E-36
   4.550000     -9.4455620E-36
   4.560000     -1.0739413E-35
   4.570000     -1.2023888E-35
   4.580000     -1.3325322E-35
   4.590000     -1.4610154E-35
   4.600000     -1.5861276E-35
   4.610000     -1.7148897E-35
   4.620000     -1.8428381E-35
   4.630000     -1.9621582E-35
   4.640000     -2.0730166E-35
   4.650000     -2.1774879E-35
   4.660000     -2.2684840E-35
   4.670000     -2.3453793E-35
   4.680000     -2.4184545E-35
   4.690000     -2.4876049E-35
   4.700000     -2.5398438E-35
   4.710000     -2.5734258E-35
   4.720000     -2.5523897E-35
   4.730000     -2.4763132E-35
   4.740000     -2.3828107E-35
   4.750000     -2.2868326E-35
   4.760000     -2.1859551E-35
   4.770000     -2.0580780E-35
   4.780000     -1.9042031E-35
   4.790000     -1.7311612E-35
   4.800000     -1.5406710E-35
   4.810000     -1.3543833E-35
   4.820000     -1.1748897E-35
   4.830000     -9.7821987E-36
   4.840000     -7.5788083E-36
   4.850000     -5.2647464E-36
   4.860000     -2.8555697E-36
   4.870000     -2.1102476E-37
   4.880000      2.7278749E-36
   4.890000      6.1760275E-36
   4.900000      1.0115648E-35
   4.910000      1.4168794E-35
   4.920000      1.8715246E-35
   4.930000      2.4975068E-35
   4.940000      3.2383340E-35
   4.950000      4.1594319E-35
   4.960000      5.3462189E-35
   4.970000      6.7662408E-35
   4.980000      8.4096152E-35
   4.990000      1.0212542E-34
   5.000000      1.2122011E-34
   5.010000      1.4077119E-34
   5.020000      1.5817000E-34
   5.030000      1.7336351E-34
   5.040000      1.8488854E-34
   5.050000      1.9187279E-34
   5.060000      1.9735597E-34
   5.070000      2.0043072E-34
   5.080000      2.0151360E-34
   5.090000      2.0189285E-34
   5.100000      2.0374318E-34
   5.110000      2.0755527E-34
   5.120000      2.1127047E-34
   5.130000      2.1483879E-34
   5.140000      2.1861729E-34
   5.150000      2.2243560E-34
   5.160000      2.2613641E-34
   5.170000      2.3086367E-34
   5.180000      2.3322547E-34
   5.190000      2.3048710E-34
   5.200000      2.2478239E-34
   5.210000      2.1758770E-34
   5.220000      2.1221936E-34
   5.230000      2.1071854E-34
   5.240000      2.1016324E-34
   5.250000      2.0786742E-34
   5.260000      2.0106771E-34
   5.270000      1.8779405E-34
   5.280000      1.7109970E-34
   5.290000      1.5228211E-34
   5.300000      1.3430183E-34
   5.310000      1.1515986E-34
   5.320000      8.9171308E-35
   5.330000      5.5661500E-35
   5.340000      1.4592739E-35
   5.350000     -3.3387727E-35
   5.360000     -8.8235045E-35
   5.370000     -1.5108746E-34
   5.380000     -2.2186774E-34
   5.390000     -2.9619638E-34
   5.400000     -3.7264360E-34
   5.410000     -4.5292720E-34
   5.420000     -5.3648244E-34
   5.430000     -6.2232802E-34
   5.440000     -7.0945970E-34
   5.450000     -7.9701272E-34
   5.460000     -8.8498066E-34
   5.470000     -9.7408818E-34
   5.480000     -1.0633260E-33
   5.490000     -1.1511017E-33
   5.500000     -1.2360449E-33
   5.510000     -1.3181476E-33
   5.520000     -1.3989196E-33
   5.530000     -1.4787977E-33
   5.540000     -1.5571741E-33
   5.550000     -1.6332201E-33
   5.560000     -1.7105673E-33
   5.570000     -1.7878459E-33
   5.580000     -1.8632390E-33
   5.590000     -1.9390161E-33
   5.600000     -2.0121093E-33
   5.610000     -2.0821036E-33
   5.620000     -2.1516634E-33
   5.630000     -2.2215442E-33
   5.640000     -2.2903600E-33
   5.650000     -2.3549542E-33
   5.660000     -2.4143118E-33
   5.670000     -2.4686008E-33
   5.680000     -2.5161725E-33
   5.690000     -2.5552953E-33
   5.700000     -2.5856925E-33
   5.710000     -2.6035093E-33
   5.720000     -2.6051056E-33
   5.730000     -2.5904968E-33
   5.740000     -2.5573414E-33
   5.750000     -2.5033116E-33
   5.760000     -2.4271336E-33
   5.770000     -2.3268079E-33
   5.780000     -2.1998859E-33
   5.790000     -2.0449948E-33
   5.800000     -1.8614153E-33
   5.810000     -1.6484861E-33
   5.820000     -1.4057690E-33
   5.830000     -1.1328601E-33
   5.840000     -8.2948594E-34
   5.850000     -4.9571694E-34
   5.860000     -1.3160945E-34
   5.870000      2.6239516E-34
   5.880000      6.8576995E-34
   5.890000      1.1377756E-33
   5.900000      1.6178046E-33
   5.910000      2.1256674E-33
   5.920000      2.6608143E-33
   5.930000      3.2231618E-33
   5.940000      3.8124485E-33
   5.950000      4.4275931E-33
   5.960000      5.0687166E-33
   5.970000      5.7365201E-33
   5.980000      6.4308254E-33
   5.990000      7.1518553E-33
   6.000000      7.8999759E-33
   6.010000      8.6741881E-33
   6.020000      9.4759531E-33
   6.030000      1.0306001E-32
   6.040000      1.1162176E-32
   6.050000      1.2043654E-32
   6.060000      1.2949609E-32
   6.070000      1.3878736E-32
   6.080000      1.4828171E-32
   6.090000      1.5794621E-32
   6.100000      1.6776159E-32
   6.110000      1.7768695E-32
   6.120000      1.8766573E-32
   6.130000      1.9764987E-32
   6.140000      2.0758303E-32
   6.150000      2.1740107E-32
   6.160000      2.2703499E-32
   6.170000      2.3640975E-32
   6.180000      2.4544679E-32
   6.190000      2.5406227E-32
   6.200000      2.6216765E-32
   6.210000      2.6967560E-32
   6.220000      2.7649584E-32
   6.230000      2.8253515E-32
   6.240000      2.8770007E-32
   6.250000      2.9189714E-32
   6.260000      2.9503292E-32
   6.270000      2.9701363E-32
   6.280000      2.9774593E-32
   6.290000      2.9713676E-32
   6.300000      2.9509281E-32
   6.310000      2.9152066E-32
   6.320000      2.8632583E-32
   6.330000      2.7941298E-32
   6.340000      2.7068493E-32
   6.350000      2.6004283E-32
   6.360000      2.4738631E-32
   6.370000      2.3261214E-32
   6.380000      2.1561520E-32
   6.390000      1.9628854E-32
   6.400000      1.7452306E-32
   6.410000      1.5020750E-32
   6.420000      1.2322882E-32
   6.430000      9.3475318E-33
   6.440000      6.0836285E-33
   6.450000      2.5201995E-33
   6.460000     -1.3534009E-33
   6.470000     -5.5473735E-33
   6.480000     -1.0071324E-32
   6.490000     -1.4934106E-32
   6.500000     -2.0143656E-32
   6.510000     -2.5706812E-32
   6.520000     -3.1629132E-32
   6.530000     -3.7914747E-32
   6.540000     -4.4566182E-32
   6.550000     -5.1584166E-32
   6.560000     -5.8967487E-32
   6.570000     -6.6712872E-32
   6.580000     -7.4814885E-32
   6.590000     -8.3265813E-32
   6.600000     -9.2055531E-32
   6.610000     -1.0117150E-31
   6.620000     -1.1059863E-31
   6.630000     -1.2031930E-31
   6.640000     -1.3031328E-31
   6.650000     -1.4055773E-31
   6.660000     -1.5102714E-31
   6.670000     -1.6169332E-31
   6.680000     -1.7252535E-31
   6.690000     -1.8348957E-31
   6.700000     -1.9454945E-31
   6.710000     -2.0566562E-31
   6.720000     -2.1679569E-31
   6.730000     -2.2789429E-31
   6.740000     -2.3891281E-31
   6.750000     -2.4979951E-31
   6.760000     -2.6049916E-31
   6.770000     -2.7095316E-31
   6.780000     -2.8109933E-31
   6.790000     -2.9087173E-31
   6.800000     -3.0020073E-31
   6.810000     -3.0901287E-31
   6.820000     -3.1723078E-31
   6.830000     -3.2477315E-31
   6.840000     -3.3155476E-31
   6.850000     -3.3748654E-31
   6.860000     -3.4247546E-31
   6.870000     -3.4642479E-31
   6.880000     -3.4923418E-31
   6.890000     -3.5079977E-31
   6.900000     -3.5101449E-31
   6.910000     -3.4976827E-31
   6.920000     -3.4694833E-31
   6.930000     -3.4243956E-31
   6.940000     -3.3612490E-31
   6.950000     -3.2788569E-31
   6.960000     -3.1760221E-31
   6.970000     -3.0515410E-31
   6.980000     -2.9042104E-31
   6.990000     -2.7328309E-31
   7.000000     -2.5362139E-31
   7.010000     -2.3131876E-31
   7.020000     -2.0626026E-31
   7.030000     -1.7833379E-31
   7.040000     -1.4743085E-31
   7.050000     -1.1344712E-31
   7.060000     -7.6283148E-32