  -2.600000      0.0000000E+00
  -2.590000      0.0000000E+00
  -2.580000      0.0000000E+00
  -2.570000      0.0000000E+00
  -2.560000      0.0000000E+00
  -2.550000      0.0000000E+00
  -2.540000      0.0000000E+00
  -2.530000      0.0000000E+00
  -2.520000      0.0000000E+00
  -2.510000      0.0000000E+00
  -2.500000      0.0000000E+00
  -2.490000      0.0000000E+00
  -2.480000      0.0000000E+00
  -2.470000      0.0000000E+00
  -2.460000      0.0000000E+00
  -2.450000      0.0000000E+00
  -2.440000      0.0000000E+00
  -2.430000      0.0000000E+00
  -2.420000      0.0000000E+00
  -2.410000      0.0000000E+00
  -2.400000      0.0000000E+00
  -2.390000      0.0000000E+00
  -2.380000      0.0000000E+00
  -2.370000      0.0000000E+00
  -2.360000      0.0000000E+00
  -2.350000      0.0000000E+00
  -2.340000      0.0000000E+00
  -2.330000      0.0000000E+00
  -2.320000      0.0000000E+00
  -2.310000      0.0000000E+00
  -2.300000      0.0000000E+00
  -2.290000      0.0000000E+00
  -2.280000      0.0000000E+00
  -2.270000      0.0000000E+00
  -2.260000      0.0000000E+00
  -2.250000      0.0000000E+00
  -2.240000      0.0000000E+00
  -2.230000      0.0000000E+00
  -2.220000      0.0000000E+00
  -2.210000      0.0000000E+00
  -2.200000      0.0000000E+00
  -2.190000      0.0000000E+00
  -2.180000      0.0000000E+00
  -2.170000      0.0000000E+00
  -2.160000      0.0000000E+00
  -2.150000      0.0000000E+00
  -2.140000      0.0000000E+00
  -2.130000      0.0000000E+00
  -2.120000      0.0000000E+00
  -2.110000      0.0000000E+00
  -2.100000      0.0000000E+00
  -2.090000      0.0000000E+00
  -2.080000      0.0000000E+00
  -2.070000      0.0000000E+00
  -2.060000      0.0000000E+00
  -2.050000      0.0000000E+00
  -2.040000      0.0000000E+00
  -2.030000      0.0000000E+00
  -2.020000      0.0000000E+00
  -2.010000      0.0000000E+00
  -2.000000      0.0000000E+00
  -1.990000      0.0000000E+00
  -1.980000      0.0000000E+00
  -1.970000      0.0000000E+00
  -1.960000      0.0000000E+00
  -1.950000      0.0000000E+00
  -1.940000      0.0000000E+00
  -1.930000      0.0000000E+00
  -1.920000      0.0000000E+00
  -1.910000      0.0000000E+00
  -1.900000      0.0000000E+00
  -1.890000      0.0000000E+00
  -1.880000      0.0000000E+00
  -1.870000      0.0000000E+00
  -1.860000      0.0000000E+00
  -1.850000      0.0000000E+00
  -1.840000      0.0000000E+00
  -1.830000      0.0000000E+00
  -1.820000      0.0000000E+00
  -1.810000      0.0000000E+00
  -1.800000      0.0000000E+00
  -1.790000      0.0000000E+00
  -1.780000      0.0000000E+00
  -1.770000      0.0000000E+00
  -1.760000      0.0000000E+00
  -1.750000      0.0000000E+00
  -1.740000      0.0000000E+00
  -1.730000      0.0000000E+00
  -1.720000      0.0000000E+00
  -1.710000      0.0000000E+00
  -1.700000      0.0000000E+00
  -1.690000      0.0000000E+00
  -1.680000      0.0000000E+00
  -1.670000      0.0000000E+00
  -1.660000      0.0000000E+00
  -1.650000      0.0000000E+00
  -1.640000      0.0000000E+00
  -1.630000      0.0000000E+00
  -1.620000      0.0000000E+00
  -1.610000      0.0000000E+00
  -1.600000      0.0000000E+00
  -1.590000      0.0000000E+00
  -1.580000      0.0000000E+00
  -1.570000      0.0000000E+00
  -1.560000      0.0000000E+00
  -1.550000      0.0000000E+00
  -1.540000      0.0000000E+00
  -1.530000      0.0000000E+00
  -1.520000      0.0000000E+00
  -1.510000      0.0000000E+00
  -1.500000      0.0000000E+00
  -1.490000      0.0000000E+00
  -1.480000      0.0000000E+00
  -1.470000      0.0000000E+00
  -1.460000      0.0000000E+00
  -1.450000      0.0000000E+00
  -1.440000      0.0000000E+00
  -1.430000      0.0000000E+00
  -1.420000      0.0000000E+00
  -1.410000      0.0000000E+00
  -1.400000      0.0000000E+00
  -1.390000      0.0000000E+00
  -1.380000      0.0000000E+00
  -1.370000      0.0000000E+00
  -1.360000      0.0000000E+00
  -1.350000      0.0000000E+00
  -1.340000      0.0000000E+00
  -1.330000      0.0000000E+00
  -1.320000      0.0000000E+00
  -1.310000      0.0000000E+00
  -1.300000      0.0000000E+00
  -1.290000      0.0000000E+00
  -1.280000      0.0000000E+00
  -1.270000      0.0000000E+00
  -1.260000      0.0000000E+00
  -1.250000      0.0000000E+00
  -1.240000      0.0000000E+00
  -1.230000      0.0000000E+00
  -1.220000      0.0000000E+00
  -1.210000      0.0000000E+00
  -1.200000      0.0000000E+00
  -1.190000      0.0000000E+00
  -1.180000      0.0000000E+00
  -1.170000      0.0000000E+00
  -1.160000      0.0000000E+00
  -1.150000      0.0000000E+00
  -1.140000      0.0000000E+00
  -1.130000      0.0000000E+00
  -1.120000      0.0000000E+00
  -1.110000      0.0000000E+00
  -1.100000      0.0000000E+00
  -1.090000      0.0000000E+00
  -1.080000      0.0000000E+00
  -1.070000      0.0000000E+00
  -1.060000      0.0000000E+00
  -1.050000      0.0000000E+00
  -1.040000      0.0000000E+00
  -1.030000      0.0000000E+00
  -1.020000      0.0000000E+00
  -1.010000      0.0000000E+00
  -1.000000      0.0000000E+00
 -0.9900000      0.0000000E+00
 -0.9800000      0.0000000E+00
 -0.9700000      0.0000000E+00
 -0.9600000      0.0000000E+00
 -0.9500000      0.0000000E+00
 -0.9400000      0.0000000E+00
 -0.9300000      0.0000000E+00
 -0.9200000      0.0000000E+00
 -0.9100000      0.0000000E+00
 -0.9000000      0.0000000E+00
 -0.8900000      0.0000000E+00
 -0.8800000      0.0000000E+00
 -0.8700000      0.0000000E+00
 -0.8600000      0.0000000E+00
 -0.8500000      0.0000000E+00
 -0.8400000      0.0000000E+00
 -0.8300000      0.0000000E+00
 -0.8200000      0.0000000E+00
 -0.8100000      0.0000000E+00
 -0.8000000      0.0000000E+00
 -0.7900000      0.0000000E+00
 -0.7800000      0.0000000E+00
 -0.7700000      0.0000000E+00
 -0.7600000      0.0000000E+00
 -0.7500000      0.0000000E+00
 -0.7400000      0.0000000E+00
 -0.7300000      0.0000000E+00
 -0.7200000      0.0000000E+00
 -0.7100000      0.0000000E+00
 -0.7000000      0.0000000E+00
 -0.6900000      0.0000000E+00
 -0.6800000      0.0000000E+00
 -0.6700000      0.0000000E+00
 -0.6600000      0.0000000E+00
 -0.6500000      0.0000000E+00
 -0.6400000      0.0000000E+00
 -0.6300000      0.0000000E+00
 -0.6200000      0.0000000E+00
 -0.6100000      0.0000000E+00
 -0.6000000      0.0000000E+00
 -0.5900000      0.0000000E+00
 -0.5800000      0.0000000E+00
 -0.5700000      0.0000000E+00
 -0.5600000      0.0000000E+00
 -0.5500000      0.0000000E+00
 -0.5400000      0.0000000E+00
 -0.5300000      0.0000000E+00
 -0.5200000      0.0000000E+00
 -0.5100000      0.0000000E+00
 -0.5000000      0.0000000E+00
 -0.4900000      0.0000000E+00
 -0.4800000      0.0000000E+00
 -0.4700000      0.0000000E+00
 -0.4600000      0.0000000E+00
 -0.4500000      0.0000000E+00
 -0.4400000      0.0000000E+00
 -0.4300000      0.0000000E+00
 -0.4200000      0.0000000E+00
 -0.4100000      0.0000000E+00
 -0.4000000      0.0000000E+00
 -0.3900000      0.0000000E+00
 -0.3800000      0.0000000E+00
 -0.3700000      0.0000000E+00
 -0.3600000      0.0000000E+00
 -0.3500000      0.0000000E+00
 -0.3400000      0.0000000E+00
 -0.3300000      0.0000000E+00
 -0.3200000      0.0000000E+00
 -0.3100000      0.0000000E+00
 -0.3000000      0.0000000E+00
 -0.2900000      0.0000000E+00
 -0.2800000      0.0000000E+00
 -0.2700000      0.0000000E+00
 -0.2600000      0.0000000E+00
 -0.2500000      0.0000000E+00
 -0.2400000      0.0000000E+00
 -0.2300000      0.0000000E+00
 -0.2200000      0.0000000E+00
 -0.2100000      0.0000000E+00
 -0.2000000      0.0000000E+00
 -0.1900000      0.0000000E+00
 -0.1800000      0.0000000E+00
 -0.1700000      0.0000000E+00
 -0.1600000      0.0000000E+00
 -0.1500000      0.0000000E+00
 -0.1400000      0.0000000E+00
 -0.1300000      0.0000000E+00
 -0.1200000      0.0000000E+00
 -0.1100000      0.0000000E+00
 -0.1000000      0.0000000E+00
 -9.0000004E-02  0.0000000E+00
 -7.9999998E-02  0.0000000E+00
 -7.0000000E-02  0.0000000E+00
 -5.9999999E-02  0.0000000E+00
 -5.0000001E-02  0.0000000E+00
 -3.9999999E-02  0.0000000E+00
 -2.9999999E-02  0.0000000E+00
 -2.0000000E-02  0.0000000E+00
 -9.9999998E-03  0.0000000E+00
 -3.4694470E-17  0.0000000E+00
  9.9999998E-03  0.0000000E+00
  2.0000000E-02  0.0000000E+00
  2.9999999E-02  0.0000000E+00
  3.9999999E-02  0.0000000E+00
  5.0000001E-02  0.0000000E+00
  5.9999999E-02  0.0000000E+00
  7.0000000E-02  0.0000000E+00
  7.9999998E-02  0.0000000E+00
  9.0000004E-02  0.0000000E+00
  0.1000000      0.0000000E+00
  0.1100000      0.0000000E+00
  0.1200000      0.0000000E+00
  0.1300000      0.0000000E+00
  0.1400000      0.0000000E+00
  0.1500000      0.0000000E+00
  0.1600000      0.0000000E+00
  0.1700000      0.0000000E+00
  0.1800000      0.0000000E+00
  0.1900000      0.0000000E+00
  0.2000000      0.0000000E+00
  0.2100000      0.0000000E+00
  0.2200000      0.0000000E+00
  0.2300000      0.0000000E+00
  0.2400000      0.0000000E+00
  0.2500000      0.0000000E+00
  0.2600000      0.0000000E+00
  0.2700000      0.0000000E+00
  0.2800000      0.0000000E+00
  0.2900000      0.0000000E+00
  0.3000000      0.0000000E+00
  0.3100000      0.0000000E+00
  0.3200000      0.0000000E+00
  0.3300000      0.0000000E+00
  0.3400000      0.0000000E+00
  0.3500000      0.0000000E+00
  0.3600000      0.0000000E+00
  0.3700000      0.0000000E+00
  0.3800000      0.0000000E+00
  0.3900000      0.0000000E+00
  0.4000000      0.0000000E+00
  0.4100000      0.0000000E+00
  0.4200000      0.0000000E+00
  0.4300000      0.0000000E+00
  0.4400000      0.0000000E+00
  0.4500000      0.0000000E+00
  0.4600000      0.0000000E+00
  0.4700000      0.0000000E+00
  0.4800000      0.0000000E+00
  0.4900000      0.0000000E+00
  0.5000000      0.0000000E+00
  0.5100000      0.0000000E+00
  0.5200000      0.0000000E+00
  0.5300000      0.0000000E+00
  0.5400000      0.0000000E+00
  0.5500000      0.0000000E+00
  0.5600000      0.0000000E+00
  0.5700000      0.0000000E+00
  0.5800000      0.0000000E+00
  0.5900000      0.0000000E+00
  0.6000000      0.0000000E+00
  0.6100000      0.0000000E+00
  0.6200000      0.0000000E+00
  0.6300000      0.0000000E+00
  0.6400000      0.0000000E+00
  0.6500000      0.0000000E+00
  0.6600000      0.0000000E+00
  0.6700000      0.0000000E+00
  0.6800000      0.0000000E+00
  0.6900000      0.0000000E+00
  0.7000000      0.0000000E+00
  0.7100000      0.0000000E+00
  0.7200000      0.0000000E+00
  0.7300000      0.0000000E+00
  0.7400000      0.0000000E+00
  0.7500000      0.0000000E+00
  0.7600000      0.0000000E+00
  0.7700000      0.0000000E+00
  0.7800000      0.0000000E+00
  0.7900000      0.0000000E+00
  0.8000000      0.0000000E+00
  0.8100000      0.0000000E+00
  0.8200000      0.0000000E+00
  0.8300000      0.0000000E+00
  0.8400000      0.0000000E+00
  0.8500000      0.0000000E+00
  0.8600000      0.0000000E+00
  0.8700000      0.0000000E+00
  0.8800000      0.0000000E+00
  0.8900000      0.0000000E+00
  0.9000000      0.0000000E+00
  0.9100000      0.0000000E+00
  0.9200000      0.0000000E+00
  0.9300000      0.0000000E+00
  0.9400000      0.0000000E+00
  0.9500000      0.0000000E+00
  0.9600000      0.0000000E+00
  0.9700000      0.0000000E+00
  0.9800000      0.0000000E+00
  0.9900000      0.0000000E+00
   1.000000      0.0000000E+00
   1.010000      0.0000000E+00
   1.020000      0.0000000E+00
   1.030000      0.0000000E+00
   1.040000      0.0000000E+00
   1.050000      0.0000000E+00
   1.060000      0.0000000E+00
   1.070000      0.0000000E+00
   1.080000      0.0000000E+00
   1.090000      0.0000000E+00
   1.100000      0.0000000E+00
   1.110000      0.0000000E+00
   1.120000      0.0000000E+00
   1.130000      0.0000000E+00
   1.140000      0.0000000E+00
   1.150000      0.0000000E+00
   1.160000      0.0000000E+00
   1.170000      0.0000000E+00
   1.180000      0.0000000E+00
   1.190000      0.0000000E+00
   1.200000      0.0000000E+00
   1.210000      0.0000000E+00
   1.220000      0.0000000E+00
   1.230000      0.0000000E+00
   1.240000      0.0000000E+00
   1.250000      0.0000000E+00
   1.260000      0.0000000E+00
   1.270000      0.0000000E+00
   1.280000      0.0000000E+00
   1.290000      0.0000000E+00
   1.300000      0.0000000E+00
   1.310000      0.0000000E+00
   1.320000      0.0000000E+00
   1.330000      0.0000000E+00
   1.340000      0.0000000E+00
   1.350000      0.0000000E+00
   1.360000      0.0000000E+00
   1.370000      0.0000000E+00
   1.380000      0.0000000E+00
   1.390000      0.0000000E+00
   1.400000      0.0000000E+00
   1.410000      0.0000000E+00
   1.420000      0.0000000E+00
   1.430000      0.0000000E+00
   1.440000      0.0000000E+00
   1.450000      0.0000000E+00
   1.460000      0.0000000E+00
   1.470000      0.0000000E+00
   1.480000      0.0000000E+00
   1.490000      0.0000000E+00
   1.500000      0.0000000E+00
   1.510000      0.0000000E+00
   1.520000      0.0000000E+00
   1.530000      0.0000000E+00
   1.540000      0.0000000E+00
   1.550000      0.0000000E+00
   1.560000      0.0000000E+00
   1.570000      0.0000000E+00
   1.580000      0.0000000E+00
   1.590000      0.0000000E+00
   1.600000      0.0000000E+00
   1.610000      0.0000000E+00
   1.620000      1.3800685E-38
   1.630000      1.6811896E-38
   1.640000      1.9897499E-38
   1.650000      2.2989722E-38
   1.660000      2.6019315E-38
   1.670000      2.8918851E-38
   1.680000      3.1615830E-38
   1.690000      3.4036492E-38
   1.700000      3.5808218E-38
   1.710000      3.6727752E-38
   1.720000      3.6792535E-38
   1.730000      3.5940691E-38
   1.740000      3.4225902E-38
   1.750000      3.1612475E-38
   1.760000      2.8220831E-38
   1.770000      2.3976169E-38
   1.780000      1.8731578E-38
   1.790000      1.2564591E-38
   1.800000      0.0000000E+00
   1.810000      0.0000000E+00
   1.820000      0.0000000E+00
   1.830000     -2.0475294E-38
   1.840000     -3.0559382E-38
   1.850000     -4.1251419E-38
   1.860000     -5.3728569E-38
   1.870000     -6.8011763E-38
   1.880000     -7.3187885E-38
   1.890000     -6.7479914E-38
   1.900000     -5.8703330E-38
   1.910000     -4.9632579E-38
   1.920000     -4.1084726E-38
   1.930000     -2.9916226E-38
   1.940000     -1.5263101E-38
   1.950000      0.0000000E+00
   1.960000      2.5284396E-38
   1.970000      5.9437829E-38
   1.980000      9.3504835E-38
   1.990000      1.2556348E-37
   2.000000      1.0510385E-37
   2.010000      2.1184195E-38
   2.020000     -7.0901269E-38
   2.030000     -1.6151806E-37
   2.040000     -2.4786308E-37
   2.050000     -3.3207940E-37
   2.060000     -4.1052915E-37
   2.070000     -4.7123197E-37
   2.080000     -4.5917049E-37
   2.090000     -4.0092786E-37
   2.100000     -3.5431368E-37
   2.110000     -3.2243214E-37
   2.120000     -3.1524783E-37
   2.130000     -3.8578765E-37
   2.140000     -5.5217141E-37
   2.150000     -7.6608669E-37
   2.160000     -1.0310681E-36
   2.170000     -1.2705756E-36
   2.180000     -1.4720940E-36
   2.190000     -1.7133865E-36
   2.200000     -1.8041153E-36
   2.210000     -1.6405710E-36
   2.220000     -1.3503481E-36
   2.230000     -8.7913708E-37
   2.240000     -1.9789509E-37
   2.250000      5.5975340E-37
   2.260000      1.1454234E-36
   2.270000      1.5768417E-36
   2.280000      2.0060847E-36
   2.290000      2.3903433E-36
   2.300000      2.7290503E-36
   2.310000      3.0283838E-36
   2.320000      3.2841471E-36
   2.330000      3.5477329E-36
   2.340000      3.6743285E-36
   2.350000      3.6893447E-36
   2.360000      3.8295718E-36
   2.370000      4.0574490E-36
   2.380000      4.6552812E-36
   2.390000      5.8496678E-36
   2.400000      7.2359290E-36
   2.410000      8.6231608E-36
   2.420000      1.0101061E-35
   2.430000      1.0703043E-35
   2.440000      1.0159252E-35
   2.450000      9.0930142E-36
   2.460000      7.6011107E-36
   2.470000      5.5805102E-36
   2.480000      3.9864523E-36
   2.490000      3.2986873E-36
   2.500000      2.7778130E-36
   2.510000      2.8912435E-36
   2.520000      3.4586654E-36
   2.530000      3.2478104E-36
   2.540000      2.5213757E-36
   2.550000      2.2371545E-36
   2.560000      2.4049865E-36
   2.570000      2.2149120E-36
   2.580000      1.5958685E-36
   2.590000      9.7703192E-37
   2.600000     -8.8705628E-37
   2.610000     -4.3889723E-36
   2.620000     -8.8530251E-36
   2.630000     -1.3410138E-35
   2.640000     -1.7413841E-35
   2.650000     -2.1435716E-35
   2.660000     -2.6638556E-35
   2.670000     -3.2378122E-35
   2.680000     -3.7696026E-35
   2.690000     -4.3037798E-35
   2.700000     -4.6640037E-35
   2.710000     -4.6706569E-35
   2.720000     -4.4338401E-35
   2.730000     -4.0290471E-35
   2.740000     -3.6805862E-35
   2.750000     -3.4990042E-35
   2.760000     -3.3824092E-35
   2.770000     -3.3488445E-35
   2.780000     -3.4589045E-35
   2.790000     -3.6871917E-35
   2.800000     -3.9422990E-35
   2.810000     -4.1678553E-35
   2.820000     -4.3068004E-35
   2.830000     -4.3150082E-35
   2.840000     -4.2695812E-35
   2.850000     -4.1719419E-35
   2.860000     -3.8519756E-35
   2.870000     -3.4492646E-35
   2.880000     -3.0120068E-35
   2.890000     -2.4508604E-35
   2.900000     -1.7958915E-35
   2.910000     -1.0527613E-35
   2.920000     -3.2541973E-36
   2.930000      3.8791507E-36
   2.940000      1.1568837E-35
   2.950000      1.9851896E-35
   2.960000      3.0046350E-35
   2.970000      4.0973770E-35
   2.980000      4.9626955E-35
   2.990000      5.7185378E-35
   3.000000      6.7288557E-35
   3.010000      8.0524922E-35
   3.020000      9.4708794E-35
   3.030000      1.0825967E-34
   3.040000      1.2177422E-34
   3.050000      1.3566957E-34
   3.060000      1.5072068E-34
   3.070000      1.6659191E-34
   3.080000      1.8216460E-34
   3.090000      1.9836428E-34
   3.100000      2.1306168E-34
   3.110000      2.2453531E-34
   3.120000      2.3388542E-34
   3.130000      2.3876005E-34
   3.140000      2.3598327E-34
   3.150000      2.3180087E-34
   3.160000      2.2984110E-34
   3.170000      2.3005258E-34
   3.180000      2.2952156E-34
   3.190000      2.2646447E-34
   3.200000      2.2451350E-34
   3.210000      2.2310887E-34
   3.220000      2.2189841E-34
   3.230000      2.2023729E-34
   3.240000      2.1577119E-34
   3.250000      2.1124680E-34
   3.260000      2.0467790E-34
   3.270000      1.9201422E-34
   3.280000      1.7422122E-34
   3.290000      1.5406628E-34
   3.300000      1.3327017E-34
   3.310000      1.0554126E-34
   3.320000      6.9683225E-35
   3.330000      3.3900646E-35
   3.340000     -9.0948476E-37
   3.350000     -4.2151061E-35
   3.360000     -9.5320315E-35
   3.370000     -1.5705765E-34
   3.380000     -2.1898075E-34
   3.390000     -2.7708220E-34
   3.400000     -3.3560047E-34
   3.410000     -3.9680626E-34
   3.420000     -4.5931689E-34
   3.430000     -5.1241176E-34
   3.440000     -5.5215569E-34
   3.450000     -5.9324073E-34
   3.460000     -6.4044826E-34
   3.470000     -6.9459410E-34
   3.480000     -7.5558403E-34
   3.490000     -8.2131193E-34
   3.500000     -8.9471706E-34
   3.510000     -9.7387301E-34
   3.520000     -1.0626137E-33
   3.530000     -1.1560051E-33
   3.540000     -1.2397661E-33
   3.550000     -1.3140864E-33
   3.560000     -1.3780727E-33
   3.570000     -1.4279300E-33
   3.580000     -1.4664763E-33
   3.590000     -1.4952941E-33
   3.600000     -1.5033493E-33
   3.610000     -1.4960696E-33
   3.620000     -1.4860650E-33
   3.630000     -1.4806132E-33
   3.640000     -1.4779849E-33
   3.650000     -1.4708606E-33
   3.660000     -1.4662993E-33
   3.670000     -1.4617449E-33
   3.680000     -1.4473654E-33
   3.690000     -1.4214985E-33
   3.700000     -1.3750295E-33
   3.710000     -1.2983548E-33
   3.720000     -1.1915529E-33
   3.730000     -1.0504868E-33
   3.740000     -8.7657817E-34
   3.750000     -6.8565047E-34
   3.760000     -4.8587236E-34
   3.770000     -2.6275070E-34
   3.780000     -1.5172370E-35
   3.790000      2.5262101E-34
   3.800000      5.2772767E-34
   3.810000      8.0832511E-34
   3.820000      1.0961146E-33
   3.830000      1.3821814E-33
   3.840000      1.6741811E-33
   3.850000      1.9748500E-33
   3.860000      2.2914066E-33
   3.870000      2.6308361E-33
   3.880000      2.9941138E-33
   3.890000      3.3846339E-33
   3.900000      3.8077785E-33
   3.910000      4.2586529E-33
   3.920000      4.7311517E-33
   3.930000      5.2168270E-33
   3.940000      5.7123798E-33
   3.950000      6.2114348E-33
   3.960000      6.6976068E-33
   3.970000      7.1629556E-33
   3.980000      7.6052707E-33
   3.990000      8.0231457E-33
   4.000000      8.4135744E-33
   4.010000      8.7782561E-33
   4.020000      9.1211389E-33
   4.030000      9.4431171E-33
   4.040000      9.7458187E-33
   4.050000      1.0027446E-32
   4.060000      1.0283296E-32
   4.070000      1.0510351E-32
   4.080000      1.0704808E-32
   4.090000      1.0861314E-32
   4.100000      1.0968959E-32
   4.110000      1.1019249E-32
   4.120000      1.1004637E-32
   4.130000      1.0912152E-32
   4.140000      1.0734490E-32
   4.150000      1.0460604E-32
   4.160000      1.0085256E-32
   4.170000      9.6089544E-33
   4.180000      9.0278473E-33
   4.190000      8.3423886E-33
   4.200000      7.5452462E-33
   4.210000      6.6412962E-33
   4.220000      5.6384089E-33
   4.230000      4.5315039E-33
   4.240000      3.3186138E-33
   4.250000      1.9986368E-33
   4.260000      5.6735354E-34
   4.270000     -9.8174965E-34
   4.280000     -2.6532592E-33
   4.290000     -4.4536612E-33
   4.300000     -6.3909225E-33
   4.310000     -8.4705814E-33
   4.320000     -1.0696110E-32
   4.330000     -1.3069392E-32
   4.340000     -1.5586423E-32
   4.350000     -1.8243741E-32
   4.360000     -2.1034909E-32
   4.370000     -2.3945750E-32
   4.380000     -2.6968100E-32
   4.390000     -3.0088059E-32
   4.400000     -3.3288304E-32
   4.410000     -3.6557575E-32
   4.420000     -3.9882816E-32
   4.430000     -4.3250313E-32
   4.440000     -4.6652488E-32
   4.450000     -5.0081478E-32
   4.460000     -5.3525195E-32
   4.470000     -5.6974136E-32
   4.480000     -6.0417142E-32
   4.490000     -6.3840393E-32
   4.500000     -6.7228420E-32
   4.510000     -7.0562634E-32
   4.520000     -7.3818436E-32
   4.530000     -7.6969777E-32
   4.540000     -7.9985408E-32
   4.550000     -8.2831915E-32
   4.560000     -8.5476706E-32
   4.570000     -8.7884524E-32
   4.580000     -9.0019892E-32
   4.590000     -9.1845699E-32
   4.600000     -9.3329167E-32
   4.610000     -9.4439986E-32
   4.620000     -9.5146100E-32
   4.630000     -9.5417627E-32
   4.640000     -9.5225363E-32
   4.650000     -9.4539280E-32
   4.660000     -9.3329414E-32
   4.670000     -9.1563510E-32
   4.680000     -8.9208108E-32
   4.690000     -8.6223586E-32
   4.700000     -8.2569744E-32
   4.710000     -7.8207878E-32
   4.720000     -7.3093449E-32
   4.730000     -6.7182647E-32
   4.740000     -6.0433528E-32
   4.750000     -5.2803900E-32
   4.760000     -4.4253633E-32
   4.770000     -3.4748897E-32
   4.780000     -2.4257046E-32
   4.790000     -1.2756141E-32
   4.800000     -2.2898437E-34
   4.810000      1.3343570E-32
   4.820000      2.7973803E-32
   4.830000      4.3671011E-32
   4.840000      6.0442015E-32
   4.850000      7.8291527E-32
   4.860000      9.7222710E-32
   4.870000      1.1723540E-31
   4.880000      1.3833079E-31
   4.890000      1.6050723E-31
   4.900000      1.8375565E-31
   4.910000      2.0806344E-31
   4.920000      2.3341152E-31
   4.930000      2.5977290E-31
   4.940000      2.8711165E-31
   4.950000      3.1538170E-31
   4.960000      3.4452670E-31
   4.970000      3.7447928E-31
   4.980000      4.0516210E-31
   4.990000      4.3648781E-31
   5.000000      4.6835875E-31
   5.010000      5.0066876E-31
   5.020000      5.3330345E-31
   5.030000      5.6614074E-31
   5.040000      5.9905120E-31
   5.050000      6.3189714E-31
   5.060000      6.6453277E-31
   5.070000      6.9680305E-31
   5.080000      7.2854281E-31
   5.090000      7.5957539E-31
   5.100000      7.8971168E-31
   5.110000      8.1874874E-31
   5.120000      8.4646963E-31
   5.130000      8.7264262E-31
   5.140000      8.9702143E-31
   5.150000      9.1934595E-31
   5.160000      9.3934290E-31
   5.170000      9.5672761E-31
   5.180000      9.7120481E-31
   5.190000      9.8247037E-31
   5.200000      9.9021293E-31
   5.210000      9.9411435E-31
   5.220000      9.9385151E-31
   5.230000      9.8909612E-31
   5.240000      9.7951509E-31
   5.250000      9.6477063E-31
   5.260000      9.4451996E-31
   5.270000      9.1841458E-31
   5.280000      8.8610288E-31
   5.290000      8.4722815E-31
   5.300000      8.0142797E-31
   5.310000      7.4833799E-31
   5.320000      6.8759301E-31
   5.330000      6.1882894E-31
   5.340000      5.4168585E-31
   5.350000      4.5581119E-31
   5.360000      3.6086273E-31
   5.370000      2.5651191E-31
   5.380000      1.4244696E-31
   5.390000      1.8375685E-32
   5.400000     -1.1597189E-31
   5.410000     -2.6084093E-31
   5.420000     -4.1644986E-31
   5.430000     -5.8298873E-31
   5.440000     -7.6061721E-31
   5.450000     -9.4946268E-31
   5.460000     -1.1496176E-30
   5.470000     -1.3611370E-30
   5.480000     -1.5840354E-30
   5.490000     -1.8182836E-30
   5.500000     -2.0638036E-30
   5.510000     -2.3204644E-30
   5.520000     -2.5880780E-30
   5.530000     -2.8663931E-30
   5.540000     -3.1550923E-30
   5.550000     -3.4537841E-30
   5.560000     -3.7620013E-30
   5.570000     -4.0791979E-30
   5.580000     -4.4047410E-30
   5.590000     -4.7379137E-30
   5.600000     -5.0779076E-30
   5.610000     -5.4238235E-30
   5.620000     -5.7746670E-30
   5.630000     -6.1293495E-30
   5.640000     -6.4866825E-30
   5.650000     -6.8453772E-30
   5.660000     -7.2040410E-30
   5.670000     -7.5611754E-30
   5.680000     -7.9151711E-30
   5.690000     -8.2643061E-30
   5.700000     -8.6067409E-30
   5.710000     -8.9405181E-30
   5.720000     -9.2635583E-30
   5.730000     -9.5736586E-30
   5.740000     -9.8684951E-30
   5.750000     -1.0145617E-29
   5.760000     -1.0402454E-29
   5.770000     -1.0636316E-29
   5.780000     -1.0844397E-29
   5.790000     -1.1023780E-29
   5.800000     -1.1171440E-29
   5.810000     -1.1284248E-29
   5.820000     -1.1358980E-29
   5.830000     -1.1392321E-29
   5.840000     -1.1380873E-29
   5.850000     -1.1321163E-29
   5.860000     -1.1209645E-29
   5.870000     -1.1042713E-29
   5.880000     -1.0816706E-29
   5.890000     -1.0527923E-29
   5.900000     -1.0172628E-29
   5.910000     -9.7470667E-30
   5.920000     -9.2474753E-30
   5.930000     -8.6701025E-30
   5.940000     -8.0112238E-30
   5.950000     -7.2671626E-30
   5.960000     -6.4343062E-30
   5.970000     -5.5091294E-30
   5.980000     -4.4882108E-30
   5.990000     -3.3682604E-30
   6.000000     -2.1461459E-30
   6.010000     -8.1891105E-31
   6.020000      6.1620185E-31
   6.030000      2.1617219E-30
   6.040000      3.8199267E-30
   6.050000      5.5928110E-30
   6.060000      7.4820625E-30
   6.070000      9.4890343E-30
   6.080000      1.1614706E-29
   6.090000      1.3859664E-29
   6.100000      1.6224058E-29
   6.110000      1.8707570E-29
   6.120000      2.1309389E-29
   6.130000      2.4028152E-29
   6.140000      2.6861923E-29
   6.150000      2.9808159E-29
   6.160000      3.2863668E-29
   6.170000      3.6024571E-29
   6.180000      3.9286266E-29
   6.190000      4.2643396E-29
   6.200000      4.6089818E-29
   6.210000      4.9618570E-29
   6.220000      5.3221840E-29
   6.230000      5.6890917E-29
   6.240000      6.0616207E-29
   6.250000      6.4387148E-29
   6.260000      6.8192226E-29
   6.270000      7.2018947E-29
   6.280000      7.5853786E-29
   6.290000      7.9682186E-29
   6.300000      8.3488521E-29
   6.310000      8.7256110E-29
   6.320000      9.0967154E-29
   6.330000      9.4602756E-29
   6.340000      9.8142940E-29
   6.350000      1.0156660E-28
   6.360000      1.0485150E-28
   6.370000      1.0797434E-28
   6.380000      1.1091072E-28
   6.390000      1.1363515E-28
   6.400000      1.1612112E-28
   6.410000      1.1834105E-28
   6.420000      1.2026645E-28
   6.430000      1.2186784E-28
   6.440000      1.2311486E-28
   6.450000      1.2397628E-28
   6.460000      1.2442012E-28
   6.470000      1.2441367E-28
   6.480000      1.2392358E-28
   6.490000      1.2291595E-28
   6.500000      1.2135642E-28
   6.510000      1.1921021E-28
   6.520000      1.1644233E-28
   6.530000      1.1301763E-28
   6.540000      1.0890095E-28
   6.550000      1.0405727E-28
   6.560000      9.8451854E-29
   6.570000      9.2050363E-29
   6.580000      8.4819086E-29
   6.590000      7.6725065E-29
   6.600000      6.7736352E-29
   6.610000      5.7822092E-29
   6.620000      4.6952794E-29
   6.630000      3.5100546E-29
   6.640000      2.2239186E-29
   6.650000      8.3445346E-30
   6.660000     -6.6053356E-30
   6.670000     -2.2629868E-29
   6.680000     -3.9745813E-29
   6.690000     -5.7966952E-29
   6.700000     -7.7303837E-29
   6.710000     -9.7763544E-29
   6.720000     -1.1934935E-28
   6.730000     -1.4206050E-28
   6.740000     -1.6589195E-28
   6.750000     -1.9083396E-28
   6.760000     -2.1687194E-28
   6.770000     -2.4398612E-28
   6.780000     -2.7215126E-28
   6.790000     -3.0133627E-28
   6.800000     -3.3150411E-28
   6.810000     -3.6261135E-28
   6.820000     -3.9460805E-28
   6.830000     -4.2743738E-28
   6.840000     -4.6103547E-28
   6.850000     -4.9533093E-28
   6.860000     -5.3024501E-28
   6.870000     -5.6569093E-28
   6.880000     -6.0157404E-28
   6.890000     -6.3779144E-28
   6.900000     -6.7423167E-28
   6.910000     -7.1077499E-28
   6.920000     -7.4729274E-28
   6.930000     -7.8364765E-28
   6.940000     -8.1969360E-28
   6.950000     -8.5527564E-28
   6.960000     -8.9022953E-28
   6.970000     -9.2438234E-28
   6.980000     -9.5755224E-28
   6.990000     -9.8954858E-28
   7.000000     -1.0201719E-27
   7.010000     -1.0492144E-27
   7.020000     -1.0764598E-27
   7.030000     -1.1016840E-27
   7.040000     -1.1246548E-27
   7.050000     -1.1451324E-27
   7.060000     -1.1628701E-27