  -2.600000      0.0000000E+00
  -2.590000      0.0000000E+00
  -2.580000      0.0000000E+00
  -2.570000      0.0000000E+00
  -2.560000      0.0000000E+00
  -2.550000      0.0000000E+00
  -2.540000      0.0000000E+00
  -2.530000      0.0000000E+00
  -2.520000      0.0000000E+00
  -2.510000      0.0000000E+00
  -2.500000      0.0000000E+00
  -2.490000      0.0000000E+00
  -2.480000      0.0000000E+00
  -2.470000      0.0000000E+00
  -2.460000      0.0000000E+00
  -2.450000      0.0000000E+00
  -2.440000      0.0000000E+00
  -2.430000      0.0000000E+00
  -2.420000      0.0000000E+00
  -2.410000      0.0000000E+00
  -2.400000      0.0000000E+00
  -2.390000      0.0000000E+00
  -2.380000      0.0000000E+00
  -2.370000      0.0000000E+00
  -2.360000      0.0000000E+00
  -2.350000      0.0000000E+00
  -2.340000      0.0000000E+00
  -2.330000      0.0000000E+00
  -2.320000      0.0000000E+00
  -2.310000      0.0000000E+00
  -2.300000      0.0000000E+00
  -2.290000      0.0000000E+00
  -2.280000      0.0000000E+00
  -2.270000      0.0000000E+00
  -2.260000      0.0000000E+00
  -2.250000      0.0000000E+00
  -2.240000      0.0000000E+00
  -2.230000      0.0000000E+00
  -2.220000      0.0000000E+00
  -2.210000      0.0000000E+00
  -2.200000      0.0000000E+00
  -2.190000      0.0000000E+00
  -2.180000      0.0000000E+00
  -2.170000      0.0000000E+00
  -2.160000      0.0000000E+00
  -2.150000      0.0000000E+00
  -2.140000      0.0000000E+00
  -2.130000      0.0000000E+00
  -2.120000      0.0000000E+00
  -2.110000      0.0000000E+00
  -2.100000      0.0000000E+00
  -2.090000      0.0000000E+00
  -2.080000      0.0000000E+00
  -2.070000      0.0000000E+00
  -2.060000      0.0000000E+00
  -2.050000      0.0000000E+00
  -2.040000      0.0000000E+00
  -2.030000      0.0000000E+00
  -2.020000      0.0000000E+00
  -2.010000      0.0000000E+00
  -2.000000      0.0000000E+00
  -1.990000      0.0000000E+00
  -1.980000      0.0000000E+00
  -1.970000      0.0000000E+00
  -1.960000      0.0000000E+00
  -1.950000      0.0000000E+00
  -1.940000      0.0000000E+00
  -1.930000      0.0000000E+00
  -1.920000      0.0000000E+00
  -1.910000      0.0000000E+00
  -1.900000      0.0000000E+00
  -1.890000      0.0000000E+00
  -1.880000      0.0000000E+00
  -1.870000      0.0000000E+00
  -1.860000      0.0000000E+00
  -1.850000      0.0000000E+00
  -1.840000      0.0000000E+00
  -1.830000      0.0000000E+00
  -1.820000      0.0000000E+00
  -1.810000      0.0000000E+00
  -1.800000      0.0000000E+00
  -1.790000      0.0000000E+00
  -1.780000      0.0000000E+00
  -1.770000      0.0000000E+00
  -1.760000      0.0000000E+00
  -1.750000      0.0000000E+00
  -1.740000      0.0000000E+00
  -1.730000      0.0000000E+00
  -1.720000      0.0000000E+00
  -1.710000      0.0000000E+00
  -1.700000      0.0000000E+00
  -1.690000      0.0000000E+00
  -1.680000      0.0000000E+00
  -1.670000      0.0000000E+00
  -1.660000      0.0000000E+00
  -1.650000      0.0000000E+00
  -1.640000      0.0000000E+00
  -1.630000      0.0000000E+00
  -1.620000      0.0000000E+00
  -1.610000      0.0000000E+00
  -1.600000      0.0000000E+00
  -1.590000      0.0000000E+00
  -1.580000      0.0000000E+00
  -1.570000      0.0000000E+00
  -1.560000      0.0000000E+00
  -1.550000      0.0000000E+00
  -1.540000      0.0000000E+00
  -1.530000      0.0000000E+00
  -1.520000      0.0000000E+00
  -1.510000      0.0000000E+00
  -1.500000      0.0000000E+00
  -1.490000      0.0000000E+00
  -1.480000      0.0000000E+00
  -1.470000      0.0000000E+00
  -1.460000      0.0000000E+00
  -1.450000      0.0000000E+00
  -1.440000      0.0000000E+00
  -1.430000      0.0000000E+00
  -1.420000      0.0000000E+00
  -1.410000      0.0000000E+00
  -1.400000      0.0000000E+00
  -1.390000      0.0000000E+00
  -1.380000      0.0000000E+00
  -1.370000      0.0000000E+00
  -1.360000      0.0000000E+00
  -1.350000      0.0000000E+00
  -1.340000      0.0000000E+00
  -1.330000      0.0000000E+00
  -1.320000      0.0000000E+00
  -1.310000      0.0000000E+00
  -1.300000      0.0000000E+00
  -1.290000      0.0000000E+00
  -1.280000      0.0000000E+00
  -1.270000      0.0000000E+00
  -1.260000      0.0000000E+00
  -1.250000      0.0000000E+00
  -1.240000      0.0000000E+00
  -1.230000      0.0000000E+00
  -1.220000      0.0000000E+00
  -1.210000      0.0000000E+00
  -1.200000      0.0000000E+00
  -1.190000      0.0000000E+00
  -1.180000      0.0000000E+00
  -1.170000      0.0000000E+00
  -1.160000      0.0000000E+00
  -1.150000      0.0000000E+00
  -1.140000      0.0000000E+00
  -1.130000      0.0000000E+00
  -1.120000      0.0000000E+00
  -1.110000      0.0000000E+00
  -1.100000      0.0000000E+00
  -1.090000      0.0000000E+00
  -1.080000      0.0000000E+00
  -1.070000      0.0000000E+00
  -1.060000      0.0000000E+00
  -1.050000      0.0000000E+00
  -1.040000      0.0000000E+00
  -1.030000      0.0000000E+00
  -1.020000      0.0000000E+00
  -1.010000      0.0000000E+00
  -1.000000      0.0000000E+00
 -0.9900000      0.0000000E+00
 -0.9800000      0.0000000E+00
 -0.9700000      0.0000000E+00
 -0.9600000      0.0000000E+00
 -0.9500000      0.0000000E+00
 -0.9400000      0.0000000E+00
 -0.9300000      0.0000000E+00
 -0.9200000      0.0000000E+00
 -0.9100000      0.0000000E+00
 -0.9000000      0.0000000E+00
 -0.8900000      0.0000000E+00
 -0.8800000      0.0000000E+00
 -0.8700000      0.0000000E+00
 -0.8600000      0.0000000E+00
 -0.8500000      0.0000000E+00
 -0.8400000      0.0000000E+00
 -0.8300000      0.0000000E+00
 -0.8200000      0.0000000E+00
 -0.8100000      0.0000000E+00
 -0.8000000      0.0000000E+00
 -0.7900000      0.0000000E+00
 -0.7800000      0.0000000E+00
 -0.7700000      0.0000000E+00
 -0.7600000      0.0000000E+00
 -0.7500000      0.0000000E+00
 -0.7400000      0.0000000E+00
 -0.7300000      0.0000000E+00
 -0.7200000      0.0000000E+00
 -0.7100000      0.0000000E+00
 -0.7000000      0.0000000E+00
 -0.6900000      0.0000000E+00
 -0.6800000      0.0000000E+00
 -0.6700000      0.0000000E+00
 -0.6600000      0.0000000E+00
 -0.6500000      0.0000000E+00
 -0.6400000      0.0000000E+00
 -0.6300000      0.0000000E+00
 -0.6200000      0.0000000E+00
 -0.6100000      0.0000000E+00
 -0.6000000      0.0000000E+00
 -0.5900000      0.0000000E+00
 -0.5800000      0.0000000E+00
 -0.5700000      0.0000000E+00
 -0.5600000      0.0000000E+00
 -0.5500000      0.0000000E+00
 -0.5400000      0.0000000E+00
 -0.5300000      0.0000000E+00
 -0.5200000      0.0000000E+00
 -0.5100000      0.0000000E+00
 -0.5000000      0.0000000E+00
 -0.4900000      0.0000000E+00
 -0.4800000      0.0000000E+00
 -0.4700000      0.0000000E+00
 -0.4600000      0.0000000E+00
 -0.4500000      0.0000000E+00
 -0.4400000      0.0000000E+00
 -0.4300000      0.0000000E+00
 -0.4200000      0.0000000E+00
 -0.4100000      0.0000000E+00
 -0.4000000      0.0000000E+00
 -0.3900000      0.0000000E+00
 -0.3800000      0.0000000E+00
 -0.3700000      0.0000000E+00
 -0.3600000      0.0000000E+00
 -0.3500000      0.0000000E+00
 -0.3400000      0.0000000E+00
 -0.3300000      0.0000000E+00
 -0.3200000      0.0000000E+00
 -0.3100000      0.0000000E+00
 -0.3000000      0.0000000E+00
 -0.2900000      0.0000000E+00
 -0.2800000      0.0000000E+00
 -0.2700000      0.0000000E+00
 -0.2600000      0.0000000E+00
 -0.2500000      0.0000000E+00
 -0.2400000      0.0000000E+00
 -0.2300000      0.0000000E+00
 -0.2200000      0.0000000E+00
 -0.2100000      0.0000000E+00
 -0.2000000      0.0000000E+00
 -0.1900000      0.0000000E+00
 -0.1800000      0.0000000E+00
 -0.1700000      0.0000000E+00
 -0.1600000      0.0000000E+00
 -0.1500000      0.0000000E+00
 -0.1400000      0.0000000E+00
 -0.1300000      0.0000000E+00
 -0.1200000      0.0000000E+00
 -0.1100000      0.0000000E+00
 -0.1000000      0.0000000E+00
 -9.0000004E-02  0.0000000E+00
 -7.9999998E-02  0.0000000E+00
 -7.0000000E-02  0.0000000E+00
 -5.9999999E-02  0.0000000E+00
 -5.0000001E-02  0.0000000E+00
 -3.9999999E-02  0.0000000E+00
 -2.9999999E-02  0.0000000E+00
 -2.0000000E-02  0.0000000E+00
 -9.9999998E-03  0.0000000E+00
 -3.4694470E-17  0.0000000E+00
  9.9999998E-03  0.0000000E+00
  2.0000000E-02  0.0000000E+00
  2.9999999E-02  0.0000000E+00
  3.9999999E-02  0.0000000E+00
  5.0000001E-02  0.0000000E+00
  5.9999999E-02  0.0000000E+00
  7.0000000E-02  0.0000000E+00
  7.9999998E-02  0.0000000E+00
  9.0000004E-02  0.0000000E+00
  0.1000000      0.0000000E+00
  0.1100000      0.0000000E+00
  0.1200000      0.0000000E+00
  0.1300000      0.0000000E+00
  0.1400000      0.0000000E+00
  0.1500000      0.0000000E+00
  0.1600000      0.0000000E+00
  0.1700000      0.0000000E+00
  0.1800000      0.0000000E+00
  0.1900000      0.0000000E+00
  0.2000000      0.0000000E+00
  0.2100000      0.0000000E+00
  0.2200000      0.0000000E+00
  0.2300000      0.0000000E+00
  0.2400000      0.0000000E+00
  0.2500000      0.0000000E+00
  0.2600000      0.0000000E+00
  0.2700000      0.0000000E+00
  0.2800000      0.0000000E+00
  0.2900000      0.0000000E+00
  0.3000000      0.0000000E+00
  0.3100000      0.0000000E+00
  0.3200000      0.0000000E+00
  0.3300000      0.0000000E+00
  0.3400000      0.0000000E+00
  0.3500000      0.0000000E+00
  0.3600000      0.0000000E+00
  0.3700000      0.0000000E+00
  0.3800000      0.0000000E+00
  0.3900000      0.0000000E+00
  0.4000000      0.0000000E+00
  0.4100000      0.0000000E+00
  0.4200000      0.0000000E+00
  0.4300000      0.0000000E+00
  0.4400000      0.0000000E+00
  0.4500000      0.0000000E+00
  0.4600000      0.0000000E+00
  0.4700000      0.0000000E+00
  0.4800000      0.0000000E+00
  0.4900000      0.0000000E+00
  0.5000000      0.0000000E+00
  0.5100000      0.0000000E+00
  0.5200000      0.0000000E+00
  0.5300000      0.0000000E+00
  0.5400000      0.0000000E+00
  0.5500000      0.0000000E+00
  0.5600000      0.0000000E+00
  0.5700000      0.0000000E+00
  0.5800000      0.0000000E+00
  0.5900000      0.0000000E+00
  0.6000000      0.0000000E+00
  0.6100000      0.0000000E+00
  0.6200000      0.0000000E+00
  0.6300000      0.0000000E+00
  0.6400000      0.0000000E+00
  0.6500000      0.0000000E+00
  0.6600000      0.0000000E+00
  0.6700000      0.0000000E+00
  0.6800000      0.0000000E+00
  0.6900000      0.0000000E+00
  0.7000000      0.0000000E+00
  0.7100000      0.0000000E+00
  0.7200000      0.0000000E+00
  0.7300000      0.0000000E+00
  0.7400000      0.0000000E+00
  0.7500000      0.0000000E+00
  0.7600000      0.0000000E+00
  0.7700000      0.0000000E+00
  0.7800000      0.0000000E+00
  0.7900000      0.0000000E+00
  0.8000000      0.0000000E+00
  0.8100000      0.0000000E+00
  0.8200000      0.0000000E+00
  0.8300000      0.0000000E+00
  0.8400000      0.0000000E+00
  0.8500000      0.0000000E+00
  0.8600000      0.0000000E+00
  0.8700000      0.0000000E+00
  0.8800000      0.0000000E+00
  0.8900000      0.0000000E+00
  0.9000000      0.0000000E+00
  0.9100000      0.0000000E+00
  0.9200000      0.0000000E+00
  0.9300000      0.0000000E+00
  0.9400000      0.0000000E+00
  0.9500000      0.0000000E+00
  0.9600000      0.0000000E+00
  0.9700000      0.0000000E+00
  0.9800000      0.0000000E+00
  0.9900000      0.0000000E+00
   1.000000      0.0000000E+00
   1.010000      0.0000000E+00
   1.020000      0.0000000E+00
   1.030000      0.0000000E+00
   1.040000      0.0000000E+00
   1.050000      0.0000000E+00
   1.060000      0.0000000E+00
   1.070000      0.0000000E+00
   1.080000      0.0000000E+00
   1.090000      0.0000000E+00
   1.100000      0.0000000E+00
   1.110000      0.0000000E+00
   1.120000      0.0000000E+00
   1.130000      0.0000000E+00
   1.140000      0.0000000E+00
   1.150000      0.0000000E+00
   1.160000      0.0000000E+00
   1.170000      0.0000000E+00
   1.180000      0.0000000E+00
   1.190000      0.0000000E+00
   1.200000      0.0000000E+00
   1.210000      0.0000000E+00
   1.220000      0.0000000E+00
   1.230000      0.0000000E+00
   1.240000      0.0000000E+00
   1.250000      0.0000000E+00
   1.260000      0.0000000E+00
   1.270000      0.0000000E+00
   1.280000      0.0000000E+00
   1.290000      0.0000000E+00
   1.300000      0.0000000E+00
   1.310000      0.0000000E+00
   1.320000      0.0000000E+00
   1.330000      0.0000000E+00
   1.340000      0.0000000E+00
   1.350000      0.0000000E+00
   1.360000      0.0000000E+00
   1.370000      0.0000000E+00
   1.380000      0.0000000E+00
   1.390000      0.0000000E+00
   1.400000      0.0000000E+00
   1.410000      0.0000000E+00
   1.420000      0.0000000E+00
   1.430000      0.0000000E+00
   1.440000      0.0000000E+00
   1.450000      0.0000000E+00
   1.460000      0.0000000E+00
   1.470000      0.0000000E+00
   1.480000      0.0000000E+00
   1.490000      0.0000000E+00
   1.500000      0.0000000E+00
   1.510000      0.0000000E+00
   1.520000      0.0000000E+00
   1.530000      0.0000000E+00
   1.540000      0.0000000E+00
   1.550000      0.0000000E+00
   1.560000      0.0000000E+00
   1.570000      0.0000000E+00
   1.580000      0.0000000E+00
   1.590000      0.0000000E+00
   1.600000      0.0000000E+00
   1.610000      0.0000000E+00
   1.620000      0.0000000E+00
   1.630000      0.0000000E+00
   1.640000      0.0000000E+00
   1.650000      0.0000000E+00
   1.660000      0.0000000E+00
   1.670000      0.0000000E+00
   1.680000      0.0000000E+00
   1.690000      0.0000000E+00
   1.700000      0.0000000E+00
   1.710000      0.0000000E+00
   1.720000      0.0000000E+00
   1.730000      0.0000000E+00
   1.740000      0.0000000E+00
   1.750000      0.0000000E+00
   1.760000      0.0000000E+00
   1.770000      0.0000000E+00
   1.780000      0.0000000E+00
   1.790000      0.0000000E+00
   1.800000      0.0000000E+00
   1.810000      0.0000000E+00
   1.820000      0.0000000E+00
   1.830000      0.0000000E+00
   1.840000      0.0000000E+00
   1.850000      0.0000000E+00
   1.860000      0.0000000E+00
   1.870000      0.0000000E+00
   1.880000      0.0000000E+00
   1.890000      0.0000000E+00
   1.900000      0.0000000E+00
   1.910000      0.0000000E+00
   1.920000      0.0000000E+00
   1.930000      0.0000000E+00
   1.940000      0.0000000E+00
   1.950000      0.0000000E+00
   1.960000      0.0000000E+00
   1.970000      0.0000000E+00
   1.980000      0.0000000E+00
   1.990000      0.0000000E+00
   2.000000      0.0000000E+00
   2.010000      0.0000000E+00
   2.020000      0.0000000E+00
   2.030000      0.0000000E+00
   2.040000      0.0000000E+00
   2.050000      0.0000000E+00
   2.060000      0.0000000E+00
   2.070000      0.0000000E+00
   2.080000      0.0000000E+00
   2.090000      0.0000000E+00
   2.100000      0.0000000E+00
   2.110000      0.0000000E+00
   2.120000      0.0000000E+00
   2.130000      0.0000000E+00
   2.140000      0.0000000E+00
   2.150000      0.0000000E+00
   2.160000      0.0000000E+00
   2.170000      0.0000000E+00
   2.180000      0.0000000E+00
   2.190000      0.0000000E+00
   2.200000      0.0000000E+00
   2.210000      0.0000000E+00
   2.220000      0.0000000E+00
   2.230000      0.0000000E+00
   2.240000      0.0000000E+00
   2.250000      0.0000000E+00
   2.260000      0.0000000E+00
   2.270000      0.0000000E+00
   2.280000      0.0000000E+00
   2.290000      0.0000000E+00
   2.300000      0.0000000E+00
   2.310000      0.0000000E+00
   2.320000      0.0000000E+00
   2.330000      0.0000000E+00
   2.340000      0.0000000E+00
   2.350000      0.0000000E+00
   2.360000      0.0000000E+00
   2.370000      0.0000000E+00
   2.380000      0.0000000E+00
   2.390000      0.0000000E+00
   2.400000      0.0000000E+00
   2.410000      0.0000000E+00
   2.420000      0.0000000E+00
   2.430000      0.0000000E+00
   2.440000      0.0000000E+00
   2.450000      0.0000000E+00
   2.460000      0.0000000E+00
   2.470000      0.0000000E+00
   2.480000      0.0000000E+00
   2.490000      0.0000000E+00
   2.500000      0.0000000E+00
   2.510000      0.0000000E+00
   2.520000      0.0000000E+00
   2.530000      0.0000000E+00
   2.540000      0.0000000E+00
   2.550000      0.0000000E+00
   2.560000      0.0000000E+00
   2.570000      0.0000000E+00
   2.580000      0.0000000E+00
   2.590000      0.0000000E+00
   2.600000      0.0000000E+00
   2.610000      0.0000000E+00
   2.620000      0.0000000E+00
   2.630000      0.0000000E+00
   2.640000      0.0000000E+00
   2.650000      0.0000000E+00
   2.660000      0.0000000E+00
   2.670000      0.0000000E+00
   2.680000      0.0000000E+00
   2.690000      0.0000000E+00
   2.700000      0.0000000E+00
   2.710000      0.0000000E+00
   2.720000      0.0000000E+00
   2.730000      0.0000000E+00
   2.740000      0.0000000E+00
   2.750000      0.0000000E+00
   2.760000      0.0000000E+00
   2.770000      0.0000000E+00
   2.780000      0.0000000E+00
   2.790000      0.0000000E+00
   2.800000      0.0000000E+00
   2.810000      0.0000000E+00
   2.820000      0.0000000E+00
   2.830000      0.0000000E+00
   2.840000      0.0000000E+00
   2.850000      0.0000000E+00
   2.860000      0.0000000E+00
   2.870000      0.0000000E+00
   2.880000      0.0000000E+00
   2.890000      0.0000000E+00
   2.900000      0.0000000E+00
   2.910000      0.0000000E+00
   2.920000      0.0000000E+00
   2.930000      0.0000000E+00
   2.940000      0.0000000E+00
   2.950000      0.0000000E+00
   2.960000      0.0000000E+00
   2.970000      0.0000000E+00
   2.980000      0.0000000E+00
   2.990000      0.0000000E+00
   3.000000      0.0000000E+00
   3.010000      0.0000000E+00
   3.020000      0.0000000E+00
   3.030000      0.0000000E+00
   3.040000      0.0000000E+00
   3.050000      0.0000000E+00
   3.060000      0.0000000E+00
   3.070000      0.0000000E+00
   3.080000      0.0000000E+00
   3.090000      0.0000000E+00
   3.100000      0.0000000E+00
   3.110000      0.0000000E+00
   3.120000      0.0000000E+00
   3.130000      0.0000000E+00
   3.140000      0.0000000E+00
   3.150000      0.0000000E+00
   3.160000      0.0000000E+00
   3.170000      0.0000000E+00
   3.180000      0.0000000E+00
   3.190000      0.0000000E+00
   3.200000      0.0000000E+00
   3.210000      0.0000000E+00
   3.220000      0.0000000E+00
   3.230000      0.0000000E+00
   3.240000      0.0000000E+00
   3.250000      0.0000000E+00
   3.260000      0.0000000E+00
   3.270000      0.0000000E+00
   3.280000      0.0000000E+00
   3.290000      0.0000000E+00
   3.300000      0.0000000E+00
   3.310000     -1.2086698E-38
   3.320000     -1.3207419E-38
   3.330000     -1.3971198E-38
   3.340000     -1.4130038E-38
   3.350000     -1.4155142E-38
   3.360000     -1.3393677E-38
   3.370000     -1.3772871E-38
   3.380000     -1.6495639E-38
   3.390000     -1.7517753E-38
   3.400000     -1.6741792E-38
   3.410000     -1.6801550E-38
   3.420000     -1.7574386E-38
   3.430000     -1.8208331E-38
   3.440000     -1.9118767E-38
   3.450000     -1.9722064E-38
   3.460000     -1.9509874E-38
   3.470000     -1.9117382E-38
   3.480000     -1.9047536E-38
   3.490000     -1.7693135E-38
   3.500000     -1.4399921E-38
   3.510000      0.0000000E+00
   3.520000      0.0000000E+00
   3.530000      0.0000000E+00
   3.540000      2.0731311E-38
   3.550000      3.1375008E-38
   3.560000      4.0086225E-38
   3.570000      4.8916258E-38
   3.580000      5.7040370E-38
   3.590000      6.4493803E-38
   3.600000      7.1294092E-38
   3.610000      7.7029337E-38
   3.620000      8.1399634E-38
   3.630000      8.4844519E-38
   3.640000      8.7988276E-38
   3.650000      8.9047927E-38
   3.660000      8.8433670E-38
   3.670000      8.8805042E-38
   3.680000      9.0648815E-38
   3.690000      9.5563264E-38
   3.700000      1.0409161E-37
   3.710000      1.1471480E-37
   3.720000      1.2602906E-37
   3.730000      1.3741230E-37
   3.740000      1.4584214E-37
   3.750000      1.5029178E-37
   3.760000      1.5311059E-37
   3.770000      1.5665125E-37
   3.780000      1.6433099E-37
   3.790000      1.6842606E-37
   3.800000      1.5919208E-37
   3.810000      1.4338408E-37
   3.820000      1.2733840E-37
   3.830000      1.1094347E-37
   3.840000      9.6337991E-38
   3.850000      9.1581306E-38
   3.860000      9.9859298E-38
   3.870000      9.6871079E-38
   3.880000      7.7228737E-38
   3.890000      5.3107581E-38
   3.900000      3.6633650E-38
   3.910000      2.7028589E-38
   3.920000      0.0000000E+00
   3.930000     -2.0543436E-38
   3.940000     -4.2661433E-38
   3.950000     -5.0311284E-38
   3.960000     -9.7660941E-38
   3.970000     -1.8785892E-37
   3.980000     -2.8069125E-37
   3.990000     -3.5003797E-37
   4.000000     -4.1038117E-37
   4.010000     -4.3554096E-37
   4.020000     -4.0515305E-37
   4.030000     -3.7440599E-37
   4.040000     -4.1938338E-37
   4.050000     -5.2351255E-37
   4.060000     -6.1955203E-37
   4.070000     -7.2188848E-37
   4.080000     -8.6744088E-37
   4.090000     -1.0667297E-36
   4.100000     -1.2737270E-36
   4.110000     -1.5324767E-36
   4.120000     -1.8609177E-36
   4.130000     -2.1951876E-36
   4.140000     -2.4918105E-36
   4.150000     -2.6990983E-36
   4.160000     -2.8445241E-36
   4.170000     -2.9658621E-36
   4.180000     -2.8159547E-36
   4.190000     -2.3737122E-36
   4.200000     -1.8790567E-36
   4.210000     -1.4129788E-36
   4.220000     -1.1618006E-36
   4.230000     -1.1266948E-36
   4.240000     -1.1383692E-36
   4.250000     -1.1864011E-36
   4.260000     -1.3902907E-36
   4.270000     -1.7809713E-36
   4.280000     -2.2733595E-36
   4.290000     -2.8234009E-36
   4.300000     -3.3388330E-36
   4.310000     -3.6156094E-36
   4.320000     -3.6679287E-36
   4.330000     -3.6723609E-36
   4.340000     -3.3254828E-36
   4.350000     -2.5447184E-36
   4.360000     -1.5341084E-36
   4.370000     -3.5925651E-37
   4.380000      8.0052329E-37
   4.390000      1.8724490E-36
   4.400000      2.8451130E-36
   4.410000      3.6982635E-36
   4.420000      4.2313736E-36
   4.430000      4.5063714E-36
   4.440000      4.6460901E-36
   4.450000      4.6514123E-36
   4.460000      4.6326351E-36
   4.470000      4.5733528E-36
   4.480000      4.5214661E-36
   4.490000      4.5872135E-36
   4.500000      4.8241832E-36
   4.510000      5.4428187E-36
   4.520000      6.6641439E-36
   4.530000      8.6802889E-36
   4.540000      1.1287739E-35
   4.550000      1.4305657E-35
   4.560000      1.7609168E-35
   4.570000      2.0754983E-35
   4.580000      2.3470068E-35
   4.590000      2.5054012E-35
   4.600000      2.5470635E-35
   4.610000      2.5338165E-35
   4.620000      2.4775397E-35
   4.630000      2.3230878E-35
   4.640000      2.1049448E-35
   4.650000      1.8880643E-35
   4.660000      1.6887001E-35
   4.670000      1.5427059E-35
   4.680000      1.4884834E-35
   4.690000      1.5618275E-35
   4.700000      1.6945480E-35
   4.710000      1.8280345E-35
   4.720000      1.9382072E-35
   4.730000      2.0235052E-35
   4.740000      2.0338856E-35
   4.750000      1.9626467E-35
   4.760000      1.7726017E-35
   4.770000      1.4357369E-35
   4.780000      1.0434010E-35
   4.790000      6.8218047E-36
   4.800000      3.5484956E-36
   4.810000      5.5496172E-38
   4.820000     -3.6636752E-36
   4.830000     -7.7867647E-36
   4.840000     -9.4292368E-36
   4.850000     -7.7740326E-36
   4.860000     -1.2582060E-36
   4.870000      9.7459954E-36
   4.880000      2.1149299E-35
   4.890000      3.1736261E-35
   4.900000      3.0968338E-35
   4.910000      1.7342618E-35
   4.920000     -1.5680599E-36
   4.930000     -2.5103620E-35
   4.940000     -5.1418866E-35
   4.950000     -7.8524922E-35
   4.960000     -1.0204496E-34
   4.970000     -1.2861953E-34
   4.980000     -1.6142970E-34
   4.990000     -1.8656600E-34
   5.000000     -1.8653314E-34
   5.010000     -1.6900988E-34
   5.020000     -1.5325384E-34
   5.030000     -1.4062067E-34
   5.040000     -1.2329691E-34
   5.050000     -1.0176577E-34
   5.060000     -8.3384289E-35
   5.070000     -7.9890051E-35
   5.080000     -9.3147435E-35
   5.090000     -1.1052846E-34
   5.100000     -1.2673872E-34
   5.110000     -1.4479293E-34
   5.120000     -1.6847521E-34
   5.130000     -1.9744308E-34
   5.140000     -2.2826103E-34
   5.150000     -2.5563258E-34
   5.160000     -2.8024417E-34
   5.170000     -2.9346099E-34
   5.180000     -2.9560283E-34
   5.190000     -2.9661219E-34
   5.200000     -2.9447607E-34
   5.210000     -2.8910429E-34
   5.220000     -2.8498719E-34
   5.230000     -2.7813002E-34
   5.240000     -2.5373757E-34
   5.250000     -2.1454535E-34
   5.260000     -1.7536734E-34
   5.270000     -1.4338884E-34
   5.280000     -1.1868896E-34
   5.290000     -9.4570059E-35
   5.300000     -7.2867454E-35
   5.310000     -5.5324607E-35
   5.320000     -3.8495988E-35
   5.330000     -1.6340079E-35
   5.340000      1.6373593E-35
   5.350000      5.4566459E-35
   5.360000      9.9128245E-35
   5.370000      1.5490758E-34
   5.380000      2.2148345E-34
   5.390000      2.9857600E-34
   5.400000      3.8465445E-34
   5.410000      4.7878004E-34
   5.420000      5.7827714E-34
   5.430000      6.7734143E-34
   5.440000      7.7074272E-34
   5.450000      8.5698681E-34
   5.460000      9.3575669E-34
   5.470000      1.0049794E-33
   5.480000      1.0658105E-33
   5.490000      1.1233815E-33
   5.500000      1.1811276E-33
   5.510000      1.2386583E-33
   5.520000      1.2994205E-33
   5.530000      1.3678084E-33
   5.540000      1.4388403E-33
   5.550000      1.5115882E-33
   5.560000      1.5899542E-33
   5.570000      1.6735138E-33
   5.580000      1.7609993E-33
   5.590000      1.8504928E-33
   5.600000      1.9392683E-33
   5.610000      2.0278499E-33
   5.620000      2.1097795E-33
   5.630000      2.1795616E-33
   5.640000      2.2400907E-33
   5.650000      2.2851573E-33
   5.660000      2.3154814E-33
   5.670000      2.3453693E-33
   5.680000      2.3684286E-33
   5.690000      2.3787313E-33
   5.700000      2.3810450E-33
   5.710000      2.3734548E-33
   5.720000      2.3568023E-33
   5.730000      2.3320221E-33
   5.740000      2.2941468E-33
   5.750000      2.2398204E-33
   5.760000      2.1687570E-33
   5.770000      2.0766002E-33
   5.780000      1.9606230E-33
   5.790000      1.8187070E-33
   5.800000      1.6471818E-33
   5.810000      1.4452721E-33
   5.820000      1.2132712E-33
   5.830000      9.5026017E-34
   5.840000      6.5823422E-34
   5.850000      3.3760189E-34
   5.860000     -1.0329210E-35
   5.870000     -3.8224792E-34
   5.880000     -7.7676529E-34
   5.890000     -1.1933302E-33
   5.900000     -1.6307764E-33
   5.910000     -2.0896464E-33
   5.920000     -2.5718083E-33
   5.930000     -3.0773946E-33
   5.940000     -3.6078486E-33
   5.950000     -4.1653172E-33
   5.960000     -4.7501940E-33
   5.970000     -5.3641822E-33
   5.980000     -6.0092050E-33
   5.990000     -6.6857292E-33
   6.000000     -7.3931431E-33
   6.010000     -8.1303140E-33
   6.020000     -8.8956674E-33
   6.030000     -9.6856826E-33
   6.040000     -1.0498541E-32
   6.050000     -1.1332079E-32
   6.060000     -1.2180827E-32
   6.070000     -1.3042612E-32
   6.080000     -1.3915213E-32
   6.090000     -1.4795116E-32
   6.100000     -1.5679298E-32
   6.110000     -1.6564872E-32
   6.120000     -1.7449874E-32
   6.130000     -1.8331699E-32
   6.140000     -1.9207287E-32
   6.150000     -2.0073259E-32
   6.160000     -2.0925541E-32
   6.170000     -2.1758715E-32
   6.180000     -2.2566300E-32
   6.190000     -2.3341052E-32
   6.200000     -2.4074352E-32
   6.210000     -2.4756752E-32
   6.220000     -2.5379108E-32
   6.230000     -2.5931808E-32
   6.240000     -2.6404906E-32
   6.250000     -2.6788929E-32
   6.260000     -2.7074832E-32
   6.270000     -2.7254307E-32
   6.280000     -2.7319332E-32
   6.290000     -2.7262012E-32
   6.300000     -2.7074838E-32
   6.310000     -2.6750228E-32
   6.320000     -2.6280289E-32
   6.330000     -2.5656669E-32
   6.340000     -2.4870325E-32
   6.350000     -2.3911364E-32
   6.360000     -2.2769117E-32
   6.370000     -2.1432141E-32
   6.380000     -1.9889805E-32
   6.390000     -1.8128452E-32
   6.400000     -1.6134387E-32
   6.410000     -1.3897280E-32
   6.420000     -1.1405596E-32
   6.430000     -8.6486607E-33
   6.440000     -5.6173881E-33
   6.450000     -2.3035823E-33
   6.460000      1.2998900E-33
   6.470000      5.1991509E-33
   6.480000      9.3994688E-33
   6.490000      1.3905438E-32
   6.500000      1.8721142E-32
   6.510000      2.3850281E-32
   6.520000      2.9296243E-32
   6.530000      3.5062052E-32
   6.540000      4.1150237E-32
   6.550000      4.7562550E-32
   6.560000      5.4298999E-32
   6.570000      6.1359653E-32
   6.580000      6.8742751E-32
   6.590000      7.6442891E-32
   6.600000      8.4452833E-32
   6.610000      9.2762626E-32
   6.620000      1.0135941E-31
   6.630000      1.1022734E-31
   6.640000      1.1934773E-31
   6.650000      1.2869912E-31
   6.660000      1.3825751E-31
   6.670000      1.4799647E-31
   6.680000      1.5788558E-31
   6.690000      1.6789616E-31
   6.700000      1.7799734E-31
   6.710000      1.8815212E-31
   6.720000      1.9832278E-31
   6.730000      2.0846889E-31
   6.740000      2.1854711E-31
   6.750000      2.2851058E-31
   6.760000      2.3830882E-31
   6.770000      2.4788764E-31
   6.780000      2.5718864E-31
   6.790000      2.6614922E-31
   6.800000      2.7470261E-31
   6.810000      2.8277800E-31
   6.820000      2.9030091E-31
   6.830000      2.9719325E-31
   6.840000      3.0337377E-31
   6.850000      3.0875836E-31
   6.860000      3.1326038E-31
   6.870000      3.1679096E-31
   6.880000      3.1925895E-31
   6.890000      3.2057132E-31
   6.900000      3.2063296E-31
   6.910000      3.1934674E-31
   6.920000      3.1661346E-31
   6.930000      3.1233181E-31
   6.940000      3.0639843E-31
   6.950000      2.9870800E-31
   6.960000      2.8915353E-31
   6.970000      2.7762677E-31
   6.980000      2.6401850E-31
   6.990000      2.4821943E-31
   7.000000      2.3012075E-31
   7.010000      2.0961498E-31
   7.020000      1.8659667E-31
   7.030000      1.6096340E-31
   7.040000      1.3261650E-31
   7.050000      1.0146157E-31
   7.060000      6.7409264E-32