  -2.600000      0.0000000E+00
  -2.590000      0.0000000E+00
  -2.580000      0.0000000E+00
  -2.570000      0.0000000E+00
  -2.560000      0.0000000E+00
  -2.550000      0.0000000E+00
  -2.540000      0.0000000E+00
  -2.530000      0.0000000E+00
  -2.520000      0.0000000E+00
  -2.510000      0.0000000E+00
  -2.500000      0.0000000E+00
  -2.490000      0.0000000E+00
  -2.480000      0.0000000E+00
  -2.470000      0.0000000E+00
  -2.460000      0.0000000E+00
  -2.450000      0.0000000E+00
  -2.440000      0.0000000E+00
  -2.430000      0.0000000E+00
  -2.420000      0.0000000E+00
  -2.410000      0.0000000E+00
  -2.400000      0.0000000E+00
  -2.390000      0.0000000E+00
  -2.380000      0.0000000E+00
  -2.370000      0.0000000E+00
  -2.360000      0.0000000E+00
  -2.350000      0.0000000E+00
  -2.340000      0.0000000E+00
  -2.330000      0.0000000E+00
  -2.320000      0.0000000E+00
  -2.310000      0.0000000E+00
  -2.300000      0.0000000E+00
  -2.290000      0.0000000E+00
  -2.280000      0.0000000E+00
  -2.270000      0.0000000E+00
  -2.260000      0.0000000E+00
  -2.250000      0.0000000E+00
  -2.240000      0.0000000E+00
  -2.230000      0.0000000E+00
  -2.220000      0.0000000E+00
  -2.210000      0.0000000E+00
  -2.200000      0.0000000E+00
  -2.190000      0.0000000E+00
  -2.180000      0.0000000E+00
  -2.170000      0.0000000E+00
  -2.160000      0.0000000E+00
  -2.150000      0.0000000E+00
  -2.140000      0.0000000E+00
  -2.130000      0.0000000E+00
  -2.120000      0.0000000E+00
  -2.110000      0.0000000E+00
  -2.100000      0.0000000E+00
  -2.090000      0.0000000E+00
  -2.080000      0.0000000E+00
  -2.070000      0.0000000E+00
  -2.060000      0.0000000E+00
  -2.050000      0.0000000E+00
  -2.040000      0.0000000E+00
  -2.030000      0.0000000E+00
  -2.020000      0.0000000E+00
  -2.010000      0.0000000E+00
  -2.000000      0.0000000E+00
  -1.990000      0.0000000E+00
  -1.980000      0.0000000E+00
  -1.970000      0.0000000E+00
  -1.960000      0.0000000E+00
  -1.950000      0.0000000E+00
  -1.940000      0.0000000E+00
  -1.930000      0.0000000E+00
  -1.920000      0.0000000E+00
  -1.910000      0.0000000E+00
  -1.900000      0.0000000E+00
  -1.890000      0.0000000E+00
  -1.880000      0.0000000E+00
  -1.870000      0.0000000E+00
  -1.860000      0.0000000E+00
  -1.850000      0.0000000E+00
  -1.840000      0.0000000E+00
  -1.830000      0.0000000E+00
  -1.820000      0.0000000E+00
  -1.810000      0.0000000E+00
  -1.800000      0.0000000E+00
  -1.790000      0.0000000E+00
  -1.780000      0.0000000E+00
  -1.770000      0.0000000E+00
  -1.760000      0.0000000E+00
  -1.750000      0.0000000E+00
  -1.740000      0.0000000E+00
  -1.730000      0.0000000E+00
  -1.720000      0.0000000E+00
  -1.710000      0.0000000E+00
  -1.700000      0.0000000E+00
  -1.690000      0.0000000E+00
  -1.680000      0.0000000E+00
  -1.670000      0.0000000E+00
  -1.660000      0.0000000E+00
  -1.650000      0.0000000E+00
  -1.640000      0.0000000E+00
  -1.630000      0.0000000E+00
  -1.620000      0.0000000E+00
  -1.610000      0.0000000E+00
  -1.600000      0.0000000E+00
  -1.590000      0.0000000E+00
  -1.580000      0.0000000E+00
  -1.570000      0.0000000E+00
  -1.560000      0.0000000E+00
  -1.550000      0.0000000E+00
  -1.540000      0.0000000E+00
  -1.530000      0.0000000E+00
  -1.520000      0.0000000E+00
  -1.510000      0.0000000E+00
  -1.500000      0.0000000E+00
  -1.490000      0.0000000E+00
  -1.480000      0.0000000E+00
  -1.470000      0.0000000E+00
  -1.460000      0.0000000E+00
  -1.450000      0.0000000E+00
  -1.440000      0.0000000E+00
  -1.430000      0.0000000E+00
  -1.420000      0.0000000E+00
  -1.410000      0.0000000E+00
  -1.400000      0.0000000E+00
  -1.390000      0.0000000E+00
  -1.380000      0.0000000E+00
  -1.370000      0.0000000E+00
  -1.360000      0.0000000E+00
  -1.350000      0.0000000E+00
  -1.340000      0.0000000E+00
  -1.330000      0.0000000E+00
  -1.320000      0.0000000E+00
  -1.310000      0.0000000E+00
  -1.300000      0.0000000E+00
  -1.290000      0.0000000E+00
  -1.280000      0.0000000E+00
  -1.270000      0.0000000E+00
  -1.260000      0.0000000E+00
  -1.250000      0.0000000E+00
  -1.240000      0.0000000E+00
  -1.230000      0.0000000E+00
  -1.220000      0.0000000E+00
  -1.210000      0.0000000E+00
  -1.200000      0.0000000E+00
  -1.190000      0.0000000E+00
  -1.180000      0.0000000E+00
  -1.170000      0.0000000E+00
  -1.160000      0.0000000E+00
  -1.150000      0.0000000E+00
  -1.140000      0.0000000E+00
  -1.130000      0.0000000E+00
  -1.120000      0.0000000E+00
  -1.110000      0.0000000E+00
  -1.100000      0.0000000E+00
  -1.090000      0.0000000E+00
  -1.080000      0.0000000E+00
  -1.070000      0.0000000E+00
  -1.060000      0.0000000E+00
  -1.050000      0.0000000E+00
  -1.040000      0.0000000E+00
  -1.030000      0.0000000E+00
  -1.020000      0.0000000E+00
  -1.010000      0.0000000E+00
  -1.000000      0.0000000E+00
 -0.9900000      0.0000000E+00
 -0.9800000      0.0000000E+00
 -0.9700000      0.0000000E+00
 -0.9600000      0.0000000E+00
 -0.9500000      0.0000000E+00
 -0.9400000      0.0000000E+00
 -0.9300000      0.0000000E+00
 -0.9200000      0.0000000E+00
 -0.9100000      0.0000000E+00
 -0.9000000      0.0000000E+00
 -0.8900000      0.0000000E+00
 -0.8800000      0.0000000E+00
 -0.8700000      0.0000000E+00
 -0.8600000      0.0000000E+00
 -0.8500000      0.0000000E+00
 -0.8400000      0.0000000E+00
 -0.8300000      0.0000000E+00
 -0.8200000      0.0000000E+00
 -0.8100000      0.0000000E+00
 -0.8000000      0.0000000E+00
 -0.7900000      0.0000000E+00
 -0.7800000      0.0000000E+00
 -0.7700000      0.0000000E+00
 -0.7600000      0.0000000E+00
 -0.7500000      0.0000000E+00
 -0.7400000      0.0000000E+00
 -0.7300000      0.0000000E+00
 -0.7200000      0.0000000E+00
 -0.7100000      0.0000000E+00
 -0.7000000      0.0000000E+00
 -0.6900000      0.0000000E+00
 -0.6800000      0.0000000E+00
 -0.6700000      0.0000000E+00
 -0.6600000      0.0000000E+00
 -0.6500000      0.0000000E+00
 -0.6400000      0.0000000E+00
 -0.6300000      0.0000000E+00
 -0.6200000      1.1759366E-38
 -0.6100000      1.5652692E-38
 -0.6000000      1.9706365E-38
 -0.5900000      2.3807935E-38
 -0.5800000      2.7624651E-38
 -0.5700000      3.0770098E-38
 -0.5600000      3.2984680E-38
 -0.5500000      3.3940859E-38
 -0.5400000      3.3198465E-38
 -0.5300000      2.9816122E-38
 -0.5200000      2.3987761E-38
 -0.5100000      1.5274970E-38
 -0.5000000      0.0000000E+00
 -0.4900000     -1.7020170E-38
 -0.4800000     -4.3416711E-38
 -0.4700000     -7.0964893E-38
 -0.4600000     -1.0387125E-37
 -0.4500000     -1.4212889E-37
 -0.4400000     -1.8543717E-37
 -0.4300000     -2.3762125E-37
 -0.4200000     -2.9510891E-37
 -0.4100000     -3.4575428E-37
 -0.4000000     -4.2171326E-37
 -0.3900000     -4.8472102E-37
 -0.3800000     -4.1887596E-37
 -0.3700000     -2.1630479E-37
 -0.3600000      7.2610057E-38
 -0.3500000      4.7205369E-37
 -0.3400000      9.7685758E-37
 -0.3300000      1.6193152E-36
 -0.3200000      2.4342390E-36
 -0.3100000      3.2933454E-36
 -0.3000000      4.2034412E-36
 -0.2900000      5.1356063E-36
 -0.2800000      5.8680859E-36
 -0.2700000      6.2805629E-36
 -0.2600000      6.3689179E-36
 -0.2500000      6.0720123E-36
 -0.2400000      5.1912590E-36
 -0.2300000      3.7041589E-36
 -0.2200000      1.7762470E-36
 -0.2100000     -6.9929062E-37
 -0.2000000     -3.7869056E-36
 -0.1900000     -7.4197686E-36
 -0.1800000     -1.1627933E-35
 -0.1700000     -1.6142904E-35
 -0.1600000     -2.0693944E-35
 -0.1500000     -2.5016021E-35
 -0.1400000     -2.9069338E-35
 -0.1300000     -3.2983445E-35
 -0.1200000     -3.6343091E-35
 -0.1100000     -3.9017694E-35
 -0.1000000     -4.0859581E-35
 -9.0000004E-02 -4.1233234E-35
 -7.9999998E-02 -3.9403136E-35
 -7.0000000E-02 -3.5326877E-35
 -5.9999999E-02 -2.9433228E-35
 -5.0000001E-02 -1.6725583E-35
 -3.9999999E-02  6.6164569E-36
 -2.9999999E-02  4.0422289E-35
 -2.0000000E-02  8.4430450E-35
 -9.9999998E-03  1.3964978E-34
 -3.4694470E-17  2.0318500E-34
  9.9999998E-03  2.6439061E-34
  2.0000000E-02  3.1591443E-34
  2.9999999E-02  3.6151387E-34
  3.9999999E-02  4.0148146E-34
  5.0000001E-02  4.3014718E-34
  5.9999999E-02  4.3681737E-34
  7.0000000E-02  4.1331387E-34
  7.9999998E-02  3.5263285E-34
  9.0000004E-02  2.5182907E-34
  0.1000000      1.1292931E-34
  0.1100000     -6.7224008E-35
  0.1200000     -2.8648928E-34
  0.1300000     -5.4158046E-34
  0.1400000     -8.2671710E-34
  0.1500000     -1.1334478E-33
  0.1600000     -1.4505033E-33
  0.1700000     -1.7632615E-33
  0.1800000     -2.0545018E-33
  0.1900000     -2.3020595E-33
  0.2000000     -2.4804692E-33
  0.2100000     -2.5625861E-33
  0.2200000     -2.5170291E-33
  0.2300000     -2.3092181E-33
  0.2400000     -1.9015517E-33
  0.2500000     -1.2535896E-33
  0.2600000     -3.2217736E-34
  0.2700000      9.3834048E-34
  0.2800000      2.5760613E-33
  0.2900000      4.6414255E-33
  0.3000000      7.1871113E-33
  0.3100000      1.0268216E-32
  0.3200000      1.3941989E-32
  0.3300000      1.8268243E-32
  0.3400000      2.3309740E-32
  0.3500000      2.9132062E-32
  0.3600000      3.5803933E-32
  0.3700000      4.3397385E-32
  0.3800000      5.1987901E-32
  0.3900000      6.1654385E-32
  0.4000000      7.2479019E-32
  0.4100000      8.4546896E-32
  0.4200000      9.7945428E-32
  0.4300000      1.1276349E-31
  0.4400000      1.2909025E-31
  0.4500000      1.4701378E-31
  0.4600000      1.6661928E-31
  0.4700000      1.8798710E-31
  0.4800000      2.1119058E-31
  0.4900000      2.3629374E-31
  0.5000000      2.6334882E-31
  0.5100000      2.9239413E-31
  0.5200000      3.2345187E-31
  0.5300000      3.5652638E-31
  0.5400000      3.9160306E-31
  0.5500000      4.2864754E-31
  0.5600000      4.6760620E-31
  0.5700000      5.0840709E-31
  0.5800000      5.5096238E-31
  0.5900000      5.9517160E-31
  0.6000000      6.4092602E-31
  0.6100000      6.8811464E-31
  0.6200000      7.3663059E-31
  0.6300000      7.8637878E-31
  0.6400000      8.3728413E-31
  0.6500000      8.8930041E-31
  0.6600000      9.4241940E-31
  0.6700000      9.9667900E-31
  0.6800000      1.0521716E-30
  0.6900000      1.1090511E-30
  0.7000000      1.1675382E-30
  0.7100000      1.2279246E-30
  0.7200000      1.2905743E-30
  0.7300000      1.3559231E-30
  0.7400000      1.4244757E-30
  0.7500000      1.4967994E-30
  0.7600000      1.5735165E-30
  0.7700000      1.6552939E-30
  0.7800000      1.7428308E-30
  0.7900000      1.8368453E-30
  0.8000000      1.9380607E-30
  0.8100000      2.0471904E-30
  0.8200000      2.1649256E-30
  0.8300000      2.2919234E-30
  0.8400000      2.4287974E-30
  0.8500000      2.5761115E-30
  0.8600000      2.7343782E-30
  0.8700000      2.9040605E-30
  0.8800000      3.0855790E-30
  0.8900000      3.2793227E-30
  0.9000000      3.4856646E-30
  0.9100000      3.7049818E-30
  0.9200000      3.9376777E-30
  0.9300000      4.1842069E-30
  0.9400000      4.4451012E-30
  0.9500000      4.7209922E-30
  0.9600000      5.0126348E-30
  0.9700000      5.3209254E-30
  0.9800000      5.6469146E-30
  0.9900000      5.9918118E-30
   1.000000      6.3569824E-30
   1.010000      6.7439364E-30
   1.020000      7.1543091E-30
   1.030000      7.5898266E-30
   1.040000      8.0522717E-30
   1.050000      8.5434358E-30
   1.060000      9.0650649E-30
   1.070000      9.6188111E-30
   1.080000      1.0206176E-29
   1.090000      1.0828458E-29
   1.100000      1.1486710E-29
   1.110000      1.2181706E-29
   1.120000      1.2913917E-29
   1.130000      1.3683508E-29
   1.140000      1.4490348E-29
   1.150000      1.5334045E-29
   1.160000      1.6213993E-29
   1.170000      1.7129448E-29
   1.180000      1.8079612E-29
   1.190000      1.9063730E-29
   1.200000      2.0081211E-29
   1.210000      2.1131731E-29
   1.220000      2.2215352E-29
   1.230000      2.3332625E-29
   1.240000      2.4484672E-29
   1.250000      2.5673260E-29
   1.260000      2.6900836E-29
   1.270000      2.8170520E-29
   1.280000      2.9486084E-29
   1.290000      3.0851869E-29
   1.300000      3.2272676E-29
   1.310000      3.3753604E-29
   1.320000      3.5299879E-29
   1.330000      3.6916625E-29
   1.340000      3.8608660E-29
   1.350000      4.0380245E-29
   1.360000      4.2234864E-29
   1.370000      4.4175019E-29
   1.380000      4.6202066E-29
   1.390000      4.8316081E-29
   1.400000      5.0515800E-29
   1.410000      5.2798623E-29
   1.420000      5.5160686E-29
   1.430000      5.7597023E-29
   1.440000      6.0101768E-29
   1.450000      6.2668496E-29
   1.460000      6.5290536E-29
   1.470000      6.7961385E-29
   1.480000      7.0675093E-29
   1.490000      7.3426729E-29
   1.500000      7.6212731E-29
   1.510000      7.9031257E-29
   1.520000      8.1882428E-29
   1.530000      8.4768494E-29
   1.540000      8.7693844E-29
   1.550000      9.0664922E-29
   1.560000      9.3689932E-29
   1.570000      9.6778461E-29
   1.580000      9.9940880E-29
   1.590000      1.0318769E-28
   1.600000      1.0652871E-28
   1.610000      1.0997222E-28
   1.620000      1.1352410E-28
   1.630000      1.1718687E-28
   1.640000      1.2095896E-28
   1.650000      1.2483396E-28
   1.660000      1.2880014E-28
   1.670000      1.3284005E-28
   1.680000      1.3693049E-28
   1.690000      1.4104274E-28
   1.700000      1.4514294E-28
   1.710000      1.4919298E-28
   1.720000      1.5315144E-28
   1.730000      1.5697492E-28
   1.740000      1.6061946E-28
   1.750000      1.6404213E-28
   1.760000      1.6720261E-28
   1.770000      1.7006477E-28
   1.780000      1.7259809E-28
   1.790000      1.7477883E-28
   1.800000      1.7659089E-28
   1.810000      1.7802626E-28
   1.820000      1.7908500E-28
   1.830000      1.7977474E-28
   1.840000      1.8010963E-28
   1.850000      1.8010882E-28
   1.860000      1.7979437E-28
   1.870000      1.7918892E-28
   1.880000      1.7831292E-28
   1.890000      1.7718181E-28
   1.900000      1.7580309E-28
   1.910000      1.7417358E-28
   1.920000      1.7227702E-28
   1.930000      1.7008212E-28
   1.940000      1.6754120E-28
   1.950000      1.6458954E-28
   1.960000      1.6114587E-28
   1.970000      1.5711337E-28
   1.980000      1.5238196E-28
   1.990000      1.4683126E-28
   2.000000      1.4033437E-28
   2.010000      1.3276238E-28
   2.020000      1.2398926E-28
   2.030000      1.1389701E-28
   2.040000      1.0238071E-28
   2.050000      8.9353273E-29
   2.060000      7.4749452E-29
   2.070000      5.8529095E-29
   2.080000      4.0679110E-29
   2.090000      2.1214069E-29
   2.100000      1.7536891E-31
   2.110000     -2.2371297E-29
   2.120000     -4.6339963E-29
   2.130000     -7.1629867E-29
   2.140000     -9.8132197E-29
   2.150000     -1.2573780E-28
   2.160000     -1.5434545E-28
   2.170000     -1.8387030E-28
   2.180000     -2.1425195E-28
   2.190000     -2.4546170E-28
   2.200000     -2.7750847E-28
   2.210000     -3.1044298E-28
   2.220000     -3.4435940E-28
   2.230000     -3.7939501E-28
   2.240000     -4.1572666E-28
   2.250000     -4.5356474E-28
   2.260000     -4.9314433E-28
   2.270000     -5.3471418E-28
   2.280000     -5.7852336E-28
   2.290000     -6.2480677E-28
   2.300000     -6.7376974E-28
   2.310000     -7.2557287E-28
   2.320000     -7.8031753E-28
   2.330000     -8.3803346E-28
   2.340000     -8.9866867E-28
   2.350000     -9.6208290E-28
   2.360000     -1.0280451E-27
   2.370000     -1.0962353E-27
   2.380000     -1.1662508E-27
   2.390000     -1.2376183E-27
   2.400000     -1.3098088E-27
   2.410000     -1.3822574E-27
   2.420000     -1.4543865E-27
   2.430000     -1.5256293E-27
   2.440000     -1.5954564E-27
   2.450000     -1.6633999E-27
   2.460000     -1.7290774E-27
   2.470000     -1.7922097E-27
   2.480000     -1.8526371E-27
   2.490000     -1.9103274E-27
   2.500000     -1.9653772E-27
   2.510000     -2.0180069E-27
   2.520000     -2.0685460E-27
   2.530000     -2.1174126E-27
   2.540000     -2.1650860E-27
   2.550000     -2.2120704E-27
   2.560000     -2.2588595E-27
   2.570000     -2.3058934E-27
   2.580000     -2.3535182E-27
   2.590000     -2.4019468E-27
   2.600000     -2.4512246E-27
   2.610000     -2.5012004E-27
   2.620000     -2.5515084E-27
   2.630000     -2.6015585E-27
   2.640000     -2.6505418E-27
   2.650000     -2.6974444E-27
   2.660000     -2.7410781E-27
   2.670000     -2.7801222E-27
   2.680000     -2.8131752E-27
   2.690000     -2.8388163E-27
   2.700000     -2.8556726E-27
   2.710000     -2.8624896E-27
   2.720000     -2.8582018E-27
   2.730000     -2.8419960E-27
   2.740000     -2.8133696E-27
   2.750000     -2.7721739E-27
   2.760000     -2.7186439E-27
   2.770000     -2.6534080E-27
   2.780000     -2.5774797E-27
   2.790000     -2.4922281E-27
   2.800000     -2.3993266E-27
   2.810000     -2.3006853E-27
   2.820000     -2.1983624E-27
   2.830000     -2.0944681E-27
   2.840000     -1.9910578E-27
   2.850000     -1.8900225E-27
   2.860000     -1.7929836E-27
   2.870000     -1.7011974E-27
   2.880000     -1.6154758E-27
   2.890000     -1.5361264E-27
   2.900000     -1.4629215E-27
   2.910000     -1.3950947E-27
   2.920000     -1.3313725E-27
   2.930000     -1.2700355E-27
   2.940000     -1.2090126E-27
   2.950000     -1.1460040E-27
   2.960000     -1.0786269E-27
   2.970000     -1.0045784E-27
   2.980000     -9.2180727E-28
   2.990000     -8.2868374E-28
   3.000000     -7.2416117E-28
   3.010000     -6.0791695E-28
   3.020000     -4.8046425E-28
   3.030000     -3.4322561E-28
   3.040000     -1.9856104E-28
   3.050000     -4.9747824E-29
   3.060000      9.9092929E-29
   3.070000      2.4312213E-28
   3.080000      3.7695678E-28
   3.090000      4.9488691E-28
   3.100000      5.9112645E-28
   3.110000      6.6008697E-28
   3.120000      6.9666120E-28
   3.130000      6.9650000E-28
   3.140000      6.5626939E-28
   3.150000      5.7387079E-28
   3.160000      4.4861139E-28
   3.170000      2.8131197E-28
   3.180000      7.4342653E-29
   3.190000     -1.6842061E-28
   3.200000     -4.4172036E-28
   3.210000     -7.3911924E-28
   3.220000     -1.0532741E-27
   3.230000     -1.3762711E-27
   3.240000     -1.7000051E-27
   3.250000     -2.0165865E-27
   3.260000     -2.3187515E-27
   3.270000     -2.6002550E-27
   3.280000     -2.8562211E-27
   3.290000     -3.0834264E-27
   3.300000     -3.2804989E-27
   3.310000     -3.4480143E-27
   3.320000     -3.5884713E-27
   3.330000     -3.7061483E-27
   3.340000     -3.8068336E-27
   3.350000     -3.8974374E-27
   3.360000     -3.9855025E-27
   3.370000     -4.0786247E-27
   3.380000     -4.1838182E-27
   3.390000     -4.3068543E-27
   3.400000     -4.4516033E-27
   3.410000     -4.6194239E-27
   3.420000     -4.8086261E-27
   3.430000     -5.0140558E-27
   3.440000     -5.2268163E-27
   3.450000     -5.4341639E-27
   3.460000     -5.6195859E-27
   3.470000     -5.7630696E-27
   3.480000     -5.8415643E-27
   3.490000     -5.8296151E-27
   3.500000     -5.7001560E-27
   3.510000     -5.4254144E-27
   3.520000     -4.9778987E-27
   3.530000     -4.3314114E-27
   3.540000     -3.4620366E-27
   3.550000     -2.3490496E-27
   3.560000     -9.7569065E-28
   3.570000      6.7024047E-28
   3.580000      2.5960197E-27
   3.590000      4.8038852E-27
   3.600000      7.2912018E-27
   3.610000      1.0050909E-26
   3.620000      1.3072233E-26
   3.630000      1.6341643E-26
   3.640000      1.9844019E-26
   3.650000      2.3563949E-26
   3.660000      2.7487103E-26
   3.670000      3.1601638E-26
   3.680000      3.5899482E-26
   3.690000      4.0377476E-26
   3.700000      4.5038279E-26
   3.710000      4.9890935E-26
   3.720000      5.4951114E-26
   3.730000      6.0240876E-26
   3.740000      6.5788084E-26
   3.750000      7.1625316E-26
   3.760000      7.7788403E-26
   3.770000      8.4314600E-26
   3.780000      9.1240466E-26
   3.790000      9.8599570E-26
   3.800000      1.0642006E-25
   3.810000      1.1472227E-25
   3.820000      1.2351652E-25
   3.830000      1.3280112E-25
   3.840000      1.4256076E-25
   3.850000      1.5276542E-25
   3.860000      1.6336980E-25
   3.870000      1.7431342E-25
   3.880000      1.8552121E-25
   3.890000      1.9690490E-25
   3.900000      2.0836472E-25
   3.910000      2.1979193E-25
   3.920000      2.3107141E-25
   3.930000      2.4208467E-25
   3.940000      2.5271282E-25
   3.950000      2.6283950E-25
   3.960000      2.7235354E-25
   3.970000      2.8115116E-25
   3.980000      2.8913754E-25
   3.990000      2.9622760E-25
   4.000000      3.0234618E-25
   4.010000      3.0742698E-25
   4.020000      3.1141100E-25
   4.030000      3.1424365E-25
   4.040000      3.1587162E-25
   4.050000      3.1623863E-25
   4.060000      3.1528115E-25
   4.070000      3.1292357E-25
   4.080000      3.0907363E-25
   4.090000      3.0361797E-25
   4.100000      2.9641826E-25
   4.110000      2.8730824E-25
   4.120000      2.7609158E-25
   4.130000      2.6254104E-25
   4.140000      2.4639893E-25
   4.150000      2.2737893E-25
   4.160000      2.0516932E-25
   4.170000      1.7943751E-25
   4.180000      1.4983559E-25
   4.190000      1.1600701E-25
   4.200000      7.7593745E-26
   4.210000      3.4243900E-26
   4.220000     -1.4380768E-26
   4.230000     -6.8597791E-26
   4.240000     -1.2869746E-25
   4.250000     -1.9493760E-25
   4.260000     -2.6753971E-25
   4.270000     -3.4668664E-25
   4.280000     -4.3252193E-25
   4.290000     -5.2515131E-25
   4.300000     -6.2464531E-25
   4.310000     -7.3104450E-25
   4.320000     -8.4436486E-25
   4.330000     -9.6460521E-25
   4.340000     -1.0917544E-24
   4.350000     -1.2257991E-24
   4.360000     -1.3667313E-24
   4.370000     -1.5145540E-24
   4.380000     -1.6692865E-24
   4.390000     -1.8309673E-24
   4.400000     -1.9996543E-24
   4.410000     -2.1754228E-24
   4.420000     -2.3583612E-24
   4.430000     -2.5485627E-24
   4.440000     -2.7461151E-24
   4.450000     -2.9510894E-24
   4.460000     -3.1635231E-24
   4.470000     -3.3834055E-24
   4.480000     -3.6106601E-24
   4.490000     -3.8451274E-24
   4.500000     -4.0865492E-24
   4.510000     -4.3345528E-24
   4.520000     -4.5886378E-24
   4.530000     -4.8481675E-24
   4.540000     -5.1123594E-24
   4.550000     -5.3802834E-24
   4.560000     -5.6508619E-24
   4.570000     -5.9228750E-24
   4.580000     -6.1949677E-24
   4.590000     -6.4656598E-24
   4.600000     -6.7333609E-24
   4.610000     -6.9963861E-24
   4.620000     -7.2529718E-24
   4.630000     -7.5012918E-24
   4.640000     -7.7394733E-24
   4.650000     -7.9656106E-24
   4.660000     -8.1777739E-24
   4.670000     -8.3740165E-24
   4.680000     -8.5523779E-24
   4.690000     -8.7108798E-24
   4.700000     -8.8475176E-24
   4.710000     -8.9602506E-24
   4.720000     -9.0469827E-24
   4.730000     -9.1055430E-24
   4.740000     -9.1336635E-24
   4.750000     -9.1289548E-24
   4.760000     -9.0888806E-24
   4.770000     -9.0107337E-24
   4.780000     -8.8916181E-24
   4.790000     -8.7284319E-24
   4.800000     -8.5178566E-24
   4.810000     -8.2563523E-24
   4.820000     -7.9401666E-24
   4.830000     -7.5653410E-24
   4.840000     -7.1277330E-24
   4.850000     -6.6230450E-24
   4.860000     -6.0468626E-24
   4.870000     -5.3946884E-24
   4.880000     -4.6619972E-24
   4.890000     -3.8442821E-24
   4.900000     -2.9371082E-24
   4.910000     -1.9361627E-24
   4.920000     -8.3730239E-25
   4.930000      3.6339809E-25
   4.940000      1.6696091E-24
   4.950000      3.0847163E-24
   4.960000      4.6117956E-24
   4.970000      6.2535998E-24
   4.980000      8.0125509E-24
   4.990000      9.8907467E-24
   5.000000      1.1889969E-23
   5.010000      1.4011697E-23
   5.020000      1.6257126E-23
   5.030000      1.8627196E-23
   5.040000      2.1122598E-23
   5.050000      2.3743803E-23
   5.060000      2.6491057E-23
   5.070000      2.9364394E-23
   5.080000      3.2363609E-23
   5.090000      3.5488249E-23
   5.100000      3.8737567E-23
   5.110000      4.2110465E-23
   5.120000      4.5605434E-23
   5.130000      4.9220474E-23
   5.140000      5.2952995E-23
   5.150000      5.6799727E-23
   5.160000      6.0756603E-23
   5.170000      6.4818662E-23
   5.180000      6.8979935E-23
   5.190000      7.3233334E-23
   5.200000      7.7570573E-23
   5.210000      8.1982092E-23
   5.220000      8.6456959E-23
   5.230000      9.0982862E-23
   5.240000      9.5546031E-23
   5.250000      1.0013129E-22
   5.260000      1.0472201E-22
   5.270000      1.0930016E-22
   5.280000      1.1384637E-22
   5.290000      1.1833995E-22
   5.300000      1.2275899E-22
   5.310000      1.2708039E-22
   5.320000      1.3127999E-22
   5.330000      1.3533256E-22
   5.340000      1.3921195E-22
   5.350000      1.4289108E-22
   5.360000      1.4634195E-22
   5.370000      1.4953570E-22
   5.380000      1.5244255E-22
   5.390000      1.5503185E-22
   5.400000      1.5727194E-22
   5.410000      1.5913016E-22
   5.420000      1.6057274E-22
   5.430000      1.6156472E-22
   5.440000      1.6206992E-22
   5.450000      1.6205077E-22
   5.460000      1.6146837E-22
   5.470000      1.6028231E-22
   5.480000      1.5845079E-22
   5.490000      1.5593053E-22
   5.500000      1.5267687E-22
   5.510000      1.4864387E-22
   5.520000      1.4378442E-22
   5.530000      1.3805041E-22
   5.540000      1.3139301E-22
   5.550000      1.2376286E-22
   5.560000      1.1511037E-22
   5.570000      1.0538604E-22
   5.580000      9.4540814E-23
   5.590000      8.2526393E-23
   5.600000      6.9295631E-23
   5.610000      5.4802804E-23
   5.620000      3.9004000E-23
   5.630000      2.1857422E-23
   5.640000      3.3236469E-24
   5.650000     -1.6634110E-23
   5.660000     -3.8049797E-23
   5.670000     -6.0954310E-23
   5.680000     -8.5375336E-23
   5.690000     -1.1133722E-22
   5.700000     -1.3886084E-22
   5.710000     -1.6796349E-22
   5.720000     -1.9865885E-22
   5.730000     -2.3095676E-22
   5.740000     -2.6486307E-22
   5.750000     -3.0037955E-22
   5.760000     -3.3750362E-22
   5.770000     -3.7622804E-22
   5.780000     -4.1654060E-22
   5.790000     -4.5842376E-22
   5.800000     -5.0185427E-22
   5.810000     -5.4680248E-22
   5.820000     -5.9323183E-22
   5.830000     -6.4109835E-22
   5.840000     -6.9034992E-22
   5.850000     -7.4092568E-22
   5.860000     -7.9275518E-22
   5.870000     -8.4575805E-22
   5.880000     -8.9984306E-22
   5.890000     -9.5490772E-22
   5.900000     -1.0108375E-21
   5.910000     -1.0675059E-21
   5.920000     -1.1247733E-21
   5.930000     -1.1824874E-21
   5.940000     -1.2404825E-21
   5.950000     -1.2985797E-21
   5.960000     -1.3565869E-21
   5.970000     -1.4142985E-21
   5.980000     -1.4714959E-21
   5.990000     -1.5279476E-21
   6.000000     -1.5834092E-21
   6.010000     -1.6376239E-21
   6.020000     -1.6903230E-21
   6.030000     -1.7412255E-21
   6.040000     -1.7900386E-21
   6.050000     -1.8364581E-21
   6.060000     -1.8801684E-21
   6.070000     -1.9208430E-21
   6.080000     -1.9581437E-21
   6.090000     -1.9917215E-21
   6.100000     -2.0212164E-21
   6.110000     -2.0462568E-21
   6.120000     -2.0664607E-21
   6.130000     -2.0814348E-21
   6.140000     -2.0907753E-21
   6.150000     -2.0940673E-21
   6.160000     -2.0908860E-21
   6.170000     -2.0807969E-21
   6.180000     -2.0633564E-21
   6.190000     -2.0381122E-21
   6.200000     -2.0046056E-21
   6.210000     -1.9623713E-21
   6.220000     -1.9109403E-21
   6.230000     -1.8498400E-21
   6.240000     -1.7785975E-21
   6.250000     -1.6967409E-21
   6.260000     -1.6038014E-21
   6.270000     -1.4993157E-21
   6.280000     -1.3828289E-21
   6.290000     -1.2538967E-21
   6.300000     -1.1120876E-21
   6.310000     -9.5698627E-22
   6.320000     -7.8819508E-22
   6.330000     -6.0533702E-22
   6.340000     -4.0805843E-22
   6.350000     -1.9603085E-22
   6.360000      3.1046366E-23
   6.370000      2.7344400E-22
   6.380000      5.3140074E-22
   6.390000      8.0512098E-22
   6.400000      1.0947728E-21
   6.410000      1.4004861E-21
   6.420000      1.7223496E-21
   6.430000      2.0604090E-21
   6.440000      2.4146648E-21
   6.450000      2.7850691E-21
   6.460000      3.1715232E-21
   6.470000      3.5738754E-21
   6.480000      3.9919159E-21
   6.490000      4.4253755E-21
   6.500000      4.8739202E-21
   6.510000      5.3371499E-21
   6.520000      5.8145926E-21
   6.530000      6.3056996E-21
   6.540000      6.8098452E-21
   6.550000      7.3263193E-21
   6.560000      7.8543239E-21
   6.570000      8.3929719E-21
   6.580000      8.9412804E-21
   6.590000      9.4981709E-21
   6.600000      1.0062462E-20
   6.610000      1.0632873E-20
   6.620000      1.1208012E-20
   6.630000      1.1786386E-20
   6.640000      1.2366391E-20
   6.650000      1.2946315E-20
   6.660000      1.3524338E-20
   6.670000      1.4098528E-20
   6.680000      1.4666846E-20
   6.690000      1.5227146E-20
   6.700000      1.5777174E-20
   6.710000      1.6314570E-20
   6.720000      1.6836872E-20
   6.730000      1.7341514E-20
   6.740000      1.7825831E-20
   6.750000      1.8287060E-20
   6.760000      1.8722345E-20
   6.770000      1.9128731E-20
   6.780000      1.9503180E-20
   6.790000      1.9842564E-20
   6.800000      2.0143665E-20
   6.810000      2.0403192E-20
   6.820000      2.0617769E-20
   6.830000      2.0783952E-20
   6.840000      2.0898227E-20
   6.850000      2.0957018E-20
   6.860000      2.0956694E-20
   6.870000      2.0893574E-20
   6.880000      2.0763938E-20
   6.890000      2.0564035E-20
   6.900000      2.0290089E-20
   6.910000      1.9938319E-20
   6.920000      1.9504946E-20
   6.930000      1.8986206E-20
   6.940000      1.8378360E-20
   6.950000      1.7677724E-20
   6.960000      1.6880667E-20
   6.970000      1.5983643E-20
   6.980000      1.4983194E-20
   6.990000      1.3875979E-20
   7.000000      1.2658789E-20
   7.010000      1.1328565E-20
   7.020000      9.8824156E-21
   7.030000      8.3176363E-21
   7.040000      6.6317311E-21
   7.050000      4.8224282E-21
   7.060000      2.8877004E-21