  -2.600000      0.0000000E+00
  -2.590000      0.0000000E+00
  -2.580000      0.0000000E+00
  -2.570000      0.0000000E+00
  -2.560000      0.0000000E+00
  -2.550000      0.0000000E+00
  -2.540000      0.0000000E+00
  -2.530000      0.0000000E+00
  -2.520000      0.0000000E+00
  -2.510000      0.0000000E+00
  -2.500000      0.0000000E+00
  -2.490000      0.0000000E+00
  -2.480000      0.0000000E+00
  -2.470000      0.0000000E+00
  -2.460000      0.0000000E+00
  -2.450000      0.0000000E+00
  -2.440000      0.0000000E+00
  -2.430000      0.0000000E+00
  -2.420000      0.0000000E+00
  -2.410000      0.0000000E+00
  -2.400000      0.0000000E+00
  -2.390000      0.0000000E+00
  -2.380000      0.0000000E+00
  -2.370000      0.0000000E+00
  -2.360000      0.0000000E+00
  -2.350000      0.0000000E+00
  -2.340000      0.0000000E+00
  -2.330000      0.0000000E+00
  -2.320000      0.0000000E+00
  -2.310000      0.0000000E+00
  -2.300000      0.0000000E+00
  -2.290000      0.0000000E+00
  -2.280000      0.0000000E+00
  -2.270000      0.0000000E+00
  -2.260000      0.0000000E+00
  -2.250000      0.0000000E+00
  -2.240000      0.0000000E+00
  -2.230000      0.0000000E+00
  -2.220000      0.0000000E+00
  -2.210000      0.0000000E+00
  -2.200000      0.0000000E+00
  -2.190000      0.0000000E+00
  -2.180000      0.0000000E+00
  -2.170000      0.0000000E+00
  -2.160000      0.0000000E+00
  -2.150000      0.0000000E+00
  -2.140000      0.0000000E+00
  -2.130000      0.0000000E+00
  -2.120000      0.0000000E+00
  -2.110000      0.0000000E+00
  -2.100000      0.0000000E+00
  -2.090000      0.0000000E+00
  -2.080000      0.0000000E+00
  -2.070000      0.0000000E+00
  -2.060000      0.0000000E+00
  -2.050000      0.0000000E+00
  -2.040000      0.0000000E+00
  -2.030000      0.0000000E+00
  -2.020000      0.0000000E+00
  -2.010000      0.0000000E+00
  -2.000000      0.0000000E+00
  -1.990000      0.0000000E+00
  -1.980000      0.0000000E+00
  -1.970000      0.0000000E+00
  -1.960000      0.0000000E+00
  -1.950000      0.0000000E+00
  -1.940000      0.0000000E+00
  -1.930000      0.0000000E+00
  -1.920000      0.0000000E+00
  -1.910000      0.0000000E+00
  -1.900000      0.0000000E+00
  -1.890000      0.0000000E+00
  -1.880000      0.0000000E+00
  -1.870000      0.0000000E+00
  -1.860000      0.0000000E+00
  -1.850000      0.0000000E+00
  -1.840000      0.0000000E+00
  -1.830000      0.0000000E+00
  -1.820000      0.0000000E+00
  -1.810000      0.0000000E+00
  -1.800000      0.0000000E+00
  -1.790000      0.0000000E+00
  -1.780000      0.0000000E+00
  -1.770000      0.0000000E+00
  -1.760000      0.0000000E+00
  -1.750000      0.0000000E+00
  -1.740000      0.0000000E+00
  -1.730000      0.0000000E+00
  -1.720000      0.0000000E+00
  -1.710000      0.0000000E+00
  -1.700000      0.0000000E+00
  -1.690000      0.0000000E+00
  -1.680000      0.0000000E+00
  -1.670000      0.0000000E+00
  -1.660000      0.0000000E+00
  -1.650000      0.0000000E+00
  -1.640000      0.0000000E+00
  -1.630000      0.0000000E+00
  -1.620000      0.0000000E+00
  -1.610000      0.0000000E+00
  -1.600000      0.0000000E+00
  -1.590000      0.0000000E+00
  -1.580000      0.0000000E+00
  -1.570000      0.0000000E+00
  -1.560000      0.0000000E+00
  -1.550000      0.0000000E+00
  -1.540000      0.0000000E+00
  -1.530000      0.0000000E+00
  -1.520000      0.0000000E+00
  -1.510000      0.0000000E+00
  -1.500000      0.0000000E+00
  -1.490000      0.0000000E+00
  -1.480000      0.0000000E+00
  -1.470000      0.0000000E+00
  -1.460000      0.0000000E+00
  -1.450000      0.0000000E+00
  -1.440000      0.0000000E+00
  -1.430000      0.0000000E+00
  -1.420000      0.0000000E+00
  -1.410000      0.0000000E+00
  -1.400000      0.0000000E+00
  -1.390000      0.0000000E+00
  -1.380000      0.0000000E+00
  -1.370000      0.0000000E+00
  -1.360000      0.0000000E+00
  -1.350000      0.0000000E+00
  -1.340000      0.0000000E+00
  -1.330000      0.0000000E+00
  -1.320000      0.0000000E+00
  -1.310000      0.0000000E+00
  -1.300000      0.0000000E+00
  -1.290000      0.0000000E+00
  -1.280000      0.0000000E+00
  -1.270000      0.0000000E+00
  -1.260000      0.0000000E+00
  -1.250000      0.0000000E+00
  -1.240000      0.0000000E+00
  -1.230000      0.0000000E+00
  -1.220000      0.0000000E+00
  -1.210000      0.0000000E+00
  -1.200000      0.0000000E+00
  -1.190000      0.0000000E+00
  -1.180000      0.0000000E+00
  -1.170000      0.0000000E+00
  -1.160000      0.0000000E+00
  -1.150000      0.0000000E+00
  -1.140000      0.0000000E+00
  -1.130000      0.0000000E+00
  -1.120000      0.0000000E+00
  -1.110000      0.0000000E+00
  -1.100000      0.0000000E+00
  -1.090000      0.0000000E+00
  -1.080000      0.0000000E+00
  -1.070000      0.0000000E+00
  -1.060000      0.0000000E+00
  -1.050000      0.0000000E+00
  -1.040000      0.0000000E+00
  -1.030000      0.0000000E+00
  -1.020000      0.0000000E+00
  -1.010000      0.0000000E+00
  -1.000000      0.0000000E+00
 -0.9900000      0.0000000E+00
 -0.9800000      0.0000000E+00
 -0.9700000      0.0000000E+00
 -0.9600000      0.0000000E+00
 -0.9500000      0.0000000E+00
 -0.9400000      0.0000000E+00
 -0.9300000      0.0000000E+00
 -0.9200000      0.0000000E+00
 -0.9100000      0.0000000E+00
 -0.9000000      0.0000000E+00
 -0.8900000      0.0000000E+00
 -0.8800000      0.0000000E+00
 -0.8700000      0.0000000E+00
 -0.8600000      0.0000000E+00
 -0.8500000      0.0000000E+00
 -0.8400000      0.0000000E+00
 -0.8300000      0.0000000E+00
 -0.8200000      0.0000000E+00
 -0.8100000      0.0000000E+00
 -0.8000000      0.0000000E+00
 -0.7900000      0.0000000E+00
 -0.7800000      0.0000000E+00
 -0.7700000      0.0000000E+00
 -0.7600000      0.0000000E+00
 -0.7500000      0.0000000E+00
 -0.7400000      0.0000000E+00
 -0.7300000      0.0000000E+00
 -0.7200000      0.0000000E+00
 -0.7100000      0.0000000E+00
 -0.7000000      0.0000000E+00
 -0.6900000      0.0000000E+00
 -0.6800000      0.0000000E+00
 -0.6700000      0.0000000E+00
 -0.6600000      0.0000000E+00
 -0.6500000      0.0000000E+00
 -0.6400000      0.0000000E+00
 -0.6300000      0.0000000E+00
 -0.6200000      0.0000000E+00
 -0.6100000      0.0000000E+00
 -0.6000000      0.0000000E+00
 -0.5900000      0.0000000E+00
 -0.5800000      0.0000000E+00
 -0.5700000      0.0000000E+00
 -0.5600000      0.0000000E+00
 -0.5500000      0.0000000E+00
 -0.5400000      0.0000000E+00
 -0.5300000      0.0000000E+00
 -0.5200000      0.0000000E+00
 -0.5100000      0.0000000E+00
 -0.5000000      0.0000000E+00
 -0.4900000      0.0000000E+00
 -0.4800000      0.0000000E+00
 -0.4700000      0.0000000E+00
 -0.4600000      0.0000000E+00
 -0.4500000      0.0000000E+00
 -0.4400000      0.0000000E+00
 -0.4300000      0.0000000E+00
 -0.4200000      0.0000000E+00
 -0.4100000      0.0000000E+00
 -0.4000000      0.0000000E+00
 -0.3900000      0.0000000E+00
 -0.3800000      0.0000000E+00
 -0.3700000      0.0000000E+00
 -0.3600000      0.0000000E+00
 -0.3500000      0.0000000E+00
 -0.3400000      0.0000000E+00
 -0.3300000      0.0000000E+00
 -0.3200000      0.0000000E+00
 -0.3100000      0.0000000E+00
 -0.3000000      0.0000000E+00
 -0.2900000      0.0000000E+00
 -0.2800000      0.0000000E+00
 -0.2700000      0.0000000E+00
 -0.2600000      0.0000000E+00
 -0.2500000      0.0000000E+00
 -0.2400000      0.0000000E+00
 -0.2300000      0.0000000E+00
 -0.2200000      0.0000000E+00
 -0.2100000      0.0000000E+00
 -0.2000000      0.0000000E+00
 -0.1900000      0.0000000E+00
 -0.1800000      0.0000000E+00
 -0.1700000      0.0000000E+00
 -0.1600000      0.0000000E+00
 -0.1500000      0.0000000E+00
 -0.1400000      0.0000000E+00
 -0.1300000      0.0000000E+00
 -0.1200000      0.0000000E+00
 -0.1100000      0.0000000E+00
 -0.1000000      0.0000000E+00
 -9.0000004E-02  0.0000000E+00
 -7.9999998E-02  0.0000000E+00
 -7.0000000E-02  0.0000000E+00
 -5.9999999E-02  0.0000000E+00
 -5.0000001E-02  0.0000000E+00
 -3.9999999E-02  0.0000000E+00
 -2.9999999E-02  0.0000000E+00
 -2.0000000E-02  0.0000000E+00
 -9.9999998E-03  0.0000000E+00
 -3.4694470E-17  0.0000000E+00
  9.9999998E-03  0.0000000E+00
  2.0000000E-02  0.0000000E+00
  2.9999999E-02  0.0000000E+00
  3.9999999E-02  0.0000000E+00
  5.0000001E-02  0.0000000E+00
  5.9999999E-02  0.0000000E+00
  7.0000000E-02  0.0000000E+00
  7.9999998E-02  0.0000000E+00
  9.0000004E-02  0.0000000E+00
  0.1000000      0.0000000E+00
  0.1100000      0.0000000E+00
  0.1200000      0.0000000E+00
  0.1300000      0.0000000E+00
  0.1400000      0.0000000E+00
  0.1500000      0.0000000E+00
  0.1600000      0.0000000E+00
  0.1700000      0.0000000E+00
  0.1800000      0.0000000E+00
  0.1900000      0.0000000E+00
  0.2000000      0.0000000E+00
  0.2100000      0.0000000E+00
  0.2200000      0.0000000E+00
  0.2300000      0.0000000E+00
  0.2400000      0.0000000E+00
  0.2500000      0.0000000E+00
  0.2600000      0.0000000E+00
  0.2700000      0.0000000E+00
  0.2800000      0.0000000E+00
  0.2900000      0.0000000E+00
  0.3000000      0.0000000E+00
  0.3100000      0.0000000E+00
  0.3200000      0.0000000E+00
  0.3300000      0.0000000E+00
  0.3400000      0.0000000E+00
  0.3500000      0.0000000E+00
  0.3600000      0.0000000E+00
  0.3700000      0.0000000E+00
  0.3800000      0.0000000E+00
  0.3900000      0.0000000E+00
  0.4000000      0.0000000E+00
  0.4100000      0.0000000E+00
  0.4200000      0.0000000E+00
  0.4300000      0.0000000E+00
  0.4400000      0.0000000E+00
  0.4500000      0.0000000E+00
  0.4600000      0.0000000E+00
  0.4700000      0.0000000E+00
  0.4800000      0.0000000E+00
  0.4900000      0.0000000E+00
  0.5000000      0.0000000E+00
  0.5100000      0.0000000E+00
  0.5200000      0.0000000E+00
  0.5300000      0.0000000E+00
  0.5400000      0.0000000E+00
  0.5500000      0.0000000E+00
  0.5600000      0.0000000E+00
  0.5700000      0.0000000E+00
  0.5800000      0.0000000E+00
  0.5900000      0.0000000E+00
  0.6000000      0.0000000E+00
  0.6100000      0.0000000E+00
  0.6200000      0.0000000E+00
  0.6300000      0.0000000E+00
  0.6400000      0.0000000E+00
  0.6500000      0.0000000E+00
  0.6600000      0.0000000E+00
  0.6700000      0.0000000E+00
  0.6800000      0.0000000E+00
  0.6900000      0.0000000E+00
  0.7000000      0.0000000E+00
  0.7100000      0.0000000E+00
  0.7200000      0.0000000E+00
  0.7300000      0.0000000E+00
  0.7400000      0.0000000E+00
  0.7500000      0.0000000E+00
  0.7600000      0.0000000E+00
  0.7700000      0.0000000E+00
  0.7800000      0.0000000E+00
  0.7900000      0.0000000E+00
  0.8000000      0.0000000E+00
  0.8100000      0.0000000E+00
  0.8200000      0.0000000E+00
  0.8300000      0.0000000E+00
  0.8400000      0.0000000E+00
  0.8500000      0.0000000E+00
  0.8600000      0.0000000E+00
  0.8700000      0.0000000E+00
  0.8800000      0.0000000E+00
  0.8900000      0.0000000E+00
  0.9000000      0.0000000E+00
  0.9100000      0.0000000E+00
  0.9200000      0.0000000E+00
  0.9300000      0.0000000E+00
  0.9400000      0.0000000E+00
  0.9500000      0.0000000E+00
  0.9600000      0.0000000E+00
  0.9700000      0.0000000E+00
  0.9800000      0.0000000E+00
  0.9900000      0.0000000E+00
   1.000000      0.0000000E+00
   1.010000      0.0000000E+00
   1.020000      0.0000000E+00
   1.030000      0.0000000E+00
   1.040000      0.0000000E+00
   1.050000      0.0000000E+00
   1.060000      0.0000000E+00
   1.070000      0.0000000E+00
   1.080000      0.0000000E+00
   1.090000      0.0000000E+00
   1.100000      0.0000000E+00
   1.110000      0.0000000E+00
   1.120000      0.0000000E+00
   1.130000      0.0000000E+00
   1.140000      0.0000000E+00
   1.150000      0.0000000E+00
   1.160000      0.0000000E+00
   1.170000      0.0000000E+00
   1.180000      0.0000000E+00
   1.190000      0.0000000E+00
   1.200000      0.0000000E+00
   1.210000      0.0000000E+00
   1.220000      0.0000000E+00
   1.230000      0.0000000E+00
   1.240000      0.0000000E+00
   1.250000      0.0000000E+00
   1.260000      0.0000000E+00
   1.270000      0.0000000E+00
   1.280000      0.0000000E+00
   1.290000      0.0000000E+00
   1.300000      0.0000000E+00
   1.310000      0.0000000E+00
   1.320000      0.0000000E+00
   1.330000      0.0000000E+00
   1.340000      0.0000000E+00
   1.350000      0.0000000E+00
   1.360000      0.0000000E+00
   1.370000      0.0000000E+00
   1.380000      0.0000000E+00
   1.390000      0.0000000E+00
   1.400000      0.0000000E+00
   1.410000      0.0000000E+00
   1.420000      0.0000000E+00
   1.430000      0.0000000E+00
   1.440000      0.0000000E+00
   1.450000      0.0000000E+00
   1.460000      0.0000000E+00
   1.470000      0.0000000E+00
   1.480000      0.0000000E+00
   1.490000      0.0000000E+00
   1.500000      0.0000000E+00
   1.510000      0.0000000E+00
   1.520000      0.0000000E+00
   1.530000      0.0000000E+00
   1.540000      0.0000000E+00
   1.550000      0.0000000E+00
   1.560000      0.0000000E+00
   1.570000      0.0000000E+00
   1.580000      0.0000000E+00
   1.590000      0.0000000E+00
   1.600000      0.0000000E+00
   1.610000      0.0000000E+00
   1.620000      0.0000000E+00
   1.630000      0.0000000E+00
   1.640000      0.0000000E+00
   1.650000      0.0000000E+00
   1.660000      0.0000000E+00
   1.670000      0.0000000E+00
   1.680000      0.0000000E+00
   1.690000      0.0000000E+00
   1.700000      0.0000000E+00
   1.710000      0.0000000E+00
   1.720000      0.0000000E+00
   1.730000      0.0000000E+00
   1.740000      0.0000000E+00
   1.750000     -1.2770907E-38
   1.760000     -1.8224488E-38
   1.770000     -2.4290374E-38
   1.780000     -3.1059195E-38
   1.790000     -3.8354441E-38
   1.800000     -4.5652715E-38
   1.810000     -5.3146576E-38
   1.820000     -6.1452605E-38
   1.830000     -7.0716701E-38
   1.840000     -8.0216888E-38
   1.850000     -8.9492632E-38
   1.860000     -9.8896527E-38
   1.870000     -1.0969170E-37
   1.880000     -1.1957298E-37
   1.890000     -1.2675110E-37
   1.900000     -1.3212964E-37
   1.910000     -1.3428588E-37
   1.920000     -1.3318947E-37
   1.930000     -1.2925814E-37
   1.940000     -1.2275008E-37
   1.950000     -1.1376412E-37
   1.960000     -1.0467019E-37
   1.970000     -9.4748684E-38
   1.980000     -5.9160338E-38
   1.990000      0.0000000E+00
   2.000000      7.9103461E-38
   2.010000      1.6096435E-37
   2.020000      2.4944303E-37
   2.030000      3.4608606E-37
   2.040000      4.5233632E-37
   2.050000      5.7307699E-37
   2.060000      7.0856412E-37
   2.070000      8.3647393E-37
   2.080000      9.5416022E-37
   2.090000      1.0665088E-36
   2.100000      1.1558696E-36
   2.110000      1.2267646E-36
   2.120000      1.2891189E-36
   2.130000      1.3274956E-36
   2.140000      1.3355971E-36
   2.150000      1.3112797E-36
   2.160000      1.2642660E-36
   2.170000      1.1868158E-36
   2.180000      1.0703458E-36
   2.190000      9.1630624E-37
   2.200000      7.1043693E-37
   2.210000      4.6701040E-37
   2.220000      2.2105882E-37
   2.230000      0.0000000E+00
   2.240000     -2.2666651E-37
   2.250000     -4.4463658E-37
   2.260000     -6.6525593E-37
   2.270000     -8.5818191E-37
   2.280000     -1.0275574E-36
   2.290000     -1.1959573E-36
   2.300000     -1.3683589E-36
   2.310000     -1.5590301E-36
   2.320000     -1.7590928E-36
   2.330000     -1.9636485E-36
   2.340000     -2.1837807E-36
   2.350000     -2.4140128E-36
   2.360000     -2.6579675E-36
   2.370000     -2.9225953E-36
   2.380000     -3.2284701E-36
   2.390000     -3.5624973E-36
   2.400000     -3.9184194E-36
   2.410000     -4.2875242E-36
   2.420000     -4.6673203E-36
   2.430000     -5.0772746E-36
   2.440000     -5.4825684E-36
   2.450000     -5.8784529E-36
   2.460000     -6.2602686E-36
   2.470000     -6.6004711E-36
   2.480000     -6.7647339E-36
   2.490000     -6.6621078E-36
   2.500000     -6.4013136E-36
   2.510000     -6.0521364E-36
   2.520000     -5.5829991E-36
   2.530000     -4.9803681E-36
   2.540000     -4.2575951E-36
   2.550000     -3.6230205E-36
   2.560000     -3.0246530E-36
   2.570000     -2.3019059E-36
   2.580000     -1.5288573E-36
   2.590000     -6.2044205E-37
   2.600000      4.7603808E-37
   2.610000      1.7282597E-36
   2.620000      3.0838607E-36
   2.630000      4.5724047E-36
   2.640000      6.2562717E-36
   2.650000      8.1631927E-36
   2.660000      1.0091197E-35
   2.670000      1.2037259E-35
   2.680000      1.4035895E-35
   2.690000      1.6090108E-35
   2.700000      1.8159333E-35
   2.710000      2.0197658E-35
   2.720000      2.2113808E-35
   2.730000      2.3997383E-35
   2.740000      2.6195582E-35
   2.750000      2.7903814E-35
   2.760000      2.9707233E-35
   2.770000      3.2189650E-35
   2.780000      3.4428341E-35
   2.790000      3.6558072E-35
   2.800000      3.8346583E-35
   2.810000      3.9371392E-35
   2.820000      3.9980755E-35
   2.830000      4.0137536E-35
   2.840000      4.0177134E-35
   2.850000      4.0327145E-35
   2.860000      4.0106932E-35
   2.870000      3.9509878E-35
   2.880000      3.8504942E-35
   2.890000      3.6930818E-35
   2.900000      3.4920198E-35
   2.910000      3.2702353E-35
   2.920000      3.0141015E-35
   2.930000      2.7078172E-35
   2.940000      2.3097306E-35
   2.950000      1.8452440E-35
   2.960000      1.3722076E-35
   2.970000      8.6419318E-36
   2.980000      2.5751843E-36
   2.990000     -4.9745982E-36
   3.000000     -1.3254244E-35
   3.010000     -2.1513729E-35
   3.020000     -2.9987553E-35
   3.030000     -3.9177502E-35
   3.040000     -4.9572720E-35
   3.050000     -6.1011681E-35
   3.060000     -7.2751041E-35
   3.070000     -8.4840008E-35
   3.080000     -9.7632084E-35
   3.090000     -1.1076214E-34
   3.100000     -1.2398729E-34
   3.110000     -1.3755037E-34
   3.120000     -1.5134370E-34
   3.130000     -1.6495423E-34
   3.140000     -1.7695587E-34
   3.150000     -1.8777878E-34
   3.160000     -1.9814962E-34
   3.170000     -2.0545933E-34
   3.180000     -2.0990663E-34
   3.190000     -2.1548708E-34
   3.200000     -2.2109983E-34
   3.210000     -2.2480165E-34
   3.220000     -2.2843885E-34
   3.230000     -2.3171760E-34
   3.240000     -2.3538159E-34
   3.250000     -2.3944301E-34
   3.260000     -2.4206448E-34
   3.270000     -2.4430152E-34
   3.280000     -2.4601878E-34
   3.290000     -2.4584925E-34
   3.300000     -2.4364214E-34
   3.310000     -2.3836693E-34
   3.320000     -2.2838482E-34
   3.330000     -2.1390953E-34
   3.340000     -1.9526121E-34
   3.350000     -1.7191444E-34
   3.360000     -1.4502383E-34
   3.370000     -1.1500634E-34
   3.380000     -8.0860833E-35
   3.390000     -4.2443006E-35
   3.400000     -2.8119684E-37
   3.410000      4.4530696E-35
   3.420000      9.2461573E-35
   3.430000      1.4485925E-34
   3.440000      2.0253338E-34
   3.450000      2.6377770E-34
   3.460000      3.2630713E-34
   3.470000      3.9067068E-34
   3.480000      4.5599373E-34
   3.490000      5.2078156E-34
   3.500000      5.8325311E-34
   3.510000      6.4645807E-34
   3.520000      7.1340422E-34
   3.530000      7.7897448E-34
   3.540000      8.4331939E-34
   3.550000      9.0746391E-34
   3.560000      9.6899269E-34
   3.570000      1.0300060E-33
   3.580000      1.0900956E-33
   3.590000      1.1496281E-33
   3.600000      1.2088336E-33
   3.610000      1.2652447E-33
   3.620000      1.3175978E-33
   3.630000      1.3656000E-33
   3.640000      1.4106061E-33
   3.650000      1.4537265E-33
   3.660000      1.4957809E-33
   3.670000      1.5335476E-33
   3.680000      1.5623126E-33
   3.690000      1.5824239E-33
   3.700000      1.5942519E-33
   3.710000      1.5953519E-33
   3.720000      1.5848210E-33
   3.730000      1.5613406E-33
   3.740000      1.5259673E-33
   3.750000      1.4819252E-33
   3.760000      1.4266766E-33
   3.770000      1.3536109E-33
   3.780000      1.2587964E-33
   3.790000      1.1473609E-33
   3.800000      1.0183951E-33
   3.810000      8.6911828E-34
   3.820000      7.0125075E-34
   3.830000      5.1172433E-34
   3.840000      3.0211309E-34
   3.850000      7.4957647E-35
   3.860000     -1.6778746E-34
   3.870000     -4.2712841E-34
   3.880000     -7.0553469E-34
   3.890000     -1.0021481E-33
   3.900000     -1.3145893E-33
   3.910000     -1.6422870E-33
   3.920000     -1.9868685E-33
   3.930000     -2.3469410E-33
   3.940000     -2.7204334E-33
   3.950000     -3.1067504E-33
   3.960000     -3.5065680E-33
   3.970000     -3.9178051E-33
   3.980000     -4.3376146E-33
   3.990000     -4.7644476E-33
   4.000000     -5.1965600E-33
   4.010000     -5.6324381E-33
   4.020000     -6.0679757E-33
   4.030000     -6.5007159E-33
   4.040000     -6.9297905E-33
   4.050000     -7.3546641E-33
   4.060000     -7.7693138E-33
   4.070000     -8.1688093E-33
   4.080000     -8.5531680E-33
   4.090000     -8.9179224E-33
   4.100000     -9.2605680E-33
   4.110000     -9.5778574E-33
   4.120000     -9.8646200E-33
   4.130000     -1.0117959E-32
   4.140000     -1.0334239E-32
   4.150000     -1.0509692E-32
   4.160000     -1.0639834E-32
   4.170000     -1.0717274E-32
   4.180000     -1.0738857E-32
   4.190000     -1.0701733E-32
   4.200000     -1.0600574E-32
   4.210000     -1.0430318E-32
   4.220000     -1.0184951E-32
   4.230000     -9.8610245E-33
   4.240000     -9.4530111E-33
   4.250000     -8.9559622E-33
   4.260000     -8.3665730E-33
   4.270000     -7.6810298E-33
   4.280000     -6.8934897E-33
   4.290000     -5.9991270E-33
   4.300000     -4.9957621E-33
   4.310000     -3.8806371E-33
   4.320000     -2.6508042E-33
   4.330000     -1.3035335E-33
   4.340000      1.6224238E-34
   4.350000      1.7479450E-33
   4.360000      3.4526168E-33
   4.370000      5.2751635E-33
   4.380000      7.2178226E-33
   4.390000      9.2782739E-33
   4.400000      1.1454306E-32
   4.410000      1.3745490E-32
   4.420000      1.6145866E-32
   4.430000      1.8651106E-32
   4.440000      2.1256890E-32
   4.450000      2.3956869E-32
   4.460000      2.6744903E-32
   4.470000      2.9613700E-32
   4.480000      3.2554884E-32
   4.490000      3.5559218E-32
   4.500000      3.8616394E-32
   4.510000      4.1715397E-32
   4.520000      4.4843878E-32
   4.530000      4.7988267E-32
   4.540000      5.1134304E-32
   4.550000      5.4266397E-32
   4.560000      5.7367692E-32
   4.570000      6.0420092E-32
   4.580000      6.3404355E-32
   4.590000      6.6300115E-32
   4.600000      6.9085349E-32
   4.610000      7.1737417E-32
   4.620000      7.4232656E-32
   4.630000      7.6545371E-32
   4.640000      7.8649030E-32
   4.650000      8.0516479E-32
   4.660000      8.2119218E-32
   4.670000      8.3427297E-32
   4.680000      8.4410903E-32
   4.690000      8.5039393E-32
   4.700000      8.5280734E-32
   4.710000      8.5102788E-32
   4.720000      8.4472817E-32
   4.730000      8.3357896E-32
   4.740000      8.1725028E-32
   4.750000      7.9541060E-32
   4.760000      7.6773070E-32
   4.770000      7.3388164E-32
   4.780000      6.9353732E-32
   4.790000      6.4638172E-32
   4.800000      5.9210473E-32
   4.810000      5.3040221E-32
   4.820000      4.6098245E-32
   4.830000      3.8356528E-32
   4.840000      2.9788473E-32
   4.850000      2.0369184E-32
   4.860000      1.0075709E-32
   4.870000     -1.1130569E-33
   4.880000     -1.3215883E-32
   4.890000     -2.6248698E-32
   4.900000     -4.0224650E-32
   4.910000     -5.5153754E-32
   4.920000     -7.1042623E-32
   4.930000     -8.7894122E-32
   4.940000     -1.0570699E-31
   4.950000     -1.2447561E-31
   4.960000     -1.4418957E-31
   4.970000     -1.6483360E-31
   4.980000     -1.8638696E-31
   4.990000     -2.0882300E-31
   5.000000     -2.3210914E-31
   5.010000     -2.5620635E-31
   5.020000     -2.8106872E-31
   5.030000     -3.0664334E-31
   5.040000     -3.3286998E-31
   5.050000     -3.5968044E-31
   5.060000     -3.8699858E-31
   5.070000     -4.1473994E-31
   5.080000     -4.4281178E-31
   5.090000     -4.7111195E-31
   5.100000     -4.9952896E-31
   5.110000     -5.2794338E-31
   5.120000     -5.5622597E-31
   5.130000     -5.8423738E-31
   5.140000     -6.1182892E-31
   5.150000     -6.3884197E-31
   5.160000     -6.6510825E-31
   5.170000     -6.9044946E-31
   5.180000     -7.1467738E-31
   5.190000     -7.3759379E-31
   5.200000     -7.5899061E-31
   5.210000     -7.7864981E-31
   5.220000     -7.9634373E-31
   5.230000     -8.1183514E-31
   5.240000     -8.2487749E-31
   5.250000     -8.3521497E-31
   5.260000     -8.4258316E-31
   5.270000     -8.4670943E-31
   5.280000     -8.4731288E-31
   5.290000     -8.4410575E-31
   5.300000     -8.3679343E-31
   5.310000     -8.2507544E-31
   5.320000     -8.0864626E-31
   5.330000     -7.8719603E-31
   5.340000     -7.6041159E-31
   5.350000     -7.2797782E-31
   5.360000     -6.8957889E-31
   5.370000     -6.4489910E-31
   5.380000     -5.9362484E-31
   5.390000     -5.3544567E-31
   5.400000     -4.7005635E-31
   5.410000     -3.9715826E-31
   5.420000     -3.1646123E-31
   5.430000     -2.2768554E-31
   5.440000     -1.3056421E-31
   5.450000     -2.4844875E-32
   5.460000      8.9708104E-32
   5.470000      2.1331089E-31
   5.480000      3.4615826E-31
   5.490000      4.8842072E-31
   5.500000      6.4024198E-31
   5.510000      8.0173652E-31
   5.520000      9.7298639E-31
   5.530000      1.1540385E-30
   5.540000      1.3449022E-30
   5.550000      1.5455455E-30
   5.560000      1.7558925E-30
   5.570000      1.9758202E-30
   5.580000      2.2051550E-30
   5.590000      2.4436698E-30
   5.600000      2.6910807E-30
   5.610000      2.9470430E-30
   5.620000      3.2111481E-30
   5.630000      3.4829209E-30
   5.640000      3.7618151E-30
   5.650000      4.0472116E-30
   5.660000      4.3384134E-30
   5.670000      4.6346425E-30
   5.680000      4.9350386E-30
   5.690000      5.2386543E-30
   5.700000      5.5444525E-30
   5.710000      5.8513043E-30
   5.720000      6.1579853E-30
   5.730000      6.4631749E-30
   5.740000      6.7654534E-30
   5.750000      7.0632992E-30
   5.760000      7.3550911E-30
   5.770000      7.6391018E-30
   5.780000      7.9135002E-30
   5.790000      8.1763520E-30
   5.800000      8.4256185E-30
   5.810000      8.6591556E-30
   5.820000      8.8747160E-30
   5.830000      9.0699527E-30
   5.840000      9.2424159E-30
   5.850000      9.3895592E-30
   5.860000      9.5087457E-30
   5.870000      9.5972429E-30
   5.880000      9.6522358E-30
   5.890000      9.6708255E-30
   5.900000      9.6500398E-30
   5.910000      9.5868369E-30
   5.920000      9.4781129E-30
   5.930000      9.3207080E-30
   5.940000      9.1114203E-30
   5.950000      8.8470135E-30
   5.960000      8.5242246E-30
   5.970000      8.1397789E-30
   5.980000      7.6904015E-30
   5.990000      7.1728267E-30
   6.000000      6.5838216E-30
   6.010000      5.9201962E-30
   6.020000      5.1788192E-30
   6.030000      4.3566352E-30
   6.040000      3.4506879E-30
   6.050000      2.4581364E-30
   6.060000      1.3762768E-30
   6.070000      2.0256351E-31
   6.080000     -1.0653665E-30
   6.090000     -2.4296740E-30
   6.100000     -3.8922864E-30
   6.110000     -5.4548750E-30
   6.120000     -7.1188337E-30
   6.130000     -8.8852454E-30
   6.140000     -1.0754855E-29
   6.150000     -1.2728041E-29
   6.160000     -1.4804787E-29
   6.170000     -1.6984656E-29
   6.180000     -1.9266752E-29
   6.190000     -2.1649697E-29
   6.200000     -2.4131594E-29
   6.210000     -2.6710003E-29
   6.220000     -2.9381900E-29
   6.230000     -3.2143656E-29
   6.240000     -3.4991011E-29
   6.250000     -3.7919018E-29
   6.260000     -4.0922036E-29
   6.270000     -4.3993705E-29
   6.280000     -4.7126892E-29
   6.290000     -5.0313686E-29
   6.300000     -5.3545360E-29
   6.310000     -5.6812345E-29
   6.320000     -6.0104211E-29
   6.330000     -6.3409642E-29
   6.340000     -6.6716416E-29
   6.350000     -7.0011387E-29
   6.360000     -7.3280467E-29
   6.370000     -7.6508620E-29
   6.380000     -7.9679832E-29
   6.390000     -8.2777131E-29
   6.400000     -8.5782569E-29
   6.410000     -8.8677211E-29
   6.420000     -9.1441162E-29
   6.430000     -9.4053565E-29
   6.440000     -9.6492605E-29
   6.450000     -9.8735531E-29
   6.460000     -1.0075869E-28
   6.470000     -1.0253753E-28
   6.480000     -1.0404668E-28
   6.490000     -1.0525994E-28
   6.500000     -1.0615034E-28
   6.510000     -1.0669021E-28
   6.520000     -1.0685121E-28
   6.530000     -1.0660440E-28
   6.540000     -1.0592036E-28
   6.550000     -1.0476919E-28
   6.560000     -1.0312063E-28
   6.570000     -1.0094419E-28
   6.580000     -9.8209180E-29
   6.590000     -9.4884881E-29
   6.600000     -9.0940618E-29
   6.610000     -8.6345903E-29
   6.620000     -8.1070583E-29
   6.630000     -7.5084937E-29
   6.640000     -6.8359860E-29
   6.650000     -6.0866988E-29
   6.660000     -5.2578923E-29
   6.670000     -4.3469310E-29
   6.680000     -3.3513080E-29
   6.690000     -2.2686654E-29
   6.700000     -1.0968106E-29
   6.710000      1.6626390E-30
   6.720000      1.5223576E-29
   6.730000      2.9730418E-29
   6.740000      4.5196364E-29
   6.750000      6.1631865E-29
   6.760000      7.9044420E-29
   6.770000      9.7438291E-29
   6.780000      1.1681428E-28
   6.790000      1.3716953E-28
   6.800000      1.5849722E-28
   6.810000      1.8078632E-28
   6.820000      2.0402134E-28
   6.830000      2.2818216E-28
   6.840000      2.5324361E-28
   6.850000      2.7917537E-28
   6.860000      3.0594165E-28
   6.870000      3.3350108E-28
   6.880000      3.6180626E-28
   6.890000      3.9080369E-28
   6.900000      4.2043344E-28
   6.910000      4.5062914E-28
   6.920000      4.8131743E-28
   6.930000      5.1241827E-28
   6.940000      5.4384415E-28
   6.950000      5.7550051E-28
   6.960000      6.0728524E-28
   6.970000      6.3908860E-28
   6.980000      6.7079326E-28
   6.990000      7.0227413E-28
   7.000000      7.3339826E-28
   7.010000      7.6402483E-28
   7.020000      7.9400516E-28
   7.030000      8.2318281E-28
   7.040000      8.5139325E-28
   7.050000      8.7846460E-28
   7.060000      9.0421718E-28