  -2.600000      0.0000000E+00
  -2.590000      0.0000000E+00
  -2.580000      0.0000000E+00
  -2.570000      0.0000000E+00
  -2.560000      0.0000000E+00
  -2.550000      0.0000000E+00
  -2.540000      0.0000000E+00
  -2.530000      0.0000000E+00
  -2.520000      0.0000000E+00
  -2.510000      0.0000000E+00
  -2.500000      0.0000000E+00
  -2.490000      0.0000000E+00
  -2.480000      0.0000000E+00
  -2.470000      0.0000000E+00
  -2.460000      0.0000000E+00
  -2.450000      0.0000000E+00
  -2.440000      0.0000000E+00
  -2.430000      0.0000000E+00
  -2.420000      0.0000000E+00
  -2.410000      0.0000000E+00
  -2.400000      0.0000000E+00
  -2.390000      0.0000000E+00
  -2.380000      0.0000000E+00
  -2.370000      0.0000000E+00
  -2.360000      0.0000000E+00
  -2.350000      0.0000000E+00
  -2.340000      0.0000000E+00
  -2.330000      0.0000000E+00
  -2.320000      0.0000000E+00
  -2.310000      0.0000000E+00
  -2.300000      0.0000000E+00
  -2.290000      0.0000000E+00
  -2.280000      0.0000000E+00
  -2.270000      0.0000000E+00
  -2.260000      0.0000000E+00
  -2.250000      0.0000000E+00
  -2.240000      0.0000000E+00
  -2.230000      0.0000000E+00
  -2.220000      0.0000000E+00
  -2.210000      0.0000000E+00
  -2.200000      0.0000000E+00
  -2.190000      0.0000000E+00
  -2.180000      0.0000000E+00
  -2.170000      0.0000000E+00
  -2.160000      0.0000000E+00
  -2.150000      0.0000000E+00
  -2.140000      0.0000000E+00
  -2.130000      0.0000000E+00
  -2.120000      0.0000000E+00
  -2.110000      0.0000000E+00
  -2.100000      0.0000000E+00
  -2.090000      0.0000000E+00
  -2.080000      0.0000000E+00
  -2.070000      0.0000000E+00
  -2.060000      0.0000000E+00
  -2.050000      0.0000000E+00
  -2.040000      0.0000000E+00
  -2.030000      0.0000000E+00
  -2.020000      0.0000000E+00
  -2.010000      0.0000000E+00
  -2.000000      0.0000000E+00
  -1.990000      0.0000000E+00
  -1.980000      0.0000000E+00
  -1.970000      0.0000000E+00
  -1.960000      0.0000000E+00
  -1.950000      0.0000000E+00
  -1.940000      0.0000000E+00
  -1.930000      0.0000000E+00
  -1.920000      0.0000000E+00
  -1.910000      0.0000000E+00
  -1.900000      0.0000000E+00
  -1.890000      0.0000000E+00
  -1.880000      0.0000000E+00
  -1.870000      0.0000000E+00
  -1.860000      0.0000000E+00
  -1.850000      0.0000000E+00
  -1.840000      0.0000000E+00
  -1.830000      0.0000000E+00
  -1.820000      0.0000000E+00
  -1.810000      0.0000000E+00
  -1.800000      0.0000000E+00
  -1.790000      0.0000000E+00
  -1.780000      0.0000000E+00
  -1.770000      0.0000000E+00
  -1.760000      0.0000000E+00
  -1.750000      0.0000000E+00
  -1.740000      0.0000000E+00
  -1.730000      0.0000000E+00
  -1.720000      0.0000000E+00
  -1.710000      0.0000000E+00
  -1.700000      0.0000000E+00
  -1.690000      0.0000000E+00
  -1.680000      0.0000000E+00
  -1.670000      0.0000000E+00
  -1.660000      0.0000000E+00
  -1.650000      0.0000000E+00
  -1.640000      0.0000000E+00
  -1.630000      0.0000000E+00
  -1.620000      0.0000000E+00
  -1.610000      0.0000000E+00
  -1.600000      0.0000000E+00
  -1.590000      0.0000000E+00
  -1.580000      0.0000000E+00
  -1.570000      0.0000000E+00
  -1.560000      0.0000000E+00
  -1.550000      0.0000000E+00
  -1.540000      0.0000000E+00
  -1.530000      0.0000000E+00
  -1.520000      0.0000000E+00
  -1.510000      0.0000000E+00
  -1.500000      0.0000000E+00
  -1.490000      0.0000000E+00
  -1.480000      0.0000000E+00
  -1.470000      0.0000000E+00
  -1.460000      0.0000000E+00
  -1.450000      0.0000000E+00
  -1.440000      0.0000000E+00
  -1.430000      0.0000000E+00
  -1.420000      0.0000000E+00
  -1.410000      0.0000000E+00
  -1.400000      0.0000000E+00
  -1.390000      0.0000000E+00
  -1.380000      0.0000000E+00
  -1.370000      0.0000000E+00
  -1.360000      0.0000000E+00
  -1.350000      0.0000000E+00
  -1.340000      0.0000000E+00
  -1.330000      0.0000000E+00
  -1.320000      0.0000000E+00
  -1.310000      0.0000000E+00
  -1.300000      0.0000000E+00
  -1.290000      0.0000000E+00
  -1.280000      0.0000000E+00
  -1.270000      0.0000000E+00
  -1.260000      0.0000000E+00
  -1.250000      0.0000000E+00
  -1.240000      0.0000000E+00
  -1.230000      0.0000000E+00
  -1.220000      0.0000000E+00
  -1.210000      0.0000000E+00
  -1.200000      0.0000000E+00
  -1.190000      0.0000000E+00
  -1.180000      0.0000000E+00
  -1.170000      0.0000000E+00
  -1.160000      0.0000000E+00
  -1.150000      0.0000000E+00
  -1.140000      0.0000000E+00
  -1.130000      0.0000000E+00
  -1.120000      0.0000000E+00
  -1.110000      0.0000000E+00
  -1.100000      0.0000000E+00
  -1.090000      0.0000000E+00
  -1.080000      0.0000000E+00
  -1.070000      0.0000000E+00
  -1.060000      0.0000000E+00
  -1.050000      0.0000000E+00
  -1.040000      0.0000000E+00
  -1.030000      0.0000000E+00
  -1.020000      0.0000000E+00
  -1.010000      0.0000000E+00
  -1.000000      0.0000000E+00
 -0.9900000      0.0000000E+00
 -0.9800000      0.0000000E+00
 -0.9700000      0.0000000E+00
 -0.9600000      0.0000000E+00
 -0.9500000      0.0000000E+00
 -0.9400000      0.0000000E+00
 -0.9300000      0.0000000E+00
 -0.9200000      0.0000000E+00
 -0.9100000      0.0000000E+00
 -0.9000000      0.0000000E+00
 -0.8900000      0.0000000E+00
 -0.8800000      0.0000000E+00
 -0.8700000      0.0000000E+00
 -0.8600000      0.0000000E+00
 -0.8500000      0.0000000E+00
 -0.8400000      0.0000000E+00
 -0.8300000      0.0000000E+00
 -0.8200000      0.0000000E+00
 -0.8100000      0.0000000E+00
 -0.8000000      0.0000000E+00
 -0.7900000      0.0000000E+00
 -0.7800000      0.0000000E+00
 -0.7700000      0.0000000E+00
 -0.7600000      0.0000000E+00
 -0.7500000      0.0000000E+00
 -0.7400000      0.0000000E+00
 -0.7300000      0.0000000E+00
 -0.7200000      0.0000000E+00
 -0.7100000      0.0000000E+00
 -0.7000000      0.0000000E+00
 -0.6900000      0.0000000E+00
 -0.6800000      0.0000000E+00
 -0.6700000      0.0000000E+00
 -0.6600000      0.0000000E+00
 -0.6500000      0.0000000E+00
 -0.6400000      0.0000000E+00
 -0.6300000      0.0000000E+00
 -0.6200000      0.0000000E+00
 -0.6100000      0.0000000E+00
 -0.6000000      0.0000000E+00
 -0.5900000      0.0000000E+00
 -0.5800000      0.0000000E+00
 -0.5700000      0.0000000E+00
 -0.5600000      0.0000000E+00
 -0.5500000      0.0000000E+00
 -0.5400000      0.0000000E+00
 -0.5300000      0.0000000E+00
 -0.5200000      0.0000000E+00
 -0.5100000      0.0000000E+00
 -0.5000000      0.0000000E+00
 -0.4900000      0.0000000E+00
 -0.4800000      0.0000000E+00
 -0.4700000      0.0000000E+00
 -0.4600000      0.0000000E+00
 -0.4500000      0.0000000E+00
 -0.4400000      0.0000000E+00
 -0.4300000      0.0000000E+00
 -0.4200000      0.0000000E+00
 -0.4100000      0.0000000E+00
 -0.4000000      0.0000000E+00
 -0.3900000      0.0000000E+00
 -0.3800000      0.0000000E+00
 -0.3700000      0.0000000E+00
 -0.3600000      0.0000000E+00
 -0.3500000      0.0000000E+00
 -0.3400000      0.0000000E+00
 -0.3300000      0.0000000E+00
 -0.3200000      0.0000000E+00
 -0.3100000      0.0000000E+00
 -0.3000000      0.0000000E+00
 -0.2900000      0.0000000E+00
 -0.2800000      0.0000000E+00
 -0.2700000      0.0000000E+00
 -0.2600000      0.0000000E+00
 -0.2500000      0.0000000E+00
 -0.2400000      0.0000000E+00
 -0.2300000      0.0000000E+00
 -0.2200000      0.0000000E+00
 -0.2100000      0.0000000E+00
 -0.2000000      0.0000000E+00
 -0.1900000      0.0000000E+00
 -0.1800000      0.0000000E+00
 -0.1700000      0.0000000E+00
 -0.1600000      0.0000000E+00
 -0.1500000      0.0000000E+00
 -0.1400000      0.0000000E+00
 -0.1300000      0.0000000E+00
 -0.1200000      0.0000000E+00
 -0.1100000      0.0000000E+00
 -0.1000000      0.0000000E+00
 -9.0000004E-02  0.0000000E+00
 -7.9999998E-02  0.0000000E+00
 -7.0000000E-02  0.0000000E+00
 -5.9999999E-02  0.0000000E+00
 -5.0000001E-02  0.0000000E+00
 -3.9999999E-02  0.0000000E+00
 -2.9999999E-02  0.0000000E+00
 -2.0000000E-02  0.0000000E+00
 -9.9999998E-03  0.0000000E+00
 -3.4694470E-17  0.0000000E+00
  9.9999998E-03  0.0000000E+00
  2.0000000E-02  0.0000000E+00
  2.9999999E-02  0.0000000E+00
  3.9999999E-02  0.0000000E+00
  5.0000001E-02  0.0000000E+00
  5.9999999E-02  0.0000000E+00
  7.0000000E-02  0.0000000E+00
  7.9999998E-02  0.0000000E+00
  9.0000004E-02  0.0000000E+00
  0.1000000      0.0000000E+00
  0.1100000      0.0000000E+00
  0.1200000      0.0000000E+00
  0.1300000      0.0000000E+00
  0.1400000      0.0000000E+00
  0.1500000      0.0000000E+00
  0.1600000      0.0000000E+00
  0.1700000      0.0000000E+00
  0.1800000      0.0000000E+00
  0.1900000      0.0000000E+00
  0.2000000      0.0000000E+00
  0.2100000      0.0000000E+00
  0.2200000      0.0000000E+00
  0.2300000      0.0000000E+00
  0.2400000      0.0000000E+00
  0.2500000      0.0000000E+00
  0.2600000      0.0000000E+00
  0.2700000      0.0000000E+00
  0.2800000      0.0000000E+00
  0.2900000      0.0000000E+00
  0.3000000      0.0000000E+00
  0.3100000      0.0000000E+00
  0.3200000      0.0000000E+00
  0.3300000      0.0000000E+00
  0.3400000      0.0000000E+00
  0.3500000      0.0000000E+00
  0.3600000      0.0000000E+00
  0.3700000      0.0000000E+00
  0.3800000      0.0000000E+00
  0.3900000      0.0000000E+00
  0.4000000      0.0000000E+00
  0.4100000      0.0000000E+00
  0.4200000      0.0000000E+00
  0.4300000      0.0000000E+00
  0.4400000      0.0000000E+00
  0.4500000      0.0000000E+00
  0.4600000      0.0000000E+00
  0.4700000      0.0000000E+00
  0.4800000      0.0000000E+00
  0.4900000      0.0000000E+00
  0.5000000      0.0000000E+00
  0.5100000      0.0000000E+00
  0.5200000      0.0000000E+00
  0.5300000      0.0000000E+00
  0.5400000      0.0000000E+00
  0.5500000      0.0000000E+00
  0.5600000      0.0000000E+00
  0.5700000      0.0000000E+00
  0.5800000      0.0000000E+00
  0.5900000      0.0000000E+00
  0.6000000      0.0000000E+00
  0.6100000      0.0000000E+00
  0.6200000      0.0000000E+00
  0.6300000      0.0000000E+00
  0.6400000      0.0000000E+00
  0.6500000      0.0000000E+00
  0.6600000      0.0000000E+00
  0.6700000      0.0000000E+00
  0.6800000      0.0000000E+00
  0.6900000      0.0000000E+00
  0.7000000      0.0000000E+00
  0.7100000      0.0000000E+00
  0.7200000      0.0000000E+00
  0.7300000      0.0000000E+00
  0.7400000      0.0000000E+00
  0.7500000      0.0000000E+00
  0.7600000      0.0000000E+00
  0.7700000      0.0000000E+00
  0.7800000      0.0000000E+00
  0.7900000      0.0000000E+00
  0.8000000      0.0000000E+00
  0.8100000      0.0000000E+00
  0.8200000      0.0000000E+00
  0.8300000      0.0000000E+00
  0.8400000      0.0000000E+00
  0.8500000      0.0000000E+00
  0.8600000      0.0000000E+00
  0.8700000      0.0000000E+00
  0.8800000      0.0000000E+00
  0.8900000      0.0000000E+00
  0.9000000      0.0000000E+00
  0.9100000      0.0000000E+00
  0.9200000      0.0000000E+00
  0.9300000      0.0000000E+00
  0.9400000      0.0000000E+00
  0.9500000      0.0000000E+00
  0.9600000      0.0000000E+00
  0.9700000      0.0000000E+00
  0.9800000      0.0000000E+00
  0.9900000      0.0000000E+00
   1.000000      0.0000000E+00
   1.010000      0.0000000E+00
   1.020000      0.0000000E+00
   1.030000      0.0000000E+00
   1.040000      0.0000000E+00
   1.050000      0.0000000E+00
   1.060000      0.0000000E+00
   1.070000      0.0000000E+00
   1.080000      0.0000000E+00
   1.090000      0.0000000E+00
   1.100000      0.0000000E+00
   1.110000      0.0000000E+00
   1.120000      0.0000000E+00
   1.130000      0.0000000E+00
   1.140000      0.0000000E+00
   1.150000      0.0000000E+00
   1.160000      0.0000000E+00
   1.170000      0.0000000E+00
   1.180000      0.0000000E+00
   1.190000      0.0000000E+00
   1.200000      0.0000000E+00
   1.210000      0.0000000E+00
   1.220000      0.0000000E+00
   1.230000      0.0000000E+00
   1.240000      0.0000000E+00
   1.250000      0.0000000E+00
   1.260000      0.0000000E+00
   1.270000      0.0000000E+00
   1.280000      0.0000000E+00
   1.290000      0.0000000E+00
   1.300000      0.0000000E+00
   1.310000      0.0000000E+00
   1.320000      0.0000000E+00
   1.330000      0.0000000E+00
   1.340000      0.0000000E+00
   1.350000      0.0000000E+00
   1.360000      0.0000000E+00
   1.370000      0.0000000E+00
   1.380000      0.0000000E+00
   1.390000      0.0000000E+00
   1.400000      0.0000000E+00
   1.410000      0.0000000E+00
   1.420000      0.0000000E+00
   1.430000      0.0000000E+00
   1.440000      0.0000000E+00
   1.450000      0.0000000E+00
   1.460000      0.0000000E+00
   1.470000      0.0000000E+00
   1.480000      0.0000000E+00
   1.490000      0.0000000E+00
   1.500000      0.0000000E+00
   1.510000      0.0000000E+00
   1.520000      0.0000000E+00
   1.530000      0.0000000E+00
   1.540000      0.0000000E+00
   1.550000      0.0000000E+00
   1.560000      0.0000000E+00
   1.570000      0.0000000E+00
   1.580000      0.0000000E+00
   1.590000      0.0000000E+00
   1.600000      0.0000000E+00
   1.610000      0.0000000E+00
   1.620000      0.0000000E+00
   1.630000      0.0000000E+00
   1.640000      0.0000000E+00
   1.650000      0.0000000E+00
   1.660000      0.0000000E+00
   1.670000      0.0000000E+00
   1.680000      0.0000000E+00
   1.690000      1.2013742E-38
   1.700000      1.4452146E-38
   1.710000      1.7059756E-38
   1.720000      2.0113362E-38
   1.730000      2.3132471E-38
   1.740000      2.5719642E-38
   1.750000      2.8330917E-38
   1.760000      3.0734559E-38
   1.770000      3.3104897E-38
   1.780000      3.5451946E-38
   1.790000      3.6637971E-38
   1.800000      3.5357266E-38
   1.810000      3.3020071E-38
   1.820000      3.1214537E-38
   1.830000      2.9383093E-38
   1.840000      2.7404244E-38
   1.850000      2.6299825E-38
   1.860000      3.4695567E-38
   1.870000      6.6843344E-38
   1.880000      1.1332746E-37
   1.890000      1.5708899E-37
   1.900000      1.9663596E-37
   1.910000      2.3185530E-37
   1.920000      2.4200824E-37
   1.930000      2.2670431E-37
   1.940000      2.0653512E-37
   1.950000      1.8478305E-37
   1.960000      1.6216442E-37
   1.970000      1.3592742E-37
   1.980000      9.3654118E-38
   1.990000      3.8349293E-38
   2.000000     -1.6819839E-38
   2.010000     -9.1558930E-38
   2.020000     -1.8716204E-37
   2.030000     -2.8279477E-37
   2.040000     -3.7399293E-37
   2.050000     -4.5411814E-37
   2.060000     -5.2016320E-37
   2.070000     -5.9317901E-37
   2.080000     -6.8089433E-37
   2.090000     -7.3373974E-37
   2.100000     -7.4230215E-37
   2.110000     -7.4071238E-37
   2.120000     -7.2813952E-37
   2.130000     -7.0595650E-37
   2.140000     -6.8690297E-37
   2.150000     -6.8095437E-37
   2.160000     -6.8374334E-37
   2.170000     -6.9244762E-37
   2.180000     -7.1009004E-37
   2.190000     -7.5099755E-37
   2.200000     -7.8539071E-37
   2.210000     -7.8979827E-37
   2.220000     -7.9707498E-37
   2.230000     -7.9424512E-37
   2.240000     -7.6143671E-37
   2.250000     -6.9255000E-37
   2.260000     -5.4860216E-37
   2.270000     -3.3036459E-37
   2.280000     -6.7019347E-38
   2.290000      2.8019023E-37
   2.300000      7.1993200E-37
   2.310000      1.1514831E-36
   2.320000      1.5655538E-36
   2.330000      2.0025404E-36
   2.340000      2.4719361E-36
   2.350000      3.1066374E-36
   2.360000      3.9038487E-36
   2.370000      4.7168766E-36
   2.380000      5.5810085E-36
   2.390000      6.6394768E-36
   2.400000      7.8297071E-36
   2.410000      8.8890526E-36
   2.420000      9.8431136E-36
   2.430000      1.0565775E-35
   2.440000      1.0989213E-35
   2.450000      1.1293895E-35
   2.460000      1.1456578E-35
   2.470000      1.1469514E-35
   2.480000      1.1372511E-35
   2.490000      1.1264721E-35
   2.500000      1.1172305E-35
   2.510000      1.1166466E-35
   2.520000      1.1205328E-35
   2.530000      1.0965053E-35
   2.540000      1.0319679E-35
   2.550000      9.4744859E-36
   2.560000      8.6160866E-36
   2.570000      7.4385511E-36
   2.580000      5.8765903E-36
   2.590000      4.0797313E-36
   2.600000      1.8336331E-36
   2.610000     -8.0442738E-37
   2.620000     -3.6800277E-36
   2.630000     -6.8219668E-36
   2.640000     -1.0060135E-35
   2.650000     -1.3483543E-35
   2.660000     -1.7218774E-35
   2.670000     -2.1143545E-35
   2.680000     -2.5396464E-35
   2.690000     -2.9798524E-35
   2.700000     -3.3962471E-35
   2.710000     -3.7927681E-35
   2.720000     -4.1793422E-35
   2.730000     -4.5762896E-35
   2.740000     -4.9597275E-35
   2.750000     -5.3053452E-35
   2.760000     -5.6434175E-35
   2.770000     -5.9614852E-35
   2.780000     -6.2756848E-35
   2.790000     -6.5816135E-35
   2.800000     -6.8491223E-35
   2.810000     -7.0202887E-35
   2.820000     -7.0824332E-35
   2.830000     -7.0841724E-35
   2.840000     -7.0507816E-35
   2.850000     -6.9953101E-35
   2.860000     -6.8996261E-35
   2.870000     -6.7711488E-35
   2.880000     -6.6153694E-35
   2.890000     -6.4313856E-35
   2.900000     -6.2124561E-35
   2.910000     -5.9647115E-35
   2.920000     -5.6250447E-35
   2.930000     -5.1952792E-35
   2.940000     -4.7103385E-35
   2.950000     -4.1341330E-35
   2.960000     -3.5137449E-35
   2.970000     -2.8127017E-35
   2.980000     -1.9499570E-35
   2.990000     -9.0565856E-36
   3.000000      3.9182217E-36
   3.010000      1.9133847E-35
   3.020000      3.4912065E-35
   3.030000      5.1663137E-35
   3.040000      7.0852032E-35
   3.050000      9.1516087E-35
   3.060000      1.1315468E-34
   3.070000      1.3656543E-34
   3.080000      1.6101982E-34
   3.090000      1.8382186E-34
   3.100000      2.0486066E-34
   3.110000      2.2595979E-34
   3.120000      2.4805080E-34
   3.130000      2.7120813E-34
   3.140000      2.9419820E-34
   3.150000      3.1660829E-34
   3.160000      3.3816247E-34
   3.170000      3.5828126E-34
   3.180000      3.7808660E-34
   3.190000      3.9746990E-34
   3.200000      4.1514424E-34
   3.210000      4.3157742E-34
   3.220000      4.4612233E-34
   3.230000      4.5713203E-34
   3.240000      4.6437776E-34
   3.250000      4.6897128E-34
   3.260000      4.7078898E-34
   3.270000      4.6871666E-34
   3.280000      4.6287974E-34
   3.290000      4.5257639E-34
   3.300000      4.3674143E-34
   3.310000      4.1697429E-34
   3.320000      3.9622512E-34
   3.330000      3.7196322E-34
   3.340000      3.4195774E-34
   3.350000      3.0596387E-34
   3.360000      2.6231124E-34
   3.370000      2.1261979E-34
   3.380000      1.5749043E-34
   3.390000      9.5490681E-35
   3.400000      2.7633978E-35
   3.410000     -4.6673758E-35
   3.420000     -1.2764057E-34
   3.430000     -2.1562412E-34
   3.440000     -3.1285121E-34
   3.450000     -4.1690680E-34
   3.460000     -5.2438711E-34
   3.470000     -6.3562272E-34
   3.480000     -7.4926010E-34
   3.490000     -8.6449491E-34
   3.500000     -9.8685836E-34
   3.510000     -1.1155029E-33
   3.520000     -1.2449188E-33
   3.530000     -1.3740003E-33
   3.540000     -1.5014599E-33
   3.550000     -1.6264671E-33
   3.560000     -1.7510101E-33
   3.570000     -1.8750942E-33
   3.580000     -1.9949188E-33
   3.590000     -2.1100612E-33
   3.600000     -2.2223296E-33
   3.610000     -2.3322061E-33
   3.620000     -2.4377742E-33
   3.630000     -2.5348476E-33
   3.640000     -2.6223582E-33
   3.650000     -2.6989449E-33
   3.660000     -2.7661959E-33
   3.670000     -2.8244231E-33
   3.680000     -2.8690406E-33
   3.690000     -2.8989186E-33
   3.700000     -2.9140547E-33
   3.710000     -2.9156934E-33
   3.720000     -2.8950883E-33
   3.730000     -2.8453223E-33
   3.740000     -2.7674179E-33
   3.750000     -2.6607258E-33
   3.760000     -2.5232297E-33
   3.770000     -2.3489375E-33
   3.780000     -2.1428098E-33
   3.790000     -1.9094227E-33
   3.800000     -1.6414089E-33
   3.810000     -1.3374518E-33
   3.820000     -9.9825947E-34
   3.830000     -6.2322369E-34
   3.840000     -2.1111109E-34
   3.850000      2.3701405E-34
   3.860000      7.1930772E-34
   3.870000      1.2358952E-33
   3.880000      1.7832806E-33
   3.890000      2.3619379E-33
   3.900000      2.9731672E-33
   3.910000      3.6176687E-33
   3.920000      4.2934670E-33
   3.930000      4.9947060E-33
   3.940000      5.7198681E-33
   3.950000      6.4690033E-33
   3.960000      7.2390006E-33
   3.970000      8.0277022E-33
   3.980000      8.8332251E-33
   3.990000      9.6527159E-33
   4.000000      1.0484116E-32
   4.010000      1.1323030E-32
   4.020000      1.2163704E-32
   4.030000      1.3001216E-32
   4.040000      1.3831338E-32
   4.050000      1.4648029E-32
   4.060000      1.5443815E-32
   4.070000      1.6213761E-32
   4.080000      1.6952320E-32
   4.090000      1.7652956E-32
   4.100000      1.8305443E-32
   4.110000      1.8901213E-32
   4.120000      1.9432719E-32
   4.130000      1.9891798E-32
   4.140000      2.0269975E-32
   4.150000      2.0556090E-32
   4.160000      2.0744460E-32
   4.170000      2.0823969E-32
   4.180000      2.0780157E-32
   4.190000      2.0604493E-32
   4.200000      2.0289851E-32
   4.210000      1.9824075E-32
   4.220000      1.9197214E-32
   4.230000      1.8400870E-32
   4.240000      1.7428349E-32
   4.250000      1.6272101E-32
   4.260000      1.4920985E-32
   4.270000      1.3368016E-32
   4.280000      1.1606833E-32
   4.290000      9.6318979E-33
   4.300000      7.4366629E-33
   4.310000      5.0160981E-33
   4.320000      2.3651844E-33
   4.330000     -5.1945619E-34
   4.340000     -3.6401805E-33
   4.350000     -7.0001511E-33
   4.360000     -1.0600911E-32
   4.370000     -1.4440842E-32
   4.380000     -1.8519771E-32
   4.390000     -2.2837366E-32
   4.400000     -2.7389015E-32
   4.410000     -3.2169428E-32
   4.420000     -3.7172376E-32
   4.430000     -4.2389214E-32
   4.440000     -4.7811690E-32
   4.450000     -5.3429733E-32
   4.460000     -5.9228805E-32
   4.470000     -6.5191406E-32
   4.480000     -7.1299921E-32
   4.490000     -7.7535678E-32
   4.500000     -8.3876859E-32
   4.510000     -9.0299636E-32
   4.520000     -9.6778315E-32
   4.530000     -1.0328366E-31
   4.540000     -1.0978203E-31
   4.550000     -1.1623904E-31
   4.560000     -1.2261818E-31
   4.570000     -1.2888106E-31
   4.580000     -1.3498952E-31
   4.590000     -1.4090030E-31
   4.600000     -1.4656574E-31
   4.610000     -1.5193782E-31
   4.620000     -1.5696635E-31
   4.630000     -1.6159918E-31
   4.640000     -1.6578083E-31
   4.650000     -1.6945586E-31
   4.660000     -1.7256842E-31
   4.670000     -1.7505746E-31
   4.680000     -1.7686064E-31
   4.690000     -1.7791574E-31
   4.700000     -1.7815823E-31
   4.710000     -1.7752251E-31
   4.720000     -1.7594216E-31
   4.730000     -1.7335015E-31
   4.740000     -1.6967921E-31
   4.750000     -1.6486138E-31
   4.760000     -1.5882869E-31
   4.770000     -1.5151353E-31
   4.780000     -1.4284857E-31
   4.790000     -1.3276820E-31
   4.800000     -1.2120774E-31
   4.810000     -1.0810350E-31
   4.820000     -9.3394548E-32
   4.830000     -7.7022263E-32
   4.840000     -5.8931017E-32
   4.850000     -3.9068472E-32
   4.860000     -1.7386308E-32
   4.870000      6.1592719E-33
   4.880000      3.1607212E-32
   4.890000      5.8991003E-32
   4.900000      8.8337983E-32
   4.910000      1.1966877E-31
   4.920000      1.5299646E-31
   4.930000      1.8832713E-31
   4.940000      2.2565845E-31
   4.950000      2.6497836E-31
   4.960000      3.0626556E-31
   4.970000      3.4948851E-31
   4.980000      3.9460494E-31
   4.990000      4.4156110E-31
   5.000000      4.9029126E-31
   5.010000      5.4071687E-31
   5.020000      5.9274618E-31
   5.030000      6.4627358E-31
   5.040000      7.0117881E-31
   5.050000      7.5732644E-31
   5.060000      8.1456502E-31
   5.070000      8.7272725E-31
   5.080000      9.3162836E-31
   5.090000      9.9106587E-31
   5.100000      1.0508192E-30
   5.110000      1.1106492E-30
   5.120000      1.1702977E-30
   5.130000      1.2294870E-30
   5.140000      1.2879192E-30
   5.150000      1.3452765E-30
   5.160000      1.4012206E-30
   5.170000      1.4553933E-30
   5.180000      1.5074146E-30
   5.190000      1.5568850E-30
   5.200000      1.6033837E-30
   5.210000      1.6464704E-30
   5.220000      1.6856843E-30
   5.230000      1.7205461E-30
   5.240000      1.7505567E-30
   5.250000      1.7751990E-30
   5.260000      1.7939387E-30
   5.270000      1.8062238E-30
   5.280000      1.8114883E-30
   5.290000      1.8091501E-30
   5.300000      1.7986149E-30
   5.310000      1.7792756E-30
   5.320000      1.7505153E-30
   5.330000      1.7117086E-30
   5.340000      1.6622224E-30
   5.350000      1.6014196E-30
   5.360000      1.5286600E-30
   5.370000      1.4433031E-30
   5.380000      1.3447106E-30
   5.390000      1.2322492E-30
   5.400000      1.1052936E-30
   5.410000      9.6323045E-31
   5.420000      8.0545954E-31
   5.430000      6.3139963E-31
   5.440000      4.4049196E-31
   5.450000      2.3220400E-31
   5.460000      6.0339771E-33
   5.470000     -2.3848458E-31
   5.480000     -5.0177744E-31
   5.490000     -7.8422466E-31
   5.500000     -1.0861560E-30
   5.510000     -1.4078452E-30
   5.520000     -1.7495033E-30
   5.530000     -2.1112731E-30
   5.540000     -2.4932237E-30
   5.550000     -2.8953443E-30
   5.560000     -3.3175373E-30
   5.570000     -3.7596139E-30
   5.580000     -4.2212841E-30
   5.590000     -4.7021542E-30
   5.600000     -5.2017182E-30
   5.610000     -5.7193514E-30
   5.620000     -6.2543044E-30
   5.630000     -6.8056970E-30
   5.640000     -7.3725125E-30
   5.650000     -7.9535881E-30
   5.660000     -8.5476141E-30
   5.670000     -9.1531212E-30
   5.680000     -9.7684807E-30
   5.690000     -1.0391895E-29
   5.700000     -1.1021393E-29
   5.710000     -1.1654826E-29
   5.720000     -1.2289859E-29
   5.730000     -1.2923968E-29
   5.740000     -1.3554439E-29
   5.750000     -1.4178356E-29
   5.760000     -1.4792607E-29
   5.770000     -1.5393871E-29
   5.780000     -1.5978624E-29
   5.790000     -1.6543132E-29
   5.800000     -1.7083456E-29
   5.810000     -1.7595445E-29
   5.820000     -1.8074741E-29
   5.830000     -1.8516780E-29
   5.840000     -1.8916795E-29
   5.850000     -1.9269823E-29
   5.860000     -1.9570704E-29
   5.870000     -1.9814097E-29
   5.880000     -1.9994478E-29
   5.890000     -2.0106158E-29
   5.900000     -2.0143288E-29
   5.910000     -2.0099878E-29
   5.920000     -1.9969807E-29
   5.930000     -1.9746838E-29
   5.940000     -1.9424636E-29
   5.950000     -1.8996792E-29
   5.960000     -1.8456831E-29
   5.970000     -1.7798251E-29
   5.980000     -1.7014535E-29
   5.990000     -1.6099178E-29
   6.000000     -1.5045718E-29
   6.010000     -1.3847763E-29
   6.020000     -1.2499027E-29
   6.030000     -1.0993353E-29
   6.040000     -9.3247539E-30
   6.050000     -7.4874536E-30
   6.060000     -5.4759101E-30
   6.070000     -3.2848725E-30
   6.080000     -9.0941904E-31
   6.090000      1.6550054E-30
   6.100000      4.4125376E-30
   6.110000      7.3668491E-30
   6.120000      1.0521094E-29
   6.130000      1.3877861E-29
   6.140000      1.7439111E-29
   6.150000      2.1206135E-29
   6.160000      2.5179495E-29
   6.170000      2.9358960E-29
   6.180000      3.3743445E-29
   6.190000      3.8330959E-29
   6.200000      4.3118535E-29
   6.210000      4.8102186E-29
   6.220000      5.3276819E-29
   6.230000      5.8636201E-29
   6.240000      6.4172876E-29
   6.250000      6.9878107E-29
   6.260000      7.5741835E-29
   6.270000      8.1752615E-29
   6.280000      8.7897529E-29
   6.290000      9.4162188E-29
   6.300000      1.0053062E-28
   6.310000      1.0698529E-28
   6.320000      1.1350696E-28
   6.330000      1.2007473E-28
   6.340000      1.2666598E-28
   6.350000      1.3325632E-28
   6.360000      1.3981952E-28
   6.370000      1.4632756E-28
   6.380000      1.5275056E-28
   6.390000      1.5905680E-28
   6.400000      1.6521266E-28
   6.410000      1.7118265E-28
   6.420000      1.7692938E-28
   6.430000      1.8241367E-28
   6.440000      1.8759444E-28
   6.450000      1.9242876E-28
   6.460000      1.9687200E-28
   6.470000      2.0087772E-28
   6.480000      2.0439786E-28
   6.490000      2.0738269E-28
   6.500000      2.0978098E-28
   6.510000      2.1154003E-28
   6.520000      2.1260581E-28
   6.530000      2.1292306E-28
   6.540000      2.1243547E-28
   6.550000      2.1108565E-28
   6.560000      2.0881558E-28
   6.570000      2.0556647E-28
   6.580000      2.0127917E-28
   6.590000      1.9589427E-28
   6.600000      1.8935234E-28
   6.610000      1.8159419E-28
   6.620000      1.7256110E-28
   6.630000      1.6219507E-28
   6.640000      1.5043909E-28
   6.650000      1.3723749E-28
   6.660000      1.2253617E-28
   6.670000      1.0628301E-28
   6.680000      8.8428141E-29
   6.690000      6.8924338E-29
   6.700000      4.7727358E-29
   6.710000      2.4796309E-29
   6.720000      9.4093027E-32
   6.730000     -2.6412164E-29
   6.740000     -5.4750812E-29
   6.750000     -8.4945199E-29
   6.760000     -1.1701318E-28
   6.770000     -1.5096671E-28
   6.780000     -1.8681140E-28
   6.790000     -2.2454603E-28
   6.800000     -2.6416216E-28
   6.810000     -3.0564352E-28
   6.820000     -3.4896558E-28
   6.830000     -3.9409527E-28
   6.840000     -4.4099019E-28
   6.850000     -4.8959821E-28
   6.860000     -5.3985709E-28
   6.870000     -5.9169407E-28
   6.880000     -6.4502543E-28
   6.890000     -6.9975564E-28
   6.900000     -7.5577743E-28
   6.910000     -8.1297124E-28
   6.920000     -8.7120471E-28
   6.930000     -9.3033230E-28
   6.940000     -9.9019502E-28
   6.950000     -1.0506202E-27
   6.960000     -1.1114211E-27
   6.970000     -1.1723969E-27
   6.980000     -1.2333316E-27
   6.990000     -1.2939955E-27
   7.000000     -1.3541433E-27
   7.010000     -1.4135153E-27
   7.020000     -1.4718368E-27
   7.030000     -1.5288183E-27
   7.040000     -1.5841557E-27
   7.050000     -1.6375296E-27
   7.060000     -1.6886074E-27