  -2.600000      0.0000000E+00
  -2.590000      0.0000000E+00
  -2.580000      0.0000000E+00
  -2.570000      0.0000000E+00
  -2.560000      0.0000000E+00
  -2.550000      0.0000000E+00
  -2.540000      0.0000000E+00
  -2.530000      0.0000000E+00
  -2.520000      0.0000000E+00
  -2.510000      0.0000000E+00
  -2.500000      0.0000000E+00
  -2.490000      0.0000000E+00
  -2.480000      0.0000000E+00
  -2.470000      0.0000000E+00
  -2.460000      0.0000000E+00
  -2.450000      0.0000000E+00
  -2.440000      0.0000000E+00
  -2.430000      0.0000000E+00
  -2.420000      0.0000000E+00
  -2.410000      0.0000000E+00
  -2.400000      0.0000000E+00
  -2.390000      0.0000000E+00
  -2.380000      0.0000000E+00
  -2.370000      0.0000000E+00
  -2.360000      0.0000000E+00
  -2.350000      0.0000000E+00
  -2.340000      0.0000000E+00
  -2.330000      0.0000000E+00
  -2.320000      0.0000000E+00
  -2.310000      0.0000000E+00
  -2.300000      0.0000000E+00
  -2.290000      0.0000000E+00
  -2.280000      0.0000000E+00
  -2.270000      0.0000000E+00
  -2.260000      0.0000000E+00
  -2.250000      0.0000000E+00
  -2.240000      0.0000000E+00
  -2.230000      0.0000000E+00
  -2.220000      0.0000000E+00
  -2.210000      0.0000000E+00
  -2.200000      0.0000000E+00
  -2.190000      0.0000000E+00
  -2.180000      0.0000000E+00
  -2.170000      0.0000000E+00
  -2.160000      0.0000000E+00
  -2.150000      0.0000000E+00
  -2.140000      0.0000000E+00
  -2.130000      0.0000000E+00
  -2.120000      0.0000000E+00
  -2.110000      0.0000000E+00
  -2.100000      0.0000000E+00
  -2.090000      0.0000000E+00
  -2.080000      0.0000000E+00
  -2.070000      0.0000000E+00
  -2.060000      0.0000000E+00
  -2.050000      0.0000000E+00
  -2.040000      0.0000000E+00
  -2.030000      0.0000000E+00
  -2.020000      0.0000000E+00
  -2.010000      0.0000000E+00
  -2.000000      0.0000000E+00
  -1.990000      0.0000000E+00
  -1.980000      0.0000000E+00
  -1.970000      0.0000000E+00
  -1.960000      0.0000000E+00
  -1.950000      0.0000000E+00
  -1.940000      0.0000000E+00
  -1.930000      0.0000000E+00
  -1.920000      0.0000000E+00
  -1.910000      0.0000000E+00
  -1.900000      0.0000000E+00
  -1.890000      0.0000000E+00
  -1.880000      0.0000000E+00
  -1.870000      0.0000000E+00
  -1.860000      0.0000000E+00
  -1.850000      0.0000000E+00
  -1.840000      0.0000000E+00
  -1.830000      0.0000000E+00
  -1.820000      0.0000000E+00
  -1.810000      0.0000000E+00
  -1.800000      0.0000000E+00
  -1.790000      0.0000000E+00
  -1.780000      0.0000000E+00
  -1.770000      0.0000000E+00
  -1.760000      0.0000000E+00
  -1.750000      0.0000000E+00
  -1.740000      0.0000000E+00
  -1.730000      0.0000000E+00
  -1.720000      0.0000000E+00
  -1.710000      0.0000000E+00
  -1.700000      0.0000000E+00
  -1.690000      0.0000000E+00
  -1.680000      0.0000000E+00
  -1.670000      0.0000000E+00
  -1.660000      0.0000000E+00
  -1.650000      0.0000000E+00
  -1.640000      0.0000000E+00
  -1.630000      0.0000000E+00
  -1.620000      0.0000000E+00
  -1.610000      0.0000000E+00
  -1.600000      0.0000000E+00
  -1.590000      0.0000000E+00
  -1.580000      0.0000000E+00
  -1.570000      0.0000000E+00
  -1.560000      0.0000000E+00
  -1.550000      0.0000000E+00
  -1.540000      0.0000000E+00
  -1.530000      0.0000000E+00
  -1.520000      0.0000000E+00
  -1.510000      0.0000000E+00
  -1.500000      0.0000000E+00
  -1.490000      0.0000000E+00
  -1.480000      0.0000000E+00
  -1.470000      0.0000000E+00
  -1.460000      0.0000000E+00
  -1.450000      0.0000000E+00
  -1.440000      0.0000000E+00
  -1.430000      0.0000000E+00
  -1.420000      0.0000000E+00
  -1.410000      0.0000000E+00
  -1.400000      0.0000000E+00
  -1.390000      0.0000000E+00
  -1.380000      0.0000000E+00
  -1.370000      0.0000000E+00
  -1.360000      0.0000000E+00
  -1.350000      0.0000000E+00
  -1.340000      0.0000000E+00
  -1.330000      0.0000000E+00
  -1.320000      0.0000000E+00
  -1.310000      0.0000000E+00
  -1.300000      0.0000000E+00
  -1.290000      0.0000000E+00
  -1.280000      0.0000000E+00
  -1.270000      0.0000000E+00
  -1.260000      0.0000000E+00
  -1.250000      0.0000000E+00
  -1.240000      0.0000000E+00
  -1.230000      0.0000000E+00
  -1.220000      0.0000000E+00
  -1.210000      0.0000000E+00
  -1.200000      0.0000000E+00
  -1.190000      0.0000000E+00
  -1.180000      0.0000000E+00
  -1.170000      0.0000000E+00
  -1.160000      0.0000000E+00
  -1.150000      0.0000000E+00
  -1.140000      0.0000000E+00
  -1.130000      0.0000000E+00
  -1.120000      0.0000000E+00
  -1.110000      0.0000000E+00
  -1.100000      0.0000000E+00
  -1.090000      0.0000000E+00
  -1.080000      0.0000000E+00
  -1.070000      0.0000000E+00
  -1.060000      0.0000000E+00
  -1.050000      0.0000000E+00
  -1.040000      0.0000000E+00
  -1.030000      0.0000000E+00
  -1.020000      0.0000000E+00
  -1.010000      0.0000000E+00
  -1.000000      0.0000000E+00
 -0.9900000      0.0000000E+00
 -0.9800000      0.0000000E+00
 -0.9700000      0.0000000E+00
 -0.9600000      0.0000000E+00
 -0.9500000      0.0000000E+00
 -0.9400000      0.0000000E+00
 -0.9300000      0.0000000E+00
 -0.9200000      0.0000000E+00
 -0.9100000      0.0000000E+00
 -0.9000000      0.0000000E+00
 -0.8900000      0.0000000E+00
 -0.8800000      0.0000000E+00
 -0.8700000      0.0000000E+00
 -0.8600000      0.0000000E+00
 -0.8500000      0.0000000E+00
 -0.8400000      0.0000000E+00
 -0.8300000      0.0000000E+00
 -0.8200000      0.0000000E+00
 -0.8100000      0.0000000E+00
 -0.8000000      0.0000000E+00
 -0.7900000      0.0000000E+00
 -0.7800000      0.0000000E+00
 -0.7700000      0.0000000E+00
 -0.7600000      0.0000000E+00
 -0.7500000      0.0000000E+00
 -0.7400000      0.0000000E+00
 -0.7300000      0.0000000E+00
 -0.7200000      0.0000000E+00
 -0.7100000      0.0000000E+00
 -0.7000000      0.0000000E+00
 -0.6900000      0.0000000E+00
 -0.6800000      0.0000000E+00
 -0.6700000      0.0000000E+00
 -0.6600000      0.0000000E+00
 -0.6500000      0.0000000E+00
 -0.6400000      0.0000000E+00
 -0.6300000      0.0000000E+00
 -0.6200000      0.0000000E+00
 -0.6100000      1.6221001E-38
 -0.6000000      2.0911794E-38
 -0.5900000      2.4784275E-38
 -0.5800000      2.9161674E-38
 -0.5700000      3.2562715E-38
 -0.5600000      3.3537775E-38
 -0.5500000      3.2864468E-38
 -0.5400000      3.0045271E-38
 -0.5300000      2.3705825E-38
 -0.5200000      1.4624064E-38
 -0.5100000      0.0000000E+00
 -0.5000000     -1.3722322E-38
 -0.4900000     -3.3540785E-38
 -0.4800000     -5.3584599E-38
 -0.4700000     -7.3887094E-38
 -0.4600000     -9.4324124E-38
 -0.4500000     -1.1341448E-37
 -0.4400000     -1.3755328E-37
 -0.4300000     -1.7207642E-37
 -0.4200000     -2.1530904E-37
 -0.4100000     -2.5947808E-37
 -0.4000000     -2.9947371E-37
 -0.3900000     -3.3570609E-37
 -0.3800000     -3.2473556E-37
 -0.3700000     -2.1729733E-37
 -0.3600000      1.5284807E-38
 -0.3500000      3.2070522E-37
 -0.3400000      6.6486222E-37
 -0.3300000      1.1335226E-36
 -0.3200000      1.8189432E-36
 -0.3100000      2.7328204E-36
 -0.3000000      3.8131741E-36
 -0.2900000      4.8422507E-36
 -0.2800000      5.6433529E-36
 -0.2700000      6.1711861E-36
 -0.2600000      6.3282197E-36
 -0.2500000      6.0715159E-36
 -0.2400000      5.2476295E-36
 -0.2300000      3.8761643E-36
 -0.2200000      1.9900973E-36
 -0.2100000     -5.6579576E-37
 -0.2000000     -3.7651086E-36
 -0.1900000     -7.6168217E-36
 -0.1800000     -1.2018030E-35
 -0.1700000     -1.6682948E-35
 -0.1600000     -2.1415335E-35
 -0.1500000     -2.5950022E-35
 -0.1400000     -2.9937043E-35
 -0.1300000     -3.3226679E-35
 -0.1200000     -3.5650485E-35
 -0.1100000     -3.8109883E-35
 -0.1000000     -3.9665272E-35
 -9.0000004E-02 -3.8887586E-35
 -7.9999998E-02 -3.6022594E-35
 -7.0000000E-02 -3.1088723E-35
 -5.9999999E-02 -2.4570240E-35
 -5.0000001E-02 -9.7940498E-36
 -3.9999999E-02  1.8107618E-35
 -2.9999999E-02  5.4621279E-35
 -2.0000000E-02  9.8568978E-35
 -9.9999998E-03  1.4924152E-34
 -3.4694470E-17  2.0350367E-34
  9.9999998E-03  2.5730295E-34
  2.0000000E-02  3.0611172E-34
  2.9999999E-02  3.5124067E-34
  3.9999999E-02  3.8716188E-34
  5.0000001E-02  4.0982756E-34
  5.9999999E-02  4.1286948E-34
  7.0000000E-02  3.8229638E-34
  7.9999998E-02  3.1458995E-34
  9.0000004E-02  2.1163079E-34
  0.1000000      7.0509331E-35
  0.1100000     -1.1185496E-34
  0.1200000     -3.3259612E-34
  0.1300000     -5.8832303E-34
  0.1400000     -8.7271630E-34
  0.1500000     -1.1770344E-33
  0.1600000     -1.4902435E-33
  0.1700000     -1.7991953E-33
  0.1800000     -2.0827282E-33
  0.1900000     -2.3173585E-33
  0.2000000     -2.4803875E-33
  0.2100000     -2.5433440E-33
  0.2200000     -2.4747830E-33
  0.2300000     -2.2403161E-33
  0.2400000     -1.8023868E-33
  0.2500000     -1.1207088E-33
  0.2600000     -1.5269613E-34
  0.2700000      1.1466153E-33
  0.2800000      2.8243175E-33
  0.2900000      4.9293929E-33
  0.3000000      7.5125991E-33
  0.3100000      1.0627015E-32
  0.3200000      1.4327135E-32
  0.3300000      1.8669248E-32
  0.3400000      2.3712181E-32
  0.3500000      2.9516575E-32
  0.3600000      3.6145385E-32
  0.3700000      4.3663858E-32
  0.3800000      5.2139528E-32
  0.3900000      6.1642072E-32
  0.4000000      7.2242979E-32
  0.4100000      8.4015062E-32
  0.4200000      9.7031681E-32
  0.4300000      1.1136571E-31
  0.4400000      1.2708825E-31
  0.4500000      1.4426700E-31
  0.4600000      1.6296434E-31
  0.4700000      1.8323522E-31
  0.4800000      2.0512482E-31
  0.4900000      2.2866605E-31
  0.5000000      2.5387711E-31
  0.5100000      2.8075918E-31
  0.5200000      3.0929415E-31
  0.5300000      3.3944294E-31
  0.5400000      3.7114438E-31
  0.5500000      4.0431453E-31
  0.5600000      4.3884716E-31
  0.5700000      4.7461525E-31
  0.5800000      5.1147311E-31
  0.5900000      5.4926041E-31
  0.6000000      5.8780684E-31
  0.6100000      6.2693806E-31
  0.6200000      6.6648315E-31
  0.6300000      7.0628233E-31
  0.6400000      7.4619591E-31
  0.6500000      7.8611373E-31
  0.6600000      8.2596430E-31
  0.6700000      8.6572394E-31
  0.6800000      9.0542584E-31
  0.6900000      9.4516667E-31
  0.7000000      9.8511326E-31
  0.7100000      1.0255065E-30
  0.7200000      1.0666634E-30
  0.7300000      1.1089762E-30
  0.7400000      1.1529101E-30
  0.7500000      1.1989969E-30
  0.7600000      1.2478270E-30
  0.7700000      1.3000392E-30
  0.7800000      1.3563079E-30
  0.7900000      1.4173296E-30
  0.8000000      1.4838079E-30
  0.8100000      1.5564393E-30
  0.8200000      1.6358988E-30
  0.8300000      1.7228282E-30
  0.8400000      1.8178253E-30
  0.8500000      1.9214371E-30
  0.8600000      2.0341584E-30
  0.8700000      2.1564307E-30
  0.8800000      2.2886497E-30
  0.8900000      2.4311753E-30
  0.9000000      2.5843456E-30
  0.9100000      2.7484969E-30
  0.9200000      2.9239846E-30
  0.9300000      3.1112070E-30
  0.9400000      3.3106303E-30
  0.9500000      3.5228114E-30
  0.9600000      3.7484201E-30
  0.9700000      3.9882552E-30
  0.9800000      4.2432570E-30
  0.9900000      4.5145122E-30
   1.000000      4.8032493E-30
   1.010000      5.1108264E-30
   1.020000      5.4387096E-30
   1.030000      5.7884415E-30
   1.040000      6.1616021E-30
   1.050000      6.5597618E-30
   1.060000      6.9844316E-30
   1.070000      7.4370063E-30
   1.080000      7.9187122E-30
   1.090000      8.4305567E-30
   1.100000      8.9732845E-30
   1.110000      9.5473425E-30
   1.120000      1.0152865E-29
   1.130000      1.0789663E-29
   1.140000      1.1457245E-29
   1.150000      1.2154851E-29
   1.160000      1.2881501E-29
   1.170000      1.3636076E-29
   1.180000      1.4417405E-29
   1.190000      1.5224368E-29
   1.200000      1.6056010E-29
   1.210000      1.6911663E-29
   1.220000      1.7791049E-29
   1.230000      1.8694400E-29
   1.240000      1.9622533E-29
   1.250000      2.0576920E-29
   1.260000      2.1559723E-29
   1.270000      2.2573798E-29
   1.280000      2.3622638E-29
   1.290000      2.4710312E-29
   1.300000      2.5841325E-29
   1.310000      2.7020472E-29
   1.320000      2.8252622E-29
   1.330000      2.9542507E-29
   1.340000      3.0894480E-29
   1.350000      3.2312263E-29
   1.360000      3.3798713E-29
   1.370000      3.5355596E-29
   1.380000      3.6983404E-29
   1.390000      3.8681223E-29
   1.400000      4.0446653E-29
   1.410000      4.2275802E-29
   1.420000      4.4163361E-29
   1.430000      4.6102755E-29
   1.440000      4.8086369E-29
   1.450000      5.0105848E-29
   1.460000      5.2152456E-29
   1.470000      5.4217504E-29
   1.480000      5.6292742E-29
   1.490000      5.8370838E-29
   1.500000      6.0445757E-29
   1.510000      6.2513122E-29
   1.520000      6.4570515E-29
   1.530000      6.6617628E-29
   1.540000      6.8656339E-29
   1.550000      7.0690621E-29
   1.560000      7.2726292E-29
   1.570000      7.4770625E-29
   1.580000      7.6831827E-29
   1.590000      7.8918350E-29
   1.600000      8.1038107E-29
   1.610000      8.3197664E-29
   1.620000      8.5401325E-29
   1.630000      8.7650257E-29
   1.640000      8.9941735E-29
   1.650000      9.2268421E-29
   1.660000      9.4617887E-29
   1.670000      9.6972288E-29
   1.680000      9.9308357E-29
   1.690000      1.0159762E-28
   1.700000      1.0380696E-28
   1.710000      1.0589946E-28
   1.720000      1.0783547E-28
   1.730000      1.0957403E-28
   1.740000      1.1107445E-28
   1.750000      1.1229792E-28
   1.760000      1.1320932E-28
   1.770000      1.1377886E-28
   1.780000      1.1398365E-28
   1.790000      1.1380904E-28
   1.800000      1.1324954E-28
   1.810000      1.1230949E-28
   1.820000      1.1100304E-28
   1.830000      1.0935386E-28
   1.840000      1.0739405E-28
   1.850000      1.0516272E-28
   1.860000      1.0270395E-28
   1.870000      1.0006437E-28
   1.880000      9.7290440E-29
   1.890000      9.4425516E-29
   1.900000      9.1506866E-29
   1.910000      8.8562799E-29
   1.920000      8.5610120E-29
   1.930000      8.2651994E-29
   1.940000      7.9676504E-29
   1.950000      7.6655912E-29
   1.960000      7.3546811E-29
   1.970000      7.0291201E-29
   1.980000      6.6818484E-29
   1.990000      6.3048386E-29
   2.000000      5.8894709E-29
   2.010000      5.4269757E-29
   2.020000      4.9089168E-29
   2.030000      4.3277075E-29
   2.040000      3.6771158E-29
   2.050000      2.9527407E-29
   2.060000      2.1524220E-29
   2.070000      1.2765562E-29
   2.080000      3.2829372E-30
   2.090000     -6.8640369E-30
   2.100000     -1.7588627E-29
   2.110000     -2.8779632E-29
   2.120000     -4.0305651E-29
   2.130000     -5.2020897E-29
   2.140000     -6.3772343E-29
   2.150000     -7.5407903E-29
   2.160000     -8.6785286E-29
   2.170000     -9.7781088E-29
   2.180000     -1.0829955E-28
   2.190000     -1.1828067E-28
   2.200000     -1.2770680E-28
   2.210000     -1.3660758E-28
   2.220000     -1.4506256E-28
   2.230000     -1.5320141E-28
   2.240000     -1.6120117E-28
   2.250000     -1.6928077E-28
   2.260000     -1.7769262E-28
   2.270000     -1.8671194E-28
   2.280000     -1.9662365E-28
   2.290000     -2.0770781E-28
   2.300000     -2.2022426E-28
   2.310000     -2.3439709E-28
   2.320000     -2.5040000E-28
   2.330000     -2.6834307E-28
   2.340000     -2.8826246E-28
   2.350000     -3.1011312E-28
   2.360000     -3.3376587E-28
   2.370000     -3.5900851E-28
   2.380000     -3.8555220E-28
   2.390000     -4.1304235E-28
   2.400000     -4.4107416E-28
   2.410000     -4.6921239E-28
   2.420000     -4.9701410E-28
   2.430000     -5.2405382E-28
   2.440000     -5.4994963E-28
   2.450000     -5.7438891E-28
   2.460000     -5.9715215E-28
   2.470000     -6.1813347E-28
   2.480000     -6.3735580E-28
   2.490000     -6.5498099E-28
   2.500000     -6.7131201E-28
   2.510000     -6.8678782E-28
   2.520000     -7.0196949E-28
   2.530000     -7.1751945E-28
   2.540000     -7.3417249E-28
   2.550000     -7.5270051E-28
   2.560000     -7.7387269E-28
   2.570000     -7.9841246E-28
   2.580000     -8.2695358E-28
   2.590000     -8.5999802E-28
   2.600000     -8.9787682E-28
   2.610000     -9.4071913E-28
   2.620000     -9.8842827E-28
   2.630000     -1.0406691E-27
   2.640000     -1.0968675E-27
   2.650000     -1.1562219E-27
   2.660000     -1.2177302E-27
   2.670000     -1.2802271E-27
   2.680000     -1.3424335E-27
   2.690000     -1.4030171E-27
   2.700000     -1.4606575E-27
   2.710000     -1.5141166E-27
   2.720000     -1.5623080E-27
   2.730000     -1.6043637E-27
   2.740000     -1.6396917E-27
   2.750000     -1.6680225E-27
   2.760000     -1.6894406E-27
   2.770000     -1.7043972E-27
   2.780000     -1.7137036E-27
   2.790000     -1.7185031E-27
   2.800000     -1.7202225E-27
   2.810000     -1.7205033E-27
   2.820000     -1.7211154E-27
   2.830000     -1.7238577E-27
   2.840000     -1.7304504E-27
   2.850000     -1.7424214E-27
   2.860000     -1.7609983E-27
   2.870000     -1.7870065E-27
   2.880000     -1.8207855E-27
   2.890000     -1.8621243E-27
   2.900000     -1.9102230E-27
   2.910000     -1.9636876E-27
   2.920000     -2.0205538E-27
   2.930000     -2.0783492E-27
   2.940000     -2.1341852E-27
   2.950000     -2.1848814E-27
   2.960000     -2.2271155E-27
   2.970000     -2.2575922E-27
   2.980000     -2.2732238E-27
   2.990000     -2.2713139E-27
   3.000000     -2.2497327E-27
   3.010000     -2.2070753E-27
   3.020000     -2.1427931E-27
   3.030000     -2.0572888E-27
   3.040000     -1.9519679E-27
   3.050000     -1.8292400E-27
   3.060000     -1.6924689E-27
   3.070000     -1.5458705E-27
   3.080000     -1.3943582E-27
   3.090000     -1.2433471E-27
   3.100000     -1.0985190E-27
   3.110000     -9.6556296E-28
   3.120000     -8.4990451E-28
   3.130000     -7.5643701E-28
   3.140000     -6.8927059E-28
   3.150000     -6.5151557E-28
   3.160000     -6.4511493E-28
   3.170000     -6.7073770E-28
   3.180000     -7.2774364E-28
   3.190000     -8.1422964E-28
   3.200000     -9.2715616E-28
   3.210000     -1.0625547E-27
   3.220000     -1.2158133E-27
   3.230000     -1.3820243E-27
   3.240000     -1.5563829E-27
   3.250000     -1.7346163E-27
   3.260000     -1.9134258E-27
   3.270000     -2.0909120E-27
   3.280000     -2.2669640E-27
   3.290000     -2.4435860E-27
   3.300000     -2.6251405E-27
   3.310000     -2.8184885E-27
   3.320000     -3.0330134E-27
   3.330000     -3.2805162E-27
   3.340000     -3.5749863E-27
   3.350000     -3.9322444E-27
   3.360000     -4.3694747E-27
   3.370000     -4.9046610E-27
   3.380000     -5.5559562E-27
   3.390000     -6.3410096E-27
   3.400000     -7.2762889E-27
   3.410000     -8.3764325E-27
   3.420000     -9.6536738E-27
   3.430000     -1.1117357E-26
   3.440000     -1.2773602E-26
   3.450000     -1.4625118E-26
   3.460000     -1.6671207E-26
   3.470000     -1.8907939E-26
   3.480000     -2.1328536E-26
   3.490000     -2.3923914E-26
   3.500000     -2.6683399E-26
   3.510000     -2.9595550E-26
   3.520000     -3.2649073E-26
   3.530000     -3.5833779E-26
   3.540000     -3.9141497E-26
   3.550000     -4.2566941E-26
   3.560000     -4.6108433E-26
   3.570000     -4.9768452E-26
   3.580000     -5.3553943E-26
   3.590000     -5.7476381E-26
   3.600000     -6.1551538E-26
   3.610000     -6.5798993E-26
   3.620000     -7.0241272E-26
   3.630000     -7.4902830E-26
   3.640000     -7.9808694E-26
   3.650000     -8.4983049E-26
   3.660000     -9.0447617E-26
   3.670000     -9.6220052E-26
   3.680000     -1.0231236E-25
   3.690000     -1.0872951E-25
   3.700000     -1.1546816E-25
   3.710000     -1.2251571E-25
   3.720000     -1.2984976E-25
   3.730000     -1.3743792E-25
   3.740000     -1.4523799E-25
   3.750000     -1.5319862E-25
   3.760000     -1.6126041E-25
   3.770000     -1.6935734E-25
   3.780000     -1.7741850E-25
   3.790000     -1.8537006E-25
   3.800000     -1.9313733E-25
   3.810000     -2.0064688E-25
   3.820000     -2.0782846E-25
   3.830000     -2.1461681E-25
   3.840000     -2.2095296E-25
   3.850000     -2.2678518E-25
   3.860000     -2.3206942E-25
   3.870000     -2.3676896E-25
   3.880000     -2.4085373E-25
   3.890000     -2.4429881E-25
   3.900000     -2.4708235E-25
   3.910000     -2.4918307E-25
   3.920000     -2.5057740E-25
   3.930000     -2.5123620E-25
   3.940000     -2.5112149E-25
   3.950000     -2.5018334E-25
   3.960000     -2.4835671E-25
   3.970000     -2.4555909E-25
   3.980000     -2.4168849E-25
   3.990000     -2.3662223E-25
   4.000000     -2.3021663E-25
   4.010000     -2.2230761E-25
   4.020000     -2.1271213E-25
   4.030000     -2.0123074E-25
   4.040000     -1.8765076E-25
   4.050000     -1.7175045E-25
   4.060000     -1.5330357E-25
   4.070000     -1.3208432E-25
   4.080000     -1.0787251E-25
   4.090000     -8.0458506E-26
   4.100000     -4.9647784E-26
   4.110000     -1.5265047E-26
   4.120000      2.2842840E-26
   4.130000      6.4804609E-26
   4.140000      1.1072375E-25
   4.150000      1.6067889E-25
   4.160000      2.1472535E-25
   4.170000      2.7289793E-25
   4.180000      3.3521478E-25
   4.190000      4.0168223E-25
   4.200000      4.7230010E-25
   4.210000      5.4706730E-25
   4.220000      6.2598731E-25
   4.230000      7.0907364E-25
   4.240000      7.9635390E-25
   4.250000      8.8787301E-25
   4.260000      9.8369495E-25
   4.270000      1.0839028E-24
   4.280000      1.1885969E-24
   4.290000      1.2978913E-24
   4.300000      1.4119071E-24
   4.310000      1.5307659E-24
   4.320000      1.6545799E-24
   4.330000      1.7834421E-24
   4.340000      1.9174140E-24
   4.350000      2.0565148E-24
   4.360000      2.2007091E-24
   4.370000      2.3498963E-24
   4.380000      2.5039005E-24
   4.390000      2.6624620E-24
   4.400000      2.8252318E-24
   4.410000      2.9917672E-24
   4.420000      3.1615311E-24
   4.430000      3.3338930E-24
   4.440000      3.5081327E-24
   4.450000      3.6834491E-24
   4.460000      3.8589659E-24
   4.470000      4.0337432E-24
   4.480000      4.2067877E-24
   4.490000      4.3770661E-24
   4.500000      4.5435146E-24
   4.510000      4.7050496E-24
   4.520000      4.8605755E-24
   4.530000      5.0089914E-24
   4.540000      5.1491937E-24
   4.550000      5.2800744E-24
   4.560000      5.4005193E-24
   4.570000      5.5093986E-24
   4.580000      5.6055580E-24
   4.590000      5.6878019E-24
   4.600000      5.7548799E-24
   4.610000      5.8054672E-24
   4.620000      5.8381466E-24
   4.630000      5.8513900E-24
   4.640000      5.8435400E-24
   4.650000      5.8127965E-24
   4.660000      5.7572043E-24
   4.670000      5.6746453E-24
   4.680000      5.5628381E-24
   4.690000      5.4193376E-24
   4.700000      5.2415472E-24
   4.710000      5.0267302E-24
   4.720000      4.7720326E-24
   4.730000      4.4745050E-24
   4.740000      4.1311324E-24
   4.750000      3.7388670E-24
   4.760000      3.2946608E-24
   4.770000      2.7954994E-24
   4.780000      2.2384348E-24
   4.790000      1.6206158E-24
   4.800000      9.3931551E-25
   4.810000      1.9195270E-25
   4.820000     -6.2389096E-25
   4.830000     -1.5104606E-24
   4.840000     -2.4698245E-24
   4.850000     -3.5038780E-24
   4.860000     -4.6143480E-24
   4.870000     -5.8028091E-24
   4.880000     -7.0706991E-24
   4.890000     -8.4193342E-24
   4.900000     -9.8499318E-24
   4.910000     -1.1363623E-23
   4.920000     -1.2961470E-23
   4.930000     -1.4644467E-23
   4.940000     -1.6413546E-23
   4.950000     -1.8269563E-23
   4.960000     -2.0213283E-23
   4.970000     -2.2245347E-23
   4.980000     -2.4366239E-23
   4.990000     -2.6576225E-23
   5.000000     -2.8875300E-23
   5.010000     -3.1263122E-23
   5.020000     -3.3738937E-23
   5.030000     -3.6301495E-23
   5.040000     -3.8948979E-23
   5.050000     -4.1678933E-23
   5.060000     -4.4488180E-23
   5.070000     -4.7372748E-23
   5.080000     -5.0327836E-23
   5.090000     -5.3347754E-23
   5.100000     -5.6425883E-23
   5.110000     -5.9554675E-23
   5.120000     -6.2725637E-23
   5.130000     -6.5929322E-23
   5.140000     -6.9155378E-23
   5.150000     -7.2392541E-23
   5.160000     -7.5628713E-23
   5.170000     -7.8850964E-23
   5.180000     -8.2045586E-23
   5.190000     -8.5198139E-23
   5.200000     -8.8293490E-23
   5.210000     -9.1315812E-23
   5.220000     -9.4248639E-23
   5.230000     -9.7074812E-23
   5.240000     -9.9776516E-23
   5.250000     -1.0233521E-22
   5.260000     -1.0473162E-22
   5.270000     -1.0694562E-22
   5.280000     -1.0895627E-22
   5.290000     -1.1074162E-22
   5.300000     -1.1227869E-22
   5.310000     -1.1354339E-22
   5.320000     -1.1451042E-22
   5.330000     -1.1515322E-22
   5.340000     -1.1544392E-22
   5.350000     -1.1535333E-22
   5.360000     -1.1485085E-22
   5.370000     -1.1390464E-22
   5.380000     -1.1248153E-22
   5.390000     -1.1054719E-22
   5.400000     -1.0806618E-22
   5.410000     -1.0500211E-22
   5.420000     -1.0131788E-22
   5.430000     -9.6975757E-23
   5.440000     -9.1937624E-23
   5.450000     -8.6165219E-23
   5.460000     -7.9620350E-23
   5.470000     -7.2265093E-23
   5.480000     -6.4062018E-23
   5.490000     -5.4974379E-23
   5.500000     -4.4966331E-23
   5.510000     -3.4003089E-23
   5.520000     -2.2051064E-23
   5.530000     -9.0779604E-24
   5.540000      4.9470844E-24
   5.550000      2.0053437E-23
   5.560000      3.6268896E-23
   5.570000      5.3619627E-23
   5.580000      7.2130122E-23
   5.590000      9.1823100E-23
   5.600000      1.1271948E-22
   5.610000      1.3483821E-22
   5.620000      1.5819622E-22
   5.630000      1.8280819E-22
   5.640000      2.0868637E-22
   5.650000      2.3584028E-22
   5.660000      2.6427643E-22
   5.670000      2.9399796E-22
   5.680000      3.2500431E-22
   5.690000      3.5729055E-22
   5.700000      3.9084718E-22
   5.710000      4.2565950E-22
   5.720000      4.6170703E-22
   5.730000      4.9896308E-22
   5.740000      5.3739426E-22
   5.750000      5.7695984E-22
   5.760000      6.1761134E-22
   5.770000      6.5929228E-22
   5.780000      7.0193752E-22
   5.790000      7.4547310E-22
   5.800000      7.8981592E-22
   5.810000      8.3487363E-22
   5.820000      8.8054447E-22
   5.830000      9.2671683E-22
   5.840000      9.7326978E-22
   5.850000      1.0200728E-21
   5.860000      1.0669857E-21
   5.870000      1.1138588E-21
   5.880000      1.1605327E-21
   5.890000      1.2068385E-21
   5.900000      1.2525982E-21
   5.910000      1.2976239E-21
   5.920000      1.3417184E-21
   5.930000      1.3846747E-21
   5.940000      1.4262760E-21
   5.950000      1.4662955E-21
   5.960000      1.5044962E-21
   5.970000      1.5406310E-21
   5.980000      1.5744417E-21
   5.990000      1.6056595E-21
   6.000000      1.6340045E-21
   6.010000      1.6591859E-21
   6.020000      1.6809008E-21
   6.030000      1.6988357E-21
   6.040000      1.7126653E-21
   6.050000      1.7220541E-21
   6.060000      1.7266555E-21
   6.070000      1.7261131E-21
   6.080000      1.7200611E-21
   6.090000      1.7081253E-21
   6.100000      1.6899237E-21
   6.110000      1.6650680E-21
   6.120000      1.6331647E-21
   6.130000      1.5938164E-21
   6.140000      1.5466232E-21
   6.150000      1.4911845E-21
   6.160000      1.4271000E-21
   6.170000      1.3539720E-21
   6.180000      1.2714065E-21
   6.190000      1.1790146E-21
   6.200000      1.0764144E-21
   6.210000      9.6323254E-22
   6.220000      8.3910521E-22
   6.230000      7.0367983E-22
   6.240000      5.5661672E-22
   6.250000      3.9759034E-22
   6.260000      2.2629057E-22
   6.270000      4.2424334E-23
   6.280000     -1.5428289E-22
   6.290000     -3.6408564E-22
   6.300000     -5.8721645E-22
   6.310000     -8.2388431E-22
   6.320000     -1.0742724E-21
   6.330000     -1.3385365E-21
   6.340000     -1.6168011E-21
   6.350000     -1.9091589E-21
   6.360000     -2.2156659E-21
   6.370000     -2.5363401E-21
   6.380000     -2.8711568E-21
   6.390000     -3.2200463E-21
   6.400000     -3.5828904E-21
   6.410000     -3.9595193E-21
   6.420000     -4.3497070E-21
   6.430000     -4.7531684E-21
   6.440000     -5.1695557E-21
   6.450000     -5.5984561E-21
   6.460000     -6.0393858E-21
   6.470000     -6.4917914E-21
   6.480000     -6.9550420E-21
   6.490000     -7.4284309E-21
   6.500000     -7.9111707E-21
   6.510000     -8.4023932E-21
   6.520000     -8.9011452E-21
   6.530000     -9.4063902E-21
   6.540000     -9.9170045E-21
   6.550000     -1.0431776E-20
   6.560000     -1.0949403E-20
   6.570000     -1.1468498E-20
   6.580000     -1.1987581E-20
   6.590000     -1.2505078E-20
   6.600000     -1.3019331E-20
   6.610000     -1.3528583E-20
   6.620000     -1.4030985E-20
   6.630000     -1.4524598E-20
   6.640000     -1.5007391E-20
   6.650000     -1.5477231E-20
   6.660000     -1.5931899E-20
   6.670000     -1.6369074E-20
   6.680000     -1.6786343E-20
   6.690000     -1.7181202E-20
   6.700000     -1.7551054E-20
   6.710000     -1.7893206E-20
   6.720000     -1.8204877E-20
   6.730000     -1.8483196E-20
   6.740000     -1.8725211E-20
   6.750000     -1.8927886E-20
   6.760000     -1.9088107E-20
   6.770000     -1.9202691E-20
   6.780000     -1.9268386E-20
   6.790000     -1.9281882E-20
   6.800000     -1.9239819E-20
   6.810000     -1.9138798E-20
   6.820000     -1.8975379E-20
   6.830000     -1.8746105E-20
   6.840000     -1.8447496E-20
   6.850000     -1.8076077E-20
   6.860000     -1.7628379E-20
   6.870000     -1.7100953E-20
   6.880000     -1.6490379E-20
   6.890000     -1.5793285E-20
   6.900000     -1.5006355E-20
   6.910000     -1.4126345E-20
   6.920000     -1.3150088E-20
   6.930000     -1.2074519E-20
   6.940000     -1.0896676E-20
   6.950000     -9.6137241E-21
   6.960000     -8.2229677E-21
   6.970000     -6.7218599E-21
   6.980000     -5.1080208E-21
   6.990000     -3.3792521E-21
   7.000000     -1.5335544E-21
   7.010000      4.3085553E-22
   7.020000      2.5155271E-21
   7.030000      4.7217586E-21
   7.040000      7.0505814E-21
   7.050000      9.5027317E-21
   7.060000      1.2078635E-20