  -2.600000      0.0000000E+00
  -2.590000      0.0000000E+00
  -2.580000      0.0000000E+00
  -2.570000      0.0000000E+00
  -2.560000      0.0000000E+00
  -2.550000      0.0000000E+00
  -2.540000      0.0000000E+00
  -2.530000      0.0000000E+00
  -2.520000      0.0000000E+00
  -2.510000      0.0000000E+00
  -2.500000      0.0000000E+00
  -2.490000      0.0000000E+00
  -2.480000      0.0000000E+00
  -2.470000      0.0000000E+00
  -2.460000      0.0000000E+00
  -2.450000      0.0000000E+00
  -2.440000      0.0000000E+00
  -2.430000      0.0000000E+00
  -2.420000      0.0000000E+00
  -2.410000      0.0000000E+00
  -2.400000      0.0000000E+00
  -2.390000      0.0000000E+00
  -2.380000      0.0000000E+00
  -2.370000      0.0000000E+00
  -2.360000      0.0000000E+00
  -2.350000      0.0000000E+00
  -2.340000      0.0000000E+00
  -2.330000      0.0000000E+00
  -2.320000      0.0000000E+00
  -2.310000      0.0000000E+00
  -2.300000      0.0000000E+00
  -2.290000      0.0000000E+00
  -2.280000      0.0000000E+00
  -2.270000      0.0000000E+00
  -2.260000      0.0000000E+00
  -2.250000      0.0000000E+00
  -2.240000      0.0000000E+00
  -2.230000      0.0000000E+00
  -2.220000      0.0000000E+00
  -2.210000      0.0000000E+00
  -2.200000      0.0000000E+00
  -2.190000      0.0000000E+00
  -2.180000      0.0000000E+00
  -2.170000      0.0000000E+00
  -2.160000      0.0000000E+00
  -2.150000      0.0000000E+00
  -2.140000      0.0000000E+00
  -2.130000      0.0000000E+00
  -2.120000      0.0000000E+00
  -2.110000      0.0000000E+00
  -2.100000      0.0000000E+00
  -2.090000      0.0000000E+00
  -2.080000      0.0000000E+00
  -2.070000      0.0000000E+00
  -2.060000      0.0000000E+00
  -2.050000      0.0000000E+00
  -2.040000      0.0000000E+00
  -2.030000      0.0000000E+00
  -2.020000      0.0000000E+00
  -2.010000      0.0000000E+00
  -2.000000      0.0000000E+00
  -1.990000      0.0000000E+00
  -1.980000      0.0000000E+00
  -1.970000      0.0000000E+00
  -1.960000      0.0000000E+00
  -1.950000      0.0000000E+00
  -1.940000      0.0000000E+00
  -1.930000      0.0000000E+00
  -1.920000      0.0000000E+00
  -1.910000      0.0000000E+00
  -1.900000      0.0000000E+00
  -1.890000      0.0000000E+00
  -1.880000      0.0000000E+00
  -1.870000      0.0000000E+00
  -1.860000      0.0000000E+00
  -1.850000      0.0000000E+00
  -1.840000      0.0000000E+00
  -1.830000      0.0000000E+00
  -1.820000      0.0000000E+00
  -1.810000      0.0000000E+00
  -1.800000      0.0000000E+00
  -1.790000      0.0000000E+00
  -1.780000      0.0000000E+00
  -1.770000      0.0000000E+00
  -1.760000      0.0000000E+00
  -1.750000      0.0000000E+00
  -1.740000      0.0000000E+00
  -1.730000      0.0000000E+00
  -1.720000      0.0000000E+00
  -1.710000      0.0000000E+00
  -1.700000      0.0000000E+00
  -1.690000      0.0000000E+00
  -1.680000      0.0000000E+00
  -1.670000      0.0000000E+00
  -1.660000      0.0000000E+00
  -1.650000      0.0000000E+00
  -1.640000      0.0000000E+00
  -1.630000      0.0000000E+00
  -1.620000      0.0000000E+00
  -1.610000      0.0000000E+00
  -1.600000      0.0000000E+00
  -1.590000      0.0000000E+00
  -1.580000      0.0000000E+00
  -1.570000      0.0000000E+00
  -1.560000      0.0000000E+00
  -1.550000      0.0000000E+00
  -1.540000      0.0000000E+00
  -1.530000      0.0000000E+00
  -1.520000      0.0000000E+00
  -1.510000      0.0000000E+00
  -1.500000      0.0000000E+00
  -1.490000      0.0000000E+00
  -1.480000      0.0000000E+00
  -1.470000      0.0000000E+00
  -1.460000      0.0000000E+00
  -1.450000      0.0000000E+00
  -1.440000      0.0000000E+00
  -1.430000      0.0000000E+00
  -1.420000      0.0000000E+00
  -1.410000      0.0000000E+00
  -1.400000      0.0000000E+00
  -1.390000      0.0000000E+00
  -1.380000      0.0000000E+00
  -1.370000      0.0000000E+00
  -1.360000      0.0000000E+00
  -1.350000      0.0000000E+00
  -1.340000      0.0000000E+00
  -1.330000      0.0000000E+00
  -1.320000      0.0000000E+00
  -1.310000      0.0000000E+00
  -1.300000      0.0000000E+00
  -1.290000      0.0000000E+00
  -1.280000      0.0000000E+00
  -1.270000      0.0000000E+00
  -1.260000      0.0000000E+00
  -1.250000      0.0000000E+00
  -1.240000      0.0000000E+00
  -1.230000      0.0000000E+00
  -1.220000      0.0000000E+00
  -1.210000      0.0000000E+00
  -1.200000      0.0000000E+00
  -1.190000      0.0000000E+00
  -1.180000      0.0000000E+00
  -1.170000      0.0000000E+00
  -1.160000      0.0000000E+00
  -1.150000      0.0000000E+00
  -1.140000      0.0000000E+00
  -1.130000      0.0000000E+00
  -1.120000      0.0000000E+00
  -1.110000      0.0000000E+00
  -1.100000      0.0000000E+00
  -1.090000      0.0000000E+00
  -1.080000      0.0000000E+00
  -1.070000      0.0000000E+00
  -1.060000      0.0000000E+00
  -1.050000      0.0000000E+00
  -1.040000      0.0000000E+00
  -1.030000      0.0000000E+00
  -1.020000      0.0000000E+00
  -1.010000      0.0000000E+00
  -1.000000      0.0000000E+00
 -0.9900000      0.0000000E+00
 -0.9800000      0.0000000E+00
 -0.9700000      0.0000000E+00
 -0.9600000      0.0000000E+00
 -0.9500000      0.0000000E+00
 -0.9400000      0.0000000E+00
 -0.9300000      0.0000000E+00
 -0.9200000      0.0000000E+00
 -0.9100000      0.0000000E+00
 -0.9000000      0.0000000E+00
 -0.8900000      0.0000000E+00
 -0.8800000      0.0000000E+00
 -0.8700000      0.0000000E+00
 -0.8600000      0.0000000E+00
 -0.8500000      0.0000000E+00
 -0.8400000      0.0000000E+00
 -0.8300000      0.0000000E+00
 -0.8200000      0.0000000E+00
 -0.8100000      0.0000000E+00
 -0.8000000      0.0000000E+00
 -0.7900000      0.0000000E+00
 -0.7800000      0.0000000E+00
 -0.7700000      0.0000000E+00
 -0.7600000      0.0000000E+00
 -0.7500000      0.0000000E+00
 -0.7400000      0.0000000E+00
 -0.7300000      0.0000000E+00
 -0.7200000      0.0000000E+00
 -0.7100000      0.0000000E+00
 -0.7000000      0.0000000E+00
 -0.6900000      0.0000000E+00
 -0.6800000      0.0000000E+00
 -0.6700000      0.0000000E+00
 -0.6600000      0.0000000E+00
 -0.6500000      0.0000000E+00
 -0.6400000      0.0000000E+00
 -0.6300000      0.0000000E+00
 -0.6200000      0.0000000E+00
 -0.6100000      0.0000000E+00
 -0.6000000      0.0000000E+00
 -0.5900000      0.0000000E+00
 -0.5800000      0.0000000E+00
 -0.5700000      0.0000000E+00
 -0.5600000      0.0000000E+00
 -0.5500000      0.0000000E+00
 -0.5400000      0.0000000E+00
 -0.5300000      0.0000000E+00
 -0.5200000      0.0000000E+00
 -0.5100000      0.0000000E+00
 -0.5000000      0.0000000E+00
 -0.4900000      0.0000000E+00
 -0.4800000      0.0000000E+00
 -0.4700000      0.0000000E+00
 -0.4600000      0.0000000E+00
 -0.4500000      0.0000000E+00
 -0.4400000      0.0000000E+00
 -0.4300000      0.0000000E+00
 -0.4200000      0.0000000E+00
 -0.4100000      0.0000000E+00
 -0.4000000      0.0000000E+00
 -0.3900000      0.0000000E+00
 -0.3800000      0.0000000E+00
 -0.3700000      0.0000000E+00
 -0.3600000      0.0000000E+00
 -0.3500000      0.0000000E+00
 -0.3400000      0.0000000E+00
 -0.3300000      0.0000000E+00
 -0.3200000      0.0000000E+00
 -0.3100000      0.0000000E+00
 -0.3000000      0.0000000E+00
 -0.2900000      0.0000000E+00
 -0.2800000      0.0000000E+00
 -0.2700000      0.0000000E+00
 -0.2600000      0.0000000E+00
 -0.2500000      0.0000000E+00
 -0.2400000      0.0000000E+00
 -0.2300000      0.0000000E+00
 -0.2200000      0.0000000E+00
 -0.2100000      0.0000000E+00
 -0.2000000      0.0000000E+00
 -0.1900000      0.0000000E+00
 -0.1800000      0.0000000E+00
 -0.1700000      0.0000000E+00
 -0.1600000      0.0000000E+00
 -0.1500000      0.0000000E+00
 -0.1400000      0.0000000E+00
 -0.1300000      0.0000000E+00
 -0.1200000      0.0000000E+00
 -0.1100000      0.0000000E+00
 -0.1000000      0.0000000E+00
 -9.0000004E-02  0.0000000E+00
 -7.9999998E-02  0.0000000E+00
 -7.0000000E-02  0.0000000E+00
 -5.9999999E-02  0.0000000E+00
 -5.0000001E-02  0.0000000E+00
 -3.9999999E-02  0.0000000E+00
 -2.9999999E-02  0.0000000E+00
 -2.0000000E-02  0.0000000E+00
 -9.9999998E-03  0.0000000E+00
 -3.4694470E-17  0.0000000E+00
  9.9999998E-03  0.0000000E+00
  2.0000000E-02  0.0000000E+00
  2.9999999E-02  0.0000000E+00
  3.9999999E-02  0.0000000E+00
  5.0000001E-02  0.0000000E+00
  5.9999999E-02  0.0000000E+00
  7.0000000E-02  0.0000000E+00
  7.9999998E-02  0.0000000E+00
  9.0000004E-02  0.0000000E+00
  0.1000000      0.0000000E+00
  0.1100000      0.0000000E+00
  0.1200000      0.0000000E+00
  0.1300000      0.0000000E+00
  0.1400000      0.0000000E+00
  0.1500000      0.0000000E+00
  0.1600000      0.0000000E+00
  0.1700000      0.0000000E+00
  0.1800000      0.0000000E+00
  0.1900000      0.0000000E+00
  0.2000000      0.0000000E+00
  0.2100000      0.0000000E+00
  0.2200000      0.0000000E+00
  0.2300000      0.0000000E+00
  0.2400000      0.0000000E+00
  0.2500000      0.0000000E+00
  0.2600000      0.0000000E+00
  0.2700000      0.0000000E+00
  0.2800000      0.0000000E+00
  0.2900000      0.0000000E+00
  0.3000000      0.0000000E+00
  0.3100000      0.0000000E+00
  0.3200000      0.0000000E+00
  0.3300000      0.0000000E+00
  0.3400000      0.0000000E+00
  0.3500000      0.0000000E+00
  0.3600000      0.0000000E+00
  0.3700000      0.0000000E+00
  0.3800000      0.0000000E+00
  0.3900000      0.0000000E+00
  0.4000000      0.0000000E+00
  0.4100000      0.0000000E+00
  0.4200000      0.0000000E+00
  0.4300000      0.0000000E+00
  0.4400000      0.0000000E+00
  0.4500000      0.0000000E+00
  0.4600000      0.0000000E+00
  0.4700000      0.0000000E+00
  0.4800000      0.0000000E+00
  0.4900000      0.0000000E+00
  0.5000000      0.0000000E+00
  0.5100000      0.0000000E+00
  0.5200000      0.0000000E+00
  0.5300000      0.0000000E+00
  0.5400000      0.0000000E+00
  0.5500000      0.0000000E+00
  0.5600000      0.0000000E+00
  0.5700000      0.0000000E+00
  0.5800000      0.0000000E+00
  0.5900000      0.0000000E+00
  0.6000000      0.0000000E+00
  0.6100000      0.0000000E+00
  0.6200000      0.0000000E+00
  0.6300000      0.0000000E+00
  0.6400000      0.0000000E+00
  0.6500000      0.0000000E+00
  0.6600000      0.0000000E+00
  0.6700000      0.0000000E+00
  0.6800000      0.0000000E+00
  0.6900000      0.0000000E+00
  0.7000000      0.0000000E+00
  0.7100000      0.0000000E+00
  0.7200000      0.0000000E+00
  0.7300000      0.0000000E+00
  0.7400000      0.0000000E+00
  0.7500000      0.0000000E+00
  0.7600000      0.0000000E+00
  0.7700000      0.0000000E+00
  0.7800000      0.0000000E+00
  0.7900000      0.0000000E+00
  0.8000000      0.0000000E+00
  0.8100000      0.0000000E+00
  0.8200000      0.0000000E+00
  0.8300000      0.0000000E+00
  0.8400000      0.0000000E+00
  0.8500000      0.0000000E+00
  0.8600000      0.0000000E+00
  0.8700000      0.0000000E+00
  0.8800000      0.0000000E+00
  0.8900000      0.0000000E+00
  0.9000000      0.0000000E+00
  0.9100000      0.0000000E+00
  0.9200000      0.0000000E+00
  0.9300000      0.0000000E+00
  0.9400000      0.0000000E+00
  0.9500000      0.0000000E+00
  0.9600000      0.0000000E+00
  0.9700000      0.0000000E+00
  0.9800000      0.0000000E+00
  0.9900000      0.0000000E+00
   1.000000      0.0000000E+00
   1.010000      0.0000000E+00
   1.020000      0.0000000E+00
   1.030000      0.0000000E+00
   1.040000      0.0000000E+00
   1.050000      0.0000000E+00
   1.060000      0.0000000E+00
   1.070000      0.0000000E+00
   1.080000      0.0000000E+00
   1.090000      0.0000000E+00
   1.100000      0.0000000E+00
   1.110000      0.0000000E+00
   1.120000      0.0000000E+00
   1.130000      0.0000000E+00
   1.140000      0.0000000E+00
   1.150000      0.0000000E+00
   1.160000      0.0000000E+00
   1.170000      0.0000000E+00
   1.180000      0.0000000E+00
   1.190000      0.0000000E+00
   1.200000      0.0000000E+00
   1.210000      0.0000000E+00
   1.220000      0.0000000E+00
   1.230000      0.0000000E+00
   1.240000      0.0000000E+00
   1.250000      0.0000000E+00
   1.260000      0.0000000E+00
   1.270000      0.0000000E+00
   1.280000      0.0000000E+00
   1.290000      0.0000000E+00
   1.300000      0.0000000E+00
   1.310000      0.0000000E+00
   1.320000      0.0000000E+00
   1.330000      0.0000000E+00
   1.340000      0.0000000E+00
   1.350000      0.0000000E+00
   1.360000      0.0000000E+00
   1.370000      0.0000000E+00
   1.380000      0.0000000E+00
   1.390000      0.0000000E+00
   1.400000      0.0000000E+00
   1.410000      0.0000000E+00
   1.420000      0.0000000E+00
   1.430000      0.0000000E+00
   1.440000      0.0000000E+00
   1.450000      0.0000000E+00
   1.460000      0.0000000E+00
   1.470000      0.0000000E+00
   1.480000      0.0000000E+00
   1.490000      0.0000000E+00
   1.500000      0.0000000E+00
   1.510000      0.0000000E+00
   1.520000      0.0000000E+00
   1.530000      0.0000000E+00
   1.540000      0.0000000E+00
   1.550000      0.0000000E+00
   1.560000      0.0000000E+00
   1.570000      0.0000000E+00
   1.580000      0.0000000E+00
   1.590000      0.0000000E+00
   1.600000      0.0000000E+00
   1.610000      0.0000000E+00
   1.620000      0.0000000E+00
   1.630000      0.0000000E+00
   1.640000      0.0000000E+00
   1.650000      0.0000000E+00
   1.660000      0.0000000E+00
   1.670000      0.0000000E+00
   1.680000      0.0000000E+00
   1.690000      0.0000000E+00
   1.700000      0.0000000E+00
   1.710000      0.0000000E+00
   1.720000      0.0000000E+00
   1.730000      0.0000000E+00
   1.740000      0.0000000E+00
   1.750000      0.0000000E+00
   1.760000      0.0000000E+00
   1.770000      0.0000000E+00
   1.780000      0.0000000E+00
   1.790000      0.0000000E+00
   1.800000      0.0000000E+00
   1.810000      0.0000000E+00
   1.820000      0.0000000E+00
   1.830000      0.0000000E+00
   1.840000      0.0000000E+00
   1.850000      0.0000000E+00
   1.860000      0.0000000E+00
   1.870000      0.0000000E+00
   1.880000      0.0000000E+00
   1.890000      0.0000000E+00
   1.900000      0.0000000E+00
   1.910000      0.0000000E+00
   1.920000      0.0000000E+00
   1.930000      0.0000000E+00
   1.940000      0.0000000E+00
   1.950000      0.0000000E+00
   1.960000      0.0000000E+00
   1.970000      0.0000000E+00
   1.980000      0.0000000E+00
   1.990000      0.0000000E+00
   2.000000      0.0000000E+00
   2.010000      0.0000000E+00
   2.020000      0.0000000E+00
   2.030000      0.0000000E+00
   2.040000      0.0000000E+00
   2.050000      0.0000000E+00
   2.060000      0.0000000E+00
   2.070000      0.0000000E+00
   2.080000      0.0000000E+00
   2.090000      0.0000000E+00
   2.100000      0.0000000E+00
   2.110000      0.0000000E+00
   2.120000      0.0000000E+00
   2.130000      0.0000000E+00
   2.140000      0.0000000E+00
   2.150000      0.0000000E+00
   2.160000      0.0000000E+00
   2.170000      0.0000000E+00
   2.180000      0.0000000E+00
   2.190000      0.0000000E+00
   2.200000      0.0000000E+00
   2.210000      0.0000000E+00
   2.220000      0.0000000E+00
   2.230000      0.0000000E+00
   2.240000      0.0000000E+00
   2.250000      0.0000000E+00
   2.260000      0.0000000E+00
   2.270000      1.2620769E-38
   2.280000      1.3499773E-38
   2.290000      1.4091134E-38
   2.300000      1.4354624E-38
   2.310000      1.4246123E-38
   2.320000      1.3732596E-38
   2.330000      1.2789968E-38
   2.340000      1.1794932E-38
   2.350000      0.0000000E+00
   2.360000      0.0000000E+00
   2.370000      0.0000000E+00
   2.380000      0.0000000E+00
   2.390000      0.0000000E+00
   2.400000      0.0000000E+00
   2.410000      0.0000000E+00
   2.420000      0.0000000E+00
   2.430000      0.0000000E+00
   2.440000      0.0000000E+00
   2.450000      0.0000000E+00
   2.460000      0.0000000E+00
   2.470000      0.0000000E+00
   2.480000      0.0000000E+00
   2.490000     -1.2058695E-38
   2.500000     -1.5020433E-38
   2.510000     -1.8267707E-38
   2.520000     -2.1870759E-38
   2.530000     -2.5888950E-38
   2.540000     -3.2067961E-38
   2.550000     -4.0605162E-38
   2.560000     -4.9915176E-38
   2.570000     -6.0377747E-38
   2.580000     -7.1960353E-38
   2.590000     -8.4091500E-38
   2.600000     -9.6580035E-38
   2.610000     -1.0923746E-37
   2.620000     -1.2056048E-37
   2.630000     -1.2939846E-37
   2.640000     -1.3693606E-37
   2.650000     -1.4362067E-37
   2.660000     -1.4818211E-37
   2.670000     -1.5092628E-37
   2.680000     -1.5293785E-37
   2.690000     -1.5362294E-37
   2.700000     -1.5341579E-37
   2.710000     -1.3096690E-37
   2.720000     -8.3509861E-38
   2.730000     -3.2053035E-38
   2.740000      3.5277807E-38
   2.750000      1.2321854E-37
   2.760000      1.2502635E-37
   2.770000      2.3951792E-38
   2.780000     -1.0357008E-37
   2.790000     -2.6119836E-37
   2.800000     -4.7739929E-37
   2.810000     -7.4310521E-37
   2.820000     -1.0329811E-36
   2.830000     -1.3707784E-36
   2.840000     -1.7593118E-36
   2.850000     -1.9642475E-36
   2.860000     -1.8795327E-36
   2.870000     -1.6353143E-36
   2.880000     -1.2633501E-36
   2.890000     -7.5757845E-37
   2.900000     -1.4854832E-37
   2.910000      7.9723112E-37
   2.920000      2.0223118E-36
   2.930000      3.1159766E-36
   2.940000      4.0269600E-36
   2.950000      4.5423131E-36
   2.960000      4.7301221E-36
   2.970000      4.6352560E-36
   2.980000      3.9070160E-36
   2.990000      2.7471991E-36
   3.000000      1.5591248E-36
   3.010000      8.8190748E-37
   3.020000      1.1226932E-36
   3.030000      1.9054603E-36
   3.040000      2.9253189E-36
   3.050000      4.2839107E-36
   3.060000      5.8577519E-36
   3.070000      7.4232633E-36
   3.080000      9.2593842E-36
   3.090000      1.1202940E-35
   3.100000      1.2958040E-35
   3.110000      1.4773388E-35
   3.120000      1.6748296E-35
   3.130000      1.8006062E-35
   3.140000      1.7777459E-35
   3.150000      1.6476259E-35
   3.160000      1.4478991E-35
   3.170000      1.2017407E-35
   3.180000      9.3386031E-36
   3.190000      6.8207586E-36
   3.200000      5.1597156E-36
   3.210000      4.2028296E-36
   3.220000      3.3461942E-36
   3.230000      2.5687432E-36
   3.240000      1.9970491E-36
   3.250000      1.4408907E-36
   3.260000      7.2387442E-37
   3.270000     -1.0862051E-36
   3.280000     -4.8395316E-36
   3.290000     -9.6220526E-36
   3.300000     -1.3816200E-35
   3.310000     -1.7413149E-35
   3.320000     -2.0112076E-35
   3.330000     -2.2122412E-35
   3.340000     -2.4866688E-35
   3.350000     -2.8277957E-35
   3.360000     -3.1996299E-35
   3.370000     -3.5949602E-35
   3.380000     -4.1315722E-35
   3.390000     -4.9325826E-35
   3.400000     -5.9357902E-35
   3.410000     -7.0010722E-35
   3.420000     -8.0636783E-35
   3.430000     -9.1620871E-35
   3.440000     -1.0371663E-34
   3.450000     -1.0934143E-34
   3.460000     -1.0419036E-34
   3.470000     -9.5252431E-35
   3.480000     -8.5176280E-35
   3.490000     -7.3932637E-35
   3.500000     -6.3074880E-35
   3.510000     -5.4005654E-35
   3.520000     -4.8511343E-35
   3.530000     -5.2301216E-35
   3.540000     -5.4111317E-35
   3.550000     -4.7106392E-35
   3.560000     -3.9818175E-35
   3.570000     -3.2153326E-35
   3.580000     -2.4589235E-35
   3.590000     -1.7249259E-35
   3.600000     -9.2861033E-36
   3.610000     -8.4057200E-37
   3.620000      1.1242376E-35
   3.630000      2.0504875E-35
   3.640000      2.3167517E-35
   3.650000      2.8467750E-35
   3.660000      3.7460253E-35
   3.670000      4.7835689E-35
   3.680000      5.8567066E-35
   3.690000      7.0759388E-35
   3.700000      9.4242068E-35
   3.710000      1.2715631E-34
   3.720000      1.5733454E-34
   3.730000      1.8624783E-34
   3.740000      2.1113109E-34
   3.750000      2.3211417E-34
   3.760000      2.5360737E-34
   3.770000      2.7603911E-34
   3.780000      3.0177321E-34
   3.790000      3.3425584E-34
   3.800000      3.7633330E-34
   3.810000      4.2734730E-34
   3.820000      4.6432748E-34
   3.830000      4.7734181E-34
   3.840000      4.7847327E-34
   3.850000      4.6658282E-34
   3.860000      4.4406912E-34
   3.870000      4.1574278E-34
   3.880000      3.8646388E-34
   3.890000      3.5845768E-34
   3.900000      3.3170545E-34
   3.910000      3.0811759E-34
   3.920000      2.8726951E-34
   3.930000      2.7480128E-34
   3.940000      2.6637639E-34
   3.950000      2.5346721E-34
   3.960000      2.3300674E-34
   3.970000      2.0171795E-34
   3.980000      1.6158716E-34
   3.990000      1.1075324E-34
   4.000000      5.0166649E-35
   4.010000     -2.0206594E-35
   4.020000     -1.0138658E-34
   4.030000     -1.9079483E-34
   4.040000     -2.8657994E-34
   4.050000     -3.8604534E-34
   4.060000     -4.8349221E-34
   4.070000     -5.7983908E-34
   4.080000     -6.7106222E-34
   4.090000     -7.5677550E-34
   4.100000     -8.3951391E-34
   4.110000     -9.2334879E-34
   4.120000     -1.0051014E-33
   4.130000     -1.0784780E-33
   4.140000     -1.1509198E-33
   4.150000     -1.2249922E-33
   4.160000     -1.3056572E-33
   4.170000     -1.3922505E-33
   4.180000     -1.4809390E-33
   4.190000     -1.5726544E-33
   4.200000     -1.6697982E-33
   4.210000     -1.7705491E-33
   4.220000     -1.8744653E-33
   4.230000     -1.9766147E-33
   4.240000     -2.0676453E-33
   4.250000     -2.1480269E-33
   4.260000     -2.2105539E-33
   4.270000     -2.2493902E-33
   4.280000     -2.2665239E-33
   4.290000     -2.2578782E-33
   4.300000     -2.2272356E-33
   4.310000     -2.1822408E-33
   4.320000     -2.1250679E-33
   4.330000     -2.0569109E-33
   4.340000     -1.9744046E-33
   4.350000     -1.8777211E-33
   4.360000     -1.7732402E-33
   4.370000     -1.6604530E-33
   4.380000     -1.5322849E-33
   4.390000     -1.3866560E-33
   4.400000     -1.2209705E-33
   4.410000     -1.0266961E-33
   4.420000     -7.9792658E-34
   4.430000     -5.2964538E-34
   4.440000     -2.2138925E-34
   4.450000      1.2902357E-34
   4.460000      5.1693237E-34
   4.470000      9.3097040E-34
   4.480000      1.3673143E-33
   4.490000      1.8304704E-33
   4.500000      2.3201799E-33
   4.510000      2.8274496E-33
   4.520000      3.3572181E-33
   4.530000      3.9045154E-33
   4.540000      4.4598028E-33
   4.550000      5.0239831E-33
   4.560000      5.6015035E-33
   4.570000      6.1974303E-33
   4.580000      6.8121257E-33
   4.590000      7.4500856E-33
   4.600000      8.1148284E-33
   4.610000      8.8038267E-33
   4.620000      9.5132126E-33
   4.630000      1.0238277E-32
   4.640000      1.0970001E-32
   4.650000      1.1698501E-32
   4.660000      1.2413433E-32
   4.670000      1.3103741E-32
   4.680000      1.3759261E-32
   4.690000      1.4371184E-32
   4.700000      1.4931554E-32
   4.710000      1.5434236E-32
   4.720000      1.5875192E-32
   4.730000      1.6251067E-32
   4.740000      1.6559813E-32
   4.750000      1.6800390E-32
   4.760000      1.6970178E-32
   4.770000      1.7064832E-32
   4.780000      1.7079569E-32
   4.790000      1.7007111E-32
   4.800000      1.6838929E-32
   4.810000      1.6564896E-32
   4.820000      1.6170672E-32
   4.830000      1.5642158E-32
   4.840000      1.4967655E-32
   4.850000      1.4135190E-32
   4.860000      1.3133018E-32
   4.870000      1.1952577E-32
   4.880000      1.0585515E-32
   4.890000      9.0284380E-33
   4.900000      7.2780850E-33
   4.910000      5.3278811E-33
   4.920000      3.1782671E-33
   4.930000      8.3280156E-34
   4.940000     -1.6995984E-33
   4.950000     -4.4220342E-33
   4.960000     -7.3439392E-33
   4.970000     -1.0464633E-32
   4.980000     -1.3785707E-32
   4.990000     -1.7310540E-32
   5.000000     -2.1041835E-32
   5.010000     -2.4983252E-32
   5.020000     -2.9131577E-32
   5.030000     -3.3481047E-32
   5.040000     -3.8025846E-32
   5.050000     -4.2756300E-32
   5.060000     -4.7660210E-32
   5.070000     -5.2719064E-32
   5.080000     -5.7912281E-32
   5.090000     -6.3217257E-32
   5.100000     -6.8609279E-32
   5.110000     -7.4062221E-32
   5.120000     -7.9549018E-32
   5.130000     -8.5042297E-32
   5.140000     -9.0514587E-32
   5.150000     -9.5938107E-32
   5.160000     -1.0128473E-31
   5.170000     -1.0652531E-31
   5.180000     -1.1162862E-31
   5.190000     -1.1656191E-31
   5.200000     -1.2128967E-31
   5.210000     -1.2577184E-31
   5.220000     -1.2996481E-31
   5.230000     -1.3382142E-31
   5.240000     -1.3729064E-31
   5.250000     -1.4031810E-31
   5.260000     -1.4284660E-31
   5.270000     -1.4481705E-31
   5.280000     -1.4616900E-31
   5.290000     -1.4684113E-31
   5.300000     -1.4677322E-31
   5.310000     -1.4590577E-31
   5.320000     -1.4417979E-31
   5.330000     -1.4153815E-31
   5.340000     -1.3792488E-31
   5.350000     -1.3328491E-31
   5.360000     -1.2756412E-31
   5.370000     -1.2070853E-31
   5.380000     -1.1266494E-31
   5.390000     -1.0338121E-31
   5.400000     -9.2803886E-32
   5.410000     -8.0880582E-32
   5.420000     -6.7561555E-32
   5.430000     -5.2798622E-32
   5.440000     -3.6547489E-32
   5.450000     -1.8768107E-32
   5.460000      5.7454298E-34
   5.470000      2.1509024E-32
   5.480000      4.4057893E-32
   5.490000      6.8235954E-32
   5.500000      9.4048993E-32
   5.510000      1.2149475E-31
   5.520000      1.5056331E-31
   5.530000      1.8123542E-31
   5.540000      2.1348360E-31
   5.550000      2.4727347E-31
   5.560000      2.8256185E-31
   5.570000      3.1929706E-31
   5.580000      3.5741837E-31
   5.590000      3.9685517E-31
   5.600000      4.3752624E-31
   5.610000      4.7933862E-31
   5.620000      5.2218623E-31
   5.630000      5.6594909E-31
   5.640000      6.1049205E-31
   5.650000      6.5566390E-31
   5.660000      7.0129673E-31
   5.670000      7.4720552E-31
   5.680000      7.9318832E-31
   5.690000      8.3902611E-31
   5.700000      8.8448370E-31
   5.710000      9.2930925E-31
   5.720000      9.7323607E-31
   5.730000      1.0159829E-30
   5.740000      1.0572539E-30
   5.750000      1.0967400E-30
   5.760000      1.1341187E-30
   5.770000      1.1690546E-30
   5.780000      1.2011987E-30
   5.790000      1.2301894E-30
   5.800000      1.2556520E-30
   5.810000      1.2771983E-30
   5.820000      1.2944277E-30
   5.830000      1.3069267E-30
   5.840000      1.3142707E-30
   5.850000      1.3160239E-30
   5.860000      1.3117410E-30
   5.870000      1.3009683E-30
   5.880000      1.2832448E-30
   5.890000      1.2581074E-30
   5.900000      1.2250902E-30
   5.910000      1.1837246E-30
   5.920000      1.1335452E-30
   5.930000      1.0740899E-30
   5.940000      1.0049027E-30
   5.950000      9.2553545E-31
   5.960000      8.3555022E-31
   5.970000      7.3452147E-31
   5.980000      6.2203893E-31
   5.990000      4.9770943E-31
   6.000000      3.6116095E-31
   6.010000      2.1204578E-31
   6.020000      5.0043727E-32
   6.030000     -1.2513344E-31
   6.040000     -3.1373754E-31
   6.050000     -5.1597981E-31
   6.060000     -7.3202618E-31
   6.070000     -9.6199223E-31
   6.080000     -1.2059386E-30
   6.090000     -1.4638669E-30
   6.100000     -1.7357150E-30
   6.110000     -2.0213521E-30
   6.120000     -2.3205761E-30
   6.130000     -2.6331096E-30
   6.140000     -2.9585951E-30
   6.150000     -3.2965925E-30
   6.160000     -3.6465746E-30
   6.170000     -4.0079253E-30
   6.180000     -4.3799341E-30
   6.190000     -4.7617914E-30
   6.200000     -5.1525871E-30
   6.210000     -5.5513035E-30
   6.220000     -5.9568118E-30
   6.230000     -6.3678684E-30
   6.240000     -6.7831095E-30
   6.250000     -7.2010453E-30
   6.260000     -7.6200562E-30
   6.270000     -8.0383900E-30
   6.280000     -8.4541621E-30
   6.290000     -8.8653444E-30
   6.300000     -9.2697724E-30
   6.310000     -9.6651357E-30
   6.320000     -1.0048982E-29
   6.330000     -1.0418716E-29
   6.340000     -1.0771601E-29
   6.350000     -1.1104757E-29
   6.360000     -1.1415165E-29
   6.370000     -1.1699670E-29
   6.380000     -1.1954985E-29
   6.390000     -1.2177697E-29
   6.400000     -1.2364266E-29
   6.410000     -1.2511036E-29
   6.420000     -1.2614245E-29
   6.430000     -1.2670033E-29
   6.440000     -1.2674441E-29
   6.450000     -1.2623437E-29
   6.460000     -1.2512920E-29
   6.470000     -1.2338732E-29
   6.480000     -1.2096677E-29
   6.490000     -1.1782535E-29
   6.500000     -1.1392077E-29
   6.510000     -1.0921081E-29
   6.520000     -1.0365352E-29
   6.530000     -9.7207492E-30
   6.540000     -8.9831948E-30
   6.550000     -8.1486999E-30
   6.560000     -7.2133855E-30
   6.570000     -6.1735101E-30
   6.580000     -5.0254915E-30
   6.590000     -3.7659356E-30
   6.600000     -2.3916621E-30
   6.610000     -8.9973344E-31
   6.620000      7.1251142E-31
   6.630000      2.4474272E-30
   6.640000      4.3070290E-30
   6.650000      6.2929535E-30
   6.660000      8.4064224E-30
   6.670000      1.0648206E-29
   6.680000      1.3018582E-29
   6.690000      1.5517296E-29
   6.700000      1.8143522E-29
   6.710000      2.0895822E-29
   6.720000      2.3772101E-29
   6.730000      2.6769569E-29
   6.740000      2.9884709E-29
   6.750000      3.3113224E-29
   6.760000      3.6450015E-29
   6.770000      3.9889124E-29
   6.780000      4.3423711E-29
   6.790000      4.7046027E-29
   6.800000      5.0747363E-29
   6.810000      5.4518033E-29
   6.820000      5.8347342E-29
   6.830000      6.2223553E-29
   6.840000      6.6133864E-29
   6.850000      7.0064392E-29
   6.860000      7.4000139E-29
   6.870000      7.7924979E-29
   6.880000      8.1821653E-29
   6.890000      8.5671750E-29
   6.900000      8.9455690E-29
   6.910000      9.3152724E-29
   6.920000      9.6740960E-29
   6.930000      1.0019733E-28
   6.940000      1.0349762E-28
   6.950000      1.0661647E-28
   6.960000      1.0952743E-28
   6.970000      1.1220291E-28
   6.980000      1.1461428E-28
   6.990000      1.1673188E-28
   7.000000      1.1852505E-28
   7.010000      1.1996224E-28
   7.020000      1.2101101E-28
   7.030000      1.2163806E-28
   7.040000      1.2180946E-28
   7.050000      1.2149055E-28
   7.060000      1.2064621E-28