  -2.600000      0.0000000E+00
  -2.590000      0.0000000E+00
  -2.580000      0.0000000E+00
  -2.570000      0.0000000E+00
  -2.560000      0.0000000E+00
  -2.550000      0.0000000E+00
  -2.540000      0.0000000E+00
  -2.530000      0.0000000E+00
  -2.520000      0.0000000E+00
  -2.510000      0.0000000E+00
  -2.500000      0.0000000E+00
  -2.490000      0.0000000E+00
  -2.480000      0.0000000E+00
  -2.470000      0.0000000E+00
  -2.460000      0.0000000E+00
  -2.450000      0.0000000E+00
  -2.440000      0.0000000E+00
  -2.430000      0.0000000E+00
  -2.420000      0.0000000E+00
  -2.410000      0.0000000E+00
  -2.400000      0.0000000E+00
  -2.390000      0.0000000E+00
  -2.380000      0.0000000E+00
  -2.370000      0.0000000E+00
  -2.360000      0.0000000E+00
  -2.350000      0.0000000E+00
  -2.340000      0.0000000E+00
  -2.330000      0.0000000E+00
  -2.320000      0.0000000E+00
  -2.310000      0.0000000E+00
  -2.300000      0.0000000E+00
  -2.290000      0.0000000E+00
  -2.280000      0.0000000E+00
  -2.270000      0.0000000E+00
  -2.260000      0.0000000E+00
  -2.250000      0.0000000E+00
  -2.240000      0.0000000E+00
  -2.230000      0.0000000E+00
  -2.220000      0.0000000E+00
  -2.210000      0.0000000E+00
  -2.200000      0.0000000E+00
  -2.190000      0.0000000E+00
  -2.180000      0.0000000E+00
  -2.170000      0.0000000E+00
  -2.160000      0.0000000E+00
  -2.150000      0.0000000E+00
  -2.140000      0.0000000E+00
  -2.130000      0.0000000E+00
  -2.120000      0.0000000E+00
  -2.110000      0.0000000E+00
  -2.100000      0.0000000E+00
  -2.090000      0.0000000E+00
  -2.080000      0.0000000E+00
  -2.070000      0.0000000E+00
  -2.060000      0.0000000E+00
  -2.050000      0.0000000E+00
  -2.040000      0.0000000E+00
  -2.030000      0.0000000E+00
  -2.020000      0.0000000E+00
  -2.010000      0.0000000E+00
  -2.000000      0.0000000E+00
  -1.990000      0.0000000E+00
  -1.980000      0.0000000E+00
  -1.970000      0.0000000E+00
  -1.960000      0.0000000E+00
  -1.950000      0.0000000E+00
  -1.940000      0.0000000E+00
  -1.930000      0.0000000E+00
  -1.920000      0.0000000E+00
  -1.910000      0.0000000E+00
  -1.900000      0.0000000E+00
  -1.890000      0.0000000E+00
  -1.880000      0.0000000E+00
  -1.870000      0.0000000E+00
  -1.860000      0.0000000E+00
  -1.850000      0.0000000E+00
  -1.840000      0.0000000E+00
  -1.830000      0.0000000E+00
  -1.820000      0.0000000E+00
  -1.810000      0.0000000E+00
  -1.800000      0.0000000E+00
  -1.790000      0.0000000E+00
  -1.780000      0.0000000E+00
  -1.770000      0.0000000E+00
  -1.760000      0.0000000E+00
  -1.750000      0.0000000E+00
  -1.740000      0.0000000E+00
  -1.730000      0.0000000E+00
  -1.720000      0.0000000E+00
  -1.710000      0.0000000E+00
  -1.700000      0.0000000E+00
  -1.690000      0.0000000E+00
  -1.680000      0.0000000E+00
  -1.670000      0.0000000E+00
  -1.660000      0.0000000E+00
  -1.650000      0.0000000E+00
  -1.640000      0.0000000E+00
  -1.630000      0.0000000E+00
  -1.620000      0.0000000E+00
  -1.610000      0.0000000E+00
  -1.600000      0.0000000E+00
  -1.590000      0.0000000E+00
  -1.580000      0.0000000E+00
  -1.570000      0.0000000E+00
  -1.560000      0.0000000E+00
  -1.550000      0.0000000E+00
  -1.540000      0.0000000E+00
  -1.530000      0.0000000E+00
  -1.520000      0.0000000E+00
  -1.510000      0.0000000E+00
  -1.500000      0.0000000E+00
  -1.490000      0.0000000E+00
  -1.480000      0.0000000E+00
  -1.470000      0.0000000E+00
  -1.460000      0.0000000E+00
  -1.450000      0.0000000E+00
  -1.440000      0.0000000E+00
  -1.430000      0.0000000E+00
  -1.420000      0.0000000E+00
  -1.410000      0.0000000E+00
  -1.400000      0.0000000E+00
  -1.390000      0.0000000E+00
  -1.380000      0.0000000E+00
  -1.370000      0.0000000E+00
  -1.360000      0.0000000E+00
  -1.350000      0.0000000E+00
  -1.340000      0.0000000E+00
  -1.330000      0.0000000E+00
  -1.320000      0.0000000E+00
  -1.310000      0.0000000E+00
  -1.300000      0.0000000E+00
  -1.290000      0.0000000E+00
  -1.280000      0.0000000E+00
  -1.270000      0.0000000E+00
  -1.260000      0.0000000E+00
  -1.250000      0.0000000E+00
  -1.240000      0.0000000E+00
  -1.230000      0.0000000E+00
  -1.220000      0.0000000E+00
  -1.210000      0.0000000E+00
  -1.200000      0.0000000E+00
  -1.190000      0.0000000E+00
  -1.180000      0.0000000E+00
  -1.170000      0.0000000E+00
  -1.160000      0.0000000E+00
  -1.150000      0.0000000E+00
  -1.140000      0.0000000E+00
  -1.130000      0.0000000E+00
  -1.120000      0.0000000E+00
  -1.110000      0.0000000E+00
  -1.100000      0.0000000E+00
  -1.090000      0.0000000E+00
  -1.080000      0.0000000E+00
  -1.070000      0.0000000E+00
  -1.060000      0.0000000E+00
  -1.050000      0.0000000E+00
  -1.040000      0.0000000E+00
  -1.030000      0.0000000E+00
  -1.020000      0.0000000E+00
  -1.010000      0.0000000E+00
  -1.000000      0.0000000E+00
 -0.9900000      0.0000000E+00
 -0.9800000      0.0000000E+00
 -0.9700000      0.0000000E+00
 -0.9600000      0.0000000E+00
 -0.9500000      0.0000000E+00
 -0.9400000      0.0000000E+00
 -0.9300000      0.0000000E+00
 -0.9200000      0.0000000E+00
 -0.9100000      0.0000000E+00
 -0.9000000      0.0000000E+00
 -0.8900000      0.0000000E+00
 -0.8800000      0.0000000E+00
 -0.8700000      0.0000000E+00
 -0.8600000      0.0000000E+00
 -0.8500000      0.0000000E+00
 -0.8400000      0.0000000E+00
 -0.8300000      0.0000000E+00
 -0.8200000      0.0000000E+00
 -0.8100000      0.0000000E+00
 -0.8000000      0.0000000E+00
 -0.7900000      0.0000000E+00
 -0.7800000      0.0000000E+00
 -0.7700000      0.0000000E+00
 -0.7600000      0.0000000E+00
 -0.7500000      0.0000000E+00
 -0.7400000      0.0000000E+00
 -0.7300000      0.0000000E+00
 -0.7200000      0.0000000E+00
 -0.7100000      0.0000000E+00
 -0.7000000      0.0000000E+00
 -0.6900000      0.0000000E+00
 -0.6800000      0.0000000E+00
 -0.6700000      0.0000000E+00
 -0.6600000      0.0000000E+00
 -0.6500000      0.0000000E+00
 -0.6400000      0.0000000E+00
 -0.6300000      0.0000000E+00
 -0.6200000      0.0000000E+00
 -0.6100000      0.0000000E+00
 -0.6000000      0.0000000E+00
 -0.5900000      0.0000000E+00
 -0.5800000      0.0000000E+00
 -0.5700000      0.0000000E+00
 -0.5600000      0.0000000E+00
 -0.5500000      0.0000000E+00
 -0.5400000      0.0000000E+00
 -0.5300000      0.0000000E+00
 -0.5200000      0.0000000E+00
 -0.5100000      0.0000000E+00
 -0.5000000      0.0000000E+00
 -0.4900000      0.0000000E+00
 -0.4800000      0.0000000E+00
 -0.4700000      0.0000000E+00
 -0.4600000      0.0000000E+00
 -0.4500000      0.0000000E+00
 -0.4400000      0.0000000E+00
 -0.4300000      0.0000000E+00
 -0.4200000      0.0000000E+00
 -0.4100000      0.0000000E+00
 -0.4000000      0.0000000E+00
 -0.3900000      0.0000000E+00
 -0.3800000      0.0000000E+00
 -0.3700000      0.0000000E+00
 -0.3600000      0.0000000E+00
 -0.3500000      0.0000000E+00
 -0.3400000      0.0000000E+00
 -0.3300000      0.0000000E+00
 -0.3200000      0.0000000E+00
 -0.3100000      0.0000000E+00
 -0.3000000      0.0000000E+00
 -0.2900000      0.0000000E+00
 -0.2800000      0.0000000E+00
 -0.2700000      0.0000000E+00
 -0.2600000      0.0000000E+00
 -0.2500000      0.0000000E+00
 -0.2400000      0.0000000E+00
 -0.2300000      0.0000000E+00
 -0.2200000      0.0000000E+00
 -0.2100000      0.0000000E+00
 -0.2000000      0.0000000E+00
 -0.1900000      0.0000000E+00
 -0.1800000      0.0000000E+00
 -0.1700000      0.0000000E+00
 -0.1600000      0.0000000E+00
 -0.1500000      0.0000000E+00
 -0.1400000      0.0000000E+00
 -0.1300000      0.0000000E+00
 -0.1200000      0.0000000E+00
 -0.1100000      0.0000000E+00
 -0.1000000      0.0000000E+00
 -9.0000004E-02  0.0000000E+00
 -7.9999998E-02  0.0000000E+00
 -7.0000000E-02  0.0000000E+00
 -5.9999999E-02  0.0000000E+00
 -5.0000001E-02  0.0000000E+00
 -3.9999999E-02  0.0000000E+00
 -2.9999999E-02  0.0000000E+00
 -2.0000000E-02  0.0000000E+00
 -9.9999998E-03  0.0000000E+00
 -3.4694470E-17  0.0000000E+00
  9.9999998E-03  0.0000000E+00
  2.0000000E-02  0.0000000E+00
  2.9999999E-02  0.0000000E+00
  3.9999999E-02  0.0000000E+00
  5.0000001E-02  0.0000000E+00
  5.9999999E-02  0.0000000E+00
  7.0000000E-02  0.0000000E+00
  7.9999998E-02  0.0000000E+00
  9.0000004E-02  0.0000000E+00
  0.1000000      0.0000000E+00
  0.1100000      0.0000000E+00
  0.1200000      0.0000000E+00
  0.1300000      0.0000000E+00
  0.1400000      0.0000000E+00
  0.1500000      0.0000000E+00
  0.1600000      0.0000000E+00
  0.1700000      0.0000000E+00
  0.1800000      0.0000000E+00
  0.1900000      0.0000000E+00
  0.2000000      0.0000000E+00
  0.2100000      0.0000000E+00
  0.2200000      0.0000000E+00
  0.2300000      0.0000000E+00
  0.2400000      0.0000000E+00
  0.2500000      0.0000000E+00
  0.2600000      0.0000000E+00
  0.2700000      0.0000000E+00
  0.2800000      0.0000000E+00
  0.2900000      0.0000000E+00
  0.3000000      0.0000000E+00
  0.3100000      0.0000000E+00
  0.3200000      0.0000000E+00
  0.3300000      0.0000000E+00
  0.3400000      0.0000000E+00
  0.3500000      0.0000000E+00
  0.3600000      0.0000000E+00
  0.3700000      0.0000000E+00
  0.3800000      0.0000000E+00
  0.3900000      0.0000000E+00
  0.4000000      0.0000000E+00
  0.4100000      0.0000000E+00
  0.4200000      0.0000000E+00
  0.4300000      0.0000000E+00
  0.4400000      0.0000000E+00
  0.4500000      0.0000000E+00
  0.4600000      0.0000000E+00
  0.4700000      0.0000000E+00
  0.4800000      0.0000000E+00
  0.4900000      0.0000000E+00
  0.5000000      0.0000000E+00
  0.5100000      0.0000000E+00
  0.5200000      0.0000000E+00
  0.5300000      0.0000000E+00
  0.5400000      0.0000000E+00
  0.5500000      0.0000000E+00
  0.5600000      0.0000000E+00
  0.5700000      0.0000000E+00
  0.5800000      0.0000000E+00
  0.5900000      0.0000000E+00
  0.6000000      0.0000000E+00
  0.6100000      0.0000000E+00
  0.6200000      0.0000000E+00
  0.6300000      0.0000000E+00
  0.6400000      0.0000000E+00
  0.6500000      0.0000000E+00
  0.6600000      0.0000000E+00
  0.6700000      0.0000000E+00
  0.6800000      0.0000000E+00
  0.6900000      0.0000000E+00
  0.7000000      0.0000000E+00
  0.7100000      0.0000000E+00
  0.7200000      0.0000000E+00
  0.7300000      0.0000000E+00
  0.7400000      0.0000000E+00
  0.7500000      0.0000000E+00
  0.7600000      0.0000000E+00
  0.7700000      0.0000000E+00
  0.7800000      0.0000000E+00
  0.7900000      0.0000000E+00
  0.8000000      0.0000000E+00
  0.8100000      0.0000000E+00
  0.8200000      0.0000000E+00
  0.8300000      0.0000000E+00
  0.8400000      0.0000000E+00
  0.8500000      0.0000000E+00
  0.8600000      0.0000000E+00
  0.8700000      0.0000000E+00
  0.8800000      0.0000000E+00
  0.8900000      0.0000000E+00
  0.9000000      0.0000000E+00
  0.9100000      0.0000000E+00
  0.9200000      0.0000000E+00
  0.9300000      0.0000000E+00
  0.9400000      0.0000000E+00
  0.9500000      0.0000000E+00
  0.9600000      0.0000000E+00
  0.9700000      0.0000000E+00
  0.9800000      0.0000000E+00
  0.9900000      0.0000000E+00
   1.000000      0.0000000E+00
   1.010000      0.0000000E+00
   1.020000      0.0000000E+00
   1.030000      0.0000000E+00
   1.040000      0.0000000E+00
   1.050000      0.0000000E+00
   1.060000      0.0000000E+00
   1.070000      0.0000000E+00
   1.080000      0.0000000E+00
   1.090000      0.0000000E+00
   1.100000      0.0000000E+00
   1.110000      0.0000000E+00
   1.120000      0.0000000E+00
   1.130000      0.0000000E+00
   1.140000      0.0000000E+00
   1.150000      0.0000000E+00
   1.160000      0.0000000E+00
   1.170000      0.0000000E+00
   1.180000      0.0000000E+00
   1.190000      0.0000000E+00
   1.200000      0.0000000E+00
   1.210000      0.0000000E+00
   1.220000      0.0000000E+00
   1.230000      0.0000000E+00
   1.240000      0.0000000E+00
   1.250000      0.0000000E+00
   1.260000      0.0000000E+00
   1.270000      0.0000000E+00
   1.280000      0.0000000E+00
   1.290000      0.0000000E+00
   1.300000      0.0000000E+00
   1.310000      0.0000000E+00
   1.320000      0.0000000E+00
   1.330000      0.0000000E+00
   1.340000      0.0000000E+00
   1.350000      0.0000000E+00
   1.360000      0.0000000E+00
   1.370000      0.0000000E+00
   1.380000      0.0000000E+00
   1.390000      0.0000000E+00
   1.400000      0.0000000E+00
   1.410000      0.0000000E+00
   1.420000      0.0000000E+00
   1.430000      0.0000000E+00
   1.440000      0.0000000E+00
   1.450000      0.0000000E+00
   1.460000      0.0000000E+00
   1.470000      0.0000000E+00
   1.480000      0.0000000E+00
   1.490000      0.0000000E+00
   1.500000      0.0000000E+00
   1.510000      0.0000000E+00
   1.520000      0.0000000E+00
   1.530000      0.0000000E+00
   1.540000      0.0000000E+00
   1.550000      0.0000000E+00
   1.560000      0.0000000E+00
   1.570000      0.0000000E+00
   1.580000      0.0000000E+00
   1.590000      0.0000000E+00
   1.600000      0.0000000E+00
   1.610000      0.0000000E+00
   1.620000      0.0000000E+00
   1.630000      0.0000000E+00
   1.640000      0.0000000E+00
   1.650000      0.0000000E+00
   1.660000      0.0000000E+00
   1.670000      0.0000000E+00
   1.680000      0.0000000E+00
   1.690000      0.0000000E+00
   1.700000      0.0000000E+00
   1.710000      0.0000000E+00
   1.720000      0.0000000E+00
   1.730000      0.0000000E+00
   1.740000      0.0000000E+00
   1.750000      0.0000000E+00
   1.760000      0.0000000E+00
   1.770000      0.0000000E+00
   1.780000      0.0000000E+00
   1.790000      0.0000000E+00
   1.800000      0.0000000E+00
   1.810000      0.0000000E+00
   1.820000      0.0000000E+00
   1.830000      0.0000000E+00
   1.840000      0.0000000E+00
   1.850000      0.0000000E+00
   1.860000      0.0000000E+00
   1.870000      0.0000000E+00
   1.880000      0.0000000E+00
   1.890000      0.0000000E+00
   1.900000      0.0000000E+00
   1.910000      0.0000000E+00
   1.920000      0.0000000E+00
   1.930000      0.0000000E+00
   1.940000      0.0000000E+00
   1.950000      0.0000000E+00
   1.960000      0.0000000E+00
   1.970000      0.0000000E+00
   1.980000      0.0000000E+00
   1.990000      0.0000000E+00
   2.000000      0.0000000E+00
   2.010000      0.0000000E+00
   2.020000      0.0000000E+00
   2.030000      0.0000000E+00
   2.040000      0.0000000E+00
   2.050000      0.0000000E+00
   2.060000      0.0000000E+00
   2.070000      0.0000000E+00
   2.080000      0.0000000E+00
   2.090000      0.0000000E+00
   2.100000      0.0000000E+00
   2.110000     -1.2007729E-38
   2.120000     -1.3099791E-38
   2.130000     -1.4395849E-38
   2.140000     -1.5931439E-38
   2.150000     -1.7702302E-38
   2.160000     -2.0005137E-38
   2.170000     -2.2700824E-38
   2.180000     -2.5320348E-38
   2.190000     -2.7819866E-38
   2.200000     -3.0154337E-38
   2.210000     -3.2276629E-38
   2.220000     -3.4136679E-38
   2.230000     -3.5490591E-38
   2.240000     -3.6371795E-38
   2.250000     -3.7014609E-38
   2.260000     -3.7272149E-38
   2.270000     -3.7047532E-38
   2.280000     -3.6236017E-38
   2.290000     -3.4722598E-38
   2.300000     -3.2502995E-38
   2.310000     -2.9523613E-38
   2.320000     -2.5953258E-38
   2.330000     -2.2329147E-38
   2.340000     -1.8695450E-38
   2.350000     -1.4706452E-38
   2.360000      0.0000000E+00
   2.370000      0.0000000E+00
   2.380000      0.0000000E+00
   2.390000      0.0000000E+00
   2.400000      1.5121779E-38
   2.410000      2.4002603E-38
   2.420000      3.4328197E-38
   2.430000      4.5618066E-38
   2.440000      5.7530140E-38
   2.450000      7.0391723E-38
   2.460000      8.3996885E-38
   2.470000      9.8101688E-38
   2.480000      1.1244592E-37
   2.490000      1.2676430E-37
   2.500000      1.4020491E-37
   2.510000      1.5238291E-37
   2.520000      1.6376845E-37
   2.530000      1.7418981E-37
   2.540000      1.8327823E-37
   2.550000      1.8968685E-37
   2.560000      1.9313794E-37
   2.570000      1.9295976E-37
   2.580000      1.8899568E-37
   2.590000      1.8272410E-37
   2.600000      1.7315893E-37
   2.610000      1.6065173E-37
   2.620000      1.4623864E-37
   2.630000      1.2935523E-37
   2.640000      1.0929156E-37
   2.650000      8.5491179E-38
   2.660000      5.7178476E-38
   2.670000      2.4813364E-38
   2.680000     -1.1989835E-38
   2.690000     -5.6653230E-38
   2.700000     -1.0521167E-37
   2.710000     -1.5481871E-37
   2.720000     -2.0874711E-37
   2.730000     -2.6657197E-37
   2.740000     -3.3099188E-37
   2.750000     -4.0533332E-37
   2.760000     -4.7671506E-37
   2.770000     -5.3801081E-37
   2.780000     -5.9674275E-37
   2.790000     -6.4009179E-37
   2.800000     -6.5709831E-37
   2.810000     -6.5658187E-37
   2.820000     -6.4317958E-37
   2.830000     -6.1710866E-37
   2.840000     -5.8040881E-37
   2.850000     -5.7010965E-37
   2.860000     -5.9054619E-37
   2.870000     -6.0989231E-37
   2.880000     -5.7197618E-37
   2.890000     -4.0340594E-37
   2.900000     -1.2262307E-37
   2.910000      2.1789460E-37
   2.920000      6.1963033E-37
   2.930000      1.1007462E-36
   2.940000      1.6896556E-36
   2.950000      2.4037979E-36
   2.960000      3.3159071E-36
   2.970000      4.3847693E-36
   2.980000      5.4191506E-36
   2.990000      6.2756195E-36
   3.000000      6.9552847E-36
   3.010000      7.5366436E-36
   3.020000      8.0056683E-36
   3.030000      8.3497099E-36
   3.040000      8.6056762E-36
   3.050000      8.7908402E-36
   3.060000      8.9052895E-36
   3.070000      9.0232120E-36
   3.080000      9.0651313E-36
   3.090000      8.9734738E-36
   3.100000      8.8230896E-36
   3.110000      8.4185255E-36
   3.120000      7.6753668E-36
   3.130000      6.9067482E-36
   3.140000      6.3050880E-36
   3.150000      5.6904172E-36
   3.160000      5.0530814E-36
   3.170000      4.4692702E-36
   3.180000      3.7858068E-36
   3.190000      2.9531185E-36
   3.200000      2.0090695E-36
   3.210000      8.8841910E-37
   3.220000     -4.2691125E-37
   3.230000     -1.9070938E-36
   3.240000     -3.5552315E-36
   3.250000     -5.3739887E-36
   3.260000     -7.3974561E-36
   3.270000     -9.6393895E-36
   3.280000     -1.2045853E-35
   3.290000     -1.4595124E-35
   3.300000     -1.7406566E-35
   3.310000     -2.0488099E-35
   3.320000     -2.3760710E-35
   3.330000     -2.7176523E-35
   3.340000     -3.0726843E-35
   3.350000     -3.4387374E-35
   3.360000     -3.8021488E-35
   3.370000     -4.1547105E-35
   3.380000     -4.5137023E-35
   3.390000     -4.8866551E-35
   3.400000     -5.2341566E-35
   3.410000     -5.5411432E-35
   3.420000     -5.8235953E-35
   3.430000     -6.0897564E-35
   3.440000     -6.3149255E-35
   3.450000     -6.4536339E-35
   3.460000     -6.5023807E-35
   3.470000     -6.4867010E-35
   3.480000     -6.4564911E-35
   3.490000     -6.4002338E-35
   3.500000     -6.2665397E-35
   3.510000     -6.0576214E-35
   3.520000     -5.6175624E-35
   3.530000     -4.9557395E-35
   3.540000     -3.9592687E-35
   3.550000     -2.5711052E-35
   3.560000     -7.7501941E-36
   3.570000      1.3383877E-35
   3.580000      3.3832142E-35
   3.590000      5.1169344E-35
   3.600000      6.6120633E-35
   3.610000      7.9219750E-35
   3.620000      9.0796165E-35
   3.630000      1.0130269E-34
   3.640000      1.0960305E-34
   3.650000      1.1405896E-34
   3.660000      1.1549323E-34
   3.670000      1.1665777E-34
   3.680000      1.1692579E-34
   3.690000      1.1738248E-34
   3.700000      1.1998753E-34
   3.710000      1.2545025E-34
   3.720000      1.3354546E-34
   3.730000      1.4193290E-34
   3.740000      1.4829929E-34
   3.750000      1.5615738E-34
   3.760000      1.6799285E-34
   3.770000      1.8277381E-34
   3.780000      2.0289985E-34
   3.790000      2.2689201E-34
   3.800000      2.4876909E-34
   3.810000      2.6987837E-34
   3.820000      2.8804869E-34
   3.830000      3.0348477E-34
   3.840000      3.1947948E-34
   3.850000      3.3253975E-34
   3.860000      3.4183789E-34
   3.870000      3.4738473E-34
   3.880000      3.4909482E-34
   3.890000      3.4671550E-34
   3.900000      3.3789884E-34
   3.910000      3.2201031E-34
   3.920000      3.0082524E-34
   3.930000      2.7474763E-34
   3.940000      2.4389873E-34
   3.950000      2.0826171E-34
   3.960000      1.6744617E-34
   3.970000      1.2095065E-34
   3.980000      6.9038626E-35
   3.990000      1.2144992E-35
   4.000000     -4.7374116E-35
   4.010000     -1.0799032E-34
   4.020000     -1.6949978E-34
   4.030000     -2.3375093E-34
   4.040000     -3.0360709E-34
   4.050000     -3.7711018E-34
   4.060000     -4.5216437E-34
   4.070000     -5.2856062E-34
   4.080000     -6.0629069E-34
   4.090000     -6.8466430E-34
   4.100000     -7.6395185E-34
   4.110000     -8.4733618E-34
   4.120000     -9.3277157E-34
   4.130000     -1.0163051E-33
   4.140000     -1.1004930E-33
   4.150000     -1.1867641E-33
   4.160000     -1.2737420E-33
   4.170000     -1.3603561E-33
   4.180000     -1.4445468E-33
   4.190000     -1.5296603E-33
   4.200000     -1.6154712E-33
   4.210000     -1.6966516E-33
   4.220000     -1.7762517E-33
   4.230000     -1.8563128E-33
   4.240000     -1.9336248E-33
   4.250000     -2.0052115E-33
   4.260000     -2.0706269E-33
   4.270000     -2.1271536E-33
   4.280000     -2.1712571E-33
   4.290000     -2.2002736E-33
   4.300000     -2.2143142E-33
   4.310000     -2.2147981E-33
   4.320000     -2.1997533E-33
   4.330000     -2.1659018E-33
   4.340000     -2.1100423E-33
   4.350000     -2.0310851E-33
   4.360000     -1.9285394E-33
   4.370000     -1.8015235E-33
   4.380000     -1.6489354E-33
   4.390000     -1.4710393E-33
   4.400000     -1.2676076E-33
   4.410000     -1.0368377E-33
   4.420000     -7.7763047E-34
   4.430000     -4.9075121E-34
   4.440000     -1.7583395E-34
   4.450000      1.6634300E-34
   4.460000      5.3413214E-34
   4.470000      9.2700761E-34
   4.480000      1.3434732E-33
   4.490000      1.7848769E-33
   4.500000      2.2500556E-33
   4.510000      2.7384768E-33
   4.520000      3.2502198E-33
   4.530000      3.7817391E-33
   4.540000      4.3303298E-33
   4.550000      4.8956827E-33
   4.560000      5.4784627E-33
   4.570000      6.0748093E-33
   4.580000      6.6809633E-33
   4.590000      7.2975674E-33
   4.600000      7.9230773E-33
   4.610000      8.5549768E-33
   4.620000      9.1899612E-33
   4.630000      9.8230193E-33
   4.640000      1.0450290E-32
   4.650000      1.1067167E-32
   4.660000      1.1668373E-32
   4.670000      1.2248448E-32
   4.680000      1.2802488E-32
   4.690000      1.3324890E-32
   4.700000      1.3810588E-32
   4.710000      1.4253207E-32
   4.720000      1.4643833E-32
   4.730000      1.4975046E-32
   4.740000      1.5240218E-32
   4.750000      1.5432035E-32
   4.760000      1.5542416E-32
   4.770000      1.5562662E-32
   4.780000      1.5483756E-32
   4.790000      1.5297103E-32
   4.800000      1.4994847E-32
   4.810000      1.4569267E-32
   4.820000      1.4015469E-32
   4.830000      1.3326056E-32
   4.840000      1.2491696E-32
   4.850000      1.1505781E-32
   4.860000      1.0362584E-32
   4.870000      9.0567880E-33
   4.880000      7.5828606E-33
   4.890000      5.9366333E-33
   4.900000      4.1145763E-33
   4.910000      2.1140213E-33
   4.920000     -6.7705369E-35
   4.930000     -2.4324848E-33
   4.940000     -4.9808807E-33
   4.950000     -7.7130870E-33
   4.960000     -1.0627852E-32
   4.970000     -1.3723097E-32
   4.980000     -1.6995725E-32
   4.990000     -2.0442227E-32
   5.000000     -2.4057388E-32
   5.010000     -2.7832574E-32
   5.020000     -3.1762178E-32
   5.030000     -3.5838813E-32
   5.040000     -4.0049533E-32
   5.050000     -4.4383361E-32
   5.060000     -4.8826750E-32
   5.070000     -5.3363276E-32
   5.080000     -5.7976269E-32
   5.090000     -6.2646843E-32
   5.100000     -6.7354104E-32
   5.110000     -7.2075066E-32
   5.120000     -7.6784637E-32
   5.130000     -8.1455193E-32
   5.140000     -8.6058271E-32
   5.150000     -9.0564111E-32
   5.160000     -9.4938566E-32
   5.170000     -9.9144673E-32
   5.180000     -1.0314476E-31
   5.190000     -1.0689956E-31
   5.200000     -1.1036727E-31
   5.210000     -1.1350437E-31
   5.220000     -1.1626583E-31
   5.230000     -1.1860490E-31
   5.240000     -1.2047343E-31
   5.250000     -1.2182218E-31
   5.260000     -1.2260095E-31
   5.270000     -1.2275881E-31
   5.280000     -1.2224441E-31
   5.290000     -1.2100545E-31
   5.300000     -1.1899014E-31
   5.310000     -1.1614827E-31
   5.320000     -1.1242896E-31
   5.330000     -1.0778125E-31
   5.340000     -1.0215574E-31
   5.350000     -9.5504414E-32
   5.360000     -8.7780734E-32
   5.370000     -7.8939900E-32
   5.380000     -6.8939129E-32
   5.390000     -5.7737961E-32
   5.400000     -4.5298803E-32
   5.410000     -3.1586635E-32
   5.420000     -1.6569799E-32
   5.430000     -2.2067634E-34
   5.440000      1.7484490E-32
   5.450000      3.6564965E-32
   5.460000      5.7035068E-32
   5.470000      7.8903742E-32
   5.480000      1.0217402E-31
   5.490000      1.2684246E-31
   5.500000      1.5289868E-31
   5.510000      1.8032468E-31
   5.520000      2.0909428E-31
   5.530000      2.3917269E-31
   5.540000      2.7051588E-31
   5.550000      3.0306920E-31
   5.560000      3.3676825E-31
   5.570000      3.7153770E-31
   5.580000      4.0728980E-31
   5.590000      4.4392516E-31
   5.600000      4.8133174E-31
   5.610000      5.1938461E-31
   5.620000      5.5794548E-31
   5.630000      5.9686266E-31
   5.640000      6.3597070E-31
   5.650000      6.7509021E-31
   5.660000      7.1402785E-31
   5.670000      7.5257617E-31
   5.680000      7.9051356E-31
   5.690000      8.2760501E-31
   5.700000      8.6360156E-31
   5.710000      8.9824075E-31
   5.720000      9.3124666E-31
   5.730000      9.6233058E-31
   5.740000      9.9119104E-31
   5.750000      1.0175139E-30
   5.760000      1.0409737E-30
   5.770000      1.0612331E-30
   5.780000      1.0779437E-30
   5.790000      1.0907472E-30
   5.800000      1.0992752E-30
   5.810000      1.1031507E-30
   5.820000      1.1019881E-30
   5.830000      1.0953952E-30
   5.840000      1.0829734E-30
   5.850000      1.0643191E-30
   5.860000      1.0390257E-30
   5.870000      1.0066842E-30
   5.880000      9.6688586E-31
   5.890000      9.1922323E-31
   5.900000      8.6329274E-31
   5.910000      7.9869707E-31
   5.920000      7.2504722E-31
   5.930000      6.4196544E-31
   5.940000      5.4908803E-31
   5.950000      4.4606794E-31
   5.960000      3.3257829E-31
   5.970000      2.0831525E-31
   5.980000      7.3001608E-32
   5.990000     -7.3609932E-32
   6.000000     -2.3173348E-31
   6.010000     -4.0154624E-31
   6.020000     -5.8318499E-31
   6.030000     -7.7674264E-31
   6.040000     -9.8226452E-31
   6.050000     -1.1997456E-30
   6.060000     -1.4291258E-30
   6.070000     -1.6702868E-30
   6.080000     -1.9230491E-30
   6.090000     -2.1871682E-30
   6.100000     -2.4623312E-30
   6.110000     -2.7481531E-30
   6.120000     -3.0441736E-30
   6.130000     -3.3498535E-30
   6.140000     -3.6645715E-30
   6.150000     -3.9876195E-30
   6.160000     -4.3182020E-30
   6.170000     -4.6554293E-30
   6.180000     -4.9983163E-30
   6.190000     -5.3457785E-30
   6.200000     -5.6966299E-30
   6.210000     -6.0495773E-30
   6.220000     -6.4032213E-30
   6.230000     -6.7560494E-30
   6.240000     -7.1064385E-30
   6.250000     -7.4526492E-30
   6.260000     -7.7928264E-30
   6.270000     -8.1249966E-30
   6.280000     -8.4470693E-30
   6.290000     -8.7568378E-30
   6.300000     -9.0519768E-30
   6.310000     -9.3300465E-30
   6.320000     -9.5884943E-30
   6.330000     -9.8246569E-30
   6.340000     -1.0035764E-29
   6.350000     -1.0218944E-29
   6.360000     -1.0371229E-29
   6.370000     -1.0489559E-29
   6.380000     -1.0570792E-29
   6.390000     -1.0611707E-29
   6.400000     -1.0609017E-29
   6.410000     -1.0559374E-29
   6.420000     -1.0459383E-29
   6.430000     -1.0305607E-29
   6.440000     -1.0094584E-29
   6.450000     -9.8228340E-30
   6.460000     -9.4868751E-30
   6.470000     -9.0832371E-30
   6.480000     -8.6084728E-30
   6.490000     -8.0591772E-30
   6.500000     -7.4320004E-30
   6.510000     -6.7236697E-30
   6.520000     -5.9310028E-30
   6.530000     -5.0509288E-30
   6.540000     -4.0805103E-30
   6.550000     -3.0169672E-30
   6.560000     -1.8576920E-30
   6.570000     -6.0028063E-31
   6.580000      7.5744163E-31
   6.590000      2.2173948E-30
   6.600000      3.7812193E-30
   6.610000      5.4502467E-30
   6.620000      7.2254632E-30
   6.630000      9.1074842E-30
   6.640000      1.1096524E-29
   6.650000      1.3192363E-29
   6.660000      1.5394307E-29
   6.670000      1.7701171E-29
   6.680000      2.0111229E-29
   6.690000      2.2622185E-29
   6.700000      2.5231151E-29
   6.710000      2.7934603E-29
   6.720000      3.0728348E-29
   6.730000      3.3607502E-29
   6.740000      3.6566449E-29
   6.750000      3.9598823E-29
   6.760000      4.2697467E-29
   6.770000      4.5854409E-29
   6.780000      4.9060841E-29
   6.790000      5.2307096E-29
   6.800000      5.5582615E-29
   6.810000      5.8875925E-29
   6.820000      6.2174634E-29
   6.830000      6.5465398E-29
   6.840000      6.8733906E-29
   6.850000      7.1964876E-29
   6.860000      7.5142041E-29
   6.870000      7.8248132E-29
   6.880000      8.1264885E-29
   6.890000      8.4173027E-29
   6.900000      8.6952306E-29
   6.910000      8.9581472E-29
   6.920000      9.2038278E-29
   6.930000      9.4299525E-29
   6.940000      9.6341082E-29
   6.950000      9.8137909E-29
   6.960000      9.9664082E-29
   6.970000      1.0089283E-28
   6.980000      1.0179663E-28
   6.990000      1.0234722E-28
   7.000000      1.0251566E-28
   7.010000      1.0227244E-28
   7.020000      1.0158753E-28
   7.030000      1.0043049E-28
   7.040000      9.8770571E-29
   7.050000      9.6576786E-29
   7.060000      9.3818090E-29