  -2.600000      0.0000000E+00
  -2.590000      0.0000000E+00
  -2.580000      0.0000000E+00
  -2.570000      0.0000000E+00
  -2.560000      0.0000000E+00
  -2.550000      0.0000000E+00
  -2.540000      0.0000000E+00
  -2.530000      0.0000000E+00
  -2.520000      0.0000000E+00
  -2.510000      0.0000000E+00
  -2.500000      0.0000000E+00
  -2.490000      0.0000000E+00
  -2.480000      0.0000000E+00
  -2.470000      0.0000000E+00
  -2.460000      0.0000000E+00
  -2.450000      0.0000000E+00
  -2.440000      0.0000000E+00
  -2.430000      0.0000000E+00
  -2.420000      0.0000000E+00
  -2.410000      0.0000000E+00
  -2.400000      0.0000000E+00
  -2.390000      0.0000000E+00
  -2.380000      0.0000000E+00
  -2.370000      0.0000000E+00
  -2.360000      0.0000000E+00
  -2.350000      0.0000000E+00
  -2.340000      0.0000000E+00
  -2.330000      0.0000000E+00
  -2.320000      0.0000000E+00
  -2.310000      0.0000000E+00
  -2.300000      0.0000000E+00
  -2.290000      0.0000000E+00
  -2.280000      0.0000000E+00
  -2.270000      0.0000000E+00
  -2.260000      0.0000000E+00
  -2.250000      0.0000000E+00
  -2.240000      0.0000000E+00
  -2.230000      0.0000000E+00
  -2.220000      0.0000000E+00
  -2.210000      0.0000000E+00
  -2.200000      0.0000000E+00
  -2.190000      0.0000000E+00
  -2.180000      0.0000000E+00
  -2.170000      0.0000000E+00
  -2.160000      0.0000000E+00
  -2.150000      0.0000000E+00
  -2.140000      0.0000000E+00
  -2.130000      0.0000000E+00
  -2.120000      0.0000000E+00
  -2.110000      0.0000000E+00
  -2.100000      0.0000000E+00
  -2.090000      0.0000000E+00
  -2.080000      0.0000000E+00
  -2.070000      0.0000000E+00
  -2.060000      0.0000000E+00
  -2.050000      0.0000000E+00
  -2.040000      0.0000000E+00
  -2.030000      0.0000000E+00
  -2.020000      0.0000000E+00
  -2.010000      0.0000000E+00
  -2.000000      0.0000000E+00
  -1.990000      0.0000000E+00
  -1.980000      0.0000000E+00
  -1.970000      0.0000000E+00
  -1.960000      0.0000000E+00
  -1.950000      0.0000000E+00
  -1.940000      0.0000000E+00
  -1.930000      0.0000000E+00
  -1.920000      0.0000000E+00
  -1.910000      0.0000000E+00
  -1.900000      0.0000000E+00
  -1.890000      0.0000000E+00
  -1.880000      0.0000000E+00
  -1.870000      0.0000000E+00
  -1.860000      0.0000000E+00
  -1.850000      0.0000000E+00
  -1.840000      0.0000000E+00
  -1.830000      0.0000000E+00
  -1.820000      0.0000000E+00
  -1.810000      0.0000000E+00
  -1.800000      0.0000000E+00
  -1.790000      0.0000000E+00
  -1.780000      0.0000000E+00
  -1.770000      0.0000000E+00
  -1.760000      0.0000000E+00
  -1.750000      0.0000000E+00
  -1.740000      0.0000000E+00
  -1.730000      0.0000000E+00
  -1.720000      0.0000000E+00
  -1.710000      0.0000000E+00
  -1.700000      0.0000000E+00
  -1.690000      0.0000000E+00
  -1.680000      0.0000000E+00
  -1.670000      0.0000000E+00
  -1.660000      0.0000000E+00
  -1.650000      0.0000000E+00
  -1.640000      0.0000000E+00
  -1.630000      0.0000000E+00
  -1.620000      0.0000000E+00
  -1.610000      0.0000000E+00
  -1.600000      0.0000000E+00
  -1.590000      0.0000000E+00
  -1.580000      0.0000000E+00
  -1.570000      0.0000000E+00
  -1.560000      0.0000000E+00
  -1.550000      0.0000000E+00
  -1.540000      0.0000000E+00
  -1.530000      0.0000000E+00
  -1.520000      0.0000000E+00
  -1.510000      0.0000000E+00
  -1.500000      0.0000000E+00
  -1.490000      0.0000000E+00
  -1.480000      0.0000000E+00
  -1.470000      0.0000000E+00
  -1.460000      0.0000000E+00
  -1.450000      0.0000000E+00
  -1.440000      0.0000000E+00
  -1.430000      0.0000000E+00
  -1.420000      0.0000000E+00
  -1.410000      0.0000000E+00
  -1.400000      0.0000000E+00
  -1.390000      0.0000000E+00
  -1.380000      0.0000000E+00
  -1.370000      0.0000000E+00
  -1.360000      0.0000000E+00
  -1.350000      0.0000000E+00
  -1.340000      0.0000000E+00
  -1.330000      0.0000000E+00
  -1.320000      0.0000000E+00
  -1.310000      0.0000000E+00
  -1.300000      0.0000000E+00
  -1.290000      0.0000000E+00
  -1.280000      0.0000000E+00
  -1.270000      0.0000000E+00
  -1.260000      0.0000000E+00
  -1.250000      0.0000000E+00
  -1.240000      0.0000000E+00
  -1.230000      0.0000000E+00
  -1.220000      0.0000000E+00
  -1.210000      0.0000000E+00
  -1.200000      0.0000000E+00
  -1.190000      0.0000000E+00
  -1.180000      0.0000000E+00
  -1.170000      0.0000000E+00
  -1.160000      0.0000000E+00
  -1.150000      0.0000000E+00
  -1.140000      0.0000000E+00
  -1.130000      0.0000000E+00
  -1.120000      0.0000000E+00
  -1.110000      0.0000000E+00
  -1.100000      0.0000000E+00
  -1.090000      0.0000000E+00
  -1.080000      0.0000000E+00
  -1.070000      0.0000000E+00
  -1.060000      0.0000000E+00
  -1.050000      0.0000000E+00
  -1.040000      0.0000000E+00
  -1.030000      0.0000000E+00
  -1.020000      0.0000000E+00
  -1.010000      0.0000000E+00
  -1.000000      0.0000000E+00
 -0.9900000      0.0000000E+00
 -0.9800000      0.0000000E+00
 -0.9700000      0.0000000E+00
 -0.9600000      0.0000000E+00
 -0.9500000      0.0000000E+00
 -0.9400000      0.0000000E+00
 -0.9300000      0.0000000E+00
 -0.9200000      0.0000000E+00
 -0.9100000      0.0000000E+00
 -0.9000000      0.0000000E+00
 -0.8900000      0.0000000E+00
 -0.8800000      0.0000000E+00
 -0.8700000      0.0000000E+00
 -0.8600000      0.0000000E+00
 -0.8500000      0.0000000E+00
 -0.8400000      0.0000000E+00
 -0.8300000      0.0000000E+00
 -0.8200000      0.0000000E+00
 -0.8100000      0.0000000E+00
 -0.8000000      0.0000000E+00
 -0.7900000      0.0000000E+00
 -0.7800000      0.0000000E+00
 -0.7700000      0.0000000E+00
 -0.7600000      0.0000000E+00
 -0.7500000      0.0000000E+00
 -0.7400000      0.0000000E+00
 -0.7300000      0.0000000E+00
 -0.7200000      0.0000000E+00
 -0.7100000      0.0000000E+00
 -0.7000000      0.0000000E+00
 -0.6900000      0.0000000E+00
 -0.6800000      0.0000000E+00
 -0.6700000      0.0000000E+00
 -0.6600000      0.0000000E+00
 -0.6500000      0.0000000E+00
 -0.6400000      0.0000000E+00
 -0.6300000      0.0000000E+00
 -0.6200000      0.0000000E+00
 -0.6100000      0.0000000E+00
 -0.6000000      0.0000000E+00
 -0.5900000      0.0000000E+00
 -0.5800000      0.0000000E+00
 -0.5700000      0.0000000E+00
 -0.5600000      0.0000000E+00
 -0.5500000      0.0000000E+00
 -0.5400000      0.0000000E+00
 -0.5300000      0.0000000E+00
 -0.5200000      0.0000000E+00
 -0.5100000      0.0000000E+00
 -0.5000000      0.0000000E+00
 -0.4900000      0.0000000E+00
 -0.4800000      0.0000000E+00
 -0.4700000      0.0000000E+00
 -0.4600000      0.0000000E+00
 -0.4500000      0.0000000E+00
 -0.4400000      0.0000000E+00
 -0.4300000      0.0000000E+00
 -0.4200000      0.0000000E+00
 -0.4100000      0.0000000E+00
 -0.4000000      0.0000000E+00
 -0.3900000      0.0000000E+00
 -0.3800000      0.0000000E+00
 -0.3700000      0.0000000E+00
 -0.3600000      0.0000000E+00
 -0.3500000      0.0000000E+00
 -0.3400000      0.0000000E+00
 -0.3300000      0.0000000E+00
 -0.3200000      0.0000000E+00
 -0.3100000      0.0000000E+00
 -0.3000000      0.0000000E+00
 -0.2900000      0.0000000E+00
 -0.2800000      0.0000000E+00
 -0.2700000      0.0000000E+00
 -0.2600000      0.0000000E+00
 -0.2500000      0.0000000E+00
 -0.2400000      0.0000000E+00
 -0.2300000      0.0000000E+00
 -0.2200000      0.0000000E+00
 -0.2100000      0.0000000E+00
 -0.2000000      0.0000000E+00
 -0.1900000      0.0000000E+00
 -0.1800000      0.0000000E+00
 -0.1700000      0.0000000E+00
 -0.1600000      0.0000000E+00
 -0.1500000      0.0000000E+00
 -0.1400000      0.0000000E+00
 -0.1300000      0.0000000E+00
 -0.1200000      0.0000000E+00
 -0.1100000      0.0000000E+00
 -0.1000000      0.0000000E+00
 -9.0000004E-02  0.0000000E+00
 -7.9999998E-02  0.0000000E+00
 -7.0000000E-02  0.0000000E+00
 -5.9999999E-02  0.0000000E+00
 -5.0000001E-02  0.0000000E+00
 -3.9999999E-02  0.0000000E+00
 -2.9999999E-02  0.0000000E+00
 -2.0000000E-02  0.0000000E+00
 -9.9999998E-03  0.0000000E+00
 -3.4694470E-17  0.0000000E+00
  9.9999998E-03  0.0000000E+00
  2.0000000E-02  0.0000000E+00
  2.9999999E-02  0.0000000E+00
  3.9999999E-02  0.0000000E+00
  5.0000001E-02  0.0000000E+00
  5.9999999E-02  0.0000000E+00
  7.0000000E-02  0.0000000E+00
  7.9999998E-02  0.0000000E+00
  9.0000004E-02  0.0000000E+00
  0.1000000      0.0000000E+00
  0.1100000      0.0000000E+00
  0.1200000      0.0000000E+00
  0.1300000      0.0000000E+00
  0.1400000      0.0000000E+00
  0.1500000      0.0000000E+00
  0.1600000      0.0000000E+00
  0.1700000      0.0000000E+00
  0.1800000      0.0000000E+00
  0.1900000      0.0000000E+00
  0.2000000      0.0000000E+00
  0.2100000      0.0000000E+00
  0.2200000      0.0000000E+00
  0.2300000      0.0000000E+00
  0.2400000      0.0000000E+00
  0.2500000      0.0000000E+00
  0.2600000      0.0000000E+00
  0.2700000      0.0000000E+00
  0.2800000      0.0000000E+00
  0.2900000      0.0000000E+00
  0.3000000      0.0000000E+00
  0.3100000      0.0000000E+00
  0.3200000      0.0000000E+00
  0.3300000      0.0000000E+00
  0.3400000      0.0000000E+00
  0.3500000      0.0000000E+00
  0.3600000      0.0000000E+00
  0.3700000      0.0000000E+00
  0.3800000      0.0000000E+00
  0.3900000      0.0000000E+00
  0.4000000      0.0000000E+00
  0.4100000      0.0000000E+00
  0.4200000      0.0000000E+00
  0.4300000      0.0000000E+00
  0.4400000      0.0000000E+00
  0.4500000      0.0000000E+00
  0.4600000      0.0000000E+00
  0.4700000      0.0000000E+00
  0.4800000      0.0000000E+00
  0.4900000      0.0000000E+00
  0.5000000      0.0000000E+00
  0.5100000      0.0000000E+00
  0.5200000      0.0000000E+00
  0.5300000      0.0000000E+00
  0.5400000      0.0000000E+00
  0.5500000      0.0000000E+00
  0.5600000      0.0000000E+00
  0.5700000      0.0000000E+00
  0.5800000      0.0000000E+00
  0.5900000      0.0000000E+00
  0.6000000      0.0000000E+00
  0.6100000      0.0000000E+00
  0.6200000      0.0000000E+00
  0.6300000      0.0000000E+00
  0.6400000      0.0000000E+00
  0.6500000      0.0000000E+00
  0.6600000      0.0000000E+00
  0.6700000      0.0000000E+00
  0.6800000      0.0000000E+00
  0.6900000      0.0000000E+00
  0.7000000      0.0000000E+00
  0.7100000      0.0000000E+00
  0.7200000      0.0000000E+00
  0.7300000      0.0000000E+00
  0.7400000      0.0000000E+00
  0.7500000      0.0000000E+00
  0.7600000      0.0000000E+00
  0.7700000      0.0000000E+00
  0.7800000      0.0000000E+00
  0.7900000      0.0000000E+00
  0.8000000      0.0000000E+00
  0.8100000      0.0000000E+00
  0.8200000      0.0000000E+00
  0.8300000      0.0000000E+00
  0.8400000      0.0000000E+00
  0.8500000      0.0000000E+00
  0.8600000      0.0000000E+00
  0.8700000      0.0000000E+00
  0.8800000      0.0000000E+00
  0.8900000      0.0000000E+00
  0.9000000      0.0000000E+00
  0.9100000      0.0000000E+00
  0.9200000      0.0000000E+00
  0.9300000      0.0000000E+00
  0.9400000      0.0000000E+00
  0.9500000      0.0000000E+00
  0.9600000      0.0000000E+00
  0.9700000      0.0000000E+00
  0.9800000      0.0000000E+00
  0.9900000      0.0000000E+00
   1.000000      0.0000000E+00
   1.010000      0.0000000E+00
   1.020000      0.0000000E+00
   1.030000      0.0000000E+00
   1.040000      0.0000000E+00
   1.050000      0.0000000E+00
   1.060000      0.0000000E+00
   1.070000      0.0000000E+00
   1.080000      0.0000000E+00
   1.090000      0.0000000E+00
   1.100000      0.0000000E+00
   1.110000      0.0000000E+00
   1.120000      0.0000000E+00
   1.130000      0.0000000E+00
   1.140000      0.0000000E+00
   1.150000      0.0000000E+00
   1.160000      0.0000000E+00
   1.170000      0.0000000E+00
   1.180000      0.0000000E+00
   1.190000      0.0000000E+00
   1.200000      0.0000000E+00
   1.210000      0.0000000E+00
   1.220000      0.0000000E+00
   1.230000      0.0000000E+00
   1.240000      0.0000000E+00
   1.250000      0.0000000E+00
   1.260000      0.0000000E+00
   1.270000      0.0000000E+00
   1.280000      0.0000000E+00
   1.290000      0.0000000E+00
   1.300000      0.0000000E+00
   1.310000      0.0000000E+00
   1.320000      0.0000000E+00
   1.330000      0.0000000E+00
   1.340000      0.0000000E+00
   1.350000      0.0000000E+00
   1.360000      0.0000000E+00
   1.370000      0.0000000E+00
   1.380000      0.0000000E+00
   1.390000      0.0000000E+00
   1.400000      0.0000000E+00
   1.410000      0.0000000E+00
   1.420000      0.0000000E+00
   1.430000      0.0000000E+00
   1.440000      0.0000000E+00
   1.450000      0.0000000E+00
   1.460000      0.0000000E+00
   1.470000      0.0000000E+00
   1.480000      0.0000000E+00
   1.490000      0.0000000E+00
   1.500000      0.0000000E+00
   1.510000      0.0000000E+00
   1.520000      0.0000000E+00
   1.530000      0.0000000E+00
   1.540000      0.0000000E+00
   1.550000      0.0000000E+00
   1.560000      0.0000000E+00
   1.570000      0.0000000E+00
   1.580000      0.0000000E+00
   1.590000      0.0000000E+00
   1.600000      0.0000000E+00
   1.610000      0.0000000E+00
   1.620000      0.0000000E+00
   1.630000      0.0000000E+00
   1.640000      0.0000000E+00
   1.650000      0.0000000E+00
   1.660000      0.0000000E+00
   1.670000      0.0000000E+00
   1.680000      0.0000000E+00
   1.690000      0.0000000E+00
   1.700000      0.0000000E+00
   1.710000      0.0000000E+00
   1.720000      0.0000000E+00
   1.730000      0.0000000E+00
   1.740000      0.0000000E+00
   1.750000      0.0000000E+00
   1.760000      0.0000000E+00
   1.770000      0.0000000E+00
   1.780000      0.0000000E+00
   1.790000      0.0000000E+00
   1.800000      0.0000000E+00
   1.810000      0.0000000E+00
   1.820000      0.0000000E+00
   1.830000      0.0000000E+00
   1.840000      0.0000000E+00
   1.850000      0.0000000E+00
   1.860000      0.0000000E+00
   1.870000      0.0000000E+00
   1.880000      0.0000000E+00
   1.890000      0.0000000E+00
   1.900000      0.0000000E+00
   1.910000      0.0000000E+00
   1.920000      0.0000000E+00
   1.930000      0.0000000E+00
   1.940000      0.0000000E+00
   1.950000      0.0000000E+00
   1.960000      0.0000000E+00
   1.970000      0.0000000E+00
   1.980000      0.0000000E+00
   1.990000      0.0000000E+00
   2.000000      0.0000000E+00
   2.010000      0.0000000E+00
   2.020000      0.0000000E+00
   2.030000      0.0000000E+00
   2.040000      0.0000000E+00
   2.050000      0.0000000E+00
   2.060000      0.0000000E+00
   2.070000      0.0000000E+00
   2.080000      0.0000000E+00
   2.090000      0.0000000E+00
   2.100000      0.0000000E+00
   2.110000      0.0000000E+00
   2.120000      0.0000000E+00
   2.130000      0.0000000E+00
   2.140000      0.0000000E+00
   2.150000      0.0000000E+00
   2.160000      0.0000000E+00
   2.170000      0.0000000E+00
   2.180000      0.0000000E+00
   2.190000      0.0000000E+00
   2.200000      0.0000000E+00
   2.210000      0.0000000E+00
   2.220000      0.0000000E+00
   2.230000      0.0000000E+00
   2.240000      0.0000000E+00
   2.250000      1.2384746E-38
   2.260000      1.3522843E-38
   2.270000      1.5041829E-38
   2.280000      1.6768710E-38
   2.290000      1.8705657E-38
   2.300000      2.0849756E-38
   2.310000      2.3192712E-38
   2.320000      2.5722691E-38
   2.330000      2.8426166E-38
   2.340000      3.1125927E-38
   2.350000      3.3416551E-38
   2.360000      3.5428682E-38
   2.370000      3.7557641E-38
   2.380000      3.9864635E-38
   2.390000      4.2434669E-38
   2.400000      4.5364843E-38
   2.410000      4.7273303E-38
   2.420000      4.8363855E-38
   2.430000      4.9588769E-38
   2.440000      5.0305718E-38
   2.450000      5.0505050E-38
   2.460000      5.0092771E-38
   2.470000      4.7259390E-38
   2.480000      4.1154295E-38
   2.490000      3.2141605E-38
   2.500000      2.0007955E-38
   2.510000      0.0000000E+00
   2.520000     -1.3926492E-38
   2.530000     -3.4723655E-38
   2.540000     -5.1997237E-38
   2.550000     -6.5220887E-38
   2.560000     -7.9692600E-38
   2.570000     -9.5917142E-38
   2.580000     -1.1357699E-37
   2.590000     -1.3277153E-37
   2.600000     -1.5419306E-37
   2.610000     -1.7882949E-37
   2.620000     -2.0668150E-37
   2.630000     -2.3662496E-37
   2.640000     -2.6940086E-37
   2.650000     -3.0326244E-37
   2.660000     -3.3777134E-37
   2.670000     -3.7454098E-37
   2.680000     -4.1675361E-37
   2.690000     -4.6268095E-37
   2.700000     -5.0749914E-37
   2.710000     -5.5248477E-37
   2.720000     -5.9311009E-37
   2.730000     -6.0934327E-37
   2.740000     -5.9737932E-37
   2.750000     -6.2000807E-37
   2.760000     -7.1699653E-37
   2.770000     -8.4660902E-37
   2.780000     -9.8634892E-37
   2.790000     -1.1410039E-36
   2.800000     -1.3049584E-36
   2.810000     -1.4780061E-36
   2.820000     -1.6672020E-36
   2.830000     -1.7543494E-36
   2.840000     -1.7090511E-36
   2.850000     -1.4784132E-36
   2.860000     -1.0545037E-36
   2.870000     -5.5071770E-37
   2.880000      1.5905197E-38
   2.890000      5.8168397E-37
   2.900000      1.1493905E-36
   2.910000      1.7412801E-36
   2.920000      2.3562194E-36
   2.930000      2.9615945E-36
   2.940000      3.5368364E-36
   2.950000      4.0940415E-36
   2.960000      4.6324439E-36
   2.970000      5.1022733E-36
   2.980000      5.4105353E-36
   2.990000      5.6919239E-36
   3.000000      6.0322727E-36
   3.010000      6.3539688E-36
   3.020000      6.6238676E-36
   3.030000      6.8756770E-36
   3.040000      7.2204210E-36
   3.050000      7.5896872E-36
   3.060000      7.9229632E-36
   3.070000      8.4352726E-36
   3.080000      9.0752268E-36
   3.090000      9.6036454E-36
   3.100000      1.0075675E-35
   3.110000      1.0743645E-35
   3.120000      1.1612377E-35
   3.130000      1.2513271E-35
   3.140000      1.3476948E-35
   3.150000      1.4341568E-35
   3.160000      1.4733926E-35
   3.170000      1.4710481E-35
   3.180000      1.4575589E-35
   3.190000      1.4304582E-35
   3.200000      1.3772720E-35
   3.210000      1.2579751E-35
   3.220000      1.0518122E-35
   3.230000      7.8960160E-36
   3.240000      4.9611874E-36
   3.250000      1.7881209E-36
   3.260000     -1.5559631E-36
   3.270000     -4.7006684E-36
   3.280000     -7.8367971E-36
   3.290000     -1.1311141E-35
   3.300000     -1.5098602E-35
   3.310000     -1.8996828E-35
   3.320000     -2.2800686E-35
   3.330000     -2.6607599E-35
   3.340000     -3.0678724E-35
   3.350000     -3.5050908E-35
   3.360000     -3.9658444E-35
   3.370000     -4.4220597E-35
   3.380000     -4.8081341E-35
   3.390000     -5.1560488E-35
   3.400000     -5.5546545E-35
   3.410000     -6.0960437E-35
   3.420000     -6.7491743E-35
   3.430000     -7.5170797E-35
   3.440000     -8.4125229E-35
   3.450000     -9.3140031E-35
   3.460000     -1.0209855E-34
   3.470000     -1.1172582E-34
   3.480000     -1.2184742E-34
   3.490000     -1.2979891E-34
   3.500000     -1.3406684E-34
   3.510000     -1.3631251E-34
   3.520000     -1.3391884E-34
   3.530000     -1.2630377E-34
   3.540000     -1.1684060E-34
   3.550000     -1.0593070E-34
   3.560000     -9.4129426E-35
   3.570000     -8.1466172E-35
   3.580000     -6.7833302E-35
   3.590000     -5.4072585E-35
   3.600000     -4.0066208E-35
   3.610000     -2.5563375E-35
   3.620000     -1.3480663E-35
   3.630000     -2.2343124E-36
   3.640000      1.0944880E-35
   3.650000      2.3130226E-35
   3.660000      3.4444742E-35
   3.670000      4.8014100E-35
   3.680000      6.4271858E-35
   3.690000      8.2008920E-35
   3.700000      1.0201391E-34
   3.710000      1.2261522E-34
   3.720000      1.4385812E-34
   3.730000      1.6678301E-34
   3.740000      1.8936064E-34
   3.750000      2.1551050E-34
   3.760000      2.4670965E-34
   3.770000      2.8041535E-34
   3.780000      3.1792475E-34
   3.790000      3.5654707E-34
   3.800000      3.9429621E-34
   3.810000      4.3217610E-34
   3.820000      4.6967570E-34
   3.830000      5.0663761E-34
   3.840000      5.4136272E-34
   3.850000      5.7357195E-34
   3.860000      6.0345169E-34
   3.870000      6.3014698E-34
   3.880000      6.5355355E-34
   3.890000      6.7304270E-34
   3.900000      6.8802718E-34
   3.910000      6.9780412E-34
   3.920000      7.0117108E-34
   3.930000      6.9847277E-34
   3.940000      6.8899939E-34
   3.950000      6.7136624E-34
   3.960000      6.4704568E-34
   3.970000      6.1558752E-34
   3.980000      5.7532840E-34
   3.990000      5.2667685E-34
   4.000000      4.6911059E-34
   4.010000      4.0293889E-34
   4.020000      3.2869809E-34
   4.030000      2.4570908E-34
   4.040000      1.5354394E-34
   4.050000      5.3668618E-35
   4.060000     -5.4130281E-35
   4.070000     -1.6850115E-34
   4.080000     -2.8809068E-34
   4.090000     -4.1484513E-34
   4.100000     -5.4896569E-34
   4.110000     -6.9090957E-34
   4.120000     -8.3951997E-34
   4.130000     -9.9097471E-34
   4.140000     -1.1419627E-33
   4.150000     -1.2998898E-33
   4.160000     -1.4666169E-33
   4.170000     -1.6364294E-33
   4.180000     -1.8102646E-33
   4.190000     -1.9873953E-33
   4.200000     -2.1670936E-33
   4.210000     -2.3486469E-33
   4.220000     -2.5306380E-33
   4.230000     -2.7123379E-33
   4.240000     -2.8922969E-33
   4.250000     -3.0687309E-33
   4.260000     -3.2396250E-33
   4.270000     -3.4032791E-33
   4.280000     -3.5597716E-33
   4.290000     -3.7062231E-33
   4.300000     -3.8384787E-33
   4.310000     -3.9545140E-33
   4.320000     -4.0516138E-33
   4.330000     -4.1270483E-33
   4.340000     -4.1782454E-33
   4.350000     -4.2022795E-33
   4.360000     -4.1959017E-33
   4.370000     -4.1562299E-33
   4.380000     -4.0813337E-33
   4.390000     -3.9702597E-33
   4.400000     -3.8218492E-33
   4.410000     -3.6337583E-33
   4.420000     -3.4037254E-33
   4.430000     -3.1293783E-33
   4.440000     -2.8075772E-33
   4.450000     -2.4359582E-33
   4.460000     -2.0148667E-33
   4.470000     -1.5477040E-33
   4.480000     -1.0310716E-33
   4.490000     -4.6090371E-34
   4.500000      1.5967728E-34
   4.510000      8.2838777E-34
   4.520000      1.5474704E-33
   4.530000      2.3172039E-33
   4.540000      3.1351962E-33
   4.550000      3.9993675E-33
   4.560000      4.9078946E-33
   4.570000      5.8604311E-33
   4.580000      6.8560708E-33
   4.590000      7.8938332E-33
   4.600000      8.9730487E-33
   4.610000      1.0091634E-32
   4.620000      1.1244360E-32
   4.630000      1.2426932E-32
   4.640000      1.3635399E-32
   4.650000      1.4864470E-32
   4.660000      1.6108490E-32
   4.670000      1.7361506E-32
   4.680000      1.8616306E-32
   4.690000      1.9864492E-32
   4.700000      2.1097045E-32
   4.710000      2.2304614E-32
   4.720000      2.3477565E-32
   4.730000      2.4605740E-32
   4.740000      2.5679429E-32
   4.750000      2.6686481E-32
   4.760000      2.7613376E-32
   4.770000      2.8447730E-32
   4.780000      2.9177227E-32
   4.790000      2.9788831E-32
   4.800000      3.0268245E-32
   4.810000      3.0602006E-32
   4.820000      3.0776326E-32
   4.830000      3.0777252E-32
   4.840000      3.0591479E-32
   4.850000      3.0205024E-32
   4.860000      2.9603826E-32
   4.870000      2.8774356E-32
   4.880000      2.7703498E-32
   4.890000      2.6378320E-32
   4.900000      2.4786004E-32
   4.910000      2.2913494E-32
   4.920000      2.0750207E-32
   4.930000      1.8286524E-32
   4.940000      1.5511447E-32
   4.950000      1.2412437E-32
   4.960000      8.9822036E-33
   4.970000      5.2144702E-33
   4.980000      1.1015940E-33
   4.990000     -3.3615704E-33
   5.000000     -8.1818793E-33
   5.010000     -1.3359338E-32
   5.020000     -1.8893538E-32
   5.030000     -2.4785495E-32
   5.040000     -3.1031573E-32
   5.050000     -3.7625784E-32
   5.060000     -4.4559823E-32
   5.070000     -5.1822674E-32
   5.080000     -5.9400363E-32
   5.090000     -6.7276234E-32
   5.100000     -7.5430673E-32
   5.110000     -8.3840883E-32
   5.120000     -9.2480654E-32
   5.130000     -1.0132085E-31
   5.140000     -1.1032893E-31
   5.150000     -1.1946917E-31
   5.160000     -1.2870186E-31
   5.170000     -1.3798428E-31
   5.180000     -1.4727159E-31
   5.190000     -1.5651466E-31
   5.200000     -1.6566096E-31
   5.210000     -1.7465466E-31
   5.220000     -1.8343658E-31
   5.230000     -1.9194385E-31
   5.240000     -2.0011007E-31
   5.250000     -2.0786659E-31
   5.260000     -2.1514121E-31
   5.270000     -2.2185789E-31
   5.280000     -2.2793788E-31
   5.290000     -2.3329952E-31
   5.300000     -2.3785837E-31
   5.310000     -2.4152734E-31
   5.320000     -2.4421711E-31
   5.330000     -2.4583638E-31
   5.340000     -2.4629195E-31
   5.350000     -2.4548968E-31
   5.360000     -2.4333361E-31
   5.370000     -2.3972724E-31
   5.380000     -2.3457474E-31
   5.390000     -2.2778031E-31
   5.400000     -2.1924956E-31
   5.410000     -2.0888944E-31
   5.420000     -1.9660894E-31
   5.430000     -1.8232018E-31
   5.440000     -1.6593886E-31
   5.450000     -1.4738488E-31
   5.460000     -1.2658314E-31
   5.470000     -1.0346434E-31
   5.480000     -7.7966356E-32
   5.490000     -5.0032925E-32
   5.500000     -1.9615376E-32
   5.510000      1.3325307E-32
   5.520000      4.8819585E-32
   5.530000      8.6888087E-32
   5.540000      1.2754111E-31
   5.550000      1.7077791E-31
   5.560000      2.1658594E-31
   5.570000      2.6494028E-31
   5.580000      3.1580279E-31
   5.590000      3.6912138E-31
   5.600000      4.2482930E-31
   5.610000      4.8284413E-31
   5.620000      5.4306687E-31
   5.630000      6.0538124E-31
   5.640000      6.6965252E-31
   5.650000      7.3572687E-31
   5.660000      8.0343008E-31
   5.670000      8.7256692E-31
   5.680000      9.4292054E-31
   5.690000      1.0142509E-30
   5.700000      1.0862954E-30
   5.710000      1.1587668E-30
   5.720000      1.2313539E-30
   5.730000      1.3037209E-30
   5.740000      1.3755073E-30
   5.750000      1.4463269E-30
   5.760000      1.5157700E-30
   5.770000      1.5834016E-30
   5.780000      1.6487630E-30
   5.790000      1.7113727E-30
   5.800000      1.7707259E-30
   5.810000      1.8262967E-30
   5.820000      1.8775374E-30
   5.830000      1.9238818E-30
   5.840000      1.9647442E-30
   5.850000      1.9995227E-30
   5.860000      2.0275993E-30
   5.870000      2.0483416E-30
   5.880000      2.0611045E-30
   5.890000      2.0652313E-30
   5.900000      2.0600559E-30
   5.910000      2.0449043E-30
   5.920000      2.0190961E-30
   5.930000      1.9819470E-30
   5.940000      1.9327706E-30
   5.950000      1.8708799E-30
   5.960000      1.7955909E-30
   5.970000      1.7062248E-30
   5.980000      1.6021110E-30
   5.990000      1.4825903E-30
   6.000000      1.3470187E-30
   6.010000      1.1947716E-30
   6.020000      1.0252478E-30
   6.030000      8.3787432E-31
   6.040000      6.3211188E-31
   6.050000      4.0746029E-31
   6.060000      1.6346402E-31
   6.070000     -1.0028189E-31
   6.080000     -3.8412520E-31
   6.090000     -6.8835012E-31
   6.100000     -1.0131705E-30
   6.110000     -1.3587237E-30
   6.120000     -1.7250641E-30
   6.130000     -2.1121559E-30
   6.140000     -2.5198676E-30
   6.150000     -2.9479649E-30
   6.160000     -3.3961047E-30
   6.170000     -3.8638296E-30
   6.180000     -4.3505625E-30
   6.190000     -4.8556008E-30
   6.200000     -5.3781097E-30
   6.210000     -5.9171192E-30
   6.220000     -6.4715181E-30
   6.230000     -7.0400481E-30
   6.240000     -7.6213013E-30
   6.250000     -8.2137135E-30
   6.260000     -8.8155614E-30
   6.270000     -9.4249550E-30
   6.280000     -1.0039834E-29
   6.290000     -1.0657966E-29
   6.300000     -1.1276937E-29
   6.310000     -1.1894151E-29
   6.320000     -1.2506821E-29
   6.330000     -1.3111972E-29
   6.340000     -1.3706431E-29
   6.350000     -1.4286827E-29
   6.360000     -1.4849586E-29
   6.370000     -1.5390935E-29
   6.380000     -1.5906895E-29
   6.390000     -1.6393285E-29
   6.400000     -1.6845724E-29
   6.410000     -1.7259632E-29
   6.420000     -1.7630240E-29
   6.430000     -1.7952588E-29
   6.440000     -1.8221547E-29
   6.450000     -1.8431815E-29
   6.460000     -1.8577937E-29
   6.470000     -1.8654321E-29
   6.480000     -1.8655248E-29
   6.490000     -1.8574895E-29
   6.500000     -1.8407348E-29
   6.510000     -1.8146630E-29
   6.520000     -1.7786715E-29
   6.530000     -1.7321561E-29
   6.540000     -1.6745126E-29
   6.550000     -1.6051400E-29
   6.560000     -1.5234437E-29
   6.570000     -1.4288372E-29
   6.580000     -1.3207457E-29
   6.590000     -1.1986092E-29
   6.600000     -1.0618858E-29
   6.610000     -9.1005486E-30
   6.620000     -7.4262068E-30
   6.630000     -5.5911567E-30
   6.640000     -3.5910510E-30
   6.650000     -1.4219030E-30
   6.660000      9.1986655E-31
   6.670000      3.4373874E-30
   6.680000      6.1332890E-30
   6.690000      9.0096560E-30
   6.700000      1.2067982E-29
   6.710000      1.5309104E-29
   6.720000      1.8733153E-29
   6.730000      2.2339502E-29
   6.740000      2.6126702E-29
   6.750000      3.0092418E-29
   6.760000      3.4233378E-29
   6.770000      3.8545306E-29
   6.780000      4.3022871E-29
   6.790000      4.7659610E-29
   6.800000      5.2447887E-29
   6.810000      5.7378822E-29
   6.820000      6.2442248E-29
   6.830000      6.7626647E-29
   6.840000      7.2919108E-29
   6.850000      7.8305284E-29
   6.860000      8.3769364E-29
   6.870000      8.9294003E-29
   6.880000      9.4860319E-29
   6.890000      1.0044785E-28
   6.900000      1.0603454E-28
   6.910000      1.1159672E-28
   6.920000      1.1710908E-28
   6.930000      1.2254471E-28
   6.940000      1.2787501E-28
   6.950000      1.3306975E-28
   6.960000      1.3809712E-28
   6.970000      1.4292367E-28
   6.980000      1.4751433E-28
   6.990000      1.5183250E-28
   7.000000      1.5584003E-28
   7.010000      1.5949725E-28
   7.020000      1.6276305E-28
   7.030000      1.6559494E-28
   7.040000      1.6794908E-28
   7.050000      1.6978041E-28
   7.060000      1.7104269E-28