  -2.600000      0.0000000E+00
  -2.590000      0.0000000E+00
  -2.580000      0.0000000E+00
  -2.570000      0.0000000E+00
  -2.560000      0.0000000E+00
  -2.550000      0.0000000E+00
  -2.540000      0.0000000E+00
  -2.530000      0.0000000E+00
  -2.520000      0.0000000E+00
  -2.510000      0.0000000E+00
  -2.500000      0.0000000E+00
  -2.490000      0.0000000E+00
  -2.480000      0.0000000E+00
  -2.470000      0.0000000E+00
  -2.460000      0.0000000E+00
  -2.450000      0.0000000E+00
  -2.440000      0.0000000E+00
  -2.430000      0.0000000E+00
  -2.420000      0.0000000E+00
  -2.410000      0.0000000E+00
  -2.400000      0.0000000E+00
  -2.390000      0.0000000E+00
  -2.380000      0.0000000E+00
  -2.370000      0.0000000E+00
  -2.360000      0.0000000E+00
  -2.350000      0.0000000E+00
  -2.340000      0.0000000E+00
  -2.330000      0.0000000E+00
  -2.320000      0.0000000E+00
  -2.310000      0.0000000E+00
  -2.300000      0.0000000E+00
  -2.290000      0.0000000E+00
  -2.280000      0.0000000E+00
  -2.270000      0.0000000E+00
  -2.260000      0.0000000E+00
  -2.250000      0.0000000E+00
  -2.240000      0.0000000E+00
  -2.230000      0.0000000E+00
  -2.220000      0.0000000E+00
  -2.210000      0.0000000E+00
  -2.200000      0.0000000E+00
  -2.190000      0.0000000E+00
  -2.180000      0.0000000E+00
  -2.170000      0.0000000E+00
  -2.160000      0.0000000E+00
  -2.150000      0.0000000E+00
  -2.140000      0.0000000E+00
  -2.130000      0.0000000E+00
  -2.120000      0.0000000E+00
  -2.110000      0.0000000E+00
  -2.100000      0.0000000E+00
  -2.090000      0.0000000E+00
  -2.080000      0.0000000E+00
  -2.070000      0.0000000E+00
  -2.060000      0.0000000E+00
  -2.050000      0.0000000E+00
  -2.040000      0.0000000E+00
  -2.030000      0.0000000E+00
  -2.020000      0.0000000E+00
  -2.010000      0.0000000E+00
  -2.000000      0.0000000E+00
  -1.990000      0.0000000E+00
  -1.980000      0.0000000E+00
  -1.970000      0.0000000E+00
  -1.960000      0.0000000E+00
  -1.950000      0.0000000E+00
  -1.940000      0.0000000E+00
  -1.930000      0.0000000E+00
  -1.920000      0.0000000E+00
  -1.910000      0.0000000E+00
  -1.900000      0.0000000E+00
  -1.890000      0.0000000E+00
  -1.880000      0.0000000E+00
  -1.870000      0.0000000E+00
  -1.860000      0.0000000E+00
  -1.850000      0.0000000E+00
  -1.840000      0.0000000E+00
  -1.830000      0.0000000E+00
  -1.820000      0.0000000E+00
  -1.810000      0.0000000E+00
  -1.800000      0.0000000E+00
  -1.790000      0.0000000E+00
  -1.780000      0.0000000E+00
  -1.770000      0.0000000E+00
  -1.760000      0.0000000E+00
  -1.750000      0.0000000E+00
  -1.740000      0.0000000E+00
  -1.730000      0.0000000E+00
  -1.720000      0.0000000E+00
  -1.710000      0.0000000E+00
  -1.700000      0.0000000E+00
  -1.690000      0.0000000E+00
  -1.680000      0.0000000E+00
  -1.670000      0.0000000E+00
  -1.660000      0.0000000E+00
  -1.650000      0.0000000E+00
  -1.640000      0.0000000E+00
  -1.630000      0.0000000E+00
  -1.620000      0.0000000E+00
  -1.610000      0.0000000E+00
  -1.600000      0.0000000E+00
  -1.590000      0.0000000E+00
  -1.580000      0.0000000E+00
  -1.570000      0.0000000E+00
  -1.560000      0.0000000E+00
  -1.550000      0.0000000E+00
  -1.540000      0.0000000E+00
  -1.530000      0.0000000E+00
  -1.520000      0.0000000E+00
  -1.510000      0.0000000E+00
  -1.500000      0.0000000E+00
  -1.490000      0.0000000E+00
  -1.480000      0.0000000E+00
  -1.470000      0.0000000E+00
  -1.460000      0.0000000E+00
  -1.450000      0.0000000E+00
  -1.440000      0.0000000E+00
  -1.430000      0.0000000E+00
  -1.420000      0.0000000E+00
  -1.410000      0.0000000E+00
  -1.400000      0.0000000E+00
  -1.390000      0.0000000E+00
  -1.380000      0.0000000E+00
  -1.370000      0.0000000E+00
  -1.360000      0.0000000E+00
  -1.350000      0.0000000E+00
  -1.340000      0.0000000E+00
  -1.330000      0.0000000E+00
  -1.320000      0.0000000E+00
  -1.310000      0.0000000E+00
  -1.300000      0.0000000E+00
  -1.290000      0.0000000E+00
  -1.280000      0.0000000E+00
  -1.270000      0.0000000E+00
  -1.260000      0.0000000E+00
  -1.250000      0.0000000E+00
  -1.240000      0.0000000E+00
  -1.230000      0.0000000E+00
  -1.220000      0.0000000E+00
  -1.210000      0.0000000E+00
  -1.200000      0.0000000E+00
  -1.190000      0.0000000E+00
  -1.180000      0.0000000E+00
  -1.170000      0.0000000E+00
  -1.160000      0.0000000E+00
  -1.150000      0.0000000E+00
  -1.140000      0.0000000E+00
  -1.130000      0.0000000E+00
  -1.120000      0.0000000E+00
  -1.110000      0.0000000E+00
  -1.100000      0.0000000E+00
  -1.090000      0.0000000E+00
  -1.080000      0.0000000E+00
  -1.070000      0.0000000E+00
  -1.060000      0.0000000E+00
  -1.050000      0.0000000E+00
  -1.040000      0.0000000E+00
  -1.030000      0.0000000E+00
  -1.020000      0.0000000E+00
  -1.010000      0.0000000E+00
  -1.000000      0.0000000E+00
 -0.9900000      0.0000000E+00
 -0.9800000      0.0000000E+00
 -0.9700000      0.0000000E+00
 -0.9600000      0.0000000E+00
 -0.9500000      0.0000000E+00
 -0.9400000      0.0000000E+00
 -0.9300000      0.0000000E+00
 -0.9200000      0.0000000E+00
 -0.9100000      0.0000000E+00
 -0.9000000      0.0000000E+00
 -0.8900000      0.0000000E+00
 -0.8800000      0.0000000E+00
 -0.8700000      0.0000000E+00
 -0.8600000      0.0000000E+00
 -0.8500000      0.0000000E+00
 -0.8400000      0.0000000E+00
 -0.8300000      0.0000000E+00
 -0.8200000      0.0000000E+00
 -0.8100000      0.0000000E+00
 -0.8000000      0.0000000E+00
 -0.7900000      0.0000000E+00
 -0.7800000      0.0000000E+00
 -0.7700000      0.0000000E+00
 -0.7600000      0.0000000E+00
 -0.7500000      0.0000000E+00
 -0.7400000      0.0000000E+00
 -0.7300000      0.0000000E+00
 -0.7200000      0.0000000E+00
 -0.7100000      0.0000000E+00
 -0.7000000      0.0000000E+00
 -0.6900000      0.0000000E+00
 -0.6800000      0.0000000E+00
 -0.6700000      0.0000000E+00
 -0.6600000      0.0000000E+00
 -0.6500000      0.0000000E+00
 -0.6400000      0.0000000E+00
 -0.6300000      0.0000000E+00
 -0.6200000      0.0000000E+00
 -0.6100000      0.0000000E+00
 -0.6000000      0.0000000E+00
 -0.5900000      0.0000000E+00
 -0.5800000      0.0000000E+00
 -0.5700000      0.0000000E+00
 -0.5600000      0.0000000E+00
 -0.5500000      0.0000000E+00
 -0.5400000      0.0000000E+00
 -0.5300000      0.0000000E+00
 -0.5200000      0.0000000E+00
 -0.5100000      0.0000000E+00
 -0.5000000      0.0000000E+00
 -0.4900000      0.0000000E+00
 -0.4800000      0.0000000E+00
 -0.4700000      0.0000000E+00
 -0.4600000      0.0000000E+00
 -0.4500000      0.0000000E+00
 -0.4400000      0.0000000E+00
 -0.4300000      0.0000000E+00
 -0.4200000      0.0000000E+00
 -0.4100000      0.0000000E+00
 -0.4000000      0.0000000E+00
 -0.3900000      0.0000000E+00
 -0.3800000      0.0000000E+00
 -0.3700000      0.0000000E+00
 -0.3600000      0.0000000E+00
 -0.3500000      0.0000000E+00
 -0.3400000      0.0000000E+00
 -0.3300000      0.0000000E+00
 -0.3200000      0.0000000E+00
 -0.3100000      0.0000000E+00
 -0.3000000      0.0000000E+00
 -0.2900000      0.0000000E+00
 -0.2800000      0.0000000E+00
 -0.2700000      0.0000000E+00
 -0.2600000      0.0000000E+00
 -0.2500000      0.0000000E+00
 -0.2400000      0.0000000E+00
 -0.2300000      0.0000000E+00
 -0.2200000      0.0000000E+00
 -0.2100000      0.0000000E+00
 -0.2000000      0.0000000E+00
 -0.1900000      0.0000000E+00
 -0.1800000      0.0000000E+00
 -0.1700000      0.0000000E+00
 -0.1600000      0.0000000E+00
 -0.1500000      0.0000000E+00
 -0.1400000      0.0000000E+00
 -0.1300000      0.0000000E+00
 -0.1200000      0.0000000E+00
 -0.1100000      0.0000000E+00
 -0.1000000      0.0000000E+00
 -9.0000004E-02  0.0000000E+00
 -7.9999998E-02  0.0000000E+00
 -7.0000000E-02  0.0000000E+00
 -5.9999999E-02  0.0000000E+00
 -5.0000001E-02  0.0000000E+00
 -3.9999999E-02  0.0000000E+00
 -2.9999999E-02  0.0000000E+00
 -2.0000000E-02  0.0000000E+00
 -9.9999998E-03  0.0000000E+00
 -3.4694470E-17  0.0000000E+00
  9.9999998E-03  0.0000000E+00
  2.0000000E-02  0.0000000E+00
  2.9999999E-02  0.0000000E+00
  3.9999999E-02  0.0000000E+00
  5.0000001E-02  0.0000000E+00
  5.9999999E-02  0.0000000E+00
  7.0000000E-02  0.0000000E+00
  7.9999998E-02  0.0000000E+00
  9.0000004E-02  0.0000000E+00
  0.1000000      0.0000000E+00
  0.1100000      0.0000000E+00
  0.1200000      0.0000000E+00
  0.1300000      0.0000000E+00
  0.1400000      0.0000000E+00
  0.1500000      0.0000000E+00
  0.1600000      0.0000000E+00
  0.1700000      0.0000000E+00
  0.1800000      0.0000000E+00
  0.1900000      0.0000000E+00
  0.2000000      0.0000000E+00
  0.2100000      0.0000000E+00
  0.2200000      0.0000000E+00
  0.2300000      0.0000000E+00
  0.2400000      0.0000000E+00
  0.2500000      0.0000000E+00
  0.2600000      0.0000000E+00
  0.2700000      0.0000000E+00
  0.2800000      0.0000000E+00
  0.2900000      0.0000000E+00
  0.3000000      0.0000000E+00
  0.3100000      0.0000000E+00
  0.3200000      0.0000000E+00
  0.3300000      0.0000000E+00
  0.3400000      0.0000000E+00
  0.3500000      0.0000000E+00
  0.3600000      0.0000000E+00
  0.3700000      0.0000000E+00
  0.3800000      0.0000000E+00
  0.3900000      0.0000000E+00
  0.4000000      0.0000000E+00
  0.4100000      0.0000000E+00
  0.4200000      0.0000000E+00
  0.4300000      0.0000000E+00
  0.4400000      0.0000000E+00
  0.4500000      0.0000000E+00
  0.4600000      0.0000000E+00
  0.4700000      0.0000000E+00
  0.4800000      0.0000000E+00
  0.4900000      0.0000000E+00
  0.5000000      0.0000000E+00
  0.5100000      0.0000000E+00
  0.5200000      0.0000000E+00
  0.5300000      0.0000000E+00
  0.5400000      0.0000000E+00
  0.5500000      0.0000000E+00
  0.5600000      0.0000000E+00
  0.5700000      0.0000000E+00
  0.5800000      0.0000000E+00
  0.5900000      0.0000000E+00
  0.6000000      0.0000000E+00
  0.6100000      0.0000000E+00
  0.6200000      0.0000000E+00
  0.6300000      0.0000000E+00
  0.6400000      0.0000000E+00
  0.6500000      0.0000000E+00
  0.6600000      0.0000000E+00
  0.6700000      0.0000000E+00
  0.6800000      0.0000000E+00
  0.6900000      0.0000000E+00
  0.7000000      0.0000000E+00
  0.7100000      0.0000000E+00
  0.7200000      0.0000000E+00
  0.7300000      0.0000000E+00
  0.7400000      0.0000000E+00
  0.7500000      0.0000000E+00
  0.7600000      0.0000000E+00
  0.7700000      0.0000000E+00
  0.7800000      0.0000000E+00
  0.7900000      0.0000000E+00
  0.8000000      0.0000000E+00
  0.8100000      0.0000000E+00
  0.8200000      0.0000000E+00
  0.8300000      0.0000000E+00
  0.8400000      0.0000000E+00
  0.8500000      0.0000000E+00
  0.8600000      0.0000000E+00
  0.8700000      0.0000000E+00
  0.8800000      0.0000000E+00
  0.8900000      0.0000000E+00
  0.9000000      0.0000000E+00
  0.9100000      0.0000000E+00
  0.9200000      0.0000000E+00
  0.9300000      0.0000000E+00
  0.9400000      0.0000000E+00
  0.9500000      0.0000000E+00
  0.9600000      0.0000000E+00
  0.9700000      0.0000000E+00
  0.9800000      0.0000000E+00
  0.9900000      0.0000000E+00
   1.000000      0.0000000E+00
   1.010000      0.0000000E+00
   1.020000      0.0000000E+00
   1.030000      0.0000000E+00
   1.040000      0.0000000E+00
   1.050000      0.0000000E+00
   1.060000      0.0000000E+00
   1.070000      0.0000000E+00
   1.080000      0.0000000E+00
   1.090000      0.0000000E+00
   1.100000      0.0000000E+00
   1.110000      0.0000000E+00
   1.120000      0.0000000E+00
   1.130000      0.0000000E+00
   1.140000      0.0000000E+00
   1.150000      0.0000000E+00
   1.160000      0.0000000E+00
   1.170000      0.0000000E+00
   1.180000      0.0000000E+00
   1.190000      0.0000000E+00
   1.200000      0.0000000E+00
   1.210000      0.0000000E+00
   1.220000      0.0000000E+00
   1.230000      0.0000000E+00
   1.240000      0.0000000E+00
   1.250000      0.0000000E+00
   1.260000      0.0000000E+00
   1.270000      0.0000000E+00
   1.280000      0.0000000E+00
   1.290000      0.0000000E+00
   1.300000      0.0000000E+00
   1.310000      0.0000000E+00
   1.320000      0.0000000E+00
   1.330000      0.0000000E+00
   1.340000      0.0000000E+00
   1.350000      0.0000000E+00
   1.360000      0.0000000E+00
   1.370000      0.0000000E+00
   1.380000      0.0000000E+00
   1.390000      0.0000000E+00
   1.400000      0.0000000E+00
   1.410000      0.0000000E+00
   1.420000      0.0000000E+00
   1.430000      0.0000000E+00
   1.440000      0.0000000E+00
   1.450000      0.0000000E+00
   1.460000      0.0000000E+00
   1.470000      0.0000000E+00
   1.480000      0.0000000E+00
   1.490000      0.0000000E+00
   1.500000      0.0000000E+00
   1.510000      0.0000000E+00
   1.520000      0.0000000E+00
   1.530000      0.0000000E+00
   1.540000      0.0000000E+00
   1.550000      0.0000000E+00
   1.560000      0.0000000E+00
   1.570000      0.0000000E+00
   1.580000      0.0000000E+00
   1.590000      0.0000000E+00
   1.600000      0.0000000E+00
   1.610000      0.0000000E+00
   1.620000      0.0000000E+00
   1.630000      0.0000000E+00
   1.640000      0.0000000E+00
   1.650000      0.0000000E+00
   1.660000      0.0000000E+00
   1.670000      0.0000000E+00
   1.680000      0.0000000E+00
   1.690000      0.0000000E+00
   1.700000      0.0000000E+00
   1.710000      0.0000000E+00
   1.720000      0.0000000E+00
   1.730000      0.0000000E+00
   1.740000      0.0000000E+00
   1.750000      0.0000000E+00
   1.760000      0.0000000E+00
   1.770000      0.0000000E+00
   1.780000      0.0000000E+00
   1.790000      0.0000000E+00
   1.800000      0.0000000E+00
   1.810000      0.0000000E+00
   1.820000      0.0000000E+00
   1.830000      0.0000000E+00
   1.840000      0.0000000E+00
   1.850000      0.0000000E+00
   1.860000      0.0000000E+00
   1.870000      0.0000000E+00
   1.880000      0.0000000E+00
   1.890000      0.0000000E+00
   1.900000      0.0000000E+00
   1.910000      0.0000000E+00
   1.920000      0.0000000E+00
   1.930000      0.0000000E+00
   1.940000      0.0000000E+00
   1.950000      0.0000000E+00
   1.960000      0.0000000E+00
   1.970000      0.0000000E+00
   1.980000      0.0000000E+00
   1.990000      0.0000000E+00
   2.000000      0.0000000E+00
   2.010000      0.0000000E+00
   2.020000      0.0000000E+00
   2.030000      0.0000000E+00
   2.040000      0.0000000E+00
   2.050000      0.0000000E+00
   2.060000      0.0000000E+00
   2.070000      0.0000000E+00
   2.080000      0.0000000E+00
   2.090000      0.0000000E+00
   2.100000      0.0000000E+00
   2.110000      0.0000000E+00
   2.120000      0.0000000E+00
   2.130000      0.0000000E+00
   2.140000      0.0000000E+00
   2.150000      0.0000000E+00
   2.160000      0.0000000E+00
   2.170000      0.0000000E+00
   2.180000      0.0000000E+00
   2.190000      0.0000000E+00
   2.200000      0.0000000E+00
   2.210000      0.0000000E+00
   2.220000      0.0000000E+00
   2.230000      0.0000000E+00
   2.240000      0.0000000E+00
   2.250000      0.0000000E+00
   2.260000      0.0000000E+00
   2.270000      0.0000000E+00
   2.280000      0.0000000E+00
   2.290000      0.0000000E+00
   2.300000      0.0000000E+00
   2.310000      0.0000000E+00
   2.320000      0.0000000E+00
   2.330000      0.0000000E+00
   2.340000      0.0000000E+00
   2.350000      0.0000000E+00
   2.360000      0.0000000E+00
   2.370000      0.0000000E+00
   2.380000      0.0000000E+00
   2.390000      0.0000000E+00
   2.400000      0.0000000E+00
   2.410000      0.0000000E+00
   2.420000      0.0000000E+00
   2.430000      0.0000000E+00
   2.440000      0.0000000E+00
   2.450000      0.0000000E+00
   2.460000      0.0000000E+00
   2.470000      0.0000000E+00
   2.480000      0.0000000E+00
   2.490000      0.0000000E+00
   2.500000      0.0000000E+00
   2.510000      0.0000000E+00
   2.520000      0.0000000E+00
   2.530000      0.0000000E+00
   2.540000      0.0000000E+00
   2.550000      0.0000000E+00
   2.560000      0.0000000E+00
   2.570000      0.0000000E+00
   2.580000      0.0000000E+00
   2.590000      0.0000000E+00
   2.600000      0.0000000E+00
   2.610000      0.0000000E+00
   2.620000      0.0000000E+00
   2.630000      0.0000000E+00
   2.640000      0.0000000E+00
   2.650000      0.0000000E+00
   2.660000      0.0000000E+00
   2.670000      0.0000000E+00
   2.680000      0.0000000E+00
   2.690000      0.0000000E+00
   2.700000      0.0000000E+00
   2.710000      0.0000000E+00
   2.720000      0.0000000E+00
   2.730000      0.0000000E+00
   2.740000      0.0000000E+00
   2.750000      0.0000000E+00
   2.760000      0.0000000E+00
   2.770000      0.0000000E+00
   2.780000      0.0000000E+00
   2.790000      0.0000000E+00
   2.800000      0.0000000E+00
   2.810000     -1.1979668E-38
   2.820000     -1.2911128E-38
   2.830000     -1.4755027E-38
   2.840000     -1.7877885E-38
   2.850000     -2.1383419E-38
   2.860000     -2.3935557E-38
   2.870000     -2.5251746E-38
   2.880000     -2.6316587E-38
   2.890000     -2.7421043E-38
   2.900000     -2.8565862E-38
   2.910000     -2.9801770E-38
   2.920000     -3.1411235E-38
   2.930000     -3.3346192E-38
   2.940000     -3.5315008E-38
   2.950000     -3.7261947E-38
   2.960000     -3.8858508E-38
   2.970000     -4.0173363E-38
   2.980000     -4.1501735E-38
   2.990000     -4.2507159E-38
   3.000000     -4.3310506E-38
   3.010000     -4.3546535E-38
   3.020000     -4.2638460E-38
   3.030000     -4.0977854E-38
   3.040000     -3.8337057E-38
   3.050000     -3.4260968E-38
   3.060000     -2.9529935E-38
   3.070000     -2.3109966E-38
   3.080000     -1.5831165E-38
   3.090000      0.0000000E+00
   3.100000      0.0000000E+00
   3.110000      0.0000000E+00
   3.120000      1.4513921E-38
   3.130000      2.1108155E-38
   3.140000      2.7145915E-38
   3.150000      3.4039689E-38
   3.160000      4.4137250E-38
   3.170000      5.7120961E-38
   3.180000      7.1110202E-38
   3.190000      8.6628983E-38
   3.200000      9.6065018E-38
   3.210000      9.9919520E-38
   3.220000      1.0611732E-37
   3.230000      1.1485439E-37
   3.240000      1.3181409E-37
   3.250000      1.5668583E-37
   3.260000      1.8278029E-37
   3.270000      2.0924834E-37
   3.280000      2.3558601E-37
   3.290000      2.6042110E-37
   3.300000      2.8339979E-37
   3.310000      3.0649382E-37
   3.320000      3.2922521E-37
   3.330000      3.4970197E-37
   3.340000      3.7209875E-37
   3.350000      3.9374411E-37
   3.360000      4.0835716E-37
   3.370000      4.1856507E-37
   3.380000      4.2602186E-37
   3.390000      4.4382450E-37
   3.400000      4.7374610E-37
   3.410000      5.0538540E-37
   3.420000      5.3457321E-37
   3.430000      5.8584464E-37
   3.440000      6.6336169E-37
   3.450000      7.4349394E-37
   3.460000      8.2735962E-37
   3.470000      9.1468629E-37
   3.480000      9.6829930E-37
   3.490000      9.7872792E-37
   3.500000      9.7998115E-37
   3.510000      9.6767403E-37
   3.520000      8.8101433E-37
   3.530000      7.2210165E-37
   3.540000      5.4592427E-37
   3.550000      3.5421354E-37
   3.560000      1.4964458E-37
   3.570000     -5.1567397E-38
   3.580000     -2.5625628E-37
   3.590000     -4.5892072E-37
   3.600000     -6.7181755E-37
   3.610000     -8.7293899E-37
   3.620000     -1.0386917E-36
   3.630000     -1.1949924E-36
   3.640000     -1.3391143E-36
   3.650000     -1.4886234E-36
   3.660000     -1.6461389E-36
   3.670000     -1.8078162E-36
   3.680000     -1.9574218E-36
   3.690000     -2.1200300E-36
   3.700000     -2.3149289E-36
   3.710000     -2.5511687E-36
   3.720000     -2.8458931E-36
   3.730000     -3.1867007E-36
   3.740000     -3.4958344E-36
   3.750000     -3.7365998E-36
   3.760000     -3.9698218E-36
   3.770000     -4.2786122E-36
   3.780000     -4.7085634E-36
   3.790000     -5.2246936E-36
   3.800000     -5.7562934E-36
   3.810000     -6.2738811E-36
   3.820000     -6.7748595E-36
   3.830000     -7.2787300E-36
   3.840000     -7.6510864E-36
   3.850000     -7.8452933E-36
   3.860000     -7.9732367E-36
   3.870000     -8.0680195E-36
   3.880000     -8.1344295E-36
   3.890000     -7.8758868E-36
   3.900000     -7.2905682E-36
   3.910000     -6.6121364E-36
   3.920000     -5.8492151E-36
   3.930000     -5.0345263E-36
   3.940000     -4.1671870E-36
   3.950000     -3.1297555E-36
   3.960000     -1.9535733E-36
   3.970000     -7.5588981E-37
   3.980000      5.0119316E-37
   3.990000      1.4101755E-36
   4.000000      1.9666301E-36
   4.010000      2.6418638E-36
   4.020000      3.5040501E-36
   4.030000      4.6303109E-36
   4.040000      5.9813553E-36
   4.050000      7.4915244E-36
   4.060000      9.1026942E-36
   4.070000      1.0573318E-35
   4.080000      1.1897261E-35
   4.090000      1.3346755E-35
   4.100000      1.4963564E-35
   4.110000      1.6497822E-35
   4.120000      1.7891780E-35
   4.130000      1.9291006E-35
   4.140000      2.0741635E-35
   4.150000      2.2140466E-35
   4.160000      2.3537852E-35
   4.170000      2.5258977E-35
   4.180000      2.7233524E-35
   4.190000      2.9262399E-35
   4.200000      3.1188098E-35
   4.210000      3.3043172E-35
   4.220000      3.4768526E-35
   4.230000      3.6301757E-35
   4.240000      3.7743562E-35
   4.250000      3.8942997E-35
   4.260000      4.0072083E-35
   4.270000      4.1175478E-35
   4.280000      4.2035371E-35
   4.290000      4.2474543E-35
   4.300000      4.2389070E-35
   4.310000      4.1671057E-35
   4.320000      4.0429105E-35
   4.330000      3.8855670E-35
   4.340000      3.6895528E-35
   4.350000      3.4593037E-35
   4.360000      3.2503128E-35
   4.370000      3.0481452E-35
   4.380000      2.7920849E-35
   4.390000      2.5056936E-35
   4.400000      2.2015339E-35
   4.410000      1.8759738E-35
   4.420000      1.4968529E-35
   4.430000      1.0575503E-35
   4.440000      6.0578560E-36
   4.450000      1.4692696E-36
   4.460000     -2.7936962E-36
   4.470000     -6.5793496E-36
   4.480000     -1.0332212E-35
   4.490000     -1.4355832E-35
   4.500000     -1.8880929E-35
   4.510000     -2.3878849E-35
   4.520000     -2.9971797E-35
   4.530000     -3.7232027E-35
   4.540000     -4.5697710E-35
   4.550000     -5.4647481E-35
   4.560000     -6.3618351E-35
   4.570000     -7.3701986E-35
   4.580000     -8.4676919E-35
   4.590000     -9.6192993E-35
   4.600000     -1.0776797E-34
   4.610000     -1.1900241E-34
   4.620000     -1.3088474E-34
   4.630000     -1.4348620E-34
   4.640000     -1.5588893E-34
   4.650000     -1.6778552E-34
   4.660000     -1.7913831E-34
   4.670000     -1.9184075E-34
   4.680000     -2.0777496E-34
   4.690000     -2.2431848E-34
   4.700000     -2.3688610E-34
   4.710000     -2.4617786E-34
   4.720000     -2.5513655E-34
   4.730000     -2.6385128E-34
   4.740000     -2.7121605E-34
   4.750000     -2.7707766E-34
   4.760000     -2.8208232E-34
   4.770000     -2.8613920E-34
   4.780000     -2.8881331E-34
   4.790000     -2.8889181E-34
   4.800000     -2.8663803E-34
   4.810000     -2.8227936E-34
   4.820000     -2.7618733E-34
   4.830000     -2.6964706E-34
   4.840000     -2.6324415E-34
   4.850000     -2.5639470E-34
   4.860000     -2.4912582E-34
   4.870000     -2.4062296E-34
   4.880000     -2.3018742E-34
   4.890000     -2.1965604E-34
   4.900000     -2.0890504E-34
   4.910000     -1.9820063E-34
   4.920000     -1.8707414E-34
   4.930000     -1.7226528E-34
   4.940000     -1.5279925E-34
   4.950000     -1.3168485E-34
   4.960000     -1.0669954E-34
   4.970000     -7.5238589E-35
   4.980000     -4.1274953E-35
   4.990000     -2.6348379E-36
   5.000000      4.0504628E-35
   5.010000      8.6561958E-35
   5.020000      1.3604711E-34
   5.030000      1.8776898E-34
   5.040000      2.4417568E-34
   5.050000      3.0483360E-34
   5.060000      3.7047899E-34
   5.070000      4.3955214E-34
   5.080000      5.0977925E-34
   5.090000      5.8293082E-34
   5.100000      6.5793098E-34
   5.110000      7.3265114E-34
   5.120000      8.0541117E-34
   5.130000      8.7886735E-34
   5.140000      9.5380962E-34
   5.150000      1.0278884E-33
   5.160000      1.1008876E-33
   5.170000      1.1718983E-33
   5.180000      1.2408437E-33
   5.190000      1.3082037E-33
   5.200000      1.3759042E-33
   5.210000      1.4440182E-33
   5.220000      1.5126004E-33
   5.230000      1.5846077E-33
   5.240000      1.6589946E-33
   5.250000      1.7337208E-33
   5.260000      1.8092469E-33
   5.270000      1.8843353E-33
   5.280000      1.9575327E-33
   5.290000      2.0295946E-33
   5.300000      2.1032329E-33
   5.310000      2.1799550E-33
   5.320000      2.2639173E-33
   5.330000      2.3525866E-33
   5.340000      2.4384356E-33
   5.350000      2.5212727E-33
   5.360000      2.5987377E-33
   5.370000      2.6660056E-33
   5.380000      2.7214933E-33
   5.390000      2.7645563E-33
   5.400000      2.7910097E-33
   5.410000      2.7993988E-33
   5.420000      2.7913599E-33
   5.430000      2.7629765E-33
   5.440000      2.7144062E-33
   5.450000      2.6457303E-33
   5.460000      2.5574656E-33
   5.470000      2.4505883E-33
   5.480000      2.3233396E-33
   5.490000      2.1749053E-33
   5.500000      2.0070304E-33
   5.510000      1.8209094E-33
   5.520000      1.6134318E-33
   5.530000      1.3836683E-33
   5.540000      1.1312772E-33
   5.550000      8.5700049E-34
   5.560000      5.5968813E-34
   5.570000      2.3854178E-34
   5.580000     -1.0344522E-34
   5.590000     -4.6586099E-34
   5.600000     -8.5196855E-34
   5.610000     -1.2635550E-33
   5.620000     -1.7017417E-33
   5.630000     -2.1665169E-33
   5.640000     -2.6584431E-33
   5.650000     -3.1809160E-33
   5.660000     -3.7360406E-33
   5.670000     -4.3229418E-33
   5.680000     -4.9427881E-33
   5.690000     -5.5945600E-33
   5.700000     -6.2775931E-33
   5.710000     -6.9932929E-33
   5.720000     -7.7412665E-33
   5.730000     -8.5217610E-33
   5.740000     -9.3347490E-33
   5.750000     -1.0180951E-32
   5.760000     -1.1055388E-32
   5.770000     -1.1953206E-32
   5.780000     -1.2874377E-32
   5.790000     -1.3816359E-32
   5.800000     -1.4775079E-32
   5.810000     -1.5746630E-32
   5.820000     -1.6728031E-32
   5.830000     -1.7715385E-32
   5.840000     -1.8704209E-32
   5.850000     -1.9689976E-32
   5.860000     -2.0667161E-32
   5.870000     -2.1632295E-32
   5.880000     -2.2579950E-32
   5.890000     -2.3503965E-32
   5.900000     -2.4398937E-32
   5.910000     -2.5258461E-32
   5.920000     -2.6078078E-32
   5.930000     -2.6852067E-32
   5.940000     -2.7574367E-32
   5.950000     -2.8238140E-32
   5.960000     -2.8836895E-32
   5.970000     -2.9364704E-32
   5.980000     -2.9813672E-32
   5.990000     -3.0175933E-32
   6.000000     -3.0443197E-32
   6.010000     -3.0608295E-32
   6.020000     -3.0662606E-32
   6.030000     -3.0596484E-32
   6.040000     -3.0402084E-32
   6.050000     -3.0068666E-32
   6.060000     -2.9585982E-32
   6.070000     -2.8943272E-32
   6.080000     -2.8128554E-32
   6.090000     -2.7131385E-32
   6.100000     -2.5942787E-32
   6.110000     -2.4549938E-32
   6.120000     -2.2938387E-32
   6.130000     -2.1099658E-32
   6.140000     -1.9025244E-32
   6.150000     -1.6704540E-32
   6.160000     -1.4125722E-32
   6.170000     -1.1278358E-32
   6.180000     -8.1544337E-33
   6.190000     -4.7477269E-33
   6.200000     -1.0506661E-33
   6.210000      2.9457729E-33
   6.220000      7.2478579E-33
   6.230000      1.1860938E-32
   6.240000      1.6789376E-32
   6.250000      2.2036750E-32
   6.260000      2.7605536E-32
   6.270000      3.3496934E-32
   6.280000      3.9710829E-32
   6.290000      4.6246795E-32
   6.300000      5.3102228E-32
   6.310000      6.0272632E-32
   6.320000      6.7753273E-32
   6.330000      7.5536379E-32
   6.340000      8.3614341E-32
   6.350000      9.1979383E-32
   6.360000      1.0062013E-31
   6.370000      1.0952077E-31
   6.380000      1.1866501E-31
   6.390000      1.2803677E-31
   6.400000      1.3761652E-31
   6.410000      1.4738252E-31
   6.420000      1.5731064E-31
   6.430000      1.6737442E-31
   6.440000      1.7754559E-31
   6.450000      1.8779141E-31
   6.460000      1.9807548E-31
   6.470000      2.0836009E-31
   6.480000      2.1860652E-31
   6.490000      2.2877187E-31
   6.500000      2.3880835E-31
   6.510000      2.4866614E-31
   6.520000      2.5829229E-31
   6.530000      2.6763063E-31
   6.540000      2.7662222E-31
   6.550000      2.8520467E-31
   6.560000      2.9331238E-31
   6.570000      3.0087730E-31
   6.580000      3.0782856E-31
   6.590000      3.1409282E-31
   6.600000      3.1959350E-31
   6.610000      3.2425151E-31
   6.620000      3.2798547E-31
   6.630000      3.3071360E-31
   6.640000      3.3235097E-31
   6.650000      3.3280970E-31
   6.660000      3.3200185E-31
   6.670000      3.2983770E-31
   6.680000      3.2622653E-31
   6.690000      3.2107653E-31
   6.700000      3.1429566E-31
   6.710000      3.0579145E-31
   6.720000      2.9547155E-31
   6.730000      2.8324392E-31
   6.740000      2.6901677E-31
   6.750000      2.5269959E-31
   6.760000      2.3420328E-31
   6.770000      2.1344055E-31
   6.780000      1.9032639E-31
   6.790000      1.6477855E-31
   6.800000      1.3671795E-31
   6.810000      1.0606937E-31
   6.820000      7.2761848E-32
   6.830000      3.6728283E-32
   6.840000     -2.0906667E-33
   6.850000     -4.3748079E-32
   6.860000     -8.8292274E-32
   6.870000     -1.3576300E-31
   6.880000     -1.8619165E-31
   6.890000     -2.3960036E-31
   6.900000     -2.9600154E-31
   6.910000     -3.5539692E-31
   6.920000     -4.1777676E-31
   6.930000     -4.8311920E-31
   6.940000     -5.5138937E-31
   6.950000     -6.2253880E-31
   6.960000     -6.9650415E-31
   6.970000     -7.7320727E-31
   6.980000     -8.5255455E-31
   6.990000     -9.3443525E-31
   7.000000     -1.0187212E-30
   7.010000     -1.1052660E-30
   7.020000     -1.1939048E-30
   7.030000     -1.2844537E-30
   7.040000     -1.3767089E-30
   7.050000     -1.4704460E-30
   7.060000     -1.5654199E-30