  -2.600000      0.0000000E+00
  -2.590000      0.0000000E+00
  -2.580000      0.0000000E+00
  -2.570000      0.0000000E+00
  -2.560000      0.0000000E+00
  -2.550000      0.0000000E+00
  -2.540000      0.0000000E+00
  -2.530000      0.0000000E+00
  -2.520000      0.0000000E+00
  -2.510000      0.0000000E+00
  -2.500000      0.0000000E+00
  -2.490000      0.0000000E+00
  -2.480000      0.0000000E+00
  -2.470000      0.0000000E+00
  -2.460000      0.0000000E+00
  -2.450000      0.0000000E+00
  -2.440000      0.0000000E+00
  -2.430000      0.0000000E+00
  -2.420000      0.0000000E+00
  -2.410000      0.0000000E+00
  -2.400000      0.0000000E+00
  -2.390000      0.0000000E+00
  -2.380000      0.0000000E+00
  -2.370000      0.0000000E+00
  -2.360000      0.0000000E+00
  -2.350000      0.0000000E+00
  -2.340000      0.0000000E+00
  -2.330000      0.0000000E+00
  -2.320000      0.0000000E+00
  -2.310000      0.0000000E+00
  -2.300000      0.0000000E+00
  -2.290000      0.0000000E+00
  -2.280000      0.0000000E+00
  -2.270000      0.0000000E+00
  -2.260000      0.0000000E+00
  -2.250000      0.0000000E+00
  -2.240000      0.0000000E+00
  -2.230000      0.0000000E+00
  -2.220000      0.0000000E+00
  -2.210000      0.0000000E+00
  -2.200000      0.0000000E+00
  -2.190000      0.0000000E+00
  -2.180000      0.0000000E+00
  -2.170000      0.0000000E+00
  -2.160000      0.0000000E+00
  -2.150000      0.0000000E+00
  -2.140000      0.0000000E+00
  -2.130000      0.0000000E+00
  -2.120000      0.0000000E+00
  -2.110000      0.0000000E+00
  -2.100000      0.0000000E+00
  -2.090000      0.0000000E+00
  -2.080000      0.0000000E+00
  -2.070000      0.0000000E+00
  -2.060000      0.0000000E+00
  -2.050000      0.0000000E+00
  -2.040000      0.0000000E+00
  -2.030000      0.0000000E+00
  -2.020000      0.0000000E+00
  -2.010000      0.0000000E+00
  -2.000000      0.0000000E+00
  -1.990000      0.0000000E+00
  -1.980000      0.0000000E+00
  -1.970000      0.0000000E+00
  -1.960000      0.0000000E+00
  -1.950000      0.0000000E+00
  -1.940000      0.0000000E+00
  -1.930000      0.0000000E+00
  -1.920000      0.0000000E+00
  -1.910000      0.0000000E+00
  -1.900000      0.0000000E+00
  -1.890000      0.0000000E+00
  -1.880000      0.0000000E+00
  -1.870000      0.0000000E+00
  -1.860000      0.0000000E+00
  -1.850000      0.0000000E+00
  -1.840000      0.0000000E+00
  -1.830000      0.0000000E+00
  -1.820000      0.0000000E+00
  -1.810000      0.0000000E+00
  -1.800000      0.0000000E+00
  -1.790000      0.0000000E+00
  -1.780000      0.0000000E+00
  -1.770000      0.0000000E+00
  -1.760000      0.0000000E+00
  -1.750000      0.0000000E+00
  -1.740000      0.0000000E+00
  -1.730000      0.0000000E+00
  -1.720000      0.0000000E+00
  -1.710000      0.0000000E+00
  -1.700000      0.0000000E+00
  -1.690000      0.0000000E+00
  -1.680000      0.0000000E+00
  -1.670000      0.0000000E+00
  -1.660000      0.0000000E+00
  -1.650000      0.0000000E+00
  -1.640000      0.0000000E+00
  -1.630000      0.0000000E+00
  -1.620000      0.0000000E+00
  -1.610000      0.0000000E+00
  -1.600000      0.0000000E+00
  -1.590000      0.0000000E+00
  -1.580000      0.0000000E+00
  -1.570000      0.0000000E+00
  -1.560000      0.0000000E+00
  -1.550000      0.0000000E+00
  -1.540000      0.0000000E+00
  -1.530000      0.0000000E+00
  -1.520000      0.0000000E+00
  -1.510000      0.0000000E+00
  -1.500000      0.0000000E+00
  -1.490000      0.0000000E+00
  -1.480000      0.0000000E+00
  -1.470000      0.0000000E+00
  -1.460000      0.0000000E+00
  -1.450000      0.0000000E+00
  -1.440000      0.0000000E+00
  -1.430000      0.0000000E+00
  -1.420000      0.0000000E+00
  -1.410000      0.0000000E+00
  -1.400000      0.0000000E+00
  -1.390000      0.0000000E+00
  -1.380000      0.0000000E+00
  -1.370000      0.0000000E+00
  -1.360000      0.0000000E+00
  -1.350000      0.0000000E+00
  -1.340000      0.0000000E+00
  -1.330000      0.0000000E+00
  -1.320000      0.0000000E+00
  -1.310000      0.0000000E+00
  -1.300000      0.0000000E+00
  -1.290000      0.0000000E+00
  -1.280000      0.0000000E+00
  -1.270000      0.0000000E+00
  -1.260000      0.0000000E+00
  -1.250000      0.0000000E+00
  -1.240000      0.0000000E+00
  -1.230000      0.0000000E+00
  -1.220000      0.0000000E+00
  -1.210000      0.0000000E+00
  -1.200000      0.0000000E+00
  -1.190000      0.0000000E+00
  -1.180000      0.0000000E+00
  -1.170000      0.0000000E+00
  -1.160000      0.0000000E+00
  -1.150000      0.0000000E+00
  -1.140000      0.0000000E+00
  -1.130000      0.0000000E+00
  -1.120000      0.0000000E+00
  -1.110000      0.0000000E+00
  -1.100000      0.0000000E+00
  -1.090000      0.0000000E+00
  -1.080000      0.0000000E+00
  -1.070000      0.0000000E+00
  -1.060000      0.0000000E+00
  -1.050000      0.0000000E+00
  -1.040000      0.0000000E+00
  -1.030000      0.0000000E+00
  -1.020000      0.0000000E+00
  -1.010000      0.0000000E+00
  -1.000000      0.0000000E+00
 -0.9900000      0.0000000E+00
 -0.9800000      0.0000000E+00
 -0.9700000      0.0000000E+00
 -0.9600000      0.0000000E+00
 -0.9500000      0.0000000E+00
 -0.9400000      0.0000000E+00
 -0.9300000      0.0000000E+00
 -0.9200000      0.0000000E+00
 -0.9100000      0.0000000E+00
 -0.9000000      0.0000000E+00
 -0.8900000      0.0000000E+00
 -0.8800000      0.0000000E+00
 -0.8700000      0.0000000E+00
 -0.8600000      0.0000000E+00
 -0.8500000      0.0000000E+00
 -0.8400000      0.0000000E+00
 -0.8300000      0.0000000E+00
 -0.8200000      0.0000000E+00
 -0.8100000      0.0000000E+00
 -0.8000000      0.0000000E+00
 -0.7900000      0.0000000E+00
 -0.7800000      0.0000000E+00
 -0.7700000      0.0000000E+00
 -0.7600000      0.0000000E+00
 -0.7500000      0.0000000E+00
 -0.7400000      0.0000000E+00
 -0.7300000      0.0000000E+00
 -0.7200000      0.0000000E+00
 -0.7100000      0.0000000E+00
 -0.7000000      0.0000000E+00
 -0.6900000      0.0000000E+00
 -0.6800000      0.0000000E+00
 -0.6700000      0.0000000E+00
 -0.6600000      0.0000000E+00
 -0.6500000      0.0000000E+00
 -0.6400000      0.0000000E+00
 -0.6300000      0.0000000E+00
 -0.6200000      0.0000000E+00
 -0.6100000      0.0000000E+00
 -0.6000000      0.0000000E+00
 -0.5900000      0.0000000E+00
 -0.5800000      0.0000000E+00
 -0.5700000      0.0000000E+00
 -0.5600000      0.0000000E+00
 -0.5500000      0.0000000E+00
 -0.5400000      0.0000000E+00
 -0.5300000      0.0000000E+00
 -0.5200000      0.0000000E+00
 -0.5100000      0.0000000E+00
 -0.5000000      0.0000000E+00
 -0.4900000      0.0000000E+00
 -0.4800000      0.0000000E+00
 -0.4700000      0.0000000E+00
 -0.4600000      0.0000000E+00
 -0.4500000      0.0000000E+00
 -0.4400000      0.0000000E+00
 -0.4300000      0.0000000E+00
 -0.4200000      0.0000000E+00
 -0.4100000      0.0000000E+00
 -0.4000000      0.0000000E+00
 -0.3900000      0.0000000E+00
 -0.3800000      0.0000000E+00
 -0.3700000      0.0000000E+00
 -0.3600000      0.0000000E+00
 -0.3500000      0.0000000E+00
 -0.3400000      0.0000000E+00
 -0.3300000      0.0000000E+00
 -0.3200000      0.0000000E+00
 -0.3100000      0.0000000E+00
 -0.3000000      0.0000000E+00
 -0.2900000      0.0000000E+00
 -0.2800000      0.0000000E+00
 -0.2700000      0.0000000E+00
 -0.2600000      0.0000000E+00
 -0.2500000      0.0000000E+00
 -0.2400000      0.0000000E+00
 -0.2300000      0.0000000E+00
 -0.2200000      0.0000000E+00
 -0.2100000      0.0000000E+00
 -0.2000000      0.0000000E+00
 -0.1900000      0.0000000E+00
 -0.1800000      0.0000000E+00
 -0.1700000      0.0000000E+00
 -0.1600000      0.0000000E+00
 -0.1500000      0.0000000E+00
 -0.1400000      0.0000000E+00
 -0.1300000      0.0000000E+00
 -0.1200000      0.0000000E+00
 -0.1100000      0.0000000E+00
 -0.1000000      0.0000000E+00
 -9.0000004E-02  0.0000000E+00
 -7.9999998E-02  0.0000000E+00
 -7.0000000E-02  0.0000000E+00
 -5.9999999E-02  0.0000000E+00
 -5.0000001E-02  0.0000000E+00
 -3.9999999E-02  0.0000000E+00
 -2.9999999E-02  0.0000000E+00
 -2.0000000E-02  0.0000000E+00
 -9.9999998E-03  0.0000000E+00
 -3.4694470E-17  0.0000000E+00
  9.9999998E-03  0.0000000E+00
  2.0000000E-02  0.0000000E+00
  2.9999999E-02  0.0000000E+00
  3.9999999E-02  0.0000000E+00
  5.0000001E-02  0.0000000E+00
  5.9999999E-02  0.0000000E+00
  7.0000000E-02  0.0000000E+00
  7.9999998E-02  0.0000000E+00
  9.0000004E-02  0.0000000E+00
  0.1000000      0.0000000E+00
  0.1100000      0.0000000E+00
  0.1200000      0.0000000E+00
  0.1300000      0.0000000E+00
  0.1400000      0.0000000E+00
  0.1500000      0.0000000E+00
  0.1600000      0.0000000E+00
  0.1700000      0.0000000E+00
  0.1800000      0.0000000E+00
  0.1900000      0.0000000E+00
  0.2000000      0.0000000E+00
  0.2100000      0.0000000E+00
  0.2200000      0.0000000E+00
  0.2300000      0.0000000E+00
  0.2400000      0.0000000E+00
  0.2500000      0.0000000E+00
  0.2600000      0.0000000E+00
  0.2700000      0.0000000E+00
  0.2800000      0.0000000E+00
  0.2900000      0.0000000E+00
  0.3000000      0.0000000E+00
  0.3100000      0.0000000E+00
  0.3200000      0.0000000E+00
  0.3300000      0.0000000E+00
  0.3400000      0.0000000E+00
  0.3500000      0.0000000E+00
  0.3600000      0.0000000E+00
  0.3700000      0.0000000E+00
  0.3800000      0.0000000E+00
  0.3900000      0.0000000E+00
  0.4000000      0.0000000E+00
  0.4100000      0.0000000E+00
  0.4200000      0.0000000E+00
  0.4300000      0.0000000E+00
  0.4400000      0.0000000E+00
  0.4500000      0.0000000E+00
  0.4600000      0.0000000E+00
  0.4700000      0.0000000E+00
  0.4800000      0.0000000E+00
  0.4900000      0.0000000E+00
  0.5000000      0.0000000E+00
  0.5100000      0.0000000E+00
  0.5200000      0.0000000E+00
  0.5300000      0.0000000E+00
  0.5400000      0.0000000E+00
  0.5500000      0.0000000E+00
  0.5600000      0.0000000E+00
  0.5700000      0.0000000E+00
  0.5800000      0.0000000E+00
  0.5900000      0.0000000E+00
  0.6000000      0.0000000E+00
  0.6100000      0.0000000E+00
  0.6200000      0.0000000E+00
  0.6300000      0.0000000E+00
  0.6400000      0.0000000E+00
  0.6500000      0.0000000E+00
  0.6600000      0.0000000E+00
  0.6700000      0.0000000E+00
  0.6800000      0.0000000E+00
  0.6900000      0.0000000E+00
  0.7000000      0.0000000E+00
  0.7100000      0.0000000E+00
  0.7200000      0.0000000E+00
  0.7300000      0.0000000E+00
  0.7400000      0.0000000E+00
  0.7500000      0.0000000E+00
  0.7600000      0.0000000E+00
  0.7700000      0.0000000E+00
  0.7800000      0.0000000E+00
  0.7900000      0.0000000E+00
  0.8000000      0.0000000E+00
  0.8100000      0.0000000E+00
  0.8200000      0.0000000E+00
  0.8300000      0.0000000E+00
  0.8400000      0.0000000E+00
  0.8500000      0.0000000E+00
  0.8600000      0.0000000E+00
  0.8700000      0.0000000E+00
  0.8800000      0.0000000E+00
  0.8900000      0.0000000E+00
  0.9000000      0.0000000E+00
  0.9100000      0.0000000E+00
  0.9200000      0.0000000E+00
  0.9300000      0.0000000E+00
  0.9400000      0.0000000E+00
  0.9500000      0.0000000E+00
  0.9600000      0.0000000E+00
  0.9700000      0.0000000E+00
  0.9800000      0.0000000E+00
  0.9900000      0.0000000E+00
   1.000000      0.0000000E+00
   1.010000      0.0000000E+00
   1.020000      0.0000000E+00
   1.030000      0.0000000E+00
   1.040000      0.0000000E+00
   1.050000      0.0000000E+00
   1.060000      0.0000000E+00
   1.070000      0.0000000E+00
   1.080000      0.0000000E+00
   1.090000      0.0000000E+00
   1.100000      0.0000000E+00
   1.110000      0.0000000E+00
   1.120000      0.0000000E+00
   1.130000      0.0000000E+00
   1.140000      0.0000000E+00
   1.150000      0.0000000E+00
   1.160000      0.0000000E+00
   1.170000      0.0000000E+00
   1.180000      0.0000000E+00
   1.190000      0.0000000E+00
   1.200000      0.0000000E+00
   1.210000      0.0000000E+00
   1.220000      0.0000000E+00
   1.230000      0.0000000E+00
   1.240000      0.0000000E+00
   1.250000      0.0000000E+00
   1.260000      0.0000000E+00
   1.270000      0.0000000E+00
   1.280000      0.0000000E+00
   1.290000      0.0000000E+00
   1.300000      0.0000000E+00
   1.310000      0.0000000E+00
   1.320000      0.0000000E+00
   1.330000      0.0000000E+00
   1.340000      0.0000000E+00
   1.350000      0.0000000E+00
   1.360000      0.0000000E+00
   1.370000      0.0000000E+00
   1.380000      0.0000000E+00
   1.390000      0.0000000E+00
   1.400000      0.0000000E+00
   1.410000      0.0000000E+00
   1.420000      0.0000000E+00
   1.430000      0.0000000E+00
   1.440000      0.0000000E+00
   1.450000      0.0000000E+00
   1.460000      0.0000000E+00
   1.470000      0.0000000E+00
   1.480000      0.0000000E+00
   1.490000      0.0000000E+00
   1.500000      0.0000000E+00
   1.510000      0.0000000E+00
   1.520000      0.0000000E+00
   1.530000      0.0000000E+00
   1.540000      0.0000000E+00
   1.550000      0.0000000E+00
   1.560000      0.0000000E+00
   1.570000      0.0000000E+00
   1.580000      0.0000000E+00
   1.590000      0.0000000E+00
   1.600000      0.0000000E+00
   1.610000      0.0000000E+00
   1.620000      0.0000000E+00
   1.630000      0.0000000E+00
   1.640000      0.0000000E+00
   1.650000      0.0000000E+00
   1.660000      0.0000000E+00
   1.670000      0.0000000E+00
   1.680000      0.0000000E+00
   1.690000      0.0000000E+00
   1.700000      0.0000000E+00
   1.710000      0.0000000E+00
   1.720000      0.0000000E+00
   1.730000      0.0000000E+00
   1.740000      0.0000000E+00
   1.750000      0.0000000E+00
   1.760000      0.0000000E+00
   1.770000      0.0000000E+00
   1.780000      0.0000000E+00
   1.790000      0.0000000E+00
   1.800000      0.0000000E+00
   1.810000      0.0000000E+00
   1.820000      0.0000000E+00
   1.830000      0.0000000E+00
   1.840000      0.0000000E+00
   1.850000      0.0000000E+00
   1.860000      0.0000000E+00
   1.870000      0.0000000E+00
   1.880000      0.0000000E+00
   1.890000      0.0000000E+00
   1.900000      0.0000000E+00
   1.910000      0.0000000E+00
   1.920000      0.0000000E+00
   1.930000      0.0000000E+00
   1.940000      0.0000000E+00
   1.950000      0.0000000E+00
   1.960000      0.0000000E+00
   1.970000      0.0000000E+00
   1.980000      0.0000000E+00
   1.990000      0.0000000E+00
   2.000000      0.0000000E+00
   2.010000      0.0000000E+00
   2.020000      0.0000000E+00
   2.030000      0.0000000E+00
   2.040000      0.0000000E+00
   2.050000      0.0000000E+00
   2.060000      0.0000000E+00
   2.070000      0.0000000E+00
   2.080000      0.0000000E+00
   2.090000      0.0000000E+00
   2.100000      0.0000000E+00
   2.110000      0.0000000E+00
   2.120000      0.0000000E+00
   2.130000      0.0000000E+00
   2.140000      0.0000000E+00
   2.150000      0.0000000E+00
   2.160000      0.0000000E+00
   2.170000      0.0000000E+00
   2.180000      0.0000000E+00
   2.190000      0.0000000E+00
   2.200000      0.0000000E+00
   2.210000      0.0000000E+00
   2.220000      0.0000000E+00
   2.230000      0.0000000E+00
   2.240000      0.0000000E+00
   2.250000      0.0000000E+00
   2.260000      0.0000000E+00
   2.270000      0.0000000E+00
   2.280000      0.0000000E+00
   2.290000      0.0000000E+00
   2.300000      0.0000000E+00
   2.310000      0.0000000E+00
   2.320000      0.0000000E+00
   2.330000      0.0000000E+00
   2.340000      0.0000000E+00
   2.350000      0.0000000E+00
   2.360000      0.0000000E+00
   2.370000      0.0000000E+00
   2.380000      0.0000000E+00
   2.390000      0.0000000E+00
   2.400000      0.0000000E+00
   2.410000      0.0000000E+00
   2.420000      0.0000000E+00
   2.430000      0.0000000E+00
   2.440000      0.0000000E+00
   2.450000      0.0000000E+00
   2.460000      0.0000000E+00
   2.470000      0.0000000E+00
   2.480000      0.0000000E+00
   2.490000      0.0000000E+00
   2.500000      0.0000000E+00
   2.510000      0.0000000E+00
   2.520000      0.0000000E+00
   2.530000      0.0000000E+00
   2.540000      0.0000000E+00
   2.550000      0.0000000E+00
   2.560000      0.0000000E+00
   2.570000      0.0000000E+00
   2.580000      0.0000000E+00
   2.590000      0.0000000E+00
   2.600000      0.0000000E+00
   2.610000      0.0000000E+00
   2.620000      0.0000000E+00
   2.630000      0.0000000E+00
   2.640000      0.0000000E+00
   2.650000      0.0000000E+00
   2.660000      0.0000000E+00
   2.670000      0.0000000E+00
   2.680000      0.0000000E+00
   2.690000      0.0000000E+00
   2.700000      0.0000000E+00
   2.710000      0.0000000E+00
   2.720000      0.0000000E+00
   2.730000      0.0000000E+00
   2.740000      0.0000000E+00
   2.750000      0.0000000E+00
   2.760000      0.0000000E+00
   2.770000      0.0000000E+00
   2.780000      0.0000000E+00
   2.790000      0.0000000E+00
   2.800000      0.0000000E+00
   2.810000      0.0000000E+00
   2.820000      0.0000000E+00
   2.830000      0.0000000E+00
   2.840000      0.0000000E+00
   2.850000      0.0000000E+00
   2.860000      0.0000000E+00
   2.870000      0.0000000E+00
   2.880000      0.0000000E+00
   2.890000      0.0000000E+00
   2.900000      0.0000000E+00
   2.910000      0.0000000E+00
   2.920000      0.0000000E+00
   2.930000      0.0000000E+00
   2.940000      0.0000000E+00
   2.950000      0.0000000E+00
   2.960000      0.0000000E+00
   2.970000      0.0000000E+00
   2.980000      0.0000000E+00
   2.990000      0.0000000E+00
   3.000000      0.0000000E+00
   3.010000      0.0000000E+00
   3.020000      0.0000000E+00
   3.030000      0.0000000E+00
   3.040000      0.0000000E+00
   3.050000      0.0000000E+00
   3.060000      0.0000000E+00
   3.070000      0.0000000E+00
   3.080000      0.0000000E+00
   3.090000      0.0000000E+00
   3.100000      0.0000000E+00
   3.110000      0.0000000E+00
   3.120000      0.0000000E+00
   3.130000      0.0000000E+00
   3.140000      0.0000000E+00
   3.150000      0.0000000E+00
   3.160000      0.0000000E+00
   3.170000      0.0000000E+00
   3.180000      0.0000000E+00
   3.190000      0.0000000E+00
   3.200000      0.0000000E+00
   3.210000      0.0000000E+00
   3.220000      0.0000000E+00
   3.230000      0.0000000E+00
   3.240000      0.0000000E+00
   3.250000      0.0000000E+00
   3.260000      0.0000000E+00
   3.270000      0.0000000E+00
   3.280000      0.0000000E+00
   3.290000      0.0000000E+00
   3.300000      0.0000000E+00
   3.310000      0.0000000E+00
   3.320000      0.0000000E+00
   3.330000      1.3243230E-38
   3.340000      1.4670065E-38
   3.350000      1.6022794E-38
   3.360000      1.7368100E-38
   3.370000      1.8514523E-38
   3.380000      1.9420796E-38
   3.390000      2.0677396E-38
   3.400000      2.2314303E-38
   3.410000      2.3978420E-38
   3.420000      2.5590140E-38
   3.430000      2.7093391E-38
   3.440000      2.8569390E-38
   3.450000      3.0116878E-38
   3.460000      3.1706917E-38
   3.470000      3.2554848E-38
   3.480000      3.2762232E-38
   3.490000      3.3155977E-38
   3.500000      3.3593196E-38
   3.510000      3.3944586E-38
   3.520000      3.4456657E-38
   3.530000      3.4840021E-38
   3.540000      3.4808753E-38
   3.550000      3.5002530E-38
   3.560000      3.5800752E-38
   3.570000      3.6701189E-38
   3.580000      3.7236634E-38
   3.590000      3.7295581E-38
   3.600000      3.7214785E-38
   3.610000      3.6956206E-38
   3.620000      3.5934665E-38
   3.630000      3.3539905E-38
   3.640000      2.9405178E-38
   3.650000      2.4150877E-38
   3.660000      1.8250522E-38
   3.670000      0.0000000E+00
   3.680000      0.0000000E+00
   3.690000      0.0000000E+00
   3.700000     -1.7755786E-38
   3.710000     -3.0648603E-38
   3.720000     -4.4451399E-38
   3.730000     -6.0061009E-38
   3.740000     -7.7924173E-38
   3.750000     -9.6151484E-38
   3.760000     -1.1203359E-37
   3.770000     -1.2576208E-37
   3.780000     -1.3961755E-37
   3.790000     -1.5342432E-37
   3.800000     -1.6682571E-37
   3.810000     -1.7995061E-37
   3.820000     -1.9363786E-37
   3.830000     -2.0494613E-37
   3.840000     -2.1364898E-37
   3.850000     -2.2385429E-37
   3.860000     -2.3534669E-37
   3.870000     -2.4619370E-37
   3.880000     -2.5724230E-37
   3.890000     -2.6911863E-37
   3.900000     -2.7892090E-37
   3.910000     -2.8570830E-37
   3.920000     -2.8936533E-37
   3.930000     -2.8666302E-37
   3.940000     -2.7821160E-37
   3.950000     -2.6690467E-37
   3.960000     -2.5086204E-37
   3.970000     -2.2949675E-37
   3.980000     -2.0393148E-37
   3.990000     -1.7519445E-37
   4.000000     -1.4075855E-37
   4.010000     -1.0085709E-37
   4.020000     -5.7497821E-38
   4.030000      0.0000000E+00
   4.040000      5.0581892E-38
   4.050000      1.1873851E-37
   4.060000      1.9159400E-37
   4.070000      2.7179336E-37
   4.080000      3.7013525E-37
   4.090000      4.9324222E-37
   4.100000      6.6204456E-37
   4.110000      8.7770762E-37
   4.120000      1.1130485E-36
   4.130000      1.3629001E-36
   4.140000      1.6154477E-36
   4.150000      1.8843914E-36
   4.160000      2.1597908E-36
   4.170000      2.3947160E-36
   4.180000      2.5966363E-36
   4.190000      2.7836756E-36
   4.200000      2.8980343E-36
   4.210000      2.9355588E-36
   4.220000      2.9382684E-36
   4.230000      2.9086352E-36
   4.240000      2.8571885E-36
   4.250000      2.7992638E-36
   4.260000      2.7389307E-36
   4.270000      2.6715184E-36
   4.280000      2.6026546E-36
   4.290000      2.5270651E-36
   4.300000      2.4270968E-36
   4.310000      2.3150907E-36
   4.320000      2.2179749E-36
   4.330000      2.0729853E-36
   4.340000      1.9171532E-36
   4.350000      1.7626276E-36
   4.360000      1.5170361E-36
   4.370000      1.1436454E-36
   4.380000      6.5563204E-37
   4.390000      9.7665985E-38
   4.400000     -5.4115384E-37
   4.410000     -1.1649317E-36
   4.420000     -1.7295133E-36
   4.430000     -2.3007081E-36
   4.440000     -2.8831576E-36
   4.450000     -3.4014939E-36
   4.460000     -3.8546576E-36
   4.470000     -4.3350921E-36
   4.480000     -4.8610469E-36
   4.490000     -5.4365279E-36
   4.500000     -6.0874400E-36
   4.510000     -6.8181549E-36
   4.520000     -7.6141305E-36
   4.530000     -8.4924997E-36
   4.540000     -9.4617157E-36
   4.550000     -1.0509644E-35
   4.560000     -1.1591848E-35
   4.570000     -1.2622663E-35
   4.580000     -1.3653789E-35
   4.590000     -1.4682661E-35
   4.600000     -1.5687853E-35
   4.610000     -1.6697241E-35
   4.620000     -1.7657255E-35
   4.630000     -1.8494399E-35
   4.640000     -1.9221763E-35
   4.650000     -1.9876232E-35
   4.660000     -2.0404966E-35
   4.670000     -2.0791308E-35
   4.680000     -2.1111549E-35
   4.690000     -2.1372478E-35
   4.700000     -2.1432640E-35
   4.710000     -2.1287848E-35
   4.720000     -2.0525754E-35
   4.730000     -1.9127662E-35
   4.740000     -1.7525547E-35
   4.750000     -1.5919210E-35
   4.760000     -1.4304336E-35
   4.770000     -1.2408654E-35
   4.780000     -1.0239552E-35
   4.790000     -7.8669622E-36
   4.800000     -5.2928463E-36
   4.810000     -2.8051999E-36
   4.820000     -4.3142038E-37
   4.830000      2.1560763E-36
   4.840000      5.0287945E-36
   4.850000      7.9932690E-36
   4.860000      1.0967494E-35
   4.870000      1.4122319E-35
   4.880000      1.7496674E-35
   4.890000      2.1266491E-35
   4.900000      2.5372753E-35
   4.910000      2.9426220E-35
   4.920000      3.3780620E-35
   4.930000      3.9542396E-35
   4.940000      4.6240642E-35
   4.950000      5.4434819E-35
   4.960000      6.4957095E-35
   4.970000      7.7640828E-35
   4.980000      9.2374358E-35
   4.990000      1.0857735E-34
   5.000000      1.2562137E-34
   5.010000      1.4280013E-34
   5.020000      1.5713036E-34
   5.030000      1.6845647E-34
   5.040000      1.7576557E-34
   5.050000      1.7832535E-34
   5.060000      1.7915133E-34
   5.070000      1.7753943E-34
   5.080000      1.7391995E-34
   5.090000      1.6944396E-34
   5.100000      1.6698133E-34
   5.110000      1.6717024E-34
   5.120000      1.6725206E-34
   5.130000      1.6722916E-34
   5.140000      1.6752803E-34
   5.150000      1.6783033E-34
   5.160000      1.6801450E-34
   5.170000      1.6907239E-34
   5.180000      1.6776908E-34
   5.190000      1.6171051E-34
   5.200000      1.5286694E-34
   5.210000      1.4240516E-34
   5.220000      1.3405920E-34
   5.230000      1.2973107E-34
   5.240000      1.2615628E-34
   5.250000      1.2079607E-34
   5.260000      1.1063599E-34
   5.270000      9.3863075E-35
   5.280000      7.3495649E-35
   5.290000      5.0811208E-35
   5.300000      2.9437412E-35
   5.310000      7.5200694E-36
   5.320000     -2.0814819E-35
   5.330000     -5.6450321E-35
   5.340000     -9.9153764E-35
   5.350000     -1.4780136E-34
   5.360000     -2.0225905E-34
   5.370000     -2.6401798E-34
   5.380000     -3.3277634E-34
   5.390000     -4.0374732E-34
   5.400000     -4.7540908E-34
   5.410000     -5.4953842E-34
   5.420000     -6.2590533E-34
   5.430000     -7.0321383E-34
   5.440000     -7.8009479E-34
   5.450000     -8.5561460E-34
   5.460000     -9.3001072E-34
   5.470000     -1.0040579E-33
   5.480000     -1.0767195E-33
   5.490000     -1.1465335E-33
   5.500000     -1.2123310E-33
   5.510000     -1.2741198E-33
   5.520000     -1.3332466E-33
   5.530000     -1.3901673E-33
   5.540000     -1.4445732E-33
   5.550000     -1.4959259E-33
   5.560000     -1.5472961E-33
   5.570000     -1.5970444E-33
   5.580000     -1.6438859E-33
   5.590000     -1.6901396E-33
   5.600000     -1.7327916E-33
   5.610000     -1.7713985E-33
   5.620000     -1.8084167E-33
   5.630000     -1.8446126E-33
   5.640000     -1.8782289E-33
   5.650000     -1.9064083E-33
   5.660000     -1.9285361E-33
   5.670000     -1.9444932E-33
   5.680000     -1.9526537E-33
   5.690000     -1.9513805E-33
   5.700000     -1.9404782E-33
   5.710000     -1.9163454E-33
   5.720000     -1.8755448E-33
   5.730000     -1.8182346E-33
   5.740000     -1.7424617E-33
   5.750000     -1.6461818E-33
   5.760000     -1.5284959E-33
   5.770000     -1.3878222E-33
   5.780000     -1.2219008E-33
   5.790000     -1.0296836E-33
   5.800000     -8.1103958E-34
   5.810000     -5.6572227E-34
   5.820000     -2.9369224E-34
   5.830000      4.9655625E-36
   5.840000      3.3012051E-34
   5.850000      6.8127249E-34
   5.860000      1.0579441E-33
   5.870000      1.4593022E-33
   5.880000      1.8844232E-33
   5.890000      2.3321711E-33
   5.900000      2.8015996E-33
   5.910000      3.2921483E-33
   5.920000      3.8028895E-33
   5.930000      4.3334860E-33
   5.940000      4.8831806E-33
   5.950000      5.4504665E-33
   5.960000      6.0351720E-33
   5.970000      6.6375508E-33
   5.980000      7.2570312E-33
   5.990000      7.8934027E-33
   6.000000      8.5465779E-33
   6.010000      9.2151587E-33
   6.020000      9.9000097E-33
   6.030000      1.0601307E-32
   6.040000      1.1316527E-32
   6.050000      1.2044341E-32
   6.060000      1.2783357E-32
   6.070000      1.3531959E-32
   6.080000      1.4286776E-32
   6.090000      1.5043966E-32
   6.100000      1.5801252E-32
   6.110000      1.6554275E-32
   6.120000      1.7297210E-32
   6.130000      1.8024994E-32
   6.140000      1.8731934E-32
   6.150000      1.9411645E-32
   6.160000      2.0057338E-32
   6.170000      2.0661726E-32
   6.180000      2.1217309E-32
   6.190000      2.1716130E-32
   6.200000      2.2149855E-32
   6.210000      2.2510504E-32
   6.220000      2.2789906E-32
   6.230000      2.2979629E-32
   6.240000      2.3071384E-32
   6.250000      2.3056994E-32
   6.260000      2.2928396E-32
   6.270000      2.2677611E-32
   6.280000      2.2296822E-32
   6.290000      2.1778372E-32
   6.300000      2.1114673E-32
   6.310000      2.0298256E-32
   6.320000      1.9321673E-32
   6.330000      1.8177514E-32
   6.340000      1.6858338E-32
   6.350000      1.5356667E-32
   6.360000      1.3665009E-32
   6.370000      1.1775762E-32
   6.380000      9.6812620E-33
   6.390000      7.3738268E-33
   6.400000      4.8457628E-33
   6.410000      2.0893270E-33
   6.420000     -9.0321671E-34
   6.430000     -4.1392965E-33
   6.440000     -7.6260600E-33
   6.450000     -1.1370365E-32
   6.460000     -1.5378564E-32
   6.470000     -1.9656386E-32
   6.480000     -2.4208804E-32
   6.490000     -2.9039874E-32
   6.500000     -3.4152595E-32
   6.510000     -3.9548740E-32
   6.520000     -4.5228703E-32
   6.530000     -5.1191339E-32
   6.540000     -5.7433843E-32
   6.550000     -6.3951583E-32
   6.560000     -7.0737970E-32
   6.570000     -7.7784360E-32
   6.580000     -8.5079989E-32
   6.590000     -9.2611863E-32
   6.600000     -1.0036472E-31
   6.610000     -1.0832097E-31
   6.620000     -1.1646066E-31
   6.630000     -1.2476148E-31
   6.640000     -1.3319876E-31
   6.650000     -1.4174539E-31
   6.660000     -1.5037198E-31
   6.670000     -1.5904668E-31
   6.680000     -1.6773532E-31
   6.690000     -1.7640130E-31
   6.700000     -1.8500566E-31
   6.710000     -1.9350695E-31
   6.720000     -2.0186130E-31
   6.730000     -2.1002226E-31
   6.740000     -2.1794088E-31
   6.750000     -2.2556554E-31
   6.760000     -2.3284194E-31
   6.770000     -2.3971301E-31
   6.780000     -2.4611889E-31
   6.790000     -2.5199688E-31
   6.800000     -2.5728134E-31
   6.810000     -2.6190379E-31
   6.820000     -2.6579277E-31
   6.830000     -2.6887404E-31
   6.840000     -2.7107045E-31
   6.850000     -2.7230216E-31
   6.860000     -2.7248667E-31
   6.870000     -2.7153896E-31
   6.880000     -2.6937177E-31
   6.890000     -2.6589574E-31
   6.900000     -2.6101965E-31
   6.910000     -2.5465077E-31
   6.920000     -2.4669529E-31
   6.930000     -2.3705847E-31
   6.940000     -2.2564526E-31
   6.950000     -2.1236072E-31
   6.960000     -1.9711033E-31
   6.970000     -1.7980070E-31
   6.980000     -1.6034003E-31
   6.990000     -1.3863865E-31
   7.000000     -1.1460961E-31
   7.010000     -8.8169217E-32
   7.020000     -5.9237686E-32
   7.030000     -2.7739686E-32
   7.040000      6.3949530E-33
   7.050000      4.3230730E-32
   7.060000      8.2825767E-32