  -2.600000      0.0000000E+00
  -2.590000      0.0000000E+00
  -2.580000      0.0000000E+00
  -2.570000      0.0000000E+00
  -2.560000      0.0000000E+00
  -2.550000      0.0000000E+00
  -2.540000      0.0000000E+00
  -2.530000      0.0000000E+00
  -2.520000      0.0000000E+00
  -2.510000      0.0000000E+00
  -2.500000      0.0000000E+00
  -2.490000      0.0000000E+00
  -2.480000      0.0000000E+00
  -2.470000      0.0000000E+00
  -2.460000      0.0000000E+00
  -2.450000      0.0000000E+00
  -2.440000      0.0000000E+00
  -2.430000      0.0000000E+00
  -2.420000      0.0000000E+00
  -2.410000      0.0000000E+00
  -2.400000      0.0000000E+00
  -2.390000      0.0000000E+00
  -2.380000      0.0000000E+00
  -2.370000      0.0000000E+00
  -2.360000      0.0000000E+00
  -2.350000      0.0000000E+00
  -2.340000      0.0000000E+00
  -2.330000      0.0000000E+00
  -2.320000      0.0000000E+00
  -2.310000      0.0000000E+00
  -2.300000      0.0000000E+00
  -2.290000      0.0000000E+00
  -2.280000      0.0000000E+00
  -2.270000      0.0000000E+00
  -2.260000      0.0000000E+00
  -2.250000      0.0000000E+00
  -2.240000      0.0000000E+00
  -2.230000      0.0000000E+00
  -2.220000      0.0000000E+00
  -2.210000      0.0000000E+00
  -2.200000      0.0000000E+00
  -2.190000      0.0000000E+00
  -2.180000      0.0000000E+00
  -2.170000      0.0000000E+00
  -2.160000      0.0000000E+00
  -2.150000      0.0000000E+00
  -2.140000      0.0000000E+00
  -2.130000      0.0000000E+00
  -2.120000      0.0000000E+00
  -2.110000      0.0000000E+00
  -2.100000      0.0000000E+00
  -2.090000      0.0000000E+00
  -2.080000      0.0000000E+00
  -2.070000      0.0000000E+00
  -2.060000      0.0000000E+00
  -2.050000      0.0000000E+00
  -2.040000      0.0000000E+00
  -2.030000      0.0000000E+00
  -2.020000      0.0000000E+00
  -2.010000      0.0000000E+00
  -2.000000      0.0000000E+00
  -1.990000      0.0000000E+00
  -1.980000      0.0000000E+00
  -1.970000      0.0000000E+00
  -1.960000      0.0000000E+00
  -1.950000      0.0000000E+00
  -1.940000      0.0000000E+00
  -1.930000      0.0000000E+00
  -1.920000      0.0000000E+00
  -1.910000      0.0000000E+00
  -1.900000      0.0000000E+00
  -1.890000      0.0000000E+00
  -1.880000      0.0000000E+00
  -1.870000      0.0000000E+00
  -1.860000      0.0000000E+00
  -1.850000      0.0000000E+00
  -1.840000      0.0000000E+00
  -1.830000      0.0000000E+00
  -1.820000      0.0000000E+00
  -1.810000      0.0000000E+00
  -1.800000      0.0000000E+00
  -1.790000      0.0000000E+00
  -1.780000      0.0000000E+00
  -1.770000      0.0000000E+00
  -1.760000      0.0000000E+00
  -1.750000      0.0000000E+00
  -1.740000      0.0000000E+00
  -1.730000      0.0000000E+00
  -1.720000      0.0000000E+00
  -1.710000      0.0000000E+00
  -1.700000      0.0000000E+00
  -1.690000      0.0000000E+00
  -1.680000      0.0000000E+00
  -1.670000      0.0000000E+00
  -1.660000      0.0000000E+00
  -1.650000      0.0000000E+00
  -1.640000      0.0000000E+00
  -1.630000      0.0000000E+00
  -1.620000      0.0000000E+00
  -1.610000      0.0000000E+00
  -1.600000      0.0000000E+00
  -1.590000      0.0000000E+00
  -1.580000      0.0000000E+00
  -1.570000      0.0000000E+00
  -1.560000      0.0000000E+00
  -1.550000      0.0000000E+00
  -1.540000      0.0000000E+00
  -1.530000      0.0000000E+00
  -1.520000      0.0000000E+00
  -1.510000      0.0000000E+00
  -1.500000      0.0000000E+00
  -1.490000      0.0000000E+00
  -1.480000      0.0000000E+00
  -1.470000      0.0000000E+00
  -1.460000      0.0000000E+00
  -1.450000      0.0000000E+00
  -1.440000      0.0000000E+00
  -1.430000      0.0000000E+00
  -1.420000      0.0000000E+00
  -1.410000      0.0000000E+00
  -1.400000      0.0000000E+00
  -1.390000      0.0000000E+00
  -1.380000      0.0000000E+00
  -1.370000      0.0000000E+00
  -1.360000      0.0000000E+00
  -1.350000      0.0000000E+00
  -1.340000      0.0000000E+00
  -1.330000      0.0000000E+00
  -1.320000      0.0000000E+00
  -1.310000      0.0000000E+00
  -1.300000      0.0000000E+00
  -1.290000      0.0000000E+00
  -1.280000      0.0000000E+00
  -1.270000      0.0000000E+00
  -1.260000      0.0000000E+00
  -1.250000      0.0000000E+00
  -1.240000      0.0000000E+00
  -1.230000      0.0000000E+00
  -1.220000      0.0000000E+00
  -1.210000      0.0000000E+00
  -1.200000      0.0000000E+00
  -1.190000      0.0000000E+00
  -1.180000      0.0000000E+00
  -1.170000      0.0000000E+00
  -1.160000      0.0000000E+00
  -1.150000      0.0000000E+00
  -1.140000      0.0000000E+00
  -1.130000      0.0000000E+00
  -1.120000      0.0000000E+00
  -1.110000      0.0000000E+00
  -1.100000      0.0000000E+00
  -1.090000      0.0000000E+00
  -1.080000      0.0000000E+00
  -1.070000      0.0000000E+00
  -1.060000      0.0000000E+00
  -1.050000      0.0000000E+00
  -1.040000      0.0000000E+00
  -1.030000      0.0000000E+00
  -1.020000      0.0000000E+00
  -1.010000      0.0000000E+00
  -1.000000      0.0000000E+00
 -0.9900000      0.0000000E+00
 -0.9800000      0.0000000E+00
 -0.9700000      0.0000000E+00
 -0.9600000      0.0000000E+00
 -0.9500000      0.0000000E+00
 -0.9400000      0.0000000E+00
 -0.9300000      0.0000000E+00
 -0.9200000      0.0000000E+00
 -0.9100000      0.0000000E+00
 -0.9000000      0.0000000E+00
 -0.8900000      0.0000000E+00
 -0.8800000      0.0000000E+00
 -0.8700000      0.0000000E+00
 -0.8600000      0.0000000E+00
 -0.8500000      0.0000000E+00
 -0.8400000      0.0000000E+00
 -0.8300000      0.0000000E+00
 -0.8200000      0.0000000E+00
 -0.8100000      0.0000000E+00
 -0.8000000      0.0000000E+00
 -0.7900000      0.0000000E+00
 -0.7800000      0.0000000E+00
 -0.7700000      0.0000000E+00
 -0.7600000      0.0000000E+00
 -0.7500000      0.0000000E+00
 -0.7400000      0.0000000E+00
 -0.7300000      0.0000000E+00
 -0.7200000      0.0000000E+00
 -0.7100000      0.0000000E+00
 -0.7000000      0.0000000E+00
 -0.6900000      0.0000000E+00
 -0.6800000      0.0000000E+00
 -0.6700000      0.0000000E+00
 -0.6600000      0.0000000E+00
 -0.6500000      0.0000000E+00
 -0.6400000      0.0000000E+00
 -0.6300000      0.0000000E+00
 -0.6200000      0.0000000E+00
 -0.6100000      0.0000000E+00
 -0.6000000      0.0000000E+00
 -0.5900000      0.0000000E+00
 -0.5800000      0.0000000E+00
 -0.5700000      0.0000000E+00
 -0.5600000      0.0000000E+00
 -0.5500000      0.0000000E+00
 -0.5400000      0.0000000E+00
 -0.5300000      0.0000000E+00
 -0.5200000      0.0000000E+00
 -0.5100000      0.0000000E+00
 -0.5000000      0.0000000E+00
 -0.4900000      0.0000000E+00
 -0.4800000      0.0000000E+00
 -0.4700000      0.0000000E+00
 -0.4600000      0.0000000E+00
 -0.4500000      0.0000000E+00
 -0.4400000      0.0000000E+00
 -0.4300000      0.0000000E+00
 -0.4200000      0.0000000E+00
 -0.4100000      0.0000000E+00
 -0.4000000      0.0000000E+00
 -0.3900000      0.0000000E+00
 -0.3800000      0.0000000E+00
 -0.3700000      0.0000000E+00
 -0.3600000      0.0000000E+00
 -0.3500000      0.0000000E+00
 -0.3400000      0.0000000E+00
 -0.3300000      0.0000000E+00
 -0.3200000      0.0000000E+00
 -0.3100000      0.0000000E+00
 -0.3000000      0.0000000E+00
 -0.2900000      0.0000000E+00
 -0.2800000      0.0000000E+00
 -0.2700000      0.0000000E+00
 -0.2600000      0.0000000E+00
 -0.2500000      0.0000000E+00
 -0.2400000      0.0000000E+00
 -0.2300000      0.0000000E+00
 -0.2200000      0.0000000E+00
 -0.2100000      0.0000000E+00
 -0.2000000      0.0000000E+00
 -0.1900000      0.0000000E+00
 -0.1800000      0.0000000E+00
 -0.1700000      0.0000000E+00
 -0.1600000      0.0000000E+00
 -0.1500000      0.0000000E+00
 -0.1400000      0.0000000E+00
 -0.1300000      0.0000000E+00
 -0.1200000      0.0000000E+00
 -0.1100000      0.0000000E+00
 -0.1000000      0.0000000E+00
 -9.0000004E-02  0.0000000E+00
 -7.9999998E-02  0.0000000E+00
 -7.0000000E-02  0.0000000E+00
 -5.9999999E-02  0.0000000E+00
 -5.0000001E-02  0.0000000E+00
 -3.9999999E-02  0.0000000E+00
 -2.9999999E-02  0.0000000E+00
 -2.0000000E-02  0.0000000E+00
 -9.9999998E-03  0.0000000E+00
 -3.4694470E-17  0.0000000E+00
  9.9999998E-03  0.0000000E+00
  2.0000000E-02  0.0000000E+00
  2.9999999E-02  0.0000000E+00
  3.9999999E-02  0.0000000E+00
  5.0000001E-02  0.0000000E+00
  5.9999999E-02  0.0000000E+00
  7.0000000E-02  0.0000000E+00
  7.9999998E-02  0.0000000E+00
  9.0000004E-02  0.0000000E+00
  0.1000000      0.0000000E+00
  0.1100000      0.0000000E+00
  0.1200000      0.0000000E+00
  0.1300000      0.0000000E+00
  0.1400000      0.0000000E+00
  0.1500000      0.0000000E+00
  0.1600000      0.0000000E+00
  0.1700000      0.0000000E+00
  0.1800000      0.0000000E+00
  0.1900000      0.0000000E+00
  0.2000000      0.0000000E+00
  0.2100000      0.0000000E+00
  0.2200000      0.0000000E+00
  0.2300000      0.0000000E+00
  0.2400000      0.0000000E+00
  0.2500000      0.0000000E+00
  0.2600000      0.0000000E+00
  0.2700000      0.0000000E+00
  0.2800000      0.0000000E+00
  0.2900000      0.0000000E+00
  0.3000000      0.0000000E+00
  0.3100000      0.0000000E+00
  0.3200000      0.0000000E+00
  0.3300000      0.0000000E+00
  0.3400000      0.0000000E+00
  0.3500000      0.0000000E+00
  0.3600000      0.0000000E+00
  0.3700000      0.0000000E+00
  0.3800000      0.0000000E+00
  0.3900000      0.0000000E+00
  0.4000000      0.0000000E+00
  0.4100000      0.0000000E+00
  0.4200000      0.0000000E+00
  0.4300000      0.0000000E+00
  0.4400000      0.0000000E+00
  0.4500000      0.0000000E+00
  0.4600000      0.0000000E+00
  0.4700000      0.0000000E+00
  0.4800000      0.0000000E+00
  0.4900000      0.0000000E+00
  0.5000000      0.0000000E+00
  0.5100000      0.0000000E+00
  0.5200000      0.0000000E+00
  0.5300000      0.0000000E+00
  0.5400000      0.0000000E+00
  0.5500000      0.0000000E+00
  0.5600000      0.0000000E+00
  0.5700000      0.0000000E+00
  0.5800000      0.0000000E+00
  0.5900000      0.0000000E+00
  0.6000000      0.0000000E+00
  0.6100000      0.0000000E+00
  0.6200000      0.0000000E+00
  0.6300000      0.0000000E+00
  0.6400000      0.0000000E+00
  0.6500000      0.0000000E+00
  0.6600000      0.0000000E+00
  0.6700000      0.0000000E+00
  0.6800000      0.0000000E+00
  0.6900000      0.0000000E+00
  0.7000000      0.0000000E+00
  0.7100000      0.0000000E+00
  0.7200000      0.0000000E+00
  0.7300000      0.0000000E+00
  0.7400000      0.0000000E+00
  0.7500000      0.0000000E+00
  0.7600000      0.0000000E+00
  0.7700000      0.0000000E+00
  0.7800000      0.0000000E+00
  0.7900000      0.0000000E+00
  0.8000000      0.0000000E+00
  0.8100000      0.0000000E+00
  0.8200000      0.0000000E+00
  0.8300000      0.0000000E+00
  0.8400000      0.0000000E+00
  0.8500000      0.0000000E+00
  0.8600000      0.0000000E+00
  0.8700000      0.0000000E+00
  0.8800000      0.0000000E+00
  0.8900000      0.0000000E+00
  0.9000000      0.0000000E+00
  0.9100000      0.0000000E+00
  0.9200000      0.0000000E+00
  0.9300000      0.0000000E+00
  0.9400000      0.0000000E+00
  0.9500000      0.0000000E+00
  0.9600000      0.0000000E+00
  0.9700000      0.0000000E+00
  0.9800000      0.0000000E+00
  0.9900000      0.0000000E+00
   1.000000      0.0000000E+00
   1.010000      0.0000000E+00
   1.020000      0.0000000E+00
   1.030000      0.0000000E+00
   1.040000      0.0000000E+00
   1.050000      0.0000000E+00
   1.060000      0.0000000E+00
   1.070000      0.0000000E+00
   1.080000      0.0000000E+00
   1.090000      0.0000000E+00
   1.100000      0.0000000E+00
   1.110000      0.0000000E+00
   1.120000      0.0000000E+00
   1.130000      0.0000000E+00
   1.140000      0.0000000E+00
   1.150000      0.0000000E+00
   1.160000      0.0000000E+00
   1.170000      0.0000000E+00
   1.180000      0.0000000E+00
   1.190000      0.0000000E+00
   1.200000      0.0000000E+00
   1.210000      0.0000000E+00
   1.220000      0.0000000E+00
   1.230000      0.0000000E+00
   1.240000      0.0000000E+00
   1.250000      0.0000000E+00
   1.260000      0.0000000E+00
   1.270000      0.0000000E+00
   1.280000      0.0000000E+00
   1.290000      0.0000000E+00
   1.300000      0.0000000E+00
   1.310000      0.0000000E+00
   1.320000      0.0000000E+00
   1.330000      0.0000000E+00
   1.340000      0.0000000E+00
   1.350000      0.0000000E+00
   1.360000      0.0000000E+00
   1.370000      0.0000000E+00
   1.380000      0.0000000E+00
   1.390000      0.0000000E+00
   1.400000      0.0000000E+00
   1.410000      0.0000000E+00
   1.420000      0.0000000E+00
   1.430000      0.0000000E+00
   1.440000      0.0000000E+00
   1.450000      0.0000000E+00
   1.460000      0.0000000E+00
   1.470000      0.0000000E+00
   1.480000      0.0000000E+00
   1.490000      0.0000000E+00
   1.500000      0.0000000E+00
   1.510000      0.0000000E+00
   1.520000      0.0000000E+00
   1.530000      0.0000000E+00
   1.540000      0.0000000E+00
   1.550000      0.0000000E+00
   1.560000      0.0000000E+00
   1.570000      0.0000000E+00
   1.580000      0.0000000E+00
   1.590000      0.0000000E+00
   1.600000      0.0000000E+00
   1.610000      0.0000000E+00
   1.620000      0.0000000E+00
   1.630000      0.0000000E+00
   1.640000      0.0000000E+00
   1.650000      0.0000000E+00
   1.660000      0.0000000E+00
   1.670000      0.0000000E+00
   1.680000      0.0000000E+00
   1.690000      0.0000000E+00
   1.700000      0.0000000E+00
   1.710000      0.0000000E+00
   1.720000      0.0000000E+00
   1.730000      0.0000000E+00
   1.740000      0.0000000E+00
   1.750000      0.0000000E+00
   1.760000      0.0000000E+00
   1.770000      0.0000000E+00
   1.780000      0.0000000E+00
   1.790000      0.0000000E+00
   1.800000      0.0000000E+00
   1.810000      0.0000000E+00
   1.820000      0.0000000E+00
   1.830000      0.0000000E+00
   1.840000      0.0000000E+00
   1.850000      0.0000000E+00
   1.860000      0.0000000E+00
   1.870000      0.0000000E+00
   1.880000      0.0000000E+00
   1.890000      0.0000000E+00
   1.900000      0.0000000E+00
   1.910000      0.0000000E+00
   1.920000      0.0000000E+00
   1.930000      0.0000000E+00
   1.940000      0.0000000E+00
   1.950000      0.0000000E+00
   1.960000      0.0000000E+00
   1.970000      0.0000000E+00
   1.980000      0.0000000E+00
   1.990000      0.0000000E+00
   2.000000      0.0000000E+00
   2.010000      0.0000000E+00
   2.020000      0.0000000E+00
   2.030000      0.0000000E+00
   2.040000      0.0000000E+00
   2.050000      0.0000000E+00
   2.060000      0.0000000E+00
   2.070000      0.0000000E+00
   2.080000      0.0000000E+00
   2.090000      0.0000000E+00
   2.100000      0.0000000E+00
   2.110000      0.0000000E+00
   2.120000      0.0000000E+00
   2.130000      0.0000000E+00
   2.140000      0.0000000E+00
   2.150000      0.0000000E+00
   2.160000      0.0000000E+00
   2.170000      0.0000000E+00
   2.180000      0.0000000E+00
   2.190000      0.0000000E+00
   2.200000      0.0000000E+00
   2.210000      0.0000000E+00
   2.220000      0.0000000E+00
   2.230000      0.0000000E+00
   2.240000      0.0000000E+00
   2.250000      0.0000000E+00
   2.260000      0.0000000E+00
   2.270000      0.0000000E+00
   2.280000      0.0000000E+00
   2.290000      0.0000000E+00
   2.300000      0.0000000E+00
   2.310000      0.0000000E+00
   2.320000      0.0000000E+00
   2.330000      0.0000000E+00
   2.340000      0.0000000E+00
   2.350000      0.0000000E+00
   2.360000      0.0000000E+00
   2.370000      0.0000000E+00
   2.380000      0.0000000E+00
   2.390000      0.0000000E+00
   2.400000      0.0000000E+00
   2.410000      0.0000000E+00
   2.420000      0.0000000E+00
   2.430000      0.0000000E+00
   2.440000      0.0000000E+00
   2.450000      0.0000000E+00
   2.460000      0.0000000E+00
   2.470000      0.0000000E+00
   2.480000      0.0000000E+00
   2.490000      0.0000000E+00
   2.500000      0.0000000E+00
   2.510000      0.0000000E+00
   2.520000      0.0000000E+00
   2.530000      0.0000000E+00
   2.540000      0.0000000E+00
   2.550000      0.0000000E+00
   2.560000      0.0000000E+00
   2.570000      0.0000000E+00
   2.580000      0.0000000E+00
   2.590000      0.0000000E+00
   2.600000      0.0000000E+00
   2.610000      0.0000000E+00
   2.620000      0.0000000E+00
   2.630000      0.0000000E+00
   2.640000      0.0000000E+00
   2.650000      0.0000000E+00
   2.660000      0.0000000E+00
   2.670000      0.0000000E+00
   2.680000      0.0000000E+00
   2.690000      0.0000000E+00
   2.700000      0.0000000E+00
   2.710000      0.0000000E+00
   2.720000      0.0000000E+00
   2.730000      0.0000000E+00
   2.740000      0.0000000E+00
   2.750000      0.0000000E+00
   2.760000      0.0000000E+00
   2.770000     -1.2091411E-38
   2.780000     -1.3493183E-38
   2.790000     -1.4950429E-38
   2.800000     -1.6074480E-38
   2.810000     -1.6924813E-38
   2.820000     -1.7661915E-38
   2.830000     -1.8204937E-38
   2.840000     -1.8664641E-38
   2.850000     -1.9311084E-38
   2.860000     -2.0149046E-38
   2.870000     -2.0860582E-38
   2.880000     -2.1478540E-38
   2.890000     -2.1988995E-38
   2.900000     -2.2340600E-38
   2.910000     -2.2565745E-38
   2.920000     -2.2675302E-38
   2.930000     -2.2460002E-38
   2.940000     -2.1879270E-38
   2.950000     -2.1039218E-38
   2.960000     -1.9843696E-38
   2.970000     -1.8327615E-38
   2.980000     -1.6547131E-38
   2.990000     -1.4465353E-38
   3.000000     -1.2360234E-38
   3.010000      0.0000000E+00
   3.020000      0.0000000E+00
   3.030000      0.0000000E+00
   3.040000      0.0000000E+00
   3.050000      0.0000000E+00
   3.060000      0.0000000E+00
   3.070000      1.3041868E-38
   3.080000      1.8467288E-38
   3.090000      2.4333671E-38
   3.100000      3.0921458E-38
   3.110000      3.7260823E-38
   3.120000      4.2715397E-38
   3.130000      4.7959810E-38
   3.140000      5.3292423E-38
   3.150000      5.8685348E-38
   3.160000      6.2889003E-38
   3.170000      6.5852665E-38
   3.180000      6.9053741E-38
   3.190000      7.2097955E-38
   3.200000      7.4495369E-38
   3.210000      7.6622215E-38
   3.220000      7.7679316E-38
   3.230000      7.7558664E-38
   3.240000      7.6902587E-38
   3.250000      7.5591330E-38
   3.260000      7.4095758E-38
   3.270000      7.5279463E-38
   3.280000      7.8188693E-38
   3.290000      7.9008369E-38
   3.300000      7.8081118E-38
   3.310000      7.5274996E-38
   3.320000      6.8173927E-38
   3.330000      5.7805961E-38
   3.340000      3.9556262E-38
   3.350000      0.0000000E+00
   3.360000     -4.7524948E-38
   3.370000     -1.0233360E-37
   3.380000     -1.6234081E-37
   3.390000     -2.2485932E-37
   3.400000     -2.8957626E-37
   3.410000     -3.5639852E-37
   3.420000     -4.2460877E-37
   3.430000     -4.8015360E-37
   3.440000     -5.1020654E-37
   3.450000     -5.2718534E-37
   3.460000     -5.4088157E-37
   3.470000     -5.5206783E-37
   3.480000     -5.5325192E-37
   3.490000     -5.3913055E-37
   3.500000     -5.0372662E-37
   3.510000     -4.5146940E-37
   3.520000     -3.9477277E-37
   3.530000     -3.3488072E-37
   3.540000     -2.7546961E-37
   3.550000     -2.1816011E-37
   3.560000     -1.6091793E-37
   3.570000     -1.0718240E-37
   3.580000     -6.0561967E-38
   3.590000     -2.1474110E-38
   3.600000      0.0000000E+00
   3.610000      2.9205882E-38
   3.620000      6.3260016E-38
   3.630000      1.2537485E-37
   3.640000      2.1063218E-37
   3.650000      3.1182855E-37
   3.660000      3.9238321E-37
   3.670000      4.4176187E-37
   3.680000      4.7862966E-37
   3.690000      5.0169866E-37
   3.700000      5.1999527E-37
   3.710000      5.4091296E-37
   3.720000      5.6939501E-37
   3.730000      6.0445926E-37
   3.740000      6.4171102E-37
   3.750000      6.8272194E-37
   3.760000      7.3913535E-37
   3.770000      8.3046525E-37
   3.780000      9.6517546E-37
   3.790000      1.1366670E-36
   3.800000      1.3346805E-36
   3.810000      1.5364816E-36
   3.820000      1.7385001E-36
   3.830000      1.9376027E-36
   3.840000      2.1400601E-36
   3.850000      2.3480457E-36
   3.860000      2.5524008E-36
   3.870000      2.7549492E-36
   3.880000      2.9280431E-36
   3.890000      3.0542782E-36
   3.900000      3.1505039E-36
   3.910000      3.2272245E-36
   3.920000      3.2728840E-36
   3.930000      3.2795320E-36
   3.940000      3.2333678E-36
   3.950000      3.0713438E-36
   3.960000      2.7935739E-36
   3.970000      2.4436035E-36
   3.980000      2.0338528E-36
   3.990000      1.5837589E-36
   4.000000      1.0815780E-36
   4.010000      5.3110391E-37
   4.020000     -5.1592542E-38
   4.030000     -6.5011164E-37
   4.040000     -1.2747148E-36
   4.050000     -1.8517141E-36
   4.060000     -2.3685368E-36
   4.070000     -2.8013094E-36
   4.080000     -3.2163011E-36
   4.090000     -3.6966223E-36
   4.100000     -4.1658393E-36
   4.110000     -4.6542760E-36
   4.120000     -5.1844553E-36
   4.130000     -5.7816827E-36
   4.140000     -6.4519272E-36
   4.150000     -7.2076128E-36
   4.160000     -8.0087964E-36
   4.170000     -8.7387609E-36
   4.180000     -9.2516191E-36
   4.190000     -9.3860541E-36
   4.200000     -9.3660978E-36
   4.210000     -9.4868084E-36
   4.220000     -9.7702931E-36
   4.230000     -1.0103496E-35
   4.240000     -1.0324461E-35
   4.250000     -1.0494780E-35
   4.260000     -1.0953384E-35
   4.270000     -1.1248027E-35
   4.280000     -1.1130318E-35
   4.290000     -1.1202392E-35
   4.300000     -1.1502366E-35
   4.310000     -1.1865709E-35
   4.320000     -1.2203437E-35
   4.330000     -1.2453197E-35
   4.340000     -1.2567507E-35
   4.350000     -1.2582536E-35
   4.360000     -1.2502889E-35
   4.370000     -1.2205626E-35
   4.380000     -1.1621961E-35
   4.390000     -1.0400644E-35
   4.400000     -8.5212213E-36
   4.410000     -6.6149266E-36
   4.420000     -4.7436241E-36
   4.430000     -2.9478511E-36
   4.440000     -1.2397183E-36
   4.450000      8.0981285E-37
   4.460000      3.3040044E-36
   4.470000      6.0385692E-36
   4.480000      9.0427407E-36
   4.490000      1.1916788E-35
   4.500000      1.4150455E-35
   4.510000      1.6069233E-35
   4.520000      1.8349635E-35
   4.530000      2.1160183E-35
   4.540000      2.3828918E-35
   4.550000      2.6219918E-35
   4.560000      2.8436543E-35
   4.570000      3.0834026E-35
   4.580000      3.3920764E-35
   4.590000      3.7358648E-35
   4.600000      4.0672369E-35
   4.610000      4.3862108E-35
   4.620000      4.7361003E-35
   4.630000      5.1060966E-35
   4.640000      5.4696056E-35
   4.650000      5.7669196E-35
   4.660000      5.9628524E-35
   4.670000      6.0064955E-35
   4.680000      6.0272072E-35
   4.690000      6.1109256E-35
   4.700000      6.0811985E-35
   4.710000      5.9405983E-35
   4.720000      5.7014937E-35
   4.730000      5.4085488E-35
   4.740000      5.2612527E-35
   4.750000      5.3295789E-35
   4.760000      5.3651979E-35
   4.770000      5.3831523E-35
   4.780000      5.4994482E-35
   4.790000      5.6109772E-35
   4.800000      5.7930824E-35
   4.810000      6.0754645E-35
   4.820000      6.3147815E-35
   4.830000      6.3752391E-35
   4.840000      6.2772805E-35
   4.850000      6.0800815E-35
   4.860000      5.7817023E-35
   4.870000      5.3364109E-35
   4.880000      4.7970174E-35
   4.890000      4.1650339E-35
   4.900000      3.3960138E-35
   4.910000      2.6508109E-35
   4.920000      1.8618954E-35
   4.930000      9.1877812E-36
   4.940000     -1.7698488E-36
   4.950000     -1.4611911E-35
   4.960000     -2.8085117E-35
   4.970000     -4.2226142E-35
   4.980000     -5.8563387E-35
   4.990000     -7.6691938E-35
   5.000000     -9.5084969E-35
   5.010000     -1.1327372E-34
   5.020000     -1.3098155E-34
   5.030000     -1.4742256E-34
   5.040000     -1.6174150E-34
   5.050000     -1.7441804E-34
   5.060000     -1.8804809E-34
   5.070000     -2.0681542E-34
   5.080000     -2.2775635E-34
   5.090000     -2.4766220E-34
   5.100000     -2.7331559E-34
   5.110000     -3.0050482E-34
   5.120000     -3.2399464E-34
   5.130000     -3.4848203E-34
   5.140000     -3.7475423E-34
   5.150000     -4.0103923E-34
   5.160000     -4.2245830E-34
   5.170000     -4.4270779E-34
   5.180000     -4.6748708E-34
   5.190000     -4.9344195E-34
   5.200000     -5.2091816E-34
   5.210000     -5.4588093E-34
   5.220000     -5.6651779E-34
   5.230000     -5.8748691E-34
   5.240000     -6.0831249E-34
   5.250000     -6.2757655E-34
   5.260000     -6.4511474E-34
   5.270000     -6.6080603E-34
   5.280000     -6.7599172E-34
   5.290000     -6.9070216E-34
   5.300000     -7.0322645E-34
   5.310000     -7.1598139E-34
   5.320000     -7.3219417E-34
   5.330000     -7.4848579E-34
   5.340000     -7.5990985E-34
   5.350000     -7.6647099E-34
   5.360000     -7.6455103E-34
   5.370000     -7.5331450E-34
   5.380000     -7.3787838E-34
   5.390000     -7.1897496E-34
   5.400000     -6.9882928E-34
   5.410000     -6.7376746E-34
   5.420000     -6.4068804E-34
   5.430000     -6.0193025E-34
   5.440000     -5.5696268E-34
   5.450000     -5.0346272E-34
   5.460000     -4.3858640E-34
   5.470000     -3.6667322E-34
   5.480000     -2.9218804E-34
   5.490000     -2.1627829E-34
   5.500000     -1.3556657E-34
   5.510000     -4.7339468E-35
   5.520000      4.7273148E-35
   5.530000      1.4755702E-34
   5.540000      2.5103591E-34
   5.550000      3.6068924E-34
   5.560000      4.8278958E-34
   5.570000      6.1614547E-34
   5.580000      7.5838161E-34
   5.590000      9.0957576E-34
   5.600000      1.0688629E-33
   5.610000      1.2379440E-33
   5.620000      1.4183327E-33
   5.630000      1.6114046E-33
   5.640000      1.8163513E-33
   5.650000      2.0316693E-33
   5.660000      2.2587410E-33
   5.670000      2.4969034E-33
   5.680000      2.7465003E-33
   5.690000      3.0079302E-33
   5.700000      3.2797611E-33
   5.710000      3.5604339E-33
   5.720000      3.8466697E-33
   5.730000      4.1387176E-33
   5.740000      4.4352801E-33
   5.750000      4.7327507E-33
   5.760000      5.0327847E-33
   5.770000      5.3360001E-33
   5.780000      5.6404127E-33
   5.790000      5.9436756E-33
   5.800000      6.2425957E-33
   5.810000      6.5396094E-33
   5.820000      6.8338216E-33
   5.830000      7.1205269E-33
   5.840000      7.4000470E-33
   5.850000      7.6709925E-33
   5.860000      7.9322866E-33
   5.870000      8.1826661E-33
   5.880000      8.4199749E-33
   5.890000      8.6424394E-33
   5.900000      8.8479893E-33
   5.910000      9.0346211E-33
   5.920000      9.2011188E-33
   5.930000      9.3449972E-33
   5.940000      9.4631593E-33
   5.950000      9.5518158E-33
   5.960000      9.6088516E-33
   5.970000      9.6346999E-33
   5.980000      9.6228701E-33
   5.990000      9.5672479E-33
   6.000000      9.4664081E-33
   6.010000      9.3164833E-33
   6.020000      9.1138024E-33
   6.030000      8.8548351E-33
   6.040000      8.5338539E-33
   6.050000      8.1481015E-33
   6.060000      7.6950681E-33
   6.070000      7.1695854E-33
   6.080000      6.5671380E-33
   6.090000      5.8844208E-33
   6.100000      5.1190751E-33
   6.110000      4.2668884E-33
   6.120000      3.3243046E-33
   6.130000      2.2885760E-33
   6.140000      1.1572215E-33
   6.150000     -7.2284230E-35
   6.160000     -1.4025910E-33
   6.170000     -2.8349621E-33
   6.180000     -4.3710853E-33
   6.190000     -6.0128619E-33
   6.200000     -7.7608532E-33
   6.210000     -9.6162094E-33
   6.220000     -1.1579644E-32
   6.230000     -1.3651305E-32
   6.240000     -1.5831176E-32
   6.250000     -1.8119096E-32
   6.260000     -2.0514542E-32
   6.270000     -2.3017287E-32
   6.280000     -2.5625180E-32
   6.290000     -2.8334903E-32
   6.300000     -3.1146083E-32
   6.310000     -3.4056167E-32
   6.320000     -3.7060519E-32
   6.330000     -4.0155683E-32
   6.340000     -4.3336983E-32
   6.350000     -4.6598409E-32
   6.360000     -4.9933525E-32
   6.370000     -5.3334788E-32
   6.380000     -5.6793745E-32
   6.390000     -6.0301120E-32
   6.400000     -6.3846511E-32
   6.410000     -6.7418551E-32
   6.420000     -7.1004667E-32
   6.430000     -7.4591206E-32
   6.440000     -7.8163410E-32
   6.450000     -8.1705356E-32
   6.460000     -8.5199930E-32
   6.470000     -8.8628765E-32
   6.480000     -9.1972547E-32
   6.490000     -9.5210822E-32
   6.500000     -9.8321803E-32
   6.510000     -1.0128273E-31
   6.520000     -1.0406983E-31
   6.530000     -1.0665827E-31
   6.540000     -1.0902238E-31
   6.550000     -1.1113543E-31
   6.560000     -1.1296984E-31
   6.570000     -1.1449731E-31
   6.580000     -1.1568880E-31
   6.590000     -1.1651448E-31
   6.600000     -1.1694386E-31
   6.610000     -1.1694577E-31
   6.620000     -1.1648848E-31
   6.630000     -1.1553965E-31
   6.640000     -1.1406643E-31
   6.650000     -1.1203554E-31
   6.660000     -1.0941240E-31
   6.670000     -1.0616423E-31
   6.680000     -1.0225739E-31
   6.690000     -9.7656450E-32
   6.700000     -9.2327417E-32
   6.710000     -8.6236076E-32
   6.720000     -7.9348549E-32
   6.730000     -7.1631446E-32
   6.740000     -6.3052077E-32
   6.750000     -5.3578556E-32
   6.760000     -4.3179981E-32
   6.770000     -3.1826806E-32
   6.780000     -1.9491010E-32
   6.790000     -6.1462776E-33
   6.800000      8.2317849E-33
   6.810000      2.3665355E-32
   6.820000      4.0174100E-32
   6.830000      5.7774954E-32
   6.840000      7.6481812E-32
   6.850000      9.6305325E-32
   6.860000      1.1725240E-31
   6.870000      1.3932616E-31
   6.880000      1.6252566E-31
   6.890000      1.8684543E-31
   6.900000      2.1227521E-31
   6.910000      2.3879982E-31
   6.920000      2.6639869E-31
   6.930000      2.9504574E-31
   6.940000      3.2470901E-31
   6.950000      3.5535053E-31
   6.960000      3.8692596E-31
   6.970000      4.1938436E-31
   6.980000      4.5266806E-31
   6.990000      4.8671221E-31
   7.000000      5.2144487E-31
   7.010000      5.5678625E-31
   7.020000      5.9264913E-31
   7.030000      6.2893814E-31
   7.040000      6.6555000E-31
   7.050000      7.0237264E-31
   7.060000      7.3928556E-31