  -2.600000      0.0000000E+00
  -2.590000      0.0000000E+00
  -2.580000      0.0000000E+00
  -2.570000      0.0000000E+00
  -2.560000      0.0000000E+00
  -2.550000      0.0000000E+00
  -2.540000      0.0000000E+00
  -2.530000      0.0000000E+00
  -2.520000      0.0000000E+00
  -2.510000      0.0000000E+00
  -2.500000      0.0000000E+00
  -2.490000      0.0000000E+00
  -2.480000      0.0000000E+00
  -2.470000      0.0000000E+00
  -2.460000      0.0000000E+00
  -2.450000      0.0000000E+00
  -2.440000      0.0000000E+00
  -2.430000      0.0000000E+00
  -2.420000      0.0000000E+00
  -2.410000      0.0000000E+00
  -2.400000      0.0000000E+00
  -2.390000      0.0000000E+00
  -2.380000      0.0000000E+00
  -2.370000      0.0000000E+00
  -2.360000      0.0000000E+00
  -2.350000      0.0000000E+00
  -2.340000      0.0000000E+00
  -2.330000      0.0000000E+00
  -2.320000      0.0000000E+00
  -2.310000      0.0000000E+00
  -2.300000      0.0000000E+00
  -2.290000      0.0000000E+00
  -2.280000      0.0000000E+00
  -2.270000      0.0000000E+00
  -2.260000      0.0000000E+00
  -2.250000      0.0000000E+00
  -2.240000      0.0000000E+00
  -2.230000      0.0000000E+00
  -2.220000      0.0000000E+00
  -2.210000      0.0000000E+00
  -2.200000      0.0000000E+00
  -2.190000      0.0000000E+00
  -2.180000      0.0000000E+00
  -2.170000      0.0000000E+00
  -2.160000      0.0000000E+00
  -2.150000      0.0000000E+00
  -2.140000      0.0000000E+00
  -2.130000      0.0000000E+00
  -2.120000      0.0000000E+00
  -2.110000      0.0000000E+00
  -2.100000      0.0000000E+00
  -2.090000      0.0000000E+00
  -2.080000      0.0000000E+00
  -2.070000      0.0000000E+00
  -2.060000      0.0000000E+00
  -2.050000      0.0000000E+00
  -2.040000      0.0000000E+00
  -2.030000      0.0000000E+00
  -2.020000      0.0000000E+00
  -2.010000      0.0000000E+00
  -2.000000      0.0000000E+00
  -1.990000      0.0000000E+00
  -1.980000      0.0000000E+00
  -1.970000      0.0000000E+00
  -1.960000      0.0000000E+00
  -1.950000      0.0000000E+00
  -1.940000      0.0000000E+00
  -1.930000      0.0000000E+00
  -1.920000      0.0000000E+00
  -1.910000      0.0000000E+00
  -1.900000      0.0000000E+00
  -1.890000      0.0000000E+00
  -1.880000      0.0000000E+00
  -1.870000      0.0000000E+00
  -1.860000      0.0000000E+00
  -1.850000      0.0000000E+00
  -1.840000      0.0000000E+00
  -1.830000      0.0000000E+00
  -1.820000      0.0000000E+00
  -1.810000      0.0000000E+00
  -1.800000      0.0000000E+00
  -1.790000      0.0000000E+00
  -1.780000      0.0000000E+00
  -1.770000      0.0000000E+00
  -1.760000      0.0000000E+00
  -1.750000      0.0000000E+00
  -1.740000      0.0000000E+00
  -1.730000      0.0000000E+00
  -1.720000      0.0000000E+00
  -1.710000      0.0000000E+00
  -1.700000      0.0000000E+00
  -1.690000      0.0000000E+00
  -1.680000      0.0000000E+00
  -1.670000      0.0000000E+00
  -1.660000      0.0000000E+00
  -1.650000      0.0000000E+00
  -1.640000      0.0000000E+00
  -1.630000      0.0000000E+00
  -1.620000      0.0000000E+00
  -1.610000      0.0000000E+00
  -1.600000      0.0000000E+00
  -1.590000      0.0000000E+00
  -1.580000      0.0000000E+00
  -1.570000      0.0000000E+00
  -1.560000      0.0000000E+00
  -1.550000      0.0000000E+00
  -1.540000      0.0000000E+00
  -1.530000      0.0000000E+00
  -1.520000      0.0000000E+00
  -1.510000      0.0000000E+00
  -1.500000      0.0000000E+00
  -1.490000      0.0000000E+00
  -1.480000      0.0000000E+00
  -1.470000      0.0000000E+00
  -1.460000      0.0000000E+00
  -1.450000      0.0000000E+00
  -1.440000      0.0000000E+00
  -1.430000      0.0000000E+00
  -1.420000      0.0000000E+00
  -1.410000      0.0000000E+00
  -1.400000      0.0000000E+00
  -1.390000      0.0000000E+00
  -1.380000      0.0000000E+00
  -1.370000      0.0000000E+00
  -1.360000      0.0000000E+00
  -1.350000      0.0000000E+00
  -1.340000      0.0000000E+00
  -1.330000      0.0000000E+00
  -1.320000      0.0000000E+00
  -1.310000      0.0000000E+00
  -1.300000      0.0000000E+00
  -1.290000      0.0000000E+00
  -1.280000      0.0000000E+00
  -1.270000      0.0000000E+00
  -1.260000      0.0000000E+00
  -1.250000      0.0000000E+00
  -1.240000      0.0000000E+00
  -1.230000      0.0000000E+00
  -1.220000      0.0000000E+00
  -1.210000      0.0000000E+00
  -1.200000      0.0000000E+00
  -1.190000      0.0000000E+00
  -1.180000      0.0000000E+00
  -1.170000      0.0000000E+00
  -1.160000      0.0000000E+00
  -1.150000      0.0000000E+00
  -1.140000      0.0000000E+00
  -1.130000      0.0000000E+00
  -1.120000      0.0000000E+00
  -1.110000      0.0000000E+00
  -1.100000      0.0000000E+00
  -1.090000      0.0000000E+00
  -1.080000      0.0000000E+00
  -1.070000      0.0000000E+00
  -1.060000      0.0000000E+00
  -1.050000      0.0000000E+00
  -1.040000      0.0000000E+00
  -1.030000      0.0000000E+00
  -1.020000      0.0000000E+00
  -1.010000      0.0000000E+00
  -1.000000      0.0000000E+00
 -0.9900000      0.0000000E+00
 -0.9800000      0.0000000E+00
 -0.9700000      0.0000000E+00
 -0.9600000      0.0000000E+00
 -0.9500000      0.0000000E+00
 -0.9400000      0.0000000E+00
 -0.9300000      0.0000000E+00
 -0.9200000      0.0000000E+00
 -0.9100000      0.0000000E+00
 -0.9000000      0.0000000E+00
 -0.8900000      0.0000000E+00
 -0.8800000      0.0000000E+00
 -0.8700000      0.0000000E+00
 -0.8600000      0.0000000E+00
 -0.8500000      0.0000000E+00
 -0.8400000      0.0000000E+00
 -0.8300000      0.0000000E+00
 -0.8200000      0.0000000E+00
 -0.8100000      0.0000000E+00
 -0.8000000      0.0000000E+00
 -0.7900000      0.0000000E+00
 -0.7800000      0.0000000E+00
 -0.7700000      0.0000000E+00
 -0.7600000      0.0000000E+00
 -0.7500000      0.0000000E+00
 -0.7400000      0.0000000E+00
 -0.7300000      0.0000000E+00
 -0.7200000      0.0000000E+00
 -0.7100000      0.0000000E+00
 -0.7000000      0.0000000E+00
 -0.6900000      0.0000000E+00
 -0.6800000      0.0000000E+00
 -0.6700000      0.0000000E+00
 -0.6600000      0.0000000E+00
 -0.6500000      0.0000000E+00
 -0.6400000      0.0000000E+00
 -0.6300000      0.0000000E+00
 -0.6200000      0.0000000E+00
 -0.6100000      0.0000000E+00
 -0.6000000      0.0000000E+00
 -0.5900000      0.0000000E+00
 -0.5800000      0.0000000E+00
 -0.5700000      0.0000000E+00
 -0.5600000      0.0000000E+00
 -0.5500000      0.0000000E+00
 -0.5400000      0.0000000E+00
 -0.5300000      0.0000000E+00
 -0.5200000      0.0000000E+00
 -0.5100000      0.0000000E+00
 -0.5000000      0.0000000E+00
 -0.4900000      0.0000000E+00
 -0.4800000      0.0000000E+00
 -0.4700000      0.0000000E+00
 -0.4600000      0.0000000E+00
 -0.4500000      0.0000000E+00
 -0.4400000      0.0000000E+00
 -0.4300000      0.0000000E+00
 -0.4200000      0.0000000E+00
 -0.4100000      0.0000000E+00
 -0.4000000      0.0000000E+00
 -0.3900000      0.0000000E+00
 -0.3800000      0.0000000E+00
 -0.3700000      0.0000000E+00
 -0.3600000      0.0000000E+00
 -0.3500000      0.0000000E+00
 -0.3400000      0.0000000E+00
 -0.3300000      0.0000000E+00
 -0.3200000      0.0000000E+00
 -0.3100000      0.0000000E+00
 -0.3000000      0.0000000E+00
 -0.2900000      0.0000000E+00
 -0.2800000      0.0000000E+00
 -0.2700000      0.0000000E+00
 -0.2600000      0.0000000E+00
 -0.2500000      0.0000000E+00
 -0.2400000      0.0000000E+00
 -0.2300000      0.0000000E+00
 -0.2200000      0.0000000E+00
 -0.2100000      0.0000000E+00
 -0.2000000      0.0000000E+00
 -0.1900000      0.0000000E+00
 -0.1800000      0.0000000E+00
 -0.1700000      0.0000000E+00
 -0.1600000      0.0000000E+00
 -0.1500000      0.0000000E+00
 -0.1400000      0.0000000E+00
 -0.1300000      0.0000000E+00
 -0.1200000      0.0000000E+00
 -0.1100000      0.0000000E+00
 -0.1000000      0.0000000E+00
 -9.0000004E-02  0.0000000E+00
 -7.9999998E-02  0.0000000E+00
 -7.0000000E-02  0.0000000E+00
 -5.9999999E-02  0.0000000E+00
 -5.0000001E-02  0.0000000E+00
 -3.9999999E-02  0.0000000E+00
 -2.9999999E-02  0.0000000E+00
 -2.0000000E-02  0.0000000E+00
 -9.9999998E-03  0.0000000E+00
 -3.4694470E-17  0.0000000E+00
  9.9999998E-03  0.0000000E+00
  2.0000000E-02  0.0000000E+00
  2.9999999E-02  0.0000000E+00
  3.9999999E-02  0.0000000E+00
  5.0000001E-02  0.0000000E+00
  5.9999999E-02  0.0000000E+00
  7.0000000E-02  0.0000000E+00
  7.9999998E-02  0.0000000E+00
  9.0000004E-02  0.0000000E+00
  0.1000000      0.0000000E+00
  0.1100000      0.0000000E+00
  0.1200000      0.0000000E+00
  0.1300000      0.0000000E+00
  0.1400000      0.0000000E+00
  0.1500000      0.0000000E+00
  0.1600000      0.0000000E+00
  0.1700000      0.0000000E+00
  0.1800000      0.0000000E+00
  0.1900000      0.0000000E+00
  0.2000000      0.0000000E+00
  0.2100000      0.0000000E+00
  0.2200000      0.0000000E+00
  0.2300000      0.0000000E+00
  0.2400000      0.0000000E+00
  0.2500000      0.0000000E+00
  0.2600000      0.0000000E+00
  0.2700000      0.0000000E+00
  0.2800000      0.0000000E+00
  0.2900000      0.0000000E+00
  0.3000000      0.0000000E+00
  0.3100000      0.0000000E+00
  0.3200000      0.0000000E+00
  0.3300000      0.0000000E+00
  0.3400000      0.0000000E+00
  0.3500000      0.0000000E+00
  0.3600000      0.0000000E+00
  0.3700000      0.0000000E+00
  0.3800000      0.0000000E+00
  0.3900000      0.0000000E+00
  0.4000000      0.0000000E+00
  0.4100000      0.0000000E+00
  0.4200000      0.0000000E+00
  0.4300000      0.0000000E+00
  0.4400000      0.0000000E+00
  0.4500000      0.0000000E+00
  0.4600000      0.0000000E+00
  0.4700000      0.0000000E+00
  0.4800000      0.0000000E+00
  0.4900000      0.0000000E+00
  0.5000000      0.0000000E+00
  0.5100000      0.0000000E+00
  0.5200000      0.0000000E+00
  0.5300000      0.0000000E+00
  0.5400000      0.0000000E+00
  0.5500000      0.0000000E+00
  0.5600000      0.0000000E+00
  0.5700000      0.0000000E+00
  0.5800000      0.0000000E+00
  0.5900000      0.0000000E+00
  0.6000000      0.0000000E+00
  0.6100000      0.0000000E+00
  0.6200000      0.0000000E+00
  0.6300000      0.0000000E+00
  0.6400000      0.0000000E+00
  0.6500000      0.0000000E+00
  0.6600000      0.0000000E+00
  0.6700000      0.0000000E+00
  0.6800000      0.0000000E+00
  0.6900000      0.0000000E+00
  0.7000000      0.0000000E+00
  0.7100000      0.0000000E+00
  0.7200000      0.0000000E+00
  0.7300000      0.0000000E+00
  0.7400000      0.0000000E+00
  0.7500000      0.0000000E+00
  0.7600000      0.0000000E+00
  0.7700000      0.0000000E+00
  0.7800000      0.0000000E+00
  0.7900000      0.0000000E+00
  0.8000000      0.0000000E+00
  0.8100000      0.0000000E+00
  0.8200000      0.0000000E+00
  0.8300000      0.0000000E+00
  0.8400000      0.0000000E+00
  0.8500000      0.0000000E+00
  0.8600000      0.0000000E+00
  0.8700000      0.0000000E+00
  0.8800000      0.0000000E+00
  0.8900000      0.0000000E+00
  0.9000000      0.0000000E+00
  0.9100000      0.0000000E+00
  0.9200000      0.0000000E+00
  0.9300000      0.0000000E+00
  0.9400000      0.0000000E+00
  0.9500000      0.0000000E+00
  0.9600000      0.0000000E+00
  0.9700000      0.0000000E+00
  0.9800000      0.0000000E+00
  0.9900000      0.0000000E+00
   1.000000      0.0000000E+00
   1.010000      0.0000000E+00
   1.020000      0.0000000E+00
   1.030000      0.0000000E+00
   1.040000      0.0000000E+00
   1.050000      0.0000000E+00
   1.060000      0.0000000E+00
   1.070000      0.0000000E+00
   1.080000      0.0000000E+00
   1.090000      0.0000000E+00
   1.100000      0.0000000E+00
   1.110000      0.0000000E+00
   1.120000      0.0000000E+00
   1.130000      0.0000000E+00
   1.140000      0.0000000E+00
   1.150000      0.0000000E+00
   1.160000      0.0000000E+00
   1.170000      0.0000000E+00
   1.180000      0.0000000E+00
   1.190000      0.0000000E+00
   1.200000      0.0000000E+00
   1.210000      0.0000000E+00
   1.220000      0.0000000E+00
   1.230000      0.0000000E+00
   1.240000      0.0000000E+00
   1.250000      0.0000000E+00
   1.260000      0.0000000E+00
   1.270000      0.0000000E+00
   1.280000      0.0000000E+00
   1.290000      0.0000000E+00
   1.300000      0.0000000E+00
   1.310000      0.0000000E+00
   1.320000      0.0000000E+00
   1.330000      0.0000000E+00
   1.340000      0.0000000E+00
   1.350000      0.0000000E+00
   1.360000      0.0000000E+00
   1.370000      0.0000000E+00
   1.380000      0.0000000E+00
   1.390000      0.0000000E+00
   1.400000      0.0000000E+00
   1.410000      0.0000000E+00
   1.420000      0.0000000E+00
   1.430000      0.0000000E+00
   1.440000      0.0000000E+00
   1.450000      0.0000000E+00
   1.460000      0.0000000E+00
   1.470000      0.0000000E+00
   1.480000      0.0000000E+00
   1.490000      0.0000000E+00
   1.500000      0.0000000E+00
   1.510000      0.0000000E+00
   1.520000      0.0000000E+00
   1.530000      0.0000000E+00
   1.540000      0.0000000E+00
   1.550000      0.0000000E+00
   1.560000      0.0000000E+00
   1.570000      0.0000000E+00
   1.580000      0.0000000E+00
   1.590000      0.0000000E+00
   1.600000      0.0000000E+00
   1.610000      0.0000000E+00
   1.620000      0.0000000E+00
   1.630000      0.0000000E+00
   1.640000      0.0000000E+00
   1.650000      0.0000000E+00
   1.660000      0.0000000E+00
   1.670000      0.0000000E+00
   1.680000      0.0000000E+00
   1.690000      0.0000000E+00
   1.700000      0.0000000E+00
   1.710000      0.0000000E+00
   1.720000      0.0000000E+00
   1.730000      0.0000000E+00
   1.740000      0.0000000E+00
   1.750000      0.0000000E+00
   1.760000      0.0000000E+00
   1.770000      0.0000000E+00
   1.780000      0.0000000E+00
   1.790000      0.0000000E+00
   1.800000      0.0000000E+00
   1.810000      0.0000000E+00
   1.820000      0.0000000E+00
   1.830000      0.0000000E+00
   1.840000      0.0000000E+00
   1.850000      0.0000000E+00
   1.860000      0.0000000E+00
   1.870000      0.0000000E+00
   1.880000      0.0000000E+00
   1.890000      0.0000000E+00
   1.900000      0.0000000E+00
   1.910000      0.0000000E+00
   1.920000      0.0000000E+00
   1.930000      0.0000000E+00
   1.940000      0.0000000E+00
   1.950000      0.0000000E+00
   1.960000      0.0000000E+00
   1.970000      0.0000000E+00
   1.980000      0.0000000E+00
   1.990000      0.0000000E+00
   2.000000      0.0000000E+00
   2.010000      0.0000000E+00
   2.020000      0.0000000E+00
   2.030000      0.0000000E+00
   2.040000      0.0000000E+00
   2.050000      0.0000000E+00
   2.060000      0.0000000E+00
   2.070000      0.0000000E+00
   2.080000      0.0000000E+00
   2.090000      0.0000000E+00
   2.100000      0.0000000E+00
   2.110000      0.0000000E+00
   2.120000      0.0000000E+00
   2.130000      0.0000000E+00
   2.140000      0.0000000E+00
   2.150000      0.0000000E+00
   2.160000      0.0000000E+00
   2.170000      0.0000000E+00
   2.180000      0.0000000E+00
   2.190000      0.0000000E+00
   2.200000      0.0000000E+00
   2.210000      0.0000000E+00
   2.220000      0.0000000E+00
   2.230000      0.0000000E+00
   2.240000      0.0000000E+00
   2.250000      0.0000000E+00
   2.260000      0.0000000E+00
   2.270000      0.0000000E+00
   2.280000      0.0000000E+00
   2.290000      0.0000000E+00
   2.300000      0.0000000E+00
   2.310000      0.0000000E+00
   2.320000      0.0000000E+00
   2.330000      0.0000000E+00
   2.340000      0.0000000E+00
   2.350000      0.0000000E+00
   2.360000      0.0000000E+00
   2.370000      0.0000000E+00
   2.380000      0.0000000E+00
   2.390000      0.0000000E+00
   2.400000      0.0000000E+00
   2.410000      0.0000000E+00
   2.420000      0.0000000E+00
   2.430000      0.0000000E+00
   2.440000      0.0000000E+00
   2.450000      0.0000000E+00
   2.460000      0.0000000E+00
   2.470000      0.0000000E+00
   2.480000      0.0000000E+00
   2.490000      0.0000000E+00
   2.500000      0.0000000E+00
   2.510000      0.0000000E+00
   2.520000      0.0000000E+00
   2.530000      0.0000000E+00
   2.540000      0.0000000E+00
   2.550000      0.0000000E+00
   2.560000      0.0000000E+00
   2.570000      0.0000000E+00
   2.580000      0.0000000E+00
   2.590000      0.0000000E+00
   2.600000      0.0000000E+00
   2.610000      0.0000000E+00
   2.620000      0.0000000E+00
   2.630000      0.0000000E+00
   2.640000      0.0000000E+00
   2.650000      0.0000000E+00
   2.660000      0.0000000E+00
   2.670000      0.0000000E+00
   2.680000      0.0000000E+00
   2.690000      0.0000000E+00
   2.700000      0.0000000E+00
   2.710000      0.0000000E+00
   2.720000      0.0000000E+00
   2.730000      0.0000000E+00
   2.740000      0.0000000E+00
   2.750000      0.0000000E+00
   2.760000      0.0000000E+00
   2.770000      0.0000000E+00
   2.780000      0.0000000E+00
   2.790000      0.0000000E+00
   2.800000      0.0000000E+00
   2.810000      0.0000000E+00
   2.820000      0.0000000E+00
   2.830000      0.0000000E+00
   2.840000      0.0000000E+00
   2.850000      0.0000000E+00
   2.860000      0.0000000E+00
   2.870000      0.0000000E+00
   2.880000      0.0000000E+00
   2.890000      0.0000000E+00
   2.900000      0.0000000E+00
   2.910000      0.0000000E+00
   2.920000      0.0000000E+00
   2.930000      0.0000000E+00
   2.940000      0.0000000E+00
   2.950000      0.0000000E+00
   2.960000      0.0000000E+00
   2.970000      0.0000000E+00
   2.980000      0.0000000E+00
   2.990000      0.0000000E+00
   3.000000      0.0000000E+00
   3.010000      0.0000000E+00
   3.020000      0.0000000E+00
   3.030000      0.0000000E+00
   3.040000      0.0000000E+00
   3.050000      0.0000000E+00
   3.060000      0.0000000E+00
   3.070000      0.0000000E+00
   3.080000      0.0000000E+00
   3.090000      0.0000000E+00
   3.100000      0.0000000E+00
   3.110000      0.0000000E+00
   3.120000      0.0000000E+00
   3.130000      0.0000000E+00
   3.140000      0.0000000E+00
   3.150000      0.0000000E+00
   3.160000      0.0000000E+00
   3.170000      0.0000000E+00
   3.180000      0.0000000E+00
   3.190000      0.0000000E+00
   3.200000      0.0000000E+00
   3.210000      0.0000000E+00
   3.220000      0.0000000E+00
   3.230000      0.0000000E+00
   3.240000      0.0000000E+00
   3.250000      0.0000000E+00
   3.260000      0.0000000E+00
   3.270000     -1.3309450E-38
   3.280000     -1.4912104E-38
   3.290000     -1.6556608E-38
   3.300000     -1.8240191E-38
   3.310000     -1.9898392E-38
   3.320000     -2.1444227E-38
   3.330000     -2.2872494E-38
   3.340000     -2.4200273E-38
   3.350000     -2.5535601E-38
   3.360000     -2.6366866E-38
   3.370000     -2.7210671E-38
   3.380000     -2.8595278E-38
   3.390000     -2.9479203E-38
   3.400000     -2.9942024E-38
   3.410000     -3.0601839E-38
   3.420000     -3.1372152E-38
   3.430000     -3.1954473E-38
   3.440000     -3.2126527E-38
   3.450000     -3.1618587E-38
   3.460000     -2.9362102E-38
   3.470000     -2.5560012E-38
   3.480000     -2.1366853E-38
   3.490000     -1.6658350E-38
   3.500000      0.0000000E+00
   3.510000      0.0000000E+00
   3.520000      0.0000000E+00
   3.530000      0.0000000E+00
   3.540000      2.1323229E-38
   3.550000      3.0900730E-38
   3.560000      3.9806784E-38
   3.570000      4.9111929E-38
   3.580000      5.8806785E-38
   3.590000      6.8924059E-38
   3.600000      7.9402806E-38
   3.610000      9.0212232E-38
   3.620000      1.0126032E-37
   3.630000      1.1218723E-37
   3.640000      1.2307534E-37
   3.650000      1.3314106E-37
   3.660000      1.4346913E-37
   3.670000      1.5539913E-37
   3.680000      1.6854718E-37
   3.690000      1.8266559E-37
   3.700000      1.9780184E-37
   3.710000      2.1349293E-37
   3.720000      2.2863671E-37
   3.730000      2.4347110E-37
   3.740000      2.5711280E-37
   3.750000      2.6872609E-37
   3.760000      2.7971994E-37
   3.770000      2.8991527E-37
   3.780000      2.9797029E-37
   3.790000      3.0145125E-37
   3.800000      3.0052399E-37
   3.810000      2.9690620E-37
   3.820000      2.9138103E-37
   3.830000      2.8419813E-37
   3.840000      2.7827835E-37
   3.850000      2.7707307E-37
   3.860000      2.7804136E-37
   3.870000      2.6726262E-37
   3.880000      2.4365639E-37
   3.890000      2.1752287E-37
   3.900000      1.9404533E-37
   3.910000      1.6973090E-37
   3.920000      1.4152943E-37
   3.930000      1.1541704E-37
   3.940000      8.8113541E-38
   3.950000      5.5540055E-38
   3.960000      0.0000000E+00
   3.970000     -4.3305660E-38
   3.980000     -1.0278142E-37
   3.990000     -1.5778835E-37
   4.000000     -2.1368434E-37
   4.010000     -2.6673588E-37
   4.020000     -3.1050344E-37
   4.030000     -3.6472308E-37
   4.040000     -4.4902343E-37
   4.050000     -5.6510717E-37
   4.060000     -6.9665004E-37
   4.070000     -8.3686029E-37
   4.080000     -9.9530217E-37
   4.090000     -1.1724554E-36
   4.100000     -1.3568446E-36
   4.110000     -1.5401738E-36
   4.120000     -1.7155594E-36
   4.130000     -1.8759875E-36
   4.140000     -2.0083096E-36
   4.150000     -2.1002631E-36
   4.160000     -2.1688133E-36
   4.170000     -2.2266694E-36
   4.180000     -2.2568885E-36
   4.190000     -2.2663300E-36
   4.200000     -2.2690293E-36
   4.210000     -2.2640470E-36
   4.220000     -2.3214930E-36
   4.230000     -2.5612997E-36
   4.240000     -2.9234090E-36
   4.250000     -3.2188191E-36
   4.260000     -3.4506729E-36
   4.270000     -3.6974567E-36
   4.280000     -3.9573415E-36
   4.290000     -4.2206120E-36
   4.300000     -4.3358734E-36
   4.310000     -4.2699036E-36
   4.320000     -4.0973461E-36
   4.330000     -3.8404883E-36
   4.340000     -3.4840543E-36
   4.350000     -2.9979248E-36
   4.360000     -2.4255855E-36
   4.370000     -1.7738512E-36
   4.380000     -1.0959206E-36
   4.390000     -4.4369526E-37
   4.400000      1.8709386E-37
   4.410000      9.3526363E-37
   4.420000      1.8244506E-36
   4.430000      2.6832332E-36
   4.440000      3.5292223E-36
   4.450000      4.4359289E-36
   4.460000      5.2716075E-36
   4.470000      6.0279952E-36
   4.480000      6.8315414E-36
   4.490000      7.6625909E-36
   4.500000      8.5841781E-36
   4.510000      9.6744075E-36
   4.520000      1.0853898E-35
   4.530000      1.2091848E-35
   4.540000      1.3268143E-35
   4.550000      1.4561075E-35
   4.560000      1.6059078E-35
   4.570000      1.7840768E-35
   4.580000      1.9840637E-35
   4.590000      2.1642117E-35
   4.600000      2.3492602E-35
   4.610000      2.5522086E-35
   4.620000      2.7027250E-35
   4.630000      2.8007863E-35
   4.640000      2.9008391E-35
   4.650000      2.9932793E-35
   4.660000      3.0751492E-35
   4.670000      3.1321058E-35
   4.680000      3.1549737E-35
   4.690000      3.1717573E-35
   4.700000      3.1745623E-35
   4.710000      3.1474475E-35
   4.720000      3.0978148E-35
   4.730000      3.0014604E-35
   4.740000      2.8525971E-35
   4.750000      2.6772825E-35
   4.760000      2.4660422E-35
   4.770000      2.2126733E-35
   4.780000      1.9377961E-35
   4.790000      1.6427993E-35
   4.800000      1.3541151E-35
   4.810000      1.0798838E-35
   4.820000      7.8889073E-36
   4.830000      5.2931978E-36
   4.840000      3.2546977E-36
   4.850000      1.1278096E-36
   4.860000      4.4116562E-37
   4.870000      1.0513548E-36
   4.880000      8.9189199E-37
   4.890000     -3.9385096E-37
   4.900000     -3.1537691E-36
   4.910000     -6.5969799E-36
   4.920000     -1.1272574E-35
   4.930000     -1.7499981E-35
   4.940000     -2.5606770E-35
   4.950000     -3.5026391E-35
   4.960000     -4.7520917E-35
   4.970000     -6.7034586E-35
   4.980000     -8.9210229E-35
   4.990000     -1.0955473E-34
   5.000000     -1.3151051E-34
   5.010000     -1.5650011E-34
   5.020000     -1.8308722E-34
   5.030000     -2.0991739E-34
   5.040000     -2.3590489E-34
   5.050000     -2.6033756E-34
   5.060000     -2.7963036E-34
   5.070000     -2.9250287E-34
   5.080000     -3.0421236E-34
   5.090000     -3.1640051E-34
   5.100000     -3.2279539E-34
   5.110000     -3.2373486E-34
   5.120000     -3.2332950E-34
   5.130000     -3.2118257E-34
   5.140000     -3.1823249E-34
   5.150000     -3.1777671E-34
   5.160000     -3.1973437E-34
   5.170000     -3.1939763E-34
   5.180000     -3.1911150E-34
   5.190000     -3.2207813E-34
   5.200000     -3.2560737E-34
   5.210000     -3.2528521E-34
   5.220000     -3.2071359E-34
   5.230000     -3.1712370E-34
   5.240000     -3.1578186E-34
   5.250000     -3.1333775E-34
   5.260000     -3.0847633E-34
   5.270000     -3.0196273E-34
   5.280000     -2.9182109E-34
   5.290000     -2.7764428E-34
   5.300000     -2.5782372E-34
   5.310000     -2.3437151E-34
   5.320000     -2.0799980E-34
   5.330000     -1.7648948E-34
   5.340000     -1.3960983E-34
   5.350000     -9.6671335E-35
   5.360000     -4.8453464E-35
   5.370000      5.7392385E-36
   5.380000      6.7027520E-35
   5.390000      1.3704962E-34
   5.400000      2.1348989E-34
   5.410000      2.9380655E-34
   5.420000      3.7860779E-34
   5.430000      4.7040446E-34
   5.440000      5.6952499E-34
   5.450000      6.7401271E-34
   5.460000      7.8323905E-34
   5.470000      8.9784901E-34
   5.480000      1.0178255E-33
   5.490000      1.1422396E-33
   5.500000      1.2727527E-33
   5.510000      1.4092733E-33
   5.520000      1.5518693E-33
   5.530000      1.6985328E-33
   5.540000      1.8470785E-33
   5.550000      1.9977760E-33
   5.560000      2.1503403E-33
   5.570000      2.3048618E-33
   5.580000      2.4595682E-33
   5.590000      2.6139165E-33
   5.600000      2.7659154E-33
   5.610000      2.9138812E-33
   5.620000      3.0617326E-33
   5.630000      3.2082723E-33
   5.640000      3.3496667E-33
   5.650000      3.4858190E-33
   5.660000      3.6162765E-33
   5.670000      3.7397633E-33
   5.680000      3.8548883E-33
   5.690000      3.9627913E-33
   5.700000      4.0605928E-33
   5.710000      4.1456328E-33
   5.720000      4.2179496E-33
   5.730000      4.2766207E-33
   5.740000      4.3208443E-33
   5.750000      4.3467614E-33
   5.760000      4.3523005E-33
   5.770000      4.3365048E-33
   5.780000      4.2972892E-33
   5.790000      4.2316834E-33
   5.800000      4.1370565E-33
   5.810000      4.0116559E-33
   5.820000      3.8533844E-33
   5.830000      3.6592562E-33
   5.840000      3.4269209E-33
   5.850000      3.1547480E-33
   5.860000      2.8406791E-33
   5.870000      2.4829058E-33
   5.880000      2.0796132E-33
   5.890000      1.6292761E-33
   5.900000      1.1304565E-33
   5.910000      5.8023430E-34
   5.920000     -2.0900152E-35
   5.930000     -6.7195537E-34
   5.940000     -1.3755797E-33
   5.950000     -2.1326384E-33
   5.960000     -2.9434118E-33
   5.970000     -3.8081726E-33
   5.980000     -4.7270400E-33
   5.990000     -5.7021773E-33
   6.000000     -6.7332353E-33
   6.010000     -7.8176964E-33
   6.020000     -8.9553362E-33
   6.030000     -1.0145546E-32
   6.040000     -1.1387639E-32
   6.050000     -1.2680813E-32
   6.060000     -1.4023711E-32
   6.070000     -1.5415573E-32
   6.080000     -1.6852763E-32
   6.090000     -1.8333079E-32
   6.100000     -1.9855438E-32
   6.110000     -2.1415657E-32
   6.120000     -2.3013150E-32
   6.130000     -2.4645072E-32
   6.140000     -2.6305127E-32
   6.150000     -2.7988274E-32
   6.160000     -2.9688688E-32
   6.170000     -3.1399867E-32
   6.180000     -3.3114566E-32
   6.190000     -3.4824793E-32
   6.200000     -3.6521781E-32
   6.210000     -3.8196026E-32
   6.220000     -3.9836481E-32
   6.230000     -4.1432946E-32
   6.240000     -4.2974422E-32
   6.250000     -4.4447625E-32
   6.260000     -4.5839419E-32
   6.270000     -4.7135992E-32
   6.280000     -4.8322930E-32
   6.290000     -4.9385215E-32
   6.300000     -5.0307326E-32
   6.310000     -5.1073372E-32
   6.320000     -5.1666997E-32
   6.330000     -5.2071332E-32
   6.340000     -5.2269220E-32
   6.350000     -5.2243183E-32
   6.360000     -5.1975441E-32
   6.370000     -5.1447932E-32
   6.380000     -5.0642318E-32
   6.390000     -4.9540052E-32
   6.400000     -4.8122458E-32
   6.410000     -4.6370478E-32
   6.420000     -4.4264921E-32
   6.430000     -4.1786641E-32
   6.440000     -3.8916333E-32
   6.450000     -3.5634697E-32
   6.460000     -3.1922477E-32
   6.470000     -2.7760360E-32
   6.480000     -2.3129719E-32
   6.490000     -1.8012282E-32
   6.500000     -1.2389804E-32
   6.510000     -6.2448843E-33
   6.520000      4.3911225E-34
   6.530000      7.6779000E-33
   6.540000      1.5486118E-32
   6.550000      2.3877066E-32
   6.560000      3.2862561E-32
   6.570000      4.2452837E-32
   6.580000      5.2656193E-32
   6.590000      6.3478840E-32
   6.600000      7.4924687E-32
   6.610000      8.6995122E-32
   6.620000      9.9688774E-32
   6.630000      1.1300131E-31
   6.640000      1.2692520E-31
   6.650000      1.4144783E-31
   6.660000      1.5655644E-31
   6.670000      1.7223444E-31
   6.680000      1.8845778E-31
   6.690000      2.0519989E-31
   6.700000      2.2242984E-31
   6.710000      2.4011217E-31
   6.720000      2.5820669E-31
   6.730000      2.7666835E-31
   6.740000      2.9544715E-31
   6.750000      3.1448786E-31
   6.760000      3.3372999E-31
   6.770000      3.5310764E-31
   6.780000      3.7254933E-31
   6.790000      3.9197790E-31
   6.800000      4.1131032E-31
   6.810000      4.3045766E-31
   6.820000      4.4932477E-31
   6.830000      4.6781059E-31
   6.840000      4.8580760E-31
   6.850000      5.0320200E-31
   6.860000      5.1987366E-31
   6.870000      5.3569596E-31
   6.880000      5.5053587E-31
   6.890000      5.6425398E-31
   6.900000      5.7670449E-31
   6.910000      5.8773547E-31
   6.920000      5.9718870E-31
   6.930000      6.0490008E-31
   6.940000      6.1069983E-31
   6.950000      6.1441265E-31
   6.960000      6.1585804E-31
   6.970000      6.1485074E-31
   6.980000      6.1120097E-31
   6.990000      6.0471530E-31
   7.000000      5.9519661E-31
   7.010000      5.8244518E-31
   7.020000      5.6625890E-31
   7.030000      5.4643443E-31
   7.040000      5.2276763E-31
   7.050000      4.9505451E-31
   7.060000      4.6309207E-31