  -2.600000      0.0000000E+00
  -2.590000      0.0000000E+00
  -2.580000      0.0000000E+00
  -2.570000      0.0000000E+00
  -2.560000      0.0000000E+00
  -2.550000      0.0000000E+00
  -2.540000      0.0000000E+00
  -2.530000      0.0000000E+00
  -2.520000      0.0000000E+00
  -2.510000      0.0000000E+00
  -2.500000      0.0000000E+00
  -2.490000      0.0000000E+00
  -2.480000      0.0000000E+00
  -2.470000      0.0000000E+00
  -2.460000      0.0000000E+00
  -2.450000      0.0000000E+00
  -2.440000      0.0000000E+00
  -2.430000      0.0000000E+00
  -2.420000      0.0000000E+00
  -2.410000      0.0000000E+00
  -2.400000      0.0000000E+00
  -2.390000      0.0000000E+00
  -2.380000      0.0000000E+00
  -2.370000      0.0000000E+00
  -2.360000      0.0000000E+00
  -2.350000      0.0000000E+00
  -2.340000      0.0000000E+00
  -2.330000      0.0000000E+00
  -2.320000      0.0000000E+00
  -2.310000      0.0000000E+00
  -2.300000      0.0000000E+00
  -2.290000      0.0000000E+00
  -2.280000      0.0000000E+00
  -2.270000      0.0000000E+00
  -2.260000      0.0000000E+00
  -2.250000      0.0000000E+00
  -2.240000      0.0000000E+00
  -2.230000      0.0000000E+00
  -2.220000      0.0000000E+00
  -2.210000      0.0000000E+00
  -2.200000      0.0000000E+00
  -2.190000      0.0000000E+00
  -2.180000      0.0000000E+00
  -2.170000      0.0000000E+00
  -2.160000      0.0000000E+00
  -2.150000      0.0000000E+00
  -2.140000      0.0000000E+00
  -2.130000      0.0000000E+00
  -2.120000      0.0000000E+00
  -2.110000      0.0000000E+00
  -2.100000      0.0000000E+00
  -2.090000      0.0000000E+00
  -2.080000      0.0000000E+00
  -2.070000      0.0000000E+00
  -2.060000      0.0000000E+00
  -2.050000      0.0000000E+00
  -2.040000      0.0000000E+00
  -2.030000      0.0000000E+00
  -2.020000      0.0000000E+00
  -2.010000      0.0000000E+00
  -2.000000      0.0000000E+00
  -1.990000      0.0000000E+00
  -1.980000      0.0000000E+00
  -1.970000      0.0000000E+00
  -1.960000      0.0000000E+00
  -1.950000      0.0000000E+00
  -1.940000      0.0000000E+00
  -1.930000      0.0000000E+00
  -1.920000      0.0000000E+00
  -1.910000      0.0000000E+00
  -1.900000      0.0000000E+00
  -1.890000      0.0000000E+00
  -1.880000      0.0000000E+00
  -1.870000      0.0000000E+00
  -1.860000      0.0000000E+00
  -1.850000      0.0000000E+00
  -1.840000      0.0000000E+00
  -1.830000      0.0000000E+00
  -1.820000      0.0000000E+00
  -1.810000      0.0000000E+00
  -1.800000      0.0000000E+00
  -1.790000      0.0000000E+00
  -1.780000      0.0000000E+00
  -1.770000      0.0000000E+00
  -1.760000      0.0000000E+00
  -1.750000      0.0000000E+00
  -1.740000      0.0000000E+00
  -1.730000      0.0000000E+00
  -1.720000      0.0000000E+00
  -1.710000      0.0000000E+00
  -1.700000      0.0000000E+00
  -1.690000      0.0000000E+00
  -1.680000      0.0000000E+00
  -1.670000      0.0000000E+00
  -1.660000      0.0000000E+00
  -1.650000      0.0000000E+00
  -1.640000      0.0000000E+00
  -1.630000      0.0000000E+00
  -1.620000      0.0000000E+00
  -1.610000      0.0000000E+00
  -1.600000      0.0000000E+00
  -1.590000      0.0000000E+00
  -1.580000      0.0000000E+00
  -1.570000      0.0000000E+00
  -1.560000      0.0000000E+00
  -1.550000      0.0000000E+00
  -1.540000      0.0000000E+00
  -1.530000      0.0000000E+00
  -1.520000      0.0000000E+00
  -1.510000      0.0000000E+00
  -1.500000      0.0000000E+00
  -1.490000      0.0000000E+00
  -1.480000      0.0000000E+00
  -1.470000      0.0000000E+00
  -1.460000      0.0000000E+00
  -1.450000      0.0000000E+00
  -1.440000      0.0000000E+00
  -1.430000      0.0000000E+00
  -1.420000      0.0000000E+00
  -1.410000      0.0000000E+00
  -1.400000      0.0000000E+00
  -1.390000      0.0000000E+00
  -1.380000      0.0000000E+00
  -1.370000      0.0000000E+00
  -1.360000      0.0000000E+00
  -1.350000      0.0000000E+00
  -1.340000      0.0000000E+00
  -1.330000      0.0000000E+00
  -1.320000      0.0000000E+00
  -1.310000      0.0000000E+00
  -1.300000      0.0000000E+00
  -1.290000      0.0000000E+00
  -1.280000      0.0000000E+00
  -1.270000      0.0000000E+00
  -1.260000      0.0000000E+00
  -1.250000      0.0000000E+00
  -1.240000      0.0000000E+00
  -1.230000      0.0000000E+00
  -1.220000      0.0000000E+00
  -1.210000      0.0000000E+00
  -1.200000      0.0000000E+00
  -1.190000      0.0000000E+00
  -1.180000      0.0000000E+00
  -1.170000      0.0000000E+00
  -1.160000      0.0000000E+00
  -1.150000      0.0000000E+00
  -1.140000      0.0000000E+00
  -1.130000      0.0000000E+00
  -1.120000      0.0000000E+00
  -1.110000      0.0000000E+00
  -1.100000      0.0000000E+00
  -1.090000      0.0000000E+00
  -1.080000      0.0000000E+00
  -1.070000      0.0000000E+00
  -1.060000      0.0000000E+00
  -1.050000      0.0000000E+00
  -1.040000      0.0000000E+00
  -1.030000      0.0000000E+00
  -1.020000      0.0000000E+00
  -1.010000      0.0000000E+00
  -1.000000      0.0000000E+00
 -0.9900000      0.0000000E+00
 -0.9800000      0.0000000E+00
 -0.9700000      0.0000000E+00
 -0.9600000      0.0000000E+00
 -0.9500000      0.0000000E+00
 -0.9400000      0.0000000E+00
 -0.9300000      0.0000000E+00
 -0.9200000      0.0000000E+00
 -0.9100000      0.0000000E+00
 -0.9000000      0.0000000E+00
 -0.8900000      0.0000000E+00
 -0.8800000      0.0000000E+00
 -0.8700000      0.0000000E+00
 -0.8600000      0.0000000E+00
 -0.8500000      0.0000000E+00
 -0.8400000      0.0000000E+00
 -0.8300000      0.0000000E+00
 -0.8200000      0.0000000E+00
 -0.8100000      0.0000000E+00
 -0.8000000      0.0000000E+00
 -0.7900000      0.0000000E+00
 -0.7800000      0.0000000E+00
 -0.7700000      0.0000000E+00
 -0.7600000      0.0000000E+00
 -0.7500000      0.0000000E+00
 -0.7400000      0.0000000E+00
 -0.7300000      0.0000000E+00
 -0.7200000      0.0000000E+00
 -0.7100000      0.0000000E+00
 -0.7000000      0.0000000E+00
 -0.6900000      0.0000000E+00
 -0.6800000      0.0000000E+00
 -0.6700000      0.0000000E+00
 -0.6600000      0.0000000E+00
 -0.6500000      0.0000000E+00
 -0.6400000      0.0000000E+00
 -0.6300000      0.0000000E+00
 -0.6200000      0.0000000E+00
 -0.6100000      0.0000000E+00
 -0.6000000      0.0000000E+00
 -0.5900000      0.0000000E+00
 -0.5800000      0.0000000E+00
 -0.5700000      0.0000000E+00
 -0.5600000      0.0000000E+00
 -0.5500000      0.0000000E+00
 -0.5400000      0.0000000E+00
 -0.5300000      0.0000000E+00
 -0.5200000      0.0000000E+00
 -0.5100000      0.0000000E+00
 -0.5000000      0.0000000E+00
 -0.4900000      0.0000000E+00
 -0.4800000      0.0000000E+00
 -0.4700000      0.0000000E+00
 -0.4600000      0.0000000E+00
 -0.4500000      0.0000000E+00
 -0.4400000      0.0000000E+00
 -0.4300000      0.0000000E+00
 -0.4200000      0.0000000E+00
 -0.4100000      0.0000000E+00
 -0.4000000      0.0000000E+00
 -0.3900000      0.0000000E+00
 -0.3800000      0.0000000E+00
 -0.3700000      0.0000000E+00
 -0.3600000      0.0000000E+00
 -0.3500000      0.0000000E+00
 -0.3400000      0.0000000E+00
 -0.3300000      0.0000000E+00
 -0.3200000      0.0000000E+00
 -0.3100000      0.0000000E+00
 -0.3000000      0.0000000E+00
 -0.2900000      0.0000000E+00
 -0.2800000      0.0000000E+00
 -0.2700000      0.0000000E+00
 -0.2600000      0.0000000E+00
 -0.2500000      0.0000000E+00
 -0.2400000      0.0000000E+00
 -0.2300000      0.0000000E+00
 -0.2200000      0.0000000E+00
 -0.2100000      0.0000000E+00
 -0.2000000      0.0000000E+00
 -0.1900000      0.0000000E+00
 -0.1800000      0.0000000E+00
 -0.1700000      0.0000000E+00
 -0.1600000      0.0000000E+00
 -0.1500000      0.0000000E+00
 -0.1400000      0.0000000E+00
 -0.1300000      0.0000000E+00
 -0.1200000      0.0000000E+00
 -0.1100000      0.0000000E+00
 -0.1000000      0.0000000E+00
 -9.0000004E-02  0.0000000E+00
 -7.9999998E-02  0.0000000E+00
 -7.0000000E-02  0.0000000E+00
 -5.9999999E-02  0.0000000E+00
 -5.0000001E-02  0.0000000E+00
 -3.9999999E-02  0.0000000E+00
 -2.9999999E-02  0.0000000E+00
 -2.0000000E-02  0.0000000E+00
 -9.9999998E-03  0.0000000E+00
 -3.4694470E-17  0.0000000E+00
  9.9999998E-03  0.0000000E+00
  2.0000000E-02  0.0000000E+00
  2.9999999E-02  0.0000000E+00
  3.9999999E-02  0.0000000E+00
  5.0000001E-02  0.0000000E+00
  5.9999999E-02  0.0000000E+00
  7.0000000E-02  0.0000000E+00
  7.9999998E-02  0.0000000E+00
  9.0000004E-02  0.0000000E+00
  0.1000000      0.0000000E+00
  0.1100000      0.0000000E+00
  0.1200000      0.0000000E+00
  0.1300000      0.0000000E+00
  0.1400000      0.0000000E+00
  0.1500000      0.0000000E+00
  0.1600000      0.0000000E+00
  0.1700000      0.0000000E+00
  0.1800000      0.0000000E+00
  0.1900000      0.0000000E+00
  0.2000000      0.0000000E+00
  0.2100000      0.0000000E+00
  0.2200000      0.0000000E+00
  0.2300000      0.0000000E+00
  0.2400000      0.0000000E+00
  0.2500000      0.0000000E+00
  0.2600000      0.0000000E+00
  0.2700000      0.0000000E+00
  0.2800000      0.0000000E+00
  0.2900000      0.0000000E+00
  0.3000000      0.0000000E+00
  0.3100000      0.0000000E+00
  0.3200000      0.0000000E+00
  0.3300000      0.0000000E+00
  0.3400000      0.0000000E+00
  0.3500000      0.0000000E+00
  0.3600000      0.0000000E+00
  0.3700000      0.0000000E+00
  0.3800000      0.0000000E+00
  0.3900000      0.0000000E+00
  0.4000000      0.0000000E+00
  0.4100000      0.0000000E+00
  0.4200000      0.0000000E+00
  0.4300000      0.0000000E+00
  0.4400000      0.0000000E+00
  0.4500000      0.0000000E+00
  0.4600000      0.0000000E+00
  0.4700000      0.0000000E+00
  0.4800000      0.0000000E+00
  0.4900000      0.0000000E+00
  0.5000000      0.0000000E+00
  0.5100000      0.0000000E+00
  0.5200000      0.0000000E+00
  0.5300000      0.0000000E+00
  0.5400000      0.0000000E+00
  0.5500000      0.0000000E+00
  0.5600000      0.0000000E+00
  0.5700000      0.0000000E+00
  0.5800000      0.0000000E+00
  0.5900000      0.0000000E+00
  0.6000000      0.0000000E+00
  0.6100000      0.0000000E+00
  0.6200000      0.0000000E+00
  0.6300000      0.0000000E+00
  0.6400000      0.0000000E+00
  0.6500000      0.0000000E+00
  0.6600000      0.0000000E+00
  0.6700000      0.0000000E+00
  0.6800000      0.0000000E+00
  0.6900000      0.0000000E+00
  0.7000000      0.0000000E+00
  0.7100000      0.0000000E+00
  0.7200000      0.0000000E+00
  0.7300000      0.0000000E+00
  0.7400000      0.0000000E+00
  0.7500000      0.0000000E+00
  0.7600000      0.0000000E+00
  0.7700000      0.0000000E+00
  0.7800000      0.0000000E+00
  0.7900000      0.0000000E+00
  0.8000000      0.0000000E+00
  0.8100000      0.0000000E+00
  0.8200000      0.0000000E+00
  0.8300000      0.0000000E+00
  0.8400000      0.0000000E+00
  0.8500000      0.0000000E+00
  0.8600000      0.0000000E+00
  0.8700000      0.0000000E+00
  0.8800000      0.0000000E+00
  0.8900000      0.0000000E+00
  0.9000000      0.0000000E+00
  0.9100000      0.0000000E+00
  0.9200000      0.0000000E+00
  0.9300000      0.0000000E+00
  0.9400000      0.0000000E+00
  0.9500000      0.0000000E+00
  0.9600000      0.0000000E+00
  0.9700000      0.0000000E+00
  0.9800000      0.0000000E+00
  0.9900000      0.0000000E+00
   1.000000      0.0000000E+00
   1.010000      0.0000000E+00
   1.020000      0.0000000E+00
   1.030000      0.0000000E+00
   1.040000      0.0000000E+00
   1.050000      0.0000000E+00
   1.060000      0.0000000E+00
   1.070000      0.0000000E+00
   1.080000      0.0000000E+00
   1.090000      0.0000000E+00
   1.100000      0.0000000E+00
   1.110000      0.0000000E+00
   1.120000      0.0000000E+00
   1.130000      0.0000000E+00
   1.140000      0.0000000E+00
   1.150000      0.0000000E+00
   1.160000      0.0000000E+00
   1.170000      0.0000000E+00
   1.180000      0.0000000E+00
   1.190000      0.0000000E+00
   1.200000      0.0000000E+00
   1.210000      0.0000000E+00
   1.220000      0.0000000E+00
   1.230000      0.0000000E+00
   1.240000      0.0000000E+00
   1.250000      0.0000000E+00
   1.260000      0.0000000E+00
   1.270000      0.0000000E+00
   1.280000      0.0000000E+00
   1.290000      0.0000000E+00
   1.300000      0.0000000E+00
   1.310000      0.0000000E+00
   1.320000      0.0000000E+00
   1.330000      0.0000000E+00
   1.340000      0.0000000E+00
   1.350000      0.0000000E+00
   1.360000      0.0000000E+00
   1.370000      0.0000000E+00
   1.380000      0.0000000E+00
   1.390000      0.0000000E+00
   1.400000      0.0000000E+00
   1.410000      0.0000000E+00
   1.420000      0.0000000E+00
   1.430000      0.0000000E+00
   1.440000      0.0000000E+00
   1.450000      0.0000000E+00
   1.460000      0.0000000E+00
   1.470000      0.0000000E+00
   1.480000      0.0000000E+00
   1.490000      0.0000000E+00
   1.500000      0.0000000E+00
   1.510000      0.0000000E+00
   1.520000      0.0000000E+00
   1.530000      0.0000000E+00
   1.540000      0.0000000E+00
   1.550000      0.0000000E+00
   1.560000      0.0000000E+00
   1.570000      0.0000000E+00
   1.580000      0.0000000E+00
   1.590000      0.0000000E+00
   1.600000      0.0000000E+00
   1.610000      0.0000000E+00
   1.620000      0.0000000E+00
   1.630000      0.0000000E+00
   1.640000      0.0000000E+00
   1.650000      0.0000000E+00
   1.660000      0.0000000E+00
   1.670000      0.0000000E+00
   1.680000      0.0000000E+00
   1.690000      0.0000000E+00
   1.700000      0.0000000E+00
   1.710000      0.0000000E+00
   1.720000      0.0000000E+00
   1.730000      0.0000000E+00
   1.740000      0.0000000E+00
   1.750000      0.0000000E+00
   1.760000      0.0000000E+00
   1.770000      0.0000000E+00
   1.780000      0.0000000E+00
   1.790000      0.0000000E+00
   1.800000      0.0000000E+00
   1.810000      0.0000000E+00
   1.820000      0.0000000E+00
   1.830000      0.0000000E+00
   1.840000      0.0000000E+00
   1.850000      0.0000000E+00
   1.860000      0.0000000E+00
   1.870000      0.0000000E+00
   1.880000      0.0000000E+00
   1.890000      0.0000000E+00
   1.900000      0.0000000E+00
   1.910000      0.0000000E+00
   1.920000      0.0000000E+00
   1.930000      0.0000000E+00
   1.940000      0.0000000E+00
   1.950000      0.0000000E+00
   1.960000      0.0000000E+00
   1.970000      0.0000000E+00
   1.980000      0.0000000E+00
   1.990000      0.0000000E+00
   2.000000      0.0000000E+00
   2.010000      0.0000000E+00
   2.020000      0.0000000E+00
   2.030000      0.0000000E+00
   2.040000      0.0000000E+00
   2.050000      0.0000000E+00
   2.060000      0.0000000E+00
   2.070000      0.0000000E+00
   2.080000      0.0000000E+00
   2.090000      0.0000000E+00
   2.100000      0.0000000E+00
   2.110000      0.0000000E+00
   2.120000      0.0000000E+00
   2.130000      0.0000000E+00
   2.140000      0.0000000E+00
   2.150000      0.0000000E+00
   2.160000      0.0000000E+00
   2.170000      0.0000000E+00
   2.180000      0.0000000E+00
   2.190000      0.0000000E+00
   2.200000      0.0000000E+00
   2.210000      0.0000000E+00
   2.220000      0.0000000E+00
   2.230000      0.0000000E+00
   2.240000      0.0000000E+00
   2.250000      0.0000000E+00
   2.260000      0.0000000E+00
   2.270000      0.0000000E+00
   2.280000      0.0000000E+00
   2.290000      0.0000000E+00
   2.300000      0.0000000E+00
   2.310000      0.0000000E+00
   2.320000      0.0000000E+00
   2.330000      0.0000000E+00
   2.340000      0.0000000E+00
   2.350000      0.0000000E+00
   2.360000      0.0000000E+00
   2.370000      0.0000000E+00
   2.380000      0.0000000E+00
   2.390000      0.0000000E+00
   2.400000      0.0000000E+00
   2.410000      0.0000000E+00
   2.420000      0.0000000E+00
   2.430000      0.0000000E+00
   2.440000      0.0000000E+00
   2.450000      0.0000000E+00
   2.460000      0.0000000E+00
   2.470000      0.0000000E+00
   2.480000      0.0000000E+00
   2.490000      0.0000000E+00
   2.500000      0.0000000E+00
   2.510000      0.0000000E+00
   2.520000      0.0000000E+00
   2.530000      0.0000000E+00
   2.540000      0.0000000E+00
   2.550000      0.0000000E+00
   2.560000      0.0000000E+00
   2.570000      0.0000000E+00
   2.580000      0.0000000E+00
   2.590000      0.0000000E+00
   2.600000      0.0000000E+00
   2.610000      0.0000000E+00
   2.620000      0.0000000E+00
   2.630000      0.0000000E+00
   2.640000      0.0000000E+00
   2.650000      0.0000000E+00
   2.660000      0.0000000E+00
   2.670000      0.0000000E+00
   2.680000      0.0000000E+00
   2.690000      0.0000000E+00
   2.700000      0.0000000E+00
   2.710000      0.0000000E+00
   2.720000      0.0000000E+00
   2.730000      0.0000000E+00
   2.740000      0.0000000E+00
   2.750000      0.0000000E+00
   2.760000      0.0000000E+00
   2.770000      1.1957433E-38
   2.780000      1.3946668E-38
   2.790000      1.5979547E-38
   2.800000      1.7946704E-38
   2.810000      1.9811184E-38
   2.820000      2.1542580E-38
   2.830000      2.3035958E-38
   2.840000      2.4394364E-38
   2.850000      2.5805724E-38
   2.860000      2.7253868E-38
   2.870000      2.8720657E-38
   2.880000      2.9894721E-38
   2.890000      3.0701070E-38
   2.900000      3.1287150E-38
   2.910000      3.1674334E-38
   2.920000      3.1895871E-38
   2.930000      3.1970103E-38
   2.940000      3.1983643E-38
   2.950000      3.1939244E-38
   2.960000      3.1829609E-38
   2.970000      3.0728169E-38
   2.980000      2.8408204E-38
   2.990000      2.5644154E-38
   3.000000      2.2283315E-38
   3.010000      1.7788893E-38
   3.020000      1.3037091E-38
   3.030000      0.0000000E+00
   3.040000      0.0000000E+00
   3.050000      0.0000000E+00
   3.060000      0.0000000E+00
   3.070000     -1.4631542E-38
   3.080000     -2.1365165E-38
   3.090000     -2.8440131E-38
   3.100000     -3.5615144E-38
   3.110000     -4.2860835E-38
   3.120000     -5.0392430E-38
   3.130000     -5.8513706E-38
   3.140000     -6.7420174E-38
   3.150000     -7.6068103E-38
   3.160000     -7.6384039E-38
   3.170000     -6.9251783E-38
   3.180000     -6.1941288E-38
   3.190000     -5.3704147E-38
   3.200000     -4.5301351E-38
   3.210000     -3.6729538E-38
   3.220000     -2.8192051E-38
   3.230000     -1.9899289E-38
   3.240000      0.0000000E+00
   3.250000      0.0000000E+00
   3.260000      0.0000000E+00
   3.270000     -2.5028794E-38
   3.280000     -1.1492804E-37
   3.290000     -2.1215652E-37
   3.300000     -3.0855765E-37
   3.310000     -3.9708781E-37
   3.320000     -4.2830999E-37
   3.330000     -4.0787166E-37
   3.340000     -3.8656986E-37
   3.350000     -3.6358321E-37
   3.360000     -3.4683554E-37
   3.370000     -3.3553475E-37
   3.380000     -3.2074244E-37
   3.390000     -3.0202825E-37
   3.400000     -2.7938228E-37
   3.410000     -2.7570796E-37
   3.420000     -2.9359353E-37
   3.430000     -3.2484616E-37
   3.440000     -3.7919392E-37
   3.450000     -4.4579492E-37
   3.460000     -5.2266101E-37
   3.470000     -6.1592309E-37
   3.480000     -7.2438485E-37
   3.490000     -8.4744998E-37
   3.500000     -9.9552978E-37
   3.510000     -1.0306868E-36
   3.520000     -9.1113511E-37
   3.530000     -7.2326471E-37
   3.540000     -4.4324214E-37
   3.550000     -1.1134045E-37
   3.560000      6.5172256E-38
   3.570000      1.6808825E-37
   3.580000      3.6584836E-37
   3.590000      5.6912017E-37
   3.600000      7.3714501E-37
   3.610000      8.4461330E-37
   3.620000      8.6714968E-37
   3.630000      7.6976531E-37
   3.640000      6.1503927E-37
   3.650000      4.6792306E-37
   3.660000      4.7410806E-37
   3.670000      6.6442569E-37
   3.680000      1.0075225E-36
   3.690000      1.5165734E-36
   3.700000      2.0765950E-36
   3.710000      2.5099610E-36
   3.720000      2.8103563E-36
   3.730000      3.0581048E-36
   3.740000      3.2619889E-36
   3.750000      3.4838215E-36
   3.760000      3.7477714E-36
   3.770000      4.0451283E-36
   3.780000      4.3134386E-36
   3.790000      4.5477329E-36
   3.800000      4.9361665E-36
   3.810000      5.4716234E-36
   3.820000      6.0825899E-36
   3.830000      6.8088853E-36
   3.840000      7.5049209E-36
   3.850000      7.5032685E-36
   3.860000      6.5691322E-36
   3.870000      5.0075306E-36
   3.880000      3.0105466E-36
   3.890000      1.3395036E-36
   3.900000      2.7286346E-37
   3.910000     -4.0281313E-37
   3.920000     -6.5697159E-37
   3.930000     -1.4944589E-37
   3.940000      7.5288991E-37
   3.950000      1.5892073E-36
   3.960000      2.5668715E-36
   3.970000      3.4455591E-36
   3.980000      4.1050883E-36
   3.990000      4.0014544E-36
   4.000000      2.9502935E-36
   4.010000      1.5123696E-36
   4.020000     -2.9598861E-37
   4.030000     -2.4545897E-36
   4.040000     -4.8877979E-36
   4.050000     -8.0386107E-36
   4.060000     -1.1709784E-35
   4.070000     -1.5292011E-35
   4.080000     -1.8152293E-35
   4.090000     -2.0262308E-35
   4.100000     -2.1290486E-35
   4.110000     -2.1261403E-35
   4.120000     -2.1059174E-35
   4.130000     -2.1025915E-35
   4.140000     -2.1730510E-35
   4.150000     -2.2612152E-35
   4.160000     -2.3695050E-35
   4.170000     -2.5376713E-35
   4.180000     -2.7334554E-35
   4.190000     -2.9299039E-35
   4.200000     -3.0117764E-35
   4.210000     -2.9255672E-35
   4.220000     -2.7378417E-35
   4.230000     -2.4876181E-35
   4.240000     -2.2208185E-35
   4.250000     -2.0007407E-35
   4.260000     -1.8362352E-35
   4.270000     -1.7217784E-35
   4.280000     -1.7175262E-35
   4.290000     -1.8309774E-35
   4.300000     -1.9769083E-35
   4.310000     -2.0959139E-35
   4.320000     -2.1328454E-35
   4.330000     -2.0730311E-35
   4.340000     -1.8893764E-35
   4.350000     -1.5512212E-35
   4.360000     -1.1231420E-35
   4.370000     -6.2233171E-36
   4.380000     -2.0766858E-37
   4.390000      6.0164146E-36
   4.400000      1.1789958E-35
   4.410000      1.6866029E-35
   4.420000      2.0652253E-35
   4.430000      2.3142439E-35
   4.440000      2.4462804E-35
   4.450000      2.4977214E-35
   4.460000      2.5811000E-35
   4.470000      2.7580912E-35
   4.480000      2.9622816E-35
   4.490000      3.3959553E-35
   4.500000      4.1663584E-35
   4.510000      5.0323986E-35
   4.520000      5.9445266E-35
   4.530000      6.8417037E-35
   4.540000      7.6881222E-35
   4.550000      8.6209591E-35
   4.560000      9.5613631E-35
   4.570000      1.0367080E-34
   4.580000      1.0977519E-34
   4.590000      1.1401763E-34
   4.600000      1.1819991E-34
   4.610000      1.2243213E-34
   4.620000      1.2579159E-34
   4.630000      1.2821018E-34
   4.640000      1.3095870E-34
   4.650000      1.3514452E-34
   4.660000      1.3960699E-34
   4.670000      1.4331068E-34
   4.680000      1.4816731E-34
   4.690000      1.5111635E-34
   4.700000      1.4992137E-34
   4.710000      1.4923746E-34
   4.720000      1.4950699E-34
   4.730000      1.5145190E-34
   4.740000      1.5520141E-34
   4.750000      1.5693596E-34
   4.760000      1.5569144E-34
   4.770000      1.5250328E-34
   4.780000      1.4225874E-34
   4.790000      1.2666919E-34
   4.800000      1.1297929E-34
   4.810000      9.8386639E-35
   4.820000      8.2707427E-35
   4.830000      7.2265949E-35
   4.840000      6.8755640E-35
   4.850000      6.9227686E-35
   4.860000      7.1748496E-35
   4.870000      7.4513502E-35
   4.880000      7.6207075E-35
   4.890000      6.8822858E-35
   4.900000      5.2672754E-35
   4.910000      3.0895481E-35
   4.920000      1.4750861E-36
   4.930000     -3.3497109E-35
   4.940000     -7.3355864E-35
   4.950000     -1.1887501E-34
   4.960000     -1.6356029E-34
   4.970000     -2.0006478E-34
   4.980000     -2.3182523E-34
   4.990000     -2.6241943E-34
   5.000000     -2.9229021E-34
   5.010000     -3.2373183E-34
   5.020000     -3.5880413E-34
   5.030000     -3.9768457E-34
   5.040000     -4.3867406E-34
   5.050000     -4.7362651E-34
   5.060000     -4.9760269E-34
   5.070000     -5.1896762E-34
   5.080000     -5.4329264E-34
   5.090000     -5.6620349E-34
   5.100000     -5.8690183E-34
   5.110000     -6.0855384E-34
   5.120000     -6.4379874E-34
   5.130000     -6.9810869E-34
   5.140000     -7.6553473E-34
   5.150000     -8.4286242E-34
   5.160000     -9.2890906E-34
   5.170000     -1.0200904E-33
   5.180000     -1.1049260E-33
   5.190000     -1.1790531E-33
   5.200000     -1.2416042E-33
   5.210000     -1.2831036E-33
   5.220000     -1.3055319E-33
   5.230000     -1.3203724E-33
   5.240000     -1.3363390E-33
   5.250000     -1.3563481E-33
   5.260000     -1.3772692E-33
   5.270000     -1.3969453E-33
   5.280000     -1.4201268E-33
   5.290000     -1.4490649E-33
   5.300000     -1.4797555E-33
   5.310000     -1.5084333E-33
   5.320000     -1.5319376E-33
   5.330000     -1.5479868E-33
   5.340000     -1.5519712E-33
   5.350000     -1.5468042E-33
   5.360000     -1.5361854E-33
   5.370000     -1.5203096E-33
   5.380000     -1.4904990E-33
   5.390000     -1.4361560E-33
   5.400000     -1.3642426E-33
   5.410000     -1.2777340E-33
   5.420000     -1.1804681E-33
   5.430000     -1.0714504E-33
   5.440000     -9.4846378E-34
   5.450000     -8.1956440E-34
   5.460000     -6.8534287E-34
   5.470000     -5.5048428E-34
   5.480000     -4.0824340E-34
   5.490000     -2.5584097E-34
   5.500000     -1.0377607E-34
   5.510000      6.0871184E-35
   5.520000      2.5070608E-34
   5.530000      4.6550297E-34
   5.540000      7.0901884E-34
   5.550000      9.8311019E-34
   5.560000      1.2867023E-33
   5.570000      1.6220928E-33
   5.580000      1.9833512E-33
   5.590000      2.3642639E-33
   5.600000      2.7670232E-33
   5.610000      3.1832677E-33
   5.620000      3.6093021E-33
   5.630000      4.0486454E-33
   5.640000      4.4974726E-33
   5.650000      4.9562651E-33
   5.660000      5.4263020E-33
   5.670000      5.9076629E-33
   5.680000      6.4029861E-33
   5.690000      6.9120229E-33
   5.700000      7.4359958E-33
   5.710000      7.9772786E-33
   5.720000      8.5344527E-33
   5.730000      9.1067222E-33
   5.740000      9.6947288E-33
   5.750000      1.0295126E-32
   5.760000      1.0903198E-32
   5.770000      1.1512859E-32
   5.780000      1.2120319E-32
   5.790000      1.2722744E-32
   5.800000      1.3314417E-32
   5.810000      1.3890524E-32
   5.820000      1.4447090E-32
   5.830000      1.4980260E-32
   5.840000      1.5486700E-32
   5.850000      1.5966966E-32
   5.860000      1.6418357E-32
   5.870000      1.6835833E-32
   5.880000      1.7218970E-32
   5.890000      1.7566489E-32
   5.900000      1.7875624E-32
   5.910000      1.8142543E-32
   5.920000      1.8365417E-32
   5.930000      1.8534510E-32
   5.940000      1.8639811E-32
   5.950000      1.8675619E-32
   5.960000      1.8632225E-32
   5.970000      1.8502002E-32
   5.980000      1.8279049E-32
   5.990000      1.7953258E-32
   6.000000      1.7514929E-32
   6.010000      1.6959593E-32
   6.020000      1.6279803E-32
   6.030000      1.5469703E-32
   6.040000      1.4526210E-32
   6.050000      1.3450910E-32
   6.060000      1.2231809E-32
   6.070000      1.0863105E-32
   6.080000      9.3491929E-33
   6.090000      7.6831090E-33
   6.100000      5.8616779E-33
   6.110000      3.8792048E-33
   6.120000      1.7262845E-33
   6.130000     -6.0409118E-34
   6.140000     -3.1181699E-33
   6.150000     -5.8243453E-33
   6.160000     -8.7293144E-33
   6.170000     -1.1838767E-32
   6.180000     -1.5157800E-32
   6.190000     -1.8688748E-32
   6.200000     -2.2430159E-32
   6.210000     -2.6382783E-32
   6.220000     -3.0545520E-32
   6.230000     -3.4912138E-32
   6.240000     -3.9476686E-32
   6.250000     -4.4232580E-32
   6.260000     -4.9172898E-32
   6.270000     -5.4291029E-32
   6.280000     -5.9580443E-32
   6.290000     -6.5035071E-32
   6.300000     -7.0648292E-32
   6.310000     -7.6413898E-32
   6.320000     -8.2324942E-32
   6.330000     -8.8372496E-32
   6.340000     -9.4546827E-32
   6.350000     -1.0083535E-31
   6.360000     -1.0722258E-31
   6.370000     -1.1368976E-31
   6.380000     -1.2021604E-31
   6.390000     -1.2677556E-31
   6.400000     -1.3333925E-31
   6.410000     -1.3987777E-31
   6.420000     -1.4635934E-31
   6.430000     -1.5275078E-31
   6.440000     -1.5901814E-31
   6.450000     -1.6512678E-31
   6.460000     -1.7104172E-31
   6.470000     -1.7672775E-31
   6.480000     -1.8214946E-31
   6.490000     -1.8727041E-31
   6.500000     -1.9205229E-31
   6.510000     -1.9645486E-31
   6.520000     -2.0043531E-31
   6.530000     -2.0394778E-31
   6.540000     -2.0694303E-31
   6.550000     -2.0936859E-31
   6.560000     -2.1116879E-31
   6.570000     -2.1228497E-31
   6.580000     -2.1265633E-31
   6.590000     -2.1222072E-31
   6.600000     -2.1091500E-31
   6.610000     -2.0867620E-31
   6.620000     -2.0544326E-31
   6.630000     -2.0115391E-31
   6.640000     -1.9574739E-31
   6.650000     -1.8916664E-31
   6.660000     -1.8135499E-31
   6.670000     -1.7225670E-31
   6.680000     -1.6181668E-31
   6.690000     -1.4998009E-31
   6.700000     -1.3669183E-31
   6.710000     -1.2189654E-31
   6.720000     -1.0553856E-31
   6.730000     -8.7562321E-32
   6.740000     -6.7912934E-32
   6.750000     -4.6536772E-32
   6.760000     -2.3382940E-32
   6.770000      1.5958421E-33
   6.780000      2.8442511E-32
   6.790000      5.7194130E-32
   6.800000      8.7881157E-32
   6.810000      1.2052687E-31
   6.820000      1.5514695E-31
   6.830000      1.9174940E-31
   6.840000      2.3033438E-31
   6.850000      2.7089465E-31
   6.860000      3.1341583E-31
   6.870000      3.5787650E-31
   6.880000      4.0424837E-31
   6.890000      4.5249616E-31
   6.900000      5.0257716E-31
   6.910000      5.5444048E-31
   6.920000      6.0802624E-31
   6.930000      6.6326436E-31
   6.940000      7.2007347E-31
   6.950000      7.7835956E-31
   6.960000      8.3801453E-31
   6.970000      8.9891586E-31
   6.980000      9.6092516E-31
   6.990000      1.0238878E-30
   7.000000      1.0876334E-30
   7.010000      1.1519755E-30
   7.020000      1.2167121E-30
   7.030000      1.2816256E-30
   7.040000      1.3464845E-30
   7.050000      1.4110425E-30
   7.060000      1.4750402E-30