  -2.600000      0.0000000E+00
  -2.590000      0.0000000E+00
  -2.580000      0.0000000E+00
  -2.570000      0.0000000E+00
  -2.560000      0.0000000E+00
  -2.550000      0.0000000E+00
  -2.540000      0.0000000E+00
  -2.530000      0.0000000E+00
  -2.520000      0.0000000E+00
  -2.510000      0.0000000E+00
  -2.500000      0.0000000E+00
  -2.490000      0.0000000E+00
  -2.480000      0.0000000E+00
  -2.470000      0.0000000E+00
  -2.460000      0.0000000E+00
  -2.450000      0.0000000E+00
  -2.440000      0.0000000E+00
  -2.430000      0.0000000E+00
  -2.420000      0.0000000E+00
  -2.410000      0.0000000E+00
  -2.400000      0.0000000E+00
  -2.390000      0.0000000E+00
  -2.380000      0.0000000E+00
  -2.370000      0.0000000E+00
  -2.360000      0.0000000E+00
  -2.350000      0.0000000E+00
  -2.340000      0.0000000E+00
  -2.330000      0.0000000E+00
  -2.320000      0.0000000E+00
  -2.310000      0.0000000E+00
  -2.300000      0.0000000E+00
  -2.290000      0.0000000E+00
  -2.280000      0.0000000E+00
  -2.270000      0.0000000E+00
  -2.260000      0.0000000E+00
  -2.250000      0.0000000E+00
  -2.240000      0.0000000E+00
  -2.230000      0.0000000E+00
  -2.220000      0.0000000E+00
  -2.210000      0.0000000E+00
  -2.200000      0.0000000E+00
  -2.190000      0.0000000E+00
  -2.180000      0.0000000E+00
  -2.170000      0.0000000E+00
  -2.160000      0.0000000E+00
  -2.150000      0.0000000E+00
  -2.140000      0.0000000E+00
  -2.130000      0.0000000E+00
  -2.120000      0.0000000E+00
  -2.110000      0.0000000E+00
  -2.100000      0.0000000E+00
  -2.090000      0.0000000E+00
  -2.080000      0.0000000E+00
  -2.070000      0.0000000E+00
  -2.060000      0.0000000E+00
  -2.050000      0.0000000E+00
  -2.040000      0.0000000E+00
  -2.030000      0.0000000E+00
  -2.020000      0.0000000E+00
  -2.010000      0.0000000E+00
  -2.000000      0.0000000E+00
  -1.990000      0.0000000E+00
  -1.980000      0.0000000E+00
  -1.970000      0.0000000E+00
  -1.960000      0.0000000E+00
  -1.950000      0.0000000E+00
  -1.940000      0.0000000E+00
  -1.930000      0.0000000E+00
  -1.920000      0.0000000E+00
  -1.910000      0.0000000E+00
  -1.900000      0.0000000E+00
  -1.890000      0.0000000E+00
  -1.880000      0.0000000E+00
  -1.870000      0.0000000E+00
  -1.860000      0.0000000E+00
  -1.850000      0.0000000E+00
  -1.840000      0.0000000E+00
  -1.830000      0.0000000E+00
  -1.820000      0.0000000E+00
  -1.810000      0.0000000E+00
  -1.800000      0.0000000E+00
  -1.790000      0.0000000E+00
  -1.780000      0.0000000E+00
  -1.770000      0.0000000E+00
  -1.760000      0.0000000E+00
  -1.750000      0.0000000E+00
  -1.740000      0.0000000E+00
  -1.730000      0.0000000E+00
  -1.720000      0.0000000E+00
  -1.710000      0.0000000E+00
  -1.700000      0.0000000E+00
  -1.690000      0.0000000E+00
  -1.680000      0.0000000E+00
  -1.670000      0.0000000E+00
  -1.660000      0.0000000E+00
  -1.650000      0.0000000E+00
  -1.640000      0.0000000E+00
  -1.630000      0.0000000E+00
  -1.620000      0.0000000E+00
  -1.610000      0.0000000E+00
  -1.600000      0.0000000E+00
  -1.590000      0.0000000E+00
  -1.580000      0.0000000E+00
  -1.570000      0.0000000E+00
  -1.560000      0.0000000E+00
  -1.550000      0.0000000E+00
  -1.540000      0.0000000E+00
  -1.530000      0.0000000E+00
  -1.520000      0.0000000E+00
  -1.510000      0.0000000E+00
  -1.500000      0.0000000E+00
  -1.490000      0.0000000E+00
  -1.480000      0.0000000E+00
  -1.470000      0.0000000E+00
  -1.460000      0.0000000E+00
  -1.450000      0.0000000E+00
  -1.440000      0.0000000E+00
  -1.430000      0.0000000E+00
  -1.420000      0.0000000E+00
  -1.410000      0.0000000E+00
  -1.400000      0.0000000E+00
  -1.390000      0.0000000E+00
  -1.380000      0.0000000E+00
  -1.370000      0.0000000E+00
  -1.360000      0.0000000E+00
  -1.350000      0.0000000E+00
  -1.340000      0.0000000E+00
  -1.330000      0.0000000E+00
  -1.320000      0.0000000E+00
  -1.310000      0.0000000E+00
  -1.300000      0.0000000E+00
  -1.290000      0.0000000E+00
  -1.280000      0.0000000E+00
  -1.270000      0.0000000E+00
  -1.260000      0.0000000E+00
  -1.250000      0.0000000E+00
  -1.240000      0.0000000E+00
  -1.230000      0.0000000E+00
  -1.220000      0.0000000E+00
  -1.210000      0.0000000E+00
  -1.200000      0.0000000E+00
  -1.190000      0.0000000E+00
  -1.180000      0.0000000E+00
  -1.170000      0.0000000E+00
  -1.160000      0.0000000E+00
  -1.150000      0.0000000E+00
  -1.140000      0.0000000E+00
  -1.130000      0.0000000E+00
  -1.120000      0.0000000E+00
  -1.110000      0.0000000E+00
  -1.100000      0.0000000E+00
  -1.090000      0.0000000E+00
  -1.080000      0.0000000E+00
  -1.070000      0.0000000E+00
  -1.060000      0.0000000E+00
  -1.050000      0.0000000E+00
  -1.040000      0.0000000E+00
  -1.030000      0.0000000E+00
  -1.020000      0.0000000E+00
  -1.010000      0.0000000E+00
  -1.000000      0.0000000E+00
 -0.9900000      0.0000000E+00
 -0.9800000      0.0000000E+00
 -0.9700000      0.0000000E+00
 -0.9600000      0.0000000E+00
 -0.9500000      0.0000000E+00
 -0.9400000      0.0000000E+00
 -0.9300000      0.0000000E+00
 -0.9200000      0.0000000E+00
 -0.9100000      0.0000000E+00
 -0.9000000      0.0000000E+00
 -0.8900000      0.0000000E+00
 -0.8800000      0.0000000E+00
 -0.8700000      0.0000000E+00
 -0.8600000      0.0000000E+00
 -0.8500000      0.0000000E+00
 -0.8400000      0.0000000E+00
 -0.8300000      0.0000000E+00
 -0.8200000      0.0000000E+00
 -0.8100000      0.0000000E+00
 -0.8000000      0.0000000E+00
 -0.7900000      0.0000000E+00
 -0.7800000      0.0000000E+00
 -0.7700000      0.0000000E+00
 -0.7600000      0.0000000E+00
 -0.7500000      0.0000000E+00
 -0.7400000      0.0000000E+00
 -0.7300000      0.0000000E+00
 -0.7200000      0.0000000E+00
 -0.7100000      0.0000000E+00
 -0.7000000      0.0000000E+00
 -0.6900000      0.0000000E+00
 -0.6800000      0.0000000E+00
 -0.6700000      0.0000000E+00
 -0.6600000      0.0000000E+00
 -0.6500000      0.0000000E+00
 -0.6400000      0.0000000E+00
 -0.6300000      0.0000000E+00
 -0.6200000      0.0000000E+00
 -0.6100000      0.0000000E+00
 -0.6000000      0.0000000E+00
 -0.5900000      0.0000000E+00
 -0.5800000      0.0000000E+00
 -0.5700000      0.0000000E+00
 -0.5600000      0.0000000E+00
 -0.5500000      0.0000000E+00
 -0.5400000      0.0000000E+00
 -0.5300000      0.0000000E+00
 -0.5200000      0.0000000E+00
 -0.5100000      0.0000000E+00
 -0.5000000      0.0000000E+00
 -0.4900000      0.0000000E+00
 -0.4800000      0.0000000E+00
 -0.4700000      0.0000000E+00
 -0.4600000      0.0000000E+00
 -0.4500000      0.0000000E+00
 -0.4400000      0.0000000E+00
 -0.4300000      0.0000000E+00
 -0.4200000      0.0000000E+00
 -0.4100000      0.0000000E+00
 -0.4000000      0.0000000E+00
 -0.3900000      0.0000000E+00
 -0.3800000      0.0000000E+00
 -0.3700000      0.0000000E+00
 -0.3600000      0.0000000E+00
 -0.3500000      0.0000000E+00
 -0.3400000      0.0000000E+00
 -0.3300000      0.0000000E+00
 -0.3200000      0.0000000E+00
 -0.3100000      0.0000000E+00
 -0.3000000      0.0000000E+00
 -0.2900000      0.0000000E+00
 -0.2800000      0.0000000E+00
 -0.2700000      0.0000000E+00
 -0.2600000      0.0000000E+00
 -0.2500000      0.0000000E+00
 -0.2400000      0.0000000E+00
 -0.2300000      0.0000000E+00
 -0.2200000      0.0000000E+00
 -0.2100000      0.0000000E+00
 -0.2000000      0.0000000E+00
 -0.1900000      0.0000000E+00
 -0.1800000      0.0000000E+00
 -0.1700000      0.0000000E+00
 -0.1600000      0.0000000E+00
 -0.1500000      0.0000000E+00
 -0.1400000      0.0000000E+00
 -0.1300000      0.0000000E+00
 -0.1200000      0.0000000E+00
 -0.1100000      0.0000000E+00
 -0.1000000      0.0000000E+00
 -9.0000004E-02  0.0000000E+00
 -7.9999998E-02  0.0000000E+00
 -7.0000000E-02  0.0000000E+00
 -5.9999999E-02  0.0000000E+00
 -5.0000001E-02  0.0000000E+00
 -3.9999999E-02  0.0000000E+00
 -2.9999999E-02  0.0000000E+00
 -2.0000000E-02  0.0000000E+00
 -9.9999998E-03  0.0000000E+00
 -3.4694470E-17  0.0000000E+00
  9.9999998E-03  0.0000000E+00
  2.0000000E-02  0.0000000E+00
  2.9999999E-02  0.0000000E+00
  3.9999999E-02  0.0000000E+00
  5.0000001E-02  0.0000000E+00
  5.9999999E-02  0.0000000E+00
  7.0000000E-02  0.0000000E+00
  7.9999998E-02  0.0000000E+00
  9.0000004E-02  0.0000000E+00
  0.1000000      0.0000000E+00
  0.1100000      0.0000000E+00
  0.1200000      0.0000000E+00
  0.1300000      0.0000000E+00
  0.1400000      0.0000000E+00
  0.1500000      0.0000000E+00
  0.1600000      0.0000000E+00
  0.1700000      0.0000000E+00
  0.1800000      0.0000000E+00
  0.1900000      0.0000000E+00
  0.2000000      0.0000000E+00
  0.2100000      0.0000000E+00
  0.2200000      0.0000000E+00
  0.2300000      0.0000000E+00
  0.2400000      0.0000000E+00
  0.2500000      0.0000000E+00
  0.2600000      0.0000000E+00
  0.2700000      0.0000000E+00
  0.2800000      0.0000000E+00
  0.2900000      0.0000000E+00
  0.3000000      0.0000000E+00
  0.3100000      0.0000000E+00
  0.3200000      0.0000000E+00
  0.3300000      0.0000000E+00
  0.3400000      0.0000000E+00
  0.3500000      0.0000000E+00
  0.3600000      0.0000000E+00
  0.3700000      0.0000000E+00
  0.3800000      0.0000000E+00
  0.3900000      0.0000000E+00
  0.4000000      0.0000000E+00
  0.4100000      0.0000000E+00
  0.4200000      0.0000000E+00
  0.4300000      0.0000000E+00
  0.4400000      0.0000000E+00
  0.4500000      0.0000000E+00
  0.4600000      0.0000000E+00
  0.4700000      0.0000000E+00
  0.4800000      0.0000000E+00
  0.4900000      0.0000000E+00
  0.5000000      0.0000000E+00
  0.5100000      0.0000000E+00
  0.5200000      0.0000000E+00
  0.5300000      0.0000000E+00
  0.5400000      0.0000000E+00
  0.5500000      0.0000000E+00
  0.5600000      0.0000000E+00
  0.5700000      0.0000000E+00
  0.5800000      0.0000000E+00
  0.5900000      0.0000000E+00
  0.6000000      0.0000000E+00
  0.6100000      0.0000000E+00
  0.6200000      0.0000000E+00
  0.6300000      0.0000000E+00
  0.6400000      0.0000000E+00
  0.6500000      0.0000000E+00
  0.6600000      0.0000000E+00
  0.6700000      0.0000000E+00
  0.6800000      0.0000000E+00
  0.6900000      0.0000000E+00
  0.7000000      0.0000000E+00
  0.7100000      0.0000000E+00
  0.7200000      0.0000000E+00
  0.7300000      0.0000000E+00
  0.7400000      0.0000000E+00
  0.7500000      0.0000000E+00
  0.7600000      0.0000000E+00
  0.7700000      0.0000000E+00
  0.7800000      0.0000000E+00
  0.7900000      0.0000000E+00
  0.8000000      0.0000000E+00
  0.8100000      0.0000000E+00
  0.8200000      0.0000000E+00
  0.8300000      0.0000000E+00
  0.8400000      0.0000000E+00
  0.8500000      0.0000000E+00
  0.8600000      0.0000000E+00
  0.8700000      0.0000000E+00
  0.8800000      0.0000000E+00
  0.8900000      0.0000000E+00
  0.9000000      0.0000000E+00
  0.9100000      0.0000000E+00
  0.9200000      0.0000000E+00
  0.9300000      0.0000000E+00
  0.9400000      0.0000000E+00
  0.9500000      0.0000000E+00
  0.9600000      0.0000000E+00
  0.9700000      0.0000000E+00
  0.9800000      0.0000000E+00
  0.9900000      0.0000000E+00
   1.000000      0.0000000E+00
   1.010000      0.0000000E+00
   1.020000      0.0000000E+00
   1.030000      0.0000000E+00
   1.040000      0.0000000E+00
   1.050000      0.0000000E+00
   1.060000      0.0000000E+00
   1.070000      0.0000000E+00
   1.080000      0.0000000E+00
   1.090000      0.0000000E+00
   1.100000      0.0000000E+00
   1.110000      0.0000000E+00
   1.120000      0.0000000E+00
   1.130000      0.0000000E+00
   1.140000      0.0000000E+00
   1.150000      0.0000000E+00
   1.160000      0.0000000E+00
   1.170000      0.0000000E+00
   1.180000      0.0000000E+00
   1.190000      0.0000000E+00
   1.200000      0.0000000E+00
   1.210000      0.0000000E+00
   1.220000      0.0000000E+00
   1.230000      0.0000000E+00
   1.240000      0.0000000E+00
   1.250000      0.0000000E+00
   1.260000      0.0000000E+00
   1.270000      0.0000000E+00
   1.280000      0.0000000E+00
   1.290000      0.0000000E+00
   1.300000      0.0000000E+00
   1.310000      0.0000000E+00
   1.320000      0.0000000E+00
   1.330000      0.0000000E+00
   1.340000      0.0000000E+00
   1.350000      0.0000000E+00
   1.360000      0.0000000E+00
   1.370000      0.0000000E+00
   1.380000      0.0000000E+00
   1.390000      0.0000000E+00
   1.400000      0.0000000E+00
   1.410000      0.0000000E+00
   1.420000      0.0000000E+00
   1.430000      0.0000000E+00
   1.440000      0.0000000E+00
   1.450000      0.0000000E+00
   1.460000      0.0000000E+00
   1.470000      0.0000000E+00
   1.480000      0.0000000E+00
   1.490000      0.0000000E+00
   1.500000      0.0000000E+00
   1.510000      0.0000000E+00
   1.520000      0.0000000E+00
   1.530000      0.0000000E+00
   1.540000      0.0000000E+00
   1.550000      0.0000000E+00
   1.560000      0.0000000E+00
   1.570000      0.0000000E+00
   1.580000      0.0000000E+00
   1.590000      0.0000000E+00
   1.600000      0.0000000E+00
   1.610000      0.0000000E+00
   1.620000      0.0000000E+00
   1.630000      0.0000000E+00
   1.640000      0.0000000E+00
   1.650000      0.0000000E+00
   1.660000      0.0000000E+00
   1.670000      0.0000000E+00
   1.680000      0.0000000E+00
   1.690000      0.0000000E+00
   1.700000      0.0000000E+00
   1.710000      0.0000000E+00
   1.720000      0.0000000E+00
   1.730000      0.0000000E+00
   1.740000      0.0000000E+00
   1.750000      0.0000000E+00
   1.760000      0.0000000E+00
   1.770000      0.0000000E+00
   1.780000      0.0000000E+00
   1.790000      0.0000000E+00
   1.800000      0.0000000E+00
   1.810000      0.0000000E+00
   1.820000      0.0000000E+00
   1.830000      0.0000000E+00
   1.840000      0.0000000E+00
   1.850000      0.0000000E+00
   1.860000      0.0000000E+00
   1.870000      0.0000000E+00
   1.880000      0.0000000E+00
   1.890000      0.0000000E+00
   1.900000      0.0000000E+00
   1.910000      0.0000000E+00
   1.920000      0.0000000E+00
   1.930000      0.0000000E+00
   1.940000      0.0000000E+00
   1.950000      0.0000000E+00
   1.960000      0.0000000E+00
   1.970000      0.0000000E+00
   1.980000      0.0000000E+00
   1.990000      0.0000000E+00
   2.000000      0.0000000E+00
   2.010000      0.0000000E+00
   2.020000      0.0000000E+00
   2.030000      0.0000000E+00
   2.040000      0.0000000E+00
   2.050000      0.0000000E+00
   2.060000      0.0000000E+00
   2.070000      0.0000000E+00
   2.080000      0.0000000E+00
   2.090000      0.0000000E+00
   2.100000      0.0000000E+00
   2.110000      0.0000000E+00
   2.120000      0.0000000E+00
   2.130000      0.0000000E+00
   2.140000      0.0000000E+00
   2.150000      0.0000000E+00
   2.160000      0.0000000E+00
   2.170000      0.0000000E+00
   2.180000      0.0000000E+00
   2.190000      0.0000000E+00
   2.200000      0.0000000E+00
   2.210000      0.0000000E+00
   2.220000      0.0000000E+00
   2.230000      0.0000000E+00
   2.240000      0.0000000E+00
   2.250000      0.0000000E+00
   2.260000      0.0000000E+00
   2.270000      0.0000000E+00
   2.280000      0.0000000E+00
   2.290000      0.0000000E+00
   2.300000      0.0000000E+00
   2.310000      0.0000000E+00
   2.320000      0.0000000E+00
   2.330000      0.0000000E+00
   2.340000      0.0000000E+00
   2.350000      0.0000000E+00
   2.360000      0.0000000E+00
   2.370000      0.0000000E+00
   2.380000      0.0000000E+00
   2.390000      0.0000000E+00
   2.400000      0.0000000E+00
   2.410000      0.0000000E+00
   2.420000      0.0000000E+00
   2.430000      0.0000000E+00
   2.440000      0.0000000E+00
   2.450000      0.0000000E+00
   2.460000      0.0000000E+00
   2.470000      0.0000000E+00
   2.480000      0.0000000E+00
   2.490000      0.0000000E+00
   2.500000      0.0000000E+00
   2.510000      0.0000000E+00
   2.520000      0.0000000E+00
   2.530000      0.0000000E+00
   2.540000      0.0000000E+00
   2.550000      0.0000000E+00
   2.560000      0.0000000E+00
   2.570000      0.0000000E+00
   2.580000      0.0000000E+00
   2.590000      0.0000000E+00
   2.600000      0.0000000E+00
   2.610000      0.0000000E+00
   2.620000      0.0000000E+00
   2.630000      0.0000000E+00
   2.640000      0.0000000E+00
   2.650000      0.0000000E+00
   2.660000      0.0000000E+00
   2.670000      0.0000000E+00
   2.680000      0.0000000E+00
   2.690000      0.0000000E+00
   2.700000      0.0000000E+00
   2.710000      0.0000000E+00
   2.720000      0.0000000E+00
   2.730000      0.0000000E+00
   2.740000      0.0000000E+00
   2.750000      0.0000000E+00
   2.760000      0.0000000E+00
   2.770000      0.0000000E+00
   2.780000      0.0000000E+00
   2.790000      0.0000000E+00
   2.800000      0.0000000E+00
   2.810000      0.0000000E+00
   2.820000      0.0000000E+00
   2.830000      0.0000000E+00
   2.840000      0.0000000E+00
   2.850000      0.0000000E+00
   2.860000      0.0000000E+00
   2.870000      0.0000000E+00
   2.880000      0.0000000E+00
   2.890000      0.0000000E+00
   2.900000      0.0000000E+00
   2.910000      0.0000000E+00
   2.920000      0.0000000E+00
   2.930000      0.0000000E+00
   2.940000      0.0000000E+00
   2.950000      0.0000000E+00
   2.960000      0.0000000E+00
   2.970000      0.0000000E+00
   2.980000      0.0000000E+00
   2.990000      0.0000000E+00
   3.000000      0.0000000E+00
   3.010000      0.0000000E+00
   3.020000      0.0000000E+00
   3.030000      0.0000000E+00
   3.040000      0.0000000E+00
   3.050000      0.0000000E+00
   3.060000      0.0000000E+00
   3.070000      0.0000000E+00
   3.080000      0.0000000E+00
   3.090000      0.0000000E+00
   3.100000      0.0000000E+00
   3.110000      0.0000000E+00
   3.120000      0.0000000E+00
   3.130000      0.0000000E+00
   3.140000      0.0000000E+00
   3.150000      0.0000000E+00
   3.160000      0.0000000E+00
   3.170000      0.0000000E+00
   3.180000      0.0000000E+00
   3.190000      0.0000000E+00
   3.200000      0.0000000E+00
   3.210000      0.0000000E+00
   3.220000      0.0000000E+00
   3.230000      0.0000000E+00
   3.240000      0.0000000E+00
   3.250000      0.0000000E+00
   3.260000      0.0000000E+00
   3.270000      0.0000000E+00
   3.280000      0.0000000E+00
   3.290000      0.0000000E+00
   3.300000      0.0000000E+00
   3.310000      0.0000000E+00
   3.320000      0.0000000E+00
   3.330000     -1.2150466E-38
   3.340000     -1.2256351E-38
   3.350000     -1.2291850E-38
   3.360000     -1.1847836E-38
   3.370000     -1.2130563E-38
   3.380000     -1.3893011E-38
   3.390000     -1.4598792E-38
   3.400000     -1.4185179E-38
   3.410000     -1.4091096E-38
   3.420000     -1.4173061E-38
   3.430000     -1.4044766E-38
   3.440000     -1.3966682E-38
   3.450000     -1.3556723E-38
   3.460000     -1.2560788E-38
   3.470000      0.0000000E+00
   3.480000      0.0000000E+00
   3.490000      0.0000000E+00
   3.500000      0.0000000E+00
   3.510000      0.0000000E+00
   3.520000      0.0000000E+00
   3.530000      1.4575103E-38
   3.540000      2.4711425E-38
   3.550000      3.3473935E-38
   3.560000      4.1042261E-38
   3.570000      4.8409475E-38
   3.580000      5.4949974E-38
   3.590000      6.0860180E-38
   3.600000      6.6146271E-38
   3.610000      7.0547598E-38
   3.620000      7.3725233E-38
   3.630000      7.5962260E-38
   3.640000      7.7838733E-38
   3.650000      7.8281672E-38
   3.660000      7.7580356E-38
   3.670000      7.7428287E-38
   3.680000      7.8143201E-38
   3.690000      8.0232722E-38
   3.700000      8.4003505E-38
   3.710000      8.8968176E-38
   3.720000      9.4252871E-38
   3.730000      9.9462394E-38
   3.740000      1.0271929E-37
   3.750000      1.0339237E-37
   3.760000      1.0319257E-37
   3.770000      1.0336213E-37
   3.780000      1.0570546E-37
   3.790000      1.0544462E-37
   3.800000      9.6681601E-38
   3.810000      8.3387965E-38
   3.820000      6.9304136E-38
   3.830000      5.4611936E-38
   3.840000      4.1018363E-38
   3.850000      3.3591330E-38
   3.860000      3.2706446E-38
   3.870000      2.2143437E-38
   3.880000      0.0000000E+00
   3.890000     -2.5692499E-38
   3.900000     -4.5653962E-38
   3.910000     -6.1081709E-38
   3.920000     -8.1829211E-38
   3.930000     -1.0914224E-37
   3.940000     -1.3376015E-37
   3.950000     -1.5301362E-37
   3.960000     -1.9194688E-37
   3.970000     -2.5243760E-37
   3.980000     -3.1600966E-37
   3.990000     -3.6611095E-37
   4.000000     -4.1620327E-37
   4.010000     -4.5657627E-37
   4.020000     -4.7120869E-37
   4.030000     -4.8838785E-37
   4.040000     -5.4560764E-37
   4.050000     -6.3082448E-37
   4.060000     -7.1040267E-37
   4.070000     -7.9331277E-37
   4.080000     -9.1810152E-37
   4.090000     -1.0920906E-36
   4.100000     -1.2723493E-36
   4.110000     -1.4765164E-36
   4.120000     -1.7099479E-36
   4.130000     -1.9416413E-36
   4.140000     -2.1488109E-36
   4.150000     -2.3030481E-36
   4.160000     -2.4189190E-36
   4.170000     -2.5129919E-36
   4.180000     -2.3439093E-36
   4.190000     -1.8913784E-36
   4.200000     -1.3938436E-36
   4.210000     -9.1897404E-37
   4.220000     -6.7686263E-37
   4.230000     -6.5089359E-37
   4.240000     -6.3822293E-37
   4.250000     -6.6046134E-37
   4.260000     -8.4003794E-37
   4.270000     -1.1811235E-36
   4.280000     -1.5984101E-36
   4.290000     -2.0750833E-36
   4.300000     -2.5668376E-36
   4.310000     -2.8633138E-36
   4.320000     -2.9286139E-36
   4.330000     -2.9239891E-36
   4.340000     -2.5237282E-36
   4.350000     -1.6727541E-36
   4.360000     -6.3185682E-37
   4.370000      5.3398574E-37
   4.380000      1.6807621E-36
   4.390000      2.7393558E-36
   4.400000      3.6947364E-36
   4.410000      4.5245225E-36
   4.420000      5.0039817E-36
   4.430000      5.2101728E-36
   4.440000      5.2750481E-36
   4.450000      5.2042907E-36
   4.460000      5.1580698E-36
   4.470000      5.0735176E-36
   4.480000      4.9431905E-36
   4.490000      4.8886488E-36
   4.500000      4.9594633E-36
   4.510000      5.4142298E-36
   4.520000      6.5008949E-36
   4.530000      8.3645291E-36
   4.540000      1.0795962E-35
   4.550000      1.3689798E-35
   4.560000      1.6943632E-35
   4.570000      2.0066524E-35
   4.580000      2.2823757E-35
   4.590000      2.4355580E-35
   4.600000      2.4538146E-35
   4.610000      2.4143595E-35
   4.620000      2.3285455E-35
   4.630000      2.1246677E-35
   4.640000      1.8427620E-35
   4.650000      1.5557046E-35
   4.660000      1.2792947E-35
   4.670000      1.0696655E-35
   4.680000      9.7882275E-36
   4.690000      1.0440901E-35
   4.700000      1.1854453E-35
   4.710000      1.3356753E-35
   4.720000      1.4660593E-35
   4.730000      1.5695137E-35
   4.740000      1.5829695E-35
   4.750000      1.4944067E-35
   4.760000      1.2561123E-35
   4.770000      8.4201627E-36
   4.780000      3.7547423E-36
   4.790000     -3.4019704E-37
   4.800000     -3.9201226E-36
   4.810000     -7.8093211E-36
   4.820000     -1.2092692E-35
   4.830000     -1.6960419E-35
   4.840000     -1.9681532E-35
   4.850000     -1.9136131E-35
   4.860000     -1.3554142E-35
   4.870000     -3.2800034E-36
   4.880000      7.6724948E-36
   4.890000      1.7561086E-35
   4.900000      1.5919973E-35
   4.910000      1.7171417E-36
   4.920000     -1.7600304E-35
   4.930000     -4.1780174E-35
   4.940000     -6.7980537E-35
   4.950000     -9.3856422E-35
   4.960000     -1.1570545E-34
   4.970000     -1.3964132E-34
   4.980000     -1.6872412E-34
   4.990000     -1.8913737E-34
   5.000000     -1.8484941E-34
   5.010000     -1.6431322E-34
   5.020000     -1.4581843E-34
   5.030000     -1.3076979E-34
   5.040000     -1.1197578E-34
   5.050000     -9.0322374E-35
   5.060000     -7.2667391E-35
   5.070000     -7.0144595E-35
   5.080000     -8.3672296E-35
   5.090000     -1.0038075E-34
   5.100000     -1.1427160E-34
   5.110000     -1.2785625E-34
   5.120000     -1.4597924E-34
   5.130000     -1.6902204E-34
   5.140000     -1.9340813E-34
   5.150000     -2.1349457E-34
   5.160000     -2.3077025E-34
   5.170000     -2.3704463E-34
   5.180000     -2.3232870E-34
   5.190000     -2.2637891E-34
   5.200000     -2.1866293E-34
   5.210000     -2.1018085E-34
   5.220000     -2.0388047E-34
   5.230000     -1.9371809E-34
   5.240000     -1.6511887E-34
   5.250000     -1.2206275E-34
   5.260000     -8.0097990E-35
   5.270000     -4.5594880E-35
   5.280000     -1.7176753E-35
   5.290000      1.2068569E-35
   5.300000      3.9210913E-35
   5.310000      6.1801593E-35
   5.320000      8.3967547E-35
   5.330000      1.1176217E-34
   5.340000      1.5030616E-34
   5.350000      1.9281241E-34
   5.360000      2.3921719E-34
   5.370000      2.9463291E-34
   5.380000      3.5845851E-34
   5.390000      4.3077143E-34
   5.400000      5.1047872E-34
   5.410000      5.9715999E-34
   5.420000      6.8817003E-34
   5.430000      7.7810241E-34
   5.440000      8.6176437E-34
   5.450000      9.3762306E-34
   5.460000      1.0059121E-33
   5.470000      1.0645756E-33
   5.480000      1.1143802E-33
   5.490000      1.1598867E-33
   5.500000      1.2040924E-33
   5.510000      1.2465416E-33
   5.520000      1.2903041E-33
   5.530000      1.3393681E-33
   5.540000      1.3891071E-33
   5.550000      1.4385243E-33
   5.560000      1.4911359E-33
   5.570000      1.5468492E-33
   5.580000      1.6048220E-33
   5.590000      1.6634211E-33
   5.600000      1.7201951E-33
   5.610000      1.7756997E-33
   5.620000      1.8242071E-33
   5.630000      1.8604294E-33
   5.640000      1.8872373E-33
   5.650000      1.8991322E-33
   5.660000      1.8959613E-33
   5.670000      1.8907311E-33
   5.680000      1.8774542E-33
   5.690000      1.8504099E-33
   5.700000      1.8140260E-33
   5.710000      1.7663345E-33
   5.720000      1.7080153E-33
   5.730000      1.6399652E-33
   5.740000      1.5574610E-33
   5.750000      1.4579616E-33
   5.760000      1.3416072E-33
   5.770000      1.2043042E-33
   5.780000      1.0439895E-33
   5.790000      8.5927048E-34
   5.800000      6.4703392E-34
   5.810000      4.0661181E-34
   5.820000      1.3835650E-34
   5.830000     -1.5818159E-34
   5.840000     -4.8058879E-34
   5.850000     -8.2868467E-34
   5.860000     -1.2011674E-33
   5.870000     -1.5942883E-33
   5.880000     -2.0065674E-33
   5.890000     -2.4374120E-33
   5.900000     -2.8853403E-33
   5.910000     -3.3503925E-33
   5.920000     -3.8337962E-33
   5.930000     -4.3351064E-33
   5.940000     -4.8552303E-33
   5.950000     -5.3952226E-33
   5.960000     -5.9544222E-33
   5.970000     -6.5340618E-33
   5.980000     -7.1354175E-33
   5.990000     -7.7582826E-33
   6.000000     -8.4016247E-33
   6.010000     -9.0639960E-33
   6.020000     -9.7435654E-33
   6.030000     -1.0436747E-32
   6.040000     -1.1141538E-32
   6.050000     -1.1855586E-32
   6.060000     -1.2573434E-32
   6.070000     -1.3292615E-32
   6.080000     -1.4010517E-32
   6.090000     -1.4723239E-32
   6.100000     -1.5427238E-32
   6.110000     -1.6119019E-32
   6.120000     -1.6795920E-32
   6.130000     -1.7454663E-32
   6.140000     -1.8091569E-32
   6.150000     -1.8702750E-32
   6.160000     -1.9283810E-32
   6.170000     -1.9829197E-32
   6.180000     -2.0332466E-32
   6.190000     -2.0786630E-32
   6.200000     -2.1183557E-32
   6.210000     -2.1514526E-32
   6.220000     -2.1770986E-32
   6.230000     -2.1943999E-32
   6.240000     -2.2024534E-32
   6.250000     -2.2003919E-32
   6.260000     -2.1873868E-32
   6.270000     -2.1626754E-32
   6.280000     -2.1255267E-32
   6.290000     -2.0752239E-32
   6.300000     -2.0110939E-32
   6.310000     -1.9324701E-32
   6.320000     -1.8386745E-32
   6.330000     -1.7290054E-32
   6.340000     -1.6027209E-32
   6.350000     -1.4590277E-32
   6.360000     -1.2970869E-32
   6.370000     -1.1160126E-32
   6.380000     -9.1506137E-33
   6.390000     -6.9313024E-33
   6.400000     -4.4912902E-33
   6.410000     -1.8239997E-33
   6.420000      1.0788248E-33
   6.430000      4.2245779E-33
   6.440000      7.6189255E-33
   6.450000      1.1266714E-32
   6.460000      1.5171710E-32
   6.470000      1.9336612E-32
   6.480000      2.3763147E-32
   6.490000      2.8452194E-32
   6.500000      3.3403885E-32
   6.510000      3.8617693E-32
   6.520000      4.4092470E-32
   6.530000      4.9826390E-32
   6.540000      5.5816845E-32
   6.550000      6.2060201E-32
   6.560000      6.8550734E-32
   6.570000      7.5283060E-32
   6.580000      8.2249939E-32
   6.590000      8.9440185E-32
   6.600000      9.6841068E-32
   6.610000      1.0443735E-31
   6.620000      1.1221107E-31
   6.630000      1.2014152E-31
   6.640000      1.2820534E-31
   6.650000      1.3637659E-31
   6.660000      1.4462687E-31
   6.670000      1.5292548E-31
   6.680000      1.6123792E-31
   6.690000      1.6953114E-31
   6.700000      1.7777001E-31
   6.710000      1.8591368E-31
   6.720000      1.9392059E-31
   6.730000      2.0174673E-31
   6.740000      2.0934565E-31
   6.750000      2.1666775E-31
   6.760000      2.2366058E-31
   6.770000      2.3026860E-31
   6.780000      2.3643287E-31
   6.790000      2.4209113E-31
   6.800000      2.4717790E-31
   6.810000      2.5162456E-31
   6.820000      2.5535962E-31
   6.830000      2.5830898E-31
   6.840000      2.6039614E-31
   6.850000      2.6154263E-31
   6.860000      2.6166822E-31
   6.870000      2.6069129E-31
   6.880000      2.5852892E-31
   6.890000      2.5509711E-31
   6.900000      2.5031099E-31
   6.910000      2.4408475E-31
   6.920000      2.3633187E-31
   6.930000      2.2696508E-31
   6.940000      2.1589665E-31
   6.950000      2.0303848E-31
   6.960000      1.8830251E-31
   6.970000      1.7160103E-31
   6.980000      1.5284716E-31
   6.990000      1.3195555E-31
   7.000000      1.0884295E-31
   7.010000      8.3428919E-32
   7.020000      5.5636600E-32
   7.030000      2.5393505E-32
   7.040000     -7.3677290E-33
   7.050000     -4.2708795E-32
   7.060000     -8.0684998E-32