  -2.600000      0.0000000E+00
  -2.590000      0.0000000E+00
  -2.580000      0.0000000E+00
  -2.570000      0.0000000E+00
  -2.560000      0.0000000E+00
  -2.550000      0.0000000E+00
  -2.540000      0.0000000E+00
  -2.530000      0.0000000E+00
  -2.520000      0.0000000E+00
  -2.510000      0.0000000E+00
  -2.500000      0.0000000E+00
  -2.490000      0.0000000E+00
  -2.480000      0.0000000E+00
  -2.470000      0.0000000E+00
  -2.460000      0.0000000E+00
  -2.450000      0.0000000E+00
  -2.440000      0.0000000E+00
  -2.430000      0.0000000E+00
  -2.420000      0.0000000E+00
  -2.410000      0.0000000E+00
  -2.400000      0.0000000E+00
  -2.390000      0.0000000E+00
  -2.380000      0.0000000E+00
  -2.370000      0.0000000E+00
  -2.360000      0.0000000E+00
  -2.350000      0.0000000E+00
  -2.340000      0.0000000E+00
  -2.330000      0.0000000E+00
  -2.320000      0.0000000E+00
  -2.310000      0.0000000E+00
  -2.300000      0.0000000E+00
  -2.290000      0.0000000E+00
  -2.280000      0.0000000E+00
  -2.270000      0.0000000E+00
  -2.260000      0.0000000E+00
  -2.250000      0.0000000E+00
  -2.240000      0.0000000E+00
  -2.230000      0.0000000E+00
  -2.220000      0.0000000E+00
  -2.210000      0.0000000E+00
  -2.200000      0.0000000E+00
  -2.190000      0.0000000E+00
  -2.180000      0.0000000E+00
  -2.170000      0.0000000E+00
  -2.160000      0.0000000E+00
  -2.150000      0.0000000E+00
  -2.140000      0.0000000E+00
  -2.130000      0.0000000E+00
  -2.120000      0.0000000E+00
  -2.110000      0.0000000E+00
  -2.100000      0.0000000E+00
  -2.090000      0.0000000E+00
  -2.080000      0.0000000E+00
  -2.070000      0.0000000E+00
  -2.060000      0.0000000E+00
  -2.050000      0.0000000E+00
  -2.040000      0.0000000E+00
  -2.030000      0.0000000E+00
  -2.020000      0.0000000E+00
  -2.010000      0.0000000E+00
  -2.000000      0.0000000E+00
  -1.990000      0.0000000E+00
  -1.980000      0.0000000E+00
  -1.970000      0.0000000E+00
  -1.960000      0.0000000E+00
  -1.950000      0.0000000E+00
  -1.940000      0.0000000E+00
  -1.930000      0.0000000E+00
  -1.920000      0.0000000E+00
  -1.910000      0.0000000E+00
  -1.900000      0.0000000E+00
  -1.890000      0.0000000E+00
  -1.880000      0.0000000E+00
  -1.870000      0.0000000E+00
  -1.860000      0.0000000E+00
  -1.850000      0.0000000E+00
  -1.840000      0.0000000E+00
  -1.830000      0.0000000E+00
  -1.820000      0.0000000E+00
  -1.810000      0.0000000E+00
  -1.800000      0.0000000E+00
  -1.790000      0.0000000E+00
  -1.780000      0.0000000E+00
  -1.770000      0.0000000E+00
  -1.760000      0.0000000E+00
  -1.750000      0.0000000E+00
  -1.740000      0.0000000E+00
  -1.730000      0.0000000E+00
  -1.720000      0.0000000E+00
  -1.710000      0.0000000E+00
  -1.700000      0.0000000E+00
  -1.690000      0.0000000E+00
  -1.680000      0.0000000E+00
  -1.670000      0.0000000E+00
  -1.660000      0.0000000E+00
  -1.650000      0.0000000E+00
  -1.640000      0.0000000E+00
  -1.630000      0.0000000E+00
  -1.620000      0.0000000E+00
  -1.610000      0.0000000E+00
  -1.600000      0.0000000E+00
  -1.590000      0.0000000E+00
  -1.580000      0.0000000E+00
  -1.570000      0.0000000E+00
  -1.560000      0.0000000E+00
  -1.550000      0.0000000E+00
  -1.540000      0.0000000E+00
  -1.530000      0.0000000E+00
  -1.520000      0.0000000E+00
  -1.510000      0.0000000E+00
  -1.500000      0.0000000E+00
  -1.490000      0.0000000E+00
  -1.480000      0.0000000E+00
  -1.470000      0.0000000E+00
  -1.460000      0.0000000E+00
  -1.450000      0.0000000E+00
  -1.440000      0.0000000E+00
  -1.430000      0.0000000E+00
  -1.420000      0.0000000E+00
  -1.410000      0.0000000E+00
  -1.400000      0.0000000E+00
  -1.390000      0.0000000E+00
  -1.380000      0.0000000E+00
  -1.370000      0.0000000E+00
  -1.360000      0.0000000E+00
  -1.350000      0.0000000E+00
  -1.340000      0.0000000E+00
  -1.330000      0.0000000E+00
  -1.320000      0.0000000E+00
  -1.310000      0.0000000E+00
  -1.300000      0.0000000E+00
  -1.290000      0.0000000E+00
  -1.280000      0.0000000E+00
  -1.270000      0.0000000E+00
  -1.260000      0.0000000E+00
  -1.250000      0.0000000E+00
  -1.240000      0.0000000E+00
  -1.230000      0.0000000E+00
  -1.220000      0.0000000E+00
  -1.210000      0.0000000E+00
  -1.200000      0.0000000E+00
  -1.190000      0.0000000E+00
  -1.180000      0.0000000E+00
  -1.170000      0.0000000E+00
  -1.160000      0.0000000E+00
  -1.150000      0.0000000E+00
  -1.140000      0.0000000E+00
  -1.130000      0.0000000E+00
  -1.120000      0.0000000E+00
  -1.110000      0.0000000E+00
  -1.100000      0.0000000E+00
  -1.090000      0.0000000E+00
  -1.080000      0.0000000E+00
  -1.070000      0.0000000E+00
  -1.060000      0.0000000E+00
  -1.050000      0.0000000E+00
  -1.040000      0.0000000E+00
  -1.030000      0.0000000E+00
  -1.020000      0.0000000E+00
  -1.010000      0.0000000E+00
  -1.000000      0.0000000E+00
 -0.9900000      0.0000000E+00
 -0.9800000      0.0000000E+00
 -0.9700000      0.0000000E+00
 -0.9600000      0.0000000E+00
 -0.9500000      0.0000000E+00
 -0.9400000      0.0000000E+00
 -0.9300000      0.0000000E+00
 -0.9200000      0.0000000E+00
 -0.9100000      0.0000000E+00
 -0.9000000      0.0000000E+00
 -0.8900000      0.0000000E+00
 -0.8800000      0.0000000E+00
 -0.8700000      0.0000000E+00
 -0.8600000      0.0000000E+00
 -0.8500000      0.0000000E+00
 -0.8400000      0.0000000E+00
 -0.8300000      0.0000000E+00
 -0.8200000      0.0000000E+00
 -0.8100000      0.0000000E+00
 -0.8000000      0.0000000E+00
 -0.7900000      0.0000000E+00
 -0.7800000      0.0000000E+00
 -0.7700000      0.0000000E+00
 -0.7600000      0.0000000E+00
 -0.7500000      0.0000000E+00
 -0.7400000      0.0000000E+00
 -0.7300000      0.0000000E+00
 -0.7200000      0.0000000E+00
 -0.7100000      0.0000000E+00
 -0.7000000      0.0000000E+00
 -0.6900000      0.0000000E+00
 -0.6800000      0.0000000E+00
 -0.6700000      0.0000000E+00
 -0.6600000      0.0000000E+00
 -0.6500000      0.0000000E+00
 -0.6400000      0.0000000E+00
 -0.6300000      0.0000000E+00
 -0.6200000      0.0000000E+00
 -0.6100000      0.0000000E+00
 -0.6000000      0.0000000E+00
 -0.5900000      0.0000000E+00
 -0.5800000      0.0000000E+00
 -0.5700000      0.0000000E+00
 -0.5600000      0.0000000E+00
 -0.5500000      0.0000000E+00
 -0.5400000      0.0000000E+00
 -0.5300000      0.0000000E+00
 -0.5200000      0.0000000E+00
 -0.5100000      0.0000000E+00
 -0.5000000      0.0000000E+00
 -0.4900000      0.0000000E+00
 -0.4800000      0.0000000E+00
 -0.4700000      0.0000000E+00
 -0.4600000      0.0000000E+00
 -0.4500000      0.0000000E+00
 -0.4400000      0.0000000E+00
 -0.4300000      0.0000000E+00
 -0.4200000      0.0000000E+00
 -0.4100000      0.0000000E+00
 -0.4000000      0.0000000E+00
 -0.3900000      0.0000000E+00
 -0.3800000      0.0000000E+00
 -0.3700000      0.0000000E+00
 -0.3600000      0.0000000E+00
 -0.3500000      0.0000000E+00
 -0.3400000      0.0000000E+00
 -0.3300000      0.0000000E+00
 -0.3200000      0.0000000E+00
 -0.3100000      0.0000000E+00
 -0.3000000      0.0000000E+00
 -0.2900000      0.0000000E+00
 -0.2800000      0.0000000E+00
 -0.2700000      0.0000000E+00
 -0.2600000      0.0000000E+00
 -0.2500000      0.0000000E+00
 -0.2400000      0.0000000E+00
 -0.2300000      0.0000000E+00
 -0.2200000      0.0000000E+00
 -0.2100000      0.0000000E+00
 -0.2000000      0.0000000E+00
 -0.1900000      0.0000000E+00
 -0.1800000      0.0000000E+00
 -0.1700000      0.0000000E+00
 -0.1600000      0.0000000E+00
 -0.1500000      0.0000000E+00
 -0.1400000      0.0000000E+00
 -0.1300000      0.0000000E+00
 -0.1200000      0.0000000E+00
 -0.1100000      0.0000000E+00
 -0.1000000      0.0000000E+00
 -9.0000004E-02  0.0000000E+00
 -7.9999998E-02  0.0000000E+00
 -7.0000000E-02  0.0000000E+00
 -5.9999999E-02  0.0000000E+00
 -5.0000001E-02  0.0000000E+00
 -3.9999999E-02  0.0000000E+00
 -2.9999999E-02  0.0000000E+00
 -2.0000000E-02  0.0000000E+00
 -9.9999998E-03  0.0000000E+00
 -3.4694470E-17  0.0000000E+00
  9.9999998E-03  0.0000000E+00
  2.0000000E-02  0.0000000E+00
  2.9999999E-02  0.0000000E+00
  3.9999999E-02  0.0000000E+00
  5.0000001E-02  0.0000000E+00
  5.9999999E-02  0.0000000E+00
  7.0000000E-02  0.0000000E+00
  7.9999998E-02  0.0000000E+00
  9.0000004E-02  0.0000000E+00
  0.1000000      0.0000000E+00
  0.1100000      0.0000000E+00
  0.1200000      0.0000000E+00
  0.1300000      0.0000000E+00
  0.1400000      0.0000000E+00
  0.1500000      0.0000000E+00
  0.1600000      0.0000000E+00
  0.1700000      0.0000000E+00
  0.1800000      0.0000000E+00
  0.1900000      0.0000000E+00
  0.2000000      0.0000000E+00
  0.2100000      0.0000000E+00
  0.2200000      0.0000000E+00
  0.2300000      0.0000000E+00
  0.2400000      0.0000000E+00
  0.2500000      0.0000000E+00
  0.2600000      0.0000000E+00
  0.2700000      0.0000000E+00
  0.2800000      0.0000000E+00
  0.2900000      2.5980780E-38
  0.3000000      5.2795624E-38
  0.3100000      8.1694344E-38
  0.3200000      1.1534154E-37
  0.3300000      1.5201207E-37
  0.3400000      1.8847563E-37
  0.3500000      2.2345930E-37
  0.3600000      2.4307569E-37
  0.3700000      2.4391837E-37
  0.3800000      2.3972824E-37
  0.3900000      2.2458442E-37
  0.4000000      1.9632398E-37
  0.4100000      1.5012558E-37
  0.4200000      7.7426101E-38
  0.4300000      0.0000000E+00
  0.4400000     -1.1266462E-37
  0.4500000     -2.3305501E-37
  0.4600000     -3.7750465E-37
  0.4700000     -5.4937572E-37
  0.4800000     -7.3919328E-37
  0.4900000     -9.3772508E-37
  0.5000000     -1.1643860E-36
  0.5100000     -1.4242305E-36
  0.5200000     -1.7349684E-36
  0.5300000     -2.0852986E-36
  0.5400000     -2.4706032E-36
  0.5500000     -2.9101824E-36
  0.5600000     -3.3703369E-36
  0.5700000     -3.8262635E-36
  0.5800000     -4.2787198E-36
  0.5900000     -4.6934066E-36
  0.6000000     -5.0350547E-36
  0.6100000     -5.3176799E-36
  0.6200000     -5.4695912E-36
  0.6300000     -5.4558159E-36
  0.6400000     -5.3178036E-36
  0.6500000     -5.1012315E-36
  0.6600000     -4.7670346E-36
  0.6700000     -4.2497708E-36
  0.6800000     -3.5583464E-36
  0.6900000     -2.6469176E-36
  0.7000000     -1.4771754E-36
  0.7100000     -5.7419970E-38
  0.7200000      1.7194512E-36
  0.7300000      3.8871404E-36
  0.7400000      6.3031551E-36
  0.7500000      8.9488468E-36
  0.7600000      1.1824219E-35
  0.7700000      1.5035150E-35
  0.7800000      1.8713207E-35
  0.7900000      2.2783184E-35
  0.8000000      2.6791129E-35
  0.8100000      3.0271100E-35
  0.8200000      3.3340180E-35
  0.8300000      3.6129112E-35
  0.8400000      3.8521621E-35
  0.8500000      4.1065519E-35
  0.8600000      4.3923661E-35
  0.8700000      4.6454719E-35
  0.8800000      4.8515372E-35
  0.8900000      4.9980791E-35
  0.9000000      5.1870795E-35
  0.9100000      5.4420045E-35
  0.9200000      5.6120373E-35
  0.9300000      5.6493099E-35
  0.9400000      5.5794914E-35
  0.9500000      5.4582261E-35
  0.9600000      5.2837954E-35
  0.9700000      5.0488240E-35
  0.9800000      4.7107577E-35
  0.9900000      4.1976413E-35
   1.000000      3.5181676E-35
   1.010000      2.6527039E-35
   1.020000      1.6593628E-35
   1.030000      6.0961206E-36
   1.040000     -5.6543032E-36
   1.050000     -1.9060404E-35
   1.060000     -3.3641520E-35
   1.070000     -4.9404943E-35
   1.080000     -6.6582164E-35
   1.090000     -8.4761993E-35
   1.100000     -1.0403252E-34
   1.110000     -1.2488035E-34
   1.120000     -1.4703190E-34
   1.130000     -1.6944257E-34
   1.140000     -1.9186288E-34
   1.150000     -2.1411829E-34
   1.160000     -2.3646456E-34
   1.170000     -2.5906832E-34
   1.180000     -2.8095557E-34
   1.190000     -3.0246934E-34
   1.200000     -3.2402575E-34
   1.210000     -3.4410524E-34
   1.220000     -3.6365180E-34
   1.230000     -3.8271479E-34
   1.240000     -3.9630869E-34
   1.250000     -4.0358110E-34
   1.260000     -4.0668670E-34
   1.270000     -4.0550280E-34
   1.280000     -3.9922754E-34
   1.290000     -3.8721583E-34
   1.300000     -3.6885215E-34
   1.310000     -3.4328593E-34
   1.320000     -3.1085204E-34
   1.330000     -2.7202847E-34
   1.340000     -2.2665765E-34
   1.350000     -1.7412759E-34
   1.360000     -1.1486607E-34
   1.370000     -5.2374197E-35
   1.380000      1.0493612E-35
   1.390000      7.7393521E-35
   1.400000      1.5550471E-34
   1.410000      2.4014854E-34
   1.420000      3.2870374E-34
   1.430000      4.2426282E-34
   1.440000      5.2310982E-34
   1.450000      6.2069858E-34
   1.460000      7.1925836E-34
   1.470000      8.1872676E-34
   1.480000      9.1552009E-34
   1.490000      1.0092892E-33
   1.500000      1.0976484E-33
   1.510000      1.1859819E-33
   1.520000      1.2764656E-33
   1.530000      1.3671452E-33
   1.540000      1.4544881E-33
   1.550000      1.5366857E-33
   1.560000      1.6153416E-33
   1.570000      1.6885181E-33
   1.580000      1.7543417E-33
   1.590000      1.8079182E-33
   1.600000      1.8486682E-33
   1.610000      1.8762622E-33
   1.620000      1.8876079E-33
   1.630000      1.8761920E-33
   1.640000      1.8406001E-33
   1.650000      1.7808041E-33
   1.660000      1.6887099E-33
   1.670000      1.5623275E-33
   1.680000      1.3975444E-33
   1.690000      1.1929015E-33
   1.700000      9.4989605E-34
   1.710000      6.6307758E-34
   1.720000      3.3063265E-34
   1.730000     -5.0104247E-35
   1.740000     -4.7466590E-34
   1.750000     -9.3878652E-34
   1.760000     -1.4468896E-33
   1.770000     -1.9974163E-33
   1.780000     -2.5874467E-33
   1.790000     -3.2142332E-33
   1.800000     -3.8746296E-33
   1.810000     -4.5644438E-33
   1.820000     -5.2784678E-33
   1.830000     -6.0111214E-33
   1.840000     -6.7575431E-33
   1.850000     -7.5113009E-33
   1.860000     -8.2640831E-33
   1.870000     -9.0092047E-33
   1.880000     -9.7374183E-33
   1.890000     -1.0442022E-32
   1.900000     -1.1116272E-32
   1.910000     -1.1749394E-32
   1.920000     -1.2332282E-32
   1.930000     -1.2856570E-32
   1.940000     -1.3313380E-32
   1.950000     -1.3692376E-32
   1.960000     -1.3983970E-32
   1.970000     -1.4176891E-32
   1.980000     -1.4258288E-32
   1.990000     -1.4217807E-32
   2.000000     -1.4043628E-32
   2.010000     -1.3722986E-32
   2.020000     -1.3243230E-32
   2.030000     -1.2590375E-32
   2.040000     -1.1751196E-32
   2.050000     -1.0711918E-32
   2.060000     -9.4584272E-33
   2.070000     -7.9772580E-33
   2.080000     -6.2555409E-33
   2.090000     -4.2811339E-33
   2.100000     -2.0431747E-33
   2.110000      4.6736480E-34
   2.120000      3.2575333E-33
   2.130000      6.3319098E-33
   2.140000      9.6923770E-33
   2.150000      1.3337504E-32
   2.160000      1.7262271E-32
   2.170000      2.1457837E-32
   2.180000      2.5911093E-32
   2.190000      3.0604942E-32
   2.200000      3.5517935E-32
   2.210000      4.0623874E-32
   2.220000      4.5892622E-32
   2.230000      5.1289904E-32
   2.240000      5.6777188E-32
   2.250000      6.2312174E-32
   2.260000      6.7849599E-32
   2.270000      7.3341191E-32
   2.280000      7.8735628E-32
   2.290000      8.3979473E-32
   2.300000      8.9017478E-32
   2.310000      9.3792553E-32
   2.320000      9.8246143E-32
   2.330000      1.0231873E-31
   2.340000      1.0594956E-31
   2.350000      1.0907679E-31
   2.360000      1.1163757E-31
   2.370000      1.1356773E-31
   2.380000      1.1480187E-31
   2.390000      1.1527334E-31
   2.400000      1.1491388E-31
   2.410000      1.1365361E-31
   2.420000      1.1142210E-31
   2.430000      1.0814702E-31
   2.440000      1.0375531E-31
   2.450000      9.8173891E-32
   2.460000      9.1330045E-32
   2.470000      8.3153283E-32
   2.480000      7.3575725E-32
   2.490000      6.2533913E-32
   2.500000      4.9970612E-32
   2.510000      3.5836562E-32
   2.520000      2.0092456E-32
   2.530000      2.7111532E-33
   2.540000     -1.6320201E-32
   2.550000     -3.6998194E-32
   2.560000     -5.9300957E-32
   2.570000     -8.3186867E-32
   2.580000     -1.0859269E-31
   2.590000     -1.3543207E-31
   2.600000     -1.6359519E-31
   2.610000     -1.9294808E-31
   2.620000     -2.2333257E-31
   2.630000     -2.5456677E-31
   2.640000     -2.8644571E-31
   2.650000     -3.1874221E-31
   2.660000     -3.5120941E-31
   2.670000     -3.8358189E-31
   2.680000     -4.1557666E-31
   2.690000     -4.4689629E-31
   2.700000     -4.7723049E-31
   2.710000     -5.0625810E-31
   2.720000     -5.3364890E-31
   2.730000     -5.5906488E-31
   2.740000     -5.8216132E-31
   2.750000     -6.0258812E-31
   2.760000     -6.1999005E-31
   2.770000     -6.3400706E-31
   2.780000     -6.4427463E-31
   2.790000     -6.5042373E-31
   2.800000     -6.5208052E-31
   2.810000     -6.4886658E-31
   2.820000     -6.4039964E-31
   2.830000     -6.2629403E-31
   2.840000     -6.0616256E-31
   2.850000     -5.7961844E-31
   2.860000     -5.4627851E-31
   2.870000     -5.0576735E-31
   2.880000     -4.5772241E-31
   2.890000     -4.0180010E-31
   2.900000     -3.3768306E-31
   2.910000     -2.6508846E-31
   2.920000     -1.8377665E-31
   2.930000     -9.3560799E-32
   2.940000      5.6830942E-33
   2.950000      1.1400686E-31
   2.960000      2.3137970E-31
   2.970000      3.5767914E-31
   2.980000      4.9268297E-31
   2.990000      6.3606131E-31
   3.000000      7.8737160E-31
   3.010000      9.4605309E-31
   3.020000      1.1114247E-30
   3.030000      1.2826834E-30
   3.040000      1.4589066E-30
   3.050000      1.6390535E-30
   3.060000      1.8219688E-30
   3.070000      2.0063892E-30
   3.080000      2.1909488E-30
   3.090000      2.3741873E-30
   3.100000      2.5545559E-30
   3.110000      2.7304257E-30
   3.120000      2.9000935E-30
   3.130000      3.0617896E-30
   3.140000      3.2136812E-30
   3.150000      3.3538772E-30
   3.160000      3.4804296E-30
   3.170000      3.5913384E-30
   3.180000      3.6845470E-30
   3.190000      3.7579460E-30
   3.200000      3.8093721E-30
   3.210000      3.8366044E-30
   3.220000      3.8373691E-30
   3.230000      3.8093378E-30
   3.240000      3.7501313E-30
   3.250000      3.6573308E-30
   3.260000      3.5284823E-30
   3.270000      3.3611134E-30
   3.280000      3.1527524E-30
   3.290000      2.9009495E-30
   3.300000      2.6033049E-30
   3.310000      2.2574995E-30
   3.320000      1.8613319E-30
   3.330000      1.4127592E-30
   3.340000      9.0994049E-31
   3.350000      3.5127613E-31
   3.360000     -2.6454044E-31
   3.370000     -9.3848243E-31
   3.380000     -1.6711409E-30
   3.390000     -2.4626868E-30
   3.400000     -3.3128327E-30
   3.410000     -4.2208004E-30
   3.420000     -5.1852918E-30
   3.430000     -6.2044698E-30
   3.440000     -7.2759391E-30
   3.450000     -8.3967408E-30
   3.460000     -9.5633413E-30
   3.470000     -1.0771637E-29
   3.480000     -1.2016969E-29
   3.490000     -1.3294115E-29
   3.500000     -1.4597311E-29
   3.510000     -1.5920255E-29
   3.520000     -1.7256123E-29
   3.530000     -1.8597575E-29
   3.540000     -1.9936751E-29
   3.550000     -2.1265277E-29
   3.560000     -2.2574269E-29
   3.570000     -2.3854302E-29
   3.580000     -2.5095418E-29
   3.590000     -2.6287087E-29
   3.600000     -2.7418189E-29
   3.610000     -2.8477005E-29
   3.620000     -2.9451191E-29
   3.630000     -3.0327748E-29
   3.640000     -3.1093023E-29
   3.650000     -3.1732699E-29
   3.660000     -3.2231810E-29
   3.670000     -3.2574752E-29
   3.680000     -3.2745335E-29
   3.690000     -3.2726825E-29
   3.700000     -3.2502021E-29
   3.710000     -3.2053354E-29
   3.720000     -3.1362987E-29
   3.730000     -3.0412965E-29
   3.740000     -2.9185329E-29
   3.750000     -2.7662312E-29
   3.760000     -2.5826489E-29
   3.770000     -2.3660937E-29
   3.780000     -2.1149455E-29
   3.790000     -1.8276722E-29
   3.800000     -1.5028463E-29
   3.810000     -1.1391639E-29
   3.820000     -7.3545901E-30
   3.830000     -2.9071785E-30
   3.840000      1.9590533E-30
   3.850000      7.2508088E-30
   3.860000      1.2972917E-29
   3.870000      1.9128238E-29
   3.880000      2.5717608E-29
   3.890000      3.2739738E-29
   3.900000      4.0191179E-29
   3.910000      4.8066255E-29
   3.920000      5.6356989E-29
   3.930000      6.5052996E-29
   3.940000      7.4141406E-29
   3.950000      8.3606755E-29
   3.960000      9.3430828E-29
   3.970000      1.0359251E-28
   3.980000      1.1406758E-28
   3.990000      1.2482852E-28
   4.000000      1.3584430E-28
   4.010000      1.4708010E-28
   4.020000      1.5849704E-28
   4.030000      1.7005199E-28
   4.040000      1.8169727E-28
   4.050000      1.9338043E-28
   4.060000      2.0504401E-28
   4.070000      2.1662540E-28
   4.080000      2.2805668E-28
   4.090000      2.3926454E-28
   4.100000      2.5017021E-28
   4.110000      2.6068966E-28
   4.120000      2.7073344E-28
   4.130000      2.8020701E-28
   4.140000      2.8901090E-28
   4.150000      2.9704106E-28
   4.160000      3.0418913E-28
   4.170000      3.1034283E-28
   4.180000      3.1538644E-28
   4.190000      3.1920108E-28
   4.200000      3.2166526E-28
   4.210000      3.2265535E-28
   4.220000      3.2204596E-28
   4.230000      3.1971041E-28
   4.240000      3.1552123E-28
   4.250000      3.0935026E-28
   4.260000      3.0106934E-28
   4.270000      2.9055044E-28
   4.280000      2.7766604E-28
   4.290000      2.6228953E-28
   4.300000      2.4429552E-28
   4.310000      2.2356019E-28
   4.320000      1.9996155E-28
   4.330000      1.7337999E-28
   4.340000      1.4369889E-28
   4.350000      1.1080526E-28
   4.360000      7.4590286E-29
   4.370000      3.4950447E-29
   4.380000     -8.2117410E-30
   4.390000     -5.4986642E-29
   4.400000     -1.0545614E-28
   4.410000     -1.5969239E-28
   4.420000     -2.1775628E-28
   4.430000     -2.7969566E-28
   4.440000     -3.4554443E-28
   4.450000     -4.1532015E-28
   4.460000     -4.8902279E-28
   4.470000     -5.6663271E-28
   4.480000     -6.4810932E-28
   4.490000     -7.3338936E-28
   4.500000     -8.2238528E-28
   4.510000     -9.1498399E-28
   4.520000     -1.0110458E-27
   4.530000     -1.1104027E-27
   4.540000     -1.2128580E-27
   4.550000     -1.3181850E-27
   4.560000     -1.4261263E-27
   4.570000     -1.5363933E-27
   4.580000     -1.6486654E-27
   4.590000     -1.7625897E-27
   4.600000     -1.8777805E-27
   4.610000     -1.9938184E-27
   4.620000     -2.1102501E-27
   4.630000     -2.2265882E-27
   4.640000     -2.3423102E-27
   4.650000     -2.4568576E-27
   4.660000     -2.5696354E-27
   4.670000     -2.6800113E-27
   4.680000     -2.7873150E-27
   4.690000     -2.8908376E-27
   4.700000     -2.9898298E-27
   4.710000     -3.0835013E-27
   4.720000     -3.1710205E-27
   4.730000     -3.2515140E-27
   4.740000     -3.3240661E-27
   4.750000     -3.3877181E-27
   4.760000     -3.4414693E-27
   4.770000     -3.4842788E-27
   4.780000     -3.5150637E-27
   4.790000     -3.5327044E-27
   4.800000     -3.5360436E-27
   4.810000     -3.5238910E-27
   4.820000     -3.4950259E-27
   4.830000     -3.4482008E-27
   4.840000     -3.3821464E-27
   4.850000     -3.2955754E-27
   4.860000     -3.1871885E-27
   4.870000     -3.0556793E-27
   4.880000     -2.8997404E-27
   4.890000     -2.7180692E-27
   4.900000     -2.5093758E-27
   4.910000     -2.2723861E-27
   4.920000     -2.0058503E-27
   4.930000     -1.7085497E-27
   4.940000     -1.3793019E-27
   4.950000     -1.0169696E-27
   4.960000     -6.2046448E-28
   4.970000     -1.8875772E-28
   4.980000      2.7911682E-28
   4.990000      7.8405234E-28
   5.000000      1.3268632E-27
   5.010000      1.9082765E-27
   5.020000      2.5289240E-27
   5.030000      3.1893342E-27
   5.040000      3.8899178E-27
   5.050000      4.6309613E-27
   5.060000      5.4126143E-27
   5.070000      6.2348785E-27
   5.080000      7.0975965E-27
   5.090000      8.0004309E-27
   5.100000      8.9428623E-27
   5.110000      9.9241622E-27
   5.120000      1.0943383E-26
   5.130000      1.1999346E-26
   5.140000      1.3090620E-26
   5.150000      1.4215506E-26
   5.160000      1.5372027E-26
   5.170000      1.6557915E-26
   5.180000      1.7770577E-26
   5.190000      1.9007110E-26
   5.200000      2.0264270E-26
   5.210000      2.1538459E-26
   5.220000      2.2825727E-26
   5.230000      2.4121750E-26
   5.240000      2.5421828E-26
   5.250000      2.6720882E-26
   5.260000      2.8013434E-26
   5.270000      2.9293610E-26
   5.280000      3.0555147E-26
   5.290000      3.1791375E-26
   5.300000      3.2995226E-26
   5.310000      3.4159218E-26
   5.320000      3.5275472E-26
   5.330000      3.6335698E-26
   5.340000      3.7331212E-26
   5.350000      3.8252925E-26
   5.360000      3.9091349E-26
   5.370000      3.9836607E-26
   5.380000      4.0478434E-26
   5.390000      4.1006179E-26
   5.400000      4.1408831E-26
   5.410000      4.1675013E-26
   5.420000      4.1793003E-26
   5.430000      4.1750765E-26
   5.440000      4.1535946E-26
   5.450000      4.1135901E-26
   5.460000      4.0537744E-26
   5.470000      3.9728366E-26
   5.480000      3.8694475E-26
   5.490000      3.7422637E-26
   5.500000      3.5899319E-26
   5.510000      3.4110953E-26
   5.520000      3.2043983E-26
   5.530000      2.9684919E-26
   5.540000      2.7020415E-26
   5.550000      2.4037345E-26
   5.560000      2.0722848E-26
   5.570000      1.7064433E-26
   5.580000      1.3050054E-26
   5.590000      8.6681746E-27
   5.600000      3.9078752E-27
   5.610000     -1.2410548E-27
   5.620000     -6.7880541E-27
   5.630000     -1.2741653E-26
   5.640000     -1.9109413E-26
   5.650000     -2.5897841E-26
   5.660000     -3.3112261E-26
   5.670000     -4.0756702E-26
   5.680000     -4.8833827E-26
   5.690000     -5.7344795E-26
   5.700000     -6.6289177E-26
   5.710000     -7.5664814E-26
   5.720000     -8.5467773E-26
   5.730000     -9.5692150E-26
   5.740000     -1.0632999E-25
   5.750000     -1.1737119E-25
   5.760000     -1.2880326E-25
   5.770000     -1.4061131E-25
   5.780000     -1.5277794E-25
   5.790000     -1.6528299E-25
   5.800000     -1.7810349E-25
   5.810000     -1.9121356E-25
   5.820000     -2.0458416E-25
   5.830000     -2.1818315E-25
   5.840000     -2.3197498E-25
   5.850000     -2.4592078E-25
   5.860000     -2.5997806E-25
   5.870000     -2.7410074E-25
   5.880000     -2.8823900E-25
   5.890000     -3.0233927E-25
   5.900000     -3.1634412E-25
   5.910000     -3.3019220E-25
   5.920000     -3.4381820E-25
   5.930000     -3.5715290E-25
   5.940000     -3.7012308E-25
   5.950000     -3.8265153E-25
   5.960000     -3.9465720E-25
   5.970000     -4.0605513E-25
   5.980000     -4.1675650E-25
   5.990000     -4.2666883E-25
   6.000000     -4.3569582E-25
   6.010000     -4.4373781E-25
   6.020000     -4.5069157E-25
   6.030000     -4.5645070E-25
   6.040000     -4.6090584E-25
   6.050000     -4.6394453E-25
   6.060000     -4.6545175E-25
   6.070000     -4.6530980E-25
   6.080000     -4.6339913E-25
   6.090000     -4.5959820E-25
   6.100000     -4.5378371E-25
   6.110000     -4.4583110E-25
   6.120000     -4.3561515E-25
   6.130000     -4.2301005E-25
   6.140000     -4.0788995E-25
   6.150000     -3.9012939E-25
   6.160000     -3.6960387E-25
   6.170000     -3.4619033E-25
   6.180000     -3.1976785E-25
   6.190000     -2.9021823E-25
   6.200000     -2.5742642E-25
   6.210000     -2.2128150E-25
   6.220000     -1.8167724E-25
   6.230000     -1.3851278E-25
   6.240000     -9.1693463E-26
   6.250000     -4.1132175E-26
   6.260000      1.3250583E-26
   6.270000      7.1525519E-26
   6.280000      1.3375367E-25
   6.290000      1.9998548E-25
   6.300000      2.7026012E-25
   6.310000      3.4460412E-25
   6.320000      4.2303056E-25
   6.330000      5.0553850E-25
   6.340000      5.9211155E-25
   6.350000      6.8271716E-25
   6.360000      7.7730547E-25
   6.370000      8.7580886E-25
   6.380000      9.7814049E-25
   6.390000      1.0841933E-24
   6.400000      1.1938391E-24
   6.410000      1.3069281E-24
   6.420000      1.4232877E-24
   6.430000      1.5427216E-24
   6.440000      1.6650087E-24
   6.450000      1.7899019E-24
   6.460000      1.9171290E-24
   6.470000      2.0463900E-24
   6.480000      2.1773575E-24
   6.490000      2.3096755E-24
   6.500000      2.4429583E-24
   6.510000      2.5767913E-24
   6.520000      2.7107288E-24
   6.530000      2.8442954E-24
   6.540000      2.9769845E-24
   6.550000      3.1082579E-24
   6.560000      3.2375457E-24
   6.570000      3.3642472E-24
   6.580000      3.4877304E-24
   6.590000      3.6073327E-24
   6.600000      3.7223597E-24
   6.610000      3.8320879E-24
   6.620000      3.9357631E-24
   6.630000      4.0326041E-24
   6.640000      4.1218006E-24
   6.650000      4.2025168E-24
   6.660000      4.2738910E-24
   6.670000      4.3350388E-24
   6.680000      4.3850529E-24
   6.690000      4.4230066E-24
   6.700000      4.4479543E-24
   6.710000      4.4589357E-24
   6.720000      4.4549756E-24
   6.730000      4.4350884E-24
   6.740000      4.3982814E-24
   6.750000      4.3435565E-24
   6.760000      4.2699128E-24
   6.770000      4.1763519E-24
   6.780000      4.0618791E-24
   6.790000      3.9255103E-24
   6.800000      3.7662732E-24
   6.810000      3.5832145E-24
   6.820000      3.3753982E-24
   6.830000      3.1419166E-24
   6.840000      2.8818956E-24
   6.850000      2.5944947E-24
   6.860000      2.2789154E-24
   6.870000      1.9344049E-24
   6.880000      1.5602637E-24
   6.890000      1.1558500E-24
   6.900000      7.2058593E-25
   6.910000      2.5396457E-25
   6.920000     -2.4444157E-25
   6.930000     -7.7497858E-25
   6.940000     -1.3379068E-24
   6.950000     -1.9333878E-24
   6.960000     -2.5614791E-24
   6.970000     -3.2221296E-24
   6.980000     -3.9151707E-24
   6.990000     -4.6403130E-24
   7.000000     -5.3971347E-24
   7.010000     -6.1850805E-24
   7.020000     -7.0034543E-24
   7.030000     -7.8514024E-24
   7.040000     -8.7279216E-24
   7.050000     -9.6318481E-24
   7.060000     -1.0561850E-23