  -2.600000      0.0000000E+00
  -2.590000      0.0000000E+00
  -2.580000      0.0000000E+00
  -2.570000      0.0000000E+00
  -2.560000      0.0000000E+00
  -2.550000      0.0000000E+00
  -2.540000      0.0000000E+00
  -2.530000      0.0000000E+00
  -2.520000      0.0000000E+00
  -2.510000      0.0000000E+00
  -2.500000      0.0000000E+00
  -2.490000      0.0000000E+00
  -2.480000      0.0000000E+00
  -2.470000      0.0000000E+00
  -2.460000      0.0000000E+00
  -2.450000      0.0000000E+00
  -2.440000      0.0000000E+00
  -2.430000      0.0000000E+00
  -2.420000      0.0000000E+00
  -2.410000      0.0000000E+00
  -2.400000      0.0000000E+00
  -2.390000      0.0000000E+00
  -2.380000      0.0000000E+00
  -2.370000      0.0000000E+00
  -2.360000      0.0000000E+00
  -2.350000      0.0000000E+00
  -2.340000      0.0000000E+00
  -2.330000      0.0000000E+00
  -2.320000      0.0000000E+00
  -2.310000      0.0000000E+00
  -2.300000      0.0000000E+00
  -2.290000      0.0000000E+00
  -2.280000      0.0000000E+00
  -2.270000      0.0000000E+00
  -2.260000      0.0000000E+00
  -2.250000      0.0000000E+00
  -2.240000      0.0000000E+00
  -2.230000      0.0000000E+00
  -2.220000      0.0000000E+00
  -2.210000      0.0000000E+00
  -2.200000      0.0000000E+00
  -2.190000      0.0000000E+00
  -2.180000      0.0000000E+00
  -2.170000      0.0000000E+00
  -2.160000      0.0000000E+00
  -2.150000      0.0000000E+00
  -2.140000      0.0000000E+00
  -2.130000      0.0000000E+00
  -2.120000      0.0000000E+00
  -2.110000      0.0000000E+00
  -2.100000      0.0000000E+00
  -2.090000      0.0000000E+00
  -2.080000      0.0000000E+00
  -2.070000      0.0000000E+00
  -2.060000      0.0000000E+00
  -2.050000      0.0000000E+00
  -2.040000      0.0000000E+00
  -2.030000      0.0000000E+00
  -2.020000      0.0000000E+00
  -2.010000      0.0000000E+00
  -2.000000      0.0000000E+00
  -1.990000      0.0000000E+00
  -1.980000      0.0000000E+00
  -1.970000      0.0000000E+00
  -1.960000      0.0000000E+00
  -1.950000      0.0000000E+00
  -1.940000      0.0000000E+00
  -1.930000      0.0000000E+00
  -1.920000      0.0000000E+00
  -1.910000      0.0000000E+00
  -1.900000      0.0000000E+00
  -1.890000      0.0000000E+00
  -1.880000      0.0000000E+00
  -1.870000      0.0000000E+00
  -1.860000      0.0000000E+00
  -1.850000      0.0000000E+00
  -1.840000      0.0000000E+00
  -1.830000      0.0000000E+00
  -1.820000      0.0000000E+00
  -1.810000      0.0000000E+00
  -1.800000      0.0000000E+00
  -1.790000      0.0000000E+00
  -1.780000      0.0000000E+00
  -1.770000      0.0000000E+00
  -1.760000      0.0000000E+00
  -1.750000      0.0000000E+00
  -1.740000      0.0000000E+00
  -1.730000      0.0000000E+00
  -1.720000      0.0000000E+00
  -1.710000      0.0000000E+00
  -1.700000      0.0000000E+00
  -1.690000      0.0000000E+00
  -1.680000      0.0000000E+00
  -1.670000      0.0000000E+00
  -1.660000      0.0000000E+00
  -1.650000      0.0000000E+00
  -1.640000      0.0000000E+00
  -1.630000      0.0000000E+00
  -1.620000      0.0000000E+00
  -1.610000      0.0000000E+00
  -1.600000      0.0000000E+00
  -1.590000      0.0000000E+00
  -1.580000      0.0000000E+00
  -1.570000      0.0000000E+00
  -1.560000      0.0000000E+00
  -1.550000      0.0000000E+00
  -1.540000      0.0000000E+00
  -1.530000      0.0000000E+00
  -1.520000      0.0000000E+00
  -1.510000      0.0000000E+00
  -1.500000      0.0000000E+00
  -1.490000      0.0000000E+00
  -1.480000      0.0000000E+00
  -1.470000      0.0000000E+00
  -1.460000      0.0000000E+00
  -1.450000      0.0000000E+00
  -1.440000      0.0000000E+00
  -1.430000      0.0000000E+00
  -1.420000      0.0000000E+00
  -1.410000      0.0000000E+00
  -1.400000      0.0000000E+00
  -1.390000      0.0000000E+00
  -1.380000      0.0000000E+00
  -1.370000      0.0000000E+00
  -1.360000      0.0000000E+00
  -1.350000      0.0000000E+00
  -1.340000      0.0000000E+00
  -1.330000      0.0000000E+00
  -1.320000      0.0000000E+00
  -1.310000      0.0000000E+00
  -1.300000      0.0000000E+00
  -1.290000      0.0000000E+00
  -1.280000      0.0000000E+00
  -1.270000      0.0000000E+00
  -1.260000      0.0000000E+00
  -1.250000      0.0000000E+00
  -1.240000      0.0000000E+00
  -1.230000      0.0000000E+00
  -1.220000      0.0000000E+00
  -1.210000      0.0000000E+00
  -1.200000      0.0000000E+00
  -1.190000      0.0000000E+00
  -1.180000      0.0000000E+00
  -1.170000      0.0000000E+00
  -1.160000      0.0000000E+00
  -1.150000      0.0000000E+00
  -1.140000      0.0000000E+00
  -1.130000      0.0000000E+00
  -1.120000      0.0000000E+00
  -1.110000      0.0000000E+00
  -1.100000      0.0000000E+00
  -1.090000      0.0000000E+00
  -1.080000      0.0000000E+00
  -1.070000      0.0000000E+00
  -1.060000      0.0000000E+00
  -1.050000      0.0000000E+00
  -1.040000      0.0000000E+00
  -1.030000      0.0000000E+00
  -1.020000      0.0000000E+00
  -1.010000      0.0000000E+00
  -1.000000      0.0000000E+00
 -0.9900000      0.0000000E+00
 -0.9800000      0.0000000E+00
 -0.9700000      0.0000000E+00
 -0.9600000      0.0000000E+00
 -0.9500000      0.0000000E+00
 -0.9400000      0.0000000E+00
 -0.9300000      0.0000000E+00
 -0.9200000      0.0000000E+00
 -0.9100000      0.0000000E+00
 -0.9000000      0.0000000E+00
 -0.8900000      0.0000000E+00
 -0.8800000      0.0000000E+00
 -0.8700000      0.0000000E+00
 -0.8600000      0.0000000E+00
 -0.8500000      0.0000000E+00
 -0.8400000      0.0000000E+00
 -0.8300000      0.0000000E+00
 -0.8200000      0.0000000E+00
 -0.8100000      0.0000000E+00
 -0.8000000      0.0000000E+00
 -0.7900000      0.0000000E+00
 -0.7800000      0.0000000E+00
 -0.7700000      0.0000000E+00
 -0.7600000      0.0000000E+00
 -0.7500000      0.0000000E+00
 -0.7400000      0.0000000E+00
 -0.7300000      0.0000000E+00
 -0.7200000      0.0000000E+00
 -0.7100000      0.0000000E+00
 -0.7000000      0.0000000E+00
 -0.6900000      0.0000000E+00
 -0.6800000      0.0000000E+00
 -0.6700000      0.0000000E+00
 -0.6600000      0.0000000E+00
 -0.6500000      0.0000000E+00
 -0.6400000      0.0000000E+00
 -0.6300000      0.0000000E+00
 -0.6200000      0.0000000E+00
 -0.6100000      0.0000000E+00
 -0.6000000      0.0000000E+00
 -0.5900000      0.0000000E+00
 -0.5800000      0.0000000E+00
 -0.5700000      0.0000000E+00
 -0.5600000      0.0000000E+00
 -0.5500000      0.0000000E+00
 -0.5400000      0.0000000E+00
 -0.5300000      0.0000000E+00
 -0.5200000      0.0000000E+00
 -0.5100000      0.0000000E+00
 -0.5000000      0.0000000E+00
 -0.4900000      0.0000000E+00
 -0.4800000      0.0000000E+00
 -0.4700000      0.0000000E+00
 -0.4600000      0.0000000E+00
 -0.4500000      0.0000000E+00
 -0.4400000      0.0000000E+00
 -0.4300000      0.0000000E+00
 -0.4200000      0.0000000E+00
 -0.4100000      0.0000000E+00
 -0.4000000      0.0000000E+00
 -0.3900000      0.0000000E+00
 -0.3800000      0.0000000E+00
 -0.3700000      0.0000000E+00
 -0.3600000      0.0000000E+00
 -0.3500000      0.0000000E+00
 -0.3400000      0.0000000E+00
 -0.3300000      0.0000000E+00
 -0.3200000      0.0000000E+00
 -0.3100000      0.0000000E+00
 -0.3000000      0.0000000E+00
 -0.2900000      0.0000000E+00
 -0.2800000      0.0000000E+00
 -0.2700000      0.0000000E+00
 -0.2600000      0.0000000E+00
 -0.2500000      0.0000000E+00
 -0.2400000      0.0000000E+00
 -0.2300000      0.0000000E+00
 -0.2200000      0.0000000E+00
 -0.2100000      0.0000000E+00
 -0.2000000      0.0000000E+00
 -0.1900000      0.0000000E+00
 -0.1800000      0.0000000E+00
 -0.1700000      0.0000000E+00
 -0.1600000      0.0000000E+00
 -0.1500000      0.0000000E+00
 -0.1400000      0.0000000E+00
 -0.1300000      0.0000000E+00
 -0.1200000      0.0000000E+00
 -0.1100000      0.0000000E+00
 -0.1000000      0.0000000E+00
 -9.0000004E-02  0.0000000E+00
 -7.9999998E-02  0.0000000E+00
 -7.0000000E-02  0.0000000E+00
 -5.9999999E-02  0.0000000E+00
 -5.0000001E-02  0.0000000E+00
 -3.9999999E-02  0.0000000E+00
 -2.9999999E-02  0.0000000E+00
 -2.0000000E-02  0.0000000E+00
 -9.9999998E-03  0.0000000E+00
 -3.4694470E-17  0.0000000E+00
  9.9999998E-03  0.0000000E+00
  2.0000000E-02  0.0000000E+00
  2.9999999E-02  0.0000000E+00
  3.9999999E-02  0.0000000E+00
  5.0000001E-02  0.0000000E+00
  5.9999999E-02  0.0000000E+00
  7.0000000E-02  0.0000000E+00
  7.9999998E-02  0.0000000E+00
  9.0000004E-02  0.0000000E+00
  0.1000000      0.0000000E+00
  0.1100000      0.0000000E+00
  0.1200000      0.0000000E+00
  0.1300000      0.0000000E+00
  0.1400000      0.0000000E+00
  0.1500000      0.0000000E+00
  0.1600000      0.0000000E+00
  0.1700000      0.0000000E+00
  0.1800000      0.0000000E+00
  0.1900000      0.0000000E+00
  0.2000000      0.0000000E+00
  0.2100000      0.0000000E+00
  0.2200000      0.0000000E+00
  0.2300000      0.0000000E+00
  0.2400000      0.0000000E+00
  0.2500000      0.0000000E+00
  0.2600000      0.0000000E+00
  0.2700000      0.0000000E+00
  0.2800000      0.0000000E+00
  0.2900000      0.0000000E+00
  0.3000000      0.0000000E+00
  0.3100000      0.0000000E+00
  0.3200000      0.0000000E+00
  0.3300000      0.0000000E+00
  0.3400000      0.0000000E+00
  0.3500000      0.0000000E+00
  0.3600000      0.0000000E+00
  0.3700000      0.0000000E+00
  0.3800000      0.0000000E+00
  0.3900000      0.0000000E+00
  0.4000000      0.0000000E+00
  0.4100000      0.0000000E+00
  0.4200000      0.0000000E+00
  0.4300000      0.0000000E+00
  0.4400000      0.0000000E+00
  0.4500000      0.0000000E+00
  0.4600000      0.0000000E+00
  0.4700000      0.0000000E+00
  0.4800000      0.0000000E+00
  0.4900000      0.0000000E+00
  0.5000000      0.0000000E+00
  0.5100000      0.0000000E+00
  0.5200000      0.0000000E+00
  0.5300000      0.0000000E+00
  0.5400000      0.0000000E+00
  0.5500000      0.0000000E+00
  0.5600000      0.0000000E+00
  0.5700000      0.0000000E+00
  0.5800000      0.0000000E+00
  0.5900000      0.0000000E+00
  0.6000000      0.0000000E+00
  0.6100000      0.0000000E+00
  0.6200000      0.0000000E+00
  0.6300000      0.0000000E+00
  0.6400000      0.0000000E+00
  0.6500000      0.0000000E+00
  0.6600000      0.0000000E+00
  0.6700000      0.0000000E+00
  0.6800000      0.0000000E+00
  0.6900000      0.0000000E+00
  0.7000000      0.0000000E+00
  0.7100000      0.0000000E+00
  0.7200000      0.0000000E+00
  0.7300000      0.0000000E+00
  0.7400000      0.0000000E+00
  0.7500000      0.0000000E+00
  0.7600000      0.0000000E+00
  0.7700000      0.0000000E+00
  0.7800000      0.0000000E+00
  0.7900000      0.0000000E+00
  0.8000000      0.0000000E+00
  0.8100000      0.0000000E+00
  0.8200000      0.0000000E+00
  0.8300000      0.0000000E+00
  0.8400000      0.0000000E+00
  0.8500000      0.0000000E+00
  0.8600000      0.0000000E+00
  0.8700000      0.0000000E+00
  0.8800000      0.0000000E+00
  0.8900000      0.0000000E+00
  0.9000000      0.0000000E+00
  0.9100000      0.0000000E+00
  0.9200000      0.0000000E+00
  0.9300000      0.0000000E+00
  0.9400000      0.0000000E+00
  0.9500000      0.0000000E+00
  0.9600000      0.0000000E+00
  0.9700000      0.0000000E+00
  0.9800000      0.0000000E+00
  0.9900000      0.0000000E+00
   1.000000      0.0000000E+00
   1.010000      0.0000000E+00
   1.020000      0.0000000E+00
   1.030000      0.0000000E+00
   1.040000      0.0000000E+00
   1.050000      0.0000000E+00
   1.060000      0.0000000E+00
   1.070000      0.0000000E+00
   1.080000      0.0000000E+00
   1.090000      0.0000000E+00
   1.100000      0.0000000E+00
   1.110000      0.0000000E+00
   1.120000      0.0000000E+00
   1.130000      0.0000000E+00
   1.140000      0.0000000E+00
   1.150000      0.0000000E+00
   1.160000      0.0000000E+00
   1.170000      0.0000000E+00
   1.180000      0.0000000E+00
   1.190000      0.0000000E+00
   1.200000      0.0000000E+00
   1.210000      0.0000000E+00
   1.220000      0.0000000E+00
   1.230000      0.0000000E+00
   1.240000      0.0000000E+00
   1.250000      0.0000000E+00
   1.260000      0.0000000E+00
   1.270000      0.0000000E+00
   1.280000      0.0000000E+00
   1.290000      0.0000000E+00
   1.300000      0.0000000E+00
   1.310000      0.0000000E+00
   1.320000      0.0000000E+00
   1.330000      0.0000000E+00
   1.340000      0.0000000E+00
   1.350000      0.0000000E+00
   1.360000      0.0000000E+00
   1.370000      0.0000000E+00
   1.380000      0.0000000E+00
   1.390000      0.0000000E+00
   1.400000      0.0000000E+00
   1.410000      0.0000000E+00
   1.420000      0.0000000E+00
   1.430000      0.0000000E+00
   1.440000      0.0000000E+00
   1.450000      0.0000000E+00
   1.460000      0.0000000E+00
   1.470000      0.0000000E+00
   1.480000      0.0000000E+00
   1.490000      0.0000000E+00
   1.500000      0.0000000E+00
   1.510000      0.0000000E+00
   1.520000      0.0000000E+00
   1.530000      0.0000000E+00
   1.540000      0.0000000E+00
   1.550000      0.0000000E+00
   1.560000      0.0000000E+00
   1.570000      0.0000000E+00
   1.580000      0.0000000E+00
   1.590000      0.0000000E+00
   1.600000      0.0000000E+00
   1.610000      0.0000000E+00
   1.620000      0.0000000E+00
   1.630000      0.0000000E+00
   1.640000      0.0000000E+00
   1.650000      0.0000000E+00
   1.660000      0.0000000E+00
   1.670000      0.0000000E+00
   1.680000      0.0000000E+00
   1.690000      0.0000000E+00
   1.700000      0.0000000E+00
   1.710000      0.0000000E+00
   1.720000      0.0000000E+00
   1.730000      0.0000000E+00
   1.740000      0.0000000E+00
   1.750000      0.0000000E+00
   1.760000      0.0000000E+00
   1.770000      0.0000000E+00
   1.780000      0.0000000E+00
   1.790000      0.0000000E+00
   1.800000      0.0000000E+00
   1.810000      0.0000000E+00
   1.820000      0.0000000E+00
   1.830000      0.0000000E+00
   1.840000      0.0000000E+00
   1.850000      0.0000000E+00
   1.860000      0.0000000E+00
   1.870000      0.0000000E+00
   1.880000      0.0000000E+00
   1.890000      0.0000000E+00
   1.900000      0.0000000E+00
   1.910000      0.0000000E+00
   1.920000      0.0000000E+00
   1.930000      0.0000000E+00
   1.940000      0.0000000E+00
   1.950000      0.0000000E+00
   1.960000      0.0000000E+00
   1.970000      0.0000000E+00
   1.980000      0.0000000E+00
   1.990000      0.0000000E+00
   2.000000      0.0000000E+00
   2.010000      0.0000000E+00
   2.020000      0.0000000E+00
   2.030000      0.0000000E+00
   2.040000      0.0000000E+00
   2.050000      0.0000000E+00
   2.060000      0.0000000E+00
   2.070000      0.0000000E+00
   2.080000      0.0000000E+00
   2.090000      0.0000000E+00
   2.100000      0.0000000E+00
   2.110000      0.0000000E+00
   2.120000      0.0000000E+00
   2.130000      0.0000000E+00
   2.140000      0.0000000E+00
   2.150000      0.0000000E+00
   2.160000      0.0000000E+00
   2.170000      0.0000000E+00
   2.180000      0.0000000E+00
   2.190000      0.0000000E+00
   2.200000      0.0000000E+00
   2.210000      0.0000000E+00
   2.220000      0.0000000E+00
   2.230000      0.0000000E+00
   2.240000      0.0000000E+00
   2.250000      0.0000000E+00
   2.260000      0.0000000E+00
   2.270000      0.0000000E+00
   2.280000      0.0000000E+00
   2.290000      0.0000000E+00
   2.300000      0.0000000E+00
   2.310000      0.0000000E+00
   2.320000      0.0000000E+00
   2.330000      0.0000000E+00
   2.340000      0.0000000E+00
   2.350000      0.0000000E+00
   2.360000      0.0000000E+00
   2.370000      0.0000000E+00
   2.380000      0.0000000E+00
   2.390000      0.0000000E+00
   2.400000      0.0000000E+00
   2.410000      0.0000000E+00
   2.420000      0.0000000E+00
   2.430000      0.0000000E+00
   2.440000      0.0000000E+00
   2.450000      0.0000000E+00
   2.460000      0.0000000E+00
   2.470000      0.0000000E+00
   2.480000      0.0000000E+00
   2.490000      0.0000000E+00
   2.500000      0.0000000E+00
   2.510000      0.0000000E+00
   2.520000      0.0000000E+00
   2.530000      0.0000000E+00
   2.540000      0.0000000E+00
   2.550000      0.0000000E+00
   2.560000      0.0000000E+00
   2.570000      0.0000000E+00
   2.580000      0.0000000E+00
   2.590000      0.0000000E+00
   2.600000      0.0000000E+00
   2.610000      0.0000000E+00
   2.620000      0.0000000E+00
   2.630000      0.0000000E+00
   2.640000      0.0000000E+00
   2.650000      0.0000000E+00
   2.660000      0.0000000E+00
   2.670000      0.0000000E+00
   2.680000      0.0000000E+00
   2.690000      0.0000000E+00
   2.700000      0.0000000E+00
   2.710000      0.0000000E+00
   2.720000      0.0000000E+00
   2.730000      0.0000000E+00
   2.740000      0.0000000E+00
   2.750000      0.0000000E+00
   2.760000      0.0000000E+00
   2.770000      0.0000000E+00
   2.780000      0.0000000E+00
   2.790000      0.0000000E+00
   2.800000      0.0000000E+00
   2.810000      0.0000000E+00
   2.820000      0.0000000E+00
   2.830000      0.0000000E+00
   2.840000      0.0000000E+00
   2.850000      0.0000000E+00
   2.860000      0.0000000E+00
   2.870000      0.0000000E+00
   2.880000      0.0000000E+00
   2.890000      0.0000000E+00
   2.900000      0.0000000E+00
   2.910000      0.0000000E+00
   2.920000      0.0000000E+00
   2.930000      0.0000000E+00
   2.940000      0.0000000E+00
   2.950000      0.0000000E+00
   2.960000      0.0000000E+00
   2.970000      0.0000000E+00
   2.980000      0.0000000E+00
   2.990000      0.0000000E+00
   3.000000      0.0000000E+00
   3.010000      0.0000000E+00
   3.020000      0.0000000E+00
   3.030000      0.0000000E+00
   3.040000      0.0000000E+00
   3.050000      0.0000000E+00
   3.060000      0.0000000E+00
   3.070000      0.0000000E+00
   3.080000      0.0000000E+00
   3.090000      0.0000000E+00
   3.100000      0.0000000E+00
   3.110000      0.0000000E+00
   3.120000      0.0000000E+00
   3.130000      0.0000000E+00
   3.140000      0.0000000E+00
   3.150000      0.0000000E+00
   3.160000      0.0000000E+00
   3.170000      0.0000000E+00
   3.180000      0.0000000E+00
   3.190000      0.0000000E+00
   3.200000      0.0000000E+00
   3.210000      0.0000000E+00
   3.220000      0.0000000E+00
   3.230000      0.0000000E+00
   3.240000      0.0000000E+00
   3.250000      0.0000000E+00
   3.260000      0.0000000E+00
   3.270000      0.0000000E+00
   3.280000      0.0000000E+00
   3.290000      0.0000000E+00
   3.300000      0.0000000E+00
   3.310000      0.0000000E+00
   3.320000      0.0000000E+00
   3.330000      0.0000000E+00
   3.340000      0.0000000E+00
   3.350000      0.0000000E+00
   3.360000      0.0000000E+00
   3.370000      0.0000000E+00
   3.380000      0.0000000E+00
   3.390000      0.0000000E+00
   3.400000      0.0000000E+00
   3.410000      0.0000000E+00
   3.420000      0.0000000E+00
   3.430000      0.0000000E+00
   3.440000      0.0000000E+00
   3.450000      0.0000000E+00
   3.460000      0.0000000E+00
   3.470000      0.0000000E+00
   3.480000      0.0000000E+00
   3.490000      0.0000000E+00
   3.500000      0.0000000E+00
   3.510000      0.0000000E+00
   3.520000      0.0000000E+00
   3.530000      0.0000000E+00
   3.540000      0.0000000E+00
   3.550000      0.0000000E+00
   3.560000      0.0000000E+00
   3.570000      0.0000000E+00
   3.580000      0.0000000E+00
   3.590000      0.0000000E+00
   3.600000      0.0000000E+00
   3.610000      0.0000000E+00
   3.620000      0.0000000E+00
   3.630000      0.0000000E+00
   3.640000      0.0000000E+00
   3.650000      0.0000000E+00
   3.660000      0.0000000E+00
   3.670000      0.0000000E+00
   3.680000      0.0000000E+00
   3.690000      0.0000000E+00
   3.700000      0.0000000E+00
   3.710000      0.0000000E+00
   3.720000      0.0000000E+00
   3.730000      0.0000000E+00
   3.740000      0.0000000E+00
   3.750000      0.0000000E+00
   3.760000      0.0000000E+00
   3.770000      0.0000000E+00
   3.780000      0.0000000E+00
   3.790000      0.0000000E+00
   3.800000      0.0000000E+00
   3.810000      0.0000000E+00
   3.820000      0.0000000E+00
   3.830000      0.0000000E+00
   3.840000      0.0000000E+00
   3.850000      0.0000000E+00
   3.860000      0.0000000E+00
   3.870000      0.0000000E+00
   3.880000      0.0000000E+00
   3.890000      0.0000000E+00
   3.900000      0.0000000E+00
   3.910000      0.0000000E+00
   3.920000      0.0000000E+00
   3.930000      0.0000000E+00
   3.940000      0.0000000E+00
   3.950000      0.0000000E+00
   3.960000      0.0000000E+00
   3.970000      0.0000000E+00
   3.980000      0.0000000E+00
   3.990000      1.7156847E-38
   4.000000      2.3150230E-38
   4.010000      2.9332464E-38
   4.020000      3.5155798E-38
   4.030000      4.0000107E-38
   4.040000      4.4372713E-38
   4.050000      4.8855677E-38
   4.060000      5.3422794E-38
   4.070000      5.2678228E-38
   4.080000      4.6238626E-38
   4.090000      3.9284506E-38
   4.100000      3.2191553E-38
   4.110000      2.5340347E-38
   4.120000      2.4211680E-38
   4.130000      2.7892683E-38
   4.140000      3.2392401E-38
   4.150000      3.7651637E-38
   4.160000      4.1792244E-38
   4.170000      4.5093608E-38
   4.180000      4.7331681E-38
   4.190000      4.6630566E-38
   4.200000      4.3097310E-38
   4.210000      3.8543538E-38
   4.220000      3.1020003E-38
   4.230000      2.0757742E-38
   4.240000      0.0000000E+00
   4.250000     -2.6139180E-38
   4.260000     -5.5093809E-38
   4.270000     -8.0476935E-38
   4.280000     -1.0239876E-37
   4.290000     -1.2506485E-37
   4.300000     -1.4779376E-37
   4.310000     -1.7062513E-37
   4.320000     -1.9467244E-37
   4.330000     -2.2031136E-37
   4.340000     -2.4626794E-37
   4.350000     -2.6280824E-37
   4.360000     -2.7180211E-37
   4.370000     -2.7869459E-37
   4.380000     -2.8158007E-37
   4.390000     -2.8363920E-37
   4.400000     -2.9417654E-37
   4.410000     -3.1344762E-37
   4.420000     -3.3448564E-37
   4.430000     -3.5759626E-37
   4.440000     -3.8147649E-37
   4.450000     -4.0724993E-37
   4.460000     -4.3238887E-37
   4.470000     -4.6044995E-37
   4.480000     -4.9139851E-37
   4.490000     -5.2034553E-37
   4.500000     -5.3807798E-37
   4.510000     -5.4329803E-37
   4.520000     -5.4032643E-37
   4.530000     -5.2905407E-37
   4.540000     -5.1493889E-37
   4.550000     -4.9824053E-37
   4.560000     -4.7976756E-37
   4.570000     -4.5331830E-37
   4.580000     -4.1725664E-37
   4.590000     -3.7617012E-37
   4.600000     -3.6003833E-37
   4.610000     -3.7089005E-37
   4.620000     -3.7714466E-37
   4.630000     -3.7602100E-37
   4.640000     -3.5750615E-37
   4.650000     -2.9645606E-37
   4.660000     -2.0804677E-37
   4.670000     -1.1994339E-37
   4.680000     -2.7039654E-38
   4.690000      8.1618164E-38
   4.700000      2.0549650E-37
   4.710000      3.3657546E-37
   4.720000      4.7387636E-37
   4.730000      6.1660357E-37
   4.740000      7.4690549E-37
   4.750000      8.4697340E-37
   4.760000      9.3290945E-37
   4.770000      1.0239782E-36
   4.780000      1.1254283E-36
   4.790000      1.2642300E-36
   4.800000      1.4164721E-36
   4.810000      1.5277529E-36
   4.820000      1.6148779E-36
   4.830000      1.7136864E-36
   4.840000      1.8173154E-36
   4.850000      1.9131084E-36
   4.860000      2.0116140E-36
   4.870000      2.1166633E-36
   4.880000      2.2523461E-36
   4.890000      2.4199109E-36
   4.900000      2.5951911E-36
   4.910000      2.8159506E-36
   4.920000      3.0823451E-36
   4.930000      3.3534363E-36
   4.940000      3.6277830E-36
   4.950000      3.9232612E-36
   4.960000      4.0083184E-36
   4.970000      3.7849211E-36
   4.980000      3.4732655E-36
   4.990000      3.0238430E-36
   5.000000      2.4731231E-36
   5.010000      1.7643023E-36
   5.020000      8.9891893E-37
   5.030000     -1.5903879E-37
   5.040000     -1.5225954E-36
   5.050000     -3.0248772E-36
   5.060000     -4.5608427E-36
   5.070000     -6.1310023E-36
   5.080000     -7.2815698E-36
   5.090000     -7.9965206E-36
   5.100000     -8.8318871E-36
   5.110000     -9.6168489E-36
   5.120000     -1.0271635E-35
   5.130000     -1.0861433E-35
   5.140000     -1.1422110E-35
   5.150000     -1.2006892E-35
   5.160000     -1.2497119E-35
   5.170000     -1.2875867E-35
   5.180000     -1.3208470E-35
   5.190000     -1.3603572E-35
   5.200000     -1.4161239E-35
   5.210000     -1.4872664E-35
   5.220000     -1.5257950E-35
   5.230000     -1.5471281E-35
   5.240000     -1.6122912E-35
   5.250000     -1.7163657E-35
   5.260000     -1.8113346E-35
   5.270000     -1.8633889E-35
   5.280000     -1.8925773E-35
   5.290000     -1.9324471E-35
   5.300000     -1.9967314E-35
   5.310000     -2.1017614E-35
   5.320000     -2.2557029E-35
   5.330000     -2.4428678E-35
   5.340000     -2.6128352E-35
   5.350000     -2.7276925E-35
   5.360000     -2.8178144E-35
   5.370000     -2.9229430E-35
   5.380000     -3.0332375E-35
   5.390000     -3.1165544E-35
   5.400000     -3.1685071E-35
   5.410000     -3.2056922E-35
   5.420000     -3.2389338E-35
   5.430000     -3.2358825E-35
   5.440000     -3.1614757E-35
   5.450000     -3.0226273E-35
   5.460000     -2.8133124E-35
   5.470000     -2.4831457E-35
   5.480000     -2.0630892E-35
   5.490000     -1.5813979E-35
   5.500000     -1.0140934E-35
   5.510000     -3.7830004E-36
   5.520000      2.4996722E-36
   5.530000      8.3645147E-36
   5.540000      1.3987638E-35
   5.550000      2.1003718E-35
   5.560000      3.2273114E-35
   5.570000      4.6334647E-35
   5.580000      6.1744086E-35
   5.590000      7.8548220E-35
   5.600000      9.5429874E-35
   5.610000      1.1403256E-34
   5.620000      1.3453843E-34
   5.630000      1.5496676E-34
   5.640000      1.7565551E-34
   5.650000      1.9318802E-34
   5.660000      2.0738379E-34
   5.670000      2.1773703E-34
   5.680000      2.2276105E-34
   5.690000      2.2519124E-34
   5.700000      2.2479373E-34
   5.710000      2.2104868E-34
   5.720000      2.1410101E-34
   5.730000      2.0539080E-34
   5.740000      1.9414701E-34
   5.750000      1.8138133E-34
   5.760000      1.6593601E-34
   5.770000      1.4906331E-34
   5.780000      1.3266610E-34
   5.790000      1.1559939E-34
   5.800000      1.0053706E-34
   5.810000      8.8343337E-35
   5.820000      7.8592313E-35
   5.830000      7.2738506E-35
   5.840000      7.6376483E-35
   5.850000      8.6455870E-35
   5.860000      1.0112118E-34
   5.870000      1.2240867E-34
   5.880000      1.4458421E-34
   5.890000      1.6638071E-34
   5.900000      1.8479267E-34
   5.910000      1.9479888E-34
   5.920000      1.9685432E-34
   5.930000      1.9248822E-34
   5.940000      1.8301064E-34
   5.950000      1.6912109E-34
   5.960000      1.5016518E-34
   5.970000      1.2493170E-34
   5.980000      9.4375322E-35
   5.990000      5.8508274E-35
   6.000000      1.6374628E-35
   6.010000     -2.9708264E-35
   6.020000     -7.7861830E-35
   6.030000     -1.2828142E-34
   6.040000     -1.8063924E-34
   6.050000     -2.3476854E-34
   6.060000     -2.9114426E-34
   6.070000     -3.4691458E-34
   6.080000     -3.9668145E-34
   6.090000     -4.4297357E-34
   6.100000     -4.9108343E-34
   6.110000     -5.4151383E-34
   6.120000     -5.9468489E-34
   6.130000     -6.4624051E-34
   6.140000     -6.9439018E-34
   6.150000     -7.4200661E-34
   6.160000     -7.8909990E-34
   6.170000     -8.3452697E-34
   6.180000     -8.7965245E-34
   6.190000     -9.2726209E-34
   6.200000     -9.7645441E-34
   6.210000     -1.0254400E-33
   6.220000     -1.0744148E-33
   6.230000     -1.1228036E-33
   6.240000     -1.1716081E-33
   6.250000     -1.2227657E-33
   6.260000     -1.2750755E-33
   6.270000     -1.3257948E-33
   6.280000     -1.3745402E-33
   6.290000     -1.4244855E-33
   6.300000     -1.4740384E-33
   6.310000     -1.5211213E-33
   6.320000     -1.5660964E-33
   6.330000     -1.6079157E-33
   6.340000     -1.6454741E-33
   6.350000     -1.6785211E-33
   6.360000     -1.7049166E-33
   6.370000     -1.7227751E-33
   6.380000     -1.7299901E-33
   6.390000     -1.7274251E-33
   6.400000     -1.7161545E-33
   6.410000     -1.6949043E-33
   6.420000     -1.6658496E-33
   6.430000     -1.6298418E-33
   6.440000     -1.5851888E-33
   6.450000     -1.5321543E-33
   6.460000     -1.4713549E-33
   6.470000     -1.4038867E-33
   6.480000     -1.3296911E-33
   6.490000     -1.2472217E-33
   6.500000     -1.1570544E-33
   6.510000     -1.0590716E-33
   6.520000     -9.5302341E-34
   6.530000     -8.3810121E-34
   6.540000     -7.1380926E-34
   6.550000     -5.7844103E-34
   6.560000     -4.3056108E-34
   6.570000     -2.6998504E-34
   6.580000     -9.5519753E-35
   6.590000      9.4233499E-35
   6.600000      3.0053694E-34
   6.610000      5.2435423E-34
   6.620000      7.6637139E-34
   6.630000      1.0272886E-33
   6.640000      1.3078496E-33
   6.650000      1.6094964E-33
   6.660000      1.9319441E-33
   6.670000      2.2756002E-33
   6.680000      2.6417808E-33
   6.690000      3.0288871E-33
   6.700000      3.4358010E-33
   6.710000      3.8623644E-33
   6.720000      4.3076615E-33
   6.730000      4.7705231E-33
   6.740000      5.2493831E-33
   6.750000      5.7425323E-33
   6.760000      6.2483343E-33
   6.770000      6.7648025E-33
   6.780000      7.2889907E-33
   6.790000      7.8207160E-33
   6.800000      8.3583629E-33
   6.810000      8.8995752E-33
   6.820000      9.4434801E-33
   6.830000      9.9873784E-33
   6.840000      1.0529344E-32
   6.850000      1.1068029E-32
   6.860000      1.1601850E-32
   6.870000      1.2128859E-32
   6.880000      1.2647341E-32
   6.890000      1.3155674E-32
   6.900000      1.3651745E-32
   6.910000      1.4133295E-32
   6.920000      1.4598043E-32
   6.930000      1.5043126E-32
   6.940000      1.5465856E-32
   6.950000      1.5862929E-32
   6.960000      1.6230371E-32
   6.970000      1.6564626E-32
   6.980000      1.6861597E-32
   6.990000      1.7116929E-32
   7.000000      1.7325971E-32
   7.010000      1.7484234E-32
   7.020000      1.7587019E-32
   7.030000      1.7628808E-32
   7.040000      1.7604543E-32
   7.050000      1.7509009E-32
   7.060000      1.7336288E-32