  -2.600000      0.0000000E+00
  -2.590000      0.0000000E+00
  -2.580000      0.0000000E+00
  -2.570000      0.0000000E+00
  -2.560000      0.0000000E+00
  -2.550000      0.0000000E+00
  -2.540000      0.0000000E+00
  -2.530000      0.0000000E+00
  -2.520000      0.0000000E+00
  -2.510000      0.0000000E+00
  -2.500000      0.0000000E+00
  -2.490000      0.0000000E+00
  -2.480000      0.0000000E+00
  -2.470000      0.0000000E+00
  -2.460000      0.0000000E+00
  -2.450000      0.0000000E+00
  -2.440000      0.0000000E+00
  -2.430000      0.0000000E+00
  -2.420000      0.0000000E+00
  -2.410000      0.0000000E+00
  -2.400000      0.0000000E+00
  -2.390000      0.0000000E+00
  -2.380000      0.0000000E+00
  -2.370000      0.0000000E+00
  -2.360000      0.0000000E+00
  -2.350000      0.0000000E+00
  -2.340000      0.0000000E+00
  -2.330000      0.0000000E+00
  -2.320000      0.0000000E+00
  -2.310000      0.0000000E+00
  -2.300000      0.0000000E+00
  -2.290000      0.0000000E+00
  -2.280000      0.0000000E+00
  -2.270000      0.0000000E+00
  -2.260000      0.0000000E+00
  -2.250000      0.0000000E+00
  -2.240000      0.0000000E+00
  -2.230000      0.0000000E+00
  -2.220000      0.0000000E+00
  -2.210000      0.0000000E+00
  -2.200000      0.0000000E+00
  -2.190000      0.0000000E+00
  -2.180000      0.0000000E+00
  -2.170000      0.0000000E+00
  -2.160000      0.0000000E+00
  -2.150000      0.0000000E+00
  -2.140000      0.0000000E+00
  -2.130000      0.0000000E+00
  -2.120000      0.0000000E+00
  -2.110000      0.0000000E+00
  -2.100000      0.0000000E+00
  -2.090000      0.0000000E+00
  -2.080000      0.0000000E+00
  -2.070000      0.0000000E+00
  -2.060000      0.0000000E+00
  -2.050000      0.0000000E+00
  -2.040000      0.0000000E+00
  -2.030000      0.0000000E+00
  -2.020000      0.0000000E+00
  -2.010000      0.0000000E+00
  -2.000000      0.0000000E+00
  -1.990000      0.0000000E+00
  -1.980000      0.0000000E+00
  -1.970000      0.0000000E+00
  -1.960000      0.0000000E+00
  -1.950000      0.0000000E+00
  -1.940000      0.0000000E+00
  -1.930000      0.0000000E+00
  -1.920000      0.0000000E+00
  -1.910000      0.0000000E+00
  -1.900000      0.0000000E+00
  -1.890000      0.0000000E+00
  -1.880000      0.0000000E+00
  -1.870000      0.0000000E+00
  -1.860000      0.0000000E+00
  -1.850000      0.0000000E+00
  -1.840000      0.0000000E+00
  -1.830000      0.0000000E+00
  -1.820000      0.0000000E+00
  -1.810000      0.0000000E+00
  -1.800000      0.0000000E+00
  -1.790000      0.0000000E+00
  -1.780000      0.0000000E+00
  -1.770000      0.0000000E+00
  -1.760000      0.0000000E+00
  -1.750000      0.0000000E+00
  -1.740000      0.0000000E+00
  -1.730000      0.0000000E+00
  -1.720000      0.0000000E+00
  -1.710000      0.0000000E+00
  -1.700000      0.0000000E+00
  -1.690000      0.0000000E+00
  -1.680000      0.0000000E+00
  -1.670000      0.0000000E+00
  -1.660000      0.0000000E+00
  -1.650000      0.0000000E+00
  -1.640000      0.0000000E+00
  -1.630000      0.0000000E+00
  -1.620000      0.0000000E+00
  -1.610000      0.0000000E+00
  -1.600000      0.0000000E+00
  -1.590000      0.0000000E+00
  -1.580000      0.0000000E+00
  -1.570000      0.0000000E+00
  -1.560000      0.0000000E+00
  -1.550000      0.0000000E+00
  -1.540000      0.0000000E+00
  -1.530000      0.0000000E+00
  -1.520000      0.0000000E+00
  -1.510000      0.0000000E+00
  -1.500000      0.0000000E+00
  -1.490000      0.0000000E+00
  -1.480000      0.0000000E+00
  -1.470000      0.0000000E+00
  -1.460000      0.0000000E+00
  -1.450000      0.0000000E+00
  -1.440000      0.0000000E+00
  -1.430000      0.0000000E+00
  -1.420000      0.0000000E+00
  -1.410000      0.0000000E+00
  -1.400000      0.0000000E+00
  -1.390000      0.0000000E+00
  -1.380000      0.0000000E+00
  -1.370000      0.0000000E+00
  -1.360000      0.0000000E+00
  -1.350000      0.0000000E+00
  -1.340000      0.0000000E+00
  -1.330000      0.0000000E+00
  -1.320000      0.0000000E+00
  -1.310000      0.0000000E+00
  -1.300000      0.0000000E+00
  -1.290000      0.0000000E+00
  -1.280000      0.0000000E+00
  -1.270000      0.0000000E+00
  -1.260000      0.0000000E+00
  -1.250000      0.0000000E+00
  -1.240000      0.0000000E+00
  -1.230000      0.0000000E+00
  -1.220000      0.0000000E+00
  -1.210000      0.0000000E+00
  -1.200000      0.0000000E+00
  -1.190000      0.0000000E+00
  -1.180000      0.0000000E+00
  -1.170000      0.0000000E+00
  -1.160000      0.0000000E+00
  -1.150000      0.0000000E+00
  -1.140000      0.0000000E+00
  -1.130000      0.0000000E+00
  -1.120000      0.0000000E+00
  -1.110000      0.0000000E+00
  -1.100000      0.0000000E+00
  -1.090000      0.0000000E+00
  -1.080000      0.0000000E+00
  -1.070000      0.0000000E+00
  -1.060000      0.0000000E+00
  -1.050000      0.0000000E+00
  -1.040000      0.0000000E+00
  -1.030000      0.0000000E+00
  -1.020000      0.0000000E+00
  -1.010000      0.0000000E+00
  -1.000000      0.0000000E+00
 -0.9900000      0.0000000E+00
 -0.9800000      0.0000000E+00
 -0.9700000      0.0000000E+00
 -0.9600000      0.0000000E+00
 -0.9500000      0.0000000E+00
 -0.9400000      0.0000000E+00
 -0.9300000      0.0000000E+00
 -0.9200000      0.0000000E+00
 -0.9100000      0.0000000E+00
 -0.9000000      0.0000000E+00
 -0.8900000      0.0000000E+00
 -0.8800000      0.0000000E+00
 -0.8700000      0.0000000E+00
 -0.8600000      0.0000000E+00
 -0.8500000      0.0000000E+00
 -0.8400000      0.0000000E+00
 -0.8300000      0.0000000E+00
 -0.8200000      0.0000000E+00
 -0.8100000      0.0000000E+00
 -0.8000000      0.0000000E+00
 -0.7900000      0.0000000E+00
 -0.7800000      0.0000000E+00
 -0.7700000      0.0000000E+00
 -0.7600000      0.0000000E+00
 -0.7500000      0.0000000E+00
 -0.7400000      0.0000000E+00
 -0.7300000      0.0000000E+00
 -0.7200000      0.0000000E+00
 -0.7100000      0.0000000E+00
 -0.7000000      0.0000000E+00
 -0.6900000      0.0000000E+00
 -0.6800000      0.0000000E+00
 -0.6700000      0.0000000E+00
 -0.6600000      0.0000000E+00
 -0.6500000      0.0000000E+00
 -0.6400000      0.0000000E+00
 -0.6300000      0.0000000E+00
 -0.6200000      0.0000000E+00
 -0.6100000      0.0000000E+00
 -0.6000000      0.0000000E+00
 -0.5900000      0.0000000E+00
 -0.5800000      0.0000000E+00
 -0.5700000      0.0000000E+00
 -0.5600000      0.0000000E+00
 -0.5500000      0.0000000E+00
 -0.5400000      0.0000000E+00
 -0.5300000      0.0000000E+00
 -0.5200000      0.0000000E+00
 -0.5100000      0.0000000E+00
 -0.5000000      0.0000000E+00
 -0.4900000      0.0000000E+00
 -0.4800000      0.0000000E+00
 -0.4700000      0.0000000E+00
 -0.4600000      0.0000000E+00
 -0.4500000      0.0000000E+00
 -0.4400000      0.0000000E+00
 -0.4300000      0.0000000E+00
 -0.4200000      0.0000000E+00
 -0.4100000      0.0000000E+00
 -0.4000000      0.0000000E+00
 -0.3900000      0.0000000E+00
 -0.3800000      0.0000000E+00
 -0.3700000      0.0000000E+00
 -0.3600000      0.0000000E+00
 -0.3500000      0.0000000E+00
 -0.3400000      0.0000000E+00
 -0.3300000      0.0000000E+00
 -0.3200000      0.0000000E+00
 -0.3100000      0.0000000E+00
 -0.3000000      0.0000000E+00
 -0.2900000      0.0000000E+00
 -0.2800000      0.0000000E+00
 -0.2700000      0.0000000E+00
 -0.2600000      0.0000000E+00
 -0.2500000      0.0000000E+00
 -0.2400000      0.0000000E+00
 -0.2300000      0.0000000E+00
 -0.2200000      0.0000000E+00
 -0.2100000      0.0000000E+00
 -0.2000000      0.0000000E+00
 -0.1900000      0.0000000E+00
 -0.1800000      0.0000000E+00
 -0.1700000      0.0000000E+00
 -0.1600000      0.0000000E+00
 -0.1500000      0.0000000E+00
 -0.1400000      0.0000000E+00
 -0.1300000      0.0000000E+00
 -0.1200000      0.0000000E+00
 -0.1100000      0.0000000E+00
 -0.1000000      0.0000000E+00
 -9.0000004E-02  0.0000000E+00
 -7.9999998E-02  0.0000000E+00
 -7.0000000E-02  0.0000000E+00
 -5.9999999E-02  0.0000000E+00
 -5.0000001E-02  0.0000000E+00
 -3.9999999E-02  0.0000000E+00
 -2.9999999E-02  0.0000000E+00
 -2.0000000E-02  0.0000000E+00
 -9.9999998E-03  0.0000000E+00
 -3.4694470E-17  0.0000000E+00
  9.9999998E-03  0.0000000E+00
  2.0000000E-02  0.0000000E+00
  2.9999999E-02  0.0000000E+00
  3.9999999E-02  0.0000000E+00
  5.0000001E-02  0.0000000E+00
  5.9999999E-02  0.0000000E+00
  7.0000000E-02  0.0000000E+00
  7.9999998E-02  0.0000000E+00
  9.0000004E-02  0.0000000E+00
  0.1000000      0.0000000E+00
  0.1100000      0.0000000E+00
  0.1200000      0.0000000E+00
  0.1300000      0.0000000E+00
  0.1400000      0.0000000E+00
  0.1500000      0.0000000E+00
  0.1600000      0.0000000E+00
  0.1700000      0.0000000E+00
  0.1800000      0.0000000E+00
  0.1900000      0.0000000E+00
  0.2000000      0.0000000E+00
  0.2100000      0.0000000E+00
  0.2200000      0.0000000E+00
  0.2300000      0.0000000E+00
  0.2400000      0.0000000E+00
  0.2500000      0.0000000E+00
  0.2600000      0.0000000E+00
  0.2700000      0.0000000E+00
  0.2800000      0.0000000E+00
  0.2900000      0.0000000E+00
  0.3000000      0.0000000E+00
  0.3100000      0.0000000E+00
  0.3200000      0.0000000E+00
  0.3300000      0.0000000E+00
  0.3400000      0.0000000E+00
  0.3500000      0.0000000E+00
  0.3600000      0.0000000E+00
  0.3700000      0.0000000E+00
  0.3800000      0.0000000E+00
  0.3900000      0.0000000E+00
  0.4000000      0.0000000E+00
  0.4100000      0.0000000E+00
  0.4200000      0.0000000E+00
  0.4300000      0.0000000E+00
  0.4400000      0.0000000E+00
  0.4500000      0.0000000E+00
  0.4600000      0.0000000E+00
  0.4700000      0.0000000E+00
  0.4800000      0.0000000E+00
  0.4900000      0.0000000E+00
  0.5000000      0.0000000E+00
  0.5100000      0.0000000E+00
  0.5200000      0.0000000E+00
  0.5300000      0.0000000E+00
  0.5400000      0.0000000E+00
  0.5500000      0.0000000E+00
  0.5600000      0.0000000E+00
  0.5700000      0.0000000E+00
  0.5800000      0.0000000E+00
  0.5900000      0.0000000E+00
  0.6000000      0.0000000E+00
  0.6100000      0.0000000E+00
  0.6200000      0.0000000E+00
  0.6300000      0.0000000E+00
  0.6400000      0.0000000E+00
  0.6500000      0.0000000E+00
  0.6600000      0.0000000E+00
  0.6700000      0.0000000E+00
  0.6800000      0.0000000E+00
  0.6900000      0.0000000E+00
  0.7000000      0.0000000E+00
  0.7100000      0.0000000E+00
  0.7200000      0.0000000E+00
  0.7300000      0.0000000E+00
  0.7400000      0.0000000E+00
  0.7500000      0.0000000E+00
  0.7600000      0.0000000E+00
  0.7700000      0.0000000E+00
  0.7800000      0.0000000E+00
  0.7900000      0.0000000E+00
  0.8000000      0.0000000E+00
  0.8100000      0.0000000E+00
  0.8200000      0.0000000E+00
  0.8300000      0.0000000E+00
  0.8400000      0.0000000E+00
  0.8500000      0.0000000E+00
  0.8600000      0.0000000E+00
  0.8700000      0.0000000E+00
  0.8800000      0.0000000E+00
  0.8900000      0.0000000E+00
  0.9000000      0.0000000E+00
  0.9100000      0.0000000E+00
  0.9200000      0.0000000E+00
  0.9300000      0.0000000E+00
  0.9400000      0.0000000E+00
  0.9500000      0.0000000E+00
  0.9600000      0.0000000E+00
  0.9700000      0.0000000E+00
  0.9800000      0.0000000E+00
  0.9900000      0.0000000E+00
   1.000000      0.0000000E+00
   1.010000      0.0000000E+00
   1.020000      0.0000000E+00
   1.030000      0.0000000E+00
   1.040000      0.0000000E+00
   1.050000      0.0000000E+00
   1.060000      0.0000000E+00
   1.070000      0.0000000E+00
   1.080000      0.0000000E+00
   1.090000      0.0000000E+00
   1.100000      0.0000000E+00
   1.110000      0.0000000E+00
   1.120000      0.0000000E+00
   1.130000      0.0000000E+00
   1.140000      0.0000000E+00
   1.150000      0.0000000E+00
   1.160000      0.0000000E+00
   1.170000      0.0000000E+00
   1.180000      0.0000000E+00
   1.190000      0.0000000E+00
   1.200000      0.0000000E+00
   1.210000      0.0000000E+00
   1.220000      0.0000000E+00
   1.230000      0.0000000E+00
   1.240000      0.0000000E+00
   1.250000      0.0000000E+00
   1.260000      0.0000000E+00
   1.270000      0.0000000E+00
   1.280000      0.0000000E+00
   1.290000      0.0000000E+00
   1.300000      0.0000000E+00
   1.310000      0.0000000E+00
   1.320000      0.0000000E+00
   1.330000      0.0000000E+00
   1.340000      0.0000000E+00
   1.350000      0.0000000E+00
   1.360000      0.0000000E+00
   1.370000      0.0000000E+00
   1.380000      0.0000000E+00
   1.390000      0.0000000E+00
   1.400000      0.0000000E+00
   1.410000      0.0000000E+00
   1.420000      0.0000000E+00
   1.430000      0.0000000E+00
   1.440000      0.0000000E+00
   1.450000      0.0000000E+00
   1.460000      0.0000000E+00
   1.470000      0.0000000E+00
   1.480000      0.0000000E+00
   1.490000      0.0000000E+00
   1.500000      0.0000000E+00
   1.510000      0.0000000E+00
   1.520000      0.0000000E+00
   1.530000      0.0000000E+00
   1.540000      0.0000000E+00
   1.550000      0.0000000E+00
   1.560000      0.0000000E+00
   1.570000      0.0000000E+00
   1.580000      0.0000000E+00
   1.590000      0.0000000E+00
   1.600000      0.0000000E+00
   1.610000      0.0000000E+00
   1.620000      0.0000000E+00
   1.630000      0.0000000E+00
   1.640000      0.0000000E+00
   1.650000      0.0000000E+00
   1.660000      0.0000000E+00
   1.670000      0.0000000E+00
   1.680000      0.0000000E+00
   1.690000      0.0000000E+00
   1.700000      0.0000000E+00
   1.710000      0.0000000E+00
   1.720000      0.0000000E+00
   1.730000      0.0000000E+00
   1.740000      0.0000000E+00
   1.750000      0.0000000E+00
   1.760000      0.0000000E+00
   1.770000      0.0000000E+00
   1.780000      0.0000000E+00
   1.790000      0.0000000E+00
   1.800000      0.0000000E+00
   1.810000      0.0000000E+00
   1.820000      0.0000000E+00
   1.830000      0.0000000E+00
   1.840000      0.0000000E+00
   1.850000      0.0000000E+00
   1.860000      0.0000000E+00
   1.870000      0.0000000E+00
   1.880000      0.0000000E+00
   1.890000      0.0000000E+00
   1.900000      0.0000000E+00
   1.910000      0.0000000E+00
   1.920000      0.0000000E+00
   1.930000      0.0000000E+00
   1.940000      0.0000000E+00
   1.950000      0.0000000E+00
   1.960000      0.0000000E+00
   1.970000      0.0000000E+00
   1.980000      0.0000000E+00
   1.990000      0.0000000E+00
   2.000000      0.0000000E+00
   2.010000      0.0000000E+00
   2.020000      0.0000000E+00
   2.030000      0.0000000E+00
   2.040000      0.0000000E+00
   2.050000      0.0000000E+00
   2.060000      0.0000000E+00
   2.070000      0.0000000E+00
   2.080000      0.0000000E+00
   2.090000      0.0000000E+00
   2.100000      0.0000000E+00
   2.110000      0.0000000E+00
   2.120000      0.0000000E+00
   2.130000      0.0000000E+00
   2.140000      0.0000000E+00
   2.150000      0.0000000E+00
   2.160000      0.0000000E+00
   2.170000      0.0000000E+00
   2.180000      0.0000000E+00
   2.190000      0.0000000E+00
   2.200000      0.0000000E+00
   2.210000      0.0000000E+00
   2.220000      0.0000000E+00
   2.230000      0.0000000E+00
   2.240000      0.0000000E+00
   2.250000      0.0000000E+00
   2.260000      0.0000000E+00
   2.270000      0.0000000E+00
   2.280000      0.0000000E+00
   2.290000      0.0000000E+00
   2.300000      0.0000000E+00
   2.310000      0.0000000E+00
   2.320000      0.0000000E+00
   2.330000      0.0000000E+00
   2.340000      0.0000000E+00
   2.350000      0.0000000E+00
   2.360000      0.0000000E+00
   2.370000      0.0000000E+00
   2.380000      0.0000000E+00
   2.390000      0.0000000E+00
   2.400000      0.0000000E+00
   2.410000      0.0000000E+00
   2.420000      0.0000000E+00
   2.430000      0.0000000E+00
   2.440000      0.0000000E+00
   2.450000      0.0000000E+00
   2.460000      0.0000000E+00
   2.470000      0.0000000E+00
   2.480000      0.0000000E+00
   2.490000      0.0000000E+00
   2.500000      0.0000000E+00
   2.510000      0.0000000E+00
   2.520000      0.0000000E+00
   2.530000      0.0000000E+00
   2.540000      0.0000000E+00
   2.550000      0.0000000E+00
   2.560000      0.0000000E+00
   2.570000      0.0000000E+00
   2.580000      0.0000000E+00
   2.590000      0.0000000E+00
   2.600000      0.0000000E+00
   2.610000      0.0000000E+00
   2.620000      0.0000000E+00
   2.630000      0.0000000E+00
   2.640000      0.0000000E+00
   2.650000      0.0000000E+00
   2.660000      0.0000000E+00
   2.670000      0.0000000E+00
   2.680000      0.0000000E+00
   2.690000      0.0000000E+00
   2.700000      0.0000000E+00
   2.710000      0.0000000E+00
   2.720000      0.0000000E+00
   2.730000      0.0000000E+00
   2.740000      0.0000000E+00
   2.750000      0.0000000E+00
   2.760000      0.0000000E+00
   2.770000      0.0000000E+00
   2.780000      0.0000000E+00
   2.790000      0.0000000E+00
   2.800000      0.0000000E+00
   2.810000      0.0000000E+00
   2.820000      0.0000000E+00
   2.830000      0.0000000E+00
   2.840000      0.0000000E+00
   2.850000      0.0000000E+00
   2.860000      0.0000000E+00
   2.870000      0.0000000E+00
   2.880000      0.0000000E+00
   2.890000      0.0000000E+00
   2.900000      0.0000000E+00
   2.910000      0.0000000E+00
   2.920000      0.0000000E+00
   2.930000      0.0000000E+00
   2.940000      0.0000000E+00
   2.950000      0.0000000E+00
   2.960000      0.0000000E+00
   2.970000      0.0000000E+00
   2.980000      0.0000000E+00
   2.990000      0.0000000E+00
   3.000000      0.0000000E+00
   3.010000      0.0000000E+00
   3.020000      0.0000000E+00
   3.030000      0.0000000E+00
   3.040000      0.0000000E+00
   3.050000      0.0000000E+00
   3.060000      0.0000000E+00
   3.070000      0.0000000E+00
   3.080000      0.0000000E+00
   3.090000      0.0000000E+00
   3.100000      0.0000000E+00
   3.110000      0.0000000E+00
   3.120000      0.0000000E+00
   3.130000      0.0000000E+00
   3.140000      0.0000000E+00
   3.150000      0.0000000E+00
   3.160000      0.0000000E+00
   3.170000      0.0000000E+00
   3.180000      0.0000000E+00
   3.190000      0.0000000E+00
   3.200000      0.0000000E+00
   3.210000      0.0000000E+00
   3.220000      0.0000000E+00
   3.230000      0.0000000E+00
   3.240000      0.0000000E+00
   3.250000      0.0000000E+00
   3.260000      0.0000000E+00
   3.270000      0.0000000E+00
   3.280000      0.0000000E+00
   3.290000      0.0000000E+00
   3.300000      0.0000000E+00
   3.310000      0.0000000E+00
   3.320000      0.0000000E+00
   3.330000      0.0000000E+00
   3.340000      0.0000000E+00
   3.350000      0.0000000E+00
   3.360000      0.0000000E+00
   3.370000      0.0000000E+00
   3.380000      0.0000000E+00
   3.390000      0.0000000E+00
   3.400000      0.0000000E+00
   3.410000      0.0000000E+00
   3.420000      0.0000000E+00
   3.430000      0.0000000E+00
   3.440000      0.0000000E+00
   3.450000      0.0000000E+00
   3.460000      0.0000000E+00
   3.470000      0.0000000E+00
   3.480000      0.0000000E+00
   3.490000      0.0000000E+00
   3.500000      0.0000000E+00
   3.510000      0.0000000E+00
   3.520000      0.0000000E+00
   3.530000      0.0000000E+00
   3.540000      0.0000000E+00
   3.550000      0.0000000E+00
   3.560000      1.2345902E-38
   3.570000      1.5692504E-38
   3.580000      1.8595689E-38
   3.590000      1.9984862E-38
   3.600000      2.0127129E-38
   3.610000      2.0278035E-38
   3.620000      2.0441475E-38
   3.630000      2.0620234E-38
   3.640000      2.0815473E-38
   3.650000      2.1026636E-38
   3.660000      2.1251432E-38
   3.670000      2.1510327E-38
   3.680000      2.1772662E-38
   3.690000      2.2007167E-38
   3.700000      2.2159370E-38
   3.710000      2.2210403E-38
   3.720000      2.2221654E-38
   3.730000      2.2202142E-38
   3.740000      2.2137663E-38
   3.750000      2.2025112E-38
   3.760000      2.1885775E-38
   3.770000      2.1730382E-38
   3.780000      2.2894406E-38
   3.790000      2.4033320E-38
   3.800000      2.3788176E-38
   3.810000      2.3521720E-38
   3.820000      2.3275764E-38
   3.830000      2.2985367E-38
   3.840000      2.2630764E-38
   3.850000      2.0301407E-38
   3.860000      1.5240630E-38
   3.870000      0.0000000E+00
   3.880000      0.0000000E+00
   3.890000      0.0000000E+00
   3.900000     -1.4081777E-38
   3.910000     -2.1104930E-38
   3.920000     -2.6916926E-38
   3.930000     -3.1156324E-38
   3.940000     -3.3131746E-38
   3.950000     -3.3768022E-38
   3.960000     -3.8293967E-38
   3.970000     -4.5660719E-38
   3.980000     -5.2038810E-38
   3.990000     -5.8468713E-38
   4.000000     -6.4939198E-38
   4.010000     -7.1451032E-38
   4.020000     -7.7867213E-38
   4.030000     -8.5106618E-38
   4.040000     -9.4344628E-38
   4.050000     -1.0616105E-37
   4.060000     -1.2018112E-37
   4.070000     -1.3612004E-37
   4.080000     -1.5341320E-37
   4.090000     -1.7033779E-37
   4.100000     -1.8581388E-37
   4.110000     -1.9583635E-37
   4.120000     -2.0022853E-37
   4.130000     -2.0122998E-37
   4.140000     -1.9974117E-37
   4.150000     -1.9678219E-37
   4.160000     -1.9178041E-37
   4.170000     -1.8138184E-37
   4.180000     -1.6567328E-37
   4.190000     -1.5053421E-37
   4.200000     -1.3590103E-37
   4.210000     -1.2066841E-37
   4.220000     -1.0412201E-37
   4.230000     -8.4939359E-38
   4.240000     -6.6519532E-38
   4.250000     -4.9413097E-38
   4.260000     -3.1094973E-38
   4.270000      0.0000000E+00
   4.280000      0.0000000E+00
   4.290000      2.3330713E-38
   4.300000      4.1073000E-38
   4.310000      6.4868600E-38
   4.320000      9.7079390E-38
   4.330000      1.3709828E-37
   4.340000      1.7925822E-37
   4.350000      2.2422067E-37
   4.360000      2.7157420E-37
   4.370000      3.2428632E-37
   4.380000      3.8372574E-37
   4.390000      4.4303766E-37
   4.400000      4.9946600E-37
   4.410000      5.5318752E-37
   4.420000      6.0481436E-37
   4.430000      6.5457902E-37
   4.440000      7.0309857E-37
   4.450000      7.4885462E-37
   4.460000      7.9261602E-37
   4.470000      8.3664675E-37
   4.480000      8.8892491E-37
   4.490000      9.5250342E-37
   4.500000      1.0279369E-36
   4.510000      1.1164031E-36
   4.520000      1.2121715E-36
   4.530000      1.3124023E-36
   4.540000      1.4145475E-36
   4.550000      1.5036705E-36
   4.560000      1.5718702E-36
   4.570000      1.6294876E-36
   4.580000      1.8506381E-36
   4.590000      2.3734055E-36
   4.600000      3.0546466E-36
   4.610000      3.7304651E-36
   4.620000      4.4074046E-36
   4.630000      5.1416101E-36
   4.640000      5.8791750E-36
   4.650000      6.6187865E-36
   4.660000      7.3950784E-36
   4.670000      7.9577366E-36
   4.680000      8.1624049E-36
   4.690000      7.9248121E-36
   4.700000      7.3196614E-36
   4.710000      6.5007377E-36
   4.720000      5.4977173E-36
   4.730000      4.4086315E-36
   4.740000      3.2194928E-36
   4.750000      1.9482615E-36
   4.760000      7.3566770E-37
   4.770000     -3.4990268E-37
   4.780000     -1.3781102E-36
   4.790000     -2.3253548E-36
   4.800000     -3.1672660E-36
   4.810000     -3.8319304E-36
   4.820000     -4.3200601E-36
   4.830000     -4.6963238E-36
   4.840000     -4.8154355E-36
   4.850000     -4.4722918E-36
   4.860000     -3.8271080E-36
   4.870000     -3.0895459E-36
   4.880000     -2.4374830E-36
   4.890000     -1.9647521E-36
   4.900000     -1.9758561E-36
   4.910000     -2.5033223E-36
   4.920000     -3.2009571E-36
   4.930000     -4.1102081E-36
   4.940000     -5.2286461E-36
   4.950000     -6.5498575E-36
   4.960000     -8.0631867E-36
   4.970000     -9.9407649E-36
   4.980000     -1.2058971E-35
   4.990000     -1.4117181E-35
   5.000000     -1.6222050E-35
   5.010000     -1.8574231E-35
   5.020000     -2.1250961E-35
   5.030000     -2.4249011E-35
   5.040000     -2.7090740E-35
   5.050000     -2.9571211E-35
   5.060000     -3.1889359E-35
   5.070000     -3.4191670E-35
   5.080000     -3.6736638E-35
   5.090000     -3.9265495E-35
   5.100000     -4.1326940E-35
   5.110000     -4.2782203E-35
   5.120000     -4.3678420E-35
   5.130000     -4.4094377E-35
   5.140000     -4.4013180E-35
   5.150000     -4.3397070E-35
   5.160000     -4.2374129E-35
   5.170000     -4.1063241E-35
   5.180000     -3.9521891E-35
   5.190000     -3.7858460E-35
   5.200000     -3.6198198E-35
   5.210000     -3.4533097E-35
   5.220000     -3.2834533E-35
   5.230000     -3.1068534E-35
   5.240000     -2.9281323E-35
   5.250000     -2.7508275E-35
   5.260000     -2.5581989E-35
   5.270000     -2.3364933E-35
   5.280000     -2.0926183E-35
   5.290000     -1.8278860E-35
   5.300000     -1.5316059E-35
   5.310000     -1.2046437E-35
   5.320000     -8.2534304E-36
   5.330000     -3.9230323E-36
   5.340000      6.4898482E-37
   5.350000      5.4730024E-36
   5.360000      1.0693716E-35
   5.370000      1.6354260E-35
   5.380000      2.2735002E-35
   5.390000      2.9823781E-35
   5.400000      3.7451359E-35
   5.410000      4.5957992E-35
   5.420000      5.5334606E-35
   5.430000      6.5388021E-35
   5.440000      7.6176201E-35
   5.450000      8.7721323E-35
   5.460000      1.0007355E-34
   5.470000      1.1315847E-34
   5.480000      1.2690629E-34
   5.490000      1.4162532E-34
   5.500000      1.5413130E-34
   5.510000      1.6350821E-34
   5.520000      1.7456688E-34
   5.530000      1.8366307E-34
   5.540000      1.8851391E-34
   5.550000      1.9612046E-34
   5.560000      2.0647797E-34
   5.570000      2.2200125E-34
   5.580000      2.4341297E-34
   5.590000      2.6568707E-34
   5.600000      2.8854274E-34
   5.610000      3.0894118E-34
   5.620000      3.2635989E-34
   5.630000      3.4282030E-34
   5.640000      3.5805425E-34
   5.650000      3.7243275E-34
   5.660000      3.8611895E-34
   5.670000      3.9621456E-34
   5.680000      4.0181060E-34
   5.690000      4.0624855E-34
   5.700000      4.1033845E-34
   5.710000      4.1379624E-34
   5.720000      4.1662982E-34
   5.730000      4.1753872E-34
   5.740000      4.1707407E-34
   5.750000      4.1635519E-34
   5.760000      4.1457698E-34
   5.770000      4.1278076E-34
   5.780000      4.1154140E-34
   5.790000      4.0918655E-34
   5.800000      4.0498558E-34
   5.810000      3.9860586E-34
   5.820000      3.8331948E-34
   5.830000      3.5851912E-34
   5.840000      3.2981079E-34
   5.850000      2.9669565E-34
   5.860000      2.5933297E-34
   5.870000      2.1808811E-34
   5.880000      1.7365171E-34
   5.890000      1.2880363E-34
   5.900000      8.2471151E-35
   5.910000      3.0657567E-35
   5.920000     -2.6997047E-35
   5.930000     -8.8843811E-35
   5.940000     -1.5374847E-34
   5.950000     -2.2146213E-34
   5.960000     -2.8688902E-34
   5.970000     -3.4923528E-34
   5.980000     -4.1363300E-34
   5.990000     -4.8151812E-34
   6.000000     -5.5331828E-34
   6.010000     -6.2546176E-34
   6.020000     -6.9800056E-34
   6.030000     -7.7380966E-34
   6.040000     -8.5634433E-34
   6.050000     -9.4398120E-34
   6.060000     -1.0369535E-33
   6.070000     -1.1322819E-33
   6.080000     -1.2292770E-33
   6.090000     -1.3363803E-33
   6.100000     -1.4491456E-33
   6.110000     -1.5663833E-33
   6.120000     -1.6857897E-33
   6.130000     -1.8093523E-33
   6.140000     -1.9418215E-33
   6.150000     -2.0798047E-33
   6.160000     -2.2217706E-33
   6.170000     -2.3629405E-33
   6.180000     -2.5019400E-33
   6.190000     -2.6408494E-33
   6.200000     -2.7788578E-33
   6.210000     -2.9146559E-33
   6.220000     -3.0468766E-33
   6.230000     -3.1745349E-33
   6.240000     -3.2970181E-33
   6.250000     -3.4137149E-33
   6.260000     -3.5213932E-33
   6.270000     -3.6194202E-33
   6.280000     -3.7097114E-33
   6.290000     -3.7914428E-33
   6.300000     -3.8640938E-33
   6.310000     -3.9272704E-33
   6.320000     -3.9795928E-33
   6.330000     -4.0231239E-33
   6.340000     -4.0579626E-33
   6.350000     -4.0803562E-33
   6.360000     -4.0900371E-33
   6.370000     -4.0871487E-33
   6.380000     -4.0702811E-33
   6.390000     -4.0379226E-33
   6.400000     -3.9888256E-33
   6.410000     -3.9218429E-33
   6.420000     -3.8358394E-33
   6.430000     -3.7293458E-33
   6.440000     -3.6002174E-33
   6.450000     -3.4466196E-33
   6.460000     -3.2673416E-33
   6.470000     -3.0614129E-33
   6.480000     -2.8271249E-33
   6.490000     -2.5623580E-33
   6.500000     -2.2659830E-33
   6.510000     -1.9368185E-33
   6.520000     -1.5740310E-33
   6.530000     -1.1756878E-33
   6.540000     -7.4062848E-34
   6.550000     -2.6684248E-34
   6.560000      2.4621429E-34
   6.570000      7.9679672E-34
   6.580000      1.3853375E-33
   6.590000      2.0134600E-33
   6.600000      2.6821128E-33
   6.610000      3.3900846E-33
   6.620000      4.1369360E-33
   6.630000      4.9225637E-33
   6.640000      5.7467531E-33
   6.650000      6.6083934E-33
   6.660000      7.5068465E-33
   6.670000      8.4414336E-33
   6.680000      9.4096442E-33
   6.690000      1.0410594E-32
   6.700000      1.1441360E-32
   6.710000      1.2502216E-32
   6.720000      1.3593436E-32
   6.730000      1.4710874E-32
   6.740000      1.5852571E-32
   6.750000      1.7017494E-32
   6.760000      1.8201741E-32
   6.770000      1.9402053E-32
   6.780000      2.0614824E-32
   6.790000      2.1833631E-32
   6.800000      2.3058669E-32
   6.810000      2.4287763E-32
   6.820000      2.5514331E-32
   6.830000      2.6733275E-32
   6.840000      2.7939599E-32
   6.850000      2.9127645E-32
   6.860000      3.0290714E-32
   6.870000      3.1422757E-32
   6.880000      3.2517421E-32
   6.890000      3.3567467E-32
   6.900000      3.4565400E-32
   6.910000      3.5503618E-32
   6.920000      3.6374186E-32
   6.930000      3.7168276E-32
   6.940000      3.7877090E-32
   6.950000      3.8492136E-32
   6.960000      3.9004072E-32
   6.970000      3.9404064E-32
   6.980000      3.9683373E-32
   6.990000      3.9832446E-32
   7.000000      3.9841885E-32
   7.010000      3.9702425E-32
   7.020000      3.9404672E-32
   7.030000      3.8939441E-32
   7.040000      3.8297947E-32
   7.050000      3.7471098E-32
   7.060000      3.6449926E-32