  -2.600000      0.0000000E+00
  -2.590000      0.0000000E+00
  -2.580000      0.0000000E+00
  -2.570000      0.0000000E+00
  -2.560000      0.0000000E+00
  -2.550000      0.0000000E+00
  -2.540000      0.0000000E+00
  -2.530000      0.0000000E+00
  -2.520000      0.0000000E+00
  -2.510000      0.0000000E+00
  -2.500000      0.0000000E+00
  -2.490000      0.0000000E+00
  -2.480000      0.0000000E+00
  -2.470000      0.0000000E+00
  -2.460000      0.0000000E+00
  -2.450000      0.0000000E+00
  -2.440000      0.0000000E+00
  -2.430000      0.0000000E+00
  -2.420000      0.0000000E+00
  -2.410000      0.0000000E+00
  -2.400000      0.0000000E+00
  -2.390000      0.0000000E+00
  -2.380000      0.0000000E+00
  -2.370000      0.0000000E+00
  -2.360000      0.0000000E+00
  -2.350000      0.0000000E+00
  -2.340000      0.0000000E+00
  -2.330000      0.0000000E+00
  -2.320000      0.0000000E+00
  -2.310000      0.0000000E+00
  -2.300000      0.0000000E+00
  -2.290000      0.0000000E+00
  -2.280000      0.0000000E+00
  -2.270000      0.0000000E+00
  -2.260000      0.0000000E+00
  -2.250000      0.0000000E+00
  -2.240000      0.0000000E+00
  -2.230000      0.0000000E+00
  -2.220000      0.0000000E+00
  -2.210000      0.0000000E+00
  -2.200000      0.0000000E+00
  -2.190000      0.0000000E+00
  -2.180000      0.0000000E+00
  -2.170000      0.0000000E+00
  -2.160000      0.0000000E+00
  -2.150000      0.0000000E+00
  -2.140000      0.0000000E+00
  -2.130000      0.0000000E+00
  -2.120000      0.0000000E+00
  -2.110000      0.0000000E+00
  -2.100000      0.0000000E+00
  -2.090000      0.0000000E+00
  -2.080000      0.0000000E+00
  -2.070000      0.0000000E+00
  -2.060000      0.0000000E+00
  -2.050000      0.0000000E+00
  -2.040000      0.0000000E+00
  -2.030000      0.0000000E+00
  -2.020000      0.0000000E+00
  -2.010000      0.0000000E+00
  -2.000000      0.0000000E+00
  -1.990000      0.0000000E+00
  -1.980000      0.0000000E+00
  -1.970000      0.0000000E+00
  -1.960000      0.0000000E+00
  -1.950000      0.0000000E+00
  -1.940000      0.0000000E+00
  -1.930000      0.0000000E+00
  -1.920000      0.0000000E+00
  -1.910000      0.0000000E+00
  -1.900000      0.0000000E+00
  -1.890000      0.0000000E+00
  -1.880000      0.0000000E+00
  -1.870000      0.0000000E+00
  -1.860000      0.0000000E+00
  -1.850000      0.0000000E+00
  -1.840000      0.0000000E+00
  -1.830000      0.0000000E+00
  -1.820000      0.0000000E+00
  -1.810000      0.0000000E+00
  -1.800000      0.0000000E+00
  -1.790000      0.0000000E+00
  -1.780000      0.0000000E+00
  -1.770000      0.0000000E+00
  -1.760000      0.0000000E+00
  -1.750000      0.0000000E+00
  -1.740000      0.0000000E+00
  -1.730000      0.0000000E+00
  -1.720000      0.0000000E+00
  -1.710000      0.0000000E+00
  -1.700000      0.0000000E+00
  -1.690000      0.0000000E+00
  -1.680000      0.0000000E+00
  -1.670000      0.0000000E+00
  -1.660000      0.0000000E+00
  -1.650000      0.0000000E+00
  -1.640000      0.0000000E+00
  -1.630000      0.0000000E+00
  -1.620000      0.0000000E+00
  -1.610000      0.0000000E+00
  -1.600000      0.0000000E+00
  -1.590000      0.0000000E+00
  -1.580000      0.0000000E+00
  -1.570000      0.0000000E+00
  -1.560000      0.0000000E+00
  -1.550000      0.0000000E+00
  -1.540000      0.0000000E+00
  -1.530000      0.0000000E+00
  -1.520000      0.0000000E+00
  -1.510000      0.0000000E+00
  -1.500000      0.0000000E+00
  -1.490000      0.0000000E+00
  -1.480000      0.0000000E+00
  -1.470000      0.0000000E+00
  -1.460000      0.0000000E+00
  -1.450000      0.0000000E+00
  -1.440000      0.0000000E+00
  -1.430000      0.0000000E+00
  -1.420000      0.0000000E+00
  -1.410000      0.0000000E+00
  -1.400000      0.0000000E+00
  -1.390000      0.0000000E+00
  -1.380000      0.0000000E+00
  -1.370000      0.0000000E+00
  -1.360000      0.0000000E+00
  -1.350000      0.0000000E+00
  -1.340000      0.0000000E+00
  -1.330000      0.0000000E+00
  -1.320000      0.0000000E+00
  -1.310000      0.0000000E+00
  -1.300000      0.0000000E+00
  -1.290000      0.0000000E+00
  -1.280000      0.0000000E+00
  -1.270000      0.0000000E+00
  -1.260000      0.0000000E+00
  -1.250000      0.0000000E+00
  -1.240000      1.1918052E-38
  -1.230000      1.9183969E-38
  -1.220000      2.8607617E-38
  -1.210000      3.9539307E-38
  -1.200000      5.2040066E-38
  -1.190000      6.5464348E-38
  -1.180000      7.5735328E-38
  -1.170000      7.8460562E-38
  -1.160000      7.1374958E-38
  -1.150000      4.1566974E-38
  -1.140000     -1.6094203E-38
  -1.130000     -9.8829657E-38
  -1.120000     -2.0598072E-37
  -1.110000     -3.3612675E-37
  -1.100000     -4.9577666E-37
  -1.090000     -6.8016198E-37
  -1.080000     -8.4379925E-37
  -1.070000     -9.5515597E-37
  -1.060000     -1.0084033E-36
  -1.050000     -9.7732097E-37
  -1.040000     -8.3189839E-37
  -1.030000     -5.4851952E-37
  -1.020000     -1.0518124E-37
  -1.010000      5.4101089E-37
  -1.000000      1.4501929E-36
 -0.9900000      2.6376799E-36
 -0.9800000      4.0055774E-36
 -0.9700000      5.5030764E-36
 -0.9600000      7.1189521E-36
 -0.9500000      8.7671947E-36
 -0.9400000      1.0262813E-35
 -0.9300000      1.1314074E-35
 -0.9200000      1.1703022E-35
 -0.9100000      1.1011796E-35
 -0.9000000      8.7208960E-36
 -0.8900000      4.6814988E-36
 -0.8800000     -8.4326608E-37
 -0.8700000     -8.0411598E-36
 -0.8600000     -1.7302512E-35
 -0.8500000     -2.8111144E-35
 -0.8400000     -4.0337189E-35
 -0.8300000     -5.3767622E-35
 -0.8200000     -6.7244981E-35
 -0.8100000     -7.9708395E-35
 -0.8000000     -8.9887631E-35
 -0.7900000     -9.6950423E-35
 -0.7800000     -9.9425000E-35
 -0.7700000     -9.5010502E-35
 -0.7600000     -8.1823217E-35
 -0.7500000     -5.7997829E-35
 -0.7400000     -2.1862819E-35
 -0.7300000      2.7997337E-35
 -0.7200000      9.3016214E-35
 -0.7100000      1.7334991E-34
 -0.7000000      2.6655875E-34
 -0.6900000      3.7003951E-34
 -0.6800000      4.7869454E-34
 -0.6700000      5.8556654E-34
 -0.6600000      6.8315833E-34
 -0.6500000      7.6154076E-34
 -0.6400000      8.0903830E-34
 -0.6300000      8.1204022E-34
 -0.6200000      7.5961653E-34
 -0.6100000      6.3986409E-34
 -0.6000000      4.4078402E-34
 -0.5900000      1.4996776E-34
 -0.5800000     -2.4154832E-34
 -0.5700000     -7.3706177E-34
 -0.5600000     -1.3341356E-33
 -0.5500000     -2.0204217E-33
 -0.5400000     -2.7745702E-33
 -0.5300000     -3.5640305E-33
 -0.5200000     -4.3459128E-33
 -0.5100000     -5.0679103E-33
 -0.5000000     -5.6650952E-33
 -0.4900000     -6.0597851E-33
 -0.4800000     -6.1670886E-33
 -0.4700000     -5.8963146E-33
 -0.4600000     -5.1582892E-33
 -0.4500000     -3.8700437E-33
 -0.4400000     -1.9607295E-33
 -0.4300000      6.1871323E-34
 -0.4200000      3.8883854E-33
 -0.4100000      7.8295726E-33
 -0.4000000      1.2374594E-32
 -0.3900000      1.7399916E-32
 -0.3800000      2.2720235E-32
 -0.3700000      2.8081199E-32
 -0.3600000      3.3159887E-32
 -0.3500000      3.7566384E-32
 -0.3400000      4.0848693E-32
 -0.3300000      4.2510093E-32
 -0.3200000      4.2023476E-32
 -0.3100000      3.8853180E-32
 -0.3000000      3.2491205E-32
 -0.2900000      2.2490222E-32
 -0.2800000      8.5023389E-33
 -0.2700000     -9.6716252E-33
 -0.2600000     -3.2037805E-32
 -0.2500000     -5.8362901E-32
 -0.2400000     -8.8130279E-32
 -0.2300000     -1.2050410E-31
 -0.2200000     -1.5430022E-31
 -0.2100000     -1.8797323E-31
 -0.2000000     -2.1961923E-31
 -0.1900000     -2.4699828E-31
 -0.1800000     -2.6758154E-31
 -0.1700000     -2.7862435E-31
 -0.1600000     -2.7726594E-31
 -0.1500000     -2.6065696E-31
 -0.1400000     -2.2611349E-31
 -0.1300000     -1.7129495E-31
 -0.1200000     -9.4401077E-32
 -0.1100000      5.6185511E-33
 -0.1000000      1.2885060E-31
 -9.0000004E-02  2.7421006E-31
 -7.9999998E-02  4.3924961E-31
 -7.0000000E-02  6.2000011E-31
 -5.9999999E-02  8.1085544E-31
 -5.0000001E-02  1.0045161E-30
 -3.9999999E-02  1.1920063E-30
 -2.9999999E-02  1.3627756E-30
 -2.0000000E-02  1.5048975E-30
 -9.9999998E-03  1.6053740E-30
 -3.4694470E-17  1.6505483E-30
  9.9999998E-03  1.6266310E-30
  2.0000000E-02  1.5203303E-30
  2.9999999E-02  1.3195831E-30
  3.9999999E-02  1.0143677E-30
  5.0000001E-02  5.9758094E-31
  5.9999999E-02  6.5953896E-32
  7.0000000E-02 -5.7902430E-31
  7.9999998E-02 -1.3302068E-30
  9.0000004E-02 -2.1739502E-30
  0.1000000     -3.0893744E-30
  0.1100000     -4.0477582E-30
  0.1200000     -5.0121044E-30
  0.1300000     -5.9369070E-30
  0.1400000     -6.7681444E-30
  0.1500000     -7.4435184E-30
  0.1600000     -7.8929401E-30
  0.1700000     -8.0392792E-30
  0.1800000     -7.7993384E-30
  0.1900000     -7.0850516E-30
  0.2000000     -5.8048604E-30
  0.2100000     -3.8652301E-30
  0.2200000     -1.1722558E-30
  0.2300000      2.3667076E-30
  0.2400000      6.8414411E-30
  0.2500000      1.2337342E-29
  0.2600000      1.8934052E-29
  0.2700000      2.6704265E-29
  0.2800000      3.5712775E-29
  0.2900000      4.6015751E-29
  0.3000000      5.7660254E-29
  0.3100000      7.0684006E-29
  0.3200000      8.5115336E-29
  0.3300000      1.0097328E-28
  0.3400000      1.1826772E-28
  0.3500000      1.3699961E-28
  0.3600000      1.5716088E-28
  0.3700000      1.7873442E-28
  0.3800000      2.0169354E-28
  0.3900000      2.2600116E-28
  0.4000000      2.5160857E-28
  0.4100000      2.7845365E-28
  0.4200000      3.0645886E-28
  0.4300000      3.3552844E-28
  0.4400000      3.6554562E-28
  0.4500000      3.9636960E-28
  0.4600000      4.2783263E-28
  0.4700000      4.5973705E-28
  0.4800000      4.9185323E-28
  0.4900000      5.2391809E-28
  0.5000000      5.5563517E-28
  0.5100000      5.8667567E-28
  0.5200000      6.1668171E-28
  0.5300000      6.4527127E-28
  0.5400000      6.7204574E-28
  0.5500000      6.9659913E-28
  0.5600000      7.1853033E-28
  0.5700000      7.3745711E-28
  0.5800000      7.5303264E-28
  0.5900000      7.6496247E-28
  0.6000000      7.7302369E-28
  0.6100000      7.7708408E-28
  0.6200000      7.7712101E-28
  0.6300000      7.7323921E-28
  0.6400000      7.6568643E-28
  0.6500000      7.5486680E-28
  0.6600000      7.4135014E-28
  0.6700000      7.2587597E-28
  0.6800000      7.0935380E-28
  0.6900000      6.9285725E-28
  0.7000000      6.7761168E-28
  0.7100000      6.6497657E-28
  0.7200000      6.5642231E-28
  0.7300000      6.5350178E-28
  0.7400000      6.5781760E-28
  0.7500000      6.7098624E-28
  0.7600000      6.9460031E-28
  0.7700000      7.3019077E-28
  0.7800000      7.7919047E-28
  0.7900000      8.4290048E-28
  0.8000000      9.2246228E-28
  0.8100000      1.0188349E-27
  0.8200000      1.1327811E-27
  0.8300000      1.2648613E-27
  0.8400000      1.4154374E-27
  0.8500000      1.5846860E-27
  0.8600000      1.7726209E-27
  0.8700000      1.9791237E-27
  0.8800000      2.2039824E-27
  0.8900000      2.4469325E-27
  0.9000000      2.7077030E-27
  0.9100000      2.9860619E-27
  0.9200000      3.2818578E-27
  0.9300000      3.5950575E-27
  0.9400000      3.9257701E-27
  0.9500000      4.2742664E-27
  0.9600000      4.6409785E-27
  0.9700000      5.0264903E-27
  0.9800000      5.4315053E-27
  0.9900000      5.8568046E-27
   1.000000      6.3031874E-27
   1.010000      6.7713971E-27
   1.020000      7.2620432E-27
   1.030000      7.7755123E-27
   1.040000      8.3118807E-27
   1.050000      8.8708326E-27
   1.060000      9.4515844E-27
   1.070000      1.0052830E-26
   1.080000      1.0672703E-26
   1.090000      1.1308757E-26
   1.100000      1.1957988E-26
   1.110000      1.2616890E-26
   1.120000      1.3281523E-26
   1.130000      1.3947631E-26
   1.140000      1.4610781E-26
   1.150000      1.5266528E-26
   1.160000      1.5910591E-26
   1.170000      1.6539051E-26
   1.180000      1.7148537E-26
   1.190000      1.7736414E-26
   1.200000      1.8300938E-26
   1.210000      1.8841396E-26
   1.220000      1.9358184E-26
   1.230000      1.9852859E-26
   1.240000      2.0328126E-26
   1.250000      2.0787759E-26
   1.260000      2.1236482E-26
   1.270000      2.1679771E-26
   1.280000      2.2123607E-26
   1.290000      2.2574202E-26
   1.300000      2.3037687E-26
   1.310000      2.3519772E-26
   1.320000      2.4025404E-26
   1.330000      2.4558468E-26
   1.340000      2.5121505E-26
   1.350000      2.5715496E-26
   1.360000      2.6339708E-26
   1.370000      2.6991628E-26
   1.380000      2.7666997E-26
   1.390000      2.8359956E-26
   1.400000      2.9063269E-26
   1.410000      2.9768649E-26
   1.420000      3.0467173E-26
   1.430000      3.1149784E-26
   1.440000      3.1807799E-26
   1.450000      3.2433465E-26
   1.460000      3.3020476E-26
   1.470000      3.3564491E-26
   1.480000      3.4063510E-26
   1.490000      3.4518208E-26
   1.500000      3.4932089E-26
   1.510000      3.5311491E-26
   1.520000      3.5665437E-26
   1.530000      3.6005297E-26
   1.540000      3.6344279E-26
   1.550000      3.6696777E-26
   1.560000      3.7077510E-26
   1.570000      3.7500639E-26
   1.580000      3.7978824E-26
   1.590000      3.8522158E-26
   1.600000      3.9137282E-26
   1.610000      3.9826509E-26
   1.620000      4.0587109E-26
   1.630000      4.1410837E-26
   1.640000      4.2283678E-26
   1.650000      4.3185864E-26
   1.660000      4.4092252E-26
   1.670000      4.4972954E-26
   1.680000      4.5794282E-26
   1.690000      4.6519987E-26
   1.700000      4.7112687E-26
   1.710000      4.7535498E-26
   1.720000      4.7753766E-26
   1.730000      4.7736799E-26
   1.740000      4.7459441E-26
   1.750000      4.6903614E-26
   1.760000      4.6059517E-26
   1.770000      4.4926396E-26
   1.780000      4.3513031E-26
   1.790000      4.1837654E-26
   1.800000      3.9927301E-26
   1.810000      3.7816809E-26
   1.820000      3.5547265E-26
   1.830000      3.3163904E-26
   1.840000      3.0713822E-26
   1.850000      2.8243365E-26
   1.860000      2.5795346E-26
   1.870000      2.3406412E-26
   1.880000      2.1104380E-26
   1.890000      1.8906036E-26
   1.900000      1.6815467E-26
   1.910000      1.4822829E-26
   1.920000      1.2903882E-26
   1.930000      1.1020395E-26
   1.940000      9.1211572E-27
   1.950000      7.1439706E-27
   1.960000      5.0184492E-27
   1.970000      2.6692721E-27
   1.980000      2.0071715E-29
   1.990000     -3.0023305E-27
   2.000000     -6.4636389E-27
   2.010000     -1.0417844E-26
   2.020000     -1.4903277E-26
   2.030000     -1.9939336E-26
   2.040000     -2.5524091E-26
   2.050000     -3.1632771E-26
   2.060000     -3.8217424E-26
   2.070000     -4.5207887E-26
   2.080000     -5.2513897E-26
   2.090000     -6.0028685E-26
   2.100000     -6.7633600E-26
   2.110000     -7.5203571E-26
   2.120000     -8.2613409E-26
   2.130000     -8.9744545E-26
   2.140000     -9.6491796E-26
   2.150000     -1.0276982E-25
   2.160000     -1.0851881E-25
   2.170000     -1.1370941E-25
   2.180000     -1.1834581E-25
   2.190000     -1.2246754E-25
   2.200000     -1.2614925E-25
   2.210000     -1.2949843E-25
   2.220000     -1.3265115E-25
   2.230000     -1.3576603E-25
   2.240000     -1.3901632E-25
   2.250000     -1.4258069E-25
   2.260000     -1.4663291E-25
   2.270000     -1.5133119E-25
   2.280000     -1.5680758E-25
   2.290000     -1.6315794E-25
   2.300000     -1.7043310E-25
   2.310000     -1.7863196E-25
   2.320000     -1.8769677E-25
   2.330000     -1.9751107E-25
   2.340000     -2.0790084E-25
   2.350000     -2.1863832E-25
   2.360000     -2.2944895E-25
   2.370000     -2.4002160E-25
   2.380000     -2.5002091E-25
   2.390000     -2.5910141E-25
   2.400000     -2.6692339E-25
   2.410000     -2.7316902E-25
   2.420000     -2.7755822E-25
   2.430000     -2.7986295E-25
   2.440000     -2.7991997E-25
   2.450000     -2.7764029E-25
   2.460000     -2.7301515E-25
   2.470000     -2.6611789E-25
   2.480000     -2.5710138E-25
   2.490000     -2.4619077E-25
   2.500000     -2.3367182E-25
   2.510000     -2.1987538E-25
   2.520000     -2.0515830E-25
   2.530000     -1.8988194E-25
   2.540000     -1.7438918E-25
   2.550000     -1.5898109E-25
   2.560000     -1.4389479E-25
   2.570000     -1.2928381E-25
   2.580000     -1.1520183E-25
   2.590000     -1.0159114E-25
   2.600000     -8.8277159E-26
   2.610000     -7.4969248E-26
   2.620000     -6.1268133E-26
   2.630000     -4.6680422E-26
   2.640000     -3.0639425E-26
   2.650000     -1.2531685E-26
   2.660000      8.2715902E-27
   2.670000      3.2379834E-26
   2.680000      6.0346947E-26
   2.690000      9.2635326E-26
   2.700000      1.2958173E-25
   2.710000      1.7136742E-25
   2.720000      2.1799417E-25
   2.730000      2.6926746E-25
   2.740000      3.2478870E-25
   2.750000      3.8395667E-25
   2.760000      4.4597926E-25
   2.770000      5.0989459E-25
   2.780000      5.7460170E-25
   2.790000      6.3889889E-25
   2.800000      7.0152838E-25
   2.810000      7.6122484E-25
   2.820000      8.1676568E-25
   2.830000      8.6702026E-25
   2.840000      9.1099541E-25
   2.850000      9.4787396E-25
   2.860000      9.7704427E-25
   2.870000      9.9811878E-25
   2.880000      1.0109403E-24
   2.890000      1.0155734E-24
   2.900000      1.0122834E-24
   2.910000      1.0014998E-24
   2.920000      9.8376980E-25
   2.930000      9.5969948E-25
   2.940000      9.2988912E-25
   2.950000      8.9486340E-25
   2.960000      8.5500117E-25
   2.970000      8.1046810E-25
   2.980000      7.6115793E-25
   2.990000      7.0664321E-25
   3.000000      6.4614058E-25
   3.010000      5.7849364E-25
   3.020000      5.0217515E-25
   3.030000      4.1530869E-25
   3.040000      3.1571020E-25
   3.050000      2.0094979E-25
   3.060000      6.8428765E-26
   3.070000     -8.4527999E-26
   3.080000     -2.6057141E-25
   3.090000     -4.6222156E-25
   3.100000     -6.9176145E-25
   3.110000     -9.5113719E-25
   3.120000     -1.2418699E-24
   3.130000     -1.5649824E-24
   3.140000     -1.9209471E-24
   3.150000     -2.3096579E-24
   3.160000     -2.7304292E-24
   3.170000     -3.1820223E-24
   3.180000     -3.6626954E-24
   3.190000     -4.1702820E-24
   3.200000     -4.7022894E-24
   3.210000     -5.2560142E-24
   3.220000     -5.8286649E-24
   3.230000     -6.4174907E-24
   3.240000     -7.0199091E-24
   3.250000     -7.6336145E-24
   3.260000     -8.2566774E-24
   3.270000     -8.8876083E-24
   3.280000     -9.5254039E-24
   3.290000     -1.0169544E-23
   3.300000     -1.0819960E-23
   3.310000     -1.1476969E-23
   3.320000     -1.2141161E-23
   3.330000     -1.2813262E-23
   3.340000     -1.3493967E-23
   3.350000     -1.4183759E-23
   3.360000     -1.4882702E-23
   3.370000     -1.5590255E-23
   3.380000     -1.6305078E-23
   3.390000     -1.7024863E-23
   3.400000     -1.7746196E-23
   3.410000     -1.8464454E-23
   3.420000     -1.9173746E-23
   3.430000     -1.9866905E-23
   3.440000     -2.0535532E-23
   3.450000     -2.1170092E-23
   3.460000     -2.1760059E-23
   3.470000     -2.2294101E-23
   3.480000     -2.2760302E-23
   3.490000     -2.3146408E-23
   3.500000     -2.3440088E-23
   3.510000     -2.3629186E-23
   3.520000     -2.3701976E-23
   3.530000     -2.3647368E-23
   3.540000     -2.3455089E-23
   3.550000     -2.3115807E-23
   3.560000     -2.2621203E-23
   3.570000     -2.1963978E-23
   3.580000     -2.1137790E-23
   3.590000     -2.0137134E-23
   3.600000     -1.8957167E-23
   3.610000     -1.7593476E-23
   3.620000     -1.6041816E-23
   3.630000     -1.4297831E-23
   3.640000     -1.2356757E-23
   3.650000     -1.0213164E-23
   3.660000     -7.8607047E-24
   3.670000     -5.2919219E-24
   3.680000     -2.4981203E-24
   3.690000      5.3068029E-25
   3.700000      3.8057111E-24
   3.710000      7.3393268E-24
   3.720000      1.1144785E-23
   3.730000      1.5235930E-23
   3.740000      1.9626815E-23
   3.750000      2.4331246E-23
   3.760000      2.9362271E-23
   3.770000      3.4731659E-23
   3.780000      4.0449360E-23
   3.790000      4.6522980E-23
   3.800000      5.2957312E-23
   3.810000      5.9753910E-23
   3.820000      6.6910765E-23
   3.830000      7.4422078E-23
   3.840000      8.2278098E-23
   3.850000      9.0465130E-23
   3.860000      9.8965617E-23
   3.870000      1.0775836E-22
   3.880000      1.1681875E-22
   3.890000      1.2611917E-22
   3.900000      1.3562940E-22
   3.910000      1.4531700E-22
   3.920000      1.5514776E-22
   3.930000      1.6508610E-22
   3.940000      1.7509531E-22
   3.950000      1.8513789E-22
   3.960000      1.9517552E-22
   3.970000      2.0516920E-22
   3.980000      2.1507895E-22
   3.990000      2.2486358E-22
   4.000000      2.3448031E-22
   4.010000      2.4388416E-22
   4.020000      2.5302730E-22
   4.030000      2.6185835E-22
   4.040000      2.7032168E-22
   4.050000      2.7835663E-22
   4.060000      2.8589665E-22
   4.070000      2.9286892E-22
   4.080000      2.9919361E-22
   4.090000      3.0478362E-22
   4.100000      3.0954430E-22
   4.110000      3.1337347E-22
   4.120000      3.1616157E-22
   4.130000      3.1779215E-22
   4.140000      3.1814223E-22
   4.150000      3.1708334E-22
   4.160000      3.1448216E-22
   4.170000      3.1020177E-22
   4.180000      3.0410257E-22
   4.190000      2.9604347E-22
   4.200000      2.8588302E-22
   4.210000      2.7348043E-22
   4.220000      2.5869652E-22
   4.230000      2.4139459E-22
   4.240000      2.2144093E-22
   4.250000      1.9870547E-22
   4.260000      1.7306206E-22
   4.270000      1.4438848E-22
   4.280000      1.1256653E-22
   4.290000      7.7481716E-23
   4.300000      3.9023106E-23
   4.310000     -2.9169952E-24
   4.320000     -4.8443314E-23
   4.330000     -9.7657856E-23
   4.340000     -1.5065996E-22
   4.350000     -2.0754626E-22
   4.360000     -2.6841034E-22
   4.370000     -3.3334207E-22
   4.380000     -4.0242685E-22
   4.390000     -4.7574437E-22
   4.400000     -5.5336697E-22
   4.410000     -6.3535817E-22
   4.420000     -7.2177027E-22
   4.430000     -8.1264220E-22
   4.440000     -9.0799723E-22
   4.450000     -1.0078399E-21
   4.460000     -1.1121538E-21
   4.470000     -1.2208988E-21
   4.480000     -1.3340087E-21
   4.490000     -1.4513887E-21
   4.500000     -1.5729131E-21
   4.510000     -1.6984241E-21
   4.520000     -1.8277293E-21
   4.530000     -1.9606012E-21
   4.540000     -2.0967760E-21
   4.550000     -2.2359530E-21
   4.560000     -2.3777937E-21
   4.570000     -2.5219226E-21
   4.580000     -2.6679263E-21
   4.590000     -2.8153545E-21
   4.600000     -2.9637187E-21
   4.610000     -3.1124940E-21
   4.620000     -3.2611182E-21
   4.630000     -3.4089906E-21
   4.640000     -3.5554743E-21
   4.650000     -3.6998924E-21
   4.660000     -3.8415294E-21
   4.670000     -3.9796289E-21
   4.680000     -4.1133927E-21
   4.690000     -4.2419785E-21
   4.700000     -4.3644989E-21
   4.710000     -4.4800191E-21
   4.720000     -4.5875566E-21
   4.730000     -4.6860779E-21
   4.740000     -4.7744978E-21
   4.750000     -4.8516792E-21
   4.760000     -4.9164324E-21
   4.770000     -4.9675136E-21
   4.780000     -5.0036285E-21
   4.790000     -5.0234315E-21
   4.800000     -5.0255281E-21
   4.810000     -5.0084784E-21
   4.820000     -4.9708001E-21
   4.830000     -4.9109721E-21
   4.840000     -4.8274398E-21
   4.850000     -4.7186191E-21
   4.860000     -4.5829049E-21
   4.870000     -4.4186740E-21
   4.880000     -4.2242918E-21
   4.890000     -3.9981205E-21
   4.900000     -3.7385232E-21
   4.910000     -3.4438716E-21
   4.920000     -3.1125536E-21
   4.930000     -2.7429776E-21
   4.940000     -2.3335801E-21
   4.950000     -1.8828327E-21
   4.960000     -1.3892482E-21
   4.970000     -8.5138726E-22
   4.980000     -2.6786445E-22
   4.990000      3.6264299E-22
   5.000000      1.0413876E-21
   5.010000      1.7695439E-21
   5.020000      2.5482014E-21
   5.030000      3.3783516E-21
   5.040000      4.2608804E-21
   5.050000      5.1965558E-21
   5.060000      6.1860153E-21
   5.070000      7.2297540E-21
   5.080000      8.3281110E-21
   5.090000      9.4812557E-21
   5.100000      1.0689171E-20
   5.110000      1.1951641E-20
   5.120000      1.3268231E-20
   5.130000      1.4638274E-20
   5.140000      1.6060857E-20
   5.150000      1.7534798E-20
   5.160000      1.9058631E-20
   5.170000      2.0630599E-20
   5.180000      2.2248630E-20
   5.190000      2.3910329E-20
   5.200000      2.5612956E-20
   5.210000      2.7353419E-20
   5.220000      2.9128257E-20
   5.230000      3.0933634E-20
   5.240000      3.2765316E-20
   5.250000      3.4618672E-20
   5.260000      3.6488665E-20
   5.270000      3.8369823E-20
   5.280000      4.0256250E-20
   5.290000      4.2141618E-20
   5.300000      4.4019140E-20
   5.310000      4.5881576E-20
   5.320000      4.7721222E-20
   5.330000      4.9529917E-20
   5.340000      5.1299008E-20
   5.350000      5.3019376E-20
   5.360000      5.4681414E-20
   5.370000      5.6275023E-20
   5.380000      5.7789649E-20
   5.390000      5.9214222E-20
   5.400000      6.0537207E-20
   5.410000      6.1746609E-20
   5.420000      6.2829964E-20
   5.430000      6.3774339E-20
   5.440000      6.4566384E-20
   5.450000      6.5192327E-20
   5.460000      6.5637990E-20
   5.470000      6.5888820E-20
   5.480000      6.5929927E-20
   5.490000      6.5746092E-20
   5.500000      6.5321813E-20
   5.510000      6.4641341E-20
   5.520000      6.3688720E-20
   5.530000      6.2447819E-20
   5.540000      6.0902394E-20
   5.550000      5.9036119E-20
   5.560000      5.6832646E-20
   5.570000      5.4275663E-20
   5.580000      5.1348949E-20
   5.590000      4.8036414E-20
   5.600000      4.4322205E-20
   5.610000      4.0190732E-20
   5.620000      3.5626756E-20
   5.630000      3.0615463E-20
   5.640000      2.5142539E-20
   5.650000      1.9194262E-20
   5.660000      1.2757569E-20
   5.670000      5.8201623E-21
   5.680000     -1.6293902E-21
   5.690000     -9.6015773E-21
   5.700000     -1.8105833E-20
   5.710000     -2.7150417E-20
   5.720000     -3.6742316E-20
   5.730000     -4.6887130E-20
   5.740000     -5.7588960E-20
   5.750000     -6.8850294E-20
   5.760000     -8.0671862E-20
   5.770000     -9.3052533E-20
   5.780000     -1.0598922E-19
   5.790000     -1.1947671E-19
   5.800000     -1.3350760E-19
   5.810000     -1.4807209E-19
   5.820000     -1.6315796E-19
   5.830000     -1.7875043E-19
   5.840000     -1.9483198E-19
   5.850000     -2.1138232E-19
   5.860000     -2.2837823E-19
   5.870000     -2.4579351E-19
   5.880000     -2.6359878E-19
   5.890000     -2.8176152E-19
   5.900000     -3.0024586E-19
   5.910000     -3.1901249E-19
   5.920000     -3.3801862E-19
   5.930000     -3.5721792E-19
   5.940000     -3.7656030E-19
   5.950000     -3.9599204E-19
   5.960000     -4.1545550E-19
   5.970000     -4.3488922E-19
   5.980000     -4.5422788E-19
   5.990000     -4.7340208E-19
   6.000000     -4.9233842E-19
   6.010000     -5.1095949E-19
   6.020000     -5.2918394E-19
   6.030000     -5.4692624E-19
   6.040000     -5.6409690E-19
   6.050000     -5.8060252E-19
   6.060000     -5.9634563E-19
   6.070000     -6.1122505E-19
   6.080000     -6.2513580E-19
   6.090000     -6.3796930E-19
   6.100000     -6.4961347E-19
   6.110000     -6.5995292E-19
   6.120000     -6.6886910E-19
   6.130000     -6.7624047E-19
   6.140000     -6.8194290E-19
   6.150000     -6.8584962E-19
   6.160000     -6.8783185E-19
   6.170000     -6.8775886E-19
   6.180000     -6.8549833E-19
   6.190000     -6.8091668E-19
   6.200000     -6.7387938E-19
   6.210000     -6.6425142E-19
   6.220000     -6.5189773E-19
   6.230000     -6.3668350E-19
   6.240000     -6.1847452E-19
   6.250000     -5.9713796E-19
   6.260000     -5.7254237E-19
   6.270000     -5.4455879E-19
   6.280000     -5.1306079E-19
   6.290000     -4.7792511E-19
   6.300000     -4.3903247E-19
   6.310000     -3.9626806E-19
   6.320000     -3.4952196E-19
   6.330000     -2.9869006E-19
   6.340000     -2.4367469E-19
   6.350000     -1.8438540E-19
   6.360000     -1.2073955E-19
   6.370000     -5.2663135E-20
   6.380000      1.9908384E-20
   6.390000      9.7029352E-20
   6.400000      1.7874290E-19
   6.410000      2.6508021E-19
   6.420000      3.5605987E-19
   6.430000      4.5168678E-19
   6.440000      5.5195131E-19
   6.450000      6.5682866E-19
   6.460000      7.6627763E-19
   6.470000      8.8024032E-19
   6.480000      9.9864068E-19
   6.490000      1.1213845E-18
   6.500000      1.2483575E-18
   6.510000      1.3794259E-18
   6.520000      1.5144346E-18
   6.530000      1.6532071E-18
   6.540000      1.7955446E-18
   6.550000      1.9412256E-18
   6.560000      2.0900044E-18
   6.570000      2.2416123E-18
   6.580000      2.3957549E-18
   6.590000      2.5521134E-18
   6.600000      2.7103435E-18
   6.610000      2.8700742E-18
   6.620000      3.0309087E-18
   6.630000      3.1924233E-18
   6.640000      3.3541675E-18
   6.650000      3.5156636E-18
   6.660000      3.6764063E-18
   6.670000      3.8358631E-18
   6.680000      3.9934746E-18
   6.690000      4.1486532E-18
   6.700000      4.3007854E-18
   6.710000      4.4492304E-18
   6.720000      4.5933211E-18
   6.730000      4.7323648E-18
   6.740000      4.8656430E-18
   6.750000      4.9924143E-18
   6.760000      5.1119121E-18
   6.770000      5.2233494E-18
   6.780000      5.3259174E-18
   6.790000      5.4187874E-18
   6.800000      5.5011126E-18
   6.810000      5.5720301E-18
   6.820000      5.6306627E-18
   6.830000      5.6761196E-18
   6.840000      5.7074999E-18
   6.850000      5.7238946E-18
   6.860000      5.7243876E-18
   6.870000      5.7080603E-18
   6.880000      5.6739925E-18
   6.890000      5.6212663E-18
   6.900000      5.5489691E-18
   6.910000      5.4561942E-18
   6.920000      5.3420482E-18
   6.930000      5.2056498E-18
   6.940000      5.0461355E-18
   6.950000      4.8626639E-18
   6.960000      4.6544163E-18
   6.970000      4.4206037E-18
   6.980000      4.1604691E-18
   6.990000      3.8732902E-18
   7.000000      3.5583858E-18
   7.010000      3.2151197E-18
   7.020000      2.8429029E-18
   7.030000      2.4412000E-18
   7.040000      2.0095333E-18
   7.050000      1.5474885E-18
   7.060000      1.0547169E-18