  -2.600000      0.0000000E+00
  -2.590000      0.0000000E+00
  -2.580000      0.0000000E+00
  -2.570000      0.0000000E+00
  -2.560000      0.0000000E+00
  -2.550000      0.0000000E+00
  -2.540000      0.0000000E+00
  -2.530000      0.0000000E+00
  -2.520000      0.0000000E+00
  -2.510000      0.0000000E+00
  -2.500000      0.0000000E+00
  -2.490000      0.0000000E+00
  -2.480000      0.0000000E+00
  -2.470000      0.0000000E+00
  -2.460000      0.0000000E+00
  -2.450000      0.0000000E+00
  -2.440000      0.0000000E+00
  -2.430000      0.0000000E+00
  -2.420000      0.0000000E+00
  -2.410000      0.0000000E+00
  -2.400000      0.0000000E+00
  -2.390000      0.0000000E+00
  -2.380000      0.0000000E+00
  -2.370000      0.0000000E+00
  -2.360000      0.0000000E+00
  -2.350000      0.0000000E+00
  -2.340000      0.0000000E+00
  -2.330000      0.0000000E+00
  -2.320000      0.0000000E+00
  -2.310000      0.0000000E+00
  -2.300000      0.0000000E+00
  -2.290000      0.0000000E+00
  -2.280000      0.0000000E+00
  -2.270000      0.0000000E+00
  -2.260000      0.0000000E+00
  -2.250000      0.0000000E+00
  -2.240000      0.0000000E+00
  -2.230000      0.0000000E+00
  -2.220000      0.0000000E+00
  -2.210000      0.0000000E+00
  -2.200000      0.0000000E+00
  -2.190000      0.0000000E+00
  -2.180000      0.0000000E+00
  -2.170000      0.0000000E+00
  -2.160000      0.0000000E+00
  -2.150000      0.0000000E+00
  -2.140000      0.0000000E+00
  -2.130000      0.0000000E+00
  -2.120000      0.0000000E+00
  -2.110000      0.0000000E+00
  -2.100000      0.0000000E+00
  -2.090000      0.0000000E+00
  -2.080000      0.0000000E+00
  -2.070000      0.0000000E+00
  -2.060000      0.0000000E+00
  -2.050000      0.0000000E+00
  -2.040000      0.0000000E+00
  -2.030000      0.0000000E+00
  -2.020000      0.0000000E+00
  -2.010000      0.0000000E+00
  -2.000000      0.0000000E+00
  -1.990000      0.0000000E+00
  -1.980000      0.0000000E+00
  -1.970000      0.0000000E+00
  -1.960000      0.0000000E+00
  -1.950000      0.0000000E+00
  -1.940000      0.0000000E+00
  -1.930000      0.0000000E+00
  -1.920000      0.0000000E+00
  -1.910000      0.0000000E+00
  -1.900000      0.0000000E+00
  -1.890000      0.0000000E+00
  -1.880000      0.0000000E+00
  -1.870000      0.0000000E+00
  -1.860000      0.0000000E+00
  -1.850000      0.0000000E+00
  -1.840000      0.0000000E+00
  -1.830000      0.0000000E+00
  -1.820000      0.0000000E+00
  -1.810000      0.0000000E+00
  -1.800000      0.0000000E+00
  -1.790000      0.0000000E+00
  -1.780000      0.0000000E+00
  -1.770000      0.0000000E+00
  -1.760000      0.0000000E+00
  -1.750000      0.0000000E+00
  -1.740000      0.0000000E+00
  -1.730000      0.0000000E+00
  -1.720000      0.0000000E+00
  -1.710000      0.0000000E+00
  -1.700000      0.0000000E+00
  -1.690000      0.0000000E+00
  -1.680000      0.0000000E+00
  -1.670000      0.0000000E+00
  -1.660000      0.0000000E+00
  -1.650000      0.0000000E+00
  -1.640000      0.0000000E+00
  -1.630000      0.0000000E+00
  -1.620000      0.0000000E+00
  -1.610000      0.0000000E+00
  -1.600000      0.0000000E+00
  -1.590000      0.0000000E+00
  -1.580000      0.0000000E+00
  -1.570000      0.0000000E+00
  -1.560000      0.0000000E+00
  -1.550000      0.0000000E+00
  -1.540000      0.0000000E+00
  -1.530000      0.0000000E+00
  -1.520000      0.0000000E+00
  -1.510000      0.0000000E+00
  -1.500000      0.0000000E+00
  -1.490000      0.0000000E+00
  -1.480000      0.0000000E+00
  -1.470000      0.0000000E+00
  -1.460000      0.0000000E+00
  -1.450000      0.0000000E+00
  -1.440000      0.0000000E+00
  -1.430000      0.0000000E+00
  -1.420000      0.0000000E+00
  -1.410000      0.0000000E+00
  -1.400000      0.0000000E+00
  -1.390000      0.0000000E+00
  -1.380000      0.0000000E+00
  -1.370000      0.0000000E+00
  -1.360000      0.0000000E+00
  -1.350000      0.0000000E+00
  -1.340000      0.0000000E+00
  -1.330000      0.0000000E+00
  -1.320000      0.0000000E+00
  -1.310000      0.0000000E+00
  -1.300000      0.0000000E+00
  -1.290000      0.0000000E+00
  -1.280000      0.0000000E+00
  -1.270000      0.0000000E+00
  -1.260000      1.2480135E-38
  -1.250000      1.8338758E-38
  -1.240000      2.1709133E-38
  -1.230000      2.4441473E-38
  -1.220000      2.7100961E-38
  -1.210000      2.4294712E-38
  -1.200000      0.0000000E+00
  -1.190000     -3.7031125E-38
  -1.180000     -9.6376152E-38
  -1.170000     -1.3397098E-37
  -1.160000     -1.6398154E-37
  -1.150000     -1.5337483E-37
  -1.140000     -6.4090840E-38
  -1.130000      9.5609765E-38
  -1.120000      2.5751772E-37
  -1.110000      3.8825066E-37
  -1.100000      5.1424246E-37
  -1.090000      6.1271961E-37
  -1.080000      6.3356062E-37
  -1.070000      5.5397534E-37
  -1.060000      3.7271104E-37
  -1.050000      8.3841811E-38
  -1.040000     -3.1357533E-37
  -1.030000     -8.2304326E-37
  -1.020000     -1.4071101E-36
  -1.010000     -2.0249130E-36
  -1.000000     -2.6386736E-36
 -0.9900000     -3.1900939E-36
 -0.9800000     -3.9790394E-36
 -0.9700000     -5.0097135E-36
 -0.9600000     -5.9842502E-36
 -0.9500000     -6.6814119E-36
 -0.9400000     -6.7110539E-36
 -0.9300000     -5.1388500E-36
 -0.9200000     -1.5332376E-36
 -0.9100000      4.0368936E-36
 -0.9000000      1.0583667E-35
 -0.8900000      1.7940822E-35
 -0.8800000      2.4883479E-35
 -0.8700000      3.0576938E-35
 -0.8600000      3.5838071E-35
 -0.8500000      3.9533987E-35
 -0.8400000      4.0376584E-35
 -0.8300000      3.9590687E-35
 -0.8200000      3.7793380E-35
 -0.8100000      3.3294747E-35
 -0.8000000      2.5503323E-35
 -0.7900000      1.4060129E-35
 -0.7800000     -1.8239032E-36
 -0.7700000     -2.2789593E-35
 -0.7600000     -4.8961590E-35
 -0.7500000     -8.1945766E-35
 -0.7400000     -1.2234352E-34
 -0.7300000     -1.6922593E-34
 -0.7200000     -2.1946888E-34
 -0.7100000     -2.6974170E-34
 -0.7000000     -3.1554993E-34
 -0.6900000     -3.5109174E-34
 -0.6800000     -3.7137473E-34
 -0.6700000     -3.6315906E-34
 -0.6600000     -3.1528460E-34
 -0.6500000     -2.2755550E-34
 -0.6400000     -1.0188744E-34
 -0.6300000      6.7540967E-35
 -0.6200000      2.8204159E-34
 -0.6100000      5.3684129E-34
 -0.6000000      8.3568061E-34
 -0.5900000      1.1700274E-33
 -0.5800000      1.5196292E-33
 -0.5700000      1.8704508E-33
 -0.5600000      2.1914280E-33
 -0.5500000      2.4505169E-33
 -0.5400000      2.6229132E-33
 -0.5300000      2.6630532E-33
 -0.5200000      2.5283701E-33
 -0.5100000      2.1787329E-33
 -0.5000000      1.5745811E-33
 -0.4900000      6.8471894E-34
 -0.4800000     -5.1705446E-34
 -0.4700000     -2.0403087E-33
 -0.4600000     -3.8753782E-33
 -0.4500000     -5.9878859E-33
 -0.4400000     -8.3133253E-33
 -0.4300000     -1.0754569E-32
 -0.4200000     -1.3181609E-32
 -0.4100000     -1.5428731E-32
 -0.4000000     -1.7300263E-32
 -0.3900000     -1.8571884E-32
 -0.3800000     -1.8992559E-32
 -0.3700000     -1.8301687E-32
 -0.3600000     -1.6237724E-32
 -0.3500000     -1.2556252E-32
 -0.3400000     -7.0527633E-33
 -0.3300000      4.2016654E-34
 -0.3200000      9.9287976E-33
 -0.3100000      2.1428892E-32
 -0.3000000      3.4744466E-32
 -0.2900000      4.9547363E-32
 -0.2800000      6.5337026E-32
 -0.2700000      8.1428745E-32
 -0.2600000      9.6947774E-32
 -0.2500000      1.1083494E-31
 -0.2400000      1.2186438E-31
 -0.2300000      1.2867246E-31
 -0.2200000      1.2980254E-31
 -0.2100000      1.2376537E-31
 -0.2000000      1.0911358E-31
 -0.1900000      8.4531662E-32
 -0.1800000      4.8939086E-32
 -0.1700000      1.6019270E-33
 -0.1600000     -5.7749110E-32
 -0.1500000     -1.2879968E-31
 -0.1400000     -2.1053814E-31
 -0.1300000     -3.0115394E-31
 -0.1200000     -3.9795628E-31
 -0.1100000     -4.9732039E-31
 -0.1000000     -5.9467027E-31
 -9.0000004E-02 -6.8450578E-31
 -7.9999998E-02 -7.6048033E-31
 -7.0000000E-02 -8.1553447E-31
 -5.9999999E-02 -8.4210149E-31
 -5.0000001E-02 -8.3236379E-31
 -3.9999999E-02 -7.7857331E-31
 -2.9999999E-02 -6.7344673E-31
 -2.0000000E-02 -5.1060578E-31
 -9.9999998E-03 -2.8506568E-31
 -3.4694470E-17  6.2419749E-33
  9.9999998E-03  3.6392724E-31
  2.0000000E-02  7.8559872E-31
  2.9999999E-02  1.2653390E-30
  3.9999999E-02  1.7932181E-30
  5.0000001E-02  2.3548678E-30
  5.9999999E-02  2.9311369E-30
  7.0000000E-02  3.4978461E-30
  7.9999998E-02  4.0256608E-30
  9.0000004E-02  4.4800903E-30
  0.1000000      4.8216281E-30
  0.1100000      5.0060347E-30
  0.1200000      4.9847524E-30
  0.1300000      4.7054565E-30
  0.1400000      4.1127207E-30
  0.1500000      3.1487762E-30
  0.1600000      1.7543405E-30
  0.1700000     -1.3050365E-31
  0.1800000     -2.5654239E-30
  0.1900000     -5.6089659E-30
  0.2000000     -9.3177273E-30
  0.2100000     -1.3745597E-29
  0.2200000     -1.8943090E-29
  0.2300000     -2.4956770E-29
  0.2400000     -3.1828770E-29
  0.2500000     -3.9596422E-29
  0.2600000     -4.8291926E-29
  0.2700000     -5.7942078E-29
  0.2800000     -6.8567999E-29
  0.2900000     -8.0184823E-29
  0.3000000     -9.2801235E-29
  0.3100000     -1.0641894E-28
  0.3200000     -1.2103190E-28
  0.3300000     -1.3662530E-28
  0.3400000     -1.5317430E-28
  0.3500000     -1.7064246E-28
  0.3600000     -1.8897997E-28
  0.3700000     -2.0812155E-28
  0.3800000     -2.2798424E-28
  0.3900000     -2.4846526E-28
  0.4000000     -2.6943972E-28
  0.4100000     -2.9075880E-28
  0.4200000     -3.1224806E-28
  0.4300000     -3.3370677E-28
  0.4400000     -3.5490738E-28
  0.4500000     -3.7559690E-28
  0.4600000     -3.9549884E-28
  0.4700000     -4.1431659E-28
  0.4800000     -4.3173875E-28
  0.4900000     -4.4744562E-28
  0.5000000     -4.6111737E-28
  0.5100000     -4.7244381E-28
  0.5200000     -4.8113539E-28
  0.5300000     -4.8693590E-28
  0.5400000     -4.8963538E-28
  0.5500000     -4.8908360E-28
  0.5600000     -4.8520367E-28
  0.5700000     -4.7800522E-28
  0.5800000     -4.6759591E-28
  0.5900000     -4.5419134E-28
  0.6000000     -4.3812321E-28
  0.6100000     -4.1984392E-28
  0.6200000     -3.9992848E-28
  0.6300000     -3.7907273E-28
  0.6400000     -3.5808738E-28
  0.6500000     -3.3788811E-28
  0.6600000     -3.1948164E-28
  0.6700000     -3.0394846E-28
  0.6800000     -2.9242280E-28
  0.6900000     -2.8606983E-28
  0.7000000     -2.8606045E-28
  0.7100000     -2.9354588E-28
  0.7200000     -3.0963262E-28
  0.7300000     -3.3535847E-28
  0.7400000     -3.7167085E-28
  0.7500000     -4.1940803E-28
  0.7600000     -4.7928471E-28
  0.7700000     -5.5188264E-28
  0.7800000     -6.3764680E-28
  0.7900000     -7.3688588E-28
  0.8000000     -8.4977932E-28
  0.8100000     -9.7638880E-28
  0.8200000     -1.1166739E-27
  0.8300000     -1.2705117E-27
  0.8400000     -1.4377169E-27
  0.8500000     -1.6180631E-27
  0.8600000     -1.8113015E-27
  0.8700000     -2.0171805E-27
  0.8800000     -2.2354585E-27
  0.8900000     -2.4659083E-27
  0.9000000     -2.7083188E-27
  0.9100000     -2.9624876E-27
  0.9200000     -3.2282053E-27
  0.9300000     -3.5052295E-27
  0.9400000     -3.7932565E-27
  0.9500000     -4.0918874E-27
  0.9600000     -4.4005820E-27
  0.9700000     -4.7186231E-27
  0.9800000     -5.0450744E-27
  0.9900000     -5.3787475E-27
   1.000000     -5.7181727E-27
   1.010000     -6.0615829E-27
   1.020000     -6.4069130E-27
   1.030000     -6.7518104E-27
   1.040000     -7.0936722E-27
   1.050000     -7.4296885E-27
   1.060000     -7.7569209E-27
   1.070000     -8.0723851E-27
   1.080000     -8.3731530E-27
   1.090000     -8.6564712E-27
   1.100000     -8.9198775E-27
   1.110000     -9.1613321E-27
   1.120000     -9.3793397E-27
   1.130000     -9.5730505E-27
   1.140000     -9.7423598E-27
   1.150000     -9.8879793E-27
   1.160000     -1.0011474E-26
   1.170000     -1.0115264E-26
   1.180000     -1.0202602E-26
   1.190000     -1.0277501E-26
   1.200000     -1.0344623E-26
   1.210000     -1.0409132E-26
   1.220000     -1.0476512E-26
   1.230000     -1.0552367E-26
   1.240000     -1.0642201E-26
   1.250000     -1.0751183E-26
   1.260000     -1.0883923E-26
   1.270000     -1.1044268E-26
   1.280000     -1.1235106E-26
   1.290000     -1.1458234E-26
   1.300000     -1.1714239E-26
   1.310000     -1.2002462E-26
   1.320000     -1.2321009E-26
   1.330000     -1.2666850E-26
   1.340000     -1.3035951E-26
   1.350000     -1.3423457E-26
   1.360000     -1.3823986E-26
   1.370000     -1.4231883E-26
   1.380000     -1.4641519E-26
   1.390000     -1.5047627E-26
   1.400000     -1.5445593E-26
   1.410000     -1.5831740E-26
   1.420000     -1.6203525E-26
   1.430000     -1.6559657E-26
   1.440000     -1.6900155E-26
   1.450000     -1.7226323E-26
   1.460000     -1.7540603E-26
   1.470000     -1.7846288E-26
   1.480000     -1.8147160E-26
   1.490000     -1.8447069E-26
   1.500000     -1.8749384E-26
   1.510000     -1.9056451E-26
   1.520000     -1.9369000E-26
   1.530000     -1.9685552E-26
   1.540000     -2.0001910E-26
   1.550000     -2.0310756E-26
   1.560000     -2.0601318E-26
   1.570000     -2.0859142E-26
   1.580000     -2.1066162E-26
   1.590000     -2.1200865E-26
   1.600000     -2.1238645E-26
   1.610000     -2.1152408E-26
   1.620000     -2.0913320E-26
   1.630000     -2.0491725E-26
   1.640000     -1.9858140E-26
   1.650000     -1.8984364E-26
   1.660000     -1.7844650E-26
   1.670000     -1.6416832E-26
   1.680000     -1.4683293E-26
   1.690000     -1.2631824E-26
   1.700000     -1.0256310E-26
   1.710000     -7.5571711E-27
   1.720000     -4.5415000E-27
   1.730000     -1.2228345E-27
   1.740000      2.3793724E-27
   1.750000      6.2404853E-27
   1.760000      1.0331840E-26
   1.770000      1.4622150E-26
   1.780000      1.9078991E-26
   1.790000      2.3670456E-26
   1.800000      2.8366779E-26
   1.810000      3.3141908E-26
   1.820000      3.7974966E-26
   1.830000      4.2851501E-26
   1.840000      4.7764206E-26
   1.850000      5.2713362E-26
   1.860000      5.7706771E-26
   1.870000      6.2759142E-26
   1.880000      6.7891188E-26
   1.890000      7.3127998E-26
   1.900000      7.8497157E-26
   1.910000      8.4026586E-26
   1.920000      8.9741840E-26
   1.930000      9.5663664E-26
   1.940000      1.0180560E-25
   1.950000      1.0817141E-25
   1.960000      1.1475313E-25
   1.970000      1.2152969E-25
   1.980000      1.2846597E-25
   1.990000      1.3551252E-25
   2.000000      1.4260616E-25
   2.010000      1.4967139E-25
   2.020000      1.5662268E-25
   2.030000      1.6336713E-25
   2.040000      1.6980813E-25
   2.050000      1.7584916E-25
   2.060000      1.8139811E-25
   2.070000      1.8637159E-25
   2.080000      1.9069919E-25
   2.090000      1.9432713E-25
   2.100000      1.9722112E-25
   2.110000      1.9936872E-25
   2.120000      2.0078078E-25
   2.130000      2.0149130E-25
   2.140000      2.0155620E-25
   2.150000      2.0105088E-25
   2.160000      2.0006656E-25
   2.170000      1.9870550E-25
   2.180000      1.9707538E-25
   2.190000      1.9528301E-25
   2.200000      1.9342786E-25
   2.210000      1.9159562E-25
   2.220000      1.8985200E-25
   2.230000      1.8823735E-25
   2.240000      1.8676257E-25
   2.250000      1.8540629E-25
   2.260000      1.8411374E-25
   2.270000      1.8279749E-25
   2.280000      1.8134037E-25
   2.290000      1.7960002E-25
   2.300000      1.7741514E-25
   2.310000      1.7461357E-25
   2.320000      1.7102152E-25
   2.330000      1.6647333E-25
   2.340000      1.6082171E-25
   2.350000      1.5394778E-25
   2.360000      1.4577032E-25
   2.370000      1.3625337E-25
   2.380000      1.2541224E-25
   2.390000      1.1331679E-25
   2.400000      1.0009255E-25
   2.410000      8.5918841E-26
   2.420000      7.1023834E-26
   2.430000      5.5676952E-26
   2.440000      4.0178578E-26
   2.450000      2.4847646E-26
   2.460000      1.0007593E-26
   2.470000     -4.0283132E-27
   2.480000     -1.6971889E-26
   2.490000     -2.8574366E-26
   2.500000     -3.8639036E-26
   2.510000     -4.7031681E-26
   2.520000     -5.3687858E-26
   2.530000     -5.8616649E-26
   2.540000     -6.1900313E-26
   2.550000     -6.3689647E-26
   2.560000     -6.4195319E-26
   2.570000     -6.3675114E-26
   2.580000     -6.2417701E-26
   2.590000     -6.0723813E-26
   2.600000     -5.8885391E-26
   2.610000     -5.7164004E-26
   2.620000     -5.5769779E-26
   2.630000     -5.4842085E-26
   2.640000     -5.4433011E-26
   2.650000     -5.4494696E-26
   2.660000     -5.4871722E-26
   2.670000     -5.5299371E-26
   2.680000     -5.5407729E-26
   2.690000     -5.4732254E-26
   2.700000     -5.2730816E-26
   2.710000     -4.8805995E-26
   2.720000     -4.2332313E-26
   2.730000     -3.2686954E-26
   2.740000     -1.9282887E-26
   2.750000     -1.6021118E-27
   2.760000      2.0772003E-26
   2.770000      4.8125603E-26
   2.780000      8.0589642E-26
   2.790000      1.1812181E-25
   2.800000      1.6049591E-25
   2.810000      2.0729946E-25
   2.820000      2.5794028E-25
   2.830000      3.1166280E-25
   2.840000      3.6757198E-25
   2.850000      4.2466493E-25
   2.860000      4.8186977E-25
   2.870000      5.3808715E-25
   2.880000      5.9223589E-25
   2.890000      6.4329620E-25
   2.900000      6.9035190E-25
   2.910000      7.3262745E-25
   2.920000      7.6951552E-25
   2.930000      8.0059708E-25
   2.940000      8.2564978E-25
   2.950000      8.4464373E-25
   2.960000      8.5772472E-25
   2.970000      8.6518645E-25
   2.980000      8.6743007E-25
   2.990000      8.6491429E-25
   3.000000      8.5809972E-25
   3.010000      8.4738640E-25
   3.020000      8.3305339E-25
   3.030000      8.1519678E-25
   3.040000      7.9367547E-25
   3.050000      7.6806776E-25
   3.060000      7.3763849E-25
   3.070000      7.0132106E-25
   3.080000      6.5771746E-25
   3.090000      6.0511642E-25
   3.100000      5.4152890E-25
   3.110000      4.6474024E-25
   3.120000      3.7237896E-25
   3.130000      2.6200016E-25
   3.140000      1.3117548E-25
   3.150000     -2.2411994E-26
   3.160000     -2.0087034E-25
   3.170000     -4.0600696E-25
   3.180000     -6.3924614E-25
   3.190000     -9.0156103E-25
   3.200000     -1.1934206E-24
   3.210000     -1.5147615E-24
   3.220000     -1.8649839E-24
   3.230000     -2.2429666E-24
   3.240000     -2.6471090E-24
   3.250000     -3.0753940E-24
   3.260000     -3.5254734E-24
   3.270000     -3.9947636E-24
   3.280000     -4.4805540E-24
   3.290000     -4.9801168E-24
   3.300000     -5.4908154E-24
   3.310000     -6.0102015E-24
   3.320000     -6.5360956E-24
   3.330000     -7.0666483E-24
   3.340000     -7.6003695E-24
   3.350000     -8.1361331E-24
   3.360000     -8.6731423E-24
   3.370000     -9.2108669E-24
   3.380000     -9.7489442E-24
   3.390000     -1.0287056E-23
   3.400000     -1.0824775E-23
   3.410000     -1.1361402E-23
   3.420000     -1.1895789E-23
   3.430000     -1.2426161E-23
   3.440000     -1.2949948E-23
   3.450000     -1.3463634E-23
   3.460000     -1.3962631E-23
   3.470000     -1.4441194E-23
   3.480000     -1.4892356E-23
   3.490000     -1.5307937E-23
   3.500000     -1.5678571E-23
   3.510000     -1.5993795E-23
   3.520000     -1.6242184E-23
   3.530000     -1.6411506E-23
   3.540000     -1.6488930E-23
   3.550000     -1.6461236E-23
   3.560000     -1.6315052E-23
   3.570000     -1.6037080E-23
   3.580000     -1.5614314E-23
   3.590000     -1.5034223E-23
   3.600000     -1.4284919E-23
   3.610000     -1.3355264E-23
   3.620000     -1.2234915E-23
   3.630000     -1.0914348E-23
   3.640000     -9.3848060E-24
   3.650000     -7.6381867E-24
   3.660000     -5.6668782E-24
   3.670000     -3.4635770E-24
   3.680000     -1.0210658E-24
   3.690000      1.6680241E-24
   3.700000      4.6114544E-24
   3.710000      7.8176124E-24
   3.720000      1.1295687E-23
   3.730000      1.5055819E-23
   3.740000      1.9109176E-23
   3.750000      2.3467978E-23
   3.760000      2.8145415E-23
   3.770000      3.3155502E-23
   3.780000      3.8512855E-23
   3.790000      4.4232387E-23
   3.800000      5.0328878E-23
   3.810000      5.6816577E-23
   3.820000      6.3708722E-23
   3.830000      7.1017020E-23
   3.840000      7.8751157E-23
   3.850000      8.6918285E-23
   3.860000      9.5522624E-23
   3.870000      1.0456501E-22
   3.880000      1.1404264E-22
   3.890000      1.2394880E-22
   3.900000      1.3427271E-22
   3.910000      1.4499955E-22
   3.920000      1.5611049E-22
   3.930000      1.6758286E-22
   3.940000      1.7939035E-22
   3.950000      1.9150331E-22
   3.960000      2.0388904E-22
   3.970000      2.1651215E-22
   3.980000      2.2933492E-22
   3.990000      2.4231740E-22
   4.000000      2.5541789E-22
   4.010000      2.6859285E-22
   4.020000      2.8179702E-22
   4.030000      2.9498321E-22
   4.040000      3.0810213E-22
   4.050000      3.2110206E-22
   4.060000      3.3392846E-22
   4.070000      3.4652325E-22
   4.080000      3.5882417E-22
   4.090000      3.7076432E-22
   4.100000      3.8227111E-22
   4.110000      3.9326589E-22
   4.120000      4.0366300E-22
   4.130000      4.1336940E-22
   4.140000      4.2228413E-22
   4.150000      4.3029795E-22
   4.160000      4.3729329E-22
   4.170000      4.4314429E-22
   4.180000      4.4771686E-22
   4.190000      4.5086912E-22
   4.200000      4.5245230E-22
   4.210000      4.5231108E-22
   4.220000      4.5028448E-22
   4.230000      4.4620709E-22
   4.240000      4.3990979E-22
   4.250000      4.3122096E-22
   4.260000      4.1996746E-22
   4.270000      4.0597556E-22
   4.280000      3.8907193E-22
   4.290000      3.6908414E-22
   4.300000      3.4584129E-22
   4.310000      3.1917464E-22
   4.320000      2.8891764E-22
   4.330000      2.5490597E-22
   4.340000      2.1697762E-22
   4.350000      1.7497286E-22
   4.360000      1.2873398E-22
   4.370000      7.8105099E-23
   4.380000      2.2932128E-23
   4.390000     -3.6937266E-23
   4.400000     -1.0165363E-22
   4.410000     -1.7136539E-22
   4.420000     -2.4621858E-22
   4.430000     -3.2635580E-22
   4.440000     -4.1191472E-22
   4.450000     -5.0302729E-22
   4.460000     -5.9981767E-22
   4.470000     -7.0240059E-22
   4.480000     -8.1087868E-22
   4.490000     -9.2534005E-22
   4.500000     -1.0458557E-21
   4.510000     -1.1724772E-21
   4.520000     -1.3052336E-21
   4.530000     -1.4441286E-21
   4.540000     -1.5891389E-21
   4.550000     -1.7402105E-21
   4.560000     -1.8972571E-21
   4.570000     -2.0601589E-21
   4.580000     -2.2287598E-21
   4.590000     -2.4028666E-21
   4.600000     -2.5822476E-21
   4.610000     -2.7666332E-21
   4.620000     -2.9557128E-21
   4.630000     -3.1491368E-21
   4.640000     -3.3465139E-21
   4.650000     -3.5474137E-21
   4.660000     -3.7513642E-21
   4.670000     -3.9578528E-21
   4.680000     -4.1663246E-21
   4.690000     -4.3761829E-21
   4.700000     -4.5867872E-21
   4.710000     -4.7974533E-21
   4.720000     -5.0074497E-21
   4.730000     -5.2159978E-21
   4.740000     -5.4222695E-21
   4.750000     -5.6253843E-21
   4.760000     -5.8244077E-21
   4.770000     -6.0183480E-21
   4.780000     -6.2061548E-21
   4.790000     -6.3867164E-21
   4.800000     -6.5588593E-21
   4.810000     -6.7213449E-21
   4.820000     -6.8728708E-21
   4.830000     -7.0120690E-21
   4.840000     -7.1375081E-21
   4.850000     -7.2476919E-21
   4.860000     -7.3410631E-21
   4.870000     -7.4160054E-21
   4.880000     -7.4708441E-21
   4.890000     -7.5038554E-21
   4.900000     -7.5132653E-21
   4.910000     -7.4972573E-21
   4.920000     -7.4539790E-21
   4.930000     -7.3815409E-21
   4.940000     -7.2780310E-21
   4.950000     -7.1415123E-21
   4.960000     -6.9700363E-21
   4.970000     -6.7616474E-21
   4.980000     -6.5143834E-21
   4.990000     -6.2262862E-21
   5.000000     -5.8954063E-21
   5.010000     -5.5198049E-21
   5.020000     -5.0975651E-21
   5.030000     -4.6267980E-21
   5.040000     -4.1056439E-21
   5.050000     -3.5322834E-21
   5.060000     -2.9049420E-21
   5.070000     -2.2218954E-21
   5.080000     -1.4814804E-21
   5.090000     -6.8210472E-22
   5.100000      1.7774457E-22
   5.110000      1.0994903E-21
   5.120000      2.0844548E-21
   5.130000      3.1338458E-21
   5.140000      4.2487442E-21
   5.150000      5.4300849E-21
   5.160000      6.6786486E-21
   5.170000      7.9950391E-21
   5.180000      9.3796700E-21
   5.190000      1.0832746E-20
   5.200000      1.2354247E-20
   5.210000      1.3943908E-20
   5.220000      1.5601202E-20
   5.230000      1.7325333E-20
   5.240000      1.9115215E-20
   5.250000      2.0969449E-20
   5.260000      2.2886318E-20
   5.270000      2.4863771E-20
   5.280000      2.6899406E-20
   5.290000      2.8990461E-20
   5.300000      3.1133802E-20
   5.310000      3.3325915E-20
   5.320000      3.5562882E-20
   5.330000      3.7840395E-20
   5.340000      4.0153715E-20
   5.350000      4.2497677E-20
   5.360000      4.4866690E-20
   5.370000      4.7254725E-20
   5.380000      4.9655287E-20
   5.390000      5.2061420E-20
   5.400000      5.4465682E-20
   5.410000      5.6860182E-20
   5.420000      5.9236517E-20
   5.430000      6.1585813E-20
   5.440000      6.3898675E-20
   5.450000      6.6165227E-20
   5.460000      6.8375085E-20
   5.470000      7.0517360E-20
   5.480000      7.2580653E-20
   5.490000      7.4553071E-20
   5.500000      7.6422209E-20
   5.510000      7.8175185E-20
   5.520000      7.9798644E-20
   5.530000      8.1278754E-20
   5.540000      8.2601222E-20
   5.550000      8.3751371E-20
   5.560000      8.4714106E-20
   5.570000      8.5473936E-20
   5.580000      8.6015067E-20
   5.590000      8.6321376E-20
   5.600000      8.6376487E-20
   5.610000      8.6163792E-20
   5.620000      8.5666501E-20
   5.630000      8.4867671E-20
   5.640000      8.3750273E-20
   5.650000      8.2297214E-20
   5.660000      8.0491394E-20
   5.670000      7.8315780E-20
   5.680000      7.5753459E-20
   5.690000      7.2787668E-20
   5.700000      6.9401901E-20
   5.710000      6.5579952E-20
   5.720000      6.1305942E-20
   5.730000      5.6564439E-20
   5.740000      5.1340538E-20
   5.750000      4.5619896E-20
   5.760000      3.9388842E-20
   5.770000      3.2634450E-20
   5.780000      2.5344623E-20
   5.790000      1.7508224E-20
   5.800000      9.1151337E-21
   5.810000      1.5633549E-22
   5.820000     -9.3759283E-21
   5.830000     -1.9488096E-20
   5.840000     -3.0185226E-20
   5.850000     -4.1470810E-20
   5.860000     -5.3346674E-20
   5.870000     -6.5812887E-20
   5.880000     -7.8867697E-20
   5.890000     -9.2507401E-20
   5.900000     -1.0672616E-19
   5.910000     -1.2151599E-19
   5.920000     -1.3686662E-19
   5.930000     -1.5276540E-19
   5.940000     -1.6919712E-19
   5.950000     -1.8614401E-19
   5.960000     -2.0358569E-19
   5.970000     -2.2149899E-19
   5.980000     -2.3985785E-19
   5.990000     -2.5863324E-19
   6.000000     -2.7779310E-19
   6.010000     -2.9730223E-19
   6.020000     -3.1712244E-19
   6.030000     -3.3721217E-19
   6.040000     -3.5752659E-19
   6.050000     -3.7801751E-19
   6.060000     -3.9863333E-19
   6.070000     -4.1931907E-19
   6.080000     -4.4001635E-19
   6.090000     -4.6066324E-19
   6.100000     -4.8119438E-19
   6.110000     -5.0154080E-19
   6.120000     -5.2163028E-19
   6.130000     -5.4138687E-19
   6.140000     -5.6073136E-19
   6.150000     -5.7958105E-19
   6.160000     -5.9784996E-19
   6.170000     -6.1544890E-19
   6.180000     -6.3228543E-19
   6.190000     -6.4826413E-19
   6.200000     -6.6328672E-19
   6.210000     -6.7725211E-19
   6.220000     -6.9005661E-19
   6.230000     -7.0159412E-19
   6.240000     -7.1175645E-19
   6.250000     -7.2043306E-19
   6.260000     -7.2751202E-19
   6.270000     -7.3287964E-19
   6.280000     -7.3642091E-19
   6.290000     -7.3801985E-19
   6.300000     -7.3755983E-19
   6.310000     -7.3492387E-19
   6.320000     -7.2999485E-19
   6.330000     -7.2265600E-19
   6.340000     -7.1279115E-19
   6.350000     -7.0028532E-19
   6.360000     -6.8502502E-19
   6.370000     -6.6689865E-19
   6.380000     -6.4579696E-19
   6.390000     -6.2161367E-19
   6.400000     -5.9424572E-19
   6.410000     -5.6359362E-19
   6.420000     -5.2956232E-19
   6.430000     -4.9206183E-19
   6.440000     -4.5100710E-19
   6.450000     -4.0631913E-19
   6.460000     -3.5792547E-19
   6.470000     -3.0576054E-19
   6.480000     -2.4976649E-19
   6.490000     -1.8989367E-19
   6.500000     -1.2610110E-19
   6.510000     -5.8357457E-20
   6.520000      1.3358578E-20
   6.530000      8.9057793E-20
   6.540000      1.6873951E-19
   6.550000      2.5239103E-19
   6.560000      3.3998726E-19
   6.570000      4.3148990E-19
   6.580000      5.2684715E-19
   6.590000      6.2599307E-19
   6.600000      7.2884678E-19
   6.610000      8.3531237E-19
   6.620000      9.4527843E-19
   6.630000      1.0586171E-18
   6.640000      1.1751837E-18
   6.650000      1.2948168E-18
   6.660000      1.4173376E-18
   6.670000      1.5425486E-18
   6.680000      1.6702347E-18
   6.690000      1.8001617E-18
   6.700000      1.9320768E-18
   6.710000      2.0657082E-18
   6.720000      2.2007643E-18
   6.730000      2.3369341E-18
   6.740000      2.4738877E-18
   6.750000      2.6112748E-18
   6.760000      2.7487261E-18
   6.770000      2.8858530E-18
   6.780000      3.0222477E-18
   6.790000      3.1574828E-18
   6.800000      3.2911130E-18
   6.810000      3.4226744E-18
   6.820000      3.5516852E-18
   6.830000      3.6776471E-18
   6.840000      3.8000429E-18
   6.850000      3.9183413E-18
   6.860000      4.0319951E-18
   6.870000      4.1404422E-18
   6.880000      4.2431086E-18
   6.890000      4.3394060E-18
   6.900000      4.4287362E-18
   6.910000      4.5104897E-18
   6.920000      4.5840493E-18
   6.930000      4.6487898E-18
   6.940000      4.7040802E-18
   6.950000      4.7492860E-18
   6.960000      4.7837695E-18
   6.970000      4.8068921E-18
   6.980000      4.8180173E-18
   6.990000      4.8165114E-18
   7.000000      4.8017450E-18
   7.010000      4.7730977E-18
   7.020000      4.7299556E-18
   7.030000      4.6717184E-18
   7.040000      4.5977970E-18
   7.050000      4.5076207E-18
   7.060000      4.4006368E-18