  -2.600000      0.0000000E+00
  -2.590000      0.0000000E+00
  -2.580000      0.0000000E+00
  -2.570000      0.0000000E+00
  -2.560000      0.0000000E+00
  -2.550000      0.0000000E+00
  -2.540000      0.0000000E+00
  -2.530000      0.0000000E+00
  -2.520000      0.0000000E+00
  -2.510000      0.0000000E+00
  -2.500000      0.0000000E+00
  -2.490000      0.0000000E+00
  -2.480000      0.0000000E+00
  -2.470000      0.0000000E+00
  -2.460000      0.0000000E+00
  -2.450000      0.0000000E+00
  -2.440000      0.0000000E+00
  -2.430000      0.0000000E+00
  -2.420000      0.0000000E+00
  -2.410000      0.0000000E+00
  -2.400000      0.0000000E+00
  -2.390000      0.0000000E+00
  -2.380000      0.0000000E+00
  -2.370000      0.0000000E+00
  -2.360000      0.0000000E+00
  -2.350000      0.0000000E+00
  -2.340000      0.0000000E+00
  -2.330000      0.0000000E+00
  -2.320000      0.0000000E+00
  -2.310000      0.0000000E+00
  -2.300000      0.0000000E+00
  -2.290000      0.0000000E+00
  -2.280000      0.0000000E+00
  -2.270000      0.0000000E+00
  -2.260000      0.0000000E+00
  -2.250000      0.0000000E+00
  -2.240000      0.0000000E+00
  -2.230000      0.0000000E+00
  -2.220000      0.0000000E+00
  -2.210000      0.0000000E+00
  -2.200000      0.0000000E+00
  -2.190000      0.0000000E+00
  -2.180000      0.0000000E+00
  -2.170000      0.0000000E+00
  -2.160000      0.0000000E+00
  -2.150000      0.0000000E+00
  -2.140000      0.0000000E+00
  -2.130000      0.0000000E+00
  -2.120000      0.0000000E+00
  -2.110000      0.0000000E+00
  -2.100000      0.0000000E+00
  -2.090000      0.0000000E+00
  -2.080000      0.0000000E+00
  -2.070000      0.0000000E+00
  -2.060000      0.0000000E+00
  -2.050000      0.0000000E+00
  -2.040000      0.0000000E+00
  -2.030000      0.0000000E+00
  -2.020000      0.0000000E+00
  -2.010000      0.0000000E+00
  -2.000000      0.0000000E+00
  -1.990000      0.0000000E+00
  -1.980000      0.0000000E+00
  -1.970000      0.0000000E+00
  -1.960000      0.0000000E+00
  -1.950000      0.0000000E+00
  -1.940000      0.0000000E+00
  -1.930000      0.0000000E+00
  -1.920000      0.0000000E+00
  -1.910000      0.0000000E+00
  -1.900000      0.0000000E+00
  -1.890000      0.0000000E+00
  -1.880000      0.0000000E+00
  -1.870000      0.0000000E+00
  -1.860000      0.0000000E+00
  -1.850000      0.0000000E+00
  -1.840000      0.0000000E+00
  -1.830000      0.0000000E+00
  -1.820000      0.0000000E+00
  -1.810000      0.0000000E+00
  -1.800000      0.0000000E+00
  -1.790000      0.0000000E+00
  -1.780000      0.0000000E+00
  -1.770000      0.0000000E+00
  -1.760000      0.0000000E+00
  -1.750000      0.0000000E+00
  -1.740000      0.0000000E+00
  -1.730000      0.0000000E+00
  -1.720000      0.0000000E+00
  -1.710000      0.0000000E+00
  -1.700000      0.0000000E+00
  -1.690000      0.0000000E+00
  -1.680000      0.0000000E+00
  -1.670000      0.0000000E+00
  -1.660000      0.0000000E+00
  -1.650000      0.0000000E+00
  -1.640000      0.0000000E+00
  -1.630000      0.0000000E+00
  -1.620000      0.0000000E+00
  -1.610000      0.0000000E+00
  -1.600000      0.0000000E+00
  -1.590000      0.0000000E+00
  -1.580000      0.0000000E+00
  -1.570000      0.0000000E+00
  -1.560000      0.0000000E+00
  -1.550000      0.0000000E+00
  -1.540000      0.0000000E+00
  -1.530000      0.0000000E+00
  -1.520000      0.0000000E+00
  -1.510000      0.0000000E+00
  -1.500000      0.0000000E+00
  -1.490000      0.0000000E+00
  -1.480000      0.0000000E+00
  -1.470000      0.0000000E+00
  -1.460000      0.0000000E+00
  -1.450000      0.0000000E+00
  -1.440000      0.0000000E+00
  -1.430000      0.0000000E+00
  -1.420000      0.0000000E+00
  -1.410000      0.0000000E+00
  -1.400000      0.0000000E+00
  -1.390000      0.0000000E+00
  -1.380000      0.0000000E+00
  -1.370000      0.0000000E+00
  -1.360000      0.0000000E+00
  -1.350000      0.0000000E+00
  -1.340000      0.0000000E+00
  -1.330000      0.0000000E+00
  -1.320000      0.0000000E+00
  -1.310000      0.0000000E+00
  -1.300000      0.0000000E+00
  -1.290000      0.0000000E+00
  -1.280000      0.0000000E+00
  -1.270000      0.0000000E+00
  -1.260000      0.0000000E+00
  -1.250000      0.0000000E+00
  -1.240000      0.0000000E+00
  -1.230000      0.0000000E+00
  -1.220000      0.0000000E+00
  -1.210000      0.0000000E+00
  -1.200000      0.0000000E+00
  -1.190000      0.0000000E+00
  -1.180000      0.0000000E+00
  -1.170000      0.0000000E+00
  -1.160000      0.0000000E+00
  -1.150000      0.0000000E+00
  -1.140000      0.0000000E+00
  -1.130000      0.0000000E+00
  -1.120000      0.0000000E+00
  -1.110000      0.0000000E+00
  -1.100000      0.0000000E+00
  -1.090000      0.0000000E+00
  -1.080000      0.0000000E+00
  -1.070000      0.0000000E+00
  -1.060000      0.0000000E+00
  -1.050000      0.0000000E+00
  -1.040000      0.0000000E+00
  -1.030000      0.0000000E+00
  -1.020000      0.0000000E+00
  -1.010000      0.0000000E+00
  -1.000000      0.0000000E+00
 -0.9900000      0.0000000E+00
 -0.9800000      0.0000000E+00
 -0.9700000      0.0000000E+00
 -0.9600000      0.0000000E+00
 -0.9500000      0.0000000E+00
 -0.9400000      0.0000000E+00
 -0.9300000      0.0000000E+00
 -0.9200000      0.0000000E+00
 -0.9100000      0.0000000E+00
 -0.9000000      0.0000000E+00
 -0.8900000      0.0000000E+00
 -0.8800000      0.0000000E+00
 -0.8700000      0.0000000E+00
 -0.8600000      0.0000000E+00
 -0.8500000      0.0000000E+00
 -0.8400000      0.0000000E+00
 -0.8300000      0.0000000E+00
 -0.8200000      0.0000000E+00
 -0.8100000      0.0000000E+00
 -0.8000000      0.0000000E+00
 -0.7900000      0.0000000E+00
 -0.7800000      0.0000000E+00
 -0.7700000      0.0000000E+00
 -0.7600000      0.0000000E+00
 -0.7500000      0.0000000E+00
 -0.7400000      0.0000000E+00
 -0.7300000      0.0000000E+00
 -0.7200000      0.0000000E+00
 -0.7100000      0.0000000E+00
 -0.7000000      0.0000000E+00
 -0.6900000      0.0000000E+00
 -0.6800000      0.0000000E+00
 -0.6700000      0.0000000E+00
 -0.6600000      0.0000000E+00
 -0.6500000      0.0000000E+00
 -0.6400000      0.0000000E+00
 -0.6300000      0.0000000E+00
 -0.6200000      0.0000000E+00
 -0.6100000      0.0000000E+00
 -0.6000000      0.0000000E+00
 -0.5900000      0.0000000E+00
 -0.5800000      0.0000000E+00
 -0.5700000      0.0000000E+00
 -0.5600000      0.0000000E+00
 -0.5500000      0.0000000E+00
 -0.5400000      0.0000000E+00
 -0.5300000      0.0000000E+00
 -0.5200000      0.0000000E+00
 -0.5100000      0.0000000E+00
 -0.5000000      0.0000000E+00
 -0.4900000      0.0000000E+00
 -0.4800000      0.0000000E+00
 -0.4700000      0.0000000E+00
 -0.4600000      0.0000000E+00
 -0.4500000      0.0000000E+00
 -0.4400000      0.0000000E+00
 -0.4300000      0.0000000E+00
 -0.4200000      0.0000000E+00
 -0.4100000      0.0000000E+00
 -0.4000000      0.0000000E+00
 -0.3900000      0.0000000E+00
 -0.3800000      0.0000000E+00
 -0.3700000      0.0000000E+00
 -0.3600000      0.0000000E+00
 -0.3500000      0.0000000E+00
 -0.3400000      0.0000000E+00
 -0.3300000      0.0000000E+00
 -0.3200000      0.0000000E+00
 -0.3100000      0.0000000E+00
 -0.3000000      0.0000000E+00
 -0.2900000      0.0000000E+00
 -0.2800000      0.0000000E+00
 -0.2700000      0.0000000E+00
 -0.2600000      0.0000000E+00
 -0.2500000      0.0000000E+00
 -0.2400000      0.0000000E+00
 -0.2300000      0.0000000E+00
 -0.2200000      0.0000000E+00
 -0.2100000      0.0000000E+00
 -0.2000000      0.0000000E+00
 -0.1900000      0.0000000E+00
 -0.1800000      0.0000000E+00
 -0.1700000      0.0000000E+00
 -0.1600000      0.0000000E+00
 -0.1500000      0.0000000E+00
 -0.1400000      0.0000000E+00
 -0.1300000      0.0000000E+00
 -0.1200000      0.0000000E+00
 -0.1100000      0.0000000E+00
 -0.1000000      0.0000000E+00
 -9.0000004E-02  0.0000000E+00
 -7.9999998E-02  0.0000000E+00
 -7.0000000E-02  0.0000000E+00
 -5.9999999E-02  0.0000000E+00
 -5.0000001E-02  0.0000000E+00
 -3.9999999E-02  0.0000000E+00
 -2.9999999E-02  0.0000000E+00
 -2.0000000E-02  0.0000000E+00
 -9.9999998E-03  0.0000000E+00
 -3.4694470E-17  0.0000000E+00
  9.9999998E-03  0.0000000E+00
  2.0000000E-02  0.0000000E+00
  2.9999999E-02  0.0000000E+00
  3.9999999E-02  0.0000000E+00
  5.0000001E-02  0.0000000E+00
  5.9999999E-02  0.0000000E+00
  7.0000000E-02  0.0000000E+00
  7.9999998E-02  0.0000000E+00
  9.0000004E-02  0.0000000E+00
  0.1000000      0.0000000E+00
  0.1100000      0.0000000E+00
  0.1200000      0.0000000E+00
  0.1300000      0.0000000E+00
  0.1400000      0.0000000E+00
  0.1500000      0.0000000E+00
  0.1600000      0.0000000E+00
  0.1700000      0.0000000E+00
  0.1800000      0.0000000E+00
  0.1900000      1.3268937E-38
  0.2000000      1.4836538E-38
  0.2100000      1.5781610E-38
  0.2200000      1.6063255E-38
  0.2300000      1.5836996E-38
  0.2400000      1.4962076E-38
  0.2500000      1.3247964E-38
  0.2600000      0.0000000E+00
  0.2700000      0.0000000E+00
  0.2800000      0.0000000E+00
  0.2900000      0.0000000E+00
  0.3000000     -1.8607598E-38
  0.3100000     -3.5434713E-38
  0.3200000     -5.8139980E-38
  0.3300000     -8.4502507E-38
  0.3400000     -1.1407117E-37
  0.3500000     -1.4425083E-37
  0.3600000     -1.7541208E-37
  0.3700000     -2.0943762E-37
  0.3800000     -2.4495130E-37
  0.3900000     -2.6602963E-37
  0.4000000     -2.6572951E-37
  0.4100000     -2.5202389E-37
  0.4200000     -2.2432957E-37
  0.4300000     -1.8367892E-37
  0.4400000     -1.1749836E-37
  0.4500000     -2.3690495E-38
  0.4600000      8.6198767E-38
  0.4700000      2.1155798E-37
  0.4800000      3.5187748E-37
  0.4900000      5.1115435E-37
  0.5000000      6.8554346E-37
  0.5100000      8.6063689E-37
  0.5200000      1.0275089E-36
  0.5300000      1.1908935E-36
  0.5400000      1.3402855E-36
  0.5500000      1.4656425E-36
  0.5600000      1.5804238E-36
  0.5700000      1.6646907E-36
  0.5800000      1.7060730E-36
  0.5900000      1.7122495E-36
  0.6000000      1.6840998E-36
  0.6100000      1.6887807E-36
  0.6200000      1.7472521E-36
  0.6300000      1.7911570E-36
  0.6400000      1.7327139E-36
  0.6500000      1.5674934E-36
  0.6600000      1.3583838E-36
  0.6700000      1.0793402E-36
  0.6800000      7.4595323E-37
  0.6900000      3.6877689E-37
  0.7000000     -8.1175808E-38
  0.7100000     -7.7531804E-37
  0.7200000     -1.7936247E-36
  0.7300000     -3.1221479E-36
  0.7400000     -4.8434859E-36
  0.7500000     -6.8906117E-36
  0.7600000     -9.1857393E-36
  0.7700000     -1.1695235E-35
  0.7800000     -1.4134307E-35
  0.7900000     -1.6431642E-35
  0.8000000     -1.8741296E-35
  0.8100000     -2.0993583E-35
  0.8200000     -2.3111948E-35
  0.8300000     -2.4892252E-35
  0.8400000     -2.6265916E-35
  0.8500000     -2.7391957E-35
  0.8600000     -2.8225993E-35
  0.8700000     -2.8703012E-35
  0.8800000     -2.8779066E-35
  0.8900000     -2.8535309E-35
  0.9000000     -2.7909355E-35
  0.9100000     -2.6882692E-35
  0.9200000     -2.5445989E-35
  0.9300000     -2.3356014E-35
  0.9400000     -2.0549636E-35
  0.9500000     -1.7376688E-35
  0.9600000     -1.3719730E-35
  0.9700000     -9.2613221E-36
  0.9800000     -4.2633374E-36
  0.9900000      1.1047390E-36
   1.000000      6.8824864E-36
   1.010000      1.2759433E-35
   1.020000      1.8752074E-35
   1.030000      2.5244315E-35
   1.040000      3.2630719E-35
   1.050000      4.1377901E-35
   1.060000      5.1011433E-35
   1.070000      6.0939487E-35
   1.080000      7.1734985E-35
   1.090000      8.3526737E-35
   1.100000      9.5940015E-35
   1.110000      1.0865469E-34
   1.120000      1.2061276E-34
   1.130000      1.3176970E-34
   1.140000      1.4236736E-34
   1.150000      1.5319100E-34
   1.160000      1.6240279E-34
   1.170000      1.6908109E-34
   1.180000      1.7172261E-34
   1.190000      1.6965863E-34
   1.200000      1.6461070E-34
   1.210000      1.5637043E-34
   1.220000      1.4553678E-34
   1.230000      1.3213918E-34
   1.240000      1.2017157E-34
   1.250000      1.1423838E-34
   1.260000      1.1059247E-34
   1.270000      1.0704196E-34
   1.280000      1.0547715E-34
   1.290000      1.0382478E-34
   1.300000      1.0042627E-34
   1.310000      9.6219728E-35
   1.320000      9.2047401E-35
   1.330000      8.7319905E-35
   1.340000      8.0767092E-35
   1.350000      7.4614659E-35
   1.360000      6.7514478E-35
   1.370000      6.0337471E-35
   1.380000      5.8537874E-35
   1.390000      5.8920162E-35
   1.400000      5.6987117E-35
   1.410000      5.3981490E-35
   1.420000      4.8612655E-35
   1.430000      3.7828984E-35
   1.440000      2.6661612E-35
   1.450000      1.2970614E-35
   1.460000     -5.9377966E-36
   1.470000     -2.7233153E-35
   1.480000     -4.9882246E-35
   1.490000     -7.1902562E-35
   1.500000     -9.7460730E-35
   1.510000     -1.2858183E-34
   1.520000     -1.6106674E-34
   1.530000     -1.9265700E-34
   1.540000     -2.2477950E-34
   1.550000     -2.5898136E-34
   1.560000     -2.9345920E-34
   1.570000     -3.2704301E-34
   1.580000     -3.6245606E-34
   1.590000     -3.9949644E-34
   1.600000     -4.3569409E-34
   1.610000     -4.6974903E-34
   1.620000     -5.0614114E-34
   1.630000     -5.4731641E-34
   1.640000     -5.8889728E-34
   1.650000     -6.3275653E-34
   1.660000     -6.7829078E-34
   1.670000     -7.2522083E-34
   1.680000     -7.7664085E-34
   1.690000     -8.3341043E-34
   1.700000     -8.9523923E-34
   1.710000     -9.6084697E-34
   1.720000     -1.0302304E-33
   1.730000     -1.1049676E-33
   1.740000     -1.1868753E-33
   1.750000     -1.2742566E-33
   1.760000     -1.3629894E-33
   1.770000     -1.4545314E-33
   1.780000     -1.5497189E-33
   1.790000     -1.6442730E-33
   1.800000     -1.7390912E-33
   1.810000     -1.8339172E-33
   1.820000     -1.9256757E-33
   1.830000     -2.0138090E-33
   1.840000     -2.0964800E-33
   1.850000     -2.1709647E-33
   1.860000     -2.2350218E-33
   1.870000     -2.2864851E-33
   1.880000     -2.3229218E-33
   1.890000     -2.3412202E-33
   1.900000     -2.3382553E-33
   1.910000     -2.3105012E-33
   1.920000     -2.2539616E-33
   1.930000     -2.1649724E-33
   1.940000     -2.0386193E-33
   1.950000     -1.8700383E-33
   1.960000     -1.6548716E-33
   1.970000     -1.3882049E-33
   1.980000     -1.0655964E-33
   1.990000     -6.8150640E-34
   2.000000     -2.3132774E-34
   2.010000      2.8928792E-34
   2.020000      8.8510519E-34
   2.030000      1.5590710E-33
   2.040000      2.3133859E-33
   2.050000      3.1493477E-33
   2.060000      4.0683808E-33
   2.070000      5.0710261E-33
   2.080000      6.1563299E-33
   2.090000      7.3224908E-33
   2.100000      8.5664423E-33
   2.110000      9.8842589E-33
   2.120000      1.1270508E-32
   2.130000      1.2718803E-32
   2.140000      1.4221689E-32
   2.150000      1.5770661E-32
   2.160000      1.7355655E-32
   2.170000      1.8965402E-32
   2.180000      2.0587546E-32
   2.190000      2.2208641E-32
   2.200000      2.3814014E-32
   2.210000      2.5387213E-32
   2.220000      2.6910651E-32
   2.230000      2.8365216E-32
   2.240000      2.9730080E-32
   2.250000      3.0982766E-32
   2.260000      3.2098969E-32
   2.270000      3.3052533E-32
   2.280000      3.3815364E-32
   2.290000      3.4357225E-32
   2.300000      3.4645824E-32
   2.310000      3.4647029E-32
   2.320000      3.4324588E-32
   2.330000      3.3640306E-32
   2.340000      3.2554596E-32
   2.350000      3.1026621E-32
   2.360000      2.9014624E-32
   2.370000      2.6476658E-32
   2.380000      2.3371051E-32
   2.390000      1.9656909E-32
   2.400000      1.5294993E-32
   2.410000      1.0248616E-32
   2.420000      4.4843317E-33
   2.430000     -2.0274056E-33
   2.440000     -9.3112869E-33
   2.450000     -1.7386433E-32
   2.460000     -2.6265722E-32
   2.470000     -3.5955310E-32
   2.480000     -4.6453679E-32
   2.490000     -5.7751550E-32
   2.500000     -6.9831782E-32
   2.510000     -8.2668833E-32
   2.520000     -9.6228371E-32
   2.530000     -1.1046749E-31
   2.540000     -1.2533483E-31
   2.550000     -1.4077060E-31
   2.560000     -1.5670654E-31
   2.570000     -1.7306565E-31
   2.580000     -1.8976249E-31
   2.590000     -2.0670311E-31
   2.600000     -2.2378504E-31
   2.610000     -2.4089702E-31
   2.620000     -2.5791855E-31
   2.630000     -2.7472008E-31
   2.640000     -2.9116217E-31
   2.650000     -3.0709480E-31
   2.660000     -3.2235718E-31
   2.670000     -3.3677730E-31
   2.680000     -3.5017128E-31
   2.690000     -3.6234301E-31
   2.700000     -3.7308409E-31
   2.710000     -3.8217357E-31
   2.720000     -3.8937830E-31
   2.730000     -3.9445354E-31
   2.740000     -3.9714378E-31
   2.750000     -3.9718393E-31
   2.760000     -3.9430122E-31
   2.770000     -3.8821724E-31
   2.780000     -3.7865029E-31
   2.790000     -3.6531861E-31
   2.800000     -3.4794339E-31
   2.810000     -3.2625242E-31
   2.820000     -2.9998392E-31
   2.830000     -2.6889043E-31
   2.840000     -2.3274266E-31
   2.850000     -1.9133306E-31
   2.860000     -1.4448116E-31
   2.870000     -9.2036012E-32
   2.880000     -3.3878370E-32
   2.890000      3.0074847E-32
   2.900000      9.9868366E-32
   2.910000      1.7550648E-31
   2.920000      2.5695131E-31
   2.930000      3.4412096E-31
   2.940000      4.3689020E-31
   2.950000      5.3508818E-31
   2.960000      6.3849703E-31
   2.970000      7.4685273E-31
   2.980000      8.5984421E-31
   2.990000      9.7711172E-31
   3.000000      1.0982467E-30
   3.010000      1.2227898E-30
   3.020000      1.3502297E-30
   3.030000      1.4800005E-30
   3.040000      1.6114796E-30
   3.050000      1.7439847E-30
   3.060000      1.8767702E-30
   3.070000      2.0090254E-30
   3.080000      2.1398703E-30
   3.090000      2.2683524E-30
   3.100000      2.3934451E-30
   3.110000      2.5140459E-30
   3.120000      2.6289749E-30
   3.130000      2.7369755E-30
   3.140000      2.8367161E-30
   3.150000      2.9267936E-30
   3.160000      3.0057364E-30
   3.170000      3.0720136E-30
   3.180000      3.1240417E-30
   3.190000      3.1601953E-30
   3.200000      3.1788192E-30
   3.210000      3.1782407E-30
   3.220000      3.1567854E-30
   3.230000      3.1127925E-30
   3.240000      3.0446314E-30
   3.250000      2.9507169E-30
   3.260000      2.8295294E-30
   3.270000      2.6796274E-30
   3.280000      2.4996656E-30
   3.290000      2.2884108E-30
   3.300000      2.0447544E-30
   3.310000      1.7677257E-30
   3.320000      1.4565039E-30
   3.330000      1.1104300E-30
   3.340000      7.2901400E-31
   3.350000      3.1194601E-31
   3.360000     -1.4089655E-31
   3.370000     -6.2944064E-31
   3.380000     -1.1534092E-30
   3.390000     -1.7123112E-30
   3.400000     -2.3054311E-30
   3.410000     -2.9318180E-30
   3.420000     -3.5902727E-30
   3.430000     -4.2793325E-30
   3.440000     -4.9972533E-30
   3.450000     -5.7419905E-30
   3.460000     -6.5111802E-30
   3.470000     -7.3021167E-30
   3.480000     -8.1117295E-30
   3.490000     -8.9365632E-30
   3.500000     -9.7727486E-30
   3.510000     -1.0615990E-29
   3.520000     -1.1461544E-29
   3.530000     -1.2304204E-29
   3.540000     -1.3138292E-29
   3.550000     -1.3957652E-29
   3.560000     -1.4755643E-29
   3.570000     -1.5525161E-29
   3.580000     -1.6258634E-29
   3.590000     -1.6948056E-29
   3.600000     -1.7585003E-29
   3.610000     -1.8160678E-29
   3.620000     -1.8665940E-29
   3.630000     -1.9091349E-29
   3.640000     -1.9427227E-29
   3.650000     -1.9663691E-29
   3.660000     -1.9790727E-29
   3.670000     -1.9798238E-29
   3.680000     -1.9676107E-29
   3.690000     -1.9414239E-29
   3.700000     -1.9002638E-29
   3.710000     -1.8431452E-29
   3.720000     -1.7691027E-29
   3.730000     -1.6771958E-29
   3.740000     -1.5665143E-29
   3.750000     -1.4361821E-29
   3.760000     -1.2853635E-29
   3.770000     -1.1132680E-29
   3.780000     -9.1915466E-30
   3.790000     -7.0233956E-30
   3.800000     -4.6220133E-30
   3.810000     -1.9818854E-30
   3.820000      9.0172096E-31
   3.830000      4.0326739E-30
   3.840000      7.4138741E-30
   3.850000      1.1047142E-29
   3.860000      1.4933103E-29
   3.870000      1.9071047E-29
   3.880000      2.3458794E-29
   3.890000      2.8092553E-29
   3.900000      3.2966763E-29
   3.910000      3.8073941E-29
   3.920000      4.3404539E-29
   3.930000      4.8946778E-29
   3.940000      5.4686534E-29
   3.950000      6.0607186E-29
   3.960000      6.6689483E-29
   3.970000      7.2911453E-29
   3.980000      7.9248310E-29
   3.990000      8.5672418E-29
   4.000000      9.2153196E-29
   4.010000      9.8657116E-29
   4.020000      1.0514767E-28
   4.030000      1.1158542E-28
   4.040000      1.1792794E-28
   4.050000      1.2412994E-28
   4.060000      1.3014332E-28
   4.070000      1.3591713E-28
   4.080000      1.4139774E-28
   4.090000      1.4652888E-28
   4.100000      1.5125172E-28
   4.110000      1.5550490E-28
   4.120000      1.5922466E-28
   4.130000      1.6234489E-28
   4.140000      1.6479728E-28
   4.150000      1.6651127E-28
   4.160000      1.6741425E-28
   4.170000      1.6743159E-28
   4.180000      1.6648686E-28
   4.190000      1.6450190E-28
   4.200000      1.6139699E-28
   4.210000      1.5709100E-28
   4.220000      1.5150177E-28
   4.230000      1.4454631E-28
   4.240000      1.3614112E-28
   4.250000      1.2620261E-28
   4.260000      1.1464756E-28
   4.270000      1.0139356E-28
   4.280000      8.6359517E-29
   4.290000      6.9466445E-29
   4.300000      5.0638013E-29
   4.310000      2.9801226E-29
   4.320000      6.8872158E-30
   4.330000     -1.8168069E-29
   4.340000     -4.5423052E-29
   4.350000     -7.4929629E-29
   4.360000     -1.0673245E-28
   4.370000     -1.4086799E-28
   4.380000     -1.7736390E-28
   4.390000     -2.1623824E-28
   4.400000     -2.5749842E-28
   4.410000     -3.0114069E-28
   4.420000     -3.4714923E-28
   4.430000     -3.9549568E-28
   4.440000     -4.4613806E-28
   4.450000     -4.9902029E-28
   4.460000     -5.5407132E-28
   4.470000     -6.1120480E-28
   4.480000     -6.7031789E-28
   4.490000     -7.3129091E-28
   4.500000     -7.9398638E-28
   4.510000     -8.5824812E-28
   4.520000     -9.2390056E-28
   4.530000     -9.9074805E-28
   4.540000     -1.0585738E-27
   4.550000     -1.1271388E-27
   4.560000     -1.1961815E-27
   4.570000     -1.2654163E-27
   4.580000     -1.3345327E-27
   4.590000     -1.4031951E-27
   4.600000     -1.4710410E-27
   4.610000     -1.5376811E-27
   4.620000     -1.6026984E-27
   4.630000     -1.6656474E-27
   4.640000     -1.7260540E-27
   4.650000     -1.7834152E-27
   4.660000     -1.8371991E-27
   4.670000     -1.8868445E-27
   4.680000     -1.9317622E-27
   4.690000     -1.9713349E-27
   4.700000     -2.0049181E-27
   4.710000     -2.0318405E-27
   4.720000     -2.0514058E-27
   4.730000     -2.0628942E-27
   4.740000     -2.0655635E-27
   4.750000     -2.0586510E-27
   4.760000     -2.0413750E-27
   4.770000     -2.0129375E-27
   4.780000     -1.9725253E-27
   4.790000     -1.9193140E-27
   4.800000     -1.8524680E-27
   4.810000     -1.7711460E-27
   4.820000     -1.6745019E-27
   4.830000     -1.5616878E-27
   4.840000     -1.4318574E-27
   4.850000     -1.2841687E-27
   4.860000     -1.1177884E-27
   4.870000     -9.3189510E-28
   4.880000     -7.2568304E-28
   4.890000     -4.9836745E-28
   4.900000     -2.4918791E-28
   4.910000      2.2586744E-29
   4.920000      3.1765126E-28
   4.930000      6.3665948E-28
   4.940000      9.8021890E-28
   4.950000      1.3488820E-27
   4.960000      1.7431405E-27
   4.970000      2.1634169E-27
   4.980000      2.6100584E-27
   4.990000      3.0833268E-27
   5.000000      3.5833903E-27
   5.010000      4.1103155E-27
   5.020000      4.6640581E-27
   5.030000      5.2444544E-27
   5.040000      5.8512101E-27
   5.050000      6.4838935E-27
   5.060000      7.1419237E-27
   5.070000      7.8245626E-27
   5.080000      8.5309051E-27
   5.090000      9.2598719E-27
   5.100000      1.0010200E-26
   5.110000      1.0780431E-26
   5.120000      1.1568906E-26
   5.130000      1.2373756E-26
   5.140000      1.3192896E-26
   5.150000      1.4024013E-26
   5.160000      1.4864562E-26
   5.170000      1.5711755E-26
   5.180000      1.6562565E-26
   5.190000      1.7413701E-26
   5.200000      1.8261617E-26
   5.210000      1.9102496E-26
   5.220000      1.9932253E-26
   5.230000      2.0746519E-26
   5.240000      2.1540647E-26
   5.250000      2.2309697E-26
   5.260000      2.3048445E-26
   5.270000      2.3751366E-26
   5.280000      2.4412643E-26
   5.290000      2.5026162E-26
   5.300000      2.5585514E-26
   5.310000      2.6083997E-26
   5.320000      2.6514610E-26
   5.330000      2.6870085E-26
   5.340000      2.7142864E-26
   5.350000      2.7325131E-26
   5.360000      2.7408803E-26
   5.370000      2.7385559E-26
   5.380000      2.7246858E-26
   5.390000      2.6983943E-26
   5.400000      2.6587873E-26
   5.410000      2.6049552E-26
   5.420000      2.5359735E-26
   5.430000      2.4509075E-26
   5.440000      2.3488139E-26
   5.450000      2.2287451E-26
   5.460000      2.0897523E-26
   5.470000      1.9308891E-26
   5.480000      1.7512171E-26
   5.490000      1.5498068E-26
   5.500000      1.3257455E-26
   5.510000      1.0781410E-26
   5.520000      8.0612471E-27
   5.530000      5.0885873E-27
   5.540000      1.8554139E-27
   5.550000     -1.6458662E-27
   5.560000     -5.4223880E-27
   5.570000     -9.4807484E-27
   5.580000     -1.3826931E-26
   5.590000     -1.8466257E-26
   5.600000     -2.3403301E-26
   5.610000     -2.8641805E-26
   5.620000     -3.4184622E-26
   5.630000     -4.0033631E-26
   5.640000     -4.6189643E-26
   5.650000     -5.2652330E-26
   5.660000     -5.9420128E-26
   5.670000     -6.6490158E-26
   5.680000     -7.3858125E-26
   5.690000     -8.1518217E-26
   5.700000     -8.9463002E-26
   5.710000     -9.7683382E-26
   5.720000     -1.0616848E-25
   5.730000     -1.1490548E-25
   5.740000     -1.2387964E-25
   5.750000     -1.3307412E-25
   5.760000     -1.4246997E-25
   5.770000     -1.5204594E-25
   5.780000     -1.6177846E-25
   5.790000     -1.7164160E-25
   5.800000     -1.8160690E-25
   5.810000     -1.9164335E-25
   5.820000     -2.0171735E-25
   5.830000     -2.1179264E-25
   5.840000     -2.2183013E-25
   5.850000     -2.3178804E-25
   5.860000     -2.4162174E-25
   5.870000     -2.5128375E-25
   5.880000     -2.6072371E-25
   5.890000     -2.6988830E-25
   5.900000     -2.7872142E-25
   5.910000     -2.8716391E-25
   5.920000     -2.9515381E-25
   5.930000     -3.0262625E-25
   5.940000     -3.0951350E-25
   5.950000     -3.1574500E-25
   5.960000     -3.2124760E-25
   5.970000     -3.2594537E-25
   5.980000     -3.2975986E-25
   5.990000     -3.3261014E-25
   6.000000     -3.3441295E-25
   6.010000     -3.3508292E-25
   6.020000     -3.3453261E-25
   6.030000     -3.3267278E-25
   6.040000     -3.2941246E-25
   6.050000     -3.2465940E-25
   6.060000     -3.1832027E-25
   6.070000     -3.1030073E-25
   6.080000     -3.0050589E-25
   6.090000     -2.8884071E-25
   6.100000     -2.7521027E-25
   6.110000     -2.5952005E-25
   6.120000     -2.4167644E-25
   6.130000     -2.2158716E-25
   6.140000     -1.9916163E-25
   6.150000     -1.7431167E-25
   6.160000     -1.4695155E-25
   6.170000     -1.1699887E-25
   6.180000     -8.4375077E-26
   6.190000     -4.9005839E-26
   6.200000     -1.0821796E-26
   6.210000      3.0240903E-26
   6.220000      7.4240181E-26
   6.230000      1.2122694E-25
   6.240000      1.7124480E-25
   6.250000      2.2432936E-25
   6.260000      2.8050723E-25
   6.270000      3.3979562E-25
   6.280000      4.0220162E-25
   6.290000      4.6772115E-25
   6.300000      5.3633844E-25
   6.310000      6.0802549E-25
   6.320000      6.8274087E-25
   6.330000      7.6042917E-25
   6.340000      8.4101990E-25
   6.350000      9.2442744E-25
   6.360000      1.0105496E-24
   6.370000      1.0992669E-24
   6.380000      1.1904426E-24
   6.390000      1.2839206E-24
   6.400000      1.3795259E-24
   6.410000      1.4770635E-24
   6.420000      1.5763175E-24
   6.430000      1.6770508E-24
   6.440000      1.7790046E-24
   6.450000      1.8818969E-24
   6.460000      1.9854237E-24
   6.470000      2.0892565E-24
   6.480000      2.1930436E-24
   6.490000      2.2964092E-24
   6.500000      2.3989522E-24
   6.510000      2.5002475E-24
   6.520000      2.5998449E-24
   6.530000      2.6972695E-24
   6.540000      2.7920219E-24
   6.550000      2.8835775E-24
   6.560000      2.9713874E-24
   6.570000      3.0548784E-24
   6.580000      3.1334539E-24
   6.590000      3.2064946E-24
   6.600000      3.2733578E-24
   6.610000      3.3333799E-24
   6.620000      3.3858766E-24
   6.630000      3.4301423E-24
   6.640000      3.4654553E-24
   6.650000      3.4910747E-24
   6.660000      3.5062453E-24
   6.670000      3.5101963E-24
   6.680000      3.5021464E-24
   6.690000      3.4813023E-24
   6.700000      3.4468630E-24
   6.710000      3.3980211E-24
   6.720000      3.3339664E-24
   6.730000      3.2538875E-24
   6.740000      3.1569756E-24
   6.750000      3.0424249E-24
   6.760000      2.9094385E-24
   6.770000      2.7572314E-24
   6.780000      2.5850327E-24
   6.790000      2.3920907E-24
   6.800000      2.1776752E-24
   6.810000      1.9410830E-24
   6.820000      1.6816410E-24
   6.830000      1.3987125E-24
   6.840000      1.0916995E-24
   6.850000      7.6004712E-25
   6.860000      4.0325076E-25
   6.870000      2.0859072E-26
   6.880000     -3.8752112E-25
   6.890000     -8.2221818E-25
   6.900000     -1.2834917E-24
   6.910000     -1.7715268E-24
   6.920000     -2.2864287E-24
   6.930000     -2.8282180E-24
   6.940000     -3.3968236E-24
   6.950000     -3.9920795E-24
   6.960000     -4.6137173E-24
   6.970000     -5.2613614E-24
   6.980000     -5.9345229E-24
   6.990000     -6.6325958E-24
   7.000000     -7.3548476E-24
   7.010000     -8.1004214E-24
   7.020000     -8.8683214E-24
   7.030000     -9.6574151E-24
   7.040000     -1.0466425E-23
   7.050000     -1.1293927E-23
   7.060000     -1.2138342E-23