  -2.600000      0.0000000E+00
  -2.590000      0.0000000E+00
  -2.580000      0.0000000E+00
  -2.570000      0.0000000E+00
  -2.560000      0.0000000E+00
  -2.550000      0.0000000E+00
  -2.540000      0.0000000E+00
  -2.530000      0.0000000E+00
  -2.520000      0.0000000E+00
  -2.510000      0.0000000E+00
  -2.500000      0.0000000E+00
  -2.490000      0.0000000E+00
  -2.480000      0.0000000E+00
  -2.470000      0.0000000E+00
  -2.460000      0.0000000E+00
  -2.450000      0.0000000E+00
  -2.440000      0.0000000E+00
  -2.430000      0.0000000E+00
  -2.420000      0.0000000E+00
  -2.410000      0.0000000E+00
  -2.400000      0.0000000E+00
  -2.390000      0.0000000E+00
  -2.380000      0.0000000E+00
  -2.370000      0.0000000E+00
  -2.360000      0.0000000E+00
  -2.350000      0.0000000E+00
  -2.340000      0.0000000E+00
  -2.330000      0.0000000E+00
  -2.320000      0.0000000E+00
  -2.310000      0.0000000E+00
  -2.300000      0.0000000E+00
  -2.290000      0.0000000E+00
  -2.280000      0.0000000E+00
  -2.270000      0.0000000E+00
  -2.260000      0.0000000E+00
  -2.250000      0.0000000E+00
  -2.240000      0.0000000E+00
  -2.230000      0.0000000E+00
  -2.220000      0.0000000E+00
  -2.210000      0.0000000E+00
  -2.200000      0.0000000E+00
  -2.190000      0.0000000E+00
  -2.180000      0.0000000E+00
  -2.170000      0.0000000E+00
  -2.160000      0.0000000E+00
  -2.150000      0.0000000E+00
  -2.140000      0.0000000E+00
  -2.130000      0.0000000E+00
  -2.120000      0.0000000E+00
  -2.110000      0.0000000E+00
  -2.100000      0.0000000E+00
  -2.090000      0.0000000E+00
  -2.080000      0.0000000E+00
  -2.070000      0.0000000E+00
  -2.060000      0.0000000E+00
  -2.050000      0.0000000E+00
  -2.040000      0.0000000E+00
  -2.030000      0.0000000E+00
  -2.020000      0.0000000E+00
  -2.010000      0.0000000E+00
  -2.000000      0.0000000E+00
  -1.990000      0.0000000E+00
  -1.980000      0.0000000E+00
  -1.970000      0.0000000E+00
  -1.960000      0.0000000E+00
  -1.950000      0.0000000E+00
  -1.940000      0.0000000E+00
  -1.930000      0.0000000E+00
  -1.920000      0.0000000E+00
  -1.910000      0.0000000E+00
  -1.900000      0.0000000E+00
  -1.890000      0.0000000E+00
  -1.880000      0.0000000E+00
  -1.870000      0.0000000E+00
  -1.860000      0.0000000E+00
  -1.850000      0.0000000E+00
  -1.840000      0.0000000E+00
  -1.830000      0.0000000E+00
  -1.820000      0.0000000E+00
  -1.810000      0.0000000E+00
  -1.800000      0.0000000E+00
  -1.790000      0.0000000E+00
  -1.780000      0.0000000E+00
  -1.770000      0.0000000E+00
  -1.760000      0.0000000E+00
  -1.750000      0.0000000E+00
  -1.740000      0.0000000E+00
  -1.730000      0.0000000E+00
  -1.720000      0.0000000E+00
  -1.710000      0.0000000E+00
  -1.700000      0.0000000E+00
  -1.690000      0.0000000E+00
  -1.680000      0.0000000E+00
  -1.670000      0.0000000E+00
  -1.660000      0.0000000E+00
  -1.650000      0.0000000E+00
  -1.640000      0.0000000E+00
  -1.630000      0.0000000E+00
  -1.620000      0.0000000E+00
  -1.610000      0.0000000E+00
  -1.600000      0.0000000E+00
  -1.590000      0.0000000E+00
  -1.580000      0.0000000E+00
  -1.570000      0.0000000E+00
  -1.560000      0.0000000E+00
  -1.550000      0.0000000E+00
  -1.540000      0.0000000E+00
  -1.530000      0.0000000E+00
  -1.520000      0.0000000E+00
  -1.510000      0.0000000E+00
  -1.500000      0.0000000E+00
  -1.490000      0.0000000E+00
  -1.480000      0.0000000E+00
  -1.470000      0.0000000E+00
  -1.460000      0.0000000E+00
  -1.450000      0.0000000E+00
  -1.440000      0.0000000E+00
  -1.430000      0.0000000E+00
  -1.420000      0.0000000E+00
  -1.410000      0.0000000E+00
  -1.400000      0.0000000E+00
  -1.390000      0.0000000E+00
  -1.380000      0.0000000E+00
  -1.370000      0.0000000E+00
  -1.360000      0.0000000E+00
  -1.350000      0.0000000E+00
  -1.340000      0.0000000E+00
  -1.330000      0.0000000E+00
  -1.320000      0.0000000E+00
  -1.310000      0.0000000E+00
  -1.300000      0.0000000E+00
  -1.290000      0.0000000E+00
  -1.280000      0.0000000E+00
  -1.270000      0.0000000E+00
  -1.260000      0.0000000E+00
  -1.250000      0.0000000E+00
  -1.240000      0.0000000E+00
  -1.230000      0.0000000E+00
  -1.220000      0.0000000E+00
  -1.210000      0.0000000E+00
  -1.200000      0.0000000E+00
  -1.190000      0.0000000E+00
  -1.180000      0.0000000E+00
  -1.170000      0.0000000E+00
  -1.160000      0.0000000E+00
  -1.150000      0.0000000E+00
  -1.140000      0.0000000E+00
  -1.130000      0.0000000E+00
  -1.120000      0.0000000E+00
  -1.110000      0.0000000E+00
  -1.100000      0.0000000E+00
  -1.090000      0.0000000E+00
  -1.080000      0.0000000E+00
  -1.070000      0.0000000E+00
  -1.060000      0.0000000E+00
  -1.050000      0.0000000E+00
  -1.040000      0.0000000E+00
  -1.030000      0.0000000E+00
  -1.020000      0.0000000E+00
  -1.010000      0.0000000E+00
  -1.000000      0.0000000E+00
 -0.9900000      0.0000000E+00
 -0.9800000      0.0000000E+00
 -0.9700000      0.0000000E+00
 -0.9600000      0.0000000E+00
 -0.9500000      0.0000000E+00
 -0.9400000      0.0000000E+00
 -0.9300000      0.0000000E+00
 -0.9200000      0.0000000E+00
 -0.9100000      0.0000000E+00
 -0.9000000      0.0000000E+00
 -0.8900000      0.0000000E+00
 -0.8800000      0.0000000E+00
 -0.8700000      0.0000000E+00
 -0.8600000      0.0000000E+00
 -0.8500000      0.0000000E+00
 -0.8400000      0.0000000E+00
 -0.8300000      0.0000000E+00
 -0.8200000      0.0000000E+00
 -0.8100000      0.0000000E+00
 -0.8000000      0.0000000E+00
 -0.7900000      0.0000000E+00
 -0.7800000      0.0000000E+00
 -0.7700000      0.0000000E+00
 -0.7600000      0.0000000E+00
 -0.7500000      0.0000000E+00
 -0.7400000      0.0000000E+00
 -0.7300000      0.0000000E+00
 -0.7200000      0.0000000E+00
 -0.7100000      0.0000000E+00
 -0.7000000      0.0000000E+00
 -0.6900000      0.0000000E+00
 -0.6800000      0.0000000E+00
 -0.6700000      0.0000000E+00
 -0.6600000      0.0000000E+00
 -0.6500000      0.0000000E+00
 -0.6400000      0.0000000E+00
 -0.6300000      0.0000000E+00
 -0.6200000      0.0000000E+00
 -0.6100000      0.0000000E+00
 -0.6000000      0.0000000E+00
 -0.5900000      0.0000000E+00
 -0.5800000      0.0000000E+00
 -0.5700000      0.0000000E+00
 -0.5600000      0.0000000E+00
 -0.5500000      0.0000000E+00
 -0.5400000      0.0000000E+00
 -0.5300000      0.0000000E+00
 -0.5200000      0.0000000E+00
 -0.5100000      0.0000000E+00
 -0.5000000      0.0000000E+00
 -0.4900000      0.0000000E+00
 -0.4800000      0.0000000E+00
 -0.4700000      0.0000000E+00
 -0.4600000      0.0000000E+00
 -0.4500000      0.0000000E+00
 -0.4400000      0.0000000E+00
 -0.4300000      0.0000000E+00
 -0.4200000      0.0000000E+00
 -0.4100000      0.0000000E+00
 -0.4000000      0.0000000E+00
 -0.3900000      0.0000000E+00
 -0.3800000      0.0000000E+00
 -0.3700000      0.0000000E+00
 -0.3600000      0.0000000E+00
 -0.3500000      0.0000000E+00
 -0.3400000      0.0000000E+00
 -0.3300000      0.0000000E+00
 -0.3200000      0.0000000E+00
 -0.3100000      0.0000000E+00
 -0.3000000      0.0000000E+00
 -0.2900000      0.0000000E+00
 -0.2800000      0.0000000E+00
 -0.2700000      0.0000000E+00
 -0.2600000      0.0000000E+00
 -0.2500000      0.0000000E+00
 -0.2400000      0.0000000E+00
 -0.2300000      0.0000000E+00
 -0.2200000      0.0000000E+00
 -0.2100000      0.0000000E+00
 -0.2000000      0.0000000E+00
 -0.1900000      0.0000000E+00
 -0.1800000      0.0000000E+00
 -0.1700000      0.0000000E+00
 -0.1600000      0.0000000E+00
 -0.1500000      0.0000000E+00
 -0.1400000      0.0000000E+00
 -0.1300000      0.0000000E+00
 -0.1200000      0.0000000E+00
 -0.1100000      0.0000000E+00
 -0.1000000      0.0000000E+00
 -9.0000004E-02  0.0000000E+00
 -7.9999998E-02  0.0000000E+00
 -7.0000000E-02  0.0000000E+00
 -5.9999999E-02  0.0000000E+00
 -5.0000001E-02  0.0000000E+00
 -3.9999999E-02  0.0000000E+00
 -2.9999999E-02  0.0000000E+00
 -2.0000000E-02  0.0000000E+00
 -9.9999998E-03  0.0000000E+00
 -3.4694470E-17  0.0000000E+00
  9.9999998E-03  0.0000000E+00
  2.0000000E-02  0.0000000E+00
  2.9999999E-02  0.0000000E+00
  3.9999999E-02  0.0000000E+00
  5.0000001E-02  0.0000000E+00
  5.9999999E-02  0.0000000E+00
  7.0000000E-02  0.0000000E+00
  7.9999998E-02  0.0000000E+00
  9.0000004E-02  0.0000000E+00
  0.1000000      0.0000000E+00
  0.1100000      0.0000000E+00
  0.1200000      0.0000000E+00
  0.1300000      0.0000000E+00
  0.1400000      0.0000000E+00
  0.1500000      0.0000000E+00
  0.1600000      0.0000000E+00
  0.1700000      0.0000000E+00
  0.1800000      1.3226530E-38
  0.1900000      1.8107811E-38
  0.2000000      2.3380030E-38
  0.2100000      2.7497374E-38
  0.2200000      3.0145240E-38
  0.2300000      3.2264827E-38
  0.2400000      3.3540667E-38
  0.2500000      3.3575700E-38
  0.2600000      3.1930018E-38
  0.2700000      2.7805615E-38
  0.2800000      2.0379903E-38
  0.2900000      0.0000000E+00
  0.3000000      0.0000000E+00
  0.3100000      0.0000000E+00
  0.3200000     -1.3576686E-38
  0.3300000     -2.0942892E-38
  0.3400000     -3.4851106E-38
  0.3500000     -5.3723519E-38
  0.3600000     -7.5798997E-38
  0.3700000     -7.4532263E-38
  0.3800000     -4.6497510E-38
  0.3900000     -2.7749353E-38
  0.4000000     -1.6824390E-38
  0.4100000      0.0000000E+00
  0.4200000      3.9310872E-38
  0.4300000      3.8843932E-38
  0.4400000     -1.3364946E-38
  0.4500000     -1.2615943E-37
  0.4600000     -3.2293033E-37
  0.4700000     -5.5561170E-37
  0.4800000     -8.0086059E-37
  0.4900000     -1.0547808E-36
  0.5000000     -1.3055244E-36
  0.5100000     -1.5211219E-36
  0.5200000     -1.7008095E-36
  0.5300000     -1.8041639E-36
  0.5400000     -1.8223441E-36
  0.5500000     -1.7530914E-36
  0.5600000     -1.5650108E-36
  0.5700000     -1.3704035E-36
  0.5800000     -1.2085623E-36
  0.5900000     -1.0353057E-36
  0.6000000     -1.0707889E-36
  0.6100000     -1.3331557E-36
  0.6200000     -1.5818930E-36
  0.6300000     -1.6701754E-36
  0.6400000     -1.5889670E-36
  0.6500000     -1.5813308E-36
  0.6600000     -1.6954153E-36
  0.6700000     -1.8350101E-36
  0.6800000     -1.6373085E-36
  0.6900000     -9.3677390E-37
  0.7000000      1.3764362E-37
  0.7100000      1.9068373E-36
  0.7200000      4.2965649E-36
  0.7300000      6.8926881E-36
  0.7400000      9.5840313E-36
  0.7500000      1.2443776E-35
  0.7600000      1.5462269E-35
  0.7700000      1.8435730E-35
  0.7800000      2.1223127E-35
  0.7900000      2.3587145E-35
  0.8000000      2.5445418E-35
  0.8100000      2.7148088E-35
  0.8200000      2.8538391E-35
  0.8300000      2.9382532E-35
  0.8400000      3.0042264E-35
  0.8500000      3.0629816E-35
  0.8600000      3.0418732E-35
  0.8700000      2.9491977E-35
  0.8800000      2.8144934E-35
  0.8900000      2.6973925E-35
  0.9000000      2.6303810E-35
  0.9100000      2.5041086E-35
  0.9200000      2.3197306E-35
  0.9300000      1.9882293E-35
  0.9400000      1.4518812E-35
  0.9500000      7.9604307E-36
  0.9600000      2.7650607E-37
  0.9700000     -6.8514618E-36
  0.9800000     -1.3395866E-35
  0.9900000     -2.0088847E-35
   1.000000     -2.6766265E-35
   1.010000     -3.4054531E-35
   1.020000     -4.1933990E-35
   1.030000     -5.1292415E-35
   1.040000     -6.2464163E-35
   1.050000     -7.4150011E-35
   1.060000     -8.5973608E-35
   1.070000     -9.6910153E-35
   1.080000     -1.0679173E-34
   1.090000     -1.1747987E-34
   1.100000     -1.2940983E-34
   1.110000     -1.4105771E-34
   1.120000     -1.5076779E-34
   1.130000     -1.5860659E-34
   1.140000     -1.6701807E-34
   1.150000     -1.7496829E-34
   1.160000     -1.7931427E-34
   1.170000     -1.8382035E-34
   1.180000     -1.8878548E-34
   1.190000     -1.9157013E-34
   1.200000     -1.9229839E-34
   1.210000     -1.9176319E-34
   1.220000     -1.9192373E-34
   1.230000     -1.9221075E-34
   1.240000     -1.9047749E-34
   1.250000     -1.8261851E-34
   1.260000     -1.6700815E-34
   1.270000     -1.4625130E-34
   1.280000     -1.2092826E-34
   1.290000     -8.8836459E-35
   1.300000     -4.9368524E-35
   1.310000     -4.1104531E-36
   1.320000      4.5896132E-35
   1.330000      1.0429219E-34
   1.340000      1.7157733E-34
   1.350000      2.4450450E-34
   1.360000      3.1382338E-34
   1.370000      3.7349083E-34
   1.380000      4.2926239E-34
   1.390000      4.8270160E-34
   1.400000      5.2443735E-34
   1.410000      5.5563102E-34
   1.420000      5.8143179E-34
   1.430000      5.9210082E-34
   1.440000      5.9452404E-34
   1.450000      6.0479024E-34
   1.460000      6.2556384E-34
   1.470000      6.6992507E-34
   1.480000      7.3212741E-34
   1.490000      7.9559836E-34
   1.500000      8.5772159E-34
   1.510000      9.0902466E-34
   1.520000      9.4701039E-34
   1.530000      9.6952294E-34
   1.540000      9.7322364E-34
   1.550000      9.5342336E-34
   1.560000      9.2196290E-34
   1.570000      8.7612248E-34
   1.580000      8.0634394E-34
   1.590000      7.2095603E-34
   1.600000      6.2319903E-34
   1.610000      5.1396833E-34
   1.620000      3.9435383E-34
   1.630000      2.6579624E-34
   1.640000      1.2631289E-34
   1.650000     -1.9834232E-35
   1.660000     -1.7504118E-34
   1.670000     -3.4379208E-34
   1.680000     -5.3153875E-34
   1.690000     -7.4749768E-34
   1.700000     -9.9229411E-34
   1.710000     -1.2656079E-33
   1.720000     -1.5690726E-33
   1.730000     -1.8920401E-33
   1.740000     -2.2372299E-33
   1.750000     -2.6153682E-33
   1.760000     -3.0117346E-33
   1.770000     -3.4136653E-33
   1.780000     -3.8181081E-33
   1.790000     -4.2178647E-33
   1.800000     -4.6075514E-33
   1.810000     -4.9871211E-33
   1.820000     -5.3509296E-33
   1.830000     -5.6918322E-33
   1.840000     -6.0107860E-33
   1.850000     -6.3070253E-33
   1.860000     -6.5759902E-33
   1.870000     -6.8131454E-33
   1.880000     -7.0137913E-33
   1.890000     -7.1753667E-33
   1.900000     -7.2914284E-33
   1.910000     -7.3560181E-33
   1.920000     -7.3610874E-33
   1.930000     -7.2937970E-33
   1.940000     -7.1450778E-33
   1.950000     -6.9049567E-33
   1.960000     -6.5728237E-33
   1.970000     -6.1346347E-33
   1.980000     -5.5758968E-33
   1.990000     -4.8995651E-33
   2.000000     -4.1006180E-33
   2.010000     -3.1763051E-33
   2.020000     -2.1203286E-33
   2.030000     -9.2712204E-34
   2.040000      4.0361586E-34
   2.050000      1.8745017E-33
   2.060000      3.4861922E-33
   2.070000      5.2422273E-33
   2.080000      7.1455958E-33
   2.090000      9.1950114E-33
   2.100000      1.1389235E-32
   2.110000      1.3724871E-32
   2.120000      1.6196442E-32
   2.130000      1.8796043E-32
   2.140000      2.1509525E-32
   2.150000      2.4324643E-32
   2.160000      2.7226962E-32
   2.170000      3.0193892E-32
   2.180000      3.3202270E-32
   2.190000      3.6227031E-32
   2.200000      3.9241572E-32
   2.210000      4.2217794E-32
   2.220000      4.5126661E-32
   2.230000      4.7938493E-32
   2.240000      5.0623117E-32
   2.250000      5.3149789E-32
   2.260000      5.5487442E-32
   2.270000      5.7604707E-32
   2.280000      5.9468553E-32
   2.290000      6.1045173E-32
   2.300000      6.2300084E-32
   2.310000      6.3197274E-32
   2.320000      6.3699422E-32
   2.330000      6.3767489E-32
   2.340000      6.3361732E-32
   2.350000      6.2441801E-32
   2.360000      6.0964628E-32
   2.370000      5.8887430E-32
   2.380000      5.6169199E-32
   2.390000      5.2768629E-32
   2.400000      4.8645683E-32
   2.410000      4.3762118E-32
   2.420000      3.8081832E-32
   2.430000      3.1571665E-32
   2.440000      2.4202005E-32
   2.450000      1.5947619E-32
   2.460000      6.7885526E-33
   2.470000     -3.2891000E-33
   2.480000     -1.4293163E-32
   2.490000     -2.6222910E-32
   2.500000     -3.9067564E-32
   2.510000     -5.2807091E-32
   2.520000     -6.7410246E-32
   2.530000     -8.2833531E-32
   2.540000     -9.9020999E-32
   2.550000     -1.1590367E-31
   2.560000     -1.3339922E-31
   2.570000     -1.5141207E-31
   2.580000     -1.6983394E-31
   2.590000     -1.8854404E-31
   2.600000     -2.0740991E-31
   2.610000     -2.2628840E-31
   2.620000     -2.4502637E-31
   2.630000     -2.6346174E-31
   2.640000     -2.8142433E-31
   2.650000     -2.9873675E-31
   2.660000     -3.1521485E-31
   2.670000     -3.3066847E-31
   2.680000     -3.4490206E-31
   2.690000     -3.5771473E-31
   2.700000     -3.6890050E-31
   2.710000     -3.7824855E-31
   2.720000     -3.8554332E-31
   2.730000     -3.9056482E-31
   2.740000     -3.9308865E-31
   2.750000     -3.9288670E-31
   2.760000     -3.8972779E-31
   2.770000     -3.8337845E-31
   2.780000     -3.7360429E-31
   2.790000     -3.6017145E-31
   2.800000     -3.4284854E-31
   2.810000     -3.2140921E-31
   2.820000     -2.9563483E-31
   2.830000     -2.6531777E-31
   2.840000     -2.3026507E-31
   2.850000     -1.9030263E-31
   2.860000     -1.4527951E-31
   2.870000     -9.5072919E-32
   2.880000     -3.9592819E-32
   2.890000      2.1212899E-32
   2.900000      8.7353277E-32
   2.910000      1.5878973E-31
   2.920000      2.3543102E-31
   2.930000      3.1712987E-31
   2.940000      4.0367943E-31
   2.950000      4.9481071E-31
   2.960000      5.9019084E-31
   2.970000      6.8942170E-31
   2.980000      7.9203954E-31
   2.990000      8.9751570E-31
   3.000000      1.0052584E-30
   3.010000      1.1146140E-30
   3.020000      1.2248695E-30
   3.030000      1.3352549E-30
   3.040000      1.4449458E-30
   3.050000      1.5530656E-30
   3.060000      1.6586887E-30
   3.070000      1.7608426E-30
   3.080000      1.8585070E-30
   3.090000      1.9506176E-30
   3.100000      2.0360664E-30
   3.110000      2.1137015E-30
   3.120000      2.1823280E-30
   3.130000      2.2407080E-30
   3.140000      2.2875602E-30
   3.150000      2.3215620E-30
   3.160000      2.3413512E-30
   3.170000      2.3455263E-30
   3.180000      2.3326514E-30
   3.190000      2.3012612E-30
   3.200000      2.2498687E-30
   3.210000      2.1769715E-30
   3.220000      2.0810632E-30
   3.230000      1.9606477E-30
   3.240000      1.8142512E-30
   3.250000      1.6404407E-30
   3.260000      1.4378430E-30
   3.270000      1.2051632E-30
   3.280000      9.4120808E-31
   3.290000      6.4490728E-31
   3.300000      3.1533755E-31
   3.310000     -4.8252506E-32
   3.320000     -4.4642050E-31
   3.330000     -8.7951127E-31
   3.340000     -1.3476355E-30
   3.350000     -1.8506498E-30
   3.360000     -2.3881392E-30
   3.370000     -2.9594056E-30
   3.380000     -3.5634549E-30
   3.390000     -4.1989907E-30
   3.400000     -4.8644055E-30
   3.410000     -5.5577768E-30
   3.420000     -6.2768615E-30
   3.430000     -7.0190931E-30
   3.440000     -7.7815845E-30
   3.450000     -8.5611242E-30
   3.460000     -9.3541703E-30
   3.470000     -1.0156850E-29
   3.480000     -1.0964959E-29
   3.490000     -1.1773946E-29
   3.500000     -1.2578914E-29
   3.510000     -1.3374604E-29
   3.520000     -1.4155389E-29
   3.530000     -1.4915255E-29
   3.540000     -1.5647794E-29
   3.550000     -1.6346198E-29
   3.560000     -1.7003237E-29
   3.570000     -1.7611263E-29
   3.580000     -1.8162208E-29
   3.590000     -1.8647583E-29
   3.600000     -1.9058484E-29
   3.610000     -1.9385606E-29
   3.620000     -1.9619271E-29
   3.630000     -1.9749458E-29
   3.640000     -1.9765839E-29
   3.650000     -1.9657835E-29
   3.660000     -1.9414665E-29
   3.670000     -1.9025427E-29
   3.680000     -1.8479150E-29
   3.690000     -1.7764885E-29
   3.700000     -1.6871789E-29
   3.710000     -1.5789209E-29
   3.720000     -1.4506778E-29
   3.730000     -1.3014509E-29
   3.740000     -1.1302881E-29
   3.750000     -9.3629197E-30
   3.760000     -7.1862939E-30
   3.770000     -4.7654078E-30
   3.780000     -2.0934659E-30
   3.790000      8.3544913E-31
   3.800000      4.0262995E-30
   3.810000      7.4830413E-30
   3.820000      1.1208542E-29
   3.830000      1.5204513E-29
   3.840000      1.9471447E-29
   3.850000      2.4008542E-29
   3.860000      2.8813666E-29
   3.870000      3.3883229E-29
   3.880000      3.9212114E-29
   3.890000      4.4793562E-29
   3.900000      5.0619084E-29
   3.910000      5.6678337E-29
   3.920000      6.2958987E-29
   3.930000      6.9446572E-29
   3.940000      7.6124349E-29
   3.950000      8.2973167E-29
   3.960000      8.9971322E-29
   3.970000      9.7094386E-29
   3.980000      1.0431509E-28
   3.990000      1.1160319E-28
   4.000000      1.1892530E-28
   4.010000      1.2624484E-28
   4.020000      1.3352200E-28
   4.030000      1.4071358E-28
   4.040000      1.4777308E-28
   4.050000      1.5465055E-28
   4.060000      1.6129273E-28
   4.070000      1.6764301E-28
   4.080000      1.7364159E-28
   4.090000      1.7922557E-28
   4.100000      1.8432903E-28
   4.110000      1.8888323E-28
   4.120000      1.9281680E-28
   4.130000      1.9605582E-28
   4.140000      1.9852416E-28
   4.150000      2.0014358E-28
   4.160000      2.0083393E-28
   4.170000      2.0051337E-28
   4.180000      1.9909864E-28
   4.190000      1.9650522E-28
   4.200000      1.9264751E-28
   4.210000      1.8743916E-28
   4.220000      1.8079315E-28
   4.230000      1.7262205E-28
   4.240000      1.6283854E-28
   4.250000      1.5135543E-28
   4.260000      1.3808608E-28
   4.270000      1.2294475E-28
   4.280000      1.0584704E-28
   4.290000      8.6710452E-29
   4.300000      6.5454836E-29
   4.310000      4.2002889E-29
   4.320000      1.6281005E-29
   4.330000     -1.1780129E-29
   4.340000     -4.2244726E-29
   4.350000     -7.5171080E-29
   4.360000     -1.1061061E-28
   4.370000     -1.4860707E-28
   4.380000     -1.8919549E-28
   4.390000     -2.3240117E-28
   4.400000     -2.7823879E-28
   4.410000     -3.2671112E-28
   4.420000     -3.7780835E-28
   4.430000     -4.3150696E-28
   4.440000     -4.8776858E-28
   4.450000     -5.4653958E-28
   4.460000     -6.0774978E-28
   4.470000     -6.7131139E-28
   4.480000     -7.3711853E-28
   4.490000     -8.0504647E-28
   4.500000     -8.7495065E-28
   4.510000     -9.4666640E-28
   4.520000     -1.0200076E-27
   4.530000     -1.0947665E-27
   4.540000     -1.1707127E-27
   4.550000     -1.2475930E-27
   4.560000     -1.3251298E-27
   4.570000     -1.4030215E-27
   4.580000     -1.4809412E-27
   4.590000     -1.5585364E-27
   4.600000     -1.6354273E-27
   4.610000     -1.7112074E-27
   4.620000     -1.7854414E-27
   4.630000     -1.8576657E-27
   4.640000     -1.9273877E-27
   4.650000     -1.9940849E-27
   4.660000     -2.0572052E-27
   4.670000     -2.1161656E-27
   4.680000     -2.1703528E-27
   4.690000     -2.2191229E-27
   4.700000     -2.2618017E-27
   4.710000     -2.2976853E-27
   4.720000     -2.3260409E-27
   4.730000     -2.3461080E-27
   4.740000     -2.3570991E-27
   4.750000     -2.3582018E-27
   4.760000     -2.3485807E-27
   4.770000     -2.3273787E-27
   4.780000     -2.2937198E-27
   4.790000     -2.2467125E-27
   4.800000     -2.1854517E-27
   4.810000     -2.1090223E-27
   4.820000     -2.0165020E-27
   4.830000     -1.9069642E-27
   4.840000     -1.7794834E-27
   4.850000     -1.6331381E-27
   4.860000     -1.4670149E-27
   4.870000     -1.2802125E-27
   4.880000     -1.0718471E-27
   4.890000     -8.4105592E-28
   4.900000     -5.8700284E-28
   4.910000     -3.0888190E-28
   4.920000     -5.9234578E-30
   4.930000      3.2259887E-28
   4.940000      6.7736362E-28
   4.950000      1.0589969E-27
   4.960000      1.4680638E-27
   4.970000      1.9050613E-27
   4.980000      2.3704120E-27
   4.990000      2.8644545E-27
   5.000000      3.3874346E-27
   5.010000      3.9395009E-27
   5.020000      4.5206926E-27
   5.030000      5.1309293E-27
   5.040000      5.7700029E-27
   5.050000      6.4375672E-27
   5.060000      7.1331291E-27
   5.070000      7.8560362E-27
   5.080000      8.6054648E-27
   5.090000      9.3804128E-27
   5.100000      1.0179690E-26
   5.110000      1.1001903E-26
   5.120000      1.1845449E-26
   5.130000      1.2708505E-26
   5.140000      1.3589020E-26
   5.150000      1.4484700E-26
   5.160000      1.5393007E-26
   5.170000      1.6311144E-26
   5.180000      1.7236058E-26
   5.190000      1.8164424E-26
   5.200000      1.9092639E-26
   5.210000      2.0016815E-26
   5.220000      2.0932777E-26
   5.230000      2.1836055E-26
   5.240000      2.2721883E-26
   5.250000      2.3585192E-26
   5.260000      2.4420618E-26
   5.270000      2.5222479E-26
   5.280000      2.5984795E-26
   5.290000      2.6701262E-26
   5.300000      2.7365286E-26
   5.310000      2.7969963E-26
   5.320000      2.8508080E-26
   5.330000      2.8972128E-26
   5.340000      2.9354303E-26
   5.350000      2.9646524E-26
   5.360000      2.9840417E-26
   5.370000      2.9927358E-26
   5.380000      2.9898466E-26
   5.390000      2.9744635E-26
   5.400000      2.9456525E-26
   5.410000      2.9024615E-26
   5.420000      2.8439209E-26
   5.430000      2.7690478E-26
   5.440000      2.6768476E-26
   5.450000      2.5663168E-26
   5.460000      2.4364482E-26
   5.470000      2.2862349E-26
   5.480000      2.1146726E-26
   5.490000      1.9207654E-26
   5.500000      1.7035297E-26
   5.510000      1.4619979E-26
   5.520000      1.1952267E-26
   5.530000      9.0230303E-27
   5.540000      5.8234821E-27
   5.550000      2.3452240E-27
   5.560000     -1.4196714E-27
   5.570000     -5.4785920E-27
   5.580000     -9.8383196E-27
   5.590000     -1.4504958E-26
   5.600000     -1.9483888E-26
   5.610000     -2.4779646E-26
   5.620000     -3.0395895E-26
   5.630000     -3.6335328E-26
   5.640000     -4.2599558E-26
   5.650000     -4.9189077E-26
   5.660000     -5.6103128E-26
   5.670000     -6.3339645E-26
   5.680000     -7.0895133E-26
   5.690000     -7.8764594E-26
   5.700000     -8.6941408E-26
   5.710000     -9.5417299E-26
   5.720000     -1.0418219E-25
   5.730000     -1.1322403E-25
   5.740000     -1.2252890E-25
   5.750000     -1.3208068E-25
   5.760000     -1.4186112E-25
   5.770000     -1.5184967E-25
   5.780000     -1.6202346E-25
   5.790000     -1.7235713E-25
   5.800000     -1.8282278E-25
   5.810000     -1.9338990E-25
   5.820000     -2.0402536E-25
   5.830000     -2.1469323E-25
   5.840000     -2.2535476E-25
   5.850000     -2.3596829E-25
   5.860000     -2.4648933E-25
   5.870000     -2.5687029E-25
   5.880000     -2.6706068E-25
   5.890000     -2.7700698E-25
   5.900000     -2.8665265E-25
   5.910000     -2.9593816E-25
   5.920000     -3.0480087E-25
   5.930000     -3.1317526E-25
   5.940000     -3.2099283E-25
   5.950000     -3.2818216E-25
   5.960000     -3.3466904E-25
   5.970000     -3.4037640E-25
   5.980000     -3.4522459E-25
   5.990000     -3.4913130E-25
   6.000000     -3.5201192E-25
   6.010000     -3.5377951E-25
   6.020000     -3.5434503E-25
   6.030000     -3.5361748E-25
   6.040000     -3.5150397E-25
   6.050000     -3.4791022E-25
   6.060000     -3.4274061E-25
   6.070000     -3.3589848E-25
   6.080000     -3.2728641E-25
   6.090000     -3.1680656E-25
   6.100000     -3.0436110E-25
   6.110000     -2.8985240E-25
   6.120000     -2.7318367E-25
   6.130000     -2.5425906E-25
   6.140000     -2.3298430E-25
   6.150000     -2.0926717E-25
   6.160000     -1.8301801E-25
   6.170000     -1.5415032E-25
   6.180000     -1.2258091E-25
   6.190000     -8.8231017E-26
   6.200000     -5.1026546E-26
   6.210000     -1.0898721E-26
   6.220000      3.2215184E-26
   6.230000      7.8371599E-26
   6.240000      1.2761944E-25
   6.250000      1.7999966E-25
   6.260000      2.3554467E-25
   6.270000      2.9427753E-25
   6.280000      3.5621086E-25
   6.290000      4.2134614E-25
   6.300000      4.8967372E-25
   6.310000      5.6117183E-25
   6.320000      6.3580527E-25
   6.330000      7.1352454E-25
   6.340000      7.9426559E-25
   6.350000      8.7794914E-25
   6.360000      9.6447959E-25
   6.370000      1.0537443E-24
   6.380000      1.1456132E-24
   6.390000      1.2399373E-24
   6.400000      1.3365485E-24
   6.410000      1.4352590E-24
   6.420000      1.5358600E-24
   6.430000      1.6381217E-24
   6.440000      1.7417927E-24
   6.450000      1.8465985E-24
   6.460000      1.9522422E-24
   6.470000      2.0584028E-24
   6.480000      2.1647359E-24
   6.490000      2.2708720E-24
   6.500000      2.3764184E-24
   6.510000      2.4809571E-24
   6.520000      2.5840450E-24
   6.530000      2.6852149E-24
   6.540000      2.7839732E-24
   6.550000      2.8798018E-24
   6.560000      2.9721575E-24
   6.570000      3.0604734E-24
   6.580000      3.1441590E-24
   6.590000      3.2225995E-24
   6.600000      3.2951582E-24
   6.610000      3.3611758E-24
   6.620000      3.4199720E-24
   6.630000      3.4708464E-24
   6.640000      3.5130800E-24
   6.650000      3.5459373E-24
   6.660000      3.5686647E-24
   6.670000      3.5804949E-24
   6.680000      3.5806483E-24
   6.690000      3.5683342E-24
   6.700000      3.5427538E-24
   6.710000      3.5030997E-24
   6.720000      3.4485619E-24
   6.730000      3.3783292E-24
   6.740000      3.2915904E-24
   6.750000      3.1875396E-24
   6.760000      3.0653776E-24
   6.770000      2.9243159E-24
   6.780000      2.7635803E-24
   6.790000      2.5824127E-24
   6.800000      2.3800762E-24
   6.810000      2.1558614E-24
   6.820000      1.9090868E-24
   6.830000      1.6391041E-24
   6.840000      1.3453055E-24
   6.850000      1.0271247E-24
   6.860000      6.8404200E-25
   6.870000      3.1559083E-25
   6.880000     -7.8637304E-26
   6.890000     -4.9899091E-25
   6.900000     -9.4575065E-25
   6.910000     -1.4191230E-24
   6.920000     -1.9192374E-24
   6.930000     -2.4461403E-24
   6.940000     -2.9997862E-24
   6.950000     -3.5800358E-24
   6.960000     -4.1866517E-24
   6.970000     -4.8192905E-24
   6.980000     -5.4774995E-24
   6.990000     -6.1607047E-24
   7.000000     -6.8682151E-24
   7.010000     -7.5992131E-24
   7.020000     -8.3527480E-24
   7.030000     -9.1277368E-24
   7.040000     -9.9229464E-24
   7.050000     -1.0737004E-23
   7.060000     -1.1568391E-23