  -2.600000      0.0000000E+00
  -2.590000      0.0000000E+00
  -2.580000      0.0000000E+00
  -2.570000      0.0000000E+00
  -2.560000      0.0000000E+00
  -2.550000      0.0000000E+00
  -2.540000      0.0000000E+00
  -2.530000      0.0000000E+00
  -2.520000      0.0000000E+00
  -2.510000      0.0000000E+00
  -2.500000      0.0000000E+00
  -2.490000      0.0000000E+00
  -2.480000      0.0000000E+00
  -2.470000      0.0000000E+00
  -2.460000      0.0000000E+00
  -2.450000      0.0000000E+00
  -2.440000      0.0000000E+00
  -2.430000      0.0000000E+00
  -2.420000      0.0000000E+00
  -2.410000      0.0000000E+00
  -2.400000      0.0000000E+00
  -2.390000      0.0000000E+00
  -2.380000      0.0000000E+00
  -2.370000      0.0000000E+00
  -2.360000      0.0000000E+00
  -2.350000      0.0000000E+00
  -2.340000      0.0000000E+00
  -2.330000      0.0000000E+00
  -2.320000      0.0000000E+00
  -2.310000      0.0000000E+00
  -2.300000      0.0000000E+00
  -2.290000      0.0000000E+00
  -2.280000      0.0000000E+00
  -2.270000      0.0000000E+00
  -2.260000      0.0000000E+00
  -2.250000      0.0000000E+00
  -2.240000      0.0000000E+00
  -2.230000      0.0000000E+00
  -2.220000      0.0000000E+00
  -2.210000      0.0000000E+00
  -2.200000      0.0000000E+00
  -2.190000      0.0000000E+00
  -2.180000      0.0000000E+00
  -2.170000      0.0000000E+00
  -2.160000      0.0000000E+00
  -2.150000      0.0000000E+00
  -2.140000      0.0000000E+00
  -2.130000      0.0000000E+00
  -2.120000      0.0000000E+00
  -2.110000      0.0000000E+00
  -2.100000      0.0000000E+00
  -2.090000      0.0000000E+00
  -2.080000      0.0000000E+00
  -2.070000      0.0000000E+00
  -2.060000      0.0000000E+00
  -2.050000      0.0000000E+00
  -2.040000      0.0000000E+00
  -2.030000      0.0000000E+00
  -2.020000      0.0000000E+00
  -2.010000      0.0000000E+00
  -2.000000      0.0000000E+00
  -1.990000      0.0000000E+00
  -1.980000      0.0000000E+00
  -1.970000      0.0000000E+00
  -1.960000      0.0000000E+00
  -1.950000      0.0000000E+00
  -1.940000      0.0000000E+00
  -1.930000      0.0000000E+00
  -1.920000      0.0000000E+00
  -1.910000      0.0000000E+00
  -1.900000      0.0000000E+00
  -1.890000      0.0000000E+00
  -1.880000      0.0000000E+00
  -1.870000      0.0000000E+00
  -1.860000      0.0000000E+00
  -1.850000      0.0000000E+00
  -1.840000      0.0000000E+00
  -1.830000      0.0000000E+00
  -1.820000      0.0000000E+00
  -1.810000      0.0000000E+00
  -1.800000      0.0000000E+00
  -1.790000      0.0000000E+00
  -1.780000      0.0000000E+00
  -1.770000      0.0000000E+00
  -1.760000      0.0000000E+00
  -1.750000      0.0000000E+00
  -1.740000      0.0000000E+00
  -1.730000      0.0000000E+00
  -1.720000      0.0000000E+00
  -1.710000      0.0000000E+00
  -1.700000      0.0000000E+00
  -1.690000      0.0000000E+00
  -1.680000      0.0000000E+00
  -1.670000      0.0000000E+00
  -1.660000      0.0000000E+00
  -1.650000      0.0000000E+00
  -1.640000      0.0000000E+00
  -1.630000      0.0000000E+00
  -1.620000      0.0000000E+00
  -1.610000      0.0000000E+00
  -1.600000      0.0000000E+00
  -1.590000      0.0000000E+00
  -1.580000      0.0000000E+00
  -1.570000      0.0000000E+00
  -1.560000      0.0000000E+00
  -1.550000      0.0000000E+00
  -1.540000      0.0000000E+00
  -1.530000      0.0000000E+00
  -1.520000      0.0000000E+00
  -1.510000      0.0000000E+00
  -1.500000      0.0000000E+00
  -1.490000      0.0000000E+00
  -1.480000      0.0000000E+00
  -1.470000      0.0000000E+00
  -1.460000      0.0000000E+00
  -1.450000      0.0000000E+00
  -1.440000      0.0000000E+00
  -1.430000      0.0000000E+00
  -1.420000      0.0000000E+00
  -1.410000      0.0000000E+00
  -1.400000      0.0000000E+00
  -1.390000      0.0000000E+00
  -1.380000      0.0000000E+00
  -1.370000      0.0000000E+00
  -1.360000      0.0000000E+00
  -1.350000      0.0000000E+00
  -1.340000      0.0000000E+00
  -1.330000      0.0000000E+00
  -1.320000      0.0000000E+00
  -1.310000      0.0000000E+00
  -1.300000      0.0000000E+00
  -1.290000      0.0000000E+00
  -1.280000      0.0000000E+00
  -1.270000      0.0000000E+00
  -1.260000      0.0000000E+00
  -1.250000      0.0000000E+00
  -1.240000      0.0000000E+00
  -1.230000      0.0000000E+00
  -1.220000      0.0000000E+00
  -1.210000      0.0000000E+00
  -1.200000      0.0000000E+00
  -1.190000      0.0000000E+00
  -1.180000      0.0000000E+00
  -1.170000      0.0000000E+00
  -1.160000      0.0000000E+00
  -1.150000      0.0000000E+00
  -1.140000      0.0000000E+00
  -1.130000      0.0000000E+00
  -1.120000      0.0000000E+00
  -1.110000      0.0000000E+00
  -1.100000      0.0000000E+00
  -1.090000      0.0000000E+00
  -1.080000      0.0000000E+00
  -1.070000      0.0000000E+00
  -1.060000      0.0000000E+00
  -1.050000      0.0000000E+00
  -1.040000      0.0000000E+00
  -1.030000      0.0000000E+00
  -1.020000      0.0000000E+00
  -1.010000      0.0000000E+00
  -1.000000      0.0000000E+00
 -0.9900000      0.0000000E+00
 -0.9800000      0.0000000E+00
 -0.9700000      0.0000000E+00
 -0.9600000      0.0000000E+00
 -0.9500000      0.0000000E+00
 -0.9400000      0.0000000E+00
 -0.9300000      0.0000000E+00
 -0.9200000      0.0000000E+00
 -0.9100000      0.0000000E+00
 -0.9000000      0.0000000E+00
 -0.8900000      0.0000000E+00
 -0.8800000      0.0000000E+00
 -0.8700000      0.0000000E+00
 -0.8600000      0.0000000E+00
 -0.8500000      0.0000000E+00
 -0.8400000      0.0000000E+00
 -0.8300000      0.0000000E+00
 -0.8200000      0.0000000E+00
 -0.8100000      0.0000000E+00
 -0.8000000      0.0000000E+00
 -0.7900000      0.0000000E+00
 -0.7800000      0.0000000E+00
 -0.7700000      0.0000000E+00
 -0.7600000      0.0000000E+00
 -0.7500000      0.0000000E+00
 -0.7400000      0.0000000E+00
 -0.7300000      0.0000000E+00
 -0.7200000      0.0000000E+00
 -0.7100000      0.0000000E+00
 -0.7000000      0.0000000E+00
 -0.6900000      0.0000000E+00
 -0.6800000      0.0000000E+00
 -0.6700000      0.0000000E+00
 -0.6600000      0.0000000E+00
 -0.6500000      0.0000000E+00
 -0.6400000      0.0000000E+00
 -0.6300000      0.0000000E+00
 -0.6200000      0.0000000E+00
 -0.6100000      0.0000000E+00
 -0.6000000      0.0000000E+00
 -0.5900000      0.0000000E+00
 -0.5800000      0.0000000E+00
 -0.5700000      0.0000000E+00
 -0.5600000      0.0000000E+00
 -0.5500000      0.0000000E+00
 -0.5400000      0.0000000E+00
 -0.5300000      0.0000000E+00
 -0.5200000      0.0000000E+00
 -0.5100000      0.0000000E+00
 -0.5000000      0.0000000E+00
 -0.4900000      0.0000000E+00
 -0.4800000      0.0000000E+00
 -0.4700000      0.0000000E+00
 -0.4600000      0.0000000E+00
 -0.4500000      0.0000000E+00
 -0.4400000      0.0000000E+00
 -0.4300000      0.0000000E+00
 -0.4200000      0.0000000E+00
 -0.4100000      0.0000000E+00
 -0.4000000      0.0000000E+00
 -0.3900000      0.0000000E+00
 -0.3800000      0.0000000E+00
 -0.3700000      0.0000000E+00
 -0.3600000      0.0000000E+00
 -0.3500000      0.0000000E+00
 -0.3400000      0.0000000E+00
 -0.3300000      0.0000000E+00
 -0.3200000      0.0000000E+00
 -0.3100000      0.0000000E+00
 -0.3000000      0.0000000E+00
 -0.2900000      0.0000000E+00
 -0.2800000      0.0000000E+00
 -0.2700000      0.0000000E+00
 -0.2600000      0.0000000E+00
 -0.2500000      0.0000000E+00
 -0.2400000      0.0000000E+00
 -0.2300000      0.0000000E+00
 -0.2200000      0.0000000E+00
 -0.2100000      0.0000000E+00
 -0.2000000      0.0000000E+00
 -0.1900000      0.0000000E+00
 -0.1800000      0.0000000E+00
 -0.1700000      0.0000000E+00
 -0.1600000      0.0000000E+00
 -0.1500000      0.0000000E+00
 -0.1400000      0.0000000E+00
 -0.1300000      0.0000000E+00
 -0.1200000      0.0000000E+00
 -0.1100000      0.0000000E+00
 -0.1000000      0.0000000E+00
 -9.0000004E-02  0.0000000E+00
 -7.9999998E-02  0.0000000E+00
 -7.0000000E-02  0.0000000E+00
 -5.9999999E-02  0.0000000E+00
 -5.0000001E-02  0.0000000E+00
 -3.9999999E-02  0.0000000E+00
 -2.9999999E-02  0.0000000E+00
 -2.0000000E-02  0.0000000E+00
 -9.9999998E-03  0.0000000E+00
 -3.4694470E-17  0.0000000E+00
  9.9999998E-03  0.0000000E+00
  2.0000000E-02  0.0000000E+00
  2.9999999E-02  0.0000000E+00
  3.9999999E-02  0.0000000E+00
  5.0000001E-02  0.0000000E+00
  5.9999999E-02  0.0000000E+00
  7.0000000E-02  0.0000000E+00
  7.9999998E-02  0.0000000E+00
  9.0000004E-02  0.0000000E+00
  0.1000000      0.0000000E+00
  0.1100000      0.0000000E+00
  0.1200000      0.0000000E+00
  0.1300000      0.0000000E+00
  0.1400000      0.0000000E+00
  0.1500000      0.0000000E+00
  0.1600000      0.0000000E+00
  0.1700000      0.0000000E+00
  0.1800000      0.0000000E+00
  0.1900000      0.0000000E+00
  0.2000000      0.0000000E+00
  0.2100000      0.0000000E+00
  0.2200000      0.0000000E+00
  0.2300000      0.0000000E+00
  0.2400000      0.0000000E+00
  0.2500000      0.0000000E+00
  0.2600000      0.0000000E+00
  0.2700000      0.0000000E+00
  0.2800000      0.0000000E+00
  0.2900000      0.0000000E+00
  0.3000000      0.0000000E+00
  0.3100000      0.0000000E+00
  0.3200000      0.0000000E+00
  0.3300000      0.0000000E+00
  0.3400000      0.0000000E+00
  0.3500000      0.0000000E+00
  0.3600000      0.0000000E+00
  0.3700000      0.0000000E+00
  0.3800000      0.0000000E+00
  0.3900000      0.0000000E+00
  0.4000000      0.0000000E+00
  0.4100000      0.0000000E+00
  0.4200000      0.0000000E+00
  0.4300000      0.0000000E+00
  0.4400000      0.0000000E+00
  0.4500000      0.0000000E+00
  0.4600000      0.0000000E+00
  0.4700000      0.0000000E+00
  0.4800000      0.0000000E+00
  0.4900000      0.0000000E+00
  0.5000000      0.0000000E+00
  0.5100000      0.0000000E+00
  0.5200000      0.0000000E+00
  0.5300000      0.0000000E+00
  0.5400000      0.0000000E+00
  0.5500000      0.0000000E+00
  0.5600000      0.0000000E+00
  0.5700000      0.0000000E+00
  0.5800000      0.0000000E+00
  0.5900000      0.0000000E+00
  0.6000000      0.0000000E+00
  0.6100000      0.0000000E+00
  0.6200000      0.0000000E+00
  0.6300000      0.0000000E+00
  0.6400000      0.0000000E+00
  0.6500000      0.0000000E+00
  0.6600000      0.0000000E+00
  0.6700000      0.0000000E+00
  0.6800000      0.0000000E+00
  0.6900000      0.0000000E+00
  0.7000000      0.0000000E+00
  0.7100000      0.0000000E+00
  0.7200000      0.0000000E+00
  0.7300000      0.0000000E+00
  0.7400000      0.0000000E+00
  0.7500000      0.0000000E+00
  0.7600000      0.0000000E+00
  0.7700000      0.0000000E+00
  0.7800000      0.0000000E+00
  0.7900000      0.0000000E+00
  0.8000000      0.0000000E+00
  0.8100000      0.0000000E+00
  0.8200000      0.0000000E+00
  0.8300000      0.0000000E+00
  0.8400000      0.0000000E+00
  0.8500000      0.0000000E+00
  0.8600000      0.0000000E+00
  0.8700000      0.0000000E+00
  0.8800000      0.0000000E+00
  0.8900000      0.0000000E+00
  0.9000000      0.0000000E+00
  0.9100000      0.0000000E+00
  0.9200000      0.0000000E+00
  0.9300000      0.0000000E+00
  0.9400000      0.0000000E+00
  0.9500000      0.0000000E+00
  0.9600000      0.0000000E+00
  0.9700000      0.0000000E+00
  0.9800000      0.0000000E+00
  0.9900000      0.0000000E+00
   1.000000      0.0000000E+00
   1.010000      0.0000000E+00
   1.020000      0.0000000E+00
   1.030000      0.0000000E+00
   1.040000      0.0000000E+00
   1.050000      0.0000000E+00
   1.060000      0.0000000E+00
   1.070000      0.0000000E+00
   1.080000      0.0000000E+00
   1.090000      0.0000000E+00
   1.100000      0.0000000E+00
   1.110000      0.0000000E+00
   1.120000      0.0000000E+00
   1.130000      0.0000000E+00
   1.140000      0.0000000E+00
   1.150000      0.0000000E+00
   1.160000      0.0000000E+00
   1.170000      0.0000000E+00
   1.180000      0.0000000E+00
   1.190000      0.0000000E+00
   1.200000      0.0000000E+00
   1.210000      0.0000000E+00
   1.220000      0.0000000E+00
   1.230000      0.0000000E+00
   1.240000      0.0000000E+00
   1.250000      0.0000000E+00
   1.260000      0.0000000E+00
   1.270000      0.0000000E+00
   1.280000      0.0000000E+00
   1.290000      0.0000000E+00
   1.300000      0.0000000E+00
   1.310000      0.0000000E+00
   1.320000      0.0000000E+00
   1.330000      0.0000000E+00
   1.340000      0.0000000E+00
   1.350000      0.0000000E+00
   1.360000      0.0000000E+00
   1.370000      0.0000000E+00
   1.380000      0.0000000E+00
   1.390000      0.0000000E+00
   1.400000      0.0000000E+00
   1.410000      0.0000000E+00
   1.420000      0.0000000E+00
   1.430000      0.0000000E+00
   1.440000      0.0000000E+00
   1.450000      0.0000000E+00
   1.460000      0.0000000E+00
   1.470000      0.0000000E+00
   1.480000      0.0000000E+00
   1.490000      0.0000000E+00
   1.500000      0.0000000E+00
   1.510000      0.0000000E+00
   1.520000      0.0000000E+00
   1.530000      0.0000000E+00
   1.540000      0.0000000E+00
   1.550000      0.0000000E+00
   1.560000      0.0000000E+00
   1.570000      0.0000000E+00
   1.580000      0.0000000E+00
   1.590000      0.0000000E+00
   1.600000      0.0000000E+00
   1.610000      0.0000000E+00
   1.620000      0.0000000E+00
   1.630000      0.0000000E+00
   1.640000      0.0000000E+00
   1.650000      0.0000000E+00
   1.660000      0.0000000E+00
   1.670000      0.0000000E+00
   1.680000      0.0000000E+00
   1.690000      0.0000000E+00
   1.700000      0.0000000E+00
   1.710000      0.0000000E+00
   1.720000      0.0000000E+00
   1.730000      0.0000000E+00
   1.740000      0.0000000E+00
   1.750000      0.0000000E+00
   1.760000      0.0000000E+00
   1.770000      0.0000000E+00
   1.780000      0.0000000E+00
   1.790000      0.0000000E+00
   1.800000      0.0000000E+00
   1.810000      0.0000000E+00
   1.820000      0.0000000E+00
   1.830000      0.0000000E+00
   1.840000      0.0000000E+00
   1.850000      0.0000000E+00
   1.860000      0.0000000E+00
   1.870000      0.0000000E+00
   1.880000      0.0000000E+00
   1.890000      0.0000000E+00
   1.900000      0.0000000E+00
   1.910000      0.0000000E+00
   1.920000      0.0000000E+00
   1.930000      0.0000000E+00
   1.940000      0.0000000E+00
   1.950000      0.0000000E+00
   1.960000      0.0000000E+00
   1.970000      0.0000000E+00
   1.980000      0.0000000E+00
   1.990000      0.0000000E+00
   2.000000      0.0000000E+00
   2.010000      0.0000000E+00
   2.020000      0.0000000E+00
   2.030000      0.0000000E+00
   2.040000      0.0000000E+00
   2.050000      0.0000000E+00
   2.060000      0.0000000E+00
   2.070000      0.0000000E+00
   2.080000      0.0000000E+00
   2.090000      0.0000000E+00
   2.100000      0.0000000E+00
   2.110000      0.0000000E+00
   2.120000      0.0000000E+00
   2.130000      0.0000000E+00
   2.140000      0.0000000E+00
   2.150000      0.0000000E+00
   2.160000      0.0000000E+00
   2.170000      0.0000000E+00
   2.180000      0.0000000E+00
   2.190000      0.0000000E+00
   2.200000      0.0000000E+00
   2.210000      0.0000000E+00
   2.220000      0.0000000E+00
   2.230000      0.0000000E+00
   2.240000      0.0000000E+00
   2.250000      0.0000000E+00
   2.260000      0.0000000E+00
   2.270000      0.0000000E+00
   2.280000      0.0000000E+00
   2.290000      0.0000000E+00
   2.300000      0.0000000E+00
   2.310000      0.0000000E+00
   2.320000      0.0000000E+00
   2.330000      0.0000000E+00
   2.340000      0.0000000E+00
   2.350000      0.0000000E+00
   2.360000      0.0000000E+00
   2.370000      0.0000000E+00
   2.380000      0.0000000E+00
   2.390000      0.0000000E+00
   2.400000      0.0000000E+00
   2.410000      0.0000000E+00
   2.420000      0.0000000E+00
   2.430000      0.0000000E+00
   2.440000      0.0000000E+00
   2.450000      0.0000000E+00
   2.460000      0.0000000E+00
   2.470000      0.0000000E+00
   2.480000      0.0000000E+00
   2.490000      0.0000000E+00
   2.500000      0.0000000E+00
   2.510000      0.0000000E+00
   2.520000      0.0000000E+00
   2.530000      0.0000000E+00
   2.540000      0.0000000E+00
   2.550000      0.0000000E+00
   2.560000      0.0000000E+00
   2.570000      0.0000000E+00
   2.580000      0.0000000E+00
   2.590000      0.0000000E+00
   2.600000      0.0000000E+00
   2.610000      0.0000000E+00
   2.620000      0.0000000E+00
   2.630000      0.0000000E+00
   2.640000      0.0000000E+00
   2.650000      0.0000000E+00
   2.660000      0.0000000E+00
   2.670000      0.0000000E+00
   2.680000      0.0000000E+00
   2.690000      0.0000000E+00
   2.700000      0.0000000E+00
   2.710000      0.0000000E+00
   2.720000      0.0000000E+00
   2.730000      0.0000000E+00
   2.740000      0.0000000E+00
   2.750000      0.0000000E+00
   2.760000      0.0000000E+00
   2.770000      0.0000000E+00
   2.780000      0.0000000E+00
   2.790000      0.0000000E+00
   2.800000      0.0000000E+00
   2.810000      0.0000000E+00
   2.820000      0.0000000E+00
   2.830000      0.0000000E+00
   2.840000      0.0000000E+00
   2.850000      0.0000000E+00
   2.860000      0.0000000E+00
   2.870000      0.0000000E+00
   2.880000      0.0000000E+00
   2.890000      0.0000000E+00
   2.900000      0.0000000E+00
   2.910000      0.0000000E+00
   2.920000      0.0000000E+00
   2.930000      0.0000000E+00
   2.940000      0.0000000E+00
   2.950000      0.0000000E+00
   2.960000      0.0000000E+00
   2.970000      0.0000000E+00
   2.980000      0.0000000E+00
   2.990000      0.0000000E+00
   3.000000      0.0000000E+00
   3.010000      0.0000000E+00
   3.020000      0.0000000E+00
   3.030000      0.0000000E+00
   3.040000      0.0000000E+00
   3.050000      0.0000000E+00
   3.060000      0.0000000E+00
   3.070000      0.0000000E+00
   3.080000      0.0000000E+00
   3.090000      0.0000000E+00
   3.100000      0.0000000E+00
   3.110000      0.0000000E+00
   3.120000      0.0000000E+00
   3.130000      0.0000000E+00
   3.140000      0.0000000E+00
   3.150000      0.0000000E+00
   3.160000      0.0000000E+00
   3.170000      0.0000000E+00
   3.180000      0.0000000E+00
   3.190000      0.0000000E+00
   3.200000      0.0000000E+00
   3.210000      0.0000000E+00
   3.220000      0.0000000E+00
   3.230000      0.0000000E+00
   3.240000      0.0000000E+00
   3.250000      0.0000000E+00
   3.260000      0.0000000E+00
   3.270000      0.0000000E+00
   3.280000      0.0000000E+00
   3.290000      0.0000000E+00
   3.300000      0.0000000E+00
   3.310000      0.0000000E+00
   3.320000      0.0000000E+00
   3.330000      0.0000000E+00
   3.340000      0.0000000E+00
   3.350000      0.0000000E+00
   3.360000      0.0000000E+00
   3.370000      0.0000000E+00
   3.380000      0.0000000E+00
   3.390000      0.0000000E+00
   3.400000      0.0000000E+00
   3.410000      0.0000000E+00
   3.420000      0.0000000E+00
   3.430000      0.0000000E+00
   3.440000      0.0000000E+00
   3.450000      0.0000000E+00
   3.460000      0.0000000E+00
   3.470000      0.0000000E+00
   3.480000      0.0000000E+00
   3.490000      0.0000000E+00
   3.500000      0.0000000E+00
   3.510000      0.0000000E+00
   3.520000      0.0000000E+00
   3.530000      0.0000000E+00
   3.540000      0.0000000E+00
   3.550000      0.0000000E+00
   3.560000      0.0000000E+00
   3.570000      0.0000000E+00
   3.580000      0.0000000E+00
   3.590000      1.4702101E-38
   3.600000      1.7561839E-38
   3.610000      2.0211016E-38
   3.620000      2.1500952E-38
   3.630000      2.1562112E-38
   3.640000      2.1624008E-38
   3.650000      2.1617372E-38
   3.660000      2.1524649E-38
   3.670000      2.1397142E-38
   3.680000      2.1233685E-38
   3.690000      2.1032971E-38
   3.700000      2.0795919E-38
   3.710000      2.0516635E-38
   3.720000      1.8979165E-38
   3.730000      1.5863793E-38
   3.740000      1.2065782E-38
   3.750000      0.0000000E+00
   3.760000      0.0000000E+00
   3.770000      0.0000000E+00
   3.780000      0.0000000E+00
   3.790000     -1.6183847E-38
   3.800000     -2.3005097E-38
   3.810000     -2.9960812E-38
   3.820000     -3.6900835E-38
   3.830000     -4.3713349E-38
   3.840000     -5.0383221E-38
   3.850000     -5.6842899E-38
   3.860000     -6.2973125E-38
   3.870000     -6.8758717E-38
   3.880000     -7.4147646E-38
   3.890000     -7.9138617E-38
   3.900000     -8.3894753E-38
   3.910000     -8.8579120E-38
   3.920000     -9.3310144E-38
   3.930000     -9.8159220E-38
   3.940000     -1.0323348E-37
   3.950000     -1.0864695E-37
   3.960000     -1.1316580E-37
   3.970000     -1.1683597E-37
   3.980000     -1.2088799E-37
   3.990000     -1.2519437E-37
   4.000000     -1.2981064E-37
   4.010000     -1.3471966E-37
   4.020000     -1.3977195E-37
   4.030000     -1.4598603E-37
   4.040000     -1.5332854E-37
   4.050000     -1.6060562E-37
   4.060000     -1.6754865E-37
   4.070000     -1.8157184E-37
   4.080000     -2.0325839E-37
   4.090000     -2.2523301E-37
   4.100000     -2.4618213E-37
   4.110000     -2.6361590E-37
   4.120000     -2.6756052E-37
   4.130000     -2.6024879E-37
   4.140000     -2.4946054E-37
   4.150000     -2.3312885E-37
   4.160000     -2.1300347E-37
   4.170000     -1.9044355E-37
   4.180000     -1.6606283E-37
   4.190000     -1.4294280E-37
   4.200000     -1.2078054E-37
   4.210000     -9.6543198E-38
   4.220000     -7.1444423E-38
   4.230000     -4.5320307E-38
   4.240000     -2.7008627E-38
   4.250000     -1.6382924E-38
   4.260000      0.0000000E+00
   4.270000      1.9718869E-38
   4.280000      5.5216563E-38
   4.290000      9.2295643E-38
   4.300000      1.2529265E-37
   4.310000      1.5339114E-37
   4.320000      1.8312776E-37
   4.330000      2.1573039E-37
   4.340000      2.4796232E-37
   4.350000      2.9471174E-37
   4.360000      3.5730521E-37
   4.370000      4.2839891E-37
   4.380000      5.1243888E-37
   4.390000      6.0050531E-37
   4.400000      6.7713589E-37
   4.410000      7.4309557E-37
   4.420000      8.0653816E-37
   4.430000      8.7703500E-37
   4.440000      9.5580627E-37
   4.450000      1.0313453E-36
   4.460000      1.1033522E-36
   4.470000      1.1623212E-36
   4.480000      1.2104829E-36
   4.490000      1.2602356E-36
   4.500000      1.3139793E-36
   4.510000      1.3738529E-36
   4.520000      1.4457914E-36
   4.530000      1.5248400E-36
   4.540000      1.5994079E-36
   4.550000      1.6629369E-36
   4.560000      1.7139874E-36
   4.570000      1.7614283E-36
   4.580000      1.8115068E-36
   4.590000      1.8463092E-36
   4.600000      1.8172544E-36
   4.610000      1.7302855E-36
   4.620000      1.6210513E-36
   4.630000      1.5030814E-36
   4.640000      1.6743299E-36
   4.650000      2.2102565E-36
   4.660000      2.8727304E-36
   4.670000      3.5413615E-36
   4.680000      4.1737615E-36
   4.690000      4.8421255E-36
   4.700000      5.5654363E-36
   4.710000      5.4567393E-36
   4.720000      4.3162396E-36
   4.730000      2.9013122E-36
   4.740000      1.3308010E-36
   4.750000     -3.2940632E-37
   4.760000     -1.9549060E-36
   4.770000     -3.2766209E-36
   4.780000     -4.1843122E-36
   4.790000     -5.6103718E-36
   4.800000     -7.5141331E-36
   4.810000     -8.5423843E-36
   4.820000     -7.8968353E-36
   4.830000     -6.1653366E-36
   4.840000     -5.2257952E-36
   4.850000     -5.0701520E-36
   4.860000     -4.8632230E-36
   4.870000     -4.7623653E-36
   4.880000     -5.6204647E-36
   4.890000     -7.5676208E-36
   4.900000     -9.7022831E-36
   4.910000     -1.1814606E-35
   4.920000     -1.3917569E-35
   4.930000     -1.5910520E-35
   4.940000     -1.7676544E-35
   4.950000     -1.9043964E-35
   4.960000     -2.0029764E-35
   4.970000     -2.0937104E-35
   4.980000     -2.1789807E-35
   4.990000     -2.2589152E-35
   5.000000     -2.2603997E-35
   5.010000     -2.2034995E-35
   5.020000     -2.1968994E-35
   5.030000     -2.3101037E-35
   5.040000     -2.5490670E-35
   5.050000     -2.8407704E-35
   5.060000     -3.1572668E-35
   5.070000     -3.4547199E-35
   5.080000     -3.6990864E-35
   5.090000     -3.8683226E-35
   5.100000     -3.9546781E-35
   5.110000     -4.0034247E-35
   5.120000     -3.9703358E-35
   5.130000     -3.6967168E-35
   5.140000     -3.2256021E-35
   5.150000     -2.6775434E-35
   5.160000     -2.1056450E-35
   5.170000     -1.6029052E-35
   5.180000     -1.2105348E-35
   5.190000     -9.4019502E-36
   5.200000     -8.3986883E-36
   5.210000     -8.7049554E-36
   5.220000     -9.3425850E-36
   5.230000     -1.0114583E-35
   5.240000     -1.1005401E-35
   5.250000     -1.1983079E-35
   5.260000     -1.1520950E-35
   5.270000     -1.1356207E-35
   5.280000     -1.1933033E-35
   5.290000     -1.0919297E-35
   5.300000     -8.6772627E-36
   5.310000     -5.6469238E-36
   5.320000     -2.4127692E-36
   5.330000      7.5703802E-37
   5.340000      3.2948280E-36
   5.350000      1.4889906E-35
   5.360000      3.7959964E-35
   5.370000      6.3412869E-35
   5.380000      8.8650819E-35
   5.390000      1.1154167E-34
   5.400000      1.3005279E-34
   5.410000      1.3560763E-34
   5.420000      1.3151763E-34
   5.430000      1.2829434E-34
   5.440000      1.2572506E-34
   5.450000      1.2445567E-34
   5.460000      1.2622515E-34
   5.470000      1.3146099E-34
   5.480000      1.3774374E-34
   5.490000      1.4448231E-34
   5.500000      1.4947639E-34
   5.510000      1.5161275E-34
   5.520000      1.5196424E-34
   5.530000      1.4979548E-34
   5.540000      1.4489306E-34
   5.550000      1.4823991E-34
   5.560000      1.6721068E-34
   5.570000      1.9331324E-34
   5.580000      2.2043286E-34
   5.590000      2.4654148E-34
   5.600000      2.6986200E-34
   5.610000      2.8042150E-34
   5.620000      2.8139934E-34
   5.630000      2.8566620E-34
   5.640000      2.9130816E-34
   5.650000      3.0302061E-34
   5.660000      3.2277599E-34
   5.670000      3.3571907E-34
   5.680000      3.3822134E-34
   5.690000      3.2432459E-34
   5.700000      2.9196008E-34
   5.710000      2.5320754E-34
   5.720000      2.1145552E-34
   5.730000      1.6953224E-34
   5.740000      1.3267077E-34
   5.750000      1.0612959E-34
   5.760000      8.8061316E-35
   5.770000      8.3656202E-35
   5.780000      8.3529320E-35
   5.790000      7.6454916E-35
   5.800000      6.4373377E-35
   5.810000      4.5098194E-35
   5.820000      2.1767067E-35
   5.830000     -4.7541098E-36
   5.840000     -3.5706898E-35
   5.850000     -7.3708099E-35
   5.860000     -1.1439135E-34
   5.870000     -1.5644548E-34
   5.880000     -2.0116997E-34
   5.890000     -2.4577254E-34
   5.900000     -2.9105405E-34
   5.910000     -3.3608961E-34
   5.920000     -3.7962468E-34
   5.930000     -4.2119055E-34
   5.940000     -4.6006356E-34
   5.950000     -4.9925325E-34
   5.960000     -5.4069448E-34
   5.970000     -5.9111419E-34
   5.980000     -6.5330785E-34
   5.990000     -7.2340000E-34
   6.000000     -7.9979653E-34
   6.010000     -8.7996267E-34
   6.020000     -9.6232598E-34
   6.030000     -1.0447592E-33
   6.040000     -1.1267181E-33
   6.050000     -1.2051816E-33
   6.060000     -1.2777153E-33
   6.070000     -1.3354995E-33
   6.080000     -1.3830140E-33
   6.090000     -1.4348093E-33
   6.100000     -1.4933338E-33
   6.110000     -1.5587724E-33
   6.120000     -1.6294054E-33
   6.130000     -1.6949257E-33
   6.140000     -1.7529014E-33
   6.150000     -1.8124301E-33
   6.160000     -1.8728110E-33
   6.170000     -1.9287186E-33
   6.180000     -1.9834441E-33
   6.190000     -2.0365526E-33
   6.200000     -2.0859974E-33
   6.210000     -2.1272045E-33
   6.220000     -2.1599288E-33
   6.230000     -2.1929503E-33
   6.240000     -2.2247544E-33
   6.250000     -2.2446147E-33
   6.260000     -2.2479087E-33
   6.270000     -2.2400680E-33
   6.280000     -2.2212125E-33
   6.290000     -2.1898213E-33
   6.300000     -2.1454307E-33
   6.310000     -2.0906013E-33
   6.320000     -2.0252175E-33
   6.330000     -1.9516679E-33
   6.340000     -1.8736015E-33
   6.350000     -1.7886803E-33
   6.360000     -1.6949174E-33
   6.370000     -1.5915325E-33
   6.380000     -1.4760772E-33
   6.390000     -1.3460486E-33
   6.400000     -1.1986705E-33
   6.410000     -1.0311560E-33
   6.420000     -8.4267204E-34
   6.430000     -6.3118514E-34
   6.440000     -3.9440457E-34
   6.450000     -1.3362756E-34
   6.460000      1.5005959E-34
   6.470000      4.5439313E-34
   6.480000      7.7660834E-34
   6.490000      1.1143531E-33
   6.500000      1.4660064E-33
   6.510000      1.8300234E-33
   6.520000      2.2038400E-33
   6.530000      2.5878482E-33
   6.540000      2.9847218E-33
   6.550000      3.3951785E-33
   6.560000      3.8216085E-33
   6.570000      4.2704127E-33
   6.580000      4.7437324E-33
   6.590000      5.2408475E-33
   6.600000      5.7653289E-33
   6.610000      6.3179625E-33
   6.620000      6.8971066E-33
   6.630000      7.5011057E-33
   6.640000      8.1257502E-33
   6.650000      8.7677185E-33
   6.660000      9.4224571E-33
   6.670000      1.0081654E-32
   6.680000      1.0740727E-32
   6.690000      1.1398847E-32
   6.700000      1.2052906E-32
   6.710000      1.2702379E-32
   6.720000      1.3344866E-32
   6.730000      1.3979377E-32
   6.740000      1.4608372E-32
   6.750000      1.5232699E-32
   6.760000      1.5851269E-32
   6.770000      1.6462266E-32
   6.780000      1.7065147E-32
   6.790000      1.7656945E-32
   6.800000      1.8230996E-32
   6.810000      1.8781862E-32
   6.820000      1.9303238E-32
   6.830000      1.9786119E-32
   6.840000      2.0222718E-32
   6.850000      2.0605235E-32
   6.860000      2.0926959E-32
   6.870000      2.1182479E-32
   6.880000      2.1367629E-32
   6.890000      2.1479970E-32
   6.900000      2.1517809E-32
   6.910000      2.1480749E-32
   6.920000      2.1367616E-32
   6.930000      2.1176929E-32
   6.940000      2.0906878E-32
   6.950000      2.0553720E-32
   6.960000      2.0111925E-32
   6.970000      1.9575214E-32
   6.980000      1.8935764E-32
   6.990000      1.8182940E-32
   7.000000      1.7307451E-32
   7.010000      1.6300064E-32
   7.020000      1.5151340E-32
   7.030000      1.3853715E-32
   7.040000      1.2401817E-32
   7.050000      1.0791629E-32
   7.060000      9.0210706E-33