  -2.600000      0.0000000E+00
  -2.590000      0.0000000E+00
  -2.580000      0.0000000E+00
  -2.570000      0.0000000E+00
  -2.560000      0.0000000E+00
  -2.550000      0.0000000E+00
  -2.540000      0.0000000E+00
  -2.530000      0.0000000E+00
  -2.520000      0.0000000E+00
  -2.510000      0.0000000E+00
  -2.500000      0.0000000E+00
  -2.490000      0.0000000E+00
  -2.480000      0.0000000E+00
  -2.470000      0.0000000E+00
  -2.460000      0.0000000E+00
  -2.450000      0.0000000E+00
  -2.440000      0.0000000E+00
  -2.430000      0.0000000E+00
  -2.420000      0.0000000E+00
  -2.410000      0.0000000E+00
  -2.400000      0.0000000E+00
  -2.390000      0.0000000E+00
  -2.380000      0.0000000E+00
  -2.370000      0.0000000E+00
  -2.360000      0.0000000E+00
  -2.350000      0.0000000E+00
  -2.340000      0.0000000E+00
  -2.330000      0.0000000E+00
  -2.320000      0.0000000E+00
  -2.310000      0.0000000E+00
  -2.300000      0.0000000E+00
  -2.290000      0.0000000E+00
  -2.280000      0.0000000E+00
  -2.270000      0.0000000E+00
  -2.260000      0.0000000E+00
  -2.250000      0.0000000E+00
  -2.240000      0.0000000E+00
  -2.230000      0.0000000E+00
  -2.220000      0.0000000E+00
  -2.210000      0.0000000E+00
  -2.200000      0.0000000E+00
  -2.190000      0.0000000E+00
  -2.180000      0.0000000E+00
  -2.170000      0.0000000E+00
  -2.160000      0.0000000E+00
  -2.150000      0.0000000E+00
  -2.140000      0.0000000E+00
  -2.130000      0.0000000E+00
  -2.120000      0.0000000E+00
  -2.110000      0.0000000E+00
  -2.100000      0.0000000E+00
  -2.090000      0.0000000E+00
  -2.080000      0.0000000E+00
  -2.070000      0.0000000E+00
  -2.060000      0.0000000E+00
  -2.050000      0.0000000E+00
  -2.040000      0.0000000E+00
  -2.030000      0.0000000E+00
  -2.020000      0.0000000E+00
  -2.010000      0.0000000E+00
  -2.000000      0.0000000E+00
  -1.990000      0.0000000E+00
  -1.980000      0.0000000E+00
  -1.970000      0.0000000E+00
  -1.960000      0.0000000E+00
  -1.950000      0.0000000E+00
  -1.940000      0.0000000E+00
  -1.930000      0.0000000E+00
  -1.920000      0.0000000E+00
  -1.910000      0.0000000E+00
  -1.900000      0.0000000E+00
  -1.890000      0.0000000E+00
  -1.880000      0.0000000E+00
  -1.870000      0.0000000E+00
  -1.860000      0.0000000E+00
  -1.850000      0.0000000E+00
  -1.840000      0.0000000E+00
  -1.830000      0.0000000E+00
  -1.820000      0.0000000E+00
  -1.810000      0.0000000E+00
  -1.800000      0.0000000E+00
  -1.790000      0.0000000E+00
  -1.780000      0.0000000E+00
  -1.770000      0.0000000E+00
  -1.760000      0.0000000E+00
  -1.750000      0.0000000E+00
  -1.740000      0.0000000E+00
  -1.730000      0.0000000E+00
  -1.720000      0.0000000E+00
  -1.710000      0.0000000E+00
  -1.700000      0.0000000E+00
  -1.690000      0.0000000E+00
  -1.680000      0.0000000E+00
  -1.670000      0.0000000E+00
  -1.660000      0.0000000E+00
  -1.650000      0.0000000E+00
  -1.640000      0.0000000E+00
  -1.630000      0.0000000E+00
  -1.620000      0.0000000E+00
  -1.610000      0.0000000E+00
  -1.600000      0.0000000E+00
  -1.590000      0.0000000E+00
  -1.580000      0.0000000E+00
  -1.570000      0.0000000E+00
  -1.560000      0.0000000E+00
  -1.550000      0.0000000E+00
  -1.540000      0.0000000E+00
  -1.530000      0.0000000E+00
  -1.520000      0.0000000E+00
  -1.510000      0.0000000E+00
  -1.500000      0.0000000E+00
  -1.490000      0.0000000E+00
  -1.480000      0.0000000E+00
  -1.470000      0.0000000E+00
  -1.460000      0.0000000E+00
  -1.450000      0.0000000E+00
  -1.440000      0.0000000E+00
  -1.430000      0.0000000E+00
  -1.420000      0.0000000E+00
  -1.410000      0.0000000E+00
  -1.400000      0.0000000E+00
  -1.390000      0.0000000E+00
  -1.380000      0.0000000E+00
  -1.370000      0.0000000E+00
  -1.360000      0.0000000E+00
  -1.350000      0.0000000E+00
  -1.340000      0.0000000E+00
  -1.330000      0.0000000E+00
  -1.320000      0.0000000E+00
  -1.310000      0.0000000E+00
  -1.300000      0.0000000E+00
  -1.290000      0.0000000E+00
  -1.280000      0.0000000E+00
  -1.270000      0.0000000E+00
  -1.260000      0.0000000E+00
  -1.250000      0.0000000E+00
  -1.240000      0.0000000E+00
  -1.230000     -1.8585794E-38
  -1.220000     -2.8402229E-38
  -1.210000     -3.8694708E-38
  -1.200000     -5.2302350E-38
  -1.190000     -6.8617634E-38
  -1.180000     -7.8979037E-38
  -1.170000     -7.8894936E-38
  -1.160000     -6.9343568E-38
  -1.150000     -3.7687011E-38
  -1.140000      2.2115435E-38
  -1.130000      1.0700942E-37
  -1.120000      2.1843122E-37
  -1.110000      3.5615577E-37
  -1.100000      5.2661384E-37
  -1.090000      7.1458877E-37
  -1.080000      8.7864849E-37
  -1.070000      1.0011703E-36
  -1.060000      1.0647840E-36
  -1.050000      1.0382731E-36
  -1.040000      8.9931004E-37
  -1.030000      6.0819501E-37
  -1.020000      1.4323668E-37
  -1.010000     -5.3642781E-37
  -1.000000     -1.5090516E-36
 -0.9900000     -2.7648122E-36
 -0.9800000     -4.2176374E-36
 -0.9700000     -5.8618676E-36
 -0.9600000     -7.6277013E-36
 -0.9500000     -9.3696930E-36
 -0.9400000     -1.0988144E-35
 -0.9300000     -1.2217899E-35
 -0.9200000     -1.2791017E-35
 -0.9100000     -1.2158440E-35
 -0.9000000     -9.8411054E-36
 -0.8900000     -5.6379440E-36
 -0.8800000      2.8450000E-37
 -0.8700000      8.1076738E-36
 -0.8600000      1.8240038E-35
 -0.8500000      3.0078797E-35
 -0.8400000      4.3465003E-35
 -0.8300000      5.8057867E-35
 -0.8200000      7.2954698E-35
 -0.8100000      8.7066617E-35
 -0.8000000      9.9128302E-35
 -0.7900000      1.0785281E-34
 -0.7800000      1.1129135E-34
 -0.7700000      1.0731104E-34
 -0.7600000      9.3779464E-35
 -0.7500000      6.8548924E-35
 -0.7400000      2.9654009E-35
 -0.7300000     -2.4922834E-35
 -0.7200000     -9.6307345E-35
 -0.7100000     -1.8402366E-34
 -0.7000000     -2.8675471E-34
 -0.6900000     -4.0175835E-34
 -0.6800000     -5.2280047E-34
 -0.6700000     -6.4383267E-34
 -0.6600000     -7.5580113E-34
 -0.6500000     -8.4698822E-34
 -0.6400000     -9.0497177E-34
 -0.6300000     -9.1391352E-34
 -0.6200000     -8.6204208E-34
 -0.6100000     -7.3532572E-34
 -0.6000000     -5.1713371E-34
 -0.5900000     -1.9957839E-34
 -0.5800000      2.2658492E-34
 -0.5700000      7.6955597E-34
 -0.5600000      1.4240525E-33
 -0.5500000      2.1796075E-33
 -0.5400000      3.0151421E-33
 -0.5300000      3.8934048E-33
 -0.5200000      4.7684990E-33
 -0.5100000      5.5806245E-33
 -0.5000000      6.2556540E-33
 -0.4900000      6.7109575E-33
 -0.4800000      6.8527155E-33
 -0.4700000      6.5828080E-33
 -0.4600000      5.8024815E-33
 -0.4500000      4.4171819E-33
 -0.4400000      2.3487621E-33
 -0.4300000     -4.5871477E-34
 -0.4200000     -4.0281837E-33
 -0.4100000     -8.3408061E-33
 -0.4000000     -1.3326067E-32
 -0.3900000     -1.8851246E-32
 -0.3800000     -2.4714974E-32
 -0.3700000     -3.0640680E-32
 -0.3600000     -3.6275141E-32
 -0.3500000     -4.1193248E-32
 -0.3400000     -4.4902347E-32
 -0.3300000     -4.6854702E-32
 -0.3200000     -4.6469731E-32
 -0.3100000     -4.3158440E-32
 -0.3000000     -3.6358173E-32
 -0.2900000     -2.5571707E-32
 -0.2800000     -1.0410719E-32
 -0.2700000      9.3535298E-33
 -0.2600000      3.3739242E-32
 -0.2500000      6.2503280E-32
 -0.2400000      9.5093414E-32
 -0.2300000      1.3060712E-31
 -0.2200000      1.6776099E-31
 -0.2100000      2.0487484E-31
 -0.2000000      2.3987389E-31
 -0.1900000      2.7031355E-31
 -0.1800000      2.9342986E-31
 -0.1700000      3.0621795E-31
 -0.1600000      3.0554119E-31
 -0.1500000      2.8826996E-31
 -0.1400000      2.5144953E-31
 -0.1300000      1.9249446E-31
 -0.1200000      1.0940378E-31
 -0.1100000      9.9028713E-34
 -0.1000000     -1.3288512E-31
 -9.0000004E-02 -2.9108541E-31
 -7.9999998E-02 -4.7098814E-31
 -7.0000000E-02 -6.6830959E-31
 -5.9999999E-02 -8.7697765E-31
 -5.0000001E-02 -1.0890678E-30
 -3.9999999E-02 -1.2948189E-30
 -2.9999999E-02 -1.4827434E-30
 -2.0000000E-02 -1.6398404E-30
 -9.9999998E-03 -1.7519256E-30
 -3.4694470E-17 -1.8040803E-30
  9.9999998E-03 -1.7812221E-30
  2.0000000E-02 -1.6687923E-30
  2.9999999E-02 -1.4535511E-30
  3.9999999E-02 -1.1244634E-30
  5.0000001E-02 -6.7365621E-31
  5.9999999E-02 -9.7418007E-32
  7.0000000E-02  6.0279139E-31
  7.9999998E-02  1.4193566E-30
  9.0000004E-02  2.3375866E-30
  0.1000000      3.3349019E-30
  0.1100000      4.3801665E-30
  0.1200000      5.4332037E-30
  0.1300000      6.4445272E-30
  0.1400000      7.3553175E-30
  0.1500000      8.0976665E-30
  0.1600000      8.5950823E-30
  0.1700000      8.7632731E-30
  0.1800000      8.5111877E-30
  0.1900000      7.7422843E-30
  0.2000000      6.3559894E-30
  0.2100000      4.2493154E-30
  0.2200000      1.3185579E-30
  0.2300000     -2.5389683E-30
  0.2400000     -7.4232276E-30
  0.2500000     -1.3429862E-29
  0.2600000     -2.0648733E-29
  0.2700000     -2.9162666E-29
  0.2800000     -3.9046448E-29
  0.2900000     -5.0366044E-29
  0.3000000     -6.3178110E-29
  0.3100000     -7.7529706E-29
  0.3200000     -9.3458242E-29
  0.3300000     -1.1099149E-28
  0.3400000     -1.3014771E-28
  0.3500000     -1.5093571E-28
  0.3600000     -1.7335474E-28
  0.3700000     -1.9739411E-28
  0.3800000     -2.2303258E-28
  0.3900000     -2.5023709E-28
  0.4000000     -2.7896113E-28
  0.4100000     -3.0914267E-28
  0.4200000     -3.4070139E-28
  0.4300000     -3.7353551E-28
  0.4400000     -4.0751825E-28
  0.4500000     -4.4249415E-28
  0.4600000     -4.7827543E-28
  0.4700000     -5.1463872E-28
  0.4800000     -5.5132229E-28
  0.4900000     -5.8802430E-28
  0.5000000     -6.2440238E-28
  0.5100000     -6.6007484E-28
  0.5200000     -6.9462429E-28
  0.5300000     -7.2760280E-28
  0.5400000     -7.5854017E-28
  0.5500000     -7.8695472E-28
  0.5600000     -8.1236630E-28
  0.5700000     -8.3431237E-28
  0.5800000     -8.5236633E-28
  0.5900000     -8.6615647E-28
  0.6000000     -8.7538783E-28
  0.6100000     -8.7986350E-28
  0.6200000     -8.7950605E-28
  0.6300000     -8.7437711E-28
  0.6400000     -8.6469623E-28
  0.6500000     -8.5085515E-28
  0.6600000     -8.3342808E-28
  0.6700000     -8.1317741E-28
  0.6800000     -7.9105435E-28
  0.6900000     -7.6819178E-28
  0.7000000     -7.4589187E-28
  0.7100000     -7.2560619E-28
  0.7200000     -7.0891055E-28
  0.7300000     -6.9747298E-28
  0.7400000     -6.9301763E-28
  0.7500000     -6.9728626E-28
  0.7600000     -7.1199487E-28
  0.7700000     -7.3879250E-28
  0.7800000     -7.7922114E-28
  0.7900000     -8.3467743E-28
  0.8000000     -9.0638231E-28
  0.8100000     -9.9535565E-28
  0.8200000     -1.1023996E-27
  0.8300000     -1.2280930E-27
  0.8400000     -1.3727948E-27
  0.8500000     -1.5366575E-27
  0.8600000     -1.7196528E-27
  0.8700000     -1.9216047E-27
  0.8800000     -2.1422296E-27
  0.8900000     -2.3811836E-27
  0.9000000     -2.6381121E-27
  0.9100000     -2.9126963E-27
  0.9200000     -3.2047014E-27
  0.9300000     -3.5140129E-27
  0.9400000     -3.8406672E-27
  0.9500000     -4.1848632E-27
  0.9600000     -4.5469677E-27
  0.9700000     -4.9274987E-27
  0.9800000     -5.3270883E-27
  0.9900000     -5.7464353E-27
   1.000000     -6.1862353E-27
   1.010000     -6.6471022E-27
   1.020000     -7.1294768E-27
   1.030000     -7.6335289E-27
   1.040000     -8.1590635E-27
   1.050000     -8.7054298E-27
   1.060000     -9.2714375E-27
   1.070000     -9.8552994E-27
   1.080000     -1.0454597E-26
   1.090000     -1.1066268E-26
   1.100000     -1.1686633E-26
   1.110000     -1.2311459E-26
   1.120000     -1.2936051E-26
   1.130000     -1.3555385E-26
   1.140000     -1.4164273E-26
   1.150000     -1.4757561E-26
   1.160000     -1.5330324E-26
   1.170000     -1.5878089E-26
   1.180000     -1.6397073E-26
   1.190000     -1.6884364E-26
   1.200000     -1.7338112E-26
   1.210000     -1.7757678E-26
   1.220000     -1.8143724E-26
   1.230000     -1.8498263E-26
   1.240000     -1.8824640E-26
   1.250000     -1.9127426E-26
   1.260000     -1.9412271E-26
   1.270000     -1.9685668E-26
   1.280000     -1.9954676E-26
   1.290000     -2.0226566E-26
   1.300000     -2.0508482E-26
   1.310000     -2.0807014E-26
   1.320000     -2.1127827E-26
   1.330000     -2.1475278E-26
   1.340000     -2.1852093E-26
   1.350000     -2.2259108E-26
   1.360000     -2.2695097E-26
   1.370000     -2.3156684E-26
   1.380000     -2.3638362E-26
   1.390000     -2.4132631E-26
   1.400000     -2.4630287E-26
   1.410000     -2.5120766E-26
   1.420000     -2.5592615E-26
   1.430000     -2.6034062E-26
   1.440000     -2.6433576E-26
   1.450000     -2.6780497E-26
   1.460000     -2.7065636E-26
   1.470000     -2.7281802E-26
   1.480000     -2.7424281E-26
   1.490000     -2.7491149E-26
   1.500000     -2.7483449E-26
   1.510000     -2.7405200E-26
   1.520000     -2.7263181E-26
   1.530000     -2.7066542E-26
   1.540000     -2.6826167E-26
   1.550000     -2.6553905E-26
   1.560000     -2.6261608E-26
   1.570000     -2.5960050E-26
   1.580000     -2.5657849E-26
   1.590000     -2.5360302E-26
   1.600000     -2.5068279E-26
   1.610000     -2.4777255E-26
   1.620000     -2.4476522E-26
   1.630000     -2.4148652E-26
   1.640000     -2.3769268E-26
   1.650000     -2.3307086E-26
   1.660000     -2.2724354E-26
   1.670000     -2.1977708E-26
   1.680000     -2.1019333E-26
   1.690000     -1.9798470E-26
   1.700000     -1.8263091E-26
   1.710000     -1.6361961E-26
   1.720000     -1.4046701E-26
   1.730000     -1.1273783E-26
   1.740000     -8.0066139E-27
   1.750000     -4.2173132E-27
   1.760000      1.1185733E-28
   1.770000      4.9874494E-27
   1.780000      1.0404258E-26
   1.790000      1.6345307E-26
   1.800000      2.2782465E-26
   1.810000      2.9677684E-26
   1.820000      3.6984720E-26
   1.830000      4.4651453E-26
   1.840000      5.2622637E-26
   1.850000      6.0842808E-26
   1.860000      6.9259442E-26
   1.870000      7.7826163E-26
   1.880000      8.6505587E-26
   1.890000      9.5271878E-26
   1.900000      1.0411273E-25
   1.910000      1.1303062E-25
   1.920000      1.2204327E-25
   1.930000      1.3118314E-25
   1.940000      1.4049608E-25
   1.950000      1.5003883E-25
   1.960000      1.5987584E-25
   1.970000      1.7007519E-25
   1.980000      1.8070394E-25
   1.990000      1.9182305E-25
   2.000000      2.0348231E-25
   2.010000      2.1571522E-25
   2.020000      2.2853446E-25
   2.030000      2.4192799E-25
   2.040000      2.5585621E-25
   2.050000      2.7025031E-25
   2.060000      2.8501194E-25
   2.070000      3.0001465E-25
   2.080000      3.1510652E-25
   2.090000      3.3011457E-25
   2.100000      3.4485062E-25
   2.110000      3.5911813E-25
   2.120000      3.7271999E-25
   2.130000      3.8546682E-25
   2.140000      3.9718538E-25
   2.150000      4.0772668E-25
   2.160000      4.1697314E-25
   2.170000      4.2484469E-25
   2.180000      4.3130314E-25
   2.190000      4.3635442E-25
   2.200000      4.4004855E-25
   2.210000      4.4247731E-25
   2.220000      4.4376971E-25
   2.230000      4.4408466E-25
   2.240000      4.4360188E-25
   2.250000      4.4251108E-25
   2.260000      4.4099982E-25
   2.270000      4.3924096E-25
   2.280000      4.3738008E-25
   2.290000      4.3552370E-25
   2.300000      4.3372884E-25
   2.310000      4.3199532E-25
   2.320000      4.3025987E-25
   2.330000      4.2839451E-25
   2.340000      4.2620814E-25
   2.350000      4.2345156E-25
   2.360000      4.1982684E-25
   2.370000      4.1499975E-25
   2.380000      4.0861540E-25
   2.390000      4.0031644E-25
   2.400000      3.8976247E-25
   2.410000      3.7665049E-25
   2.420000      3.6073446E-25
   2.430000      3.4184388E-25
   2.440000      3.1989927E-25
   2.450000      2.9492428E-25
   2.460000      2.6705316E-25
   2.470000      2.3653321E-25
   2.480000      2.0372159E-25
   2.490000      1.6907630E-25
   2.500000      1.3314158E-25
   2.510000      9.6528139E-26
   2.520000      5.9889001E-26
   2.530000      2.3892129E-26
   2.540000     -1.0808953E-26
   2.550000     -4.3605091E-26
   2.560000     -7.3960363E-26
   2.570000     -1.0143800E-25
   2.580000     -1.2572220E-25
   2.590000     -1.4663395E-25
   2.600000     -1.6413987E-25
   2.610000     -1.7835333E-25
   2.620000     -1.8952686E-25
   2.630000     -1.9803646E-25
   2.640000     -2.0435731E-25
   2.650000     -2.0903283E-25
   2.660000     -2.1263743E-25
   2.670000     -2.1573512E-25
   2.680000     -2.1883645E-25
   2.690000     -2.2235497E-25
   2.700000     -2.2656665E-25
   2.710000     -2.3157448E-25
   2.720000     -2.3728017E-25
   2.730000     -2.4336544E-25
   2.740000     -2.4928409E-25
   2.750000     -2.5426673E-25
   2.760000     -2.5733772E-25
   2.770000     -2.5734524E-25
   2.780000     -2.5300295E-25
   2.790000     -2.4294182E-25
   2.800000     -2.2577034E-25
   2.810000     -2.0014042E-25
   2.820000     -1.6481521E-25
   2.830000     -1.1873605E-25
   2.840000     -6.1084544E-26
   2.850000      8.6632242E-27
   2.860000      9.0694247E-26
   2.870000      1.8483076E-25
   2.880000      2.9051792E-25
   2.890000      4.0683026E-25
   2.900000      5.3249600E-25
   2.910000      6.6593971E-25
   2.920000      8.0534110E-25
   2.930000      9.4870730E-25
   2.940000      1.0939570E-24
   2.950000      1.2390101E-24
   2.960000      1.3818786E-24
   2.970000      1.5207568E-24
   2.980000      1.6540998E-24
   2.990000      1.7806918E-24
   3.000000      1.8996942E-24
   3.010000      2.0106741E-24
   3.020000      2.1136088E-24
   3.030000      2.2088630E-24
   3.040000      2.2971409E-24
   3.050000      2.3794147E-24
   3.060000      2.4568300E-24
   3.070000      2.5305928E-24
   3.080000      2.6018457E-24
   3.090000      2.6715345E-24
   3.100000      2.7402784E-24
   3.110000      2.8082460E-24
   3.120000      2.8750454E-24
   3.130000      2.9396381E-24
   3.140000      3.0002798E-24
   3.150000      3.0544933E-24
   3.160000      3.0990773E-24
   3.170000      3.1301555E-24
   3.180000      3.1432595E-24
   3.190000      3.1334490E-24
   3.200000      3.0954612E-24
   3.210000      3.0238873E-24
   3.220000      2.9133619E-24
   3.230000      2.7587637E-24
   3.240000      2.5554129E-24
   3.250000      2.2992558E-24
   3.260000      1.9870278E-24
   3.270000      1.6163843E-24
   3.280000      1.1859925E-24
   3.290000      6.9557830E-25
   3.300000      1.4592333E-25
   3.310000     -4.6118869E-25
   3.320000     -1.1230763E-24
   3.330000     -1.8363073E-24
   3.340000     -2.5968851E-24
   3.350000     -3.4004658E-24
   3.360000     -4.2425898E-24
   3.370000     -5.1189188E-24
   3.380000     -6.0254647E-24
   3.390000     -6.9587953E-24
   3.400000     -7.9162010E-24
   3.410000     -8.8958164E-24
   3.420000     -9.8966766E-24
   3.430000     -1.0918713E-23
   3.440000     -1.1962676E-23
   3.450000     -1.3029988E-23
   3.460000     -1.4122526E-23
   3.470000     -1.5242344E-23
   3.480000     -1.6391353E-23
   3.490000     -1.7570946E-23
   3.500000     -1.8781631E-23
   3.510000     -2.0022639E-23
   3.520000     -2.1291566E-23
   3.530000     -2.2584039E-23
   3.540000     -2.3893456E-23
   3.550000     -2.5210781E-23
   3.560000     -2.6524435E-23
   3.570000     -2.7820272E-23
   3.580000     -2.9081667E-23
   3.590000     -3.0289684E-23
   3.600000     -3.1423350E-23
   3.610000     -3.2460011E-23
   3.620000     -3.3375736E-23
   3.630000     -3.4145800E-23
   3.640000     -3.4745151E-23
   3.650000     -3.5148906E-23
   3.660000     -3.5332802E-23
   3.670000     -3.5273594E-23
   3.680000     -3.4949406E-23
   3.690000     -3.4339945E-23
   3.700000     -3.3426627E-23
   3.710000     -3.2192581E-23
   3.720000     -3.0622539E-23
   3.730000     -2.8702565E-23
   3.740000     -2.6419739E-23
   3.750000     -2.3761691E-23
   3.760000     -2.0716104E-23
   3.770000     -1.7270155E-23
   3.780000     -1.3409952E-23
   3.790000     -9.1200170E-24
   3.800000     -4.3828153E-24
   3.810000      8.2163107E-25
   3.820000      6.5159946E-24
   3.830000      1.2725738E-23
   3.840000      1.9479033E-23
   3.850000      2.6806522E-23
   3.860000      3.4740882E-23
   3.870000      4.3316207E-23
   3.880000      5.2567267E-23
   3.890000      6.2528593E-23
   3.900000      7.3233473E-23
   3.910000      8.4712882E-23
   3.920000      9.6994430E-23
   3.930000      1.1010130E-22
   3.940000      1.2405127E-22
   3.950000      1.3885580E-22
   3.960000      1.5451941E-22
   3.970000      1.7103910E-22
   3.980000      1.8840404E-22
   3.990000      2.0659550E-22
   4.000000      2.2558696E-22
   4.010000      2.4534435E-22
   4.020000      2.6582671E-22
   4.030000      2.8698676E-22
   4.040000      3.0877164E-22
   4.050000      3.3112370E-22
   4.060000      3.5398140E-22
   4.070000      3.7727991E-22
   4.080000      4.0095187E-22
   4.090000      4.2492769E-22
   4.100000      4.4913575E-22
   4.110000      4.7350269E-22
   4.120000      4.9795258E-22
   4.130000      5.2240671E-22
   4.140000      5.4678264E-22
   4.150000      5.7099307E-22
   4.160000      5.9494430E-22
   4.170000      6.1853516E-22
   4.180000      6.4165502E-22
   4.190000      6.6418241E-22
   4.200000      6.8598340E-22
   4.210000      7.0691000E-22
   4.220000      7.2679934E-22
   4.230000      7.4547239E-22
   4.240000      7.6273338E-22
   4.250000      7.7836969E-22
   4.260000      7.9215201E-22
   4.270000      8.0383503E-22
   4.280000      8.1315828E-22
   4.290000      8.1984756E-22
   4.300000      8.2361703E-22
   4.310000      8.2417072E-22
   4.320000      8.2120486E-22
   4.330000      8.1441041E-22
   4.340000      8.0347505E-22
   4.350000      7.8808537E-22
   4.360000      7.6792921E-22
   4.370000      7.4269717E-22
   4.380000      7.1208417E-22
   4.390000      6.7579025E-22
   4.400000      6.3352165E-22
   4.410000      5.8499082E-22
   4.420000      5.2991647E-22
   4.430000      4.6802327E-22
   4.440000      3.9904091E-22
   4.450000      3.2270358E-22
   4.460000      2.3874927E-22
   4.470000      1.4691872E-22
   4.480000      4.6955033E-23
   4.490000     -6.1396438E-23
   4.500000     -1.7838801E-22
   4.510000     -3.0426873E-22
   4.520000     -4.3928324E-22
   4.530000     -5.8366968E-22
   4.540000     -7.3765684E-22
   4.550000     -9.0146087E-22
   4.560000     -1.0752815E-21
   4.570000     -1.2592971E-21
   4.580000     -1.4536597E-21
   4.590000     -1.6584897E-21
   4.600000     -1.8738704E-21
   4.610000     -2.0998422E-21
   4.620000     -2.3363965E-21
   4.630000     -2.5834717E-21
   4.640000     -2.8409472E-21
   4.650000     -3.1086399E-21
   4.660000     -3.3862995E-21
   4.670000     -3.6736068E-21
   4.680000     -3.9701701E-21
   4.690000     -4.2755241E-21
   4.700000     -4.5891302E-21
   4.710000     -4.9103739E-21
   4.720000     -5.2385675E-21
   4.730000     -5.5729480E-21
   4.740000     -5.9126810E-21
   4.750000     -6.2568580E-21
   4.760000     -6.6045000E-21
   4.770000     -6.9545565E-21
   4.780000     -7.3059039E-21
   4.790000     -7.6573483E-21
   4.800000     -8.0076221E-21
   4.810000     -8.3553804E-21
   4.820000     -8.6992016E-21
   4.830000     -9.0375839E-21
   4.840000     -9.3689368E-21
   4.850000     -9.6915825E-21
   4.860000     -1.0003749E-20
   4.870000     -1.0303564E-20
   4.880000     -1.0589056E-20
   4.890000     -1.0858145E-20
   4.900000     -1.1108641E-20
   4.910000     -1.1338247E-20
   4.920000     -1.1544550E-20
   4.930000     -1.1725030E-20
   4.940000     -1.1877054E-20
   4.950000     -1.1997886E-20
   4.960000     -1.2084692E-20
   4.970000     -1.2134540E-20
   4.980000     -1.2144419E-20
   4.990000     -1.2111238E-20
   5.000000     -1.2031849E-20
   5.010000     -1.1903050E-20
   5.020000     -1.1721598E-20
   5.030000     -1.1484230E-20
   5.040000     -1.1187665E-20
   5.050000     -1.0828632E-20
   5.060000     -1.0403868E-20
   5.070000     -9.9101464E-21
   5.080000     -9.3442781E-21
   5.090000     -8.7031307E-21
   5.100000     -7.9836347E-21
   5.110000     -7.1828010E-21
   5.120000     -6.2977279E-21
   5.130000     -5.3256162E-21
   5.140000     -4.2637748E-21
   5.150000     -3.1096357E-21
   5.160000     -1.8607680E-21
   5.170000     -5.1488934E-22
   5.180000      9.3012057E-22
   5.190000      2.4762021E-21
   5.200000      4.1250976E-21
   5.210000      5.8783320E-21
   5.220000      7.7371873E-21
   5.230000      9.7026816E-21
   5.240000      1.1775547E-20
   5.250000      1.3956195E-20
   5.260000      1.6244687E-20
   5.270000      1.8640711E-20
   5.280000      2.1143539E-20
   5.290000      2.3752007E-20
   5.300000      2.6464469E-20
   5.310000      2.9278778E-20
   5.320000      3.2192247E-20
   5.330000      3.5201608E-20
   5.340000      3.8303009E-20
   5.350000      4.1491964E-20
   5.360000      4.4763338E-20
   5.370000      4.8111325E-20
   5.380000      5.1529423E-20
   5.390000      5.5010419E-20
   5.400000      5.8546370E-20
   5.410000      6.2128599E-20
   5.420000      6.5747676E-20
   5.430000      6.9393397E-20
   5.440000      7.3054802E-20
   5.450000      7.6720155E-20
   5.460000      8.0376927E-20
   5.470000      8.4011817E-20
   5.480000      8.7610718E-20
   5.490000      9.1158735E-20
   5.500000      9.4640183E-20
   5.510000      9.8038564E-20
   5.520000      1.0133660E-19
   5.530000      1.0451619E-19
   5.540000      1.0755846E-19
   5.550000      1.1044375E-19
   5.560000      1.1315157E-19
   5.570000      1.1566074E-19
   5.580000      1.1794925E-19
   5.590000      1.1999439E-19
   5.600000      1.2177273E-19
   5.610000      1.2326017E-19
   5.620000      1.2443195E-19
   5.630000      1.2526275E-19
   5.640000      1.2572666E-19
   5.650000      1.2579732E-19
   5.660000      1.2544792E-19
   5.670000      1.2465132E-19
   5.680000      1.2338014E-19
   5.690000      1.2160677E-19
   5.700000      1.1930354E-19
   5.710000      1.1644278E-19
   5.720000      1.1299701E-19
   5.730000      1.0893890E-19
   5.740000      1.0424149E-19
   5.750000      9.8878346E-20
   5.760000      9.2823585E-20
   5.770000      8.6052077E-20
   5.780000      7.8539520E-20
   5.790000      7.0262628E-20
   5.800000      6.1199261E-20
   5.810000      5.1328547E-20
   5.820000      4.0631050E-20
   5.830000      2.9088902E-20
   5.840000      1.6685962E-20
   5.850000      3.4079793E-21
   5.860000     -1.0757229E-20
   5.870000     -2.5819632E-20
   5.880000     -4.1786845E-20
   5.890000     -5.8663914E-20
   5.900000     -7.6453157E-20
   5.910000     -9.5153959E-20
   5.920000     -1.1476262E-19
   5.930000     -1.3527213E-19
   5.940000     -1.5667201E-19
   5.950000     -1.7894810E-19
   5.960000     -2.0208236E-19
   5.970000     -2.2605269E-19
   5.980000     -2.5083275E-19
   5.990000     -2.7639173E-19
   6.000000     -3.0269418E-19
   6.010000     -3.2969987E-19
   6.020000     -3.5736358E-19
   6.030000     -3.8563488E-19
   6.040000     -4.1445812E-19
   6.050000     -4.4377211E-19
   6.060000     -4.7351008E-19
   6.070000     -5.0359965E-19
   6.080000     -5.3396256E-19
   6.090000     -5.6451458E-19
   6.100000     -5.9516550E-19
   6.110000     -6.2581926E-19
   6.120000     -6.5637355E-19
   6.130000     -6.8671997E-19
   6.140000     -7.1674414E-19
   6.150000     -7.4632541E-19
   6.160000     -7.7533733E-19
   6.170000     -8.0364727E-19
   6.180000     -8.3111685E-19
   6.190000     -8.5760183E-19
   6.200000     -8.8295233E-19
   6.210000     -9.0701316E-19
   6.220000     -9.2962362E-19
   6.230000     -9.5061798E-19
   6.240000     -9.6982563E-19
   6.250000     -9.8707142E-19
   6.260000     -1.0021760E-18
   6.270000     -1.0149561E-18
   6.280000     -1.0252246E-18
   6.290000     -1.0327913E-18
   6.300000     -1.0374636E-18
   6.310000     -1.0390462E-18
   6.320000     -1.0373423E-18
   6.330000     -1.0321540E-18
   6.340000     -1.0232825E-18
   6.350000     -1.0105290E-18
   6.360000     -9.9369569E-19
   6.370000     -9.7258583E-19
   6.380000     -9.4700496E-19
   6.390000     -9.1676158E-19
   6.400000     -8.8166772E-19
   6.410000     -8.4154021E-19
   6.420000     -7.9620130E-19
   6.430000     -7.4547957E-19
   6.440000     -6.8921118E-19
   6.450000     -6.2724056E-19
   6.460000     -5.5942158E-19
   6.470000     -4.8561866E-19
   6.480000     -4.0570787E-19
   6.490000     -3.1957782E-19
   6.500000     -2.2713116E-19
   6.510000     -1.2828531E-19
   6.520000     -2.2973941E-20
   6.530000      8.8851858E-20
   6.540000      2.0722266E-19
   6.550000      3.3214933E-19
   6.560000      4.6362176E-19
   6.570000      6.0160768E-19
   6.580000      7.4605182E-19
   6.590000      8.9687430E-19
   6.600000      1.0539698E-18
   6.610000      1.2172061E-18
   6.620000      1.3864234E-18
   6.630000      1.5614324E-18
   6.640000      1.7420145E-18
   6.650000      1.9279198E-18
   6.660000      2.1188662E-18
   6.670000      2.3145388E-18
   6.680000      2.5145892E-18
   6.690000      2.7186333E-18
   6.700000      2.9262525E-18
   6.710000      3.1369917E-18
   6.720000      3.3503596E-18
   6.730000      3.5658267E-18
   6.740000      3.7828264E-18
   6.750000      4.0007546E-18
   6.760000      4.2189669E-18
   6.770000      4.4367826E-18
   6.780000      4.6534820E-18
   6.790000      4.8683057E-18
   6.800000      5.0804577E-18
   6.810000      5.2891045E-18
   6.820000      5.4933743E-18
   6.830000      5.6923600E-18
   6.840000      5.8851179E-18
   6.850000      6.0706715E-18
   6.860000      6.2480087E-18
   6.870000      6.4160872E-18
   6.880000      6.5738347E-18
   6.890000      6.7201489E-18
   6.900000      6.8539023E-18
   6.910000      6.9739424E-18
   6.920000      7.0790961E-18
   6.930000      7.1681677E-18
   6.940000      7.2399479E-18
   6.950000      7.2932142E-18
   6.960000      7.3267316E-18
   6.970000      7.3392601E-18
   6.980000      7.3295556E-18
   6.990000      7.2963749E-18
   7.000000      7.2384772E-18
   7.010000      7.1546334E-18
   7.020000      7.0436274E-18
   7.030000      6.9042590E-18
   7.040000      6.7353504E-18
   7.050000      6.5357530E-18
   7.060000      6.3043488E-18