  -2.600000      0.0000000E+00
  -2.590000      0.0000000E+00
  -2.580000      0.0000000E+00
  -2.570000      0.0000000E+00
  -2.560000      0.0000000E+00
  -2.550000      0.0000000E+00
  -2.540000      0.0000000E+00
  -2.530000      0.0000000E+00
  -2.520000      0.0000000E+00
  -2.510000      0.0000000E+00
  -2.500000      0.0000000E+00
  -2.490000      0.0000000E+00
  -2.480000      0.0000000E+00
  -2.470000      0.0000000E+00
  -2.460000      0.0000000E+00
  -2.450000      0.0000000E+00
  -2.440000      0.0000000E+00
  -2.430000      0.0000000E+00
  -2.420000      0.0000000E+00
  -2.410000      0.0000000E+00
  -2.400000      0.0000000E+00
  -2.390000      0.0000000E+00
  -2.380000      0.0000000E+00
  -2.370000      0.0000000E+00
  -2.360000      0.0000000E+00
  -2.350000      0.0000000E+00
  -2.340000      0.0000000E+00
  -2.330000      0.0000000E+00
  -2.320000      0.0000000E+00
  -2.310000      0.0000000E+00
  -2.300000      0.0000000E+00
  -2.290000      0.0000000E+00
  -2.280000      0.0000000E+00
  -2.270000      0.0000000E+00
  -2.260000      0.0000000E+00
  -2.250000      0.0000000E+00
  -2.240000      0.0000000E+00
  -2.230000      0.0000000E+00
  -2.220000      0.0000000E+00
  -2.210000      0.0000000E+00
  -2.200000      0.0000000E+00
  -2.190000      0.0000000E+00
  -2.180000      0.0000000E+00
  -2.170000      0.0000000E+00
  -2.160000      0.0000000E+00
  -2.150000      0.0000000E+00
  -2.140000      0.0000000E+00
  -2.130000      0.0000000E+00
  -2.120000      0.0000000E+00
  -2.110000      0.0000000E+00
  -2.100000      0.0000000E+00
  -2.090000      0.0000000E+00
  -2.080000      0.0000000E+00
  -2.070000      0.0000000E+00
  -2.060000      0.0000000E+00
  -2.050000      0.0000000E+00
  -2.040000      0.0000000E+00
  -2.030000      0.0000000E+00
  -2.020000      0.0000000E+00
  -2.010000      0.0000000E+00
  -2.000000      0.0000000E+00
  -1.990000      0.0000000E+00
  -1.980000      0.0000000E+00
  -1.970000      0.0000000E+00
  -1.960000      0.0000000E+00
  -1.950000      0.0000000E+00
  -1.940000      0.0000000E+00
  -1.930000      0.0000000E+00
  -1.920000      0.0000000E+00
  -1.910000      0.0000000E+00
  -1.900000      0.0000000E+00
  -1.890000      0.0000000E+00
  -1.880000      0.0000000E+00
  -1.870000      0.0000000E+00
  -1.860000      0.0000000E+00
  -1.850000      0.0000000E+00
  -1.840000      0.0000000E+00
  -1.830000      0.0000000E+00
  -1.820000      0.0000000E+00
  -1.810000      0.0000000E+00
  -1.800000      0.0000000E+00
  -1.790000      0.0000000E+00
  -1.780000      0.0000000E+00
  -1.770000      0.0000000E+00
  -1.760000      0.0000000E+00
  -1.750000      0.0000000E+00
  -1.740000      0.0000000E+00
  -1.730000      0.0000000E+00
  -1.720000      0.0000000E+00
  -1.710000      0.0000000E+00
  -1.700000      0.0000000E+00
  -1.690000      0.0000000E+00
  -1.680000      0.0000000E+00
  -1.670000      0.0000000E+00
  -1.660000      0.0000000E+00
  -1.650000      0.0000000E+00
  -1.640000      0.0000000E+00
  -1.630000      0.0000000E+00
  -1.620000      0.0000000E+00
  -1.610000      0.0000000E+00
  -1.600000      0.0000000E+00
  -1.590000      0.0000000E+00
  -1.580000      0.0000000E+00
  -1.570000      0.0000000E+00
  -1.560000      0.0000000E+00
  -1.550000      0.0000000E+00
  -1.540000      0.0000000E+00
  -1.530000      0.0000000E+00
  -1.520000      0.0000000E+00
  -1.510000      0.0000000E+00
  -1.500000      0.0000000E+00
  -1.490000      0.0000000E+00
  -1.480000      0.0000000E+00
  -1.470000      0.0000000E+00
  -1.460000      0.0000000E+00
  -1.450000      0.0000000E+00
  -1.440000      0.0000000E+00
  -1.430000      0.0000000E+00
  -1.420000      0.0000000E+00
  -1.410000      0.0000000E+00
  -1.400000      0.0000000E+00
  -1.390000      0.0000000E+00
  -1.380000      0.0000000E+00
  -1.370000      0.0000000E+00
  -1.360000      0.0000000E+00
  -1.350000      0.0000000E+00
  -1.340000      0.0000000E+00
  -1.330000      0.0000000E+00
  -1.320000      0.0000000E+00
  -1.310000      0.0000000E+00
  -1.300000      0.0000000E+00
  -1.290000      0.0000000E+00
  -1.280000      0.0000000E+00
  -1.270000      0.0000000E+00
  -1.260000      0.0000000E+00
  -1.250000      0.0000000E+00
  -1.240000      0.0000000E+00
  -1.230000      0.0000000E+00
  -1.220000      0.0000000E+00
  -1.210000      0.0000000E+00
  -1.200000      0.0000000E+00
  -1.190000      0.0000000E+00
  -1.180000      0.0000000E+00
  -1.170000      0.0000000E+00
  -1.160000      0.0000000E+00
  -1.150000      0.0000000E+00
  -1.140000      0.0000000E+00
  -1.130000      0.0000000E+00
  -1.120000      0.0000000E+00
  -1.110000      0.0000000E+00
  -1.100000      0.0000000E+00
  -1.090000      0.0000000E+00
  -1.080000      0.0000000E+00
  -1.070000      0.0000000E+00
  -1.060000      0.0000000E+00
  -1.050000      0.0000000E+00
  -1.040000      0.0000000E+00
  -1.030000      0.0000000E+00
  -1.020000      0.0000000E+00
  -1.010000      0.0000000E+00
  -1.000000      0.0000000E+00
 -0.9900000      0.0000000E+00
 -0.9800000      0.0000000E+00
 -0.9700000      0.0000000E+00
 -0.9600000      0.0000000E+00
 -0.9500000      0.0000000E+00
 -0.9400000      0.0000000E+00
 -0.9300000      0.0000000E+00
 -0.9200000      0.0000000E+00
 -0.9100000      0.0000000E+00
 -0.9000000      0.0000000E+00
 -0.8900000      0.0000000E+00
 -0.8800000      0.0000000E+00
 -0.8700000      0.0000000E+00
 -0.8600000      0.0000000E+00
 -0.8500000      0.0000000E+00
 -0.8400000      0.0000000E+00
 -0.8300000      0.0000000E+00
 -0.8200000      0.0000000E+00
 -0.8100000      0.0000000E+00
 -0.8000000      0.0000000E+00
 -0.7900000      0.0000000E+00
 -0.7800000      0.0000000E+00
 -0.7700000      0.0000000E+00
 -0.7600000      0.0000000E+00
 -0.7500000      0.0000000E+00
 -0.7400000      0.0000000E+00
 -0.7300000      0.0000000E+00
 -0.7200000      0.0000000E+00
 -0.7100000      0.0000000E+00
 -0.7000000      0.0000000E+00
 -0.6900000      0.0000000E+00
 -0.6800000      0.0000000E+00
 -0.6700000      0.0000000E+00
 -0.6600000      0.0000000E+00
 -0.6500000      0.0000000E+00
 -0.6400000      0.0000000E+00
 -0.6300000      0.0000000E+00
 -0.6200000      0.0000000E+00
 -0.6100000      0.0000000E+00
 -0.6000000      0.0000000E+00
 -0.5900000      0.0000000E+00
 -0.5800000      0.0000000E+00
 -0.5700000      0.0000000E+00
 -0.5600000      0.0000000E+00
 -0.5500000      0.0000000E+00
 -0.5400000      0.0000000E+00
 -0.5300000      0.0000000E+00
 -0.5200000      0.0000000E+00
 -0.5100000      0.0000000E+00
 -0.5000000      0.0000000E+00
 -0.4900000      0.0000000E+00
 -0.4800000      0.0000000E+00
 -0.4700000      0.0000000E+00
 -0.4600000      0.0000000E+00
 -0.4500000      0.0000000E+00
 -0.4400000      0.0000000E+00
 -0.4300000      0.0000000E+00
 -0.4200000      0.0000000E+00
 -0.4100000      0.0000000E+00
 -0.4000000      0.0000000E+00
 -0.3900000      0.0000000E+00
 -0.3800000      0.0000000E+00
 -0.3700000      0.0000000E+00
 -0.3600000      0.0000000E+00
 -0.3500000      0.0000000E+00
 -0.3400000      0.0000000E+00
 -0.3300000      0.0000000E+00
 -0.3200000      0.0000000E+00
 -0.3100000      0.0000000E+00
 -0.3000000      0.0000000E+00
 -0.2900000      0.0000000E+00
 -0.2800000      0.0000000E+00
 -0.2700000      0.0000000E+00
 -0.2600000      0.0000000E+00
 -0.2500000      0.0000000E+00
 -0.2400000      0.0000000E+00
 -0.2300000      0.0000000E+00
 -0.2200000      0.0000000E+00
 -0.2100000      0.0000000E+00
 -0.2000000      0.0000000E+00
 -0.1900000      0.0000000E+00
 -0.1800000      0.0000000E+00
 -0.1700000      0.0000000E+00
 -0.1600000      0.0000000E+00
 -0.1500000      0.0000000E+00
 -0.1400000      0.0000000E+00
 -0.1300000      0.0000000E+00
 -0.1200000      0.0000000E+00
 -0.1100000      0.0000000E+00
 -0.1000000      0.0000000E+00
 -9.0000004E-02  0.0000000E+00
 -7.9999998E-02  0.0000000E+00
 -7.0000000E-02  0.0000000E+00
 -5.9999999E-02  0.0000000E+00
 -5.0000001E-02  0.0000000E+00
 -3.9999999E-02  0.0000000E+00
 -2.9999999E-02  0.0000000E+00
 -2.0000000E-02  0.0000000E+00
 -9.9999998E-03  0.0000000E+00
 -3.4694470E-17  0.0000000E+00
  9.9999998E-03  0.0000000E+00
  2.0000000E-02  0.0000000E+00
  2.9999999E-02  0.0000000E+00
  3.9999999E-02  0.0000000E+00
  5.0000001E-02  0.0000000E+00
  5.9999999E-02  0.0000000E+00
  7.0000000E-02  0.0000000E+00
  7.9999998E-02  0.0000000E+00
  9.0000004E-02  0.0000000E+00
  0.1000000      0.0000000E+00
  0.1100000      0.0000000E+00
  0.1200000      0.0000000E+00
  0.1300000      0.0000000E+00
  0.1400000      0.0000000E+00
  0.1500000      0.0000000E+00
  0.1600000      0.0000000E+00
  0.1700000      0.0000000E+00
  0.1800000      0.0000000E+00
  0.1900000      0.0000000E+00
  0.2000000      0.0000000E+00
  0.2100000      0.0000000E+00
  0.2200000      0.0000000E+00
  0.2300000      0.0000000E+00
  0.2400000      0.0000000E+00
  0.2500000      0.0000000E+00
  0.2600000      0.0000000E+00
  0.2700000      0.0000000E+00
  0.2800000      0.0000000E+00
  0.2900000      0.0000000E+00
  0.3000000      0.0000000E+00
  0.3100000      0.0000000E+00
  0.3200000      0.0000000E+00
  0.3300000      0.0000000E+00
  0.3400000      0.0000000E+00
  0.3500000      0.0000000E+00
  0.3600000      0.0000000E+00
  0.3700000      0.0000000E+00
  0.3800000      0.0000000E+00
  0.3900000      0.0000000E+00
  0.4000000      0.0000000E+00
  0.4100000      0.0000000E+00
  0.4200000      0.0000000E+00
  0.4300000      0.0000000E+00
  0.4400000      0.0000000E+00
  0.4500000      0.0000000E+00
  0.4600000      0.0000000E+00
  0.4700000      0.0000000E+00
  0.4800000      0.0000000E+00
  0.4900000      0.0000000E+00
  0.5000000      0.0000000E+00
  0.5100000      0.0000000E+00
  0.5200000      0.0000000E+00
  0.5300000      0.0000000E+00
  0.5400000      0.0000000E+00
  0.5500000      0.0000000E+00
  0.5600000      0.0000000E+00
  0.5700000      0.0000000E+00
  0.5800000      0.0000000E+00
  0.5900000      0.0000000E+00
  0.6000000      0.0000000E+00
  0.6100000      0.0000000E+00
  0.6200000      0.0000000E+00
  0.6300000      0.0000000E+00
  0.6400000      0.0000000E+00
  0.6500000      0.0000000E+00
  0.6600000      0.0000000E+00
  0.6700000      0.0000000E+00
  0.6800000      0.0000000E+00
  0.6900000      0.0000000E+00
  0.7000000      0.0000000E+00
  0.7100000      0.0000000E+00
  0.7200000      0.0000000E+00
  0.7300000      0.0000000E+00
  0.7400000      0.0000000E+00
  0.7500000      0.0000000E+00
  0.7600000      0.0000000E+00
  0.7700000      0.0000000E+00
  0.7800000      0.0000000E+00
  0.7900000      0.0000000E+00
  0.8000000      0.0000000E+00
  0.8100000      0.0000000E+00
  0.8200000      0.0000000E+00
  0.8300000      0.0000000E+00
  0.8400000      0.0000000E+00
  0.8500000      0.0000000E+00
  0.8600000      0.0000000E+00
  0.8700000      0.0000000E+00
  0.8800000      0.0000000E+00
  0.8900000      0.0000000E+00
  0.9000000      0.0000000E+00
  0.9100000      0.0000000E+00
  0.9200000      0.0000000E+00
  0.9300000      0.0000000E+00
  0.9400000      0.0000000E+00
  0.9500000      0.0000000E+00
  0.9600000      0.0000000E+00
  0.9700000      0.0000000E+00
  0.9800000      0.0000000E+00
  0.9900000      0.0000000E+00
   1.000000      0.0000000E+00
   1.010000      0.0000000E+00
   1.020000      0.0000000E+00
   1.030000      0.0000000E+00
   1.040000      0.0000000E+00
   1.050000      0.0000000E+00
   1.060000      0.0000000E+00
   1.070000      0.0000000E+00
   1.080000      0.0000000E+00
   1.090000      0.0000000E+00
   1.100000      0.0000000E+00
   1.110000      0.0000000E+00
   1.120000      0.0000000E+00
   1.130000      0.0000000E+00
   1.140000      0.0000000E+00
   1.150000      0.0000000E+00
   1.160000      0.0000000E+00
   1.170000      0.0000000E+00
   1.180000      0.0000000E+00
   1.190000      0.0000000E+00
   1.200000      0.0000000E+00
   1.210000      0.0000000E+00
   1.220000      0.0000000E+00
   1.230000      0.0000000E+00
   1.240000      0.0000000E+00
   1.250000      0.0000000E+00
   1.260000      0.0000000E+00
   1.270000      0.0000000E+00
   1.280000      0.0000000E+00
   1.290000      0.0000000E+00
   1.300000      0.0000000E+00
   1.310000      0.0000000E+00
   1.320000      0.0000000E+00
   1.330000      0.0000000E+00
   1.340000      0.0000000E+00
   1.350000      0.0000000E+00
   1.360000      0.0000000E+00
   1.370000      0.0000000E+00
   1.380000      0.0000000E+00
   1.390000      0.0000000E+00
   1.400000      0.0000000E+00
   1.410000      0.0000000E+00
   1.420000      0.0000000E+00
   1.430000      0.0000000E+00
   1.440000      0.0000000E+00
   1.450000      0.0000000E+00
   1.460000      0.0000000E+00
   1.470000      0.0000000E+00
   1.480000      0.0000000E+00
   1.490000      0.0000000E+00
   1.500000      0.0000000E+00
   1.510000      0.0000000E+00
   1.520000      0.0000000E+00
   1.530000      0.0000000E+00
   1.540000      0.0000000E+00
   1.550000      0.0000000E+00
   1.560000      0.0000000E+00
   1.570000      0.0000000E+00
   1.580000      0.0000000E+00
   1.590000      0.0000000E+00
   1.600000      0.0000000E+00
   1.610000      0.0000000E+00
   1.620000      0.0000000E+00
   1.630000      0.0000000E+00
   1.640000      0.0000000E+00
   1.650000      0.0000000E+00
   1.660000      0.0000000E+00
   1.670000      0.0000000E+00
   1.680000      0.0000000E+00
   1.690000      0.0000000E+00
   1.700000      0.0000000E+00
   1.710000      0.0000000E+00
   1.720000      0.0000000E+00
   1.730000      0.0000000E+00
   1.740000      0.0000000E+00
   1.750000      0.0000000E+00
   1.760000      0.0000000E+00
   1.770000      0.0000000E+00
   1.780000      0.0000000E+00
   1.790000      0.0000000E+00
   1.800000      0.0000000E+00
   1.810000      0.0000000E+00
   1.820000      0.0000000E+00
   1.830000      0.0000000E+00
   1.840000      1.2185705E-38
   1.850000      1.7788453E-38
   1.860000      2.3255972E-38
   1.870000      2.8198592E-38
   1.880000      3.2272307E-38
   1.890000      3.4052741E-38
   1.900000      3.4052741E-38
   1.910000      3.4052741E-38
   1.920000      3.4052741E-38
   1.930000      3.4052741E-38
   1.940000      3.4052741E-38
   1.950000      3.2093384E-38
   1.960000      2.7864027E-38
   1.970000      2.3234682E-38
   1.980000      1.8637484E-38
   1.990000      1.4328141E-38
   2.000000      0.0000000E+00
   2.010000      0.0000000E+00
   2.020000      0.0000000E+00
   2.030000      0.0000000E+00
   2.040000      0.0000000E+00
   2.050000      0.0000000E+00
   2.060000     -1.3314139E-38
   2.070000     -1.6049279E-38
   2.080000     -2.4433463E-38
   2.090000     -3.8512799E-38
   2.100000     -4.8178138E-38
   2.110000     -5.4287323E-38
   2.120000     -6.3748228E-38
   2.130000     -7.5000986E-38
   2.140000     -8.5525544E-38
   2.150000     -9.5414076E-38
   2.160000     -1.0490625E-37
   2.170000     -1.1438538E-37
   2.180000     -1.2431977E-37
   2.190000     -1.3504427E-37
   2.200000     -1.4664912E-37
   2.210000     -1.5704345E-37
   2.220000     -1.6601447E-37
   2.230000     -1.7714777E-37
   2.240000     -1.8986132E-37
   2.250000     -2.0161880E-37
   2.260000     -2.1186108E-37
   2.270000     -2.1596229E-37
   2.280000     -2.1269453E-37
   2.290000     -2.0688470E-37
   2.300000     -2.0225082E-37
   2.310000     -1.9681551E-37
   2.320000     -1.8607690E-37
   2.330000     -1.7008772E-37
   2.340000     -1.4819218E-37
   2.350000     -1.3426679E-37
   2.360000     -1.3019741E-37
   2.370000     -1.1973524E-37
   2.380000     -1.0320769E-37
   2.390000     -8.0040425E-38
   2.400000     -5.0686036E-38
   2.410000     -1.8554725E-38
   2.420000      1.4242683E-38
   2.430000      5.4176721E-38
   2.440000      1.0776031E-37
   2.450000      1.7029782E-37
   2.460000      2.3687471E-37
   2.470000      3.0713590E-37
   2.480000      3.8106942E-37
   2.490000      4.5757197E-37
   2.500000      5.3588676E-37
   2.510000      6.1482753E-37
   2.520000      6.9442688E-37
   2.530000      7.7123118E-37
   2.540000      8.5573400E-37
   2.550000      9.5461527E-37
   2.560000      1.0699452E-36
   2.570000      1.2038673E-36
   2.580000      1.5506208E-36
   2.590000      2.2918692E-36
   2.600000      3.2694875E-36
   2.610000      4.3585439E-36
   2.620000      5.5348357E-36
   2.630000      6.7555583E-36
   2.640000      8.0354954E-36
   2.650000      9.0238477E-36
   2.660000      9.4959051E-36
   2.670000      9.7303740E-36
   2.680000      9.9305948E-36
   2.690000      1.0088872E-35
   2.700000      1.0138525E-35
   2.710000      9.6978198E-36
   2.720000      8.6852215E-36
   2.730000      7.5173961E-36
   2.740000      6.0184156E-36
   2.750000      4.1517257E-36
   2.760000      2.1652954E-36
   2.770000      9.6384873E-38
   2.780000     -1.9959550E-36
   2.790000     -4.0163655E-36
   2.800000     -5.9429458E-36
   2.810000     -7.5890859E-36
   2.820000     -8.8883243E-36
   2.830000     -9.6482193E-36
   2.840000     -1.0197058E-35
   2.850000     -1.0964513E-35
   2.860000     -1.1423518E-35
   2.870000     -1.1051270E-35
   2.880000     -9.8515330E-36
   2.890000     -8.1512569E-36
   2.900000     -6.2485302E-36
   2.910000     -4.4338020E-36
   2.920000     -2.9095315E-36
   2.930000     -1.8889365E-36
   2.940000     -1.7350500E-36
   2.950000     -2.3016189E-36
   2.960000     -3.5235583E-36
   2.970000     -5.8849086E-36
   2.980000     -9.1994314E-36
   2.990000     -1.2638974E-35
   3.000000     -1.6051048E-35
   3.010000     -1.9609717E-35
   3.020000     -2.3219160E-35
   3.030000     -2.6961467E-35
   3.040000     -3.0931931E-35
   3.050000     -3.5120144E-35
   3.060000     -3.9097728E-35
   3.070000     -4.2553954E-35
   3.080000     -4.5485639E-35
   3.090000     -4.7858381E-35
   3.100000     -4.9539424E-35
   3.110000     -5.0130793E-35
   3.120000     -4.9750468E-35
   3.130000     -4.8657597E-35
   3.140000     -4.7144013E-35
   3.150000     -4.5386970E-35
   3.160000     -4.2596480E-35
   3.170000     -3.8531606E-35
   3.180000     -3.2714220E-35
   3.190000     -2.5884896E-35
   3.200000     -1.9189648E-35
   3.210000     -1.2194721E-35
   3.220000     -5.0939876E-36
   3.230000      1.9819537E-36
   3.240000      9.1380681E-36
   3.250000      1.5805645E-35
   3.260000      2.1910390E-35
   3.270000      2.7840278E-35
   3.280000      3.4062150E-35
   3.290000      4.0565386E-35
   3.300000      4.6695910E-35
   3.310000      5.2802426E-35
   3.320000      5.8783425E-35
   3.330000      6.4453727E-35
   3.340000      6.9877916E-35
   3.350000      7.3613738E-35
   3.360000      7.5183964E-35
   3.370000      7.5896901E-35
   3.380000      7.6145740E-35
   3.390000      7.8391715E-35
   3.400000      8.2897670E-35
   3.410000      8.7313258E-35
   3.420000      9.1968704E-35
   3.430000      9.6936568E-35
   3.440000      1.0206928E-34
   3.450000      1.0710643E-34
   3.460000      1.1226278E-34
   3.470000      1.1786414E-34
   3.480000      1.2487070E-34
   3.490000      1.3313025E-34
   3.500000      1.4136517E-34
   3.510000      1.4909939E-34
   3.520000      1.5635462E-34
   3.530000      1.6363345E-34
   3.540000      1.7062421E-34
   3.550000      1.7666276E-34
   3.560000      1.8119134E-34
   3.570000      1.8593150E-34
   3.580000      1.9003000E-34
   3.590000      1.9149698E-34
   3.600000      1.8902885E-34
   3.610000      1.8219688E-34
   3.620000      1.7343498E-34
   3.630000      1.6030228E-34
   3.640000      1.4096027E-34
   3.650000      1.1708244E-34
   3.660000      8.7745511E-35
   3.670000      5.5575978E-35
   3.680000      2.4351694E-35
   3.690000     -7.2428977E-36
   3.700000     -4.2081831E-35
   3.710000     -7.9831816E-35
   3.720000     -1.1765643E-34
   3.730000     -1.5504253E-34
   3.740000     -1.8905642E-34
   3.750000     -2.1974659E-34
   3.760000     -2.5059749E-34
   3.770000     -2.8058782E-34
   3.780000     -3.0955810E-34
   3.790000     -3.3749924E-34
   3.800000     -3.6367515E-34
   3.810000     -3.8920398E-34
   3.820000     -4.1506012E-34
   3.830000     -4.4089932E-34
   3.840000     -4.6481035E-34
   3.850000     -4.8775618E-34
   3.860000     -5.1179454E-34
   3.870000     -5.3875849E-34
   3.880000     -5.6966748E-34
   3.890000     -6.0355941E-34
   3.900000     -6.4059511E-34
   3.910000     -6.7951499E-34
   3.920000     -7.1947147E-34
   3.930000     -7.6080929E-34
   3.940000     -8.0391480E-34
   3.950000     -8.4959773E-34
   3.960000     -8.9689062E-34
   3.970000     -9.4357813E-34
   3.980000     -9.9008170E-34
   3.990000     -1.0349973E-33
   4.000000     -1.0756252E-33
   4.010000     -1.1113161E-33
   4.020000     -1.1436273E-33
   4.030000     -1.1717414E-33
   4.040000     -1.1914959E-33
   4.050000     -1.2028487E-33
   4.060000     -1.2041913E-33
   4.070000     -1.1934400E-33
   4.080000     -1.1720737E-33
   4.090000     -1.1408967E-33
   4.100000     -1.1011048E-33
   4.110000     -1.0492515E-33
   4.120000     -9.8352804E-34
   4.130000     -9.0598389E-34
   4.140000     -8.1771979E-34
   4.150000     -7.1910114E-34
   4.160000     -6.1007395E-34
   4.170000     -4.9125204E-34
   4.180000     -3.6289513E-34
   4.190000     -2.2480636E-34
   4.200000     -8.0608871E-35
   4.210000      6.8443778E-35
   4.220000      2.2354089E-34
   4.230000      3.8451805E-34
   4.240000      5.5247229E-34
   4.250000      7.2603302E-34
   4.260000      9.0731560E-34
   4.270000      1.0985149E-33
   4.280000      1.2995017E-33
   4.290000      1.5111395E-33
   4.300000      1.7339447E-33
   4.310000      1.9686942E-33
   4.320000      2.2160302E-33
   4.330000      2.4745644E-33
   4.340000      2.7469419E-33
   4.350000      3.0340444E-33
   4.360000      3.3336752E-33
   4.370000      3.6459970E-33
   4.380000      3.9711667E-33
   4.390000      4.3089130E-33
   4.400000      4.6566907E-33
   4.410000      5.0135543E-33
   4.420000      5.3797976E-33
   4.430000      5.7537749E-33
   4.440000      6.1338860E-33
   4.450000      6.5167048E-33
   4.460000      6.8992834E-33
   4.470000      7.2806674E-33
   4.480000      7.6564972E-33
   4.490000      8.0249442E-33
   4.500000      8.3870515E-33
   4.510000      8.7375994E-33
   4.520000      9.0707697E-33
   4.530000      9.3848427E-33
   4.540000      9.6773168E-33
   4.550000      9.9478898E-33
   4.560000      1.0193683E-32
   4.570000      1.0408072E-32
   4.580000      1.0591170E-32
   4.590000      1.0742343E-32
   4.600000      1.0857678E-32
   4.610000      1.0934390E-32
   4.620000      1.0970036E-32
   4.630000      1.0962434E-32
   4.640000      1.0909355E-32
   4.650000      1.0807683E-32
   4.660000      1.0654368E-32
   4.670000      1.0446501E-32
   4.680000      1.0181542E-32
   4.690000      9.8548656E-33
   4.700000      9.4616341E-33
   4.710000      8.9991601E-33
   4.720000      8.4632853E-33
   4.730000      7.8494164E-33
   4.740000      7.1535656E-33
   4.750000      6.3699069E-33
   4.760000      5.4925212E-33
   4.770000      4.5172430E-33
   4.780000      3.4383019E-33
   4.790000      2.2515244E-33
   4.800000      9.5321002E-34
   4.810000     -4.6105699E-34
   4.820000     -1.9948266E-33
   4.830000     -3.6521423E-33
   4.840000     -5.4368722E-33
   4.850000     -7.3510641E-33
   4.860000     -9.3964581E-33
   4.870000     -1.1575132E-32
   4.880000     -1.3887974E-32
   4.890000     -1.6335751E-32
   4.900000     -1.8917657E-32
   4.910000     -2.1632223E-32
   4.920000     -2.4479498E-32
   4.930000     -2.7458284E-32
   4.940000     -3.0565148E-32
   4.950000     -3.3797117E-32
   4.960000     -3.7149968E-32
   4.970000     -4.0619025E-32
   4.980000     -4.4199484E-32
   4.990000     -4.7885082E-32
   5.000000     -5.1669107E-32
   5.010000     -5.5545799E-32
   5.020000     -5.9505076E-32
   5.030000     -6.3537926E-32
   5.040000     -6.7637657E-32
   5.050000     -7.1792101E-32
   5.060000     -7.5988845E-32
   5.070000     -8.0214553E-32
   5.080000     -8.4455366E-32
   5.090000     -8.8696162E-32
   5.100000     -9.2919837E-32
   5.110000     -9.7108047E-32
   5.120000     -1.0124112E-31
   5.130000     -1.0529795E-31
   5.140000     -1.0925526E-31
   5.150000     -1.1308815E-31
   5.160000     -1.1677095E-31
   5.170000     -1.2027615E-31
   5.180000     -1.2357374E-31
   5.190000     -1.2663254E-31
   5.200000     -1.2941944E-31
   5.210000     -1.3189979E-31
   5.220000     -1.3403760E-31
   5.230000     -1.3579536E-31
   5.240000     -1.3713430E-31
   5.250000     -1.3801433E-31
   5.260000     -1.3839418E-31
   5.270000     -1.3823156E-31
   5.280000     -1.3748315E-31
   5.290000     -1.3610466E-31
   5.300000     -1.3405106E-31
   5.310000     -1.3127695E-31
   5.320000     -1.2773601E-31
   5.330000     -1.2338157E-31
   5.340000     -1.1816684E-31
   5.350000     -1.1204470E-31
   5.360000     -1.0496800E-31
   5.370000     -9.6889746E-32
   5.380000     -8.7763272E-32
   5.390000     -7.7542419E-32
   5.400000     -6.6181760E-32
   5.410000     -5.3636743E-32
   5.420000     -3.9863400E-32
   5.430000     -2.4819370E-32
   5.440000     -8.4643337E-33
   5.450000      9.2406235E-33
   5.460000      2.8332021E-32
   5.470000      4.8843836E-32
   5.480000      7.0807289E-32
   5.490000      9.4250185E-32
   5.500000      1.1919677E-31
   5.510000      1.4566726E-31
   5.520000      1.7367732E-31
   5.530000      2.0323742E-31
   5.540000      2.3435264E-31
   5.550000      2.6702208E-31
   5.560000      3.0123846E-31
   5.570000      3.3698752E-31
   5.580000      3.7424700E-31
   5.590000      4.1298761E-31
   5.600000      4.5317169E-31
   5.610000      4.9475180E-31
   5.620000      5.3767154E-31
   5.630000      5.8186453E-31
   5.640000      6.2725413E-31
   5.650000      6.7375325E-31
   5.660000      7.2126344E-31
   5.670000      7.6967486E-31
   5.680000      8.1886573E-31
   5.690000      8.6870170E-31
   5.700000      9.1903609E-31
   5.710000      9.6970892E-31
   5.720000      1.0205467E-30
   5.730000      1.0713625E-30
   5.740000      1.1219550E-30
   5.750000      1.1721091E-30
   5.760000      1.2215947E-30
   5.770000      1.2701671E-30
   5.780000      1.3175671E-30
   5.790000      1.3635201E-30
   5.800000      1.4077365E-30
   5.810000      1.4499113E-30
   5.820000      1.4897250E-30
   5.830000      1.5268434E-30
   5.840000      1.5609171E-30
   5.850000      1.5915825E-30
   5.860000      1.6184620E-30
   5.870000      1.6411645E-30
   5.880000      1.6592855E-30
   5.890000      1.6724085E-30
   5.900000      1.6801053E-30
   5.910000      1.6819364E-30
   5.920000      1.6774532E-30
   5.930000      1.6661974E-30
   5.940000      1.6477042E-30
   5.950000      1.6215017E-30
   5.960000      1.5871134E-30
   5.970000      1.5440594E-30
   5.980000      1.4918585E-30
   5.990000      1.4300295E-30
   6.000000      1.3580931E-30
   6.010000      1.2755742E-30
   6.020000      1.1820035E-30
   6.030000      1.0769200E-30
   6.040000      9.5987399E-31
   6.050000      8.3042817E-31
   6.060000      6.8816119E-31
   6.070000      5.3267019E-31
   6.080000      3.6357340E-31
   6.090000      1.8051332E-31
   6.100000     -1.6840332E-32
   6.110000     -2.2878748E-31
   6.120000     -4.5559467E-31
   6.130000     -6.9749152E-31
   6.140000     -9.5466683E-31
   6.150000     -1.2272658E-30
   6.160000     -1.5153858E-30
   6.170000     -1.8190726E-30
   6.180000     -2.1383169E-30
   6.190000     -2.4730507E-30
   6.200000     -2.8231430E-30
   6.210000     -3.1883970E-30
   6.220000     -3.5685443E-30
   6.230000     -3.9632430E-30
   6.240000     -4.3720728E-30
   6.250000     -4.7945326E-30
   6.260000     -5.2300350E-30
   6.270000     -5.6779044E-30
   6.280000     -6.1373715E-30
   6.290000     -6.6075722E-30
   6.300000     -7.0875433E-30
   6.310000     -7.5762195E-30
   6.320000     -8.0724308E-30
   6.330000     -8.5748991E-30
   6.340000     -9.0822380E-30
   6.350000     -9.5929472E-30
   6.360000     -1.0105413E-29
   6.370000     -1.0617905E-29
   6.380000     -1.1128578E-29
   6.390000     -1.1635467E-29
   6.400000     -1.2136491E-29
   6.410000     -1.2629445E-29
   6.420000     -1.3112008E-29
   6.430000     -1.3581741E-29
   6.440000     -1.4036086E-29
   6.450000     -1.4472367E-29
   6.460000     -1.4887800E-29
   6.470000     -1.5279481E-29
   6.480000     -1.5644406E-29
   6.490000     -1.5979457E-29
   6.500000     -1.6281422E-29
   6.510000     -1.6546990E-29
   6.520000     -1.6772757E-29
   6.530000     -1.6955237E-29
   6.540000     -1.7090868E-29
   6.550000     -1.7176017E-29
   6.560000     -1.7206986E-29
   6.570000     -1.7180032E-29
   6.580000     -1.7091363E-29
   6.590000     -1.6937155E-29
   6.600000     -1.6713568E-29
   6.610000     -1.6416752E-29
   6.620000     -1.6042857E-29
   6.630000     -1.5588053E-29
   6.640000     -1.5048544E-29
   6.650000     -1.4420580E-29
   6.660000     -1.3700473E-29
   6.670000     -1.2884614E-29
   6.680000     -1.1969494E-29
   6.690000     -1.0951713E-29
   6.700000     -9.8280032E-30
   6.710000     -8.5952531E-30
   6.720000     -7.2505206E-30
   6.730000     -5.7910517E-30
   6.740000     -4.2143026E-30
   6.750000     -2.5179710E-30
   6.760000     -7.0000787E-31
   6.770000      1.2413642E-30
   6.780000      3.3076143E-30
   6.790000      5.4998864E-30
   6.800000      7.8189814E-30
   6.810000      1.0265325E-29
   6.820000      1.2838947E-29
   6.830000      1.5539459E-29
   6.840000      1.8366023E-29
   6.850000      2.1317336E-29
   6.860000      2.4391599E-29
   6.870000      2.7586485E-29
   6.880000      3.0899127E-29
   6.890000      3.4326096E-29
   6.900000      3.7863373E-29
   6.910000      4.1506318E-29
   6.920000      4.5249655E-29
   6.930000      4.9087464E-29
   6.940000      5.3013136E-29
   6.950000      5.7019365E-29
   6.960000      6.1098141E-29
   6.970000      6.5240720E-29
   6.980000      6.9437599E-29
   6.990000      7.3678520E-29
   7.000000      7.7952460E-29
   7.010000      8.2247609E-29
   7.020000      8.6551364E-29
   7.030000      9.0850310E-29
   7.040000      9.5130250E-29
   7.050000      9.9376174E-29
   7.060000      1.0357225E-28