  -2.600000      0.0000000E+00
  -2.590000      0.0000000E+00
  -2.580000      0.0000000E+00
  -2.570000      0.0000000E+00
  -2.560000      0.0000000E+00
  -2.550000      0.0000000E+00
  -2.540000      0.0000000E+00
  -2.530000      0.0000000E+00
  -2.520000      0.0000000E+00
  -2.510000      0.0000000E+00
  -2.500000      0.0000000E+00
  -2.490000      0.0000000E+00
  -2.480000      0.0000000E+00
  -2.470000      0.0000000E+00
  -2.460000      0.0000000E+00
  -2.450000      0.0000000E+00
  -2.440000      0.0000000E+00
  -2.430000      0.0000000E+00
  -2.420000      0.0000000E+00
  -2.410000      0.0000000E+00
  -2.400000      0.0000000E+00
  -2.390000      0.0000000E+00
  -2.380000      0.0000000E+00
  -2.370000      0.0000000E+00
  -2.360000      0.0000000E+00
  -2.350000      0.0000000E+00
  -2.340000      0.0000000E+00
  -2.330000      0.0000000E+00
  -2.320000      0.0000000E+00
  -2.310000      0.0000000E+00
  -2.300000      0.0000000E+00
  -2.290000      0.0000000E+00
  -2.280000      0.0000000E+00
  -2.270000      0.0000000E+00
  -2.260000      0.0000000E+00
  -2.250000      0.0000000E+00
  -2.240000      0.0000000E+00
  -2.230000      0.0000000E+00
  -2.220000      0.0000000E+00
  -2.210000      0.0000000E+00
  -2.200000      0.0000000E+00
  -2.190000      0.0000000E+00
  -2.180000      0.0000000E+00
  -2.170000      0.0000000E+00
  -2.160000      0.0000000E+00
  -2.150000      0.0000000E+00
  -2.140000      0.0000000E+00
  -2.130000      0.0000000E+00
  -2.120000      0.0000000E+00
  -2.110000      0.0000000E+00
  -2.100000      0.0000000E+00
  -2.090000      0.0000000E+00
  -2.080000      0.0000000E+00
  -2.070000      0.0000000E+00
  -2.060000      0.0000000E+00
  -2.050000      0.0000000E+00
  -2.040000      0.0000000E+00
  -2.030000      0.0000000E+00
  -2.020000      0.0000000E+00
  -2.010000      0.0000000E+00
  -2.000000      0.0000000E+00
  -1.990000      0.0000000E+00
  -1.980000      0.0000000E+00
  -1.970000      0.0000000E+00
  -1.960000      0.0000000E+00
  -1.950000      0.0000000E+00
  -1.940000      0.0000000E+00
  -1.930000      0.0000000E+00
  -1.920000      0.0000000E+00
  -1.910000      0.0000000E+00
  -1.900000      0.0000000E+00
  -1.890000      0.0000000E+00
  -1.880000      0.0000000E+00
  -1.870000      0.0000000E+00
  -1.860000      0.0000000E+00
  -1.850000      0.0000000E+00
  -1.840000      0.0000000E+00
  -1.830000      0.0000000E+00
  -1.820000      0.0000000E+00
  -1.810000      0.0000000E+00
  -1.800000      0.0000000E+00
  -1.790000      0.0000000E+00
  -1.780000      0.0000000E+00
  -1.770000      0.0000000E+00
  -1.760000      0.0000000E+00
  -1.750000      0.0000000E+00
  -1.740000      0.0000000E+00
  -1.730000      0.0000000E+00
  -1.720000      0.0000000E+00
  -1.710000      0.0000000E+00
  -1.700000      0.0000000E+00
  -1.690000      0.0000000E+00
  -1.680000      0.0000000E+00
  -1.670000      0.0000000E+00
  -1.660000      0.0000000E+00
  -1.650000      0.0000000E+00
  -1.640000      0.0000000E+00
  -1.630000      0.0000000E+00
  -1.620000      0.0000000E+00
  -1.610000      0.0000000E+00
  -1.600000      0.0000000E+00
  -1.590000      0.0000000E+00
  -1.580000      0.0000000E+00
  -1.570000      0.0000000E+00
  -1.560000      0.0000000E+00
  -1.550000      0.0000000E+00
  -1.540000      0.0000000E+00
  -1.530000      0.0000000E+00
  -1.520000      0.0000000E+00
  -1.510000      0.0000000E+00
  -1.500000      0.0000000E+00
  -1.490000      0.0000000E+00
  -1.480000      0.0000000E+00
  -1.470000      0.0000000E+00
  -1.460000      0.0000000E+00
  -1.450000      0.0000000E+00
  -1.440000      0.0000000E+00
  -1.430000      0.0000000E+00
  -1.420000      0.0000000E+00
  -1.410000      0.0000000E+00
  -1.400000      0.0000000E+00
  -1.390000      0.0000000E+00
  -1.380000      0.0000000E+00
  -1.370000      0.0000000E+00
  -1.360000      0.0000000E+00
  -1.350000      0.0000000E+00
  -1.340000      0.0000000E+00
  -1.330000      0.0000000E+00
  -1.320000      0.0000000E+00
  -1.310000      0.0000000E+00
  -1.300000      0.0000000E+00
  -1.290000      0.0000000E+00
  -1.280000      0.0000000E+00
  -1.270000      0.0000000E+00
  -1.260000      0.0000000E+00
  -1.250000      0.0000000E+00
  -1.240000      0.0000000E+00
  -1.230000      0.0000000E+00
  -1.220000      0.0000000E+00
  -1.210000      0.0000000E+00
  -1.200000      0.0000000E+00
  -1.190000      0.0000000E+00
  -1.180000      0.0000000E+00
  -1.170000      0.0000000E+00
  -1.160000      0.0000000E+00
  -1.150000      0.0000000E+00
  -1.140000      0.0000000E+00
  -1.130000      0.0000000E+00
  -1.120000      0.0000000E+00
  -1.110000      0.0000000E+00
  -1.100000      0.0000000E+00
  -1.090000      0.0000000E+00
  -1.080000      0.0000000E+00
  -1.070000      0.0000000E+00
  -1.060000      0.0000000E+00
  -1.050000      0.0000000E+00
  -1.040000      0.0000000E+00
  -1.030000      0.0000000E+00
  -1.020000      0.0000000E+00
  -1.010000      0.0000000E+00
  -1.000000      0.0000000E+00
 -0.9900000      0.0000000E+00
 -0.9800000      0.0000000E+00
 -0.9700000      0.0000000E+00
 -0.9600000      0.0000000E+00
 -0.9500000      0.0000000E+00
 -0.9400000      0.0000000E+00
 -0.9300000      0.0000000E+00
 -0.9200000      0.0000000E+00
 -0.9100000      0.0000000E+00
 -0.9000000      0.0000000E+00
 -0.8900000      0.0000000E+00
 -0.8800000      0.0000000E+00
 -0.8700000      0.0000000E+00
 -0.8600000      0.0000000E+00
 -0.8500000      0.0000000E+00
 -0.8400000      0.0000000E+00
 -0.8300000      0.0000000E+00
 -0.8200000      0.0000000E+00
 -0.8100000      0.0000000E+00
 -0.8000000      0.0000000E+00
 -0.7900000      0.0000000E+00
 -0.7800000      0.0000000E+00
 -0.7700000      0.0000000E+00
 -0.7600000      0.0000000E+00
 -0.7500000      0.0000000E+00
 -0.7400000      0.0000000E+00
 -0.7300000      0.0000000E+00
 -0.7200000      0.0000000E+00
 -0.7100000      0.0000000E+00
 -0.7000000      0.0000000E+00
 -0.6900000      0.0000000E+00
 -0.6800000      0.0000000E+00
 -0.6700000      0.0000000E+00
 -0.6600000      0.0000000E+00
 -0.6500000      0.0000000E+00
 -0.6400000      0.0000000E+00
 -0.6300000      0.0000000E+00
 -0.6200000      0.0000000E+00
 -0.6100000      0.0000000E+00
 -0.6000000      0.0000000E+00
 -0.5900000      0.0000000E+00
 -0.5800000      0.0000000E+00
 -0.5700000      0.0000000E+00
 -0.5600000      0.0000000E+00
 -0.5500000      0.0000000E+00
 -0.5400000      0.0000000E+00
 -0.5300000      0.0000000E+00
 -0.5200000      0.0000000E+00
 -0.5100000      0.0000000E+00
 -0.5000000      0.0000000E+00
 -0.4900000      0.0000000E+00
 -0.4800000      0.0000000E+00
 -0.4700000      0.0000000E+00
 -0.4600000      0.0000000E+00
 -0.4500000      0.0000000E+00
 -0.4400000      0.0000000E+00
 -0.4300000      0.0000000E+00
 -0.4200000      0.0000000E+00
 -0.4100000      0.0000000E+00
 -0.4000000      0.0000000E+00
 -0.3900000      0.0000000E+00
 -0.3800000      0.0000000E+00
 -0.3700000      0.0000000E+00
 -0.3600000      0.0000000E+00
 -0.3500000      0.0000000E+00
 -0.3400000      0.0000000E+00
 -0.3300000      0.0000000E+00
 -0.3200000      0.0000000E+00
 -0.3100000      0.0000000E+00
 -0.3000000      0.0000000E+00
 -0.2900000      0.0000000E+00
 -0.2800000      0.0000000E+00
 -0.2700000      0.0000000E+00
 -0.2600000      0.0000000E+00
 -0.2500000      0.0000000E+00
 -0.2400000      0.0000000E+00
 -0.2300000      0.0000000E+00
 -0.2200000      0.0000000E+00
 -0.2100000      0.0000000E+00
 -0.2000000      0.0000000E+00
 -0.1900000      0.0000000E+00
 -0.1800000      0.0000000E+00
 -0.1700000      0.0000000E+00
 -0.1600000      0.0000000E+00
 -0.1500000      0.0000000E+00
 -0.1400000      0.0000000E+00
 -0.1300000      0.0000000E+00
 -0.1200000      0.0000000E+00
 -0.1100000      0.0000000E+00
 -0.1000000      0.0000000E+00
 -9.0000004E-02  0.0000000E+00
 -7.9999998E-02  0.0000000E+00
 -7.0000000E-02  0.0000000E+00
 -5.9999999E-02  0.0000000E+00
 -5.0000001E-02  0.0000000E+00
 -3.9999999E-02  0.0000000E+00
 -2.9999999E-02  0.0000000E+00
 -2.0000000E-02  0.0000000E+00
 -9.9999998E-03  0.0000000E+00
 -3.4694470E-17  0.0000000E+00
  9.9999998E-03  0.0000000E+00
  2.0000000E-02  0.0000000E+00
  2.9999999E-02  0.0000000E+00
  3.9999999E-02  0.0000000E+00
  5.0000001E-02  0.0000000E+00
  5.9999999E-02  0.0000000E+00
  7.0000000E-02  0.0000000E+00
  7.9999998E-02  0.0000000E+00
  9.0000004E-02  0.0000000E+00
  0.1000000      0.0000000E+00
  0.1100000      0.0000000E+00
  0.1200000      0.0000000E+00
  0.1300000      0.0000000E+00
  0.1400000      0.0000000E+00
  0.1500000      0.0000000E+00
  0.1600000      0.0000000E+00
  0.1700000      0.0000000E+00
  0.1800000      0.0000000E+00
  0.1900000      0.0000000E+00
  0.2000000      0.0000000E+00
  0.2100000      0.0000000E+00
  0.2200000      0.0000000E+00
  0.2300000      0.0000000E+00
  0.2400000      0.0000000E+00
  0.2500000      0.0000000E+00
  0.2600000      0.0000000E+00
  0.2700000      0.0000000E+00
  0.2800000      0.0000000E+00
  0.2900000      0.0000000E+00
  0.3000000      0.0000000E+00
  0.3100000      0.0000000E+00
  0.3200000      0.0000000E+00
  0.3300000      0.0000000E+00
  0.3400000      0.0000000E+00
  0.3500000      0.0000000E+00
  0.3600000      0.0000000E+00
  0.3700000      0.0000000E+00
  0.3800000      0.0000000E+00
  0.3900000      0.0000000E+00
  0.4000000      0.0000000E+00
  0.4100000      0.0000000E+00
  0.4200000      0.0000000E+00
  0.4300000      0.0000000E+00
  0.4400000      0.0000000E+00
  0.4500000      0.0000000E+00
  0.4600000      0.0000000E+00
  0.4700000      0.0000000E+00
  0.4800000      0.0000000E+00
  0.4900000      0.0000000E+00
  0.5000000      0.0000000E+00
  0.5100000      0.0000000E+00
  0.5200000      0.0000000E+00
  0.5300000      0.0000000E+00
  0.5400000      0.0000000E+00
  0.5500000      0.0000000E+00
  0.5600000      0.0000000E+00
  0.5700000      0.0000000E+00
  0.5800000      0.0000000E+00
  0.5900000      0.0000000E+00
  0.6000000      0.0000000E+00
  0.6100000      0.0000000E+00
  0.6200000      0.0000000E+00
  0.6300000      0.0000000E+00
  0.6400000      0.0000000E+00
  0.6500000      0.0000000E+00
  0.6600000      0.0000000E+00
  0.6700000      0.0000000E+00
  0.6800000      0.0000000E+00
  0.6900000      0.0000000E+00
  0.7000000      0.0000000E+00
  0.7100000      0.0000000E+00
  0.7200000      0.0000000E+00
  0.7300000      0.0000000E+00
  0.7400000      0.0000000E+00
  0.7500000      0.0000000E+00
  0.7600000      0.0000000E+00
  0.7700000      0.0000000E+00
  0.7800000      0.0000000E+00
  0.7900000      0.0000000E+00
  0.8000000      0.0000000E+00
  0.8100000      0.0000000E+00
  0.8200000      0.0000000E+00
  0.8300000      0.0000000E+00
  0.8400000      0.0000000E+00
  0.8500000      0.0000000E+00
  0.8600000      0.0000000E+00
  0.8700000      0.0000000E+00
  0.8800000      0.0000000E+00
  0.8900000      0.0000000E+00
  0.9000000      0.0000000E+00
  0.9100000      0.0000000E+00
  0.9200000      0.0000000E+00
  0.9300000      0.0000000E+00
  0.9400000      0.0000000E+00
  0.9500000      0.0000000E+00
  0.9600000      0.0000000E+00
  0.9700000      0.0000000E+00
  0.9800000      0.0000000E+00
  0.9900000      0.0000000E+00
   1.000000      0.0000000E+00
   1.010000      0.0000000E+00
   1.020000      0.0000000E+00
   1.030000      0.0000000E+00
   1.040000      0.0000000E+00
   1.050000      0.0000000E+00
   1.060000      0.0000000E+00
   1.070000      0.0000000E+00
   1.080000      0.0000000E+00
   1.090000      0.0000000E+00
   1.100000      0.0000000E+00
   1.110000      0.0000000E+00
   1.120000      0.0000000E+00
   1.130000      0.0000000E+00
   1.140000      0.0000000E+00
   1.150000      0.0000000E+00
   1.160000      0.0000000E+00
   1.170000      0.0000000E+00
   1.180000      0.0000000E+00
   1.190000      0.0000000E+00
   1.200000      0.0000000E+00
   1.210000      0.0000000E+00
   1.220000      0.0000000E+00
   1.230000      0.0000000E+00
   1.240000      0.0000000E+00
   1.250000      0.0000000E+00
   1.260000      0.0000000E+00
   1.270000      0.0000000E+00
   1.280000      0.0000000E+00
   1.290000      0.0000000E+00
   1.300000      0.0000000E+00
   1.310000      0.0000000E+00
   1.320000      0.0000000E+00
   1.330000      0.0000000E+00
   1.340000      0.0000000E+00
   1.350000      0.0000000E+00
   1.360000      0.0000000E+00
   1.370000      0.0000000E+00
   1.380000      0.0000000E+00
   1.390000      0.0000000E+00
   1.400000      0.0000000E+00
   1.410000      0.0000000E+00
   1.420000      0.0000000E+00
   1.430000      0.0000000E+00
   1.440000      0.0000000E+00
   1.450000      0.0000000E+00
   1.460000      0.0000000E+00
   1.470000      0.0000000E+00
   1.480000      0.0000000E+00
   1.490000      0.0000000E+00
   1.500000      0.0000000E+00
   1.510000      0.0000000E+00
   1.520000      0.0000000E+00
   1.530000      0.0000000E+00
   1.540000      0.0000000E+00
   1.550000      0.0000000E+00
   1.560000      0.0000000E+00
   1.570000      0.0000000E+00
   1.580000      0.0000000E+00
   1.590000      0.0000000E+00
   1.600000      0.0000000E+00
   1.610000      0.0000000E+00
   1.620000      0.0000000E+00
   1.630000      0.0000000E+00
   1.640000      0.0000000E+00
   1.650000      0.0000000E+00
   1.660000      0.0000000E+00
   1.670000      0.0000000E+00
   1.680000      0.0000000E+00
   1.690000      0.0000000E+00
   1.700000      0.0000000E+00
   1.710000      0.0000000E+00
   1.720000      0.0000000E+00
   1.730000      0.0000000E+00
   1.740000      0.0000000E+00
   1.750000      0.0000000E+00
   1.760000      0.0000000E+00
   1.770000      0.0000000E+00
   1.780000      0.0000000E+00
   1.790000      0.0000000E+00
   1.800000      0.0000000E+00
   1.810000      0.0000000E+00
   1.820000      0.0000000E+00
   1.830000      0.0000000E+00
   1.840000      0.0000000E+00
   1.850000      0.0000000E+00
   1.860000      0.0000000E+00
   1.870000      0.0000000E+00
   1.880000      0.0000000E+00
   1.890000      0.0000000E+00
   1.900000      0.0000000E+00
   1.910000      0.0000000E+00
   1.920000      0.0000000E+00
   1.930000      0.0000000E+00
   1.940000      0.0000000E+00
   1.950000      0.0000000E+00
   1.960000     -1.2514952E-38
   1.970000     -1.9882793E-38
   1.980000     -2.8734962E-38
   1.990000     -3.9042709E-38
   2.000000     -5.0733198E-38
   2.010000     -6.3688500E-38
   2.020000     -7.7751253E-38
   2.030000     -9.0805800E-38
   2.040000     -1.0238589E-37
   2.050000     -1.1395069E-37
   2.060000     -1.2530785E-37
   2.070000     -1.3626866E-37
   2.080000     -1.4663666E-37
   2.090000     -1.5624377E-37
   2.100000     -1.6500447E-37
   2.110000     -1.7290659E-37
   2.120000     -1.8001848E-37
   2.130000     -1.8648045E-37
   2.140000     -1.9380433E-37
   2.150000     -2.0156631E-37
   2.160000     -2.0789590E-37
   2.170000     -2.1275318E-37
   2.180000     -2.1480652E-37
   2.190000     -2.1698939E-37
   2.200000     -2.2229448E-37
   2.210000     -2.2952123E-37
   2.220000     -2.3623415E-37
   2.230000     -2.4128743E-37
   2.240000     -2.4408368E-37
   2.250000     -2.4395310E-37
   2.260000     -2.4196492E-37
   2.270000     -2.3762089E-37
   2.280000     -2.3030724E-37
   2.290000     -2.1998758E-37
   2.300000     -2.0615652E-37
   2.310000     -1.8773951E-37
   2.320000     -1.6417280E-37
   2.330000     -1.3498279E-37
   2.340000     -9.9757070E-38
   2.350000     -5.8176879E-38
   2.360000      0.0000000E+00
   2.370000      3.9894785E-38
   2.380000      9.1560051E-38
   2.390000      1.4941618E-37
   2.400000      2.1120868E-37
   2.410000      2.7629005E-37
   2.420000      3.4601976E-37
   2.430000      4.2048707E-37
   2.440000      5.0352057E-37
   2.450000      5.9355236E-37
   2.460000      6.9016613E-37
   2.470000      7.9581556E-37
   2.480000      9.0398683E-37
   2.490000      1.0089901E-36
   2.500000      1.1104523E-36
   2.510000      1.2082594E-36
   2.520000      1.3035751E-36
   2.530000      1.3966176E-36
   2.540000      1.4776730E-36
   2.550000      1.5450108E-36
   2.560000      1.6037713E-36
   2.570000      1.6577726E-36
   2.580000      1.7071621E-36
   2.590000      1.7297756E-36
   2.600000      1.7126348E-36
   2.610000      1.6700839E-36
   2.620000      1.6044576E-36
   2.630000      1.7095798E-36
   2.640000      2.0324980E-36
   2.650000      2.4572736E-36
   2.660000      3.2526472E-36
   2.670000      4.4618581E-36
   2.680000      5.8472877E-36
   2.690000      7.3671468E-36
   2.700000      9.0276237E-36
   2.710000      9.6700094E-36
   2.720000      8.9430432E-36
   2.730000      7.5440320E-36
   2.740000      5.7680189E-36
   2.750000      4.2051520E-36
   2.760000      2.9411062E-36
   2.770000      1.9078998E-36
   2.780000      1.1997665E-36
   2.790000      8.9402510E-37
   2.800000      9.9683342E-37
   2.810000      1.3511897E-36
   2.820000      2.7928851E-36
   2.830000      4.2492406E-36
   2.840000      3.2705128E-36
   2.850000      6.7170540E-37
   2.860000     -2.2788055E-36
   2.870000     -5.5487548E-36
   2.880000     -9.0325678E-36
   2.890000     -1.2139866E-35
   2.900000     -1.3984349E-35
   2.910000     -1.3592598E-35
   2.920000     -1.2218958E-35
   2.930000     -1.0132445E-35
   2.940000     -7.7253383E-36
   2.950000     -7.4364381E-36
   2.960000     -8.4919573E-36
   2.970000     -9.9702017E-36
   2.980000     -1.2006876E-35
   2.990000     -1.4815252E-35
   3.000000     -1.8989774E-35
   3.010000     -2.4424658E-35
   3.020000     -2.9341676E-35
   3.030000     -3.1250044E-35
   3.040000     -3.0172739E-35
   3.050000     -2.7270008E-35
   3.060000     -2.2722842E-35
   3.070000     -1.6837621E-35
   3.080000     -1.0164285E-35
   3.090000     -4.8266663E-36
   3.100000      2.6492708E-38
   3.110000      5.0530609E-36
   3.120000      8.4987503E-36
   3.130000      9.4522301E-36
   3.140000      7.9906273E-36
   3.150000      5.7149150E-36
   3.160000      3.1833290E-36
   3.170000      1.7401361E-36
   3.180000      2.8731110E-36
   3.190000      5.4957729E-36
   3.200000      8.1615361E-36
   3.210000      1.0930851E-35
   3.220000      1.4435406E-35
   3.230000      1.9322127E-35
   3.240000      2.5321503E-35
   3.250000      3.2176219E-35
   3.260000      4.0569628E-35
   3.270000      4.8862229E-35
   3.280000      5.4451717E-35
   3.290000      5.5849596E-35
   3.300000      5.4275237E-35
   3.310000      5.3539710E-35
   3.320000      5.4838688E-35
   3.330000      5.7578899E-35
   3.340000      6.0870260E-35
   3.350000      6.4119784E-35
   3.360000      6.6533204E-35
   3.370000      6.9013933E-35
   3.380000      7.2158783E-35
   3.390000      7.5583477E-35
   3.400000      7.7758745E-35
   3.410000      7.7921770E-35
   3.420000      7.6216896E-35
   3.430000      7.1885486E-35
   3.440000      6.5805551E-35
   3.450000      5.8203759E-35
   3.460000      4.6505243E-35
   3.470000      3.1166359E-35
   3.480000      1.9530092E-35
   3.490000      1.2999184E-35
   3.500000      8.4903157E-36
   3.510000      5.6659244E-36
   3.520000      5.3517225E-36
   3.530000      7.1027610E-36
   3.540000      8.8165800E-36
   3.550000      9.7427058E-36
   3.560000      8.9196094E-36
   3.570000      5.2272194E-36
   3.580000     -2.3637025E-36
   3.590000     -1.5048159E-35
   3.600000     -2.6328720E-35
   3.610000     -3.4347885E-35
   3.620000     -4.6849201E-35
   3.630000     -6.2088705E-35
   3.640000     -7.7854007E-35
   3.650000     -9.7434913E-35
   3.660000     -1.1447748E-34
   3.670000     -1.2091950E-34
   3.680000     -1.2054103E-34
   3.690000     -1.1883307E-34
   3.700000     -1.1948349E-34
   3.710000     -1.2946770E-34
   3.720000     -1.4841370E-34
   3.730000     -1.7345356E-34
   3.740000     -2.0040801E-34
   3.750000     -2.2424674E-34
   3.760000     -2.5009754E-34
   3.770000     -2.7433485E-34
   3.780000     -2.9057224E-34
   3.790000     -3.0925188E-34
   3.800000     -3.3364536E-34
   3.810000     -3.5613571E-34
   3.820000     -3.7662639E-34
   3.830000     -3.9617493E-34
   3.840000     -4.1179969E-34
   3.850000     -4.2357832E-34
   3.860000     -4.3464418E-34
   3.870000     -4.4693462E-34
   3.880000     -4.6041891E-34
   3.890000     -4.7080211E-34
   3.900000     -4.7711511E-34
   3.910000     -4.8277626E-34
   3.920000     -4.8894701E-34
   3.930000     -4.9919540E-34
   3.940000     -5.1414451E-34
   3.950000     -5.2405278E-34
   3.960000     -5.2434969E-34
   3.970000     -5.1678391E-34
   3.980000     -5.0188764E-34
   3.990000     -4.7950182E-34
   4.000000     -4.4802792E-34
   4.010000     -4.0884864E-34
   4.020000     -3.7121820E-34
   4.030000     -3.3672890E-34
   4.040000     -3.0105097E-34
   4.050000     -2.6767313E-34
   4.060000     -2.3206584E-34
   4.070000     -1.8695356E-34
   4.080000     -1.3284475E-34
   4.090000     -7.1711923E-35
   4.100000     -1.0729151E-35
   4.110000      4.9904562E-35
   4.120000      1.2324855E-34
   4.130000      2.0807485E-34
   4.140000      2.9719578E-34
   4.150000      3.9806495E-34
   4.160000      5.1586808E-34
   4.170000      6.4649085E-34
   4.180000      7.8657681E-34
   4.190000      9.3266945E-34
   4.200000      1.0791683E-33
   4.210000      1.2226995E-33
   4.220000      1.3637640E-33
   4.230000      1.5066838E-33
   4.240000      1.6471119E-33
   4.250000      1.7763854E-33
   4.260000      1.9011735E-33
   4.270000      2.0300247E-33
   4.280000      2.1644822E-33
   4.290000      2.3070664E-33
   4.300000      2.4555194E-33
   4.310000      2.6131276E-33
   4.320000      2.7843881E-33
   4.330000      2.9660880E-33
   4.340000      3.1519621E-33
   4.350000      3.3367660E-33
   4.360000      3.5179115E-33
   4.370000      3.6883505E-33
   4.380000      3.8447210E-33
   4.390000      3.9847267E-33
   4.400000      4.1085394E-33
   4.410000      4.2186347E-33
   4.420000      4.3138890E-33
   4.430000      4.3969969E-33
   4.440000      4.4717421E-33
   4.450000      4.5345642E-33
   4.460000      4.5895153E-33
   4.470000      4.6352872E-33
   4.480000      4.6658670E-33
   4.490000      4.6885176E-33
   4.500000      4.7028745E-33
   4.510000      4.7021805E-33
   4.520000      4.6820465E-33
   4.530000      4.6376323E-33
   4.540000      4.5622835E-33
   4.550000      4.4499628E-33
   4.560000      4.2984915E-33
   4.570000      4.1067196E-33
   4.580000      3.8703287E-33
   4.590000      3.5911209E-33
   4.600000      3.2640396E-33
   4.610000      2.8893846E-33
   4.620000      2.4758545E-33
   4.630000      2.0226311E-33
   4.640000      1.5327953E-33
   4.650000      1.0068524E-33
   4.660000      4.4300061E-34
   4.670000     -1.5783869E-34
   4.680000     -7.9886734E-34
   4.690000     -1.4850851E-33
   4.700000     -2.2182888E-33
   4.710000     -3.0054174E-33
   4.720000     -3.8538604E-33
   4.730000     -4.7651837E-33
   4.740000     -5.7390665E-33
   4.750000     -6.7785558E-33
   4.760000     -7.8880145E-33
   4.770000     -9.0669119E-33
   4.780000     -1.0305560E-32
   4.790000     -1.1598550E-32
   4.800000     -1.2943119E-32
   4.810000     -1.4331953E-32
   4.820000     -1.5760305E-32
   4.830000     -1.7227020E-32
   4.840000     -1.8732293E-32
   4.850000     -2.0272918E-32
   4.860000     -2.1847832E-32
   4.870000     -2.3456846E-32
   4.880000     -2.5101794E-32
   4.890000     -2.6783580E-32
   4.900000     -2.8501571E-32
   4.910000     -3.0251000E-32
   4.920000     -3.2026679E-32
   4.930000     -3.3824215E-32
   4.940000     -3.5635011E-32
   4.950000     -3.7447430E-32
   4.960000     -3.9249251E-32
   4.970000     -4.1028012E-32
   4.980000     -4.2770482E-32
   4.990000     -4.4464002E-32
   5.000000     -4.6096032E-32
   5.010000     -4.7656563E-32
   5.020000     -4.9134494E-32
   5.030000     -5.0519620E-32
   5.040000     -5.1808597E-32
   5.050000     -5.2987812E-32
   5.060000     -5.4043247E-32
   5.070000     -5.4969072E-32
   5.080000     -5.5753139E-32
   5.090000     -5.6381417E-32
   5.100000     -5.6838661E-32
   5.110000     -5.7107555E-32
   5.120000     -5.7166735E-32
   5.130000     -5.6993773E-32
   5.140000     -5.6566046E-32
   5.150000     -5.5859668E-32
   5.160000     -5.4850641E-32
   5.170000     -5.3515256E-32
   5.180000     -5.1831860E-32
   5.190000     -4.9782932E-32
   5.200000     -4.7349985E-32
   5.210000     -4.4513332E-32
   5.220000     -4.1257224E-32
   5.230000     -3.7566936E-32
   5.240000     -3.3427183E-32
   5.250000     -2.8822284E-32
   5.260000     -2.3735049E-32
   5.270000     -1.8146917E-32
   5.280000     -1.2039033E-32
   5.290000     -5.3916194E-33
   5.300000      1.8170456E-33
   5.310000      9.6078913E-33
   5.320000      1.8000007E-32
   5.330000      2.7013601E-32
   5.340000      3.6666008E-32
   5.350000      4.6969178E-32
   5.360000      5.7933263E-32
   5.370000      6.9564692E-32
   5.380000      8.1865517E-32
   5.390000      9.4835399E-32
   5.400000      1.0846919E-31
   5.410000      1.2275896E-31
   5.420000      1.3769649E-31
   5.430000      1.5327099E-31
   5.440000      1.6947029E-31
   5.450000      1.8628045E-31
   5.460000      2.0368595E-31
   5.470000      2.2166892E-31
   5.480000      2.4020794E-31
   5.490000      2.5927860E-31
   5.500000      2.7885166E-31
   5.510000      2.9889248E-31
   5.520000      3.1935929E-31
   5.530000      3.4020321E-31
   5.540000      3.6136864E-31
   5.550000      3.8279228E-31
   5.560000      4.0440349E-31
   5.570000      4.2612479E-31
   5.580000      4.4787252E-31
   5.590000      4.6955691E-31
   5.600000      4.9108312E-31
   5.610000      5.1235148E-31
   5.620000      5.3325756E-31
   5.630000      5.5369263E-31
   5.640000      5.7354297E-31
   5.650000      5.9268952E-31
   5.660000      6.1100692E-31
   5.670000      6.2836319E-31
   5.680000      6.4461891E-31
   5.690000      6.5962673E-31
   5.700000      6.7323049E-31
   5.710000      6.8526534E-31
   5.720000      6.9555863E-31
   5.730000      7.0392951E-31
   5.740000      7.1018958E-31
   5.750000      7.1414427E-31
   5.760000      7.1559441E-31
   5.770000      7.1433649E-31
   5.780000      7.1016372E-31
   5.790000      7.0286752E-31
   5.800000      6.9223809E-31
   5.810000      6.7806459E-31
   5.820000      6.6013539E-31
   5.830000      6.3823842E-31
   5.840000      6.1216097E-31
   5.850000      5.8168999E-31
   5.860000      5.4661207E-31
   5.870000      5.0671386E-31
   5.880000      4.6178289E-31
   5.890000      4.1160847E-31
   5.900000      3.5598290E-31
   5.910000      2.9470335E-31
   5.920000      2.2757333E-31
   5.930000      1.5440509E-31
   5.940000      7.5021636E-32
   5.950000     -1.0741087E-32
   5.960000     -1.0303227E-31
   5.970000     -2.0198487E-31
   5.980000     -3.0771327E-31
   5.990000     -4.2031272E-31
   6.000000     -5.3985819E-31
   6.010000     -6.6640298E-31
   6.020000     -7.9997817E-31
   6.030000     -9.4059146E-31
   6.040000     -1.0882263E-30
   6.050000     -1.2428400E-30
   6.060000     -1.4043624E-30
   6.070000     -1.5726936E-30
   6.080000     -1.7477019E-30
   6.090000     -1.9292210E-30
   6.100000     -2.1170482E-30
   6.110000     -2.3109405E-30
   6.120000     -2.5106127E-30
   6.130000     -2.7157356E-30
   6.140000     -2.9259324E-30
   6.150000     -3.1407782E-30
   6.160000     -3.3597987E-30
   6.170000     -3.5824697E-30
   6.180000     -3.8082146E-30
   6.190000     -4.0364042E-30
   6.200000     -4.2663580E-30
   6.210000     -4.4973425E-30
   6.220000     -4.7285699E-30
   6.230000     -4.9591993E-30
   6.240000     -5.1883353E-30
   6.250000     -5.4150266E-30
   6.260000     -5.6382671E-30
   6.270000     -5.8569929E-30
   6.280000     -6.0700821E-30
   6.290000     -6.2763548E-30
   6.300000     -6.4745725E-30
   6.310000     -6.6634377E-30
   6.320000     -6.8415976E-30
   6.330000     -7.0076421E-30
   6.340000     -7.1601103E-30
   6.350000     -7.2974900E-30
   6.360000     -7.4182202E-30
   6.370000     -7.5206932E-30
   6.380000     -7.6032630E-30
   6.390000     -7.6642442E-30
   6.400000     -7.7019187E-30
   6.410000     -7.7145396E-30
   6.420000     -7.7003306E-30
   6.430000     -7.6574952E-30
   6.440000     -7.5842181E-30
   6.450000     -7.4786719E-30
   6.460000     -7.3390194E-30
   6.470000     -7.1634219E-30
   6.480000     -6.9500425E-30
   6.490000     -6.6970543E-30
   6.500000     -6.4026495E-30
   6.510000     -6.0650438E-30
   6.520000     -5.6824887E-30
   6.530000     -5.2532786E-30
   6.540000     -4.7757612E-30
   6.550000     -4.2483449E-30
   6.560000     -3.6695101E-30
   6.570000     -3.0378212E-30
   6.580000     -2.3519353E-30
   6.590000     -1.6106125E-30
   6.600000     -8.1272739E-31
   6.610000      4.2725152E-32
   6.620000      9.5661523E-31
   6.630000      1.9296688E-30
   6.640000      2.9624566E-30
   6.650000      4.0553833E-30
   6.660000      5.2086704E-30
   6.670000      6.4223550E-30
   6.680000      7.6962696E-30
   6.690000      9.0300317E-30
   6.700000      1.0423030E-29
   6.710000      1.1874418E-29
   6.720000      1.3383098E-29
   6.730000      1.4947699E-29
   6.740000      1.6566577E-29
   6.750000      1.8237800E-29
   6.760000      1.9959125E-29
   6.770000      2.1728006E-29
   6.780000      2.3541575E-29
   6.790000      2.5396627E-29
   6.800000      2.7289624E-29
   6.810000      2.9216670E-29
   6.820000      3.1173520E-29
   6.830000      3.3155564E-29
   6.840000      3.5157821E-29
   6.850000      3.7174932E-29
   6.860000      3.9201139E-29
   6.870000      4.1230308E-29
   6.880000      4.3255908E-29
   6.890000      4.5271009E-29
   6.900000      4.7268285E-29
   6.910000      4.9240010E-29
   6.920000      5.1178049E-29
   6.930000      5.3073875E-29
   6.940000      5.4918560E-29
   6.950000      5.6702790E-29
   6.960000      5.8416874E-29
   6.970000      6.0050754E-29
   6.980000      6.1593996E-29
   6.990000      6.3035832E-29
   7.000000      6.4365163E-29
   7.010000      6.5570542E-29
   7.020000      6.6640258E-29
   7.030000      6.7562266E-29
   7.040000      6.8324297E-29
   7.050000      6.8913824E-29
   7.060000      6.9318119E-29