  -2.600000      0.0000000E+00
  -2.590000      0.0000000E+00
  -2.580000      0.0000000E+00
  -2.570000      0.0000000E+00
  -2.560000      0.0000000E+00
  -2.550000      0.0000000E+00
  -2.540000      0.0000000E+00
  -2.530000      0.0000000E+00
  -2.520000      0.0000000E+00
  -2.510000      0.0000000E+00
  -2.500000      0.0000000E+00
  -2.490000      0.0000000E+00
  -2.480000      0.0000000E+00
  -2.470000      0.0000000E+00
  -2.460000      0.0000000E+00
  -2.450000      0.0000000E+00
  -2.440000      0.0000000E+00
  -2.430000      0.0000000E+00
  -2.420000      0.0000000E+00
  -2.410000      0.0000000E+00
  -2.400000      0.0000000E+00
  -2.390000      0.0000000E+00
  -2.380000      0.0000000E+00
  -2.370000      0.0000000E+00
  -2.360000      0.0000000E+00
  -2.350000      0.0000000E+00
  -2.340000      0.0000000E+00
  -2.330000      0.0000000E+00
  -2.320000      0.0000000E+00
  -2.310000      0.0000000E+00
  -2.300000      0.0000000E+00
  -2.290000      0.0000000E+00
  -2.280000      0.0000000E+00
  -2.270000      0.0000000E+00
  -2.260000      0.0000000E+00
  -2.250000      0.0000000E+00
  -2.240000      0.0000000E+00
  -2.230000      0.0000000E+00
  -2.220000      0.0000000E+00
  -2.210000      0.0000000E+00
  -2.200000      0.0000000E+00
  -2.190000      0.0000000E+00
  -2.180000      0.0000000E+00
  -2.170000      0.0000000E+00
  -2.160000      0.0000000E+00
  -2.150000      0.0000000E+00
  -2.140000      0.0000000E+00
  -2.130000      0.0000000E+00
  -2.120000      0.0000000E+00
  -2.110000      0.0000000E+00
  -2.100000      0.0000000E+00
  -2.090000      0.0000000E+00
  -2.080000      0.0000000E+00
  -2.070000      0.0000000E+00
  -2.060000      0.0000000E+00
  -2.050000      0.0000000E+00
  -2.040000      0.0000000E+00
  -2.030000      0.0000000E+00
  -2.020000      0.0000000E+00
  -2.010000      0.0000000E+00
  -2.000000      0.0000000E+00
  -1.990000      0.0000000E+00
  -1.980000      0.0000000E+00
  -1.970000      0.0000000E+00
  -1.960000      0.0000000E+00
  -1.950000      0.0000000E+00
  -1.940000      0.0000000E+00
  -1.930000      0.0000000E+00
  -1.920000      0.0000000E+00
  -1.910000      0.0000000E+00
  -1.900000      0.0000000E+00
  -1.890000      0.0000000E+00
  -1.880000      0.0000000E+00
  -1.870000      0.0000000E+00
  -1.860000      0.0000000E+00
  -1.850000      0.0000000E+00
  -1.840000      0.0000000E+00
  -1.830000      0.0000000E+00
  -1.820000      0.0000000E+00
  -1.810000      0.0000000E+00
  -1.800000      0.0000000E+00
  -1.790000      0.0000000E+00
  -1.780000      0.0000000E+00
  -1.770000      0.0000000E+00
  -1.760000      0.0000000E+00
  -1.750000      0.0000000E+00
  -1.740000      0.0000000E+00
  -1.730000      0.0000000E+00
  -1.720000      0.0000000E+00
  -1.710000      0.0000000E+00
  -1.700000      0.0000000E+00
  -1.690000      0.0000000E+00
  -1.680000      0.0000000E+00
  -1.670000      0.0000000E+00
  -1.660000      0.0000000E+00
  -1.650000      0.0000000E+00
  -1.640000      0.0000000E+00
  -1.630000      0.0000000E+00
  -1.620000      0.0000000E+00
  -1.610000      0.0000000E+00
  -1.600000      0.0000000E+00
  -1.590000      0.0000000E+00
  -1.580000      0.0000000E+00
  -1.570000      0.0000000E+00
  -1.560000      0.0000000E+00
  -1.550000      0.0000000E+00
  -1.540000      0.0000000E+00
  -1.530000      0.0000000E+00
  -1.520000      0.0000000E+00
  -1.510000      0.0000000E+00
  -1.500000      0.0000000E+00
  -1.490000      0.0000000E+00
  -1.480000      0.0000000E+00
  -1.470000      0.0000000E+00
  -1.460000      0.0000000E+00
  -1.450000      0.0000000E+00
  -1.440000      0.0000000E+00
  -1.430000      0.0000000E+00
  -1.420000      0.0000000E+00
  -1.410000      0.0000000E+00
  -1.400000      0.0000000E+00
  -1.390000      0.0000000E+00
  -1.380000      0.0000000E+00
  -1.370000      0.0000000E+00
  -1.360000      0.0000000E+00
  -1.350000      0.0000000E+00
  -1.340000      0.0000000E+00
  -1.330000      0.0000000E+00
  -1.320000      0.0000000E+00
  -1.310000      0.0000000E+00
  -1.300000      0.0000000E+00
  -1.290000      0.0000000E+00
  -1.280000      0.0000000E+00
  -1.270000      0.0000000E+00
  -1.260000      0.0000000E+00
  -1.250000      0.0000000E+00
  -1.240000      0.0000000E+00
  -1.230000      0.0000000E+00
  -1.220000      0.0000000E+00
  -1.210000      0.0000000E+00
  -1.200000      0.0000000E+00
  -1.190000      0.0000000E+00
  -1.180000      0.0000000E+00
  -1.170000      0.0000000E+00
  -1.160000      0.0000000E+00
  -1.150000      0.0000000E+00
  -1.140000      0.0000000E+00
  -1.130000      0.0000000E+00
  -1.120000      0.0000000E+00
  -1.110000      0.0000000E+00
  -1.100000      0.0000000E+00
  -1.090000      0.0000000E+00
  -1.080000      0.0000000E+00
  -1.070000      0.0000000E+00
  -1.060000      0.0000000E+00
  -1.050000      0.0000000E+00
  -1.040000      0.0000000E+00
  -1.030000      0.0000000E+00
  -1.020000      0.0000000E+00
  -1.010000      0.0000000E+00
  -1.000000      0.0000000E+00
 -0.9900000      0.0000000E+00
 -0.9800000      0.0000000E+00
 -0.9700000      0.0000000E+00
 -0.9600000      0.0000000E+00
 -0.9500000      0.0000000E+00
 -0.9400000      0.0000000E+00
 -0.9300000      0.0000000E+00
 -0.9200000      0.0000000E+00
 -0.9100000      0.0000000E+00
 -0.9000000      0.0000000E+00
 -0.8900000      0.0000000E+00
 -0.8800000      0.0000000E+00
 -0.8700000      0.0000000E+00
 -0.8600000      0.0000000E+00
 -0.8500000      0.0000000E+00
 -0.8400000      0.0000000E+00
 -0.8300000      0.0000000E+00
 -0.8200000      0.0000000E+00
 -0.8100000      0.0000000E+00
 -0.8000000      0.0000000E+00
 -0.7900000      0.0000000E+00
 -0.7800000      0.0000000E+00
 -0.7700000      0.0000000E+00
 -0.7600000      0.0000000E+00
 -0.7500000      0.0000000E+00
 -0.7400000      0.0000000E+00
 -0.7300000      0.0000000E+00
 -0.7200000      0.0000000E+00
 -0.7100000      0.0000000E+00
 -0.7000000      0.0000000E+00
 -0.6900000      0.0000000E+00
 -0.6800000      0.0000000E+00
 -0.6700000      0.0000000E+00
 -0.6600000      0.0000000E+00
 -0.6500000      0.0000000E+00
 -0.6400000      0.0000000E+00
 -0.6300000      0.0000000E+00
 -0.6200000      0.0000000E+00
 -0.6100000      0.0000000E+00
 -0.6000000      0.0000000E+00
 -0.5900000      0.0000000E+00
 -0.5800000      0.0000000E+00
 -0.5700000      0.0000000E+00
 -0.5600000      0.0000000E+00
 -0.5500000      0.0000000E+00
 -0.5400000      0.0000000E+00
 -0.5300000      0.0000000E+00
 -0.5200000      0.0000000E+00
 -0.5100000      0.0000000E+00
 -0.5000000      0.0000000E+00
 -0.4900000      0.0000000E+00
 -0.4800000      0.0000000E+00
 -0.4700000      0.0000000E+00
 -0.4600000      0.0000000E+00
 -0.4500000      0.0000000E+00
 -0.4400000      0.0000000E+00
 -0.4300000      0.0000000E+00
 -0.4200000      0.0000000E+00
 -0.4100000      0.0000000E+00
 -0.4000000      0.0000000E+00
 -0.3900000      0.0000000E+00
 -0.3800000      0.0000000E+00
 -0.3700000      0.0000000E+00
 -0.3600000      0.0000000E+00
 -0.3500000      0.0000000E+00
 -0.3400000      0.0000000E+00
 -0.3300000      0.0000000E+00
 -0.3200000      0.0000000E+00
 -0.3100000      0.0000000E+00
 -0.3000000      0.0000000E+00
 -0.2900000      0.0000000E+00
 -0.2800000      0.0000000E+00
 -0.2700000      0.0000000E+00
 -0.2600000      0.0000000E+00
 -0.2500000      0.0000000E+00
 -0.2400000      0.0000000E+00
 -0.2300000      0.0000000E+00
 -0.2200000      0.0000000E+00
 -0.2100000      0.0000000E+00
 -0.2000000      0.0000000E+00
 -0.1900000      0.0000000E+00
 -0.1800000      0.0000000E+00
 -0.1700000      0.0000000E+00
 -0.1600000      0.0000000E+00
 -0.1500000      0.0000000E+00
 -0.1400000      0.0000000E+00
 -0.1300000      0.0000000E+00
 -0.1200000      0.0000000E+00
 -0.1100000      0.0000000E+00
 -0.1000000      0.0000000E+00
 -9.0000004E-02  0.0000000E+00
 -7.9999998E-02  0.0000000E+00
 -7.0000000E-02  0.0000000E+00
 -5.9999999E-02  0.0000000E+00
 -5.0000001E-02  0.0000000E+00
 -3.9999999E-02  0.0000000E+00
 -2.9999999E-02  0.0000000E+00
 -2.0000000E-02  0.0000000E+00
 -9.9999998E-03  0.0000000E+00
 -3.4694470E-17  0.0000000E+00
  9.9999998E-03  0.0000000E+00
  2.0000000E-02  0.0000000E+00
  2.9999999E-02  0.0000000E+00
  3.9999999E-02  0.0000000E+00
  5.0000001E-02  0.0000000E+00
  5.9999999E-02  0.0000000E+00
  7.0000000E-02  0.0000000E+00
  7.9999998E-02  0.0000000E+00
  9.0000004E-02  0.0000000E+00
  0.1000000      0.0000000E+00
  0.1100000      0.0000000E+00
  0.1200000      0.0000000E+00
  0.1300000      0.0000000E+00
  0.1400000      0.0000000E+00
  0.1500000      0.0000000E+00
  0.1600000      0.0000000E+00
  0.1700000      0.0000000E+00
  0.1800000      0.0000000E+00
  0.1900000      0.0000000E+00
  0.2000000      0.0000000E+00
  0.2100000      0.0000000E+00
  0.2200000      0.0000000E+00
  0.2300000      0.0000000E+00
  0.2400000      0.0000000E+00
  0.2500000      0.0000000E+00
  0.2600000      0.0000000E+00
  0.2700000      0.0000000E+00
  0.2800000      0.0000000E+00
  0.2900000      0.0000000E+00
  0.3000000      0.0000000E+00
  0.3100000      0.0000000E+00
  0.3200000      0.0000000E+00
  0.3300000      0.0000000E+00
  0.3400000      0.0000000E+00
  0.3500000      0.0000000E+00
  0.3600000      0.0000000E+00
  0.3700000      0.0000000E+00
  0.3800000      0.0000000E+00
  0.3900000      0.0000000E+00
  0.4000000      0.0000000E+00
  0.4100000      0.0000000E+00
  0.4200000      0.0000000E+00
  0.4300000      0.0000000E+00
  0.4400000      0.0000000E+00
  0.4500000      0.0000000E+00
  0.4600000      0.0000000E+00
  0.4700000      0.0000000E+00
  0.4800000      0.0000000E+00
  0.4900000      0.0000000E+00
  0.5000000      0.0000000E+00
  0.5100000      0.0000000E+00
  0.5200000      0.0000000E+00
  0.5300000      0.0000000E+00
  0.5400000      0.0000000E+00
  0.5500000      0.0000000E+00
  0.5600000      0.0000000E+00
  0.5700000      0.0000000E+00
  0.5800000      0.0000000E+00
  0.5900000      0.0000000E+00
  0.6000000      0.0000000E+00
  0.6100000      0.0000000E+00
  0.6200000      0.0000000E+00
  0.6300000      0.0000000E+00
  0.6400000      0.0000000E+00
  0.6500000      0.0000000E+00
  0.6600000      0.0000000E+00
  0.6700000      0.0000000E+00
  0.6800000      0.0000000E+00
  0.6900000      0.0000000E+00
  0.7000000      0.0000000E+00
  0.7100000      0.0000000E+00
  0.7200000      0.0000000E+00
  0.7300000      0.0000000E+00
  0.7400000      0.0000000E+00
  0.7500000      0.0000000E+00
  0.7600000      0.0000000E+00
  0.7700000      0.0000000E+00
  0.7800000      0.0000000E+00
  0.7900000      0.0000000E+00
  0.8000000      0.0000000E+00
  0.8100000      0.0000000E+00
  0.8200000      0.0000000E+00
  0.8300000      0.0000000E+00
  0.8400000      0.0000000E+00
  0.8500000      0.0000000E+00
  0.8600000      0.0000000E+00
  0.8700000      0.0000000E+00
  0.8800000      0.0000000E+00
  0.8900000      0.0000000E+00
  0.9000000      0.0000000E+00
  0.9100000      0.0000000E+00
  0.9200000      0.0000000E+00
  0.9300000      0.0000000E+00
  0.9400000      0.0000000E+00
  0.9500000      0.0000000E+00
  0.9600000      0.0000000E+00
  0.9700000      0.0000000E+00
  0.9800000      0.0000000E+00
  0.9900000      0.0000000E+00
   1.000000      0.0000000E+00
   1.010000      0.0000000E+00
   1.020000      0.0000000E+00
   1.030000      0.0000000E+00
   1.040000      0.0000000E+00
   1.050000      0.0000000E+00
   1.060000      0.0000000E+00
   1.070000      0.0000000E+00
   1.080000      0.0000000E+00
   1.090000      0.0000000E+00
   1.100000      0.0000000E+00
   1.110000      0.0000000E+00
   1.120000      0.0000000E+00
   1.130000      0.0000000E+00
   1.140000      0.0000000E+00
   1.150000      0.0000000E+00
   1.160000      0.0000000E+00
   1.170000      0.0000000E+00
   1.180000      0.0000000E+00
   1.190000      0.0000000E+00
   1.200000      0.0000000E+00
   1.210000      0.0000000E+00
   1.220000      0.0000000E+00
   1.230000      0.0000000E+00
   1.240000      0.0000000E+00
   1.250000      0.0000000E+00
   1.260000      0.0000000E+00
   1.270000      0.0000000E+00
   1.280000      0.0000000E+00
   1.290000      0.0000000E+00
   1.300000      0.0000000E+00
   1.310000      0.0000000E+00
   1.320000      0.0000000E+00
   1.330000      0.0000000E+00
   1.340000      0.0000000E+00
   1.350000      0.0000000E+00
   1.360000      0.0000000E+00
   1.370000      0.0000000E+00
   1.380000      0.0000000E+00
   1.390000      0.0000000E+00
   1.400000      0.0000000E+00
   1.410000      0.0000000E+00
   1.420000      0.0000000E+00
   1.430000      0.0000000E+00
   1.440000      0.0000000E+00
   1.450000      0.0000000E+00
   1.460000      0.0000000E+00
   1.470000      0.0000000E+00
   1.480000      0.0000000E+00
   1.490000      0.0000000E+00
   1.500000      0.0000000E+00
   1.510000      0.0000000E+00
   1.520000      0.0000000E+00
   1.530000      0.0000000E+00
   1.540000      0.0000000E+00
   1.550000      0.0000000E+00
   1.560000      0.0000000E+00
   1.570000      0.0000000E+00
   1.580000      0.0000000E+00
   1.590000      0.0000000E+00
   1.600000      0.0000000E+00
   1.610000      0.0000000E+00
   1.620000      0.0000000E+00
   1.630000      0.0000000E+00
   1.640000      0.0000000E+00
   1.650000      0.0000000E+00
   1.660000      0.0000000E+00
   1.670000      0.0000000E+00
   1.680000      0.0000000E+00
   1.690000      0.0000000E+00
   1.700000      0.0000000E+00
   1.710000      0.0000000E+00
   1.720000      0.0000000E+00
   1.730000      0.0000000E+00
   1.740000      0.0000000E+00
   1.750000      0.0000000E+00
   1.760000      0.0000000E+00
   1.770000      0.0000000E+00
   1.780000      0.0000000E+00
   1.790000      0.0000000E+00
   1.800000      0.0000000E+00
   1.810000      0.0000000E+00
   1.820000      0.0000000E+00
   1.830000      0.0000000E+00
   1.840000      0.0000000E+00
   1.850000      0.0000000E+00
   1.860000      0.0000000E+00
   1.870000      0.0000000E+00
   1.880000      0.0000000E+00
   1.890000      0.0000000E+00
   1.900000      0.0000000E+00
   1.910000      0.0000000E+00
   1.920000      0.0000000E+00
   1.930000      0.0000000E+00
   1.940000      0.0000000E+00
   1.950000      0.0000000E+00
   1.960000      0.0000000E+00
   1.970000      0.0000000E+00
   1.980000      0.0000000E+00
   1.990000      0.0000000E+00
   2.000000      0.0000000E+00
   2.010000      0.0000000E+00
   2.020000      0.0000000E+00
   2.030000      0.0000000E+00
   2.040000      1.4425844E-38
   2.050000      1.9652059E-38
   2.060000      2.5366336E-38
   2.070000      3.4704474E-38
   2.080000      4.8168990E-38
   2.090000      6.3126136E-38
   2.100000      7.9577800E-38
   2.110000      9.7498950E-38
   2.120000      1.1683084E-37
   2.130000      1.3749023E-37
   2.140000      1.5936266E-37
   2.150000      1.8157972E-37
   2.160000      2.0289028E-37
   2.170000      2.1666227E-37
   2.180000      2.2226192E-37
   2.190000      2.2555542E-37
   2.200000      2.2724207E-37
   2.210000      2.2811410E-37
   2.220000      2.2894997E-37
   2.230000      2.2947043E-37
   2.240000      2.2982310E-37
   2.250000      2.3634625E-37
   2.260000      2.4993284E-37
   2.270000      2.6333595E-37
   2.280000      2.7450560E-37
   2.290000      2.7725405E-37
   2.300000      2.6977152E-37
   2.310000      2.4840829E-37
   2.320000      2.1319023E-37
   2.330000      1.6855784E-37
   2.340000      1.1206643E-37
   2.350000      5.0596745E-38
   2.360000      0.0000000E+00
   2.370000     -7.1565232E-38
   2.380000     -1.3909282E-37
   2.390000     -2.0770775E-37
   2.400000     -2.5881734E-37
   2.410000     -2.8843386E-37
   2.420000     -3.1354365E-37
   2.430000     -3.4156518E-37
   2.440000     -3.7388874E-37
   2.450000     -4.1453207E-37
   2.460000     -4.7863665E-37
   2.470000     -5.6383623E-37
   2.480000     -6.5675204E-37
   2.490000     -7.5958771E-37
   2.500000     -8.7128828E-37
   2.510000     -9.8067709E-37
   2.520000     -1.0838240E-36
   2.530000     -1.1832455E-36
   2.540000     -1.2605765E-36
   2.550000     -1.3116937E-36
   2.560000     -1.3424107E-36
   2.570000     -1.3489385E-36
   2.580000     -1.3318925E-36
   2.590000     -1.2890365E-36
   2.600000     -1.2214506E-36
   2.610000     -1.1322711E-36
   2.620000     -1.0278070E-36
   2.630000     -8.9974993E-37
   2.640000     -7.5645786E-37
   2.650000     -6.5452369E-37
   2.660000     -5.9057358E-37
   2.670000     -3.6037471E-37
   2.680000      5.4984491E-38
   2.690000      4.9997953E-37
   2.700000      9.7185542E-37
   2.710000      1.3464089E-36
   2.720000      1.6255694E-36
   2.730000      1.9747871E-36
   2.740000      2.3758141E-36
   2.750000      2.7764780E-36
   2.760000      3.1964492E-36
   2.770000      3.6530629E-36
   2.780000      4.1078394E-36
   2.790000      4.5307752E-36
   2.800000      4.9385098E-36
   2.810000      5.3337862E-36
   2.820000      5.3756553E-36
   2.830000      4.9811519E-36
   2.840000      4.4634602E-36
   2.850000      3.9362936E-36
   2.860000      3.4600175E-36
   2.870000      3.0233074E-36
   2.880000      2.6670980E-36
   2.890000      2.7359945E-36
   2.900000      3.1702646E-36
   2.910000      3.3645365E-36
   2.920000      3.0863492E-36
   2.930000      2.5194789E-36
   2.940000      1.8189308E-36
   2.950000      9.4243613E-37
   2.960000     -1.5978121E-37
   2.970000     -2.1693019E-36
   2.980000     -4.8237394E-36
   2.990000     -7.3544276E-36
   3.000000     -9.8735657E-36
   3.010000     -1.1814952E-35
   3.020000     -1.3057779E-35
   3.030000     -1.4020462E-35
   3.040000     -1.4751681E-35
   3.050000     -1.5247940E-35
   3.060000     -1.5277448E-35
   3.070000     -1.4879740E-35
   3.080000     -1.4343717E-35
   3.090000     -1.3693003E-35
   3.100000     -1.2942715E-35
   3.110000     -1.2158160E-35
   3.120000     -1.1555789E-35
   3.130000     -1.0571217E-35
   3.140000     -9.1892262E-36
   3.150000     -7.7176528E-36
   3.160000     -6.1445502E-36
   3.170000     -4.9297585E-36
   3.180000     -3.8162757E-36
   3.190000     -2.4583754E-36
   3.200000     -1.3169063E-36
   3.210000     -4.9457809E-37
   3.220000      3.7198764E-37
   3.230000      7.0742636E-37
   3.240000      2.1641990E-37
   3.250000     -6.2666928E-37
   3.260000     -1.4501307E-36
   3.270000     -2.2351047E-36
   3.280000     -2.8277634E-36
   3.290000     -2.9930591E-36
   3.300000     -2.7653454E-36
   3.310000     -1.7835800E-36
   3.320000     -7.9450647E-38
   3.330000      2.1432896E-36
   3.340000      5.1104394E-36
   3.350000      9.7910342E-36
   3.360000      1.6120352E-35
   3.370000      2.3265196E-35
   3.380000      3.1383762E-35
   3.390000      4.0454578E-35
   3.400000      4.9566585E-35
   3.410000      5.7603987E-35
   3.420000      6.4685669E-35
   3.430000      7.0910968E-35
   3.440000      7.5980494E-35
   3.450000      7.9845155E-35
   3.460000      8.2680473E-35
   3.470000      8.4436132E-35
   3.480000      8.5847282E-35
   3.490000      8.6914038E-35
   3.500000      8.6283122E-35
   3.510000      8.4383975E-35
   3.520000      8.1824440E-35
   3.530000      7.8055517E-35
   3.540000      7.4242530E-35
   3.550000      7.1182554E-35
   3.560000      6.8314968E-35
   3.570000      6.5552441E-35
   3.580000      6.2859813E-35
   3.590000      6.0389800E-35
   3.600000      5.7085622E-35
   3.610000      5.3217815E-35
   3.620000      4.9312642E-35
   3.630000      4.5279164E-35
   3.640000      3.9088086E-35
   3.650000      3.0483215E-35
   3.660000      2.3094960E-35
   3.670000      1.7529597E-35
   3.680000      1.3025531E-35
   3.690000      9.9664774E-36
   3.700000      8.2853511E-36
   3.710000      6.3000420E-36
   3.720000      1.6750981E-36
   3.730000     -5.2880590E-36
   3.740000     -1.3003407E-35
   3.750000     -2.2393365E-35
   3.760000     -3.4570089E-35
   3.770000     -4.9682584E-35
   3.780000     -6.8328031E-35
   3.790000     -9.0413647E-35
   3.800000     -1.1476673E-34
   3.810000     -1.4078588E-34
   3.820000     -1.6818647E-34
   3.830000     -1.9687666E-34
   3.840000     -2.2607277E-34
   3.850000     -2.5319499E-34
   3.860000     -2.7820439E-34
   3.870000     -3.0457800E-34
   3.880000     -3.3273607E-34
   3.890000     -3.6000823E-34
   3.900000     -3.8739257E-34
   3.910000     -4.1437586E-34
   3.920000     -4.3827503E-34
   3.930000     -4.5863386E-34
   3.940000     -4.7360993E-34
   3.950000     -4.8675361E-34
   3.960000     -5.0123336E-34
   3.970000     -5.1449969E-34
   3.980000     -5.2362837E-34
   3.990000     -5.2795157E-34
   4.000000     -5.3001465E-34
   4.010000     -5.2958486E-34
   4.020000     -5.2516730E-34
   4.030000     -5.1676683E-34
   4.040000     -5.0596509E-34
   4.050000     -4.9325180E-34
   4.060000     -4.7920455E-34
   4.070000     -4.6607873E-34
   4.080000     -4.5249502E-34
   4.090000     -4.3738056E-34
   4.100000     -4.2180879E-34
   4.110000     -4.0660336E-34
   4.120000     -3.9441495E-34
   4.130000     -3.8746833E-34
   4.140000     -3.8275455E-34
   4.150000     -3.7573423E-34
   4.160000     -3.6338652E-34
   4.170000     -3.4470261E-34
   4.180000     -3.1901390E-34
   4.190000     -2.8554966E-34
   4.200000     -2.4443165E-34
   4.210000     -1.9442426E-34
   4.220000     -1.3384626E-34
   4.230000     -6.1840519E-35
   4.240000      2.0891618E-35
   4.250000      1.1321047E-34
   4.260000      2.1456165E-34
   4.270000      3.2443440E-34
   4.280000      4.4114402E-34
   4.290000      5.6467254E-34
   4.300000      6.9511219E-34
   4.310000      8.3107552E-34
   4.320000      9.7203483E-34
   4.330000      1.1171570E-33
   4.340000      1.2667289E-33
   4.350000      1.4199310E-33
   4.360000      1.5754052E-33
   4.370000      1.7300037E-33
   4.380000      1.8827783E-33
   4.390000      2.0345078E-33
   4.400000      2.1846265E-33
   4.410000      2.3320752E-33
   4.420000      2.4750689E-33
   4.430000      2.6174560E-33
   4.440000      2.7614059E-33
   4.450000      2.9041394E-33
   4.460000      3.0448865E-33
   4.470000      3.1842052E-33
   4.480000      3.3241864E-33
   4.490000      3.4665560E-33
   4.500000      3.6103818E-33
   4.510000      3.7522860E-33
   4.520000      3.8888013E-33
   4.530000      4.0190887E-33
   4.540000      4.1452122E-33
   4.550000      4.2678071E-33
   4.560000      4.3826132E-33
   4.570000      4.4865210E-33
   4.580000      4.5787992E-33
   4.590000      4.6577233E-33
   4.600000      4.7226437E-33
   4.610000      4.7703258E-33
   4.620000      4.7964262E-33
   4.630000      4.7996867E-33
   4.640000      4.7779143E-33
   4.650000      4.7272939E-33
   4.660000      4.6456418E-33
   4.670000      4.5317691E-33
   4.680000      4.3834801E-33
   4.690000      4.2000424E-33
   4.700000      3.9795667E-33
   4.710000      3.7193409E-33
   4.720000      3.4185359E-33
   4.730000      3.0759049E-33
   4.740000      2.6901524E-33
   4.750000      2.2609477E-33
   4.760000      1.7877122E-33
   4.770000      1.2701646E-33
   4.780000      7.0765357E-34
   4.790000      1.0063859E-34
   4.800000     -5.5186425E-34
   4.810000     -1.2515514E-33
   4.820000     -1.9977769E-33
   4.830000     -2.7901302E-33
   4.840000     -3.6294751E-33
   4.850000     -4.5174402E-33
   4.860000     -5.4561753E-33
   4.870000     -6.4456940E-33
   4.880000     -7.4857089E-33
   4.890000     -8.5755119E-33
   4.900000     -9.7148371E-33
   4.910000     -1.0904208E-32
   4.920000     -1.2143381E-32
   4.930000     -1.3431497E-32
   4.940000     -1.4766729E-32
   4.950000     -1.6147061E-32
   4.960000     -1.7570220E-32
   4.970000     -1.9035039E-32
   4.980000     -2.0538008E-32
   4.990000     -2.2075251E-32
   5.000000     -2.3642903E-32
   5.010000     -2.5236650E-32
   5.020000     -2.6852831E-32
   5.030000     -2.8485220E-32
   5.040000     -3.0126363E-32
   5.050000     -3.1768828E-32
   5.060000     -3.3406192E-32
   5.070000     -3.5031213E-32
   5.080000     -3.6635278E-32
   5.090000     -3.8209379E-32
   5.100000     -3.9743593E-32
   5.110000     -4.1227905E-32
   5.120000     -4.2651957E-32
   5.130000     -4.4005498E-32
   5.140000     -4.5276907E-32
   5.150000     -4.6454981E-32
   5.160000     -4.7527076E-32
   5.170000     -4.8480005E-32
   5.180000     -4.9301529E-32
   5.190000     -4.9978100E-32
   5.200000     -5.0496328E-32
   5.210000     -5.0841870E-32
   5.220000     -5.0999874E-32
   5.230000     -5.0955088E-32
   5.240000     -5.0691930E-32
   5.250000     -5.0194055E-32
   5.260000     -4.9444472E-32
   5.270000     -4.8426694E-32
   5.280000     -4.7123012E-32
   5.290000     -4.5514480E-32
   5.300000     -4.3584759E-32
   5.310000     -4.1315247E-32
   5.320000     -3.8685848E-32
   5.330000     -3.5678766E-32
   5.340000     -3.2275513E-32
   5.350000     -2.8457751E-32
   5.360000     -2.4207372E-32
   5.370000     -1.9506582E-32
   5.380000     -1.4338141E-32
   5.390000     -8.6856374E-33
   5.400000     -2.5330963E-33
   5.410000      4.1346375E-33
   5.420000      1.1331395E-32
   5.430000      1.9069810E-32
   5.440000      2.7361350E-32
   5.450000      3.6216111E-32
   5.460000      4.5642242E-32
   5.470000      5.5646175E-32
   5.480000      6.6232447E-32
   5.490000      7.7403364E-32
   5.500000      8.9159101E-32
   5.510000      1.0149723E-31
   5.520000      1.1441259E-31
   5.530000      1.2789765E-31
   5.540000      1.4194190E-31
   5.550000      1.5653141E-31
   5.560000      1.7164924E-31
   5.570000      1.8727491E-31
   5.580000      2.0338429E-31
   5.590000      2.1994950E-31
   5.600000      2.3693859E-31
   5.610000      2.5431564E-31
   5.620000      2.7203977E-31
   5.630000      2.9006562E-31
   5.640000      3.0834329E-31
   5.650000      3.2681752E-31
   5.660000      3.4542776E-31
   5.670000      3.6410827E-31
   5.680000      3.8278777E-31
   5.690000      4.0138881E-31
   5.700000      4.1982818E-31
   5.710000      4.3801689E-31
   5.720000      4.5585967E-31
   5.730000      4.7325511E-31
   5.740000      4.9009538E-31
   5.750000      5.0626642E-31
   5.760000      5.2164814E-31
   5.770000      5.3611392E-31
   5.780000      5.4953096E-31
   5.790000      5.6176090E-31
   5.800000      5.7265928E-31
   5.810000      5.8207518E-31
   5.820000      5.8985253E-31
   5.830000      5.9582969E-31
   5.840000      5.9983986E-31
   5.850000      6.0171172E-31
   5.860000      6.0126931E-31
   5.870000      5.9833264E-31
   5.880000      5.9271825E-31
   5.890000      5.8423931E-31
   5.900000      5.7270663E-31
   5.910000      5.5792902E-31
   5.920000      5.3971394E-31
   5.930000      5.1786808E-31
   5.940000      4.9219839E-31
   5.950000      4.6251245E-31
   5.960000      4.2861971E-31
   5.970000      3.9033202E-31
   5.980000      3.4746496E-31
   5.990000      2.9983866E-31
   6.000000      2.4727878E-31
   6.010000      1.8961775E-31
   6.020000      1.2669613E-31
   6.030000      5.8363694E-32
   6.040000     -1.5519303E-32
   6.050000     -9.5080625E-32
   6.060000     -1.8043461E-31
   6.070000     -2.7168072E-31
   6.080000     -3.6890224E-31
   6.090000     -4.7216430E-31
   6.100000     -5.8151231E-31
   6.110000     -6.9697096E-31
   6.120000     -8.1854204E-31
   6.130000     -9.4620270E-31
   6.140000     -1.0799039E-30
   6.150000     -1.2195685E-30
   6.160000     -1.3650901E-30
   6.170000     -1.5163305E-30
   6.180000     -1.6731189E-30
   6.190000     -1.8352493E-30
   6.200000     -2.0024796E-30
   6.210000     -2.1745295E-30
   6.220000     -2.3510788E-30
   6.230000     -2.5317662E-30
   6.240000     -2.7161875E-30
   6.250000     -2.9038948E-30
   6.260000     -3.0943943E-30
   6.270000     -3.2871453E-30
   6.280000     -3.4815592E-30
   6.290000     -3.6769990E-30
   6.300000     -3.8727765E-30
   6.310000     -4.0681531E-30
   6.320000     -4.2623399E-30
   6.330000     -4.4544939E-30
   6.340000     -4.6437218E-30
   6.350000     -4.8290764E-30
   6.360000     -5.0095589E-30
   6.370000     -5.1841182E-30
   6.380000     -5.3516507E-30
   6.390000     -5.5110026E-30
   6.400000     -5.6609694E-30
   6.410000     -5.8002969E-30
   6.420000     -5.9276836E-30
   6.430000     -6.0417825E-30
   6.440000     -6.1412027E-30
   6.450000     -6.2245112E-30
   6.460000     -6.2902369E-30
   6.470000     -6.3368715E-30
   6.480000     -6.3628761E-30
   6.490000     -6.3666805E-30
   6.500000     -6.3466907E-30
   6.510000     -6.3012918E-30
   6.520000     -6.2288532E-30
   6.530000     -6.1277324E-30
   6.540000     -5.9962817E-30
   6.550000     -5.8328541E-30
   6.560000     -5.6358093E-30
   6.570000     -5.4035196E-30
   6.580000     -5.1343776E-30
   6.590000     -4.8268017E-30
   6.600000     -4.4792477E-30
   6.610000     -4.0902125E-30
   6.620000     -3.6582460E-30
   6.630000     -3.1819564E-30
   6.640000     -2.6600218E-30
   6.650000     -2.0912001E-30
   6.660000     -1.4743361E-30
   6.670000     -8.0837486E-31
   6.680000     -9.2369088E-32
   6.690000      6.7450816E-31
   6.700000      1.4929535E-30
   6.710000      2.3635229E-30
   6.720000      3.2866194E-30
   6.730000      4.2624798E-30
   6.740000      5.2911668E-30
   6.750000      6.3725561E-30
   6.760000      7.5063232E-30
   6.770000      8.6919310E-30
   6.780000      9.9286233E-30
   6.790000      1.1215406E-29
   6.800000      1.2551041E-29
   6.810000      1.3934031E-29
   6.820000      1.5362609E-29
   6.830000      1.6834730E-29
   6.840000      1.8348055E-29
   6.850000      1.9899946E-29
   6.860000      2.1487456E-29
   6.870000      2.3107313E-29
   6.880000      2.4755917E-29
   6.890000      2.6429326E-29
   6.900000      2.8123263E-29
   6.910000      2.9833079E-29
   6.920000      3.1553786E-29
   6.930000      3.3280024E-29
   6.940000      3.5006055E-29
   6.950000      3.6725778E-29
   6.960000      3.8432717E-29
   6.970000      4.0120019E-29
   6.980000      4.1780447E-29
   6.990000      4.3406404E-29
   7.000000      4.4989910E-29
   7.010000      4.6522625E-29
   7.020000      4.7995844E-29
   7.030000      4.9400512E-29
   7.040000      5.0727219E-29
   7.050000      5.1966230E-29
   7.060000      5.3107482E-29