  -2.600000      0.0000000E+00
  -2.590000      0.0000000E+00
  -2.580000      0.0000000E+00
  -2.570000      0.0000000E+00
  -2.560000      0.0000000E+00
  -2.550000      0.0000000E+00
  -2.540000      0.0000000E+00
  -2.530000      0.0000000E+00
  -2.520000      0.0000000E+00
  -2.510000      0.0000000E+00
  -2.500000      0.0000000E+00
  -2.490000      0.0000000E+00
  -2.480000      0.0000000E+00
  -2.470000      0.0000000E+00
  -2.460000      0.0000000E+00
  -2.450000      0.0000000E+00
  -2.440000      0.0000000E+00
  -2.430000      0.0000000E+00
  -2.420000      0.0000000E+00
  -2.410000      0.0000000E+00
  -2.400000      0.0000000E+00
  -2.390000      0.0000000E+00
  -2.380000      0.0000000E+00
  -2.370000      0.0000000E+00
  -2.360000      0.0000000E+00
  -2.350000      0.0000000E+00
  -2.340000      0.0000000E+00
  -2.330000      0.0000000E+00
  -2.320000      0.0000000E+00
  -2.310000      0.0000000E+00
  -2.300000      0.0000000E+00
  -2.290000      0.0000000E+00
  -2.280000      0.0000000E+00
  -2.270000      0.0000000E+00
  -2.260000      0.0000000E+00
  -2.250000      0.0000000E+00
  -2.240000      0.0000000E+00
  -2.230000      0.0000000E+00
  -2.220000      0.0000000E+00
  -2.210000      0.0000000E+00
  -2.200000      0.0000000E+00
  -2.190000      0.0000000E+00
  -2.180000      0.0000000E+00
  -2.170000      0.0000000E+00
  -2.160000      0.0000000E+00
  -2.150000      0.0000000E+00
  -2.140000      0.0000000E+00
  -2.130000      0.0000000E+00
  -2.120000      0.0000000E+00
  -2.110000      0.0000000E+00
  -2.100000      0.0000000E+00
  -2.090000      0.0000000E+00
  -2.080000      0.0000000E+00
  -2.070000      0.0000000E+00
  -2.060000      0.0000000E+00
  -2.050000      0.0000000E+00
  -2.040000      0.0000000E+00
  -2.030000      0.0000000E+00
  -2.020000      0.0000000E+00
  -2.010000      0.0000000E+00
  -2.000000      0.0000000E+00
  -1.990000      0.0000000E+00
  -1.980000      0.0000000E+00
  -1.970000      0.0000000E+00
  -1.960000      0.0000000E+00
  -1.950000      0.0000000E+00
  -1.940000      0.0000000E+00
  -1.930000      0.0000000E+00
  -1.920000      0.0000000E+00
  -1.910000      0.0000000E+00
  -1.900000      0.0000000E+00
  -1.890000      0.0000000E+00
  -1.880000      0.0000000E+00
  -1.870000      0.0000000E+00
  -1.860000      0.0000000E+00
  -1.850000      0.0000000E+00
  -1.840000      0.0000000E+00
  -1.830000      0.0000000E+00
  -1.820000      0.0000000E+00
  -1.810000      0.0000000E+00
  -1.800000      0.0000000E+00
  -1.790000      0.0000000E+00
  -1.780000      0.0000000E+00
  -1.770000      0.0000000E+00
  -1.760000      0.0000000E+00
  -1.750000      0.0000000E+00
  -1.740000      0.0000000E+00
  -1.730000      0.0000000E+00
  -1.720000      0.0000000E+00
  -1.710000      0.0000000E+00
  -1.700000      0.0000000E+00
  -1.690000      0.0000000E+00
  -1.680000      0.0000000E+00
  -1.670000      0.0000000E+00
  -1.660000      0.0000000E+00
  -1.650000      0.0000000E+00
  -1.640000      0.0000000E+00
  -1.630000      0.0000000E+00
  -1.620000      0.0000000E+00
  -1.610000      0.0000000E+00
  -1.600000      0.0000000E+00
  -1.590000      0.0000000E+00
  -1.580000      0.0000000E+00
  -1.570000      0.0000000E+00
  -1.560000      0.0000000E+00
  -1.550000      0.0000000E+00
  -1.540000      0.0000000E+00
  -1.530000      0.0000000E+00
  -1.520000      0.0000000E+00
  -1.510000      0.0000000E+00
  -1.500000      0.0000000E+00
  -1.490000      0.0000000E+00
  -1.480000      0.0000000E+00
  -1.470000      0.0000000E+00
  -1.460000      0.0000000E+00
  -1.450000      0.0000000E+00
  -1.440000      0.0000000E+00
  -1.430000      0.0000000E+00
  -1.420000      0.0000000E+00
  -1.410000      0.0000000E+00
  -1.400000      0.0000000E+00
  -1.390000      0.0000000E+00
  -1.380000      0.0000000E+00
  -1.370000      0.0000000E+00
  -1.360000      0.0000000E+00
  -1.350000      0.0000000E+00
  -1.340000      0.0000000E+00
  -1.330000      0.0000000E+00
  -1.320000      0.0000000E+00
  -1.310000      0.0000000E+00
  -1.300000      0.0000000E+00
  -1.290000      0.0000000E+00
  -1.280000      0.0000000E+00
  -1.270000      0.0000000E+00
  -1.260000      0.0000000E+00
  -1.250000      0.0000000E+00
  -1.240000      0.0000000E+00
  -1.230000      0.0000000E+00
  -1.220000      0.0000000E+00
  -1.210000      0.0000000E+00
  -1.200000      0.0000000E+00
  -1.190000      0.0000000E+00
  -1.180000      0.0000000E+00
  -1.170000      0.0000000E+00
  -1.160000      0.0000000E+00
  -1.150000      0.0000000E+00
  -1.140000      0.0000000E+00
  -1.130000      0.0000000E+00
  -1.120000      0.0000000E+00
  -1.110000      0.0000000E+00
  -1.100000      0.0000000E+00
  -1.090000      0.0000000E+00
  -1.080000      0.0000000E+00
  -1.070000      0.0000000E+00
  -1.060000      0.0000000E+00
  -1.050000      0.0000000E+00
  -1.040000      0.0000000E+00
  -1.030000      0.0000000E+00
  -1.020000      0.0000000E+00
  -1.010000      0.0000000E+00
  -1.000000      0.0000000E+00
 -0.9900000      0.0000000E+00
 -0.9800000      0.0000000E+00
 -0.9700000      0.0000000E+00
 -0.9600000      0.0000000E+00
 -0.9500000      0.0000000E+00
 -0.9400000      0.0000000E+00
 -0.9300000      0.0000000E+00
 -0.9200000      0.0000000E+00
 -0.9100000      0.0000000E+00
 -0.9000000      0.0000000E+00
 -0.8900000      0.0000000E+00
 -0.8800000      0.0000000E+00
 -0.8700000      0.0000000E+00
 -0.8600000      0.0000000E+00
 -0.8500000      0.0000000E+00
 -0.8400000      0.0000000E+00
 -0.8300000      0.0000000E+00
 -0.8200000      0.0000000E+00
 -0.8100000      0.0000000E+00
 -0.8000000      0.0000000E+00
 -0.7900000      0.0000000E+00
 -0.7800000      0.0000000E+00
 -0.7700000      0.0000000E+00
 -0.7600000      0.0000000E+00
 -0.7500000      0.0000000E+00
 -0.7400000      0.0000000E+00
 -0.7300000      0.0000000E+00
 -0.7200000      0.0000000E+00
 -0.7100000      0.0000000E+00
 -0.7000000      0.0000000E+00
 -0.6900000      0.0000000E+00
 -0.6800000      0.0000000E+00
 -0.6700000      0.0000000E+00
 -0.6600000      0.0000000E+00
 -0.6500000      0.0000000E+00
 -0.6400000      0.0000000E+00
 -0.6300000      0.0000000E+00
 -0.6200000      0.0000000E+00
 -0.6100000      0.0000000E+00
 -0.6000000      0.0000000E+00
 -0.5900000      0.0000000E+00
 -0.5800000      0.0000000E+00
 -0.5700000      0.0000000E+00
 -0.5600000      0.0000000E+00
 -0.5500000      0.0000000E+00
 -0.5400000      0.0000000E+00
 -0.5300000      0.0000000E+00
 -0.5200000      0.0000000E+00
 -0.5100000      0.0000000E+00
 -0.5000000      0.0000000E+00
 -0.4900000      0.0000000E+00
 -0.4800000      0.0000000E+00
 -0.4700000      0.0000000E+00
 -0.4600000      0.0000000E+00
 -0.4500000      0.0000000E+00
 -0.4400000      0.0000000E+00
 -0.4300000      0.0000000E+00
 -0.4200000      0.0000000E+00
 -0.4100000      0.0000000E+00
 -0.4000000      0.0000000E+00
 -0.3900000      0.0000000E+00
 -0.3800000      0.0000000E+00
 -0.3700000      0.0000000E+00
 -0.3600000      0.0000000E+00
 -0.3500000      0.0000000E+00
 -0.3400000      0.0000000E+00
 -0.3300000      0.0000000E+00
 -0.3200000      0.0000000E+00
 -0.3100000      0.0000000E+00
 -0.3000000      0.0000000E+00
 -0.2900000      0.0000000E+00
 -0.2800000      0.0000000E+00
 -0.2700000      0.0000000E+00
 -0.2600000      0.0000000E+00
 -0.2500000      0.0000000E+00
 -0.2400000      0.0000000E+00
 -0.2300000      0.0000000E+00
 -0.2200000      0.0000000E+00
 -0.2100000      0.0000000E+00
 -0.2000000      0.0000000E+00
 -0.1900000      0.0000000E+00
 -0.1800000      0.0000000E+00
 -0.1700000      0.0000000E+00
 -0.1600000      0.0000000E+00
 -0.1500000      0.0000000E+00
 -0.1400000      0.0000000E+00
 -0.1300000      0.0000000E+00
 -0.1200000      0.0000000E+00
 -0.1100000      0.0000000E+00
 -0.1000000      0.0000000E+00
 -9.0000004E-02  0.0000000E+00
 -7.9999998E-02  0.0000000E+00
 -7.0000000E-02  0.0000000E+00
 -5.9999999E-02  0.0000000E+00
 -5.0000001E-02  0.0000000E+00
 -3.9999999E-02  0.0000000E+00
 -2.9999999E-02  0.0000000E+00
 -2.0000000E-02  0.0000000E+00
 -9.9999998E-03  0.0000000E+00
 -3.4694470E-17  0.0000000E+00
  9.9999998E-03  0.0000000E+00
  2.0000000E-02  0.0000000E+00
  2.9999999E-02  0.0000000E+00
  3.9999999E-02  0.0000000E+00
  5.0000001E-02  0.0000000E+00
  5.9999999E-02  0.0000000E+00
  7.0000000E-02  0.0000000E+00
  7.9999998E-02  0.0000000E+00
  9.0000004E-02  0.0000000E+00
  0.1000000      0.0000000E+00
  0.1100000      0.0000000E+00
  0.1200000      0.0000000E+00
  0.1300000      0.0000000E+00
  0.1400000      0.0000000E+00
  0.1500000      0.0000000E+00
  0.1600000      0.0000000E+00
  0.1700000      0.0000000E+00
  0.1800000      0.0000000E+00
  0.1900000      0.0000000E+00
  0.2000000      0.0000000E+00
  0.2100000      0.0000000E+00
  0.2200000      0.0000000E+00
  0.2300000      0.0000000E+00
  0.2400000      0.0000000E+00
  0.2500000      0.0000000E+00
  0.2600000      0.0000000E+00
  0.2700000      0.0000000E+00
  0.2800000      0.0000000E+00
  0.2900000      0.0000000E+00
  0.3000000      0.0000000E+00
  0.3100000      0.0000000E+00
  0.3200000      0.0000000E+00
  0.3300000      0.0000000E+00
  0.3400000      0.0000000E+00
  0.3500000      0.0000000E+00
  0.3600000      0.0000000E+00
  0.3700000      0.0000000E+00
  0.3800000      0.0000000E+00
  0.3900000      0.0000000E+00
  0.4000000      0.0000000E+00
  0.4100000      0.0000000E+00
  0.4200000      0.0000000E+00
  0.4300000      0.0000000E+00
  0.4400000      0.0000000E+00
  0.4500000      0.0000000E+00
  0.4600000      0.0000000E+00
  0.4700000      0.0000000E+00
  0.4800000      0.0000000E+00
  0.4900000      0.0000000E+00
  0.5000000      0.0000000E+00
  0.5100000      0.0000000E+00
  0.5200000      0.0000000E+00
  0.5300000      1.4579108E-38
  0.5400000      2.0426005E-38
  0.5500000      2.8427853E-38
  0.5600000      3.7613810E-38
  0.5700000      4.5538063E-38
  0.5800000      5.0254425E-38
  0.5900000      5.3806162E-38
  0.6000000      5.8185477E-38
  0.6100000      6.1384619E-38
  0.6200000      6.3345893E-38
  0.6300000      6.2211968E-38
  0.6400000      5.0488885E-38
  0.6500000      2.3450567E-38
  0.6600000     -1.3177958E-38
  0.6700000     -5.8787935E-38
  0.6800000     -1.1528888E-37
  0.6900000     -1.7850251E-37
  0.7000000     -2.4487534E-37
  0.7100000     -3.1465040E-37
  0.7200000     -3.8881970E-37
  0.7300000     -4.6465591E-37
  0.7400000     -5.3766445E-37
  0.7500000     -6.0631969E-37
  0.7600000     -6.6890267E-37
  0.7700000     -7.1227342E-37
  0.7800000     -7.2233958E-37
  0.7900000     -6.9967110E-37
  0.8000000     -6.4269009E-37
  0.8100000     -5.2753547E-37
  0.8200000     -3.5900966E-37
  0.8300000     -1.4792925E-37
  0.8400000      1.1669014E-37
  0.8500000      4.1762842E-37
  0.8600000      7.3875491E-37
  0.8700000      1.0728599E-36
  0.8800000      1.4020048E-36
  0.8900000      1.7398631E-36
  0.9000000      2.1089021E-36
  0.9100000      2.5065512E-36
  0.9200000      2.9091040E-36
  0.9300000      3.2865104E-36
  0.9400000      3.6560619E-36
  0.9500000      4.0007908E-36
  0.9600000      4.2503979E-36
  0.9700000      4.3791742E-36
  0.9800000      4.3904316E-36
  0.9900000      4.2452788E-36
   1.000000      3.9199447E-36
   1.010000      3.4063852E-36
   1.020000      2.6685797E-36
   1.030000      1.7089574E-36
   1.040000      4.8311973E-37
   1.050000     -1.0387542E-36
   1.060000     -2.6013922E-36
   1.070000     -4.1662862E-36
   1.080000     -5.7385605E-36
   1.090000     -7.3071208E-36
   1.100000     -8.7613338E-36
   1.110000     -9.9315677E-36
   1.120000     -1.1064310E-35
   1.130000     -1.2356135E-35
   1.140000     -1.3701553E-35
   1.150000     -1.4862840E-35
   1.160000     -1.5816628E-35
   1.170000     -1.6633914E-35
   1.180000     -1.7280837E-35
   1.190000     -1.7895832E-35
   1.200000     -1.8236879E-35
   1.210000     -1.8109585E-35
   1.220000     -1.7781931E-35
   1.230000     -1.7030141E-35
   1.240000     -1.5359916E-35
   1.250000     -1.2898656E-35
   1.260000     -1.0017929E-35
   1.270000     -6.5113082E-36
   1.280000     -2.5684004E-36
   1.290000      1.9848904E-36
   1.300000      7.4845456E-36
   1.310000      1.3773749E-35
   1.320000      2.1204515E-35
   1.330000      2.9687196E-35
   1.340000      3.8597581E-35
   1.350000      4.7607533E-35
   1.360000      5.7097009E-35
   1.370000      6.7007150E-35
   1.380000      7.5979352E-35
   1.390000      8.3831000E-35
   1.400000      9.0418509E-35
   1.410000      9.4906854E-35
   1.420000      9.8264222E-35
   1.430000      1.0257823E-34
   1.440000      1.0742903E-34
   1.450000      1.0961415E-34
   1.460000      1.0814440E-34
   1.470000      1.0428240E-34
   1.480000      9.6342025E-35
   1.490000      8.3850377E-35
   1.500000      6.8041252E-35
   1.510000      4.9279019E-35
   1.520000      2.9994228E-35
   1.530000      8.0696934E-36
   1.540000     -1.9160478E-35
   1.550000     -4.9130343E-35
   1.560000     -7.9016156E-35
   1.570000     -1.0577300E-34
   1.580000     -1.3343564E-34
   1.590000     -1.6595027E-34
   1.600000     -2.0070264E-34
   1.610000     -2.3873039E-34
   1.620000     -2.8048737E-34
   1.630000     -3.2051077E-34
   1.640000     -3.5626922E-34
   1.650000     -3.8600576E-34
   1.660000     -4.0886811E-34
   1.670000     -4.2930101E-34
   1.680000     -4.4766379E-34
   1.690000     -4.6437849E-34
   1.700000     -4.7636766E-34
   1.710000     -4.8136498E-34
   1.720000     -4.8109287E-34
   1.730000     -4.7800610E-34
   1.740000     -4.6774178E-34
   1.750000     -4.4772743E-34
   1.760000     -4.2211318E-34
   1.770000     -3.8980426E-34
   1.780000     -3.4909613E-34
   1.790000     -2.9773761E-34
   1.800000     -2.3827250E-34
   1.810000     -1.7133984E-34
   1.820000     -9.2275095E-35
   1.830000     -4.3392530E-36
   1.840000      9.1100014E-35
   1.850000      1.9989093E-34
   1.860000      3.1948196E-34
   1.870000      4.5032739E-34
   1.880000      5.9563506E-34
   1.890000      7.5314763E-34
   1.900000      9.2261429E-34
   1.910000      1.1021325E-33
   1.920000      1.2902086E-33
   1.930000      1.4879865E-33
   1.940000      1.6931626E-33
   1.950000      1.9012405E-33
   1.960000      2.1114297E-33
   1.970000      2.3224336E-33
   1.980000      2.5286195E-33
   1.990000      2.7267990E-33
   2.000000      2.9150025E-33
   2.010000      3.0890842E-33
   2.020000      3.2447211E-33
   2.030000      3.3779266E-33
   2.040000      3.4843144E-33
   2.050000      3.5592771E-33
   2.060000      3.5987157E-33
   2.070000      3.5985544E-33
   2.080000      3.5543709E-33
   2.090000      3.4611972E-33
   2.100000      3.3158910E-33
   2.110000      3.1159093E-33
   2.120000      2.8571033E-33
   2.130000      2.5360907E-33
   2.140000      2.1506240E-33
   2.150000      1.6987815E-33
   2.160000      1.1776745E-33
   2.170000      5.8736891E-34
   2.180000     -7.1489772E-35
   2.190000     -8.0005569E-34
   2.200000     -1.5971679E-33
   2.210000     -2.4616029E-33
   2.220000     -3.3913093E-33
   2.230000     -4.3830213E-33
   2.240000     -5.4329486E-33
   2.250000     -6.5363385E-33
   2.260000     -7.6877279E-33
   2.270000     -8.8810964E-33
   2.280000     -1.0107360E-32
   2.290000     -1.1358352E-32
   2.300000     -1.2625905E-32
   2.310000     -1.3898438E-32
   2.320000     -1.5164339E-32
   2.330000     -1.6410717E-32
   2.340000     -1.7623595E-32
   2.350000     -1.8787953E-32
   2.360000     -1.9888016E-32
   2.370000     -2.0906959E-32
   2.380000     -2.1827036E-32
   2.390000     -2.2629647E-32
   2.400000     -2.3295390E-32
   2.410000     -2.3804529E-32
   2.420000     -2.4136788E-32
   2.430000     -2.4271756E-32
   2.440000     -2.4188920E-32
   2.450000     -2.3867863E-32
   2.460000     -2.3288546E-32
   2.470000     -2.2431515E-32
   2.480000     -2.1278148E-32
   2.490000     -1.9810910E-32
   2.500000     -1.8013635E-32
   2.510000     -1.5871707E-32
   2.520000     -1.3372832E-32
   2.530000     -1.0506631E-32
   2.540000     -7.2649717E-33
   2.550000     -3.6429529E-33
   2.560000      3.6182577E-34
   2.570000      4.7472369E-33
   2.580000      9.5075320E-33
   2.590000      1.4633761E-32
   2.600000      2.0113173E-32
   2.610000      2.5928643E-32
   2.620000      3.2057647E-32
   2.630000      3.8473369E-32
   2.640000      4.5144211E-32
   2.650000      5.2033651E-32
   2.660000      5.9100171E-32
   2.670000      6.6297570E-32
   2.680000      7.3574215E-32
   2.690000      8.0873541E-32
   2.700000      8.8134717E-32
   2.710000      9.5292061E-32
   2.720000      1.0227541E-31
   2.730000      1.0901051E-31
   2.740000      1.1541922E-31
   2.750000      1.2141981E-31
   2.760000      1.2692740E-31
   2.770000      1.3185455E-31
   2.780000      1.3611164E-31
   2.790000      1.3960730E-31
   2.800000      1.4224923E-31
   2.810000      1.4394470E-31
   2.820000      1.4460137E-31
   2.830000      1.4412791E-31
   2.840000      1.4243491E-31
   2.850000      1.3943559E-31
   2.860000      1.3504681E-31
   2.870000      1.2918985E-31
   2.880000      1.2179142E-31
   2.890000      1.1278459E-31
   2.900000      1.0210982E-31
   2.910000      8.9715980E-32
   2.920000      7.5561306E-32
   2.930000      5.9614444E-32
   2.940000      4.1855528E-32
   2.950000      2.2277152E-32
   2.960000      8.8538308E-34
   2.970000     -2.2299298E-32
   2.980000     -4.7241078E-32
   2.990000     -7.3887960E-32
   3.000000     -1.0217097E-31
   3.010000     -1.3200343E-31
   3.020000     -1.6328033E-31
   3.030000     -1.9587780E-31
   3.040000     -2.2965278E-31
   3.050000     -2.6444257E-31
   3.060000     -3.0006485E-31
   3.070000     -3.3631763E-31
   3.080000     -3.7297928E-31
   3.090000     -4.0980893E-31
   3.100000     -4.4654694E-31
   3.110000     -4.8291537E-31
   3.120000     -5.1861880E-31
   3.130000     -5.5334539E-31
   3.140000     -5.8676785E-31
   3.150000     -6.1854470E-31
   3.160000     -6.4832186E-31
   3.170000     -6.7573396E-31
   3.180000     -7.0040622E-31
   3.190000     -7.2195661E-31
   3.200000     -7.3999763E-31
   3.210000     -7.5413826E-31
   3.220000     -7.6398669E-31
   3.230000     -7.6915266E-31
   3.240000     -7.6924994E-31
   3.250000     -7.6389924E-31
   3.260000     -7.5273068E-31
   3.270000     -7.3538691E-31
   3.280000     -7.1152617E-31
   3.290000     -6.8082522E-31
   3.300000     -6.4298267E-31
   3.310000     -5.9772204E-31
   3.320000     -5.4479513E-31
   3.330000     -4.8398558E-31
   3.340000     -4.1511182E-31
   3.350000     -3.3803082E-31
   3.360000     -2.5264120E-31
   3.370000     -1.5888662E-31
   3.380000     -5.6759280E-32
   3.390000      5.3697287E-32
   3.400000      1.7238491E-31
   3.410000      2.9914780E-31
   3.420000      4.3376978E-31
   3.430000      5.7597173E-31
   3.440000      7.2540937E-31
   3.450000      8.8167089E-31
   3.460000      1.0442755E-30
   3.470000      1.2126714E-30
   3.480000      1.3862349E-30
   3.490000      1.5642699E-30
   3.500000      1.7460067E-30
   3.510000      1.9306028E-30
   3.520000      2.1171421E-30
   3.530000      2.3046368E-30
   3.540000      2.4920275E-30
   3.550000      2.6781858E-30
   3.560000      2.8619153E-30
   3.570000      3.0419552E-30
   3.580000      3.2169808E-30
   3.590000      3.3856096E-30
   3.600000      3.5464029E-30
   3.610000      3.6978701E-30
   3.620000      3.8384735E-30
   3.630000      3.9666337E-30
   3.640000      4.0807330E-30
   3.650000      4.1791232E-30
   3.660000      4.2601296E-30
   3.670000      4.3220584E-30
   3.680000      4.3632041E-30
   3.690000      4.3818547E-30
   3.700000      4.3763015E-30
   3.710000      4.3448460E-30
   3.720000      4.2858084E-30
   3.730000      4.1975369E-30
   3.740000      4.0784155E-30
   3.750000      3.9268756E-30
   3.760000      3.7414044E-30
   3.770000      3.5205567E-30
   3.780000      3.2629639E-30
   3.790000      2.9673459E-30
   3.800000      2.6325222E-30
   3.810000      2.2574231E-30
   3.820000      1.8411018E-30
   3.830000      1.3827452E-30
   3.840000      8.8168668E-31
   3.850000      3.3741778E-31
   3.860000     -2.5040115E-31
   3.870000     -8.8192808E-31
   3.880000     -1.5571277E-30
   3.890000     -2.2757608E-30
   3.900000     -3.0373728E-30
   3.910000     -3.8412831E-30
   3.920000     -4.6865749E-30
   3.930000     -5.5720840E-30
   3.940000     -6.4963889E-30
   3.950000     -7.4578018E-30
   3.960000     -8.4543615E-30
   3.970000     -9.4838215E-30
   3.980000     -1.0543643E-29
   3.990000     -1.1630989E-29
   4.000000     -1.2742715E-29
   4.010000     -1.3875365E-29
   4.020000     -1.5025156E-29
   4.030000     -1.6187986E-29
   4.040000     -1.7359422E-29
   4.050000     -1.8534694E-29
   4.060000     -1.9708691E-29
   4.070000     -2.0875966E-29
   4.080000     -2.2030720E-29
   4.090000     -2.3166819E-29
   4.100000     -2.4277775E-29
   4.110000     -2.5356767E-29
   4.120000     -2.6396624E-29
   4.130000     -2.7389844E-29
   4.140000     -2.8328594E-29
   4.150000     -2.9204708E-29
   4.160000     -3.0009714E-29
   4.170000     -3.0734833E-29
   4.180000     -3.1370988E-29
   4.190000     -3.1908828E-29
   4.200000     -3.2338738E-29
   4.210000     -3.2650859E-29
   4.220000     -3.2835104E-29
   4.230000     -3.2881194E-29
   4.240000     -3.2778669E-29
   4.250000     -3.2516917E-29
   4.260000     -3.2085216E-29
   4.270000     -3.1472753E-29
   4.280000     -3.0668653E-29
   4.290000     -2.9662036E-29
   4.300000     -2.8442037E-29
   4.310000     -2.6997848E-29
   4.320000     -2.5318784E-29
   4.330000     -2.3394285E-29
   4.340000     -2.1214015E-29
   4.350000     -1.8767880E-29
   4.360000     -1.6046093E-29
   4.370000     -1.3039223E-29
   4.380000     -9.7382714E-30
   4.390000     -6.1347226E-30
   4.400000     -2.2206095E-30
   4.410000      2.0114183E-30
   4.420000      6.5680064E-30
   4.430000      1.1455036E-29
   4.440000      1.6677547E-29
   4.450000      2.2239650E-29
   4.460000      2.8144436E-29
   4.470000      3.4393877E-29
   4.480000      4.0988764E-29
   4.490000      4.7928599E-29
   4.500000      5.5211494E-29
   4.510000      6.2834072E-29
   4.520000      7.0791377E-29
   4.530000      7.9076746E-29
   4.540000      8.7681740E-29
   4.550000      9.6596003E-29
   4.560000      1.0580715E-28
   4.570000      1.1530072E-28
   4.580000      1.2505998E-28
   4.590000      1.3506590E-28
   4.600000      1.4529699E-28
   4.610000      1.5572924E-28
   4.620000      1.6633595E-28
   4.630000      1.7708767E-28
   4.640000      1.8795214E-28
   4.650000      1.9889411E-28
   4.660000      2.0987530E-28
   4.670000      2.2085428E-28
   4.680000      2.3178642E-28
   4.690000      2.4262377E-28
   4.700000      2.5331504E-28
   4.710000      2.6380546E-28
   4.720000      2.7403679E-28
   4.730000      2.8394717E-28
   4.740000      2.9347118E-28
   4.750000      3.0253976E-28
   4.760000      3.1108022E-28
   4.770000      3.1901616E-28
   4.780000      3.2626748E-28
   4.790000      3.3275057E-28
   4.800000      3.3837804E-28
   4.810000      3.4305904E-28
   4.820000      3.4669922E-28
   4.830000      3.4920078E-28
   4.840000      3.5046268E-28
   4.850000      3.5038078E-28
   4.860000      3.4884788E-28
   4.870000      3.4575399E-28
   4.880000      3.4098659E-28
   4.890000      3.3443078E-28
   4.900000      3.2596964E-28
   4.910000      3.1548449E-28
   4.920000      3.0285532E-28
   4.930000      2.8796102E-28
   4.940000      2.7067990E-28
   4.950000      2.5089008E-28
   4.960000      2.2847008E-28
   4.970000      2.0329914E-28
   4.980000      1.7525806E-28
   4.990000      1.4422949E-28
   5.000000      1.1009885E-28
   5.010000      7.2754850E-29
   5.020000      3.2090263E-29
   5.030000     -1.1997240E-29
   5.040000     -5.9604390E-29
   5.050000     -1.1082138E-28
   5.060000     -1.6573101E-28
   5.070000     -2.2440772E-28
   5.080000     -2.8691667E-28
   5.090000     -3.5331257E-28
   5.100000     -4.2363882E-28
   5.110000     -4.9792632E-28
   5.120000     -5.7619221E-28
   5.130000     -6.5843876E-28
   5.140000     -7.4465239E-28
   5.150000     -8.3480194E-28
   5.160000     -9.2883817E-28
   5.170000     -1.0266915E-27
   5.180000     -1.1282715E-27
   5.190000     -1.2334649E-27
   5.200000     -1.3421351E-27
   5.210000     -1.4541200E-27
   5.220000     -1.5692310E-27
   5.230000     -1.6872518E-27
   5.240000     -1.8079367E-27
   5.250000     -1.9310094E-27
   5.260000     -2.0561623E-27
   5.270000     -2.1830543E-27
   5.280000     -2.3113106E-27
   5.290000     -2.4405209E-27
   5.300000     -2.5702381E-27
   5.310000     -2.6999779E-27
   5.320000     -2.8292181E-27
   5.330000     -2.9573966E-27
   5.340000     -3.0839117E-27
   5.350000     -3.2081213E-27
   5.360000     -3.3293420E-27
   5.370000     -3.4468488E-27
   5.380000     -3.5598758E-27
   5.390000     -3.6676146E-27
   5.400000     -3.7692167E-27
   5.410000     -3.8637906E-27
   5.420000     -3.9504051E-27
   5.430000     -4.0280886E-27
   5.440000     -4.0958309E-27
   5.450000     -4.1525827E-27
   5.460000     -4.1972592E-27
   5.470000     -4.2287405E-27
   5.480000     -4.2458740E-27
   5.490000     -4.2474756E-27
   5.500000     -4.2323339E-27
   5.510000     -4.1992110E-27
   5.520000     -4.1468480E-27
   5.530000     -4.0739658E-27
   5.540000     -3.9792717E-27
   5.550000     -3.8614618E-27
   5.560000     -3.7192249E-27
   5.570000     -3.5512503E-27
   5.580000     -3.3562288E-27
   5.590000     -3.1328617E-27
   5.600000     -2.8798663E-27
   5.610000     -2.5959814E-27
   5.620000     -2.2799729E-27
   5.630000     -1.9306437E-27
   5.640000     -1.5468397E-27
   5.650000     -1.1274572E-27
   5.660000     -6.7145097E-28
   5.670000     -1.7784495E-28
   5.680000      3.5426193E-28
   5.690000      9.2568340E-28
   5.700000      1.5371390E-27
   5.710000      2.1892437E-27
   5.720000      2.8824960E-27
   5.730000      3.6172693E-27
   5.740000      4.3938016E-27
   5.750000      5.2121847E-27
   5.760000      6.0723504E-27
   5.770000      6.9740635E-27
   5.780000      7.9169079E-27
   5.790000      8.9002785E-27
   5.800000      9.9233656E-27
   5.810000      1.0985146E-26
   5.820000      1.2084373E-26
   5.830000      1.3219562E-26
   5.840000      1.4388979E-26
   5.850000      1.5590637E-26
   5.860000      1.6822283E-26
   5.870000      1.8081381E-26
   5.880000      1.9365108E-26
   5.890000      2.0670345E-26
   5.900000      2.1993669E-26
   5.910000      2.3331338E-26
   5.920000      2.4679298E-26
   5.930000      2.6033159E-26
   5.940000      2.7388197E-26
   5.950000      2.8739352E-26
   5.960000      3.0081223E-26
   5.970000      3.1408059E-26
   5.980000      3.2713766E-26
   5.990000      3.3991896E-26
   6.000000      3.5235662E-26
   6.010000      3.6437923E-26
   6.020000      3.7591200E-26
   6.030000      3.8687677E-26
   6.040000      3.9719208E-26
   6.050000      4.0677332E-26
   6.060000      4.1553261E-26
   6.070000      4.2337928E-26
   6.080000      4.3021959E-26
   6.090000      4.3595732E-26
   6.100000      4.4049358E-26
   6.110000      4.4372723E-26
   6.120000      4.4555508E-26
   6.130000      4.4587207E-26
   6.140000      4.4457162E-26
   6.150000      4.4154576E-26
   6.160000      4.3668566E-26
   6.170000      4.2988180E-26
   6.180000      4.2102446E-26
   6.190000      4.1000405E-26
   6.200000      3.9671143E-26
   6.210000      3.8103858E-26
   6.220000      3.6287885E-26
   6.230000      3.4212753E-26
   6.240000      3.1868236E-26
   6.250000      2.9244408E-26
   6.260000      2.6331690E-26
   6.270000      2.3120926E-26
   6.280000      1.9603426E-26
   6.290000      1.5771030E-26
   6.300000      1.1616193E-26
   6.310000      7.1320321E-27
   6.320000      2.3123824E-27
   6.330000     -2.8480972E-27
   6.340000     -8.3538760E-27
   6.350000     -1.4208491E-26
   6.360000     -2.0414438E-26
   6.370000     -2.6973117E-26
   6.380000     -3.3884762E-26
   6.390000     -4.1148368E-26
   6.400000     -4.8761597E-26
   6.410000     -5.6720701E-26
   6.420000     -6.5020467E-26
   6.430000     -7.3654125E-26
   6.440000     -8.2613280E-26
   6.450000     -9.1887831E-26
   6.460000     -1.0146592E-25
   6.470000     -1.1133384E-25
   6.480000     -1.2147594E-25
   6.490000     -1.3187465E-25
   6.500000     -1.4251035E-25
   6.510000     -1.5336129E-25
   6.520000     -1.6440362E-25
   6.530000     -1.7561125E-25
   6.540000     -1.8695586E-25
   6.550000     -1.9840680E-25
   6.560000     -2.0993117E-25
   6.570000     -2.2149368E-25
   6.580000     -2.3305665E-25
   6.590000     -2.4458004E-25
   6.600000     -2.5602140E-25
   6.610000     -2.6733584E-25
   6.620000     -2.7847616E-25
   6.630000     -2.8939269E-25
   6.640000     -3.0003348E-25
   6.650000     -3.1034429E-25
   6.660000     -3.2026848E-25
   6.670000     -3.2974736E-25
   6.680000     -3.3872001E-25
   6.690000     -3.4712345E-25
   6.700000     -3.5489272E-25
   6.710000     -3.6196101E-25
   6.720000     -3.6825975E-25
   6.730000     -3.7371879E-25
   6.740000     -3.7826640E-25
   6.750000     -3.8182963E-25
   6.760000     -3.8433431E-25
   6.770000     -3.8570528E-25
   6.780000     -3.8586670E-25
   6.790000     -3.8474213E-25
   6.800000     -3.8225473E-25
   6.810000     -3.7832766E-25
   6.820000     -3.7288417E-25
   6.830000     -3.6584798E-25
   6.840000     -3.5714351E-25
   6.850000     -3.4669626E-25
   6.860000     -3.3443302E-25
   6.870000     -3.2028226E-25
   6.880000     -3.0417436E-25
   6.890000     -2.8604215E-25
   6.900000     -2.6582108E-25
   6.910000     -2.4344977E-25
   6.920000     -2.1887032E-25
   6.930000     -1.9202866E-25
   6.940000     -1.6287505E-25
   6.950000     -1.3136436E-25
   6.960000     -9.7456690E-26
   6.970000     -6.1117646E-26
   6.980000     -2.2318898E-26
   6.990000      1.8961432E-26
   7.000000      6.2738416E-26
   7.010000      1.0901974E-25
   7.020000      1.5780530E-25
   7.030000      2.0908684E-25
   7.040000      2.6284727E-25
   7.050000      3.1906041E-25
   7.060000      3.7769053E-25