  -2.600000      0.0000000E+00
  -2.590000      0.0000000E+00
  -2.580000      0.0000000E+00
  -2.570000      0.0000000E+00
  -2.560000      0.0000000E+00
  -2.550000      0.0000000E+00
  -2.540000      0.0000000E+00
  -2.530000      0.0000000E+00
  -2.520000      0.0000000E+00
  -2.510000      0.0000000E+00
  -2.500000      0.0000000E+00
  -2.490000      0.0000000E+00
  -2.480000      0.0000000E+00
  -2.470000      0.0000000E+00
  -2.460000      0.0000000E+00
  -2.450000      0.0000000E+00
  -2.440000      0.0000000E+00
  -2.430000      0.0000000E+00
  -2.420000      0.0000000E+00
  -2.410000      0.0000000E+00
  -2.400000      0.0000000E+00
  -2.390000      0.0000000E+00
  -2.380000      0.0000000E+00
  -2.370000      0.0000000E+00
  -2.360000      0.0000000E+00
  -2.350000      0.0000000E+00
  -2.340000      0.0000000E+00
  -2.330000      0.0000000E+00
  -2.320000      0.0000000E+00
  -2.310000      0.0000000E+00
  -2.300000      0.0000000E+00
  -2.290000      0.0000000E+00
  -2.280000      0.0000000E+00
  -2.270000      0.0000000E+00
  -2.260000      0.0000000E+00
  -2.250000      0.0000000E+00
  -2.240000      0.0000000E+00
  -2.230000      0.0000000E+00
  -2.220000      0.0000000E+00
  -2.210000      0.0000000E+00
  -2.200000      0.0000000E+00
  -2.190000      0.0000000E+00
  -2.180000      0.0000000E+00
  -2.170000      0.0000000E+00
  -2.160000      0.0000000E+00
  -2.150000      0.0000000E+00
  -2.140000      0.0000000E+00
  -2.130000      0.0000000E+00
  -2.120000      0.0000000E+00
  -2.110000      0.0000000E+00
  -2.100000      0.0000000E+00
  -2.090000      0.0000000E+00
  -2.080000      0.0000000E+00
  -2.070000      0.0000000E+00
  -2.060000      0.0000000E+00
  -2.050000      0.0000000E+00
  -2.040000      0.0000000E+00
  -2.030000      0.0000000E+00
  -2.020000      0.0000000E+00
  -2.010000      0.0000000E+00
  -2.000000      0.0000000E+00
  -1.990000      0.0000000E+00
  -1.980000      0.0000000E+00
  -1.970000      0.0000000E+00
  -1.960000      0.0000000E+00
  -1.950000      0.0000000E+00
  -1.940000      0.0000000E+00
  -1.930000      0.0000000E+00
  -1.920000      0.0000000E+00
  -1.910000      0.0000000E+00
  -1.900000      0.0000000E+00
  -1.890000      0.0000000E+00
  -1.880000      0.0000000E+00
  -1.870000      0.0000000E+00
  -1.860000      0.0000000E+00
  -1.850000      0.0000000E+00
  -1.840000      0.0000000E+00
  -1.830000      0.0000000E+00
  -1.820000      0.0000000E+00
  -1.810000      0.0000000E+00
  -1.800000      0.0000000E+00
  -1.790000      0.0000000E+00
  -1.780000      0.0000000E+00
  -1.770000      0.0000000E+00
  -1.760000      0.0000000E+00
  -1.750000      0.0000000E+00
  -1.740000      0.0000000E+00
  -1.730000      0.0000000E+00
  -1.720000      0.0000000E+00
  -1.710000      0.0000000E+00
  -1.700000      0.0000000E+00
  -1.690000      0.0000000E+00
  -1.680000      0.0000000E+00
  -1.670000      0.0000000E+00
  -1.660000      0.0000000E+00
  -1.650000      0.0000000E+00
  -1.640000      0.0000000E+00
  -1.630000      0.0000000E+00
  -1.620000      0.0000000E+00
  -1.610000      0.0000000E+00
  -1.600000      0.0000000E+00
  -1.590000      0.0000000E+00
  -1.580000      0.0000000E+00
  -1.570000      0.0000000E+00
  -1.560000      0.0000000E+00
  -1.550000      0.0000000E+00
  -1.540000      0.0000000E+00
  -1.530000      0.0000000E+00
  -1.520000      0.0000000E+00
  -1.510000      0.0000000E+00
  -1.500000      0.0000000E+00
  -1.490000      0.0000000E+00
  -1.480000      0.0000000E+00
  -1.470000      0.0000000E+00
  -1.460000      0.0000000E+00
  -1.450000      0.0000000E+00
  -1.440000      0.0000000E+00
  -1.430000      0.0000000E+00
  -1.420000      0.0000000E+00
  -1.410000      0.0000000E+00
  -1.400000      0.0000000E+00
  -1.390000      0.0000000E+00
  -1.380000      0.0000000E+00
  -1.370000      0.0000000E+00
  -1.360000      0.0000000E+00
  -1.350000      0.0000000E+00
  -1.340000      0.0000000E+00
  -1.330000      0.0000000E+00
  -1.320000      0.0000000E+00
  -1.310000      0.0000000E+00
  -1.300000      0.0000000E+00
  -1.290000      0.0000000E+00
  -1.280000      0.0000000E+00
  -1.270000      0.0000000E+00
  -1.260000      0.0000000E+00
  -1.250000      0.0000000E+00
  -1.240000      0.0000000E+00
  -1.230000      0.0000000E+00
  -1.220000      0.0000000E+00
  -1.210000      0.0000000E+00
  -1.200000      0.0000000E+00
  -1.190000      0.0000000E+00
  -1.180000      0.0000000E+00
  -1.170000      0.0000000E+00
  -1.160000      0.0000000E+00
  -1.150000      0.0000000E+00
  -1.140000      0.0000000E+00
  -1.130000      0.0000000E+00
  -1.120000      0.0000000E+00
  -1.110000      0.0000000E+00
  -1.100000      0.0000000E+00
  -1.090000      0.0000000E+00
  -1.080000      0.0000000E+00
  -1.070000      0.0000000E+00
  -1.060000      0.0000000E+00
  -1.050000      0.0000000E+00
  -1.040000      0.0000000E+00
  -1.030000      0.0000000E+00
  -1.020000      0.0000000E+00
  -1.010000      0.0000000E+00
  -1.000000      0.0000000E+00
 -0.9900000      0.0000000E+00
 -0.9800000      0.0000000E+00
 -0.9700000      0.0000000E+00
 -0.9600000      0.0000000E+00
 -0.9500000      0.0000000E+00
 -0.9400000      0.0000000E+00
 -0.9300000      0.0000000E+00
 -0.9200000      0.0000000E+00
 -0.9100000      0.0000000E+00
 -0.9000000      0.0000000E+00
 -0.8900000      0.0000000E+00
 -0.8800000      0.0000000E+00
 -0.8700000      0.0000000E+00
 -0.8600000      0.0000000E+00
 -0.8500000      0.0000000E+00
 -0.8400000      0.0000000E+00
 -0.8300000      0.0000000E+00
 -0.8200000      0.0000000E+00
 -0.8100000      0.0000000E+00
 -0.8000000      0.0000000E+00
 -0.7900000      0.0000000E+00
 -0.7800000      0.0000000E+00
 -0.7700000      0.0000000E+00
 -0.7600000      0.0000000E+00
 -0.7500000      0.0000000E+00
 -0.7400000      0.0000000E+00
 -0.7300000      0.0000000E+00
 -0.7200000      0.0000000E+00
 -0.7100000      0.0000000E+00
 -0.7000000      0.0000000E+00
 -0.6900000      0.0000000E+00
 -0.6800000      0.0000000E+00
 -0.6700000      0.0000000E+00
 -0.6600000      0.0000000E+00
 -0.6500000      0.0000000E+00
 -0.6400000      0.0000000E+00
 -0.6300000      0.0000000E+00
 -0.6200000      0.0000000E+00
 -0.6100000      0.0000000E+00
 -0.6000000      0.0000000E+00
 -0.5900000      0.0000000E+00
 -0.5800000      0.0000000E+00
 -0.5700000      0.0000000E+00
 -0.5600000      0.0000000E+00
 -0.5500000      0.0000000E+00
 -0.5400000      0.0000000E+00
 -0.5300000      0.0000000E+00
 -0.5200000      0.0000000E+00
 -0.5100000      0.0000000E+00
 -0.5000000      0.0000000E+00
 -0.4900000      0.0000000E+00
 -0.4800000      0.0000000E+00
 -0.4700000      0.0000000E+00
 -0.4600000      0.0000000E+00
 -0.4500000      0.0000000E+00
 -0.4400000      0.0000000E+00
 -0.4300000      0.0000000E+00
 -0.4200000      0.0000000E+00
 -0.4100000      0.0000000E+00
 -0.4000000      0.0000000E+00
 -0.3900000      0.0000000E+00
 -0.3800000      0.0000000E+00
 -0.3700000      0.0000000E+00
 -0.3600000      0.0000000E+00
 -0.3500000      0.0000000E+00
 -0.3400000      0.0000000E+00
 -0.3300000      0.0000000E+00
 -0.3200000      0.0000000E+00
 -0.3100000      0.0000000E+00
 -0.3000000      0.0000000E+00
 -0.2900000      0.0000000E+00
 -0.2800000      0.0000000E+00
 -0.2700000      0.0000000E+00
 -0.2600000      0.0000000E+00
 -0.2500000      0.0000000E+00
 -0.2400000      0.0000000E+00
 -0.2300000      0.0000000E+00
 -0.2200000      0.0000000E+00
 -0.2100000      0.0000000E+00
 -0.2000000      0.0000000E+00
 -0.1900000      0.0000000E+00
 -0.1800000      0.0000000E+00
 -0.1700000      0.0000000E+00
 -0.1600000      0.0000000E+00
 -0.1500000      0.0000000E+00
 -0.1400000      0.0000000E+00
 -0.1300000      0.0000000E+00
 -0.1200000      0.0000000E+00
 -0.1100000      0.0000000E+00
 -0.1000000      0.0000000E+00
 -9.0000004E-02  0.0000000E+00
 -7.9999998E-02  0.0000000E+00
 -7.0000000E-02  0.0000000E+00
 -5.9999999E-02  0.0000000E+00
 -5.0000001E-02  0.0000000E+00
 -3.9999999E-02  0.0000000E+00
 -2.9999999E-02  0.0000000E+00
 -2.0000000E-02  0.0000000E+00
 -9.9999998E-03  0.0000000E+00
 -3.4694470E-17  0.0000000E+00
  9.9999998E-03  0.0000000E+00
  2.0000000E-02  0.0000000E+00
  2.9999999E-02  0.0000000E+00
  3.9999999E-02  0.0000000E+00
  5.0000001E-02  0.0000000E+00
  5.9999999E-02  0.0000000E+00
  7.0000000E-02  0.0000000E+00
  7.9999998E-02  0.0000000E+00
  9.0000004E-02  0.0000000E+00
  0.1000000      0.0000000E+00
  0.1100000      0.0000000E+00
  0.1200000      0.0000000E+00
  0.1300000      0.0000000E+00
  0.1400000      0.0000000E+00
  0.1500000      0.0000000E+00
  0.1600000      0.0000000E+00
  0.1700000      0.0000000E+00
  0.1800000      0.0000000E+00
  0.1900000      0.0000000E+00
  0.2000000      0.0000000E+00
  0.2100000      0.0000000E+00
  0.2200000      0.0000000E+00
  0.2300000      0.0000000E+00
  0.2400000      0.0000000E+00
  0.2500000      0.0000000E+00
  0.2600000      0.0000000E+00
  0.2700000      0.0000000E+00
  0.2800000      0.0000000E+00
  0.2900000      0.0000000E+00
  0.3000000      0.0000000E+00
  0.3100000      0.0000000E+00
  0.3200000      0.0000000E+00
  0.3300000      0.0000000E+00
  0.3400000     -1.2145607E-38
  0.3500000     -1.6034397E-38
  0.3600000     -1.9272292E-38
  0.3700000     -2.1687183E-38
  0.3800000     -2.0045486E-38
  0.3900000     -1.6654273E-38
  0.4000000     -1.5118154E-38
  0.4100000     -1.1856992E-38
  0.4200000      0.0000000E+00
  0.4300000      0.0000000E+00
  0.4400000      0.0000000E+00
  0.4500000      0.0000000E+00
  0.4600000      0.0000000E+00
  0.4700000     -2.4428508E-38
  0.4800000     -5.8073990E-38
  0.4900000     -1.0905342E-37
  0.5000000     -1.7505462E-37
  0.5100000     -2.5193642E-37
  0.5200000     -3.4391355E-37
  0.5300000     -4.5114170E-37
  0.5400000     -5.7592838E-37
  0.5500000     -7.1981039E-37
  0.5600000     -8.8800772E-37
  0.5700000     -1.0774334E-36
  0.5800000     -1.2817601E-36
  0.5900000     -1.5046211E-36
  0.6000000     -1.7406557E-36
  0.6100000     -1.9883441E-36
  0.6200000     -2.2086299E-36
  0.6300000     -2.3838891E-36
  0.6400000     -2.5292387E-36
  0.6500000     -2.6312701E-36
  0.6600000     -2.6736219E-36
  0.6700000     -2.5990292E-36
  0.6800000     -2.3891248E-36
  0.6900000     -2.1553086E-36
  0.7000000     -1.9039509E-36
  0.7100000     -1.5571871E-36
  0.7200000     -1.1506233E-36
  0.7300000     -6.6509912E-37
  0.7400000     -6.9955157E-38
  0.7500000      6.4200325E-37
  0.7600000      1.4850872E-36
  0.7700000      2.3878696E-36
  0.7800000      3.5472450E-36
  0.7900000      5.0247863E-36
  0.8000000      6.7114701E-36
  0.8100000      8.6102751E-36
  0.8200000      1.0681244E-35
  0.8300000      1.2857113E-35
  0.8400000      1.5154345E-35
  0.8500000      1.7729840E-35
  0.8600000      2.0462728E-35
  0.8700000      2.3193545E-35
  0.8800000      2.5789172E-35
  0.8900000      2.8048862E-35
  0.9000000      3.0150348E-35
  0.9100000      3.2252049E-35
  0.9200000      3.4281740E-35
  0.9300000      3.5847802E-35
  0.9400000      3.6742977E-35
  0.9500000      3.6899256E-35
  0.9600000      3.6375925E-35
  0.9700000      3.5359427E-35
  0.9800000      3.3990475E-35
  0.9900000      3.2376699E-35
   1.000000      3.0281506E-35
   1.010000      2.7928971E-35
   1.020000      2.5290190E-35
   1.030000      2.1959446E-35
   1.040000      1.7859434E-35
   1.050000      1.2761446E-35
   1.060000      6.5794020E-36
   1.070000     -6.1648263E-37
   1.080000     -8.2742161E-36
   1.090000     -1.5880124E-35
   1.100000     -2.3850716E-35
   1.110000     -3.2452173E-35
   1.120000     -4.1008466E-35
   1.130000     -4.9706835E-35
   1.140000     -5.9197436E-35
   1.150000     -6.9347153E-35
   1.160000     -7.9938632E-35
   1.170000     -9.0557427E-35
   1.180000     -1.0096490E-34
   1.190000     -1.1104135E-34
   1.200000     -1.2127946E-34
   1.210000     -1.3215649E-34
   1.220000     -1.4338503E-34
   1.230000     -1.5416837E-34
   1.240000     -1.6436240E-34
   1.250000     -1.7417496E-34
   1.260000     -1.8350753E-34
   1.270000     -1.9222688E-34
   1.280000     -2.0075127E-34
   1.290000     -2.0921949E-34
   1.300000     -2.1733621E-34
   1.310000     -2.2511998E-34
   1.320000     -2.3161654E-34
   1.330000     -2.3630534E-34
   1.340000     -2.3989861E-34
   1.350000     -2.4241922E-34
   1.360000     -2.4450177E-34
   1.370000     -2.4599527E-34
   1.380000     -2.4581015E-34
   1.390000     -2.4284942E-34
   1.400000     -2.3523541E-34
   1.410000     -2.2131489E-34
   1.420000     -2.0271329E-34
   1.430000     -1.8215922E-34
   1.440000     -1.6027874E-34
   1.450000     -1.3450517E-34
   1.460000     -1.0410915E-34
   1.470000     -7.3846541E-35
   1.480000     -4.7292399E-35
   1.490000     -2.3177352E-35
   1.500000      2.5881462E-36
   1.510000      2.9090957E-35
   1.520000      5.7628048E-35
   1.530000      9.1450941E-35
   1.540000      1.3009050E-34
   1.550000      1.7284835E-34
   1.560000      2.1791402E-34
   1.570000      2.6890028E-34
   1.580000      3.2794456E-34
   1.590000      3.9103802E-34
   1.600000      4.5542375E-34
   1.610000      5.2236113E-34
   1.620000      5.9547467E-34
   1.630000      6.7267370E-34
   1.640000      7.5243954E-34
   1.650000      8.3390148E-34
   1.660000      9.1594410E-34
   1.670000      1.0020496E-33
   1.680000      1.0894987E-33
   1.690000      1.1758363E-33
   1.700000      1.2610836E-33
   1.710000      1.3457244E-33
   1.720000      1.4294705E-33
   1.730000      1.5138033E-33
   1.740000      1.6014720E-33
   1.750000      1.6886009E-33
   1.760000      1.7719793E-33
   1.770000      1.8520556E-33
   1.780000      1.9302837E-33
   1.790000      2.0051875E-33
   1.800000      2.0740465E-33
   1.810000      2.1370342E-33
   1.820000      2.1916132E-33
   1.830000      2.2349083E-33
   1.840000      2.2674353E-33
   1.850000      2.2874137E-33
   1.860000      2.2940893E-33
   1.870000      2.2854733E-33
   1.880000      2.2584055E-33
   1.890000      2.2101836E-33
   1.900000      2.1368562E-33
   1.910000      2.0329510E-33
   1.920000      1.8931891E-33
   1.930000      1.7150615E-33
   1.940000      1.4884906E-33
   1.950000      1.2058333E-33
   1.960000      8.6506558E-34
   1.970000      4.5916265E-34
   1.980000     -1.8470919E-35
   1.990000     -5.7279659E-34
   2.000000     -1.2079335E-33
   2.010000     -1.9285991E-33
   2.020000     -2.7383031E-33
   2.030000     -3.6399282E-33
   2.040000     -4.6351788E-33
   2.050000     -5.7235775E-33
   2.060000     -6.9030627E-33
   2.070000     -8.1706687E-33
   2.080000     -9.5203508E-33
   2.090000     -1.0944841E-32
   2.100000     -1.2436383E-32
   2.110000     -1.3985043E-32
   2.120000     -1.5579510E-32
   2.130000     -1.7207480E-32
   2.140000     -1.8855820E-32
   2.150000     -2.0509248E-32
   2.160000     -2.2151934E-32
   2.170000     -2.3767469E-32
   2.180000     -2.5337766E-32
   2.190000     -2.6844594E-32
   2.200000     -2.8269713E-32
   2.210000     -2.9592230E-32
   2.220000     -3.0789239E-32
   2.230000     -3.1838758E-32
   2.240000     -3.2714178E-32
   2.250000     -3.3390108E-32
   2.260000     -3.3839517E-32
   2.270000     -3.4030353E-32
   2.280000     -3.3932070E-32
   2.290000     -3.3506970E-32
   2.300000     -3.2715030E-32
   2.310000     -3.1516367E-32
   2.320000     -2.9867246E-32
   2.330000     -2.7721933E-32
   2.340000     -2.5033795E-32
   2.350000     -2.1754113E-32
   2.360000     -1.7833974E-32
   2.370000     -1.3226943E-32
   2.380000     -7.8867913E-33
   2.390000     -1.7706133E-33
   2.400000      5.1588101E-33
   2.410000      1.2933059E-32
   2.420000      2.1576263E-32
   2.430000      3.1104030E-32
   2.440000      4.1522019E-32
   2.450000      5.2824677E-32
   2.460000      6.4994558E-32
   2.470000      7.8001585E-32
   2.480000      9.1802623E-32
   2.490000      1.0634124E-31
   2.500000      1.2154789E-31
   2.510000      1.3734014E-31
   2.520000      1.5362342E-31
   2.530000      1.7029207E-31
   2.540000      1.8722941E-31
   2.550000      2.0430910E-31
   2.560000      2.2139634E-31
   2.570000      2.3834843E-31
   2.580000      2.5501612E-31
   2.590000      2.7124377E-31
   2.600000      2.8686976E-31
   2.610000      3.0172613E-31
   2.620000      3.1563937E-31
   2.630000      3.2843030E-31
   2.640000      3.3991182E-31
   2.650000      3.4988904E-31
   2.660000      3.5815834E-31
   2.670000      3.6450601E-31
   2.680000      3.6870737E-31
   2.690000      3.7052602E-31
   2.700000      3.6971338E-31
   2.710000      3.6600872E-31
   2.720000      3.5913986E-31
   2.730000      3.4882442E-31
   2.740000      3.3477193E-31
   2.750000      3.1668723E-31
   2.760000      2.9427344E-31
   2.770000      2.6723670E-31
   2.780000      2.3529304E-31
   2.790000      1.9817391E-31
   2.800000      1.5563265E-31
   2.810000      1.0745188E-31
   2.820000      5.3451156E-32
   2.830000     -6.5058932E-33
   2.840000     -7.2504844E-32
   2.850000     -1.4457340E-31
   2.860000     -2.2267610E-31
   2.870000     -3.0670968E-31
   2.880000     -3.9649942E-31
   2.890000     -4.9179693E-31
   2.900000     -5.9227936E-31
   2.910000     -6.9754982E-31
   2.920000     -8.0713900E-31
   2.930000     -9.2050809E-31
   2.940000     -1.0370530E-30
   2.950000     -1.1561074E-30
   2.960000     -1.2769488E-30
   2.970000     -1.3988032E-30
   2.980000     -1.5208497E-30
   2.990000     -1.6422233E-30
   3.000000     -1.7620183E-30
   3.010000     -1.8792920E-30
   3.020000     -1.9930627E-30
   3.030000     -2.1023107E-30
   3.040000     -2.2059758E-30
   3.050000     -2.3029535E-30
   3.060000     -2.3920926E-30
   3.070000     -2.4721893E-30
   3.080000     -2.5419838E-30
   3.090000     -2.6001559E-30
   3.100000     -2.6453225E-30
   3.110000     -2.6760368E-30
   3.120000     -2.6907897E-30
   3.130000     -2.6880144E-30
   3.140000     -2.6660944E-30
   3.150000     -2.6233758E-30
   3.160000     -2.5581819E-30
   3.170000     -2.4688351E-30
   3.180000     -2.3536794E-30
   3.190000     -2.2111088E-30
   3.200000     -2.0395984E-30
   3.210000     -1.8377376E-30
   3.220000     -1.6042648E-30
   3.230000     -1.3381034E-30
   3.240000     -1.0383960E-30
   3.250000     -7.0453757E-31
   3.260000     -3.3620723E-31
   3.270000      6.6606531E-32
   3.280000      5.0358324E-31
   3.290000      9.7405318E-31
   3.300000      1.4769871E-30
   3.310000      2.0109919E-30
   3.320000      2.5743110E-30
   3.330000      3.1648299E-30
   3.340000      3.7800885E-30
   3.350000      4.4172952E-30
   3.360000      5.0733456E-30
   3.370000      5.7448399E-30
   3.380000      6.4281004E-30
   3.390000      7.1191903E-30
   3.400000      7.8139243E-30
   3.410000      8.5078820E-30
   3.420000      9.1964058E-30
   3.430000      9.8746039E-30
   3.440000      1.0537341E-29
   3.450000      1.1179226E-29
   3.460000      1.1794591E-29
   3.470000      1.2377475E-29
   3.480000      1.2921594E-29
   3.490000      1.3420325E-29
   3.500000      1.3866684E-29
   3.510000      1.4253309E-29
   3.520000      1.4572459E-29
   3.530000      1.4816015E-29
   3.540000      1.4975502E-29
   3.550000      1.5042121E-29
   3.560000      1.5006802E-29
   3.570000      1.4860268E-29
   3.580000      1.4593126E-29
   3.590000      1.4195969E-29
   3.600000      1.3659499E-29
   3.610000      1.2974656E-29
   3.620000      1.2132767E-29
   3.630000      1.1125692E-29
   3.640000      9.9459815E-30
   3.650000      8.5870280E-30
   3.660000      7.0432146E-30
   3.670000      5.3100473E-30
   3.680000      3.3842802E-30
   3.690000      1.2640183E-30
   3.700000     -1.0511942E-30
   3.710000     -3.5603185E-30
   3.720000     -6.2607683E-30
   3.730000     -9.1484020E-30
   3.740000     -1.2217515E-29
   3.750000     -1.5460857E-29
   3.760000     -1.8869657E-29
   3.770000     -2.2433655E-29
   3.780000     -2.6141144E-29
   3.790000     -2.9978995E-29
   3.800000     -3.3932680E-29
   3.810000     -3.7986284E-29
   3.820000     -4.2122477E-29
   3.830000     -4.6322494E-29
   3.840000     -5.0566061E-29
   3.850000     -5.4831322E-29
   3.860000     -5.9094711E-29
   3.870000     -6.3330854E-29
   3.880000     -6.7512403E-29
   3.890000     -7.1609903E-29
   3.900000     -7.5591643E-29
   3.910000     -7.9423533E-29
   3.920000     -8.3068988E-29
   3.930000     -8.6488874E-29
   3.940000     -8.9641434E-29
   3.950000     -9.2482355E-29
   3.960000     -9.4964849E-29
   3.970000     -9.7039792E-29
   3.980000     -9.8655954E-29
   3.990000     -9.9760282E-29
   4.000000     -1.0029831E-28
   4.010000     -1.0021456E-28
   4.020000     -9.9452988E-29
   4.030000     -9.7957588E-29
   4.040000     -9.5672899E-29
   4.050000     -9.2544605E-29
   4.060000     -8.8520146E-29
   4.070000     -8.3549212E-29
   4.080000     -7.7584336E-29
   4.090000     -7.0581402E-29
   4.100000     -6.2500044E-29
   4.110000     -5.3304047E-29
   4.120000     -4.2961647E-29
   4.130000     -3.1445823E-29
   4.140000     -1.8734440E-29
   4.150000     -4.8104054E-30
   4.160000      1.0338222E-29
   4.170000      2.6718170E-29
   4.180000      4.4330899E-29
   4.190000      6.3172500E-29
   4.200000      8.3233595E-29
   4.210000      1.0449914E-28
   4.220000      1.2694819E-28
   4.230000      1.5055355E-28
   4.240000      1.7528133E-28
   4.250000      2.0109046E-28
   4.260000      2.2793198E-28
   4.270000      2.5574831E-28
   4.280000      2.8447235E-28
   4.290000      3.1402673E-28
   4.300000      3.4432276E-28
   4.310000      3.7525955E-28
   4.320000      4.0672313E-28
   4.330000      4.3858553E-28
   4.340000      4.7070407E-28
   4.350000      5.0292093E-28
   4.360000      5.3506253E-28
   4.370000      5.6693966E-28
   4.380000      5.9834714E-28
   4.390000      6.2906428E-28
   4.400000      6.5885558E-28
   4.410000      6.8747119E-28
   4.420000      7.1464818E-28
   4.430000      7.4011138E-28
   4.440000      7.6357513E-28
   4.450000      7.8474462E-28
   4.460000      8.0331727E-28
   4.470000      8.1898457E-28
   4.480000      8.3143330E-28
   4.490000      8.4034746E-28
   4.500000      8.4540939E-28
   4.510000      8.4630080E-28
   4.520000      8.4270413E-28
   4.530000      8.3430361E-28
   4.540000      8.2078560E-28
   4.550000      8.0183941E-28
   4.560000      7.7715765E-28
   4.570000      7.4643676E-28
   4.580000      7.0937739E-28
   4.590000      6.6568493E-28
   4.600000      6.1507024E-28
   4.610000      5.5725021E-28
   4.620000      4.9194876E-28
   4.630000      4.1889886E-28
   4.640000      3.3784377E-28
   4.650000      2.4853969E-28
   4.660000      1.5075847E-28
   4.670000      4.4290512E-29
   4.680000     -7.1051311E-29
   4.690000     -1.9542743E-28
   4.700000     -3.2896773E-28
   4.710000     -4.7176646E-28
   4.720000     -6.2387766E-28
   4.730000     -7.8531016E-28
   4.740000     -9.5602305E-28
   4.750000     -1.1359212E-27
   4.760000     -1.3248510E-27
   4.770000     -1.5225965E-27
   4.780000     -1.7288761E-27
   4.790000     -1.9433398E-27
   4.800000     -2.1655678E-27
   4.810000     -2.3950682E-27
   4.820000     -2.6312771E-27
   4.830000     -2.8735570E-27
   4.840000     -3.1211992E-27
   4.850000     -3.3734227E-27
   4.860000     -3.6293761E-27
   4.870000     -3.8881390E-27
   4.880000     -4.1487220E-27
   4.890000     -4.4100676E-27
   4.900000     -4.6710530E-27
   4.910000     -4.9304889E-27
   4.920000     -5.1871183E-27
   4.930000     -5.4396181E-27
   4.940000     -5.6865971E-27
   4.950000     -5.9265933E-27
   4.960000     -6.1580732E-27
   4.970000     -6.3794284E-27
   4.980000     -6.5889730E-27
   4.990000     -6.7849433E-27
   5.000000     -6.9654916E-27
   5.010000     -7.1286887E-27
   5.020000     -7.2725202E-27
   5.030000     -7.3948900E-27
   5.040000     -7.4936162E-27
   5.050000     -7.5664426E-27
   5.060000     -7.6110332E-27
   5.070000     -7.6249878E-27
   5.080000     -7.6058440E-27
   5.090000     -7.5510891E-27
   5.100000     -7.4581714E-27
   5.110000     -7.3245142E-27
   5.120000     -7.1475297E-27
   5.130000     -6.9246318E-27
   5.140000     -6.6532552E-27
   5.150000     -6.3308722E-27
   5.160000     -5.9550047E-27
   5.170000     -5.5232455E-27
   5.180000     -5.0332731E-27
   5.190000     -4.4828666E-27
   5.200000     -3.8699170E-27
   5.210000     -3.1924430E-27
   5.220000     -2.4486069E-27
   5.230000     -1.6367207E-27
   5.240000     -7.5525824E-28
   5.250000      1.9713362E-28
   5.260000      1.2216260E-27
   5.270000      2.3191977E-27
   5.280000      3.4906251E-27
   5.290000      4.7364684E-27
   5.300000      6.0570616E-27
   5.310000      7.4524938E-27
   5.320000      8.9225946E-27
   5.330000      1.0466915E-26
   5.340000      1.2084704E-26
   5.350000      1.3774884E-26
   5.360000      1.5536022E-26
   5.370000      1.7366304E-26
   5.380000      1.9263500E-26
   5.390000      2.1224936E-26
   5.400000      2.3247452E-26
   5.410000      2.5327379E-26
   5.420000      2.7460495E-26
   5.430000      2.9642000E-26
   5.440000      3.1866486E-26
   5.450000      3.4127907E-26
   5.460000      3.6419557E-26
   5.470000      3.8734050E-26
   5.480000      4.1063310E-26
   5.490000      4.3398551E-26
   5.500000      4.5730273E-26
   5.510000      4.8048276E-26
   5.520000      5.0341639E-26
   5.530000      5.2598749E-26
   5.540000      5.4807282E-26
   5.550000      5.6954272E-26
   5.560000      5.9026061E-26
   5.570000      6.1008352E-26
   5.580000      6.2886223E-26
   5.590000      6.4644137E-26
   5.600000      6.6265968E-26
   5.610000      6.7735018E-26
   5.620000      6.9034025E-26
   5.630000      7.0145173E-26
   5.640000      7.1050132E-26
   5.650000      7.1730044E-26
   5.660000      7.2165563E-26
   5.670000      7.2336881E-26
   5.680000      7.2223704E-26
   5.690000      7.1805343E-26
   5.700000      7.1060707E-26
   5.710000      6.9968357E-26
   5.720000      6.8506579E-26
   5.730000      6.6653403E-26
   5.740000      6.4386722E-26
   5.750000      6.1684350E-26
   5.760000      5.8524118E-26
   5.770000      5.4884011E-26
   5.780000      5.0742248E-26
   5.790000      4.6077470E-26
   5.800000      4.0868847E-26
   5.810000      3.5096246E-26
   5.820000      2.8740397E-26
   5.830000      2.1783041E-26
   5.840000      1.4207137E-26
   5.850000      5.9970250E-27
   5.860000     -2.8614057E-27
   5.870000     -1.2380538E-26
   5.880000     -2.2570844E-26
   5.890000     -3.3440717E-26
   5.900000     -4.4996284E-26
   5.910000     -5.7241282E-26
   5.920000     -7.0176869E-26
   5.930000     -8.3801458E-26
   5.940000     -9.8110594E-26
   5.950000     -1.1309676E-25
   5.960000     -1.2874920E-25
   5.970000     -1.4505387E-25
   5.980000     -1.6199319E-25
   5.990000     -1.7954586E-25
   6.000000     -1.9768680E-25
   6.010000     -2.1638684E-25
   6.020000     -2.3561256E-25
   6.030000     -2.5532620E-25
   6.040000     -2.7548529E-25
   6.050000     -2.9604266E-25
   6.060000     -3.1694600E-25
   6.070000     -3.3813781E-25
   6.080000     -3.5955518E-25
   6.090000     -3.8112949E-25
   6.100000     -4.0278629E-25
   6.110000     -4.2444513E-25
   6.120000     -4.4601949E-25
   6.130000     -4.6741646E-25
   6.140000     -4.8853683E-25
   6.150000     -5.0927480E-25
   6.160000     -5.2951810E-25
   6.170000     -5.4914807E-25
   6.180000     -5.6803966E-25
   6.190000     -5.8606138E-25
   6.200000     -6.0307553E-25
   6.210000     -6.1893844E-25
   6.220000     -6.3350052E-25
   6.230000     -6.4660680E-25
   6.240000     -6.5809691E-25
   6.250000     -6.6780552E-25
   6.260000     -6.7556278E-25
   6.270000     -6.8119461E-25
   6.280000     -6.8452315E-25
   6.290000     -6.8536728E-25
   6.300000     -6.8354290E-25
   6.310000     -6.7886372E-25
   6.320000     -6.7114136E-25
   6.330000     -6.6018645E-25
   6.340000     -6.4580877E-25
   6.350000     -6.2781796E-25
   6.360000     -6.0602444E-25
   6.370000     -5.8023979E-25
   6.380000     -5.5027762E-25
   6.390000     -5.1595467E-25
   6.400000     -4.7709124E-25
   6.410000     -4.3351259E-25
   6.420000     -3.8504952E-25
   6.430000     -3.3153975E-25
   6.440000     -2.7282917E-25
   6.450000     -2.0877288E-25
   6.460000     -1.3923651E-25
   6.470000     -6.4097784E-26
   6.480000      1.6752201E-26
   6.490000      1.0340720E-25
   6.500000      1.9594437E-25
   6.510000      2.9442266E-25
   6.520000      3.9888123E-25
   6.530000      5.0933776E-25
   6.540000      6.2578664E-25
   6.550000      7.4819734E-25
   6.560000      8.7651262E-25
   6.570000      1.0106477E-24
   6.580000      1.1504873E-24
   6.590000      1.2958854E-24
   6.600000      1.4466629E-24
   6.610000      1.6026065E-24
   6.620000      1.7634672E-24
   6.630000      1.9289586E-24
   6.640000      2.0987562E-24
   6.650000      2.2724961E-24
   6.660000      2.4497736E-24
   6.670000      2.6301423E-24
   6.680000      2.8131135E-24
   6.690000      2.9981538E-24
   6.700000      3.1846863E-24
   6.710000      3.3720877E-24
   6.720000      3.5596891E-24
   6.730000      3.7467745E-24
   6.740000      3.9325809E-24
   6.750000      4.1162971E-24
   6.760000      4.2970646E-24
   6.770000      4.4739757E-24
   6.780000      4.6460760E-24
   6.790000      4.8123627E-24
   6.800000      4.9717864E-24
   6.810000      5.1232504E-24
   6.820000      5.2656134E-24
   6.830000      5.3976892E-24
   6.840000      5.5182501E-24
   6.850000      5.6260282E-24
   6.860000      5.7197172E-24
   6.870000      5.7979754E-24
   6.880000      5.8594296E-24
   6.890000      5.9026770E-24
   6.900000      5.9262911E-24
   6.910000      5.9288246E-24
   6.920000      5.9088131E-24
   6.930000      5.8647836E-24
   6.940000      5.7952554E-24
   6.950000      5.6987489E-24
   6.960000      5.5737906E-24
   6.970000      5.4189187E-24
   6.980000      5.2326911E-24
   6.990000      5.0136903E-24
   7.000000      4.7605322E-24
   7.010000      4.4718738E-24
   7.020000      4.1464194E-24
   7.030000      3.7829296E-24
   7.040000      3.3802284E-24
   7.050000      2.9372125E-24
   7.060000      2.4528618E-24