  -2.600000      0.0000000E+00
  -2.590000      0.0000000E+00
  -2.580000      0.0000000E+00
  -2.570000      0.0000000E+00
  -2.560000      0.0000000E+00
  -2.550000      0.0000000E+00
  -2.540000      0.0000000E+00
  -2.530000      0.0000000E+00
  -2.520000      0.0000000E+00
  -2.510000      0.0000000E+00
  -2.500000      0.0000000E+00
  -2.490000      0.0000000E+00
  -2.480000      0.0000000E+00
  -2.470000      0.0000000E+00
  -2.460000      0.0000000E+00
  -2.450000      0.0000000E+00
  -2.440000      0.0000000E+00
  -2.430000      0.0000000E+00
  -2.420000      0.0000000E+00
  -2.410000      0.0000000E+00
  -2.400000      0.0000000E+00
  -2.390000      0.0000000E+00
  -2.380000      0.0000000E+00
  -2.370000      0.0000000E+00
  -2.360000      0.0000000E+00
  -2.350000      0.0000000E+00
  -2.340000      0.0000000E+00
  -2.330000      0.0000000E+00
  -2.320000      0.0000000E+00
  -2.310000      0.0000000E+00
  -2.300000      0.0000000E+00
  -2.290000      0.0000000E+00
  -2.280000      0.0000000E+00
  -2.270000      0.0000000E+00
  -2.260000      0.0000000E+00
  -2.250000      0.0000000E+00
  -2.240000      0.0000000E+00
  -2.230000      0.0000000E+00
  -2.220000      0.0000000E+00
  -2.210000      0.0000000E+00
  -2.200000      0.0000000E+00
  -2.190000      0.0000000E+00
  -2.180000      0.0000000E+00
  -2.170000      0.0000000E+00
  -2.160000      0.0000000E+00
  -2.150000      0.0000000E+00
  -2.140000      0.0000000E+00
  -2.130000      0.0000000E+00
  -2.120000      0.0000000E+00
  -2.110000      0.0000000E+00
  -2.100000      0.0000000E+00
  -2.090000      0.0000000E+00
  -2.080000      0.0000000E+00
  -2.070000      0.0000000E+00
  -2.060000      0.0000000E+00
  -2.050000      0.0000000E+00
  -2.040000      0.0000000E+00
  -2.030000      0.0000000E+00
  -2.020000      0.0000000E+00
  -2.010000      0.0000000E+00
  -2.000000      0.0000000E+00
  -1.990000      0.0000000E+00
  -1.980000      0.0000000E+00
  -1.970000      0.0000000E+00
  -1.960000      0.0000000E+00
  -1.950000      0.0000000E+00
  -1.940000      0.0000000E+00
  -1.930000      0.0000000E+00
  -1.920000      0.0000000E+00
  -1.910000      0.0000000E+00
  -1.900000      0.0000000E+00
  -1.890000      0.0000000E+00
  -1.880000      0.0000000E+00
  -1.870000      0.0000000E+00
  -1.860000      0.0000000E+00
  -1.850000      0.0000000E+00
  -1.840000      0.0000000E+00
  -1.830000      0.0000000E+00
  -1.820000      0.0000000E+00
  -1.810000      0.0000000E+00
  -1.800000      0.0000000E+00
  -1.790000      0.0000000E+00
  -1.780000      0.0000000E+00
  -1.770000      0.0000000E+00
  -1.760000      0.0000000E+00
  -1.750000      0.0000000E+00
  -1.740000      0.0000000E+00
  -1.730000      0.0000000E+00
  -1.720000      0.0000000E+00
  -1.710000      0.0000000E+00
  -1.700000      0.0000000E+00
  -1.690000      0.0000000E+00
  -1.680000      0.0000000E+00
  -1.670000      0.0000000E+00
  -1.660000      0.0000000E+00
  -1.650000      0.0000000E+00
  -1.640000      0.0000000E+00
  -1.630000      0.0000000E+00
  -1.620000      0.0000000E+00
  -1.610000      0.0000000E+00
  -1.600000      0.0000000E+00
  -1.590000      0.0000000E+00
  -1.580000      0.0000000E+00
  -1.570000      0.0000000E+00
  -1.560000      0.0000000E+00
  -1.550000      0.0000000E+00
  -1.540000      0.0000000E+00
  -1.530000      0.0000000E+00
  -1.520000      0.0000000E+00
  -1.510000      0.0000000E+00
  -1.500000      0.0000000E+00
  -1.490000      0.0000000E+00
  -1.480000      0.0000000E+00
  -1.470000      0.0000000E+00
  -1.460000      0.0000000E+00
  -1.450000      0.0000000E+00
  -1.440000      0.0000000E+00
  -1.430000      0.0000000E+00
  -1.420000      0.0000000E+00
  -1.410000      0.0000000E+00
  -1.400000      0.0000000E+00
  -1.390000      0.0000000E+00
  -1.380000      0.0000000E+00
  -1.370000      0.0000000E+00
  -1.360000      0.0000000E+00
  -1.350000      0.0000000E+00
  -1.340000      0.0000000E+00
  -1.330000      0.0000000E+00
  -1.320000      0.0000000E+00
  -1.310000      0.0000000E+00
  -1.300000      0.0000000E+00
  -1.290000      0.0000000E+00
  -1.280000      0.0000000E+00
  -1.270000      0.0000000E+00
  -1.260000      0.0000000E+00
  -1.250000      0.0000000E+00
  -1.240000      0.0000000E+00
  -1.230000      0.0000000E+00
  -1.220000      0.0000000E+00
  -1.210000      0.0000000E+00
  -1.200000      0.0000000E+00
  -1.190000      0.0000000E+00
  -1.180000      0.0000000E+00
  -1.170000      0.0000000E+00
  -1.160000      0.0000000E+00
  -1.150000      0.0000000E+00
  -1.140000      0.0000000E+00
  -1.130000      0.0000000E+00
  -1.120000      0.0000000E+00
  -1.110000      0.0000000E+00
  -1.100000      0.0000000E+00
  -1.090000      0.0000000E+00
  -1.080000      0.0000000E+00
  -1.070000      0.0000000E+00
  -1.060000      0.0000000E+00
  -1.050000      0.0000000E+00
  -1.040000      0.0000000E+00
  -1.030000      0.0000000E+00
  -1.020000      0.0000000E+00
  -1.010000      0.0000000E+00
  -1.000000      0.0000000E+00
 -0.9900000      0.0000000E+00
 -0.9800000      0.0000000E+00
 -0.9700000      0.0000000E+00
 -0.9600000      0.0000000E+00
 -0.9500000      0.0000000E+00
 -0.9400000      0.0000000E+00
 -0.9300000      0.0000000E+00
 -0.9200000      0.0000000E+00
 -0.9100000      0.0000000E+00
 -0.9000000      0.0000000E+00
 -0.8900000      0.0000000E+00
 -0.8800000      0.0000000E+00
 -0.8700000      0.0000000E+00
 -0.8600000      0.0000000E+00
 -0.8500000      0.0000000E+00
 -0.8400000      0.0000000E+00
 -0.8300000      0.0000000E+00
 -0.8200000      0.0000000E+00
 -0.8100000      0.0000000E+00
 -0.8000000      0.0000000E+00
 -0.7900000      0.0000000E+00
 -0.7800000      0.0000000E+00
 -0.7700000      0.0000000E+00
 -0.7600000      0.0000000E+00
 -0.7500000      0.0000000E+00
 -0.7400000      0.0000000E+00
 -0.7300000      0.0000000E+00
 -0.7200000      0.0000000E+00
 -0.7100000      0.0000000E+00
 -0.7000000      0.0000000E+00
 -0.6900000      0.0000000E+00
 -0.6800000      0.0000000E+00
 -0.6700000      0.0000000E+00
 -0.6600000      0.0000000E+00
 -0.6500000      0.0000000E+00
 -0.6400000      0.0000000E+00
 -0.6300000      0.0000000E+00
 -0.6200000      0.0000000E+00
 -0.6100000      0.0000000E+00
 -0.6000000      0.0000000E+00
 -0.5900000      0.0000000E+00
 -0.5800000      0.0000000E+00
 -0.5700000      0.0000000E+00
 -0.5600000      0.0000000E+00
 -0.5500000      0.0000000E+00
 -0.5400000      0.0000000E+00
 -0.5300000      0.0000000E+00
 -0.5200000      0.0000000E+00
 -0.5100000      0.0000000E+00
 -0.5000000      0.0000000E+00
 -0.4900000      0.0000000E+00
 -0.4800000      0.0000000E+00
 -0.4700000      0.0000000E+00
 -0.4600000      0.0000000E+00
 -0.4500000      0.0000000E+00
 -0.4400000      0.0000000E+00
 -0.4300000      0.0000000E+00
 -0.4200000      0.0000000E+00
 -0.4100000      0.0000000E+00
 -0.4000000      0.0000000E+00
 -0.3900000      0.0000000E+00
 -0.3800000      0.0000000E+00
 -0.3700000      0.0000000E+00
 -0.3600000      0.0000000E+00
 -0.3500000      0.0000000E+00
 -0.3400000      0.0000000E+00
 -0.3300000      0.0000000E+00
 -0.3200000      0.0000000E+00
 -0.3100000      0.0000000E+00
 -0.3000000      0.0000000E+00
 -0.2900000      0.0000000E+00
 -0.2800000      0.0000000E+00
 -0.2700000      0.0000000E+00
 -0.2600000      0.0000000E+00
 -0.2500000      0.0000000E+00
 -0.2400000      0.0000000E+00
 -0.2300000      0.0000000E+00
 -0.2200000      0.0000000E+00
 -0.2100000      0.0000000E+00
 -0.2000000      0.0000000E+00
 -0.1900000      0.0000000E+00
 -0.1800000      0.0000000E+00
 -0.1700000      0.0000000E+00
 -0.1600000      0.0000000E+00
 -0.1500000      0.0000000E+00
 -0.1400000      0.0000000E+00
 -0.1300000      0.0000000E+00
 -0.1200000      0.0000000E+00
 -0.1100000      0.0000000E+00
 -0.1000000      0.0000000E+00
 -9.0000004E-02  0.0000000E+00
 -7.9999998E-02  0.0000000E+00
 -7.0000000E-02  0.0000000E+00
 -5.9999999E-02  0.0000000E+00
 -5.0000001E-02  0.0000000E+00
 -3.9999999E-02  0.0000000E+00
 -2.9999999E-02  0.0000000E+00
 -2.0000000E-02  0.0000000E+00
 -9.9999998E-03  0.0000000E+00
 -3.4694470E-17  0.0000000E+00
  9.9999998E-03  0.0000000E+00
  2.0000000E-02  0.0000000E+00
  2.9999999E-02  0.0000000E+00
  3.9999999E-02  0.0000000E+00
  5.0000001E-02  0.0000000E+00
  5.9999999E-02  0.0000000E+00
  7.0000000E-02  0.0000000E+00
  7.9999998E-02  0.0000000E+00
  9.0000004E-02  0.0000000E+00
  0.1000000      0.0000000E+00
  0.1100000      0.0000000E+00
  0.1200000      0.0000000E+00
  0.1300000      0.0000000E+00
  0.1400000      0.0000000E+00
  0.1500000      0.0000000E+00
  0.1600000      0.0000000E+00
  0.1700000      0.0000000E+00
  0.1800000      0.0000000E+00
  0.1900000      0.0000000E+00
  0.2000000      0.0000000E+00
  0.2100000      0.0000000E+00
  0.2200000      0.0000000E+00
  0.2300000      0.0000000E+00
  0.2400000      0.0000000E+00
  0.2500000      0.0000000E+00
  0.2600000      0.0000000E+00
  0.2700000      0.0000000E+00
  0.2800000      0.0000000E+00
  0.2900000      0.0000000E+00
  0.3000000      0.0000000E+00
  0.3100000      0.0000000E+00
  0.3200000      0.0000000E+00
  0.3300000      1.1849952E-38
  0.3400000      1.6800420E-38
  0.3500000      2.3523320E-38
  0.3600000      3.1644610E-38
  0.3700000      4.1287732E-38
  0.3800000      5.1359338E-38
  0.3900000      6.3286159E-38
  0.4000000      7.8615826E-38
  0.4100000      9.5286715E-38
  0.4200000      1.1090074E-37
  0.4300000      1.2537480E-37
  0.4400000      1.3947559E-37
  0.4500000      1.5263407E-37
  0.4600000      1.6435164E-37
  0.4700000      1.5650760E-37
  0.4800000      1.2542667E-37
  0.4900000      8.2654906E-38
  0.5000000      2.4544785E-38
  0.5100000     -4.3235977E-38
  0.5200000     -1.1221419E-37
  0.5300000     -1.9124410E-37
  0.5400000     -2.9092306E-37
  0.5500000     -4.1826033E-37
  0.5600000     -5.5723667E-37
  0.5700000     -6.9506538E-37
  0.5800000     -8.4120202E-37
  0.5900000     -9.8340507E-37
  0.6000000     -1.1319091E-36
  0.6100000     -1.3017611E-36
  0.6200000     -1.4686200E-36
  0.6300000     -1.6336290E-36
  0.6400000     -1.8144242E-36
  0.6500000     -1.9552556E-36
  0.6600000     -2.0227984E-36
  0.6700000     -2.0416168E-36
  0.6800000     -2.0112447E-36
  0.6900000     -1.9206298E-36
  0.7000000     -1.7838093E-36
  0.7100000     -1.6178975E-36
  0.7200000     -1.4023594E-36
  0.7300000     -1.1186582E-36
  0.7400000     -7.5265646E-37
  0.7500000     -3.2285578E-37
  0.7600000      1.5859282E-37
  0.7700000      7.4592431E-37
  0.7800000      1.4286967E-36
  0.7900000      2.2096300E-36
  0.8000000      3.2623559E-36
  0.8100000      4.7580997E-36
  0.8200000      6.5722819E-36
  0.8300000      8.6084693E-36
  0.8400000      1.0746549E-35
  0.8500000      1.2903978E-35
  0.8600000      1.5190303E-35
  0.8700000      1.7554058E-35
  0.8800000      1.9936321E-35
  0.8900000      2.2179901E-35
  0.9000000      2.4084338E-35
  0.9100000      2.5665975E-35
  0.9200000      2.6966647E-35
  0.9300000      2.7816860E-35
  0.9400000      2.8131970E-35
  0.9500000      2.7982609E-35
  0.9600000      2.7409168E-35
  0.9700000      2.6321342E-35
  0.9800000      2.4162197E-35
  0.9900000      2.1193678E-35
   1.000000      1.7906051E-35
   1.010000      1.4144499E-35
   1.020000      1.0114681E-35
   1.030000      5.8485299E-36
   1.040000      1.1931401E-36
   1.050000     -4.2296244E-36
   1.060000     -1.0193162E-35
   1.070000     -1.6321570E-35
   1.080000     -2.2805035E-35
   1.090000     -2.9474433E-35
   1.100000     -3.6273715E-35
   1.110000     -4.3632089E-35
   1.120000     -5.1691945E-35
   1.130000     -6.0042598E-35
   1.140000     -6.8662203E-35
   1.150000     -7.7125361E-35
   1.160000     -8.4937485E-35
   1.170000     -9.2463691E-35
   1.180000     -9.9980880E-35
   1.190000     -1.0739771E-34
   1.200000     -1.1446136E-34
   1.210000     -1.2095625E-34
   1.220000     -1.2683007E-34
   1.230000     -1.3236942E-34
   1.240000     -1.3825128E-34
   1.250000     -1.4401010E-34
   1.260000     -1.4857182E-34
   1.270000     -1.5169786E-34
   1.280000     -1.5327432E-34
   1.290000     -1.5306563E-34
   1.300000     -1.5008724E-34
   1.310000     -1.4417372E-34
   1.320000     -1.3534826E-34
   1.330000     -1.2313350E-34
   1.340000     -1.0768234E-34
   1.350000     -8.9022167E-35
   1.360000     -6.7466511E-35
   1.370000     -4.3185203E-35
   1.380000     -1.6503948E-35
   1.390000      1.2055050E-35
   1.400000      4.2014145E-35
   1.410000      7.3698904E-35
   1.420000      1.0697381E-34
   1.430000      1.4151173E-34
   1.440000      1.7755892E-34
   1.450000      2.1487490E-34
   1.460000      2.5254605E-34
   1.470000      2.8972462E-34
   1.480000      3.2636939E-34
   1.490000      3.6197583E-34
   1.500000      3.9641449E-34
   1.510000      4.2966403E-34
   1.520000      4.6175259E-34
   1.530000      4.9305872E-34
   1.540000      5.2183294E-34
   1.550000      5.4623386E-34
   1.560000      5.6683293E-34
   1.570000      5.8009186E-34
   1.580000      5.8154479E-34
   1.590000      5.7283203E-34
   1.600000      5.5670159E-34
   1.610000      5.3366360E-34
   1.620000      5.0627913E-34
   1.630000      4.7466205E-34
   1.640000      4.3601326E-34
   1.650000      3.8943430E-34
   1.660000      3.3286409E-34
   1.670000      2.6602851E-34
   1.680000      1.9009070E-34
   1.690000      1.0939309E-34
   1.700000      2.3397324E-35
   1.710000     -7.2299285E-35
   1.720000     -1.7788870E-34
   1.730000     -2.9209969E-34
   1.740000     -4.1699014E-34
   1.750000     -5.5543233E-34
   1.760000     -7.0461519E-34
   1.770000     -8.6284500E-34
   1.780000     -1.0310233E-33
   1.790000     -1.2066722E-33
   1.800000     -1.3843285E-33
   1.810000     -1.5620195E-33
   1.820000     -1.7418007E-33
   1.830000     -1.9211481E-33
   1.840000     -2.0938822E-33
   1.850000     -2.2554750E-33
   1.860000     -2.4024019E-33
   1.870000     -2.5319467E-33
   1.880000     -2.6392432E-33
   1.890000     -2.7199194E-33
   1.900000     -2.7744493E-33
   1.910000     -2.7990216E-33
   1.920000     -2.7876237E-33
   1.930000     -2.7354112E-33
   1.940000     -2.6382889E-33
   1.950000     -2.4959569E-33
   1.960000     -2.3064790E-33
   1.970000     -2.0671852E-33
   1.980000     -1.7747487E-33
   1.990000     -1.4325737E-33
   2.000000     -1.0420865E-33
   2.010000     -5.9892043E-34
   2.020000     -1.0427657E-34
   2.030000      4.4217602E-34
   2.040000      1.0393047E-33
   2.050000      1.6838657E-33
   2.060000      2.3749798E-33
   2.070000      3.1120188E-33
   2.080000      3.8934889E-33
   2.090000      4.7164158E-33
   2.100000      5.5776630E-33
   2.110000      6.4735304E-33
   2.120000      7.3995731E-33
   2.130000      8.3512901E-33
   2.140000      9.3233159E-33
   2.150000      1.0308174E-32
   2.160000      1.1297335E-32
   2.170000      1.2281382E-32
   2.180000      1.3247632E-32
   2.190000      1.4184708E-32
   2.200000      1.5081399E-32
   2.210000      1.5921064E-32
   2.220000      1.6685809E-32
   2.230000      1.7357135E-32
   2.240000      1.7915320E-32
   2.250000      1.8340152E-32
   2.260000      1.8610869E-32
   2.270000      1.8705881E-32
   2.280000      1.8603929E-32
   2.290000      1.8284239E-32
   2.300000      1.7727159E-32
   2.310000      1.6914561E-32
   2.320000      1.5829702E-32
   2.330000      1.4457952E-32
   2.340000      1.2787310E-32
   2.350000      1.0808164E-32
   2.360000      8.5136155E-33
   2.370000      5.8998855E-33
   2.380000      2.9659280E-33
   2.390000     -2.8643083E-34
   2.400000     -3.8524069E-33
   2.410000     -7.7247038E-33
   2.420000     -1.1893197E-32
   2.430000     -1.6345187E-32
   2.440000     -2.1066024E-32
   2.450000     -2.6038622E-32
   2.460000     -3.1243588E-32
   2.470000     -3.6659669E-32
   2.480000     -4.2261755E-32
   2.490000     -4.8021965E-32
   2.500000     -5.3910163E-32
   2.510000     -5.9892401E-32
   2.520000     -6.5929164E-32
   2.530000     -7.1975878E-32
   2.540000     -7.7983171E-32
   2.550000     -8.3894556E-32
   2.560000     -8.9646626E-32
   2.570000     -9.5167946E-32
   2.580000     -1.0037879E-31
   2.590000     -1.0519080E-31
   2.600000     -1.0950696E-31
   2.610000     -1.1322175E-31
   2.620000     -1.1622160E-31
   2.630000     -1.1838572E-31
   2.640000     -1.1958700E-31
   2.650000     -1.1969358E-31
   2.660000     -1.1857094E-31
   2.670000     -1.1608312E-31
   2.680000     -1.1209535E-31
   2.690000     -1.0647661E-31
   2.700000     -9.9101709E-32
   2.710000     -8.9854089E-32
   2.720000     -7.8627912E-32
   2.730000     -6.5330573E-32
   2.740000     -4.9884736E-32
   2.750000     -3.2230051E-32
   2.760000     -1.2324642E-32
   2.770000      9.8537364E-33
   2.780000      3.4306900E-32
   2.790000      6.1015962E-32
   2.800000      8.9941181E-32
   2.810000      1.2102215E-31
   2.820000      1.5417811E-31
   2.830000      1.8930853E-31
   2.840000      2.2629343E-31
   2.850000      2.6499390E-31
   2.860000      3.0525204E-31
   2.870000      3.4689099E-31
   2.880000      3.8971416E-31
   2.890000      4.3350431E-31
   2.900000      4.7802197E-31
   2.910000      5.2300349E-31
   2.920000      5.6815846E-31
   2.930000      6.1316701E-31
   2.940000      6.5767649E-31
   2.950000      7.0129852E-31
   2.960000      7.4360569E-31
   2.970000      7.8412869E-31
   2.980000      8.2235403E-31
   2.990000      8.5772212E-31
   3.000000      8.8962701E-31
   3.010000      9.1741635E-31
   3.020000      9.4039322E-31
   3.030000      9.5781941E-31
   3.040000      9.6891984E-31
   3.050000      9.7288915E-31
   3.060000      9.6889896E-31
   3.070000      9.5610686E-31
   3.080000      9.3366714E-31
   3.090000      9.0074154E-31
   3.100000      8.5651136E-31
   3.110000      8.0018947E-31
   3.120000      7.3103288E-31
   3.130000      6.4835425E-31
   3.140000      5.5153372E-31
   3.150000      4.4002844E-31
   3.160000      3.1338219E-31
   3.170000      1.7123284E-31
   3.180000      1.3318399E-32
   3.190000     -1.6051857E-31
   3.200000     -3.5032741E-31
   3.210000     -5.5604753E-31
   3.220000     -7.7750798E-31
   3.230000     -1.0144265E-30
   3.240000     -1.2664099E-30
   3.250000     -1.5329535E-30
   3.260000     -1.8134400E-30
   3.270000     -2.1071378E-30
   3.280000     -2.4131961E-30
   3.290000     -2.7306407E-30
   3.300000     -3.0583651E-30
   3.310000     -3.3951207E-30
   3.320000     -3.7395044E-30
   3.330000     -4.0899455E-30
   3.340000     -4.4446875E-30
   3.350000     -4.8017752E-30
   3.360000     -5.1590352E-30
   3.370000     -5.5140597E-30
   3.380000     -5.8641926E-30
   3.390000     -6.2065169E-30
   3.400000     -6.5378453E-30
   3.410000     -6.8547164E-30
   3.420000     -7.1533936E-30
   3.430000     -7.4298736E-30
   3.440000     -7.6798977E-30
   3.450000     -7.8989730E-30
   3.460000     -8.0823960E-30
   3.470000     -8.2252887E-30
   3.480000     -8.3226362E-30
   3.490000     -8.3693287E-30
   3.500000     -8.3602144E-30
   3.510000     -8.2901459E-30
   3.520000     -8.1540353E-30
   3.530000     -7.9469098E-30
   3.540000     -7.6639621E-30
   3.550000     -7.3005993E-30
   3.560000     -6.8524911E-30
   3.570000     -6.3156133E-30
   3.580000     -5.6862845E-30
   3.590000     -4.9611955E-30
   3.600000     -4.1374399E-30
   3.610000     -3.2125343E-30
   3.620000     -2.1844351E-30
   3.630000     -1.0515552E-30
   3.640000      1.8722094E-31
   3.650000      1.5325229E-30
   3.660000      2.9844803E-30
   3.670000      4.5426977E-30
   3.680000      6.2062280E-30
   3.690000      7.9735411E-30
   3.700000      9.8424763E-30
   3.710000      1.1810193E-29
   3.720000      1.3873107E-29
   3.730000      1.6026816E-29
   3.740000      1.8266025E-29
   3.750000      2.0584458E-29
   3.760000      2.2974766E-29
   3.770000      2.5428435E-29
   3.780000      2.7935701E-29
   3.790000      3.0485452E-29
   3.800000      3.3065169E-29
   3.810000      3.5660862E-29
   3.820000      3.8257006E-29
   3.830000      4.0836540E-29
   3.840000      4.3380844E-29
   3.850000      4.5869771E-29
   3.860000      4.8281704E-29
   3.870000      5.0593596E-29
   3.880000      5.2781103E-29
   3.890000      5.4818683E-29
   3.900000      5.6679733E-29
   3.910000      5.8336767E-29
   3.920000      5.9761564E-29
   3.930000      6.0925343E-29
   3.940000      6.1798987E-29
   3.950000      6.2353156E-29
   3.960000      6.2558508E-29
   3.970000      6.2385848E-29
   3.980000      6.1806270E-29
   3.990000      6.0791299E-29
   4.000000      5.9313039E-29
   4.010000      5.7344245E-29
   4.020000      5.4858435E-29
   4.030000      5.1829989E-29
   4.040000      4.8234238E-29
   4.050000      4.4047541E-29
   4.060000      3.9247407E-29
   4.070000      3.3812607E-29
   4.080000      2.7723313E-29
   4.090000      2.0961286E-29
   4.100000      1.3510071E-29
   4.110000      5.3552566E-30
   4.120000     -3.5152299E-30
   4.130000     -1.3110786E-29
   4.140000     -2.3437761E-29
   4.150000     -3.4499033E-29
   4.160000     -4.6293563E-29
   4.170000     -5.8815908E-29
   4.180000     -7.2055726E-29
   4.190000     -8.5997316E-29
   4.200000     -1.0061911E-28
   4.210000     -1.1589326E-28
   4.220000     -1.3178513E-28
   4.230000     -1.4825301E-28
   4.240000     -1.6524774E-28
   4.250000     -1.8271252E-28
   4.260000     -2.0058269E-28
   4.270000     -2.1878569E-28
   4.280000     -2.3724103E-28
   4.290000     -2.5586025E-28
   4.300000     -2.7454728E-28
   4.310000     -2.9319845E-28
   4.320000     -3.1170283E-28
   4.330000     -3.2994245E-28
   4.340000     -3.4779266E-28
   4.350000     -3.6512247E-28
   4.360000     -3.8179481E-28
   4.370000     -3.9766688E-28
   4.380000     -4.1259038E-28
   4.390000     -4.2641177E-28
   4.400000     -4.3897249E-28
   4.410000     -4.5010909E-28
   4.420000     -4.5965342E-28
   4.430000     -4.6743273E-28
   4.440000     -4.7326979E-28
   4.450000     -4.7698284E-28
   4.460000     -4.7838626E-28
   4.470000     -4.7729027E-28
   4.480000     -4.7350163E-28
   4.490000     -4.6682380E-28
   4.500000     -4.5705784E-28
   4.510000     -4.4400293E-28
   4.520000     -4.2745721E-28
   4.530000     -4.0721916E-28
   4.540000     -3.8308868E-28
   4.550000     -3.5486870E-28
   4.560000     -3.2236675E-28
   4.570000     -2.8539679E-28
   4.580000     -2.4378118E-28
   4.590000     -1.9735293E-28
   4.600000     -1.4595756E-28
   4.610000     -8.9455576E-29
   4.620000     -2.7724273E-29
   4.630000      3.9339680E-29
   4.640000      1.1181843E-28
   4.650000      1.8977107E-28
   4.660000      2.7323166E-28
   4.670000      3.6220741E-28
   4.680000      4.5667742E-28
   4.690000      5.5659154E-28
   4.700000      6.6186865E-28
   4.710000      7.7239584E-28
   4.720000      8.8802771E-28
   4.730000      1.0085848E-27
   4.740000      1.1338536E-27
   4.750000      1.2635855E-27
   4.760000      1.3974950E-27
   4.770000      1.5352599E-27
   4.780000      1.6765195E-27
   4.790000      1.8208739E-27
   4.800000      1.9678819E-27
   4.810000      2.1170594E-27
   4.820000      2.2678784E-27
   4.830000      2.4197646E-27
   4.840000      2.5720948E-27
   4.850000      2.7241969E-27
   4.860000      2.8753452E-27
   4.870000      3.0247608E-27
   4.880000      3.1716085E-27
   4.890000      3.3149965E-27
   4.900000      3.4539747E-27
   4.910000      3.5875341E-27
   4.920000      3.7146073E-27
   4.930000      3.8340693E-27
   4.940000      3.9447363E-27
   4.950000      4.0453708E-27
   4.960000      4.1346835E-27
   4.970000      4.2113339E-27
   4.980000      4.2739375E-27
   4.990000      4.3210680E-27
   5.000000      4.3512632E-27
   5.010000      4.3630302E-27
   5.020000      4.3548504E-27
   5.030000      4.3251872E-27
   5.040000      4.2724899E-27
   5.050000      4.1952008E-27
   5.060000      4.0917626E-27
   5.070000      3.9606225E-27
   5.080000      3.8002400E-27
   5.090000      3.6090922E-27
   5.100000      3.3856789E-27
   5.110000      3.1285303E-27
   5.120000      2.8362113E-27
   5.130000      2.5073291E-27
   5.140000      2.1405379E-27
   5.150000      1.7345468E-27
   5.160000      1.2881276E-27
   5.170000      8.0012148E-28
   5.180000      2.6944944E-28
   5.190000     -3.0487936E-28
   5.200000     -9.2375573E-28
   5.210000     -1.5879585E-27
   5.220000     -2.2981421E-27
   5.230000     -3.0548226E-27
   5.240000     -3.8583630E-27
   5.250000     -4.7089550E-27
   5.260000     -5.6066043E-27
   5.270000     -6.5511123E-27
   5.280000     -7.5420595E-27
   5.290000     -8.5787838E-27
   5.300000     -9.6603675E-27
   5.310000     -1.0785618E-26
   5.320000     -1.1953053E-26
   5.330000     -1.3160876E-26
   5.340000     -1.4406974E-26
   5.350000     -1.5688895E-26
   5.360000     -1.7003837E-26
   5.370000     -1.8348638E-26
   5.380000     -1.9719766E-26
   5.390000     -2.1113309E-26
   5.400000     -2.2524973E-26
   5.410000     -2.3950065E-26
   5.420000     -2.5383501E-26
   5.430000     -2.6819792E-26
   5.440000     -2.8253041E-26
   5.450000     -2.9676941E-26
   5.460000     -3.1084774E-26
   5.470000     -3.2469407E-26
   5.480000     -3.3823283E-26
   5.490000     -3.5138429E-26
   5.500000     -3.6406436E-26
   5.510000     -3.7618481E-26
   5.520000     -3.8765303E-26
   5.530000     -3.9837205E-26
   5.540000     -4.0824070E-26
   5.550000     -4.1715350E-26
   5.560000     -4.2500069E-26
   5.570000     -4.3166829E-26
   5.580000     -4.3703837E-26
   5.590000     -4.4098899E-26
   5.600000     -4.4339443E-26
   5.610000     -4.4412548E-26
   5.620000     -4.4304968E-26
   5.630000     -4.4003164E-26
   5.640000     -4.3493331E-26
   5.650000     -4.2761469E-26
   5.660000     -4.1793404E-26
   5.670000     -4.0574857E-26
   5.680000     -3.9091497E-26
   5.690000     -3.7329009E-26
   5.700000     -3.5273154E-26
   5.710000     -3.2909844E-26
   5.720000     -3.0225212E-26
   5.730000     -2.7205699E-26
   5.740000     -2.3838129E-26
   5.750000     -2.0109776E-26
   5.760000     -1.6008454E-26
   5.770000     -1.1522625E-26
   5.780000     -6.6414508E-27
   5.790000     -1.3548970E-27
   5.800000      4.3461833E-27
   5.810000      1.0469945E-26
   5.820000      1.7023470E-26
   5.830000      2.4012673E-26
   5.840000      3.1442184E-26
   5.850000      3.9315253E-26
   5.860000      4.7633643E-26
   5.870000      5.6397533E-26
   5.880000      6.5605358E-26
   5.890000      7.5253725E-26
   5.900000      8.5337247E-26
   5.910000      9.5848430E-26
   5.920000      1.0677753E-25
   5.930000      1.1811240E-25
   5.940000      1.2983836E-25
   5.950000      1.4193807E-25
   5.960000      1.5439135E-25
   5.970000      1.6717502E-25
   5.980000      1.8026278E-25
   5.990000      1.9362505E-25
   6.000000      2.0722888E-25
   6.010000      2.2103781E-25
   6.020000      2.3501172E-25
   6.030000      2.4910674E-25
   6.040000      2.6327515E-25
   6.050000      2.7746538E-25
   6.060000      2.9162179E-25
   6.070000      3.0568473E-25
   6.080000      3.1959045E-25
   6.090000      3.3327113E-25
   6.100000      3.4665484E-25
   6.110000      3.5966555E-25
   6.120000      3.7222308E-25
   6.130000      3.8424332E-25
   6.140000      3.9563810E-25
   6.150000      4.0631531E-25
   6.160000      4.1617905E-25
   6.170000      4.2512966E-25
   6.180000      4.3306383E-25
   6.190000      4.3987481E-25
   6.200000      4.4545250E-25
   6.210000      4.4968350E-25
   6.220000      4.5245167E-25
   6.230000      4.5363791E-25
   6.240000      4.5312072E-25
   6.250000      4.5077637E-25
   6.260000      4.4647915E-25
   6.270000      4.4010190E-25
   6.280000      4.3151613E-25
   6.290000      4.2059273E-25
   6.300000      4.0720223E-25
   6.310000      3.9121533E-25
   6.320000      3.7250350E-25
   6.330000      3.5093961E-25
   6.340000      3.2639852E-25
   6.350000      2.9875762E-25
   6.360000      2.6789783E-25
   6.370000      2.3370409E-25
   6.380000      1.9606629E-25
   6.390000      1.5488014E-25
   6.400000      1.1004795E-25
   6.410000      6.1479542E-26
   6.420000      9.0931889E-27
   6.430000     -4.7183543E-26
   6.440000     -1.0741274E-25
   6.450000     -1.7164519E-25
   6.460000     -2.3991937E-25
   6.470000     -3.1226065E-25
   6.480000     -3.8868008E-25
   6.490000     -4.6917340E-25
   6.500000     -5.5372006E-25
   6.510000     -6.4228222E-25
   6.520000     -7.3480377E-25
   6.530000     -8.3120913E-25
   6.540000     -9.3140255E-25
   6.550000     -1.0352666E-24
   6.560000     -1.1426618E-24
   6.570000     -1.2534245E-24
   6.580000     -1.3673675E-24
   6.590000     -1.4842778E-24
   6.600000     -1.6039158E-24
   6.610000     -1.7260150E-24
   6.620000     -1.8502804E-24
   6.630000     -1.9763877E-24
   6.640000     -2.1039831E-24
   6.650000     -2.2326819E-24
   6.660000     -2.3620679E-24
   6.670000     -2.4916929E-24
   6.680000     -2.6210763E-24
   6.690000     -2.7497048E-24
   6.700000     -2.8770317E-24
   6.710000     -3.0024766E-24
   6.720000     -3.1254265E-24
   6.730000     -3.2452341E-24
   6.740000     -3.3612204E-24
   6.750000     -3.4726726E-24
   6.760000     -3.5788470E-24
   6.770000     -3.6789676E-24
   6.780000     -3.7722283E-24
   6.790000     -3.8577953E-24
   6.800000     -3.9348051E-24
   6.810000     -4.0023690E-24
   6.820000     -4.0595737E-24
   6.830000     -4.1054834E-24
   6.840000     -4.1391409E-24
   6.850000     -4.1595720E-24
   6.860000     -4.1657847E-24
   6.870000     -4.1567767E-24
   6.880000     -4.1315328E-24
   6.890000     -4.0890329E-24
   6.900000     -4.0282527E-24
   6.910000     -3.9481680E-24
   6.920000     -3.8477582E-24
   6.930000     -3.7260113E-24
   6.940000     -3.5819263E-24
   6.950000     -3.4145193E-24
   6.960000     -3.2228273E-24
   6.970000     -3.0059152E-24
   6.980000     -2.7628784E-24
   6.990000     -2.4928500E-24
   7.000000     -2.1950067E-24
   7.010000     -1.8685742E-24
   7.020000     -1.5128332E-24
   7.030000     -1.1271262E-24
   7.040000     -7.1086509E-25
   7.050000     -2.6353713E-25
   7.060000      2.1528759E-25