  -2.600000      0.0000000E+00
  -2.590000      0.0000000E+00
  -2.580000      0.0000000E+00
  -2.570000      0.0000000E+00
  -2.560000      0.0000000E+00
  -2.550000      0.0000000E+00
  -2.540000      0.0000000E+00
  -2.530000      0.0000000E+00
  -2.520000      0.0000000E+00
  -2.510000      0.0000000E+00
  -2.500000      0.0000000E+00
  -2.490000      0.0000000E+00
  -2.480000      0.0000000E+00
  -2.470000      0.0000000E+00
  -2.460000      0.0000000E+00
  -2.450000      0.0000000E+00
  -2.440000      0.0000000E+00
  -2.430000      0.0000000E+00
  -2.420000      0.0000000E+00
  -2.410000      0.0000000E+00
  -2.400000      0.0000000E+00
  -2.390000      0.0000000E+00
  -2.380000      0.0000000E+00
  -2.370000      0.0000000E+00
  -2.360000      0.0000000E+00
  -2.350000      0.0000000E+00
  -2.340000      0.0000000E+00
  -2.330000      0.0000000E+00
  -2.320000      0.0000000E+00
  -2.310000      0.0000000E+00
  -2.300000      0.0000000E+00
  -2.290000      0.0000000E+00
  -2.280000      0.0000000E+00
  -2.270000      0.0000000E+00
  -2.260000      0.0000000E+00
  -2.250000      0.0000000E+00
  -2.240000      0.0000000E+00
  -2.230000      0.0000000E+00
  -2.220000      0.0000000E+00
  -2.210000      0.0000000E+00
  -2.200000      0.0000000E+00
  -2.190000      0.0000000E+00
  -2.180000      0.0000000E+00
  -2.170000      0.0000000E+00
  -2.160000      0.0000000E+00
  -2.150000      0.0000000E+00
  -2.140000      0.0000000E+00
  -2.130000      0.0000000E+00
  -2.120000      0.0000000E+00
  -2.110000      0.0000000E+00
  -2.100000      0.0000000E+00
  -2.090000      0.0000000E+00
  -2.080000      0.0000000E+00
  -2.070000      0.0000000E+00
  -2.060000      0.0000000E+00
  -2.050000      0.0000000E+00
  -2.040000      0.0000000E+00
  -2.030000      0.0000000E+00
  -2.020000      0.0000000E+00
  -2.010000      0.0000000E+00
  -2.000000      0.0000000E+00
  -1.990000      0.0000000E+00
  -1.980000      0.0000000E+00
  -1.970000      0.0000000E+00
  -1.960000      0.0000000E+00
  -1.950000      0.0000000E+00
  -1.940000      0.0000000E+00
  -1.930000      0.0000000E+00
  -1.920000      0.0000000E+00
  -1.910000      0.0000000E+00
  -1.900000      0.0000000E+00
  -1.890000      0.0000000E+00
  -1.880000      0.0000000E+00
  -1.870000      0.0000000E+00
  -1.860000      0.0000000E+00
  -1.850000      0.0000000E+00
  -1.840000      0.0000000E+00
  -1.830000      0.0000000E+00
  -1.820000      0.0000000E+00
  -1.810000      0.0000000E+00
  -1.800000      0.0000000E+00
  -1.790000      0.0000000E+00
  -1.780000      0.0000000E+00
  -1.770000      0.0000000E+00
  -1.760000      0.0000000E+00
  -1.750000      0.0000000E+00
  -1.740000      0.0000000E+00
  -1.730000      0.0000000E+00
  -1.720000      0.0000000E+00
  -1.710000      0.0000000E+00
  -1.700000      0.0000000E+00
  -1.690000      0.0000000E+00
  -1.680000      0.0000000E+00
  -1.670000      0.0000000E+00
  -1.660000      0.0000000E+00
  -1.650000      0.0000000E+00
  -1.640000      0.0000000E+00
  -1.630000      0.0000000E+00
  -1.620000      0.0000000E+00
  -1.610000      0.0000000E+00
  -1.600000      0.0000000E+00
  -1.590000      0.0000000E+00
  -1.580000      0.0000000E+00
  -1.570000      0.0000000E+00
  -1.560000      0.0000000E+00
  -1.550000      0.0000000E+00
  -1.540000      0.0000000E+00
  -1.530000      0.0000000E+00
  -1.520000      0.0000000E+00
  -1.510000      0.0000000E+00
  -1.500000      0.0000000E+00
  -1.490000      0.0000000E+00
  -1.480000      0.0000000E+00
  -1.470000      0.0000000E+00
  -1.460000      0.0000000E+00
  -1.450000      0.0000000E+00
  -1.440000      0.0000000E+00
  -1.430000      0.0000000E+00
  -1.420000      0.0000000E+00
  -1.410000      0.0000000E+00
  -1.400000      0.0000000E+00
  -1.390000      0.0000000E+00
  -1.380000      0.0000000E+00
  -1.370000      0.0000000E+00
  -1.360000      0.0000000E+00
  -1.350000      0.0000000E+00
  -1.340000      0.0000000E+00
  -1.330000      0.0000000E+00
  -1.320000      0.0000000E+00
  -1.310000      0.0000000E+00
  -1.300000      0.0000000E+00
  -1.290000      0.0000000E+00
  -1.280000      0.0000000E+00
  -1.270000      0.0000000E+00
  -1.260000      0.0000000E+00
  -1.250000      0.0000000E+00
  -1.240000      0.0000000E+00
  -1.230000      0.0000000E+00
  -1.220000      0.0000000E+00
  -1.210000      0.0000000E+00
  -1.200000      0.0000000E+00
  -1.190000      0.0000000E+00
  -1.180000      0.0000000E+00
  -1.170000      0.0000000E+00
  -1.160000      0.0000000E+00
  -1.150000      0.0000000E+00
  -1.140000      0.0000000E+00
  -1.130000      0.0000000E+00
  -1.120000      0.0000000E+00
  -1.110000      0.0000000E+00
  -1.100000      0.0000000E+00
  -1.090000      0.0000000E+00
  -1.080000      0.0000000E+00
  -1.070000      0.0000000E+00
  -1.060000      0.0000000E+00
  -1.050000      0.0000000E+00
  -1.040000      0.0000000E+00
  -1.030000      0.0000000E+00
  -1.020000      0.0000000E+00
  -1.010000      0.0000000E+00
  -1.000000      0.0000000E+00
 -0.9900000      0.0000000E+00
 -0.9800000      0.0000000E+00
 -0.9700000      0.0000000E+00
 -0.9600000      0.0000000E+00
 -0.9500000      0.0000000E+00
 -0.9400000      0.0000000E+00
 -0.9300000      0.0000000E+00
 -0.9200000      0.0000000E+00
 -0.9100000      0.0000000E+00
 -0.9000000      0.0000000E+00
 -0.8900000      0.0000000E+00
 -0.8800000      0.0000000E+00
 -0.8700000      0.0000000E+00
 -0.8600000      0.0000000E+00
 -0.8500000      0.0000000E+00
 -0.8400000      0.0000000E+00
 -0.8300000      0.0000000E+00
 -0.8200000      0.0000000E+00
 -0.8100000      0.0000000E+00
 -0.8000000      0.0000000E+00
 -0.7900000      0.0000000E+00
 -0.7800000      0.0000000E+00
 -0.7700000      0.0000000E+00
 -0.7600000      0.0000000E+00
 -0.7500000      0.0000000E+00
 -0.7400000      0.0000000E+00
 -0.7300000      0.0000000E+00
 -0.7200000      0.0000000E+00
 -0.7100000      0.0000000E+00
 -0.7000000      0.0000000E+00
 -0.6900000      0.0000000E+00
 -0.6800000      0.0000000E+00
 -0.6700000      0.0000000E+00
 -0.6600000      0.0000000E+00
 -0.6500000      0.0000000E+00
 -0.6400000      0.0000000E+00
 -0.6300000      0.0000000E+00
 -0.6200000      0.0000000E+00
 -0.6100000      0.0000000E+00
 -0.6000000      0.0000000E+00
 -0.5900000      0.0000000E+00
 -0.5800000      0.0000000E+00
 -0.5700000      0.0000000E+00
 -0.5600000      0.0000000E+00
 -0.5500000      0.0000000E+00
 -0.5400000      0.0000000E+00
 -0.5300000      0.0000000E+00
 -0.5200000      0.0000000E+00
 -0.5100000      0.0000000E+00
 -0.5000000      0.0000000E+00
 -0.4900000      0.0000000E+00
 -0.4800000      0.0000000E+00
 -0.4700000      0.0000000E+00
 -0.4600000      0.0000000E+00
 -0.4500000      0.0000000E+00
 -0.4400000      0.0000000E+00
 -0.4300000      0.0000000E+00
 -0.4200000      0.0000000E+00
 -0.4100000      0.0000000E+00
 -0.4000000      0.0000000E+00
 -0.3900000      0.0000000E+00
 -0.3800000      0.0000000E+00
 -0.3700000      0.0000000E+00
 -0.3600000      0.0000000E+00
 -0.3500000      0.0000000E+00
 -0.3400000      0.0000000E+00
 -0.3300000      0.0000000E+00
 -0.3200000      0.0000000E+00
 -0.3100000      0.0000000E+00
 -0.3000000      0.0000000E+00
 -0.2900000      0.0000000E+00
 -0.2800000      0.0000000E+00
 -0.2700000      0.0000000E+00
 -0.2600000      0.0000000E+00
 -0.2500000      0.0000000E+00
 -0.2400000      0.0000000E+00
 -0.2300000      0.0000000E+00
 -0.2200000      0.0000000E+00
 -0.2100000      0.0000000E+00
 -0.2000000      0.0000000E+00
 -0.1900000      0.0000000E+00
 -0.1800000      0.0000000E+00
 -0.1700000      0.0000000E+00
 -0.1600000      0.0000000E+00
 -0.1500000      0.0000000E+00
 -0.1400000      0.0000000E+00
 -0.1300000      0.0000000E+00
 -0.1200000      0.0000000E+00
 -0.1100000      0.0000000E+00
 -0.1000000      0.0000000E+00
 -9.0000004E-02  0.0000000E+00
 -7.9999998E-02  0.0000000E+00
 -7.0000000E-02  0.0000000E+00
 -5.9999999E-02  0.0000000E+00
 -5.0000001E-02  0.0000000E+00
 -3.9999999E-02  0.0000000E+00
 -2.9999999E-02  0.0000000E+00
 -2.0000000E-02  0.0000000E+00
 -9.9999998E-03  0.0000000E+00
 -3.4694470E-17  0.0000000E+00
  9.9999998E-03  0.0000000E+00
  2.0000000E-02  0.0000000E+00
  2.9999999E-02  0.0000000E+00
  3.9999999E-02  0.0000000E+00
  5.0000001E-02  0.0000000E+00
  5.9999999E-02  0.0000000E+00
  7.0000000E-02  0.0000000E+00
  7.9999998E-02  0.0000000E+00
  9.0000004E-02  0.0000000E+00
  0.1000000      0.0000000E+00
  0.1100000      0.0000000E+00
  0.1200000      0.0000000E+00
  0.1300000      0.0000000E+00
  0.1400000      0.0000000E+00
  0.1500000      0.0000000E+00
  0.1600000      0.0000000E+00
  0.1700000      0.0000000E+00
  0.1800000      0.0000000E+00
  0.1900000      0.0000000E+00
  0.2000000      0.0000000E+00
  0.2100000      0.0000000E+00
  0.2200000      0.0000000E+00
  0.2300000      0.0000000E+00
  0.2400000      0.0000000E+00
  0.2500000      0.0000000E+00
  0.2600000      0.0000000E+00
  0.2700000      0.0000000E+00
  0.2800000      0.0000000E+00
  0.2900000      0.0000000E+00
  0.3000000      0.0000000E+00
  0.3100000      0.0000000E+00
  0.3200000      0.0000000E+00
  0.3300000      0.0000000E+00
  0.3400000      0.0000000E+00
  0.3500000      0.0000000E+00
  0.3600000      0.0000000E+00
  0.3700000      0.0000000E+00
  0.3800000      0.0000000E+00
  0.3900000      0.0000000E+00
  0.4000000      0.0000000E+00
  0.4100000      0.0000000E+00
  0.4200000      0.0000000E+00
  0.4300000      0.0000000E+00
  0.4400000      0.0000000E+00
  0.4500000      0.0000000E+00
  0.4600000      0.0000000E+00
  0.4700000      0.0000000E+00
  0.4800000      0.0000000E+00
  0.4900000      0.0000000E+00
  0.5000000      1.3997671E-38
  0.5100000      0.0000000E+00
  0.5200000      0.0000000E+00
  0.5300000     -1.4688817E-38
  0.5400000     -3.3866374E-38
  0.5500000     -5.6799604E-38
  0.5600000     -8.2227527E-38
  0.5700000     -1.1355049E-37
  0.5800000     -1.4672643E-37
  0.5900000     -1.7196710E-37
  0.6000000     -1.8074983E-37
  0.6100000     -1.7336916E-37
  0.6200000     -1.5698941E-37
  0.6300000     -1.2891986E-37
  0.6400000     -7.5255036E-38
  0.6500000      0.0000000E+00
  0.6600000      9.6853882E-38
  0.6700000      2.1124420E-37
  0.6800000      3.3205993E-37
  0.6900000      4.3668290E-37
  0.7000000      5.2567647E-37
  0.7100000      6.2320478E-37
  0.7200000      7.1559080E-37
  0.7300000      7.8602997E-37
  0.7400000      8.2653624E-37
  0.7500000      8.3518393E-37
  0.7600000      7.9947678E-37
  0.7700000      7.0739569E-37
  0.7800000      5.7053264E-37
  0.7900000      3.5303358E-37
  0.8000000     -1.1980481E-38
  0.8100000     -4.7813443E-37
  0.8200000     -9.8262393E-37
  0.8300000     -1.5534245E-36
  0.8400000     -2.1593691E-36
  0.8500000     -2.7702776E-36
  0.8600000     -3.4020703E-36
  0.8700000     -4.0246626E-36
  0.8800000     -4.6391228E-36
  0.8900000     -5.1517098E-36
  0.9000000     -5.3759294E-36
  0.9100000     -5.3703712E-36
  0.9200000     -5.3008984E-36
  0.9300000     -5.2124332E-36
  0.9400000     -5.0213985E-36
  0.9500000     -4.6131205E-36
  0.9600000     -3.9060008E-36
  0.9700000     -2.9263623E-36
  0.9800000     -1.9912771E-36
  0.9900000     -1.0579785E-36
   1.000000      1.5334332E-37
   1.010000      1.6980923E-36
   1.020000      3.4176490E-36
   1.030000      5.0980854E-36
   1.040000      6.8399063E-36
   1.050000      8.7580872E-36
   1.060000      1.1247806E-35
   1.070000      1.4094609E-35
   1.080000      1.6915737E-35
   1.090000      2.0067541E-35
   1.100000      2.3922943E-35
   1.110000      2.8518357E-35
   1.120000      3.3315631E-35
   1.130000      3.8143150E-35
   1.140000      4.3224474E-35
   1.150000      4.8405612E-35
   1.160000      5.3497155E-35
   1.170000      5.7462606E-35
   1.180000      6.0148749E-35
   1.190000      6.1759939E-35
   1.200000      6.1856677E-35
   1.210000      6.0404734E-35
   1.220000      5.7193247E-35
   1.230000      5.2293944E-35
   1.240000      4.5757309E-35
   1.250000      3.6847096E-35
   1.260000      2.4705691E-35
   1.270000      9.6275821E-36
   1.280000     -8.0199164E-36
   1.290000     -2.8285623E-35
   1.300000     -5.1368409E-35
   1.310000     -7.7720415E-35
   1.320000     -1.0736088E-34
   1.330000     -1.3925417E-34
   1.340000     -1.7264519E-34
   1.350000     -2.0763996E-34
   1.360000     -2.4584629E-34
   1.370000     -2.8649846E-34
   1.380000     -3.2708700E-34
   1.390000     -3.6649352E-34
   1.400000     -4.0504794E-34
   1.410000     -4.4062125E-34
   1.420000     -4.7191401E-34
   1.430000     -5.0097590E-34
   1.440000     -5.2756600E-34
   1.450000     -5.4997762E-34
   1.460000     -5.6064785E-34
   1.470000     -5.5724548E-34
   1.480000     -5.4307169E-34
   1.490000     -5.2060308E-34
   1.500000     -4.9101079E-34
   1.510000     -4.5390934E-34
   1.520000     -4.0515162E-34
   1.530000     -3.4201224E-34
   1.540000     -2.6608081E-34
   1.550000     -1.7870922E-34
   1.560000     -7.5954068E-35
   1.570000      4.8256798E-35
   1.580000      1.8849914E-34
   1.590000      3.4330046E-34
   1.600000      5.1661420E-34
   1.610000      7.0424441E-34
   1.620000      9.0289207E-34
   1.630000      1.1129174E-33
   1.640000      1.3342283E-33
   1.650000      1.5661372E-33
   1.660000      1.8071405E-33
   1.670000      2.0536856E-33
   1.680000      2.3070629E-33
   1.690000      2.5655886E-33
   1.700000      2.8216783E-33
   1.710000      3.0730008E-33
   1.720000      3.3164244E-33
   1.730000      3.5488681E-33
   1.740000      3.7650555E-33
   1.750000      3.9594646E-33
   1.760000      4.1278285E-33
   1.770000      4.2634343E-33
   1.780000      4.3587536E-33
   1.790000      4.4095666E-33
   1.800000      4.4086930E-33
   1.810000      4.3560228E-33
   1.820000      4.2414720E-33
   1.830000      4.0492812E-33
   1.840000      3.7794436E-33
   1.850000      3.4277970E-33
   1.860000      2.9899176E-33
   1.870000      2.4604853E-33
   1.880000      1.8336118E-33
   1.890000      1.1069339E-33
   1.900000      2.7801853E-34
   1.910000     -6.5432731E-34
   1.920000     -1.6904659E-33
   1.930000     -2.8302543E-33
   1.940000     -4.0718540E-33
   1.950000     -5.4104512E-33
   1.960000     -6.8397527E-33
   1.970000     -8.3534015E-33
   1.980000     -9.9428440E-33
   1.990000     -1.1597130E-32
   2.000000     -1.3303687E-32
   2.010000     -1.5048395E-32
   2.020000     -1.6815141E-32
   2.030000     -1.8586444E-32
   2.040000     -2.0341705E-32
   2.050000     -2.2059296E-32
   2.060000     -2.3715622E-32
   2.070000     -2.5286779E-32
   2.080000     -2.6747657E-32
   2.090000     -2.8069818E-32
   2.100000     -2.9224726E-32
   2.110000     -3.0182839E-32
   2.120000     -3.0913773E-32
   2.130000     -3.1387207E-32
   2.140000     -3.1572753E-32
   2.150000     -3.1438943E-32
   2.160000     -3.0955083E-32
   2.170000     -3.0092047E-32
   2.180000     -2.8821679E-32
   2.190000     -2.7117132E-32
   2.200000     -2.4953312E-32
   2.210000     -2.2307816E-32
   2.220000     -1.9160891E-32
   2.230000     -1.5495754E-32
   2.240000     -1.1299446E-32
   2.250000     -6.5630987E-33
   2.260000     -1.2820521E-33
   2.270000      4.5426656E-33
   2.280000      1.0904551E-32
   2.290000      1.7791877E-32
   2.300000      2.5186271E-32
   2.310000      3.3062659E-32
   2.320000      4.1388997E-32
   2.330000      5.0125924E-32
   2.340000      5.9226448E-32
   2.350000      6.8635293E-32
   2.360000      7.8290422E-32
   2.370000      8.8121704E-32
   2.380000      9.8050006E-32
   2.390000      1.0798899E-31
   2.400000      1.1784457E-31
   2.410000      1.2751532E-31
   2.420000      1.3689281E-31
   2.430000      1.4586200E-31
   2.440000      1.5430218E-31
   2.450000      1.6208695E-31
   2.460000      1.6908545E-31
   2.470000      1.7516354E-31
   2.480000      1.8018429E-31
   2.490000      1.8400917E-31
   2.500000      1.8649927E-31
   2.510000      1.8751655E-31
   2.520000      1.8692483E-31
   2.530000      1.8459170E-31
   2.540000      1.8038978E-31
   2.550000      1.7419750E-31
   2.560000      1.6590161E-31
   2.570000      1.5539833E-31
   2.580000      1.4259456E-31
   2.590000      1.2740974E-31
   2.600000      1.0977743E-31
   2.610000      8.9646849E-32
   2.620000      6.6984294E-32
   2.630000      4.1774736E-32
   2.640000      1.4023251E-32
   2.650000     -1.6243586E-32
   2.660000     -4.8976428E-32
   2.670000     -8.4101707E-32
   2.680000     -1.2152056E-31
   2.690000     -1.6110797E-31
   2.700000     -2.0271156E-31
   2.710000     -2.4615099E-31
   2.720000     -2.9121718E-31
   2.730000     -3.3767197E-31
   2.740000     -3.8524784E-31
   2.750000     -4.3364781E-31
   2.760000     -4.8254565E-31
   2.770000     -5.3158643E-31
   2.780000     -5.8038736E-31
   2.790000     -6.2853810E-31
   2.800000     -6.7560264E-31
   2.810000     -7.2112121E-31
   2.820000     -7.6461149E-31
   2.830000     -8.0557126E-31
   2.840000     -8.4348096E-31
   2.850000     -8.7780633E-31
   2.860000     -9.0800187E-31
   2.870000     -9.3351423E-31
   2.880000     -9.5378605E-31
   2.890000     -9.6825987E-31
   2.900000     -9.7638272E-31
   2.910000     -9.7761013E-31
   2.920000     -9.7141151E-31
   2.930000     -9.5727436E-31
   2.940000     -9.3470938E-31
   2.950000     -9.0325578E-31
   2.960000     -8.6248607E-31
   2.970000     -8.1201119E-31
   2.980000     -7.5148597E-31
   2.990000     -6.8061344E-31
   3.000000     -5.9915051E-31
   3.010000     -5.0691238E-31
   3.020000     -4.0377756E-31
   3.030000     -2.8969228E-31
   3.040000     -1.6467490E-31
   3.050000     -2.8820074E-32
   3.060000      1.1769709E-31
   3.070000      2.7461734E-31
   3.080000      4.4159383E-31
   3.090000      6.1818909E-31
   3.100000      8.0387216E-31
   3.110000      9.9801577E-31
   3.120000      1.1998950E-30
   3.130000      1.4086849E-30
   3.140000      1.6234600E-30
   3.150000      1.8431928E-30
   3.160000      2.0667553E-30
   3.170000      2.2929183E-30
   3.180000      2.5203532E-30
   3.190000      2.7476345E-30
   3.200000      2.9732418E-30
   3.210000      3.1955639E-30
   3.220000      3.4129043E-30
   3.230000      3.6234848E-30
   3.240000      3.8254528E-30
   3.250000      4.0168888E-30
   3.260000      4.1958140E-30
   3.270000      4.3601997E-30
   3.280000      4.5079757E-30
   3.290000      4.6370423E-30
   3.300000      4.7452826E-30
   3.310000      4.8305708E-30
   3.320000      4.8907893E-30
   3.330000      4.9238366E-30
   3.340000      4.9276464E-30
   3.350000      4.9001958E-30
   3.360000      4.8395249E-30
   3.370000      4.7437453E-30
   3.380000      4.6110592E-30
   3.390000      4.4397699E-30
   3.400000      4.2282991E-30
   3.410000      3.9751988E-30
   3.420000      3.6791668E-30
   3.430000      3.3390607E-30
   3.440000      2.9539107E-30
   3.450000      2.5229332E-30
   3.460000      2.0455460E-30
   3.470000      1.5213803E-30
   3.480000      9.5029399E-31
   3.490000      3.3238506E-31
   3.500000     -3.3199602E-31
   3.510000     -1.0422337E-30
   3.520000     -1.7974356E-30
   3.530000     -2.5964195E-30
   3.540000     -3.4377037E-30
   3.550000     -4.3194960E-30
   3.560000     -5.2396824E-30
   3.570000     -6.1958205E-30
   3.580000     -7.1851293E-30
   3.590000     -8.2044834E-30
   3.600000     -9.2504085E-30
   3.610000     -1.0319075E-29
   3.620000     -1.1406300E-29
   3.630000     -1.2507541E-29
   3.640000     -1.3617905E-29
   3.650000     -1.4732144E-29
   3.660000     -1.5844669E-29
   3.670000     -1.6949551E-29
   3.680000     -1.8040536E-29
   3.690000     -1.9111054E-29
   3.700000     -2.0154235E-29
   3.710000     -2.1162926E-29
   3.720000     -2.2129710E-29
   3.730000     -2.3046921E-29
   3.740000     -2.3906669E-29
   3.750000     -2.4700864E-29
   3.760000     -2.5421240E-29
   3.770000     -2.6059376E-29
   3.780000     -2.6606725E-29
   3.790000     -2.7054648E-29
   3.800000     -2.7394428E-29
   3.810000     -2.7617312E-29
   3.820000     -2.7714535E-29
   3.830000     -2.7677356E-29
   3.840000     -2.7497080E-29
   3.850000     -2.7165106E-29
   3.860000     -2.6672953E-29
   3.870000     -2.6012296E-29
   3.880000     -2.5175014E-29
   3.890000     -2.4153218E-29
   3.900000     -2.2939305E-29
   3.910000     -2.1525997E-29
   3.920000     -1.9906391E-29
   3.930000     -1.8074007E-29
   3.940000     -1.6022849E-29
   3.950000     -1.3747447E-29
   3.960000     -1.1242919E-29
   3.970000     -8.5050285E-30
   3.980000     -5.5302450E-30
   3.990000     -2.3158015E-30
   4.000000      1.1402455E-30
   4.010000      4.8389532E-30
   4.020000      8.7804320E-30
   4.030000      1.2963790E-29
   4.040000      1.7387077E-29
   4.050000      2.2047230E-29
   4.060000      2.6940013E-29
   4.070000      3.2059975E-29
   4.080000      3.7400407E-29
   4.090000      4.2953284E-29
   4.100000      4.8709227E-29
   4.110000      5.4657477E-29
   4.120000      6.0785846E-29
   4.130000      6.7080676E-29
   4.140000      7.3526829E-29
   4.150000      8.0107636E-29
   4.160000      8.6804876E-29
   4.170000      9.3598745E-29
   4.180000      1.0046782E-28
   4.190000      1.0738905E-28
   4.200000      1.1433769E-28
   4.210000      1.2128736E-28
   4.220000      1.2820990E-28
   4.230000      1.3507546E-28
   4.240000      1.4185237E-28
   4.250000      1.4850723E-28
   4.260000      1.5500480E-28
   4.270000      1.6130803E-28
   4.280000      1.6737807E-28
   4.290000      1.7317426E-28
   4.300000      1.7865412E-28
   4.310000      1.8377339E-28
   4.320000      1.8848603E-28
   4.330000      1.9274434E-28
   4.340000      1.9649885E-28
   4.350000      1.9969857E-28
   4.360000      2.0229094E-28
   4.370000      2.0422198E-28
   4.380000      2.0543632E-28
   4.390000      2.0587746E-28
   4.400000      2.0548767E-28
   4.410000      2.0420837E-28
   4.420000      2.0198005E-28
   4.430000      1.9874266E-28
   4.440000      1.9443557E-28
   4.450000      1.8899787E-28
   4.460000      1.8236850E-28
   4.470000      1.7448650E-28
   4.480000      1.6529114E-28
   4.490000      1.5472219E-28
   4.500000      1.4272014E-28
   4.510000      1.2922638E-28
   4.520000      1.1418357E-28
   4.530000      9.7535737E-29
   4.540000      7.9228695E-29
   4.550000      5.9210303E-29
   4.560000      3.7430749E-29
   4.570000      1.3842922E-29
   4.580000     -1.1597216E-29
   4.590000     -3.8930251E-29
   4.600000     -6.8192870E-29
   4.610000     -9.9417443E-29
   4.620000     -1.3263155E-28
   4.630000     -1.6785743E-28
   4.640000     -2.0511149E-28
   4.650000     -2.4440369E-28
   4.660000     -2.8573696E-28
   4.670000     -3.2910659E-28
   4.680000     -3.7449968E-28
   4.690000     -4.2189436E-28
   4.700000     -4.7125917E-28
   4.710000     -5.2255236E-28
   4.720000     -5.7572137E-28
   4.730000     -6.3070176E-28
   4.740000     -6.8741688E-28
   4.750000     -7.4577708E-28
   4.760000     -8.0567894E-28
   4.770000     -8.6700474E-28
   4.780000     -9.2962164E-28
   4.790000     -9.9338118E-28
   4.800000     -1.0581185E-27
   4.810000     -1.1236520E-27
   4.820000     -1.1897820E-27
   4.830000     -1.2562914E-27
   4.840000     -1.3229438E-27
   4.850000     -1.3894840E-27
   4.860000     -1.4556369E-27
   4.870000     -1.5211069E-27
   4.880000     -1.5855777E-27
   4.890000     -1.6487122E-27
   4.900000     -1.7101513E-27
   4.910000     -1.7695144E-27
   4.920000     -1.8263979E-27
   4.930000     -1.8803765E-27
   4.940000     -1.9310017E-27
   4.950000     -1.9778027E-27
   4.960000     -2.0202861E-27
   4.970000     -2.0579355E-27
   4.980000     -2.0902123E-27
   4.990000     -2.1165562E-27
   5.000000     -2.1363857E-27
   5.010000     -2.1490982E-27
   5.020000     -2.1540716E-27
   5.030000     -2.1506648E-27
   5.040000     -2.1382194E-27
   5.050000     -2.1160610E-27
   5.060000     -2.0835009E-27
   5.070000     -2.0398375E-27
   5.080000     -1.9843596E-27
   5.090000     -1.9163467E-27
   5.100000     -1.8350738E-27
   5.110000     -1.7398125E-27
   5.120000     -1.6298346E-27
   5.130000     -1.5044156E-27
   5.140000     -1.3628373E-27
   5.150000     -1.2043920E-27
   5.160000     -1.0283862E-27
   5.170000     -8.3414453E-28
   5.180000     -6.2101394E-28
   5.190000     -3.8836854E-28
   5.200000     -1.3561447E-28
   5.210000      1.3780546E-28
   5.220000      4.3240657E-28
   5.230000      7.4865731E-28
   5.240000      1.0869733E-27
   5.250000      1.4477109E-27
   5.260000      1.8311621E-27
   5.270000      2.2375468E-27
   5.280000      2.6670078E-27
   5.290000      3.1196032E-27
   5.300000      3.5952998E-27
   5.310000      4.0939643E-27
   5.320000      4.6153586E-27
   5.330000      5.1591303E-27
   5.340000      5.7248063E-27
   5.350000      6.3117840E-27
   5.360000      6.9193232E-27
   5.370000      7.5465423E-27
   5.380000      8.1924037E-27
   5.390000      8.8557125E-27
   5.400000      9.5351058E-27
   5.410000      1.0229048E-26
   5.420000      1.0935818E-26
   5.430000      1.1653513E-26
   5.440000      1.2380030E-26
   5.450000      1.3113068E-26
   5.460000      1.3850123E-26
   5.470000      1.4588476E-26
   5.480000      1.5325198E-26
   5.490000      1.6057139E-26
   5.500000      1.6780927E-26
   5.510000      1.7492969E-26
   5.520000      1.8189447E-26
   5.530000      1.8866319E-26
   5.540000      1.9519312E-26
   5.550000      2.0143936E-26
   5.560000      2.0735475E-26
   5.570000      2.1288997E-26
   5.580000      2.1799355E-26
   5.590000      2.2261189E-26
   5.600000      2.2668947E-26
   5.610000      2.3016872E-26
   5.620000      2.3299030E-26
   5.630000      2.3509308E-26
   5.640000      2.3641433E-26
   5.650000      2.3688985E-26
   5.660000      2.3645409E-26
   5.670000      2.3504040E-26
   5.680000      2.3258111E-26
   5.690000      2.2900782E-26
   5.700000      2.2425165E-26
   5.710000      2.1824335E-26
   5.720000      2.1091372E-26
   5.730000      2.0219385E-26
   5.740000      1.9201537E-26
   5.750000      1.8031080E-26
   5.760000      1.6701396E-26
   5.770000      1.5206027E-26
   5.780000      1.3538716E-26
   5.790000      1.1693447E-26
   5.800000      9.6644867E-27
   5.810000      7.4464279E-27
   5.820000      5.0342364E-27
   5.830000      2.4232990E-27
   5.840000     -3.9053569E-28
   5.850000     -3.4108997E-27
   5.860000     -6.6408576E-27
   5.870000     -1.0082855E-26
   5.880000     -1.3738669E-26
   5.890000     -1.7609349E-26
   5.900000     -2.1695166E-26
   5.910000     -2.5995558E-26
   5.920000     -3.0509081E-26
   5.930000     -3.5233345E-26
   5.940000     -4.0164958E-26
   5.950000     -4.5299484E-26
   5.960000     -5.0631386E-26
   5.970000     -5.6153960E-26
   5.980000     -6.1859292E-26
   5.990000     -6.7738204E-26
   6.000000     -7.3780225E-26
   6.010000     -7.9973498E-26
   6.020000     -8.6304779E-26
   6.030000     -9.2759362E-26
   6.040000     -9.9321058E-26
   6.050000     -1.0597214E-25
   6.060000     -1.1269333E-25
   6.070000     -1.1946374E-25
   6.080000     -1.2626087E-25
   6.090000     -1.3306057E-25
   6.100000     -1.3983706E-25
   6.110000     -1.4656285E-25
   6.120000     -1.5320881E-25
   6.130000     -1.5974409E-25
   6.140000     -1.6613624E-25
   6.150000     -1.7235109E-25
   6.160000     -1.7835292E-25
   6.170000     -1.8410433E-25
   6.180000     -1.8956644E-25
   6.190000     -1.9469882E-25
   6.200000     -1.9945960E-25
   6.210000     -2.0380549E-25
   6.220000     -2.0769196E-25
   6.230000     -2.1107317E-25
   6.240000     -2.1390222E-25
   6.250000     -2.1613115E-25
   6.260000     -2.1771104E-25
   6.270000     -2.1859227E-25
   6.280000     -2.1872448E-25
   6.290000     -2.1805683E-25
   6.300000     -2.1653815E-25
   6.310000     -2.1411706E-25
   6.320000     -2.1074214E-25
   6.330000     -2.0636223E-25
   6.340000     -2.0092645E-25
   6.350000     -1.9438460E-25
   6.360000     -1.8668725E-25
   6.370000     -1.7778601E-25
   6.380000     -1.6763383E-25
   6.390000     -1.5618515E-25
   6.400000     -1.4339628E-25
   6.410000     -1.2922555E-25
   6.420000     -1.1363370E-25
   6.430000     -9.6584136E-26
   6.440000     -7.8043180E-26
   6.450000     -5.7980475E-26
   6.460000     -3.6369283E-26
   6.470000     -1.3186745E-26
   6.480000      1.1585754E-26
   6.490000      3.7962255E-26
   6.500000      6.5951853E-26
   6.510000      9.5558364E-26
   6.520000      1.2678005E-25
   6.530000      1.5960924E-25
   6.540000      1.9403191E-25
   6.550000      2.3002750E-25
   6.560000      2.6756848E-25
   6.570000      3.0662005E-25
   6.580000      3.4713977E-25
   6.590000      3.8907739E-25
   6.600000      4.3237442E-25
   6.610000      4.7696379E-25
   6.620000      5.2276974E-25
   6.630000      5.6970746E-25
   6.640000      6.1768287E-25
   6.650000      6.6659244E-25
   6.660000      7.1632283E-25
   6.670000      7.6675086E-25
   6.680000      8.1774332E-25
   6.690000      8.6915669E-25
   6.700000      9.2083733E-25
   6.710000      9.7262112E-25
   6.720000      1.0243336E-24
   6.730000      1.0757896E-24
   6.740000      1.1267941E-24
   6.750000      1.1771411E-24
   6.760000      1.2266148E-24
   6.770000      1.2749891E-24
   6.780000      1.3220279E-24
   6.790000      1.3674856E-24
   6.800000      1.4111071E-24
   6.810000      1.4526282E-24
   6.820000      1.4917760E-24
   6.830000      1.5282695E-24
   6.840000      1.5618197E-24
   6.850000      1.5921306E-24
   6.860000      1.6188993E-24
   6.870000      1.6418173E-24
   6.880000      1.6605705E-24
   6.890000      1.6748408E-24
   6.900000      1.6843062E-24
   6.910000      1.6886420E-24
   6.920000      1.6875216E-24
   6.930000      1.6806185E-24
   6.940000      1.6676058E-24
   6.950000      1.6481582E-24
   6.960000      1.6219535E-24
   6.970000      1.5886735E-24
   6.980000      1.5480046E-24
   6.990000      1.4996409E-24
   7.000000      1.4432837E-24
   7.010000      1.3786448E-24
   7.020000      1.3054462E-24
   7.030000      1.2234233E-24
   7.040000      1.1323255E-24
   7.050000      1.0319184E-24
   7.060000      9.2198503E-25