  -2.600000      0.0000000E+00
  -2.590000      0.0000000E+00
  -2.580000      0.0000000E+00
  -2.570000      0.0000000E+00
  -2.560000      0.0000000E+00
  -2.550000      0.0000000E+00
  -2.540000      0.0000000E+00
  -2.530000      0.0000000E+00
  -2.520000      0.0000000E+00
  -2.510000      0.0000000E+00
  -2.500000      0.0000000E+00
  -2.490000      0.0000000E+00
  -2.480000      0.0000000E+00
  -2.470000      0.0000000E+00
  -2.460000      0.0000000E+00
  -2.450000      0.0000000E+00
  -2.440000      0.0000000E+00
  -2.430000      0.0000000E+00
  -2.420000      0.0000000E+00
  -2.410000      0.0000000E+00
  -2.400000      0.0000000E+00
  -2.390000      0.0000000E+00
  -2.380000      0.0000000E+00
  -2.370000      0.0000000E+00
  -2.360000      0.0000000E+00
  -2.350000      0.0000000E+00
  -2.340000      0.0000000E+00
  -2.330000      0.0000000E+00
  -2.320000      0.0000000E+00
  -2.310000      0.0000000E+00
  -2.300000      0.0000000E+00
  -2.290000      0.0000000E+00
  -2.280000      0.0000000E+00
  -2.270000      0.0000000E+00
  -2.260000      0.0000000E+00
  -2.250000      0.0000000E+00
  -2.240000      0.0000000E+00
  -2.230000      0.0000000E+00
  -2.220000      0.0000000E+00
  -2.210000      0.0000000E+00
  -2.200000      0.0000000E+00
  -2.190000      0.0000000E+00
  -2.180000      0.0000000E+00
  -2.170000      0.0000000E+00
  -2.160000      0.0000000E+00
  -2.150000      0.0000000E+00
  -2.140000      0.0000000E+00
  -2.130000      0.0000000E+00
  -2.120000      0.0000000E+00
  -2.110000      0.0000000E+00
  -2.100000      0.0000000E+00
  -2.090000      0.0000000E+00
  -2.080000      0.0000000E+00
  -2.070000      0.0000000E+00
  -2.060000      0.0000000E+00
  -2.050000      0.0000000E+00
  -2.040000      0.0000000E+00
  -2.030000      0.0000000E+00
  -2.020000      0.0000000E+00
  -2.010000      0.0000000E+00
  -2.000000      0.0000000E+00
  -1.990000      0.0000000E+00
  -1.980000      0.0000000E+00
  -1.970000      0.0000000E+00
  -1.960000      0.0000000E+00
  -1.950000      0.0000000E+00
  -1.940000      0.0000000E+00
  -1.930000      0.0000000E+00
  -1.920000      0.0000000E+00
  -1.910000      0.0000000E+00
  -1.900000      0.0000000E+00
  -1.890000      0.0000000E+00
  -1.880000      0.0000000E+00
  -1.870000      0.0000000E+00
  -1.860000      0.0000000E+00
  -1.850000      0.0000000E+00
  -1.840000      0.0000000E+00
  -1.830000      0.0000000E+00
  -1.820000      0.0000000E+00
  -1.810000      0.0000000E+00
  -1.800000      0.0000000E+00
  -1.790000      0.0000000E+00
  -1.780000      0.0000000E+00
  -1.770000      0.0000000E+00
  -1.760000      0.0000000E+00
  -1.750000      0.0000000E+00
  -1.740000      0.0000000E+00
  -1.730000      0.0000000E+00
  -1.720000      0.0000000E+00
  -1.710000      0.0000000E+00
  -1.700000      0.0000000E+00
  -1.690000      0.0000000E+00
  -1.680000      0.0000000E+00
  -1.670000      0.0000000E+00
  -1.660000      0.0000000E+00
  -1.650000      0.0000000E+00
  -1.640000      0.0000000E+00
  -1.630000      0.0000000E+00
  -1.620000      0.0000000E+00
  -1.610000      0.0000000E+00
  -1.600000      0.0000000E+00
  -1.590000      0.0000000E+00
  -1.580000      0.0000000E+00
  -1.570000      0.0000000E+00
  -1.560000      0.0000000E+00
  -1.550000      0.0000000E+00
  -1.540000      0.0000000E+00
  -1.530000      0.0000000E+00
  -1.520000      0.0000000E+00
  -1.510000      0.0000000E+00
  -1.500000      0.0000000E+00
  -1.490000      0.0000000E+00
  -1.480000      0.0000000E+00
  -1.470000      0.0000000E+00
  -1.460000      0.0000000E+00
  -1.450000      0.0000000E+00
  -1.440000      0.0000000E+00
  -1.430000      0.0000000E+00
  -1.420000      0.0000000E+00
  -1.410000      0.0000000E+00
  -1.400000      0.0000000E+00
  -1.390000      0.0000000E+00
  -1.380000      0.0000000E+00
  -1.370000      0.0000000E+00
  -1.360000      0.0000000E+00
  -1.350000      0.0000000E+00
  -1.340000      0.0000000E+00
  -1.330000      0.0000000E+00
  -1.320000      0.0000000E+00
  -1.310000      0.0000000E+00
  -1.300000      0.0000000E+00
  -1.290000      0.0000000E+00
  -1.280000      0.0000000E+00
  -1.270000      0.0000000E+00
  -1.260000      0.0000000E+00
  -1.250000      0.0000000E+00
  -1.240000      0.0000000E+00
  -1.230000      0.0000000E+00
  -1.220000      0.0000000E+00
  -1.210000      0.0000000E+00
  -1.200000      0.0000000E+00
  -1.190000      0.0000000E+00
  -1.180000      0.0000000E+00
  -1.170000      0.0000000E+00
  -1.160000      0.0000000E+00
  -1.150000      0.0000000E+00
  -1.140000      0.0000000E+00
  -1.130000      0.0000000E+00
  -1.120000      0.0000000E+00
  -1.110000      0.0000000E+00
  -1.100000      0.0000000E+00
  -1.090000      0.0000000E+00
  -1.080000      0.0000000E+00
  -1.070000      0.0000000E+00
  -1.060000      0.0000000E+00
  -1.050000      0.0000000E+00
  -1.040000      0.0000000E+00
  -1.030000      0.0000000E+00
  -1.020000      0.0000000E+00
  -1.010000      0.0000000E+00
  -1.000000      0.0000000E+00
 -0.9900000      0.0000000E+00
 -0.9800000      0.0000000E+00
 -0.9700000      0.0000000E+00
 -0.9600000      0.0000000E+00
 -0.9500000      0.0000000E+00
 -0.9400000      0.0000000E+00
 -0.9300000      0.0000000E+00
 -0.9200000      0.0000000E+00
 -0.9100000      0.0000000E+00
 -0.9000000      0.0000000E+00
 -0.8900000      0.0000000E+00
 -0.8800000      0.0000000E+00
 -0.8700000      0.0000000E+00
 -0.8600000      0.0000000E+00
 -0.8500000      0.0000000E+00
 -0.8400000      0.0000000E+00
 -0.8300000      0.0000000E+00
 -0.8200000      0.0000000E+00
 -0.8100000      0.0000000E+00
 -0.8000000      0.0000000E+00
 -0.7900000      0.0000000E+00
 -0.7800000      0.0000000E+00
 -0.7700000      0.0000000E+00
 -0.7600000      0.0000000E+00
 -0.7500000      0.0000000E+00
 -0.7400000      0.0000000E+00
 -0.7300000      0.0000000E+00
 -0.7200000      0.0000000E+00
 -0.7100000      0.0000000E+00
 -0.7000000      0.0000000E+00
 -0.6900000      0.0000000E+00
 -0.6800000      0.0000000E+00
 -0.6700000      0.0000000E+00
 -0.6600000      0.0000000E+00
 -0.6500000      0.0000000E+00
 -0.6400000      0.0000000E+00
 -0.6300000      0.0000000E+00
 -0.6200000      0.0000000E+00
 -0.6100000      0.0000000E+00
 -0.6000000      0.0000000E+00
 -0.5900000      0.0000000E+00
 -0.5800000      0.0000000E+00
 -0.5700000      0.0000000E+00
 -0.5600000      0.0000000E+00
 -0.5500000      0.0000000E+00
 -0.5400000      0.0000000E+00
 -0.5300000      0.0000000E+00
 -0.5200000      0.0000000E+00
 -0.5100000      0.0000000E+00
 -0.5000000      0.0000000E+00
 -0.4900000      0.0000000E+00
 -0.4800000      0.0000000E+00
 -0.4700000      0.0000000E+00
 -0.4600000      0.0000000E+00
 -0.4500000      0.0000000E+00
 -0.4400000      0.0000000E+00
 -0.4300000      0.0000000E+00
 -0.4200000      0.0000000E+00
 -0.4100000      0.0000000E+00
 -0.4000000      0.0000000E+00
 -0.3900000      0.0000000E+00
 -0.3800000      0.0000000E+00
 -0.3700000      0.0000000E+00
 -0.3600000      0.0000000E+00
 -0.3500000      0.0000000E+00
 -0.3400000      0.0000000E+00
 -0.3300000      0.0000000E+00
 -0.3200000      0.0000000E+00
 -0.3100000      0.0000000E+00
 -0.3000000      0.0000000E+00
 -0.2900000      0.0000000E+00
 -0.2800000      0.0000000E+00
 -0.2700000      0.0000000E+00
 -0.2600000      0.0000000E+00
 -0.2500000      0.0000000E+00
 -0.2400000      0.0000000E+00
 -0.2300000      0.0000000E+00
 -0.2200000      0.0000000E+00
 -0.2100000      0.0000000E+00
 -0.2000000      0.0000000E+00
 -0.1900000      0.0000000E+00
 -0.1800000      0.0000000E+00
 -0.1700000      0.0000000E+00
 -0.1600000      0.0000000E+00
 -0.1500000      0.0000000E+00
 -0.1400000      0.0000000E+00
 -0.1300000      0.0000000E+00
 -0.1200000      0.0000000E+00
 -0.1100000      0.0000000E+00
 -0.1000000      0.0000000E+00
 -9.0000004E-02  0.0000000E+00
 -7.9999998E-02  0.0000000E+00
 -7.0000000E-02  0.0000000E+00
 -5.9999999E-02  0.0000000E+00
 -5.0000001E-02  0.0000000E+00
 -3.9999999E-02  0.0000000E+00
 -2.9999999E-02  0.0000000E+00
 -2.0000000E-02  0.0000000E+00
 -9.9999998E-03  0.0000000E+00
 -3.4694470E-17  0.0000000E+00
  9.9999998E-03  0.0000000E+00
  2.0000000E-02  0.0000000E+00
  2.9999999E-02  0.0000000E+00
  3.9999999E-02  0.0000000E+00
  5.0000001E-02  0.0000000E+00
  5.9999999E-02  0.0000000E+00
  7.0000000E-02  0.0000000E+00
  7.9999998E-02  0.0000000E+00
  9.0000004E-02  0.0000000E+00
  0.1000000      0.0000000E+00
  0.1100000      0.0000000E+00
  0.1200000      0.0000000E+00
  0.1300000      0.0000000E+00
  0.1400000      0.0000000E+00
  0.1500000      0.0000000E+00
  0.1600000      0.0000000E+00
  0.1700000      0.0000000E+00
  0.1800000      0.0000000E+00
  0.1900000      0.0000000E+00
  0.2000000      0.0000000E+00
  0.2100000      0.0000000E+00
  0.2200000      0.0000000E+00
  0.2300000      0.0000000E+00
  0.2400000      0.0000000E+00
  0.2500000      0.0000000E+00
  0.2600000      0.0000000E+00
  0.2700000      0.0000000E+00
  0.2800000      0.0000000E+00
  0.2900000      0.0000000E+00
  0.3000000      0.0000000E+00
  0.3100000      0.0000000E+00
  0.3200000      0.0000000E+00
  0.3300000      0.0000000E+00
  0.3400000      0.0000000E+00
  0.3500000      0.0000000E+00
  0.3600000      0.0000000E+00
  0.3700000      0.0000000E+00
  0.3800000      0.0000000E+00
  0.3900000      0.0000000E+00
  0.4000000      0.0000000E+00
  0.4100000      0.0000000E+00
  0.4200000      0.0000000E+00
  0.4300000     -1.4640675E-38
  0.4400000     -1.5558580E-38
  0.4500000     -1.2247147E-38
  0.4600000      0.0000000E+00
  0.4700000      0.0000000E+00
  0.4800000      0.0000000E+00
  0.4900000      1.9145134E-38
  0.5000000      3.0233037E-38
  0.5100000      4.0651035E-38
  0.5200000      5.1927160E-38
  0.5300000      5.5644374E-38
  0.5400000      4.8635281E-38
  0.5500000      3.4020293E-38
  0.5600000      0.0000000E+00
  0.5700000     -2.4212223E-38
  0.5800000     -7.7659854E-38
  0.5900000     -1.3109094E-37
  0.6000000     -1.7403516E-37
  0.6100000     -1.9119446E-37
  0.6200000     -1.7597016E-37
  0.6300000     -1.4769472E-37
  0.6400000     -1.0403747E-37
  0.6500000     -2.6900547E-38
  0.6600000      1.1838724E-37
  0.6700000      3.2060891E-37
  0.6800000      5.2991216E-37
  0.6900000      7.0174144E-37
  0.7000000      7.9717515E-37
  0.7100000      8.2255915E-37
  0.7200000      7.9781827E-37
  0.7300000      6.7128627E-37
  0.7400000      4.4435363E-37
  0.7500000      1.7257157E-37
  0.7600000     -1.3582076E-37
  0.7700000     -4.5951003E-37
  0.7800000     -7.8063956E-37
  0.7900000     -1.0162577E-36
  0.8000000     -1.1815480E-36
  0.8100000     -1.4113855E-36
  0.8200000     -1.6321377E-36
  0.8300000     -1.7201337E-36
  0.8400000     -1.7599794E-36
  0.8500000     -1.8474109E-36
  0.8600000     -1.9534293E-36
  0.8700000     -2.0986370E-36
  0.8800000     -2.3728732E-36
  0.8900000     -2.6806819E-36
  0.9000000     -2.9442516E-36
  0.9100000     -3.2471177E-36
  0.9200000     -3.6268948E-36
  0.9300000     -4.0114939E-36
  0.9400000     -3.9188986E-36
  0.9500000     -3.3336888E-36
  0.9600000     -2.2902593E-36
  0.9700000     -4.7836222E-37
  0.9800000      1.7045307E-36
  0.9900000      4.0387006E-36
   1.000000      6.8549473E-36
   1.010000      1.0027778E-35
   1.020000      1.2891746E-35
   1.030000      1.5234912E-35
   1.040000      1.7248511E-35
   1.050000      1.8588697E-35
   1.060000      1.9402064E-35
   1.070000      2.0022804E-35
   1.080000      2.0817959E-35
   1.090000      2.1814432E-35
   1.100000      2.2582943E-35
   1.110000      2.3382673E-35
   1.120000      2.4171008E-35
   1.130000      2.4873753E-35
   1.140000      2.5335646E-35
   1.150000      2.5539426E-35
   1.160000      2.5538966E-35
   1.170000      2.5070654E-35
   1.180000      2.4110741E-35
   1.190000      2.2640528E-35
   1.200000      2.0199559E-35
   1.210000      1.5090957E-35
   1.220000      7.7721736E-36
   1.230000     -5.7397593E-37
   1.240000     -1.0010328E-35
   1.250000     -2.1754654E-35
   1.260000     -3.6815172E-35
   1.270000     -5.4309641E-35
   1.280000     -7.3702055E-35
   1.290000     -9.4445587E-35
   1.300000     -1.1545823E-34
   1.310000     -1.3663067E-34
   1.320000     -1.5767384E-34
   1.330000     -1.7784889E-34
   1.340000     -1.9800778E-34
   1.350000     -2.1714558E-34
   1.360000     -2.3658114E-34
   1.370000     -2.5756998E-34
   1.380000     -2.7812210E-34
   1.390000     -2.9777389E-34
   1.400000     -3.1426786E-34
   1.410000     -3.2576705E-34
   1.420000     -3.3299050E-34
   1.430000     -3.3504353E-34
   1.440000     -3.3244211E-34
   1.450000     -3.2587112E-34
   1.460000     -3.1036290E-34
   1.470000     -2.8729240E-34
   1.480000     -2.5247201E-34
   1.490000     -1.9418609E-34
   1.500000     -1.1549566E-34
   1.510000     -2.2910279E-35
   1.520000      8.0765290E-35
   1.530000      1.9817903E-34
   1.540000      3.2459316E-34
   1.550000      4.4614074E-34
   1.560000      5.5288840E-34
   1.570000      6.5517174E-34
   1.580000      7.6775049E-34
   1.590000      8.9619726E-34
   1.600000      1.0302123E-33
   1.610000      1.1604749E-33
   1.620000      1.2915968E-33
   1.630000      1.4257012E-33
   1.640000      1.5657019E-33
   1.650000      1.7093414E-33
   1.660000      1.8505163E-33
   1.670000      1.9854245E-33
   1.680000      2.1134310E-33
   1.690000      2.2296340E-33
   1.700000      2.3299413E-33
   1.710000      2.4056988E-33
   1.720000      2.4480831E-33
   1.730000      2.4565874E-33
   1.740000      2.4277375E-33
   1.750000      2.3536251E-33
   1.760000      2.2354437E-33
   1.770000      2.0810632E-33
   1.780000      1.8920895E-33
   1.790000      1.6652227E-33
   1.800000      1.3922120E-33
   1.810000      1.0681523E-33
   1.820000      6.9746249E-34
   1.830000      2.7660314E-34
   1.840000     -2.0123012E-34
   1.850000     -7.2834985E-34
   1.860000     -1.3063953E-33
   1.870000     -1.9358704E-33
   1.880000     -2.6119650E-33
   1.890000     -3.3390119E-33
   1.900000     -4.1139187E-33
   1.910000     -4.9337970E-33
   1.920000     -5.7946185E-33
   1.930000     -6.6814629E-33
   1.940000     -7.5946170E-33
   1.950000     -8.5310298E-33
   1.960000     -9.4730033E-33
   1.970000     -1.0408944E-32
   1.980000     -1.1324428E-32
   1.990000     -1.2205570E-32
   2.000000     -1.3040648E-32
   2.010000     -1.3820556E-32
   2.020000     -1.4525876E-32
   2.030000     -1.5141696E-32
   2.040000     -1.5660540E-32
   2.050000     -1.6068636E-32
   2.060000     -1.6350922E-32
   2.070000     -1.6486664E-32
   2.080000     -1.6458578E-32
   2.090000     -1.6254679E-32
   2.100000     -1.5858318E-32
   2.110000     -1.5251387E-32
   2.120000     -1.4418693E-32
   2.130000     -1.3345165E-32
   2.140000     -1.2015127E-32
   2.150000     -1.0416442E-32
   2.160000     -8.5395572E-33
   2.170000     -6.3763626E-33
   2.180000     -3.9210296E-33
   2.190000     -1.1693855E-33
   2.200000      1.8750430E-33
   2.210000      5.2041559E-33
   2.220000      8.8163090E-33
   2.230000      1.2703537E-32
   2.240000      1.6849261E-32
   2.250000      2.1236590E-32
   2.260000      2.5844128E-32
   2.270000      3.0648691E-32
   2.280000      3.5624053E-32
   2.290000      4.0737671E-32
   2.300000      4.5953407E-32
   2.310000      5.1231147E-32
   2.320000      5.6525621E-32
   2.330000      6.1788150E-32
   2.340000      6.6965621E-32
   2.350000      7.1999529E-32
   2.360000      7.6827889E-32
   2.370000      8.1384323E-32
   2.380000      8.5599334E-32
   2.390000      8.9401141E-32
   2.400000      9.2715718E-32
   2.410000      9.5470495E-32
   2.420000      9.7586573E-32
   2.430000      9.8984582E-32
   2.440000      9.9591596E-32
   2.450000      9.9334268E-32
   2.460000      9.8141083E-32
   2.470000      9.5942950E-32
   2.480000      9.2674264E-32
   2.490000      8.8272990E-32
   2.500000      8.2682598E-32
   2.510000      7.5852670E-32
   2.520000      6.7737180E-32
   2.530000      5.8297608E-32
   2.540000      4.7504692E-32
   2.550000      3.5337793E-32
   2.560000      2.1786621E-32
   2.570000      6.8521064E-33
   2.580000     -9.4526350E-33
   2.590000     -2.7101363E-32
   2.600000     -4.6053988E-32
   2.610000     -6.6255887E-32
   2.620000     -8.7637365E-32
   2.630000     -1.1011341E-31
   2.640000     -1.3358297E-31
   2.650000     -1.5792908E-31
   2.660000     -1.8301929E-31
   2.670000     -2.0870512E-31
   2.680000     -2.3482237E-31
   2.690000     -2.6119132E-31
   2.700000     -2.8761695E-31
   2.710000     -3.1388927E-31
   2.720000     -3.3978384E-31
   2.730000     -3.6506230E-31
   2.740000     -3.8947306E-31
   2.750000     -4.1275227E-31
   2.760000     -4.3462493E-31
   2.770000     -4.5480605E-31
   2.780000     -4.7300256E-31
   2.790000     -4.8891490E-31
   2.800000     -5.0223890E-31
   2.810000     -5.1266845E-31
   2.820000     -5.1989600E-31
   2.830000     -5.2362010E-31
   2.840000     -5.2354473E-31
   2.850000     -5.1937864E-31
   2.860000     -5.1084276E-31
   2.870000     -4.9767163E-31
   2.880000     -4.7961608E-31
   2.890000     -4.5644596E-31
   2.900000     -4.2795311E-31
   2.910000     -3.9395388E-31
   2.920000     -3.5429174E-31
   2.930000     -3.0884010E-31
   2.940000     -2.5750494E-31
   2.950000     -2.0022755E-31
   2.960000     -1.3698696E-31
   2.970000     -6.7802614E-32
   2.980000      7.2623878E-33
   2.990000      8.8101391E-32
   3.000000      1.7456039E-31
   3.010000      2.6643426E-31
   3.020000      3.6346748E-31
   3.030000      4.6535169E-31
   3.040000      5.7172444E-31
   3.050000      6.8216834E-31
   3.060000      7.9621028E-31
   3.070000      9.1332131E-31
   3.080000      1.0329159E-30
   3.090000      1.1543533E-30
   3.100000      1.2769374E-30
   3.110000      1.3999180E-30
   3.120000      1.5224922E-30
   3.130000      1.6438058E-30
   3.140000      1.7629562E-30
   3.150000      1.8789944E-30
   3.160000      1.9909276E-30
   3.170000      2.0977235E-30
   3.180000      2.1983142E-30
   3.190000      2.2915997E-30
   3.200000      2.3764546E-30
   3.210000      2.4517316E-30
   3.220000      2.5162692E-30
   3.230000      2.5688971E-30
   3.240000      2.6084438E-30
   3.250000      2.6337425E-30
   3.260000      2.6436403E-30
   3.270000      2.6370047E-30
   3.280000      2.6127314E-30
   3.290000      2.5697533E-30
   3.300000      2.5070471E-30
   3.310000      2.4236433E-30
   3.320000      2.3186335E-30
   3.330000      2.1911786E-30
   3.340000      2.0405168E-30
   3.350000      1.8659722E-30
   3.360000      1.6669629E-30
   3.370000      1.4430079E-30
   3.380000      1.1937368E-30
   3.390000      9.1889654E-31
   3.400000      6.1835987E-31
   3.410000      2.9213275E-31
   3.420000     -5.9638653E-32
   3.430000     -4.3666032E-31
   3.440000     -8.3848313E-31
   3.450000     -1.2644964E-30
   3.460000     -1.7139221E-30
   3.470000     -2.1858077E-30
   3.480000     -2.6790222E-30
   3.490000     -3.1922503E-30
   3.500000     -3.7239887E-30
   3.510000     -4.2725409E-30
   3.520000     -4.8360165E-30
   3.530000     -5.4123277E-30
   3.540000     -5.9991879E-30
   3.550000     -6.5941103E-30
   3.560000     -7.1944106E-30
   3.570000     -7.7972071E-30
   3.580000     -8.3994221E-30
   3.590000     -8.9977890E-30
   3.600000     -9.5888531E-30
   3.610000     -1.0168981E-29
   3.620000     -1.0734366E-29
   3.630000     -1.1281041E-29
   3.640000     -1.1804879E-29
   3.650000     -1.2301616E-29
   3.660000     -1.2766857E-29
   3.670000     -1.3196087E-29
   3.680000     -1.3584685E-29
   3.690000     -1.3927949E-29
   3.700000     -1.4221100E-29
   3.710000     -1.4459304E-29
   3.720000     -1.4637689E-29
   3.730000     -1.4751362E-29
   3.740000     -1.4795427E-29
   3.750000     -1.4765007E-29
   3.760000     -1.4655259E-29
   3.770000     -1.4461399E-29
   3.780000     -1.4178723E-29
   3.790000     -1.3802636E-29
   3.800000     -1.3328661E-29
   3.810000     -1.2752479E-29
   3.820000     -1.2069937E-29
   3.830000     -1.1277092E-29
   3.840000     -1.0370227E-29
   3.850000     -9.3458873E-30
   3.860000     -8.2009054E-30
   3.870000     -6.9324292E-30
   3.880000     -5.5379574E-30
   3.890000     -4.0153713E-30
   3.900000     -2.3629652E-30
   3.910000     -5.7947908E-31
   3.920000      1.3358654E-30
   3.930000      3.3833304E-30
   3.940000      5.5626334E-30
   3.950000      7.8729135E-30
   3.960000      1.0312697E-29
   3.970000      1.2879867E-29
   3.980000      1.5571637E-29
   3.990000      1.8384518E-29
   4.000000      2.1314295E-29
   4.010000      2.4355996E-29
   4.020000      2.7503868E-29
   4.030000      3.0751360E-29
   4.040000      3.4091085E-29
   4.050000      3.7514831E-29
   4.060000      4.1013518E-29
   4.070000      4.4577189E-29
   4.080000      4.8194995E-29
   4.090000      5.1855182E-29
   4.100000      5.5545096E-29
   4.110000      5.9251138E-29
   4.120000      6.2958776E-29
   4.130000      6.6652547E-29
   4.140000      7.0316009E-29
   4.150000      7.3931798E-29
   4.160000      7.7481564E-29
   4.170000      8.0946017E-29
   4.180000      8.4304887E-29
   4.190000      8.7536965E-29
   4.200000      9.0620090E-29
   4.210000      9.3531169E-29
   4.220000      9.6246176E-29
   4.230000      9.8740177E-29
   4.240000      1.0098739E-28
   4.250000      1.0296115E-28
   4.260000      1.0463403E-28
   4.270000      1.0597777E-28
   4.280000      1.0696346E-28
   4.290000      1.0756147E-28
   4.300000      1.0774159E-28
   4.310000      1.0747307E-28
   4.320000      1.0672467E-28
   4.330000      1.0546484E-28
   4.340000      1.0366170E-28
   4.350000      1.0128316E-28
   4.360000      9.8297075E-29
   4.370000      9.4671307E-29
   4.380000      9.0373835E-29
   4.390000      8.5372905E-29
   4.400000      7.9637125E-29
   4.410000      7.3135601E-29
   4.420000      6.5838102E-29
   4.430000      5.7715185E-29
   4.440000      4.8738320E-29
   4.450000      3.8880063E-29
   4.460000      2.8114247E-29
   4.470000      1.6416142E-29
   4.480000      3.7626476E-30
   4.490000     -9.8674983E-30
   4.500000     -2.4493544E-29
   4.510000     -4.0132522E-29
   4.520000     -5.6798978E-29
   4.530000     -7.4504714E-29
   4.540000     -9.3258589E-29
   4.550000     -1.1306618E-28
   4.560000     -1.3392957E-28
   4.570000     -1.5584706E-28
   4.580000     -1.7881279E-28
   4.590000     -2.0281650E-28
   4.600000     -2.2784322E-28
   4.610000     -2.5387279E-28
   4.620000     -2.8087965E-28
   4.630000     -3.0883252E-28
   4.640000     -3.3769393E-28
   4.650000     -3.6741994E-28
   4.660000     -3.9795970E-28
   4.670000     -4.2925526E-28
   4.680000     -4.6124106E-28
   4.690000     -4.9384368E-28
   4.700000     -5.2698152E-28
   4.710000     -5.6056440E-28
   4.720000     -5.9449331E-28
   4.730000     -6.2865998E-28
   4.740000     -6.6294669E-28
   4.750000     -6.9722603E-28
   4.760000     -7.3136063E-28
   4.770000     -7.6520264E-28
   4.780000     -7.9859374E-28
   4.790000     -8.3136493E-28
   4.800000     -8.6333613E-28
   4.810000     -8.9431616E-28
   4.820000     -9.2410250E-28
   4.830000     -9.5248137E-28
   4.840000     -9.7922752E-28
   4.850000     -1.0041039E-27
   4.860000     -1.0268624E-27
   4.870000     -1.0472431E-27
   4.880000     -1.0649750E-27
   4.890000     -1.0797755E-27
   4.900000     -1.0913512E-27
   4.910000     -1.0993980E-27
   4.920000     -1.1036017E-27
   4.930000     -1.1036379E-27
   4.940000     -1.0991732E-27
   4.950000     -1.0898650E-27
   4.960000     -1.0753630E-27
   4.970000     -1.0553102E-27
   4.980000     -1.0293434E-27
   4.990000     -9.9709428E-28
   5.000000     -9.5819030E-28
   5.010000     -9.1225678E-28
   5.020000     -8.5891796E-28
   5.030000     -7.9779794E-28
   5.040000     -7.2852306E-28
   5.050000     -6.5072377E-28
   5.060000     -5.6403593E-28
   5.070000     -4.6810329E-28
   5.080000     -3.6257990E-28
   5.090000     -2.4713162E-28
   5.100000     -1.2143900E-28
   5.110000      1.4799947E-29
   5.120000      1.6186789E-28
   5.130000      3.2002477E-28
   5.140000      4.8950524E-28
   5.150000      6.7051530E-28
   5.160000      8.6322925E-28
   5.170000      1.0677869E-27
   5.180000      1.2842898E-27
   5.190000      1.5127980E-27
   5.200000      1.7533264E-27
   5.210000      2.0058404E-27
   5.220000      2.2702533E-27
   5.230000      2.5464216E-27
   5.240000      2.8341415E-27
   5.250000      3.1331444E-27
   5.260000      3.4430944E-27
   5.270000      3.7635814E-27
   5.280000      4.0941203E-27
   5.290000      4.4341440E-27
   5.300000      4.7830004E-27
   5.310000      5.1399500E-27
   5.320000      5.5041606E-27
   5.330000      5.8747030E-27
   5.340000      6.2505494E-27
   5.350000      6.6305685E-27
   5.360000      7.0135243E-27
   5.370000      7.3980685E-27
   5.380000      7.7827422E-27
   5.390000      8.1659738E-27
   5.400000      8.5460722E-27
   5.410000      8.9212318E-27
   5.420000      9.2895243E-27
   5.430000      9.6489044E-27
   5.440000      9.9972042E-27
   5.450000      1.0332136E-26
   5.460000      1.0651292E-26
   5.470000      1.0952143E-26
   5.480000      1.1232047E-26
   5.490000      1.1488244E-26
   5.500000      1.1717862E-26
   5.510000      1.1917924E-26
   5.520000      1.2085347E-26
   5.530000      1.2216948E-26
   5.540000      1.2309454E-26
   5.550000      1.2359505E-26
   5.560000      1.2363660E-26
   5.570000      1.2318408E-26
   5.580000      1.2220181E-26
   5.590000      1.2065356E-26
   5.600000      1.1850270E-26
   5.610000      1.1571234E-26
   5.620000      1.1224545E-26
   5.630000      1.0806502E-26
   5.640000      1.0313416E-26
   5.650000      9.7416364E-27
   5.660000      9.0875567E-27
   5.670000      8.3476414E-27
   5.680000      7.5184415E-27
   5.690000      6.5966197E-27
   5.700000      5.5789680E-27
   5.710000      4.4624309E-27
   5.720000      3.2441319E-27
   5.730000      1.9213938E-27
   5.740000      4.9176358E-28
   5.750000     -1.0469555E-27
   5.760000     -2.6966790E-27
   5.770000     -4.4590139E-27
   5.780000     -6.3352333E-27
   5.790000     -8.3262427E-27
   5.800000     -1.0432558E-26
   5.810000     -1.2654269E-26
   5.820000     -1.4991009E-26
   5.830000     -1.7441935E-26
   5.840000     -2.0005684E-26
   5.850000     -2.2680357E-26
   5.860000     -2.5463479E-26
   5.870000     -2.8351966E-26
   5.880000     -3.1342106E-26
   5.890000     -3.4429520E-26
   5.900000     -3.7609138E-26
   5.910000     -4.0875185E-26
   5.920000     -4.4221130E-26
   5.930000     -4.7639674E-26
   5.940000     -5.1122729E-26
   5.950000     -5.4661386E-26
   5.960000     -5.8245896E-26
   5.970000     -6.1865658E-26
   5.980000     -6.5509210E-26
   5.990000     -6.9164175E-26
   6.000000     -7.2817303E-26
   6.010000     -7.6454433E-26
   6.020000     -8.0060476E-26
   6.030000     -8.3619447E-26
   6.040000     -8.7114421E-26
   6.050000     -9.0527564E-26
   6.060000     -9.3840145E-26
   6.070000     -9.7032529E-26
   6.080000     -1.0008421E-25
   6.090000     -1.0297382E-25
   6.100000     -1.0567915E-25
   6.110000     -1.0817717E-25
   6.120000     -1.1044413E-25
   6.130000     -1.1245550E-25
   6.140000     -1.1418610E-25
   6.150000     -1.1561012E-25
   6.160000     -1.1670115E-25
   6.170000     -1.1743229E-25
   6.180000     -1.1777618E-25
   6.190000     -1.1770513E-25
   6.200000     -1.1719113E-25
   6.210000     -1.1620599E-25
   6.220000     -1.1472137E-25
   6.230000     -1.1270892E-25
   6.240000     -1.1014043E-25
   6.250000     -1.0698783E-25
   6.260000     -1.0322340E-25
   6.270000     -9.8819848E-26
   6.280000     -9.3750467E-26
   6.290000     -8.7989243E-26
   6.300000     -8.1510982E-26
   6.310000     -7.4291512E-26
   6.320000     -6.6307796E-26
   6.330000     -5.7538122E-26
   6.340000     -4.7962238E-26
   6.350000     -3.7561538E-26
   6.360000     -2.6319216E-26
   6.370000     -1.4220450E-26
   6.380000     -1.2525903E-27
   6.390000      1.2594650E-26
   6.400000      2.7329014E-26
   6.410000      4.2955553E-26
   6.420000      5.9476371E-26
   6.430000      7.6890463E-26
   6.440000      9.5193540E-26
   6.450000      1.1437784E-25
   6.460000      1.3443188E-25
   6.470000      1.5534038E-25
   6.480000      1.7708396E-25
   6.490000      1.9963898E-25
   6.500000      2.2297738E-25
   6.510000      2.4706658E-25
   6.520000      2.7186910E-25
   6.530000      2.9734268E-25
   6.540000      3.2343987E-25
   6.550000      3.5010806E-25
   6.560000      3.7728927E-25
   6.570000      4.0492008E-25
   6.580000      4.3293145E-25
   6.590000      4.6124875E-25
   6.600000      4.8979156E-25
   6.610000      5.1847370E-25
   6.620000      5.4720293E-25
   6.630000      5.7588133E-25
   6.640000      6.0440491E-25
   6.650000      6.3266398E-25
   6.660000      6.6054257E-25
   6.670000      6.8791915E-25
   6.680000      7.1466632E-25
   6.690000      7.4065115E-25
   6.700000      7.6573505E-25
   6.710000      7.8977416E-25
   6.720000      8.1261932E-25
   6.730000      8.3411647E-25
   6.740000      8.5410670E-25
   6.750000      8.7242662E-25
   6.760000      8.8890878E-25
   6.770000      9.0338191E-25
   6.780000      9.1567099E-25
   6.790000      9.2559821E-25
   6.800000      9.3298303E-25
   6.810000      9.3764283E-25
   6.820000      9.3939322E-25
   6.830000      9.3804880E-25
   6.840000      9.3342361E-25
   6.850000      9.2533187E-25
   6.860000      9.1358820E-25
   6.870000      8.9800908E-25
   6.880000      8.7841299E-25
   6.890000      8.5462134E-25
   6.900000      8.2645885E-25
   6.910000      7.9375505E-25
   6.920000      7.5634475E-25
   6.930000      7.1406910E-25
   6.940000      6.6677615E-25
   6.950000      6.1432223E-25
   6.960000      5.5657233E-25
   6.970000      4.9340183E-25
   6.980000      4.2469693E-25
   6.990000      3.5035564E-25
   7.000000      2.7028924E-25
   7.010000      1.8442318E-25
   7.020000      9.2697960E-26
   7.030000     -4.9298618E-27
   7.040000     -1.0848644E-25
   7.050000     -2.1797945E-25
   7.060000     -3.3339705E-25