  -2.600000      0.0000000E+00
  -2.590000      0.0000000E+00
  -2.580000      0.0000000E+00
  -2.570000      0.0000000E+00
  -2.560000      0.0000000E+00
  -2.550000      0.0000000E+00
  -2.540000      0.0000000E+00
  -2.530000      0.0000000E+00
  -2.520000      0.0000000E+00
  -2.510000      0.0000000E+00
  -2.500000      0.0000000E+00
  -2.490000      0.0000000E+00
  -2.480000      0.0000000E+00
  -2.470000      0.0000000E+00
  -2.460000      0.0000000E+00
  -2.450000      0.0000000E+00
  -2.440000      0.0000000E+00
  -2.430000      0.0000000E+00
  -2.420000      0.0000000E+00
  -2.410000      0.0000000E+00
  -2.400000      0.0000000E+00
  -2.390000      0.0000000E+00
  -2.380000      0.0000000E+00
  -2.370000      0.0000000E+00
  -2.360000      0.0000000E+00
  -2.350000      0.0000000E+00
  -2.340000      0.0000000E+00
  -2.330000      0.0000000E+00
  -2.320000      0.0000000E+00
  -2.310000      0.0000000E+00
  -2.300000      0.0000000E+00
  -2.290000      0.0000000E+00
  -2.280000      0.0000000E+00
  -2.270000      0.0000000E+00
  -2.260000      0.0000000E+00
  -2.250000      0.0000000E+00
  -2.240000      0.0000000E+00
  -2.230000      0.0000000E+00
  -2.220000      0.0000000E+00
  -2.210000      0.0000000E+00
  -2.200000      0.0000000E+00
  -2.190000      0.0000000E+00
  -2.180000      0.0000000E+00
  -2.170000      0.0000000E+00
  -2.160000      0.0000000E+00
  -2.150000      0.0000000E+00
  -2.140000      0.0000000E+00
  -2.130000      0.0000000E+00
  -2.120000      0.0000000E+00
  -2.110000      0.0000000E+00
  -2.100000      0.0000000E+00
  -2.090000      0.0000000E+00
  -2.080000      0.0000000E+00
  -2.070000      0.0000000E+00
  -2.060000      0.0000000E+00
  -2.050000      0.0000000E+00
  -2.040000      0.0000000E+00
  -2.030000      0.0000000E+00
  -2.020000      0.0000000E+00
  -2.010000      0.0000000E+00
  -2.000000      0.0000000E+00
  -1.990000      0.0000000E+00
  -1.980000      0.0000000E+00
  -1.970000      0.0000000E+00
  -1.960000      0.0000000E+00
  -1.950000      0.0000000E+00
  -1.940000      0.0000000E+00
  -1.930000      0.0000000E+00
  -1.920000      0.0000000E+00
  -1.910000      0.0000000E+00
  -1.900000      0.0000000E+00
  -1.890000      0.0000000E+00
  -1.880000      0.0000000E+00
  -1.870000      0.0000000E+00
  -1.860000      0.0000000E+00
  -1.850000      0.0000000E+00
  -1.840000      0.0000000E+00
  -1.830000      0.0000000E+00
  -1.820000      0.0000000E+00
  -1.810000      0.0000000E+00
  -1.800000      0.0000000E+00
  -1.790000      0.0000000E+00
  -1.780000      0.0000000E+00
  -1.770000      0.0000000E+00
  -1.760000      0.0000000E+00
  -1.750000      0.0000000E+00
  -1.740000      0.0000000E+00
  -1.730000      0.0000000E+00
  -1.720000      0.0000000E+00
  -1.710000      0.0000000E+00
  -1.700000      0.0000000E+00
  -1.690000      0.0000000E+00
  -1.680000      0.0000000E+00
  -1.670000      0.0000000E+00
  -1.660000      0.0000000E+00
  -1.650000      0.0000000E+00
  -1.640000      0.0000000E+00
  -1.630000      0.0000000E+00
  -1.620000      0.0000000E+00
  -1.610000      0.0000000E+00
  -1.600000      0.0000000E+00
  -1.590000      0.0000000E+00
  -1.580000      0.0000000E+00
  -1.570000      0.0000000E+00
  -1.560000      0.0000000E+00
  -1.550000      0.0000000E+00
  -1.540000      0.0000000E+00
  -1.530000      0.0000000E+00
  -1.520000      0.0000000E+00
  -1.510000      0.0000000E+00
  -1.500000      0.0000000E+00
  -1.490000      0.0000000E+00
  -1.480000      0.0000000E+00
  -1.470000      0.0000000E+00
  -1.460000      0.0000000E+00
  -1.450000      0.0000000E+00
  -1.440000      0.0000000E+00
  -1.430000      0.0000000E+00
  -1.420000      0.0000000E+00
  -1.410000      0.0000000E+00
  -1.400000      0.0000000E+00
  -1.390000      0.0000000E+00
  -1.380000      0.0000000E+00
  -1.370000      0.0000000E+00
  -1.360000      0.0000000E+00
  -1.350000      0.0000000E+00
  -1.340000      0.0000000E+00
  -1.330000      0.0000000E+00
  -1.320000      0.0000000E+00
  -1.310000      0.0000000E+00
  -1.300000      0.0000000E+00
  -1.290000      0.0000000E+00
  -1.280000      0.0000000E+00
  -1.270000      0.0000000E+00
  -1.260000      0.0000000E+00
  -1.250000      0.0000000E+00
  -1.240000      0.0000000E+00
  -1.230000      0.0000000E+00
  -1.220000      0.0000000E+00
  -1.210000      0.0000000E+00
  -1.200000      0.0000000E+00
  -1.190000      0.0000000E+00
  -1.180000      0.0000000E+00
  -1.170000      0.0000000E+00
  -1.160000      0.0000000E+00
  -1.150000      0.0000000E+00
  -1.140000      0.0000000E+00
  -1.130000      0.0000000E+00
  -1.120000      0.0000000E+00
  -1.110000      0.0000000E+00
  -1.100000      0.0000000E+00
  -1.090000      0.0000000E+00
  -1.080000      0.0000000E+00
  -1.070000      0.0000000E+00
  -1.060000      0.0000000E+00
  -1.050000      0.0000000E+00
  -1.040000      0.0000000E+00
  -1.030000      0.0000000E+00
  -1.020000      0.0000000E+00
  -1.010000      0.0000000E+00
  -1.000000      0.0000000E+00
 -0.9900000      0.0000000E+00
 -0.9800000      0.0000000E+00
 -0.9700000      0.0000000E+00
 -0.9600000      0.0000000E+00
 -0.9500000      0.0000000E+00
 -0.9400000      0.0000000E+00
 -0.9300000      0.0000000E+00
 -0.9200000      0.0000000E+00
 -0.9100000      0.0000000E+00
 -0.9000000      0.0000000E+00
 -0.8900000      0.0000000E+00
 -0.8800000      0.0000000E+00
 -0.8700000      0.0000000E+00
 -0.8600000      0.0000000E+00
 -0.8500000      0.0000000E+00
 -0.8400000      0.0000000E+00
 -0.8300000      0.0000000E+00
 -0.8200000      0.0000000E+00
 -0.8100000      0.0000000E+00
 -0.8000000      0.0000000E+00
 -0.7900000      0.0000000E+00
 -0.7800000      0.0000000E+00
 -0.7700000      0.0000000E+00
 -0.7600000      0.0000000E+00
 -0.7500000      0.0000000E+00
 -0.7400000      0.0000000E+00
 -0.7300000      0.0000000E+00
 -0.7200000      0.0000000E+00
 -0.7100000      0.0000000E+00
 -0.7000000      0.0000000E+00
 -0.6900000      0.0000000E+00
 -0.6800000      0.0000000E+00
 -0.6700000      0.0000000E+00
 -0.6600000      0.0000000E+00
 -0.6500000      0.0000000E+00
 -0.6400000      0.0000000E+00
 -0.6300000      0.0000000E+00
 -0.6200000      0.0000000E+00
 -0.6100000      0.0000000E+00
 -0.6000000      0.0000000E+00
 -0.5900000      0.0000000E+00
 -0.5800000      0.0000000E+00
 -0.5700000      0.0000000E+00
 -0.5600000      0.0000000E+00
 -0.5500000      0.0000000E+00
 -0.5400000      0.0000000E+00
 -0.5300000      0.0000000E+00
 -0.5200000      0.0000000E+00
 -0.5100000      0.0000000E+00
 -0.5000000      0.0000000E+00
 -0.4900000      0.0000000E+00
 -0.4800000      0.0000000E+00
 -0.4700000      0.0000000E+00
 -0.4600000      0.0000000E+00
 -0.4500000      0.0000000E+00
 -0.4400000      0.0000000E+00
 -0.4300000      0.0000000E+00
 -0.4200000      0.0000000E+00
 -0.4100000      0.0000000E+00
 -0.4000000      0.0000000E+00
 -0.3900000      0.0000000E+00
 -0.3800000      0.0000000E+00
 -0.3700000      0.0000000E+00
 -0.3600000      0.0000000E+00
 -0.3500000      0.0000000E+00
 -0.3400000      0.0000000E+00
 -0.3300000      0.0000000E+00
 -0.3200000      0.0000000E+00
 -0.3100000      0.0000000E+00
 -0.3000000      0.0000000E+00
 -0.2900000      0.0000000E+00
 -0.2800000      0.0000000E+00
 -0.2700000      0.0000000E+00
 -0.2600000      0.0000000E+00
 -0.2500000      0.0000000E+00
 -0.2400000      0.0000000E+00
 -0.2300000      0.0000000E+00
 -0.2200000      0.0000000E+00
 -0.2100000      0.0000000E+00
 -0.2000000      0.0000000E+00
 -0.1900000      0.0000000E+00
 -0.1800000      0.0000000E+00
 -0.1700000      0.0000000E+00
 -0.1600000      0.0000000E+00
 -0.1500000      0.0000000E+00
 -0.1400000      0.0000000E+00
 -0.1300000      0.0000000E+00
 -0.1200000      0.0000000E+00
 -0.1100000      0.0000000E+00
 -0.1000000      0.0000000E+00
 -9.0000004E-02  0.0000000E+00
 -7.9999998E-02  0.0000000E+00
 -7.0000000E-02  0.0000000E+00
 -5.9999999E-02  0.0000000E+00
 -5.0000001E-02  0.0000000E+00
 -3.9999999E-02  0.0000000E+00
 -2.9999999E-02  0.0000000E+00
 -2.0000000E-02  0.0000000E+00
 -9.9999998E-03  0.0000000E+00
 -3.4694470E-17  0.0000000E+00
  9.9999998E-03  0.0000000E+00
  2.0000000E-02  0.0000000E+00
  2.9999999E-02  0.0000000E+00
  3.9999999E-02  0.0000000E+00
  5.0000001E-02  0.0000000E+00
  5.9999999E-02  0.0000000E+00
  7.0000000E-02  0.0000000E+00
  7.9999998E-02  0.0000000E+00
  9.0000004E-02  0.0000000E+00
  0.1000000      0.0000000E+00
  0.1100000      0.0000000E+00
  0.1200000      0.0000000E+00
  0.1300000      0.0000000E+00
  0.1400000      0.0000000E+00
  0.1500000      0.0000000E+00
  0.1600000      0.0000000E+00
  0.1700000      0.0000000E+00
  0.1800000      0.0000000E+00
  0.1900000      0.0000000E+00
  0.2000000      0.0000000E+00
  0.2100000      0.0000000E+00
  0.2200000      0.0000000E+00
  0.2300000      0.0000000E+00
  0.2400000      0.0000000E+00
  0.2500000      0.0000000E+00
  0.2600000     -1.2172619E-38
  0.2700000     -1.3017375E-38
  0.2800000     -1.3928869E-38
  0.2900000     -1.4808659E-38
  0.3000000     -1.4750338E-38
  0.3100000      0.0000000E+00
  0.3200000      0.0000000E+00
  0.3300000      0.0000000E+00
  0.3400000      1.4762266E-38
  0.3500000      2.7430737E-38
  0.3600000      4.2204049E-38
  0.3700000      5.9089466E-38
  0.3800000      7.9694243E-38
  0.3900000      9.6422170E-38
  0.4000000      1.0632711E-37
  0.4100000      1.1511995E-37
  0.4200000      1.2157488E-37
  0.4300000      1.2452400E-37
  0.4400000      1.2169497E-37
  0.4500000      1.1368937E-37
  0.4600000      1.0283525E-37
  0.4700000      8.7961012E-38
  0.4800000      6.7534599E-38
  0.4900000      3.5468100E-38
  0.5000000      0.0000000E+00
  0.5100000     -3.5761263E-38
  0.5200000     -6.7009829E-38
  0.5300000     -8.9960632E-38
  0.5400000     -3.7079767E-38
  0.5500000      1.7526755E-37
  0.5600000      4.9053939E-37
  0.5700000      7.6483561E-37
  0.5800000      9.7847681E-37
  0.5900000      1.1663726E-36
  0.6000000      1.3516949E-36
  0.6100000      1.5078913E-36
  0.6200000      1.5884167E-36
  0.6300000      1.5148480E-36
  0.6400000      1.2374125E-36
  0.6500000      8.1617344E-37
  0.6600000      2.8457551E-37
  0.6700000     -2.5085413E-37
  0.6800000     -7.3957403E-37
  0.6900000     -1.2312297E-36
  0.7000000     -1.7082762E-36
  0.7100000     -2.0171808E-36
  0.7200000     -2.1608108E-36
  0.7300000     -2.2366695E-36
  0.7400000     -2.2462955E-36
  0.7500000     -2.2579758E-36
  0.7600000     -2.2841484E-36
  0.7700000     -2.3429859E-36
  0.7800000     -2.9204552E-36
  0.7900000     -4.1188213E-36
  0.8000000     -5.5727060E-36
  0.8100000     -7.2079923E-36
  0.8200000     -8.9157415E-36
  0.8300000     -1.0555052E-35
  0.8400000     -1.1956262E-35
  0.8500000     -1.3118056E-35
  0.8600000     -1.4265357E-35
  0.8700000     -1.5362111E-35
  0.8800000     -1.5807879E-35
  0.8900000     -1.5674722E-35
  0.9000000     -1.5759911E-35
  0.9100000     -1.5875598E-35
  0.9200000     -1.5786561E-35
  0.9300000     -1.5526348E-35
  0.9400000     -1.5015610E-35
  0.9500000     -1.3737989E-35
  0.9600000     -1.1398376E-35
  0.9700000     -8.4414277E-36
  0.9800000     -5.2159021E-36
  0.9900000     -1.8998253E-36
   1.000000      7.1481432E-37
   1.010000      2.8365032E-36
   1.020000      5.0328639E-36
   1.030000      6.5123377E-36
   1.040000      7.1962022E-36
   1.050000      8.5079740E-36
   1.060000      1.1215929E-35
   1.070000      1.5359144E-35
   1.080000      2.2003682E-35
   1.090000      3.0054153E-35
   1.100000      3.8277287E-35
   1.110000      4.6569269E-35
   1.120000      5.4172686E-35
   1.130000      6.0866145E-35
   1.140000      6.7411341E-35
   1.150000      7.4304812E-35
   1.160000      8.0196638E-35
   1.170000      8.4996662E-35
   1.180000      9.0190677E-35
   1.190000      9.5305328E-35
   1.200000      9.9546257E-35
   1.210000      1.0278009E-34
   1.220000      1.0485710E-34
   1.230000      1.0642684E-34
   1.240000      1.0664953E-34
   1.250000      1.0537968E-34
   1.260000      1.0504537E-34
   1.270000      1.0536134E-34
   1.280000      1.0567327E-34
   1.290000      1.0588902E-34
   1.300000      1.0468322E-34
   1.310000      1.0061413E-34
   1.320000      9.3377661E-35
   1.330000      8.5743520E-35
   1.340000      8.0495569E-35
   1.350000      7.5730035E-35
   1.360000      6.7547498E-35
   1.370000      5.8378493E-35
   1.380000      5.1798130E-35
   1.390000      4.4760236E-35
   1.400000      3.5901070E-35
   1.410000      2.3042961E-35
   1.420000      3.6441017E-36
   1.430000     -1.9904870E-35
   1.440000     -4.7434179E-35
   1.450000     -7.8989696E-35
   1.460000     -1.0728867E-34
   1.470000     -1.2841208E-34
   1.480000     -1.4501657E-34
   1.490000     -1.5622776E-34
   1.500000     -1.6630809E-34
   1.510000     -1.7881489E-34
   1.520000     -1.8093408E-34
   1.530000     -1.6976370E-34
   1.540000     -1.5924134E-34
   1.550000     -1.5418227E-34
   1.560000     -1.5960793E-34
   1.570000     -1.8416946E-34
   1.580000     -2.2788852E-34
   1.590000     -2.8481018E-34
   1.600000     -3.4799617E-34
   1.610000     -4.1354047E-34
   1.620000     -4.8018315E-34
   1.630000     -5.4513137E-34
   1.640000     -6.0632568E-34
   1.650000     -6.6050316E-34
   1.660000     -7.0118881E-34
   1.670000     -7.3027848E-34
   1.680000     -7.5244808E-34
   1.690000     -7.6770466E-34
   1.700000     -7.8225687E-34
   1.710000     -7.9158662E-34
   1.720000     -7.8768885E-34
   1.730000     -7.7736984E-34
   1.740000     -7.7771634E-34
   1.750000     -7.9602384E-34
   1.760000     -8.2727426E-34
   1.770000     -8.7125400E-34
   1.780000     -9.2474653E-34
   1.790000     -9.8495360E-34
   1.800000     -1.0425484E-33
   1.810000     -1.0875194E-33
   1.820000     -1.1184193E-33
   1.830000     -1.1292863E-33
   1.840000     -1.1155793E-33
   1.850000     -1.0758484E-33
   1.860000     -1.0063812E-33
   1.870000     -9.0760286E-34
   1.880000     -7.7944487E-34
   1.890000     -6.2864515E-34
   1.900000     -4.6159721E-34
   1.910000     -2.7434511E-34
   1.920000     -6.5445516E-35
   1.930000      1.6384890E-34
   1.940000      4.1614823E-34
   1.950000      6.9662711E-34
   1.960000      1.0114988E-33
   1.970000      1.3686097E-33
   1.980000      1.7777782E-33
   1.990000      2.2453823E-33
   2.000000      2.7657553E-33
   2.010000      3.3444085E-33
   2.020000      3.9870821E-33
   2.030000      4.6818338E-33
   2.040000      5.4217205E-33
   2.050000      6.2090743E-33
   2.060000      7.0354828E-33
   2.070000      7.8845321E-33
   2.080000      8.7445502E-33
   2.090000      9.6033642E-33
   2.100000      1.0449880E-32
   2.110000      1.1275425E-32
   2.120000      1.2072134E-32
   2.130000      1.2833213E-32
   2.140000      1.3552526E-32
   2.150000      1.4225301E-32
   2.160000      1.4845893E-32
   2.170000      1.5407178E-32
   2.180000      1.5900886E-32
   2.190000      1.6312384E-32
   2.200000      1.6629404E-32
   2.210000      1.6838682E-32
   2.220000      1.6917538E-32
   2.230000      1.6841202E-32
   2.240000      1.6583322E-32
   2.250000      1.6116236E-32
   2.260000      1.5412253E-32
   2.270000      1.4443398E-32
   2.280000      1.3182568E-32
   2.290000      1.1605240E-32
   2.300000      9.6889159E-33
   2.310000      7.4131552E-33
   2.320000      4.7607778E-33
   2.330000      1.7153065E-33
   2.340000     -1.7392725E-33
   2.350000     -5.6105071E-33
   2.360000     -9.9037449E-33
   2.370000     -1.4628666E-32
   2.380000     -1.9790472E-32
   2.390000     -2.5385723E-32
   2.400000     -3.1413429E-32
   2.410000     -3.7867810E-32
   2.420000     -4.4734769E-32
   2.430000     -5.1993449E-32
   2.440000     -5.9611029E-32
   2.450000     -6.7548878E-32
   2.460000     -7.5759800E-32
   2.470000     -8.4188253E-32
   2.480000     -9.2771478E-32
   2.490000     -1.0144000E-31
   2.500000     -1.1011914E-31
   2.510000     -1.1873025E-31
   2.520000     -1.2719144E-31
   2.530000     -1.3541997E-31
   2.540000     -1.4333041E-31
   2.550000     -1.5083633E-31
   2.560000     -1.5785215E-31
   2.570000     -1.6429052E-31
   2.580000     -1.7006148E-31
   2.590000     -1.7507172E-31
   2.600000     -1.7922349E-31
   2.610000     -1.8241293E-31
   2.620000     -1.8452975E-31
   2.630000     -1.8545516E-31
   2.640000     -1.8506223E-31
   2.650000     -1.8321711E-31
   2.660000     -1.7977885E-31
   2.670000     -1.7460087E-31
   2.680000     -1.6753301E-31
   2.690000     -1.5842389E-31
   2.700000     -1.4712377E-31
   2.710000     -1.3348676E-31
   2.720000     -1.1737451E-31
   2.730000     -9.8659535E-32
   2.740000     -7.7227798E-32
   2.750000     -5.2982017E-32
   2.760000     -2.5843311E-32
   2.770000      4.2458691E-33
   2.780000      3.7318005E-32
   2.790000      7.3379212E-32
   2.800000      1.1240732E-31
   2.810000      1.5434956E-31
   2.820000      1.9912129E-31
   2.830000      2.4660451E-31
   2.840000      2.9664703E-31
   2.850000      3.4906175E-31
   2.860000      4.0362677E-31
   2.870000      4.6008562E-31
   2.880000      5.1814841E-31
   2.890000      5.7749339E-31
   2.900000      6.3776864E-31
   2.910000      6.9859451E-31
   2.920000      7.5956589E-31
   2.930000      8.2025469E-31
   2.940000      8.8021139E-31
   2.950000      9.3896721E-31
   2.960000      9.9603445E-31
   2.970000      1.0509072E-30
   2.980000      1.1030602E-30
   2.990000      1.1519477E-30
   3.000000      1.1970014E-30
   3.010000      1.2376278E-30
   3.020000      1.2732054E-30
   3.030000      1.3030825E-30
   3.040000      1.3265755E-30
   3.050000      1.3429673E-30
   3.060000      1.3515092E-30
   3.070000      1.3514220E-30
   3.080000      1.3419010E-30
   3.090000      1.3221223E-30
   3.100000      1.2912514E-30
   3.110000      1.2484535E-30
   3.120000      1.1929072E-30
   3.130000      1.1238173E-30
   3.140000      1.0404315E-30
   3.150000      9.4205584E-31
   3.160000      8.2807229E-31
   3.170000      6.9795339E-31
   3.180000      5.5127953E-31
   3.190000      3.8775320E-31
   3.200000      2.0721172E-31
   3.210000      9.6384821E-33
   3.220000     -2.0482799E-31
   3.230000     -4.3588704E-31
   3.240000     -6.8307140E-31
   3.250000     -9.4574530E-31
   3.260000     -1.2231046E-30
   3.270000     -1.5141793E-30
   3.280000     -1.8178373E-30
   3.290000     -2.1327891E-30
   3.300000     -2.4575942E-30
   3.310000     -2.7906682E-30
   3.320000     -3.1302888E-30
   3.330000     -3.4746014E-30
   3.340000     -3.8216235E-30
   3.350000     -4.1692475E-30
   3.360000     -4.5152416E-30
   3.370000     -4.8572469E-30
   3.380000     -5.1927736E-30
   3.390000     -5.5191946E-30
   3.400000     -5.8337366E-30
   3.410000     -6.1334700E-30
   3.420000     -6.4152975E-30
   3.430000     -6.6759435E-30
   3.440000     -6.9119474E-30
   3.450000     -7.1196544E-30
   3.460000     -7.2952142E-30
   3.470000     -7.4345869E-30
   3.480000     -7.5335518E-30
   3.490000     -7.5877201E-30
   3.500000     -7.5925665E-30
   3.510000     -7.5434606E-30
   3.520000     -7.4357093E-30
   3.530000     -7.2646040E-30
   3.540000     -7.0254832E-30
   3.550000     -6.7137903E-30
   3.560000     -6.3251436E-30
   3.570000     -5.8554056E-30
   3.580000     -5.3007520E-30
   3.590000     -4.6577427E-30
   3.600000     -3.9233852E-30
   3.610000     -3.0951974E-30
   3.620000     -2.1712596E-30
   3.630000     -1.1502603E-30
   3.640000     -3.1535304E-32
   3.650000      1.1849051E-30
   3.660000      2.4983613E-30
   3.670000      3.9074290E-30
   3.680000      5.4099936E-30
   3.690000      7.0032335E-30
   3.700000      8.6836254E-30
   3.710000      1.0446947E-29
   3.720000      1.2288286E-29
   3.730000      1.4202039E-29
   3.740000      1.6181900E-29
   3.750000      1.8220859E-29
   3.760000      2.0311175E-29
   3.770000      2.2444341E-29
   3.780000      2.4611040E-29
   3.790000      2.6801106E-29
   3.800000      2.9003440E-29
   3.810000      3.1205969E-29
   3.820000      3.3395547E-29
   3.830000      3.5557900E-29
   3.840000      3.7677554E-29
   3.850000      3.9737761E-29
   3.860000      4.1720469E-29
   3.870000      4.3606277E-29
   3.880000      4.5374434E-29
   3.890000      4.7002847E-29
   3.900000      4.8468131E-29
   3.910000      4.9745672E-29
   3.920000      5.0809751E-29
   3.930000      5.1633664E-29
   3.940000      5.2189891E-29
   3.950000      5.2450319E-29
   3.960000      5.2386426E-29
   3.970000      5.1969522E-29
   3.980000      5.1171008E-29
   3.990000      4.9962634E-29
   4.000000      4.8316746E-29
   4.010000      4.6206517E-29
   4.020000      4.3606184E-29
   4.030000      4.0491260E-29
   4.040000      3.6838728E-29
   4.050000      3.2627218E-29
   4.060000      2.7837124E-29
   4.070000      2.2450759E-29
   4.080000      1.6452433E-29
   4.090000      9.8285125E-30
   4.100000      2.5675212E-30
   4.110000     -5.3397728E-30
   4.120000     -1.3900294E-29
   4.130000     -2.3118586E-29
   4.140000     -3.2996669E-29
   4.150000     -4.3533895E-29
   4.160000     -5.4726750E-29
   4.170000     -6.6568631E-29
   4.180000     -7.9049518E-29
   4.190000     -9.2155724E-29
   4.200000     -1.0586946E-28
   4.210000     -1.2016847E-28
   4.220000     -1.3502552E-28
   4.230000     -1.5040797E-28
   4.240000     -1.6627732E-28
   4.250000     -1.8258869E-28
   4.260000     -1.9929048E-28
   4.270000     -2.1632382E-28
   4.280000     -2.3362238E-28
   4.290000     -2.5111189E-28
   4.300000     -2.6871013E-28
   4.310000     -2.8632675E-28
   4.320000     -3.0386324E-28
   4.330000     -3.2121312E-28
   4.340000     -3.3826196E-28
   4.350000     -3.5488786E-28
   4.360000     -3.7096174E-28
   4.370000     -3.8634776E-28
   4.380000     -4.0090391E-28
   4.390000     -4.1448261E-28
   4.400000     -4.2693124E-28
   4.410000     -4.3809268E-28
   4.420000     -4.4780587E-28
   4.430000     -4.5590638E-28
   4.440000     -4.6222694E-28
   4.450000     -4.6659784E-28
   4.460000     -4.6884728E-28
   4.470000     -4.6880178E-28
   4.480000     -4.6628627E-28
   4.490000     -4.6112459E-28
   4.500000     -4.5313968E-28
   4.510000     -4.4215370E-28
   4.520000     -4.2798829E-28
   4.530000     -4.1046502E-28
   4.540000     -3.8940582E-28
   4.550000     -3.6463336E-28
   4.560000     -3.3597205E-28
   4.570000     -3.0324884E-28
   4.580000     -2.6629426E-28
   4.590000     -2.2494385E-28
   4.600000     -1.7903943E-28
   4.610000     -1.2843114E-28
   4.620000     -7.2979119E-29
   4.630000     -1.2555605E-29
   4.640000      5.2952860E-29
   4.650000      1.2364320E-28
   4.660000      1.9959336E-28
   4.670000      2.8085990E-28
   4.680000      3.6747612E-28
   4.690000      4.5944975E-28
   4.700000      5.5676054E-28
   4.710000      6.5935887E-28
   4.720000      7.6716381E-28
   4.730000      8.8006168E-28
   4.740000      9.9790490E-28
   4.750000      1.1205109E-27
   4.760000      1.2476613E-27
   4.770000      1.3791021E-27
   4.780000      1.5145418E-27
   4.790000      1.6536520E-27
   4.800000      1.7960672E-27
   4.810000      1.9413836E-27
   4.820000      2.0891598E-27
   4.830000      2.2389157E-27
   4.840000      2.3901322E-27
   4.850000      2.5422495E-27
   4.860000      2.6946674E-27
   4.870000      2.8467438E-27
   4.880000      2.9977924E-27
   4.890000      3.1470812E-27
   4.900000      3.2938313E-27
   4.910000      3.4372160E-27
   4.920000      3.5763579E-27
   4.930000      3.7103275E-27
   4.940000      3.8381426E-27
   4.950000      3.9587663E-27
   4.960000      4.0711074E-27
   4.970000      4.1740221E-27
   4.980000      4.2663119E-27
   4.990000      4.3467264E-27
   5.000000      4.4139645E-27
   5.010000      4.4666784E-27
   5.020000      4.5034771E-27
   5.030000      4.5229313E-27
   5.040000      4.5235773E-27
   5.050000      4.5039231E-27
   5.060000      4.4624548E-27
   5.070000      4.3976426E-27
   5.080000      4.3079494E-27
   5.090000      4.1918351E-27
   5.100000      4.0477655E-27
   5.110000      3.8742196E-27
   5.120000      3.6696958E-27
   5.130000      3.4327198E-27
   5.140000      3.1618491E-27
   5.150000      2.8556821E-27
   5.160000      2.5128631E-27
   5.170000      2.1320898E-27
   5.180000      1.7121188E-27
   5.190000      1.2517708E-27
   5.200000      7.4993844E-28
   5.210000      2.0559543E-28
   5.220000     -3.8219639E-28
   5.230000     -1.0142809E-27
   5.240000     -1.6913979E-27
   5.250000     -2.4141694E-27
   5.260000     -3.1830871E-27
   5.270000     -3.9985033E-27
   5.280000     -4.8606158E-27
   5.290000     -5.7694498E-27
   5.300000     -6.7248443E-27
   5.310000     -7.7264327E-27
   5.320000     -8.7736278E-27
   5.330000     -9.8656000E-27
   5.340000     -1.1001260E-26
   5.350000     -1.2179237E-26
   5.360000     -1.3397869E-26
   5.370000     -1.4655173E-26
   5.380000     -1.5948837E-26
   5.390000     -1.7276197E-26
   5.400000     -1.8634227E-26
   5.410000     -2.0019529E-26
   5.420000     -2.1428325E-26
   5.430000     -2.2856434E-26
   5.440000     -2.4299278E-26
   5.450000     -2.5751867E-26
   5.460000     -2.7208799E-26
   5.470000     -2.8664256E-26
   5.480000     -3.0112004E-26
   5.490000     -3.1545389E-26
   5.500000     -3.2957333E-26
   5.510000     -3.4340348E-26
   5.520000     -3.5686517E-26
   5.530000     -3.6987500E-26
   5.540000     -3.8234535E-26
   5.550000     -3.9418458E-26
   5.560000     -4.0529670E-26
   5.570000     -4.1558175E-26
   5.580000     -4.2493555E-26
   5.590000     -4.3324984E-26
   5.600000     -4.4041235E-26
   5.610000     -4.4630693E-26
   5.620000     -4.5081364E-26
   5.630000     -4.5380866E-26
   5.640000     -4.5516485E-26
   5.650000     -4.5475184E-26
   5.660000     -4.5243623E-26
   5.670000     -4.4808212E-26
   5.680000     -4.4155115E-26
   5.690000     -4.3270315E-26
   5.700000     -4.2139677E-26
   5.710000     -4.0748971E-26
   5.720000     -3.9083966E-26
   5.730000     -3.7130490E-26
   5.740000     -3.4874490E-26
   5.750000     -3.2302125E-26
   5.760000     -2.9399841E-26
   5.770000     -2.6154468E-26
   5.780000     -2.2553267E-26
   5.790000     -1.8584047E-26
   5.800000     -1.4235251E-26
   5.810000     -9.4960495E-27
   5.820000     -4.3564401E-27
   5.830000      1.1926847E-27
   5.840000      7.1594258E-27
   5.850000      1.3550781E-26
   5.860000      2.0372558E-26
   5.870000      2.7629268E-26
   5.880000      3.5324020E-26
   5.890000      4.3458430E-26
   5.900000      5.2032526E-26
   5.910000      6.1044645E-26
   5.920000      7.0491279E-26
   5.930000      8.0367004E-26
   5.940000      9.0664339E-26
   5.950000      1.0137362E-25
   5.960000      1.1248285E-25
   5.970000      1.2397760E-25
   5.980000      1.3584094E-25
   5.990000      1.4805311E-25
   6.000000      1.6059157E-25
   6.010000      1.7343081E-25
   6.020000      1.8654218E-25
   6.030000      1.9989379E-25
   6.040000      2.1345035E-25
   6.050000      2.2717311E-25
   6.060000      2.4101966E-25
   6.070000      2.5494399E-25
   6.080000      2.6889623E-25
   6.090000      2.8282263E-25
   6.100000      2.9666564E-25
   6.110000      3.1036372E-25
   6.120000      3.2385134E-25
   6.130000      3.3705899E-25
   6.140000      3.4991323E-25
   6.150000      3.6233673E-25
   6.160000      3.7424831E-25
   6.170000      3.8556289E-25
   6.180000      3.9619173E-25
   6.190000      4.0604246E-25
   6.200000      4.1501913E-25
   6.210000      4.2302257E-25
   6.220000      4.2995005E-25
   6.230000      4.3569591E-25
   6.240000      4.4015170E-25
   6.250000      4.4320617E-25
   6.260000      4.4474558E-25
   6.270000      4.4465412E-25
   6.280000      4.4281395E-25
   6.290000      4.3910552E-25
   6.300000      4.3340807E-25
   6.310000      4.2559978E-25
   6.320000      4.1555822E-25
   6.330000      4.0316095E-25
   6.340000      3.8828572E-25
   6.350000      3.7081114E-25
   6.360000      3.5061734E-25
   6.370000      3.2758620E-25
   6.380000      3.0160213E-25
   6.390000      2.7255295E-25
   6.400000      2.4033025E-25
   6.410000      2.0483031E-25
   6.420000      1.6595524E-25
   6.430000      1.2361339E-25
   6.440000      7.7720265E-26
   6.450000      2.8199479E-26
   6.460000     -2.5016278E-26
   6.470000     -8.1984385E-26
   6.480000     -1.4275148E-25
   6.490000     -2.0735248E-25
   6.500000     -2.7580934E-25
   6.510000     -3.4813055E-25
   6.520000     -4.2430989E-25
   6.530000     -5.0432533E-25
   6.540000     -5.8813850E-25
   6.550000     -6.7569324E-25
   6.560000     -7.6691499E-25
   6.570000     -8.6170984E-25
   6.580000     -9.5996326E-25
   6.590000     -1.0615393E-24
   6.600000     -1.1662798E-24
   6.610000     -1.2740036E-24
   6.620000     -1.3845055E-24
   6.630000     -1.4975555E-24
   6.640000     -1.6128973E-24
   6.650000     -1.7302491E-24
   6.660000     -1.8493012E-24
   6.670000     -1.9697163E-24
   6.680000     -2.0911281E-24
   6.690000     -2.2131414E-24
   6.700000     -2.3353316E-24
   6.710000     -2.4572429E-24
   6.720000     -2.5783903E-24
   6.730000     -2.6982565E-24
   6.740000     -2.8162950E-24
   6.750000     -2.9319274E-24
   6.760000     -3.0445452E-24
   6.770000     -3.1535089E-24
   6.780000     -3.2581507E-24
   6.790000     -3.3577722E-24
   6.800000     -3.4516471E-24
   6.810000     -3.5390205E-24
   6.820000     -3.6191124E-24
   6.830000     -3.6911169E-24
   6.840000     -3.7542044E-24
   6.850000     -3.8075251E-24
   6.860000     -3.8502080E-24
   6.870000     -3.8813641E-24
   6.880000     -3.9000897E-24
   6.890000     -3.9054681E-24
   6.900000     -3.8965737E-24
   6.910000     -3.8724716E-24
   6.920000     -3.8322232E-24
   6.930000     -3.7748895E-24
   6.940000     -3.6995340E-24
   6.950000     -3.6052269E-24
   6.960000     -3.4910483E-24
   6.970000     -3.3560912E-24
   6.980000     -3.1994670E-24
   6.990000     -3.0203108E-24
   7.000000     -2.8177855E-24
   7.010000     -2.5910864E-24
   7.020000     -2.3394459E-24
   7.030000     -2.0621376E-24
   7.040000     -1.7584851E-24
   7.050000     -1.4278659E-24
   7.060000     -1.0697185E-24