  -2.600000      0.0000000E+00
  -2.590000      0.0000000E+00
  -2.580000      0.0000000E+00
  -2.570000      0.0000000E+00
  -2.560000      0.0000000E+00
  -2.550000      0.0000000E+00
  -2.540000      0.0000000E+00
  -2.530000      0.0000000E+00
  -2.520000      0.0000000E+00
  -2.510000      0.0000000E+00
  -2.500000      0.0000000E+00
  -2.490000      0.0000000E+00
  -2.480000      0.0000000E+00
  -2.470000      0.0000000E+00
  -2.460000      0.0000000E+00
  -2.450000      0.0000000E+00
  -2.440000      0.0000000E+00
  -2.430000      0.0000000E+00
  -2.420000      0.0000000E+00
  -2.410000      0.0000000E+00
  -2.400000      0.0000000E+00
  -2.390000      0.0000000E+00
  -2.380000      0.0000000E+00
  -2.370000      0.0000000E+00
  -2.360000      0.0000000E+00
  -2.350000      0.0000000E+00
  -2.340000      0.0000000E+00
  -2.330000      0.0000000E+00
  -2.320000      0.0000000E+00
  -2.310000      0.0000000E+00
  -2.300000      0.0000000E+00
  -2.290000      0.0000000E+00
  -2.280000      0.0000000E+00
  -2.270000      0.0000000E+00
  -2.260000      0.0000000E+00
  -2.250000      0.0000000E+00
  -2.240000      0.0000000E+00
  -2.230000      0.0000000E+00
  -2.220000      0.0000000E+00
  -2.210000      0.0000000E+00
  -2.200000      0.0000000E+00
  -2.190000      0.0000000E+00
  -2.180000      0.0000000E+00
  -2.170000      0.0000000E+00
  -2.160000      0.0000000E+00
  -2.150000      0.0000000E+00
  -2.140000      0.0000000E+00
  -2.130000      0.0000000E+00
  -2.120000      0.0000000E+00
  -2.110000      0.0000000E+00
  -2.100000      0.0000000E+00
  -2.090000      0.0000000E+00
  -2.080000      0.0000000E+00
  -2.070000      0.0000000E+00
  -2.060000      0.0000000E+00
  -2.050000      0.0000000E+00
  -2.040000      0.0000000E+00
  -2.030000      0.0000000E+00
  -2.020000      0.0000000E+00
  -2.010000      0.0000000E+00
  -2.000000      0.0000000E+00
  -1.990000      0.0000000E+00
  -1.980000      0.0000000E+00
  -1.970000      0.0000000E+00
  -1.960000      0.0000000E+00
  -1.950000      0.0000000E+00
  -1.940000      0.0000000E+00
  -1.930000      0.0000000E+00
  -1.920000      0.0000000E+00
  -1.910000      0.0000000E+00
  -1.900000      0.0000000E+00
  -1.890000      0.0000000E+00
  -1.880000      0.0000000E+00
  -1.870000      0.0000000E+00
  -1.860000      0.0000000E+00
  -1.850000      0.0000000E+00
  -1.840000      0.0000000E+00
  -1.830000      0.0000000E+00
  -1.820000      0.0000000E+00
  -1.810000      0.0000000E+00
  -1.800000      0.0000000E+00
  -1.790000      0.0000000E+00
  -1.780000      0.0000000E+00
  -1.770000      0.0000000E+00
  -1.760000      0.0000000E+00
  -1.750000      0.0000000E+00
  -1.740000      0.0000000E+00
  -1.730000      0.0000000E+00
  -1.720000      0.0000000E+00
  -1.710000      0.0000000E+00
  -1.700000      0.0000000E+00
  -1.690000      0.0000000E+00
  -1.680000      0.0000000E+00
  -1.670000      0.0000000E+00
  -1.660000      0.0000000E+00
  -1.650000      0.0000000E+00
  -1.640000      0.0000000E+00
  -1.630000      0.0000000E+00
  -1.620000      0.0000000E+00
  -1.610000      0.0000000E+00
  -1.600000      0.0000000E+00
  -1.590000      0.0000000E+00
  -1.580000      0.0000000E+00
  -1.570000      0.0000000E+00
  -1.560000      0.0000000E+00
  -1.550000      0.0000000E+00
  -1.540000      0.0000000E+00
  -1.530000      0.0000000E+00
  -1.520000      0.0000000E+00
  -1.510000      0.0000000E+00
  -1.500000      0.0000000E+00
  -1.490000      0.0000000E+00
  -1.480000      0.0000000E+00
  -1.470000      0.0000000E+00
  -1.460000      0.0000000E+00
  -1.450000      0.0000000E+00
  -1.440000      0.0000000E+00
  -1.430000      0.0000000E+00
  -1.420000      0.0000000E+00
  -1.410000      0.0000000E+00
  -1.400000      0.0000000E+00
  -1.390000      0.0000000E+00
  -1.380000      0.0000000E+00
  -1.370000      0.0000000E+00
  -1.360000      0.0000000E+00
  -1.350000      0.0000000E+00
  -1.340000      0.0000000E+00
  -1.330000      0.0000000E+00
  -1.320000      0.0000000E+00
  -1.310000      0.0000000E+00
  -1.300000      0.0000000E+00
  -1.290000      0.0000000E+00
  -1.280000      0.0000000E+00
  -1.270000      0.0000000E+00
  -1.260000      0.0000000E+00
  -1.250000      0.0000000E+00
  -1.240000      0.0000000E+00
  -1.230000      0.0000000E+00
  -1.220000      0.0000000E+00
  -1.210000      0.0000000E+00
  -1.200000      0.0000000E+00
  -1.190000      0.0000000E+00
  -1.180000      0.0000000E+00
  -1.170000      0.0000000E+00
  -1.160000      0.0000000E+00
  -1.150000      0.0000000E+00
  -1.140000      0.0000000E+00
  -1.130000      0.0000000E+00
  -1.120000      0.0000000E+00
  -1.110000      0.0000000E+00
  -1.100000      0.0000000E+00
  -1.090000      0.0000000E+00
  -1.080000      0.0000000E+00
  -1.070000      0.0000000E+00
  -1.060000      0.0000000E+00
  -1.050000      0.0000000E+00
  -1.040000      0.0000000E+00
  -1.030000      0.0000000E+00
  -1.020000      0.0000000E+00
  -1.010000      0.0000000E+00
  -1.000000      0.0000000E+00
 -0.9900000      0.0000000E+00
 -0.9800000      0.0000000E+00
 -0.9700000      0.0000000E+00
 -0.9600000      0.0000000E+00
 -0.9500000      0.0000000E+00
 -0.9400000      0.0000000E+00
 -0.9300000      0.0000000E+00
 -0.9200000      0.0000000E+00
 -0.9100000      0.0000000E+00
 -0.9000000      0.0000000E+00
 -0.8900000      0.0000000E+00
 -0.8800000      0.0000000E+00
 -0.8700000      0.0000000E+00
 -0.8600000      0.0000000E+00
 -0.8500000      0.0000000E+00
 -0.8400000      0.0000000E+00
 -0.8300000      0.0000000E+00
 -0.8200000      0.0000000E+00
 -0.8100000      0.0000000E+00
 -0.8000000      0.0000000E+00
 -0.7900000      0.0000000E+00
 -0.7800000      0.0000000E+00
 -0.7700000      0.0000000E+00
 -0.7600000      0.0000000E+00
 -0.7500000      0.0000000E+00
 -0.7400000      0.0000000E+00
 -0.7300000      0.0000000E+00
 -0.7200000      0.0000000E+00
 -0.7100000      0.0000000E+00
 -0.7000000      0.0000000E+00
 -0.6900000      0.0000000E+00
 -0.6800000      0.0000000E+00
 -0.6700000      0.0000000E+00
 -0.6600000      0.0000000E+00
 -0.6500000      0.0000000E+00
 -0.6400000      0.0000000E+00
 -0.6300000      0.0000000E+00
 -0.6200000      0.0000000E+00
 -0.6100000      0.0000000E+00
 -0.6000000      0.0000000E+00
 -0.5900000      0.0000000E+00
 -0.5800000      0.0000000E+00
 -0.5700000      0.0000000E+00
 -0.5600000      0.0000000E+00
 -0.5500000      0.0000000E+00
 -0.5400000      0.0000000E+00
 -0.5300000      0.0000000E+00
 -0.5200000      0.0000000E+00
 -0.5100000      0.0000000E+00
 -0.5000000      0.0000000E+00
 -0.4900000      0.0000000E+00
 -0.4800000      0.0000000E+00
 -0.4700000      0.0000000E+00
 -0.4600000      0.0000000E+00
 -0.4500000      0.0000000E+00
 -0.4400000      0.0000000E+00
 -0.4300000      0.0000000E+00
 -0.4200000      0.0000000E+00
 -0.4100000      0.0000000E+00
 -0.4000000      0.0000000E+00
 -0.3900000      0.0000000E+00
 -0.3800000      0.0000000E+00
 -0.3700000      0.0000000E+00
 -0.3600000      0.0000000E+00
 -0.3500000      0.0000000E+00
 -0.3400000      0.0000000E+00
 -0.3300000      0.0000000E+00
 -0.3200000      0.0000000E+00
 -0.3100000      0.0000000E+00
 -0.3000000      1.2005730E-38
 -0.2900000      1.5164132E-38
 -0.2800000      1.8395296E-38
 -0.2700000      1.9973346E-38
 -0.2600000      1.8425051E-38
 -0.2500000      1.3758091E-38
 -0.2400000      0.0000000E+00
 -0.2300000      0.0000000E+00
 -0.2200000     -2.1125218E-38
 -0.2100000     -3.7469900E-38
 -0.2000000     -5.6210661E-38
 -0.1900000     -7.7386164E-38
 -0.1800000     -9.7625617E-38
 -0.1700000     -1.1513069E-37
 -0.1600000     -1.2916166E-37
 -0.1500000     -1.3796402E-37
 -0.1400000     -1.3879358E-37
 -0.1300000     -1.3034053E-37
 -0.1200000     -1.1119121E-37
 -0.1100000     -7.9245659E-38
 -0.1000000     -3.4414632E-38
 -9.0000004E-02  2.0484785E-38
 -7.9999998E-02  8.2457200E-38
 -7.0000000E-02  1.5060452E-37
 -5.9999999E-02  2.3120485E-37
 -5.0000001E-02  3.2841539E-37
 -3.9999999E-02  4.3860301E-37
 -2.9999999E-02  5.5237490E-37
 -2.0000000E-02  6.6185560E-37
 -9.9999998E-03  7.6597109E-37
 -3.4694470E-17  8.7367852E-37
  9.9999998E-03  9.7740985E-37
  2.0000000E-02  1.0562897E-36
  2.9999999E-02  1.0762764E-36
  3.9999999E-02  1.0190847E-36
  5.0000001E-02  9.0241801E-37
  5.9999999E-02  7.1039236E-37
  7.0000000E-02  4.2924987E-37
  7.9999998E-02  2.3310252E-38
  9.0000004E-02 -5.5826547E-37
  0.1000000     -1.2774454E-36
  0.1100000     -2.1865138E-36
  0.1200000     -3.3096612E-36
  0.1300000     -4.5092796E-36
  0.1400000     -5.6826546E-36
  0.1500000     -6.7875228E-36
  0.1600000     -7.8010164E-36
  0.1700000     -8.6925382E-36
  0.1800000     -9.4036621E-36
  0.1900000     -9.6658826E-36
  0.2000000     -9.4272602E-36
  0.2100000     -8.7045622E-36
  0.2200000     -7.4156804E-36
  0.2300000     -5.4133283E-36
  0.2400000     -2.3025327E-36
  0.2500000      2.0933094E-36
  0.2600000      7.7996116E-36
  0.2700000      1.5012082E-35
  0.2800000      2.3908637E-35
  0.2900000      3.4459674E-35
  0.3000000      4.6716086E-35
  0.3100000      6.0720390E-35
  0.3200000      7.6852948E-35
  0.3300000      9.6751955E-35
  0.3400000      1.2058463E-34
  0.3500000      1.4657691E-34
  0.3600000      1.7478490E-34
  0.3700000      2.0604588E-34
  0.3800000      2.3711011E-34
  0.3900000      2.6406718E-34
  0.4000000      2.8811665E-34
  0.4100000      3.0908614E-34
  0.4200000      3.2718551E-34
  0.4300000      3.4661216E-34
  0.4400000      3.6707231E-34
  0.4500000      3.8593518E-34
  0.4600000      4.0290271E-34
  0.4700000      4.1782997E-34
  0.4800000      4.3029122E-34
  0.4900000      4.4363290E-34
  0.5000000      4.5873621E-34
  0.5100000      4.7314029E-34
  0.5200000      4.8602325E-34
  0.5300000      5.0249977E-34
  0.5400000      5.2012856E-34
  0.5500000      5.3213206E-34
  0.5600000      5.4171114E-34
  0.5700000      5.4998244E-34
  0.5800000      5.5865250E-34
  0.5900000      5.6358195E-34
  0.6000000      5.5743526E-34
  0.6100000      5.3624041E-34
  0.6200000      5.0381637E-34
  0.6300000      4.6350243E-34
  0.6400000      4.1040787E-34
  0.6500000      3.4334096E-34
  0.6600000      2.6245166E-34
  0.6700000      1.6762545E-34
  0.6800000      6.1864850E-35
  0.6900000     -5.7373905E-35
  0.7000000     -1.9594706E-34
  0.7100000     -3.4401623E-34
  0.7200000     -4.9328064E-34
  0.7300000     -6.4980919E-34
  0.7400000     -8.1390650E-34
  0.7500000     -9.7921710E-34
  0.7600000     -1.1429093E-33
  0.7700000     -1.3019474E-33
  0.7800000     -1.4530442E-33
  0.7900000     -1.5944174E-33
  0.8000000     -1.7237638E-33
  0.8100000     -1.8393147E-33
  0.8200000     -1.9392325E-33
  0.8300000     -2.0223763E-33
  0.8400000     -2.0880457E-33
  0.8500000     -2.1360742E-33
  0.8600000     -2.1677528E-33
  0.8700000     -2.1823576E-33
  0.8800000     -2.1799804E-33
  0.8900000     -2.1630771E-33
  0.9000000     -2.1332831E-33
  0.9100000     -2.0923046E-33
  0.9200000     -2.0418941E-33
  0.9300000     -1.9837966E-33
  0.9400000     -1.9214520E-33
  0.9500000     -1.8543357E-33
  0.9600000     -1.7814512E-33
  0.9700000     -1.7054557E-33
  0.9800000     -1.6268699E-33
  0.9900000     -1.5457113E-33
   1.000000     -1.4622860E-33
   1.010000     -1.3765817E-33
   1.020000     -1.2883975E-33
   1.030000     -1.1980451E-33
   1.040000     -1.1060818E-33
   1.050000     -1.0133714E-33
   1.060000     -9.2211746E-34
   1.070000     -8.3576987E-34
   1.080000     -7.5829993E-34
   1.090000     -6.9494092E-34
   1.100000     -6.5244620E-34
   1.110000     -6.3891355E-34
   1.120000     -6.6369192E-34
   1.130000     -7.3730523E-34
   1.140000     -8.7126879E-34
   1.150000     -1.0777600E-33
   1.160000     -1.3693423E-33
   1.170000     -1.7585917E-33
   1.180000     -2.2576170E-33
   1.190000     -2.8776745E-33
   1.200000     -3.6285714E-33
   1.210000     -4.5184034E-33
   1.220000     -5.5526838E-33
   1.230000     -6.7356980E-33
   1.240000     -8.0691927E-33
   1.250000     -9.5510532E-33
   1.260000     -1.1177183E-32
   1.270000     -1.2941128E-32
   1.280000     -1.4834398E-32
   1.290000     -1.6846944E-32
   1.300000     -1.8967747E-32
   1.310000     -2.1185485E-32
   1.320000     -2.3489479E-32
   1.330000     -2.5869795E-32
   1.340000     -2.8318411E-32
   1.350000     -3.0830352E-32
   1.360000     -3.3403559E-32
   1.370000     -3.6039537E-32
   1.380000     -3.8743533E-32
   1.390000     -4.1524523E-32
   1.400000     -4.4394927E-32
   1.410000     -4.7370112E-32
   1.420000     -5.0467617E-32
   1.430000     -5.3706121E-32
   1.440000     -5.7104211E-32
   1.450000     -6.0679071E-32
   1.460000     -6.4445244E-32
   1.470000     -6.8412719E-32
   1.480000     -7.2585912E-32
   1.490000     -7.6962789E-32
   1.500000     -8.1533428E-32
   1.510000     -8.6279563E-32
   1.520000     -9.1174815E-32
   1.530000     -9.6184655E-32
   1.540000     -1.0126703E-31
   1.550000     -1.0637390E-31
   1.560000     -1.1145299E-31
   1.570000     -1.1644981E-31
   1.580000     -1.2131026E-31
   1.590000     -1.2598338E-31
   1.600000     -1.3042415E-31
   1.610000     -1.3459637E-31
   1.620000     -1.3847516E-31
   1.630000     -1.4204929E-31
   1.640000     -1.4532278E-31
   1.650000     -1.4831602E-31
   1.660000     -1.5106599E-31
   1.670000     -1.5362559E-31
   1.680000     -1.5606218E-31
   1.690000     -1.5845510E-31
   1.700000     -1.6089233E-31
   1.710000     -1.6346658E-31
   1.720000     -1.6627056E-31
   1.730000     -1.6939206E-31
   1.740000     -1.7290886E-31
   1.750000     -1.7688388E-31
   1.760000     -1.8136063E-31
   1.770000     -1.8635962E-31
   1.780000     -1.9187553E-31
   1.790000     -1.9787590E-31
   1.800000     -2.0430129E-31
   1.810000     -2.1106678E-31
   1.820000     -2.1806539E-31
   1.830000     -2.2517274E-31
   1.840000     -2.3225361E-31
   1.850000     -2.3916958E-31
   1.860000     -2.4578722E-31
   1.870000     -2.5198722E-31
   1.880000     -2.5767328E-31
   1.890000     -2.6278066E-31
   1.900000     -2.6728358E-31
   1.910000     -2.7120136E-31
   1.920000     -2.7460197E-31
   1.930000     -2.7760397E-31
   1.940000     -2.8037536E-31
   1.950000     -2.8312931E-31
   1.960000     -2.8611744E-31
   1.970000     -2.8962016E-31
   1.980000     -2.9393427E-31
   1.990000     -2.9935894E-31
   2.000000     -3.0618021E-31
   2.010000     -3.1465475E-31
   2.020000     -3.2499351E-31
   2.030000     -3.3734682E-31
   2.040000     -3.5179144E-31
   2.050000     -3.6832033E-31
   2.060000     -3.8683561E-31
   2.070000     -4.0714620E-31
   2.080000     -4.2897000E-31
   2.090000     -4.5194081E-31
   2.100000     -4.7561950E-31
   2.110000     -4.9951048E-31
   2.120000     -5.2308154E-31
   2.130000     -5.4578626E-31
   2.140000     -5.6708805E-31
   2.150000     -5.8648582E-31
   2.160000     -6.0353707E-31
   2.170000     -6.1787919E-31
   2.180000     -6.2924640E-31
   2.190000     -6.3748206E-31
   2.200000     -6.4254317E-31
   2.210000     -6.4449821E-31
   2.220000     -6.4351672E-31
   2.230000     -6.3985012E-31
   2.240000     -6.3380568E-31
   2.250000     -6.2571263E-31
   2.260000     -6.1588282E-31
   2.270000     -6.0456728E-31
   2.280000     -5.9191017E-31
   2.290000     -5.7790486E-31
   2.300000     -5.6235048E-31
   2.310000     -5.4481572E-31
   2.320000     -5.2461076E-31
   2.330000     -5.0076751E-31
   2.340000     -4.7203551E-31
   2.350000     -4.3688663E-31
   2.360000     -3.9353668E-31
   2.370000     -3.3998259E-31
   2.380000     -2.7405043E-31
   2.390000     -1.9345480E-31
   2.400000     -9.5870110E-32
   2.410000      2.0992785E-32
   2.420000      1.5930890E-31
   2.430000      3.2106143E-31
   2.440000      5.0796586E-31
   2.450000      7.2140756E-31
   2.460000      9.6239443E-31
   2.470000      1.2315243E-30
   2.480000      1.5289677E-30
   2.490000      1.8544768E-30
   2.500000      2.2074138E-30
   2.510000      2.5868023E-30
   2.520000      2.9913978E-30
   2.530000      3.4197719E-30
   2.540000      3.8704094E-30
   2.550000      4.3418172E-30
   2.560000      4.8326269E-30
   2.570000      5.3416976E-30
   2.580000      5.8681972E-30
   2.590000      6.4116706E-30
   2.600000      6.9720891E-30
   2.610000      7.5498590E-30
   2.620000      8.1458042E-30
   2.630000      8.7611042E-30
   2.640000      9.3971983E-30
   2.650000      1.0055671E-29
   2.660000      1.0738086E-29
   2.670000      1.1445808E-29
   2.680000      1.2179808E-29
   2.690000      1.2940454E-29
   2.700000      1.3727312E-29
   2.710000      1.4538949E-29
   2.720000      1.5372782E-29
   2.730000      1.6224943E-29
   2.740000      1.7090195E-29
   2.750000      1.7961894E-29
   2.760000      1.8832015E-29
   2.770000      1.9691237E-29
   2.780000      2.0529074E-29
   2.790000      2.1334078E-29
   2.800000      2.2094073E-29
   2.810000      2.2796437E-29
   2.820000      2.3428405E-29
   2.830000      2.3977388E-29
   2.840000      2.4431270E-29
   2.850000      2.4778703E-29
   2.860000      2.5009350E-29
   2.870000      2.5114074E-29
   2.880000      2.5085075E-29
   2.890000      2.4915935E-29
   2.900000      2.4601581E-29
   2.910000      2.4138184E-29
   2.920000      2.3522968E-29
   2.930000      2.2753947E-29
   2.940000      2.1829600E-29
   2.950000      2.0748490E-29
   2.960000      1.9508917E-29
   2.970000      1.8108531E-29
   2.980000      1.6543989E-29
   2.990000      1.4810657E-29
   3.000000      1.2902407E-29
   3.010000      1.0811533E-29
   3.020000      8.5287558E-30
   3.030000      6.0433726E-30
   3.040000      3.3435295E-30
   3.050000      4.1666676E-31
   3.060000     -2.7499165E-30
   3.070000     -6.1683974E-30
   3.080000     -9.8496692E-30
   3.090000     -1.3802541E-29
   3.100000     -1.8032863E-29
   3.110000     -2.2542680E-29
   3.120000     -2.7329506E-29
   3.130000     -3.2385580E-29
   3.140000     -3.7697322E-29
   3.150000     -4.3244909E-29
   3.160000     -4.9002128E-29
   3.170000     -5.4936345E-29
   3.180000     -6.1008676E-29
   3.190000     -6.7174360E-29
   3.200000     -7.3383456E-29
   3.210000     -7.9581562E-29
   3.220000     -8.5710659E-29
   3.230000     -9.1710154E-29
   3.240000     -9.7517808E-29
   3.250000     -1.0307078E-28
   3.260000     -1.0830646E-28
   3.270000     -1.1316327E-28
   3.280000     -1.1758124E-28
   3.290000     -1.2150224E-28
   3.300000     -1.2487017E-28
   3.310000     -1.2763079E-28
   3.320000     -1.2973113E-28
   3.330000     -1.3111888E-28
   3.340000     -1.3174140E-28
   3.350000     -1.3154472E-28
   3.360000     -1.3047223E-28
   3.370000     -1.2846345E-28
   3.380000     -1.2545291E-28
   3.390000     -1.2136914E-28
   3.400000     -1.1613367E-28
   3.410000     -1.0966078E-28
   3.420000     -1.0185729E-28
   3.430000     -9.2622966E-29
   3.440000     -8.1851168E-29
   3.450000     -6.9430292E-29
   3.460000     -5.5245710E-29
   3.470000     -3.9181844E-29
   3.480000     -2.1124930E-29
   3.490000     -9.6595449E-31
   3.500000      2.1396110E-29
   3.510000      4.6050869E-29
   3.520000      7.3073152E-29
   3.530000      1.0252020E-28
   3.540000      1.3442845E-28
   3.550000      1.6881111E-28
   3.560000      2.0565617E-28
   3.570000      2.4492482E-28
   3.580000      2.8655110E-28
   3.590000      3.3044109E-28
   3.600000      3.7647361E-28
   3.610000      4.2450130E-28
   3.620000      4.7435173E-28
   3.630000      5.2582933E-28
   3.640000      5.7871759E-28
   3.650000      6.3278051E-28
   3.660000      6.8776514E-28
   3.670000      7.4340280E-28
   3.680000      7.9940999E-28
   3.690000      8.5548913E-28
   3.700000      9.1132790E-28
   3.710000      9.6659911E-28
   3.720000      1.0209580E-27
   3.730000      1.0740393E-27
   3.740000      1.1254546E-27
   3.750000      1.1747876E-27
   3.760000      1.2215901E-27
   3.770000      1.2653770E-27
   3.780000      1.3056208E-27
   3.790000      1.3417488E-27
   3.800000      1.3731376E-27
   3.810000      1.3991102E-27
   3.820000      1.4189348E-27
   3.830000      1.4318221E-27
   3.840000      1.4369294E-27
   3.850000      1.4333601E-27
   3.860000      1.4201682E-27
   3.870000      1.3963644E-27
   3.880000      1.3609231E-27
   3.890000      1.3127907E-27
   3.900000      1.2508957E-27
   3.910000      1.1741596E-27
   3.920000      1.0815070E-27
   3.930000      9.7187673E-28
   3.940000      8.4423380E-28
   3.950000      6.9758011E-28
   3.960000      5.3096348E-28
   3.970000      3.4348662E-28
   3.980000      1.3431457E-28
   3.990000     -9.7318907E-29
   4.000000     -3.5210744E-28
   4.010000     -6.3066829E-28
   4.020000     -9.3353956E-28
   4.030000     -1.2611797E-27
   4.040000     -1.6139665E-27
   4.050000     -1.9921954E-27
   4.060000     -2.3960791E-27
   4.070000     -2.8257448E-27
   4.080000     -3.2812315E-27
   4.090000     -3.7624825E-27
   4.100000     -4.2693383E-27
   4.110000     -4.8015290E-27
   4.120000     -5.3586582E-27
   4.130000     -5.9401866E-27
   4.140000     -6.5454170E-27
   4.150000     -7.1734727E-27
   4.160000     -7.8232676E-27
   4.170000     -8.4934890E-27
   4.180000     -9.1825697E-27
   4.190000     -9.8886596E-27
   4.200000     -1.0609598E-26
   4.210000     -1.1342898E-26
   4.220000     -1.2085715E-26
   4.230000     -1.2834827E-26
   4.240000     -1.3586621E-26
   4.250000     -1.4337085E-26
   4.260000     -1.5081788E-26
   4.270000     -1.5815878E-26
   4.280000     -1.6534096E-26
   4.290000     -1.7230765E-26
   4.300000     -1.7899798E-26
   4.310000     -1.8534714E-26
   4.320000     -1.9128654E-26
   4.330000     -1.9674394E-26
   4.340000     -2.0164356E-26
   4.350000     -2.0590638E-26
   4.360000     -2.0945017E-26
   4.370000     -2.1218973E-26
   4.380000     -2.1403699E-26
   4.390000     -2.1490101E-26
   4.400000     -2.1468830E-26
   4.410000     -2.1330275E-26
   4.420000     -2.1064558E-26
   4.430000     -2.0661560E-26
   4.440000     -2.0110915E-26
   4.450000     -1.9402002E-26
   4.460000     -1.8523978E-26
   4.470000     -1.7465759E-26
   4.480000     -1.6216073E-26
   4.490000     -1.4763449E-26
   4.500000     -1.3096256E-26
   4.510000     -1.1202741E-26
   4.520000     -9.0710830E-27
   4.530000     -6.6894580E-27
   4.540000     -4.0460969E-27
   4.550000     -1.1293705E-27
   4.560000      2.0721186E-27
   4.570000      5.5694300E-27
   4.580000      9.3731952E-27
   4.590000      1.3493494E-26
   4.600000      1.7939711E-26
   4.610000      2.2720441E-26
   4.620000      2.7843351E-26
   4.630000      3.3315035E-26
   4.640000      3.9140912E-26
   4.650000      4.5325079E-26
   4.660000      5.1870205E-26
   4.670000      5.8777410E-26
   4.680000      6.6046153E-26
   4.690000      7.3674130E-26
   4.700000      8.1657168E-26
   4.710000      8.9989129E-26
   4.720000      9.8661798E-26
   4.730000      1.0766482E-25
   4.740000      1.1698555E-25
   4.750000      1.2660900E-25
   4.760000      1.3651775E-25
   4.770000      1.4669177E-25
   4.780000      1.5710833E-25
   4.790000      1.6774192E-25
   4.800000      1.7856400E-25
   4.810000      1.8954299E-25
   4.820000      2.0064405E-25
   4.830000      2.1182890E-25
   4.840000      2.2305575E-25
   4.850000      2.3427894E-25
   4.860000      2.4544909E-25
   4.870000      2.5651257E-25
   4.880000      2.6741169E-25
   4.890000      2.7808424E-25
   4.900000      2.8846361E-25
   4.910000      2.9847869E-25
   4.920000      3.0805359E-25
   4.930000      3.1710774E-25
   4.940000      3.2555585E-25
   4.950000      3.3330793E-25
   4.960000      3.4026933E-25
   4.970000      3.4634075E-25
   4.980000      3.5141835E-25
   4.990000      3.5539397E-25
   5.000000      3.5815535E-25
   5.010000      3.5958605E-25
   5.020000      3.5956588E-25
   5.030000      3.5797132E-25
   5.040000      3.5467539E-25
   5.050000      3.4954804E-25
   5.060000      3.4245680E-25
   5.070000      3.3326674E-25
   5.080000      3.2184073E-25
   5.090000      3.0804013E-25
   5.100000      2.9172488E-25
   5.110000      2.7275383E-25
   5.120000      2.5098564E-25
   5.130000      2.2627893E-25
   5.140000      1.9849268E-25
   5.150000      1.6748698E-25
   5.160000      1.3312325E-25
   5.170000      9.5264951E-26
   5.180000      5.3778688E-26
   5.190000      8.5348217E-27
   5.200000     -4.0592144E-26
   5.210000     -9.3722580E-26
   5.220000     -1.5097041E-25
   5.230000     -2.1244214E-25
   5.240000     -2.7823590E-25
   5.250000     -3.4844045E-25
   5.260000     -4.2313390E-25
   5.270000     -5.0238242E-25
   5.280000     -5.8623883E-25
   5.290000     -6.7474138E-25
   5.300000     -7.6791231E-25
   5.310000     -8.6575621E-25
   5.320000     -9.6825912E-25
   5.330000     -1.0753869E-24
   5.340000     -1.1870839E-24
   5.350000     -1.3032712E-24
   5.360000     -1.4238447E-24
   5.370000     -1.5486754E-24
   5.380000     -1.6776066E-24
   5.390000     -1.8104529E-24
   5.400000     -1.9469986E-24
   5.410000     -2.0869972E-24
   5.420000     -2.2301689E-24
   5.430000     -2.3762003E-24
   5.440000     -2.5247422E-24
   5.450000     -2.6754091E-24
   5.460000     -2.8277776E-24
   5.470000     -2.9813856E-24
   5.480000     -3.1357306E-24
   5.490000     -3.2902680E-24
   5.500000     -3.4444109E-24
   5.510000     -3.5975292E-24
   5.520000     -3.7489483E-24
   5.530000     -3.8979463E-24
   5.540000     -4.0437566E-24
   5.550000     -4.1855642E-24
   5.560000     -4.3225057E-24
   5.570000     -4.4536716E-24
   5.580000     -4.5781022E-24
   5.590000     -4.6947885E-24
   5.600000     -4.8026743E-24
   5.610000     -4.9006536E-24
   5.620000     -4.9875739E-24
   5.630000     -5.0622372E-24
   5.640000     -5.1233976E-24
   5.650000     -5.1697680E-24
   5.660000     -5.2000177E-24
   5.670000     -5.2127747E-24
   5.680000     -5.2066303E-24
   5.690000     -5.1801407E-24
   5.700000     -5.1318309E-24
   5.710000     -5.0601968E-24
   5.720000     -4.9637088E-24
   5.730000     -4.8408181E-24
   5.740000     -4.6899591E-24
   5.750000     -4.5095545E-24
   5.760000     -4.2980195E-24
   5.770000     -4.0537677E-24
   5.780000     -3.7752181E-24
   5.790000     -3.4607991E-24
   5.800000     -3.1089586E-24
   5.810000     -2.7181674E-24
   5.820000     -2.2869265E-24
   5.830000     -1.8137766E-24
   5.840000     -1.2973029E-24
   5.850000     -7.3614557E-25
   5.860000     -1.2901476E-25
   5.870000      5.2530573E-25
   5.880000      1.2279544E-24
   5.890000      1.9799715E-24
   5.900000      2.7822915E-24
   5.910000      3.6357329E-24
   5.920000      4.5409875E-24
   5.930000      5.4986078E-24
   5.940000      6.5089895E-24
   5.950000      7.5723681E-24
   5.960000      8.6887948E-24
   5.970000      9.8581320E-24
   5.980000      1.1080034E-23
   5.990000      1.2353936E-23
   6.000000      1.3679039E-23
   6.010000      1.5054295E-23
   6.020000      1.6478399E-23
   6.030000      1.7949768E-23
   6.040000      1.9466533E-23
   6.050000      2.1026519E-23
   6.060000      2.2627232E-23
   6.070000      2.4265844E-23
   6.080000      2.5939192E-23
   6.090000      2.7643753E-23
   6.100000      2.9375640E-23
   6.110000      3.1130581E-23
   6.120000      3.2903918E-23
   6.130000      3.4690587E-23
   6.140000      3.6485117E-23
   6.150000      3.8281618E-23
   6.160000      4.0073771E-23
   6.170000      4.1854811E-23
   6.180000      4.3617543E-23
   6.190000      4.5354321E-23
   6.200000      4.7057039E-23
   6.210000      4.8717140E-23
   6.220000      5.0325609E-23
   6.230000      5.1872988E-23
   6.240000      5.3349350E-23
   6.250000      5.4744328E-23
   6.260000      5.6047097E-23
   6.270000      5.7246412E-23
   6.280000      5.8330578E-23
   6.290000      5.9287517E-23
   6.300000      6.0104701E-23
   6.310000      6.0769237E-23
   6.320000      6.1267905E-23
   6.330000      6.1587090E-23
   6.340000      6.1712879E-23
   6.350000      6.1631077E-23
   6.360000      6.1327233E-23
   6.370000      6.0786687E-23
   6.380000      5.9994551E-23
   6.390000      5.8935798E-23
   6.400000      5.7595309E-23
   6.410000      5.5957930E-23
   6.420000      5.4008466E-23
   6.430000      5.1731788E-23
   6.440000      4.9112868E-23
   6.450000      4.6136808E-23
   6.460000      4.2788992E-23
   6.470000      3.9055096E-23
   6.480000      3.4921134E-23
   6.490000      3.0373552E-23
   6.500000      2.5399308E-23
   6.510000      1.9986001E-23
   6.520000      1.4121855E-23
   6.530000      7.7958682E-24
   6.540000      9.9793823E-25
   6.550000     -6.2811286E-24
   6.560000     -1.4049471E-23
   6.570000     -2.2314073E-23
   6.580000     -3.1080678E-23
   6.590000     -4.0353681E-23
   6.600000     -5.0136049E-23
   6.610000     -6.0429156E-23
   6.620000     -7.1232701E-23
   6.630000     -8.2544607E-23
   6.640000     -9.4360960E-23
   6.650000     -1.0667583E-22
   6.660000     -1.1948111E-22
   6.670000     -1.3276646E-22
   6.680000     -1.4651925E-22
   6.690000     -1.6072439E-22
   6.700000     -1.7536415E-22
   6.710000     -1.9041820E-22
   6.720000     -2.0586340E-22
   6.730000     -2.2167380E-22
   6.740000     -2.3782031E-22
   6.750000     -2.5427092E-22
   6.760000     -2.7099036E-22
   6.770000     -2.8794009E-22
   6.780000     -3.0507829E-22
   6.790000     -3.2235969E-22
   6.800000     -3.3973558E-22
   6.810000     -3.5715368E-22
   6.820000     -3.7455818E-22
   6.830000     -3.9188949E-22
   6.840000     -4.0908446E-22
   6.850000     -4.2607627E-22
   6.860000     -4.4279442E-22
   6.870000     -4.5916456E-22
   6.880000     -4.7510884E-22
   6.890000     -4.9054562E-22
   6.900000     -5.0538963E-22
   6.910000     -5.1955222E-22
   6.920000     -5.3294115E-22
   6.930000     -5.4546069E-22
   6.940000     -5.5701198E-22
   6.950000     -5.6749300E-22
   6.960000     -5.7679838E-22
   6.970000     -5.8482033E-22
   6.980000     -5.9144812E-22
   6.990000     -5.9656863E-22
   7.000000     -6.0006637E-22
   7.010000     -6.0182398E-22
   7.020000     -6.0172210E-22
   7.030000     -5.9964016E-22
   7.040000     -5.9545639E-22
   7.050000     -5.8904807E-22
   7.060000     -5.8029204E-22