  -2.600000      0.0000000E+00
  -2.590000      0.0000000E+00
  -2.580000      0.0000000E+00
  -2.570000      0.0000000E+00
  -2.560000      0.0000000E+00
  -2.550000      0.0000000E+00
  -2.540000      0.0000000E+00
  -2.530000      0.0000000E+00
  -2.520000      0.0000000E+00
  -2.510000      0.0000000E+00
  -2.500000      0.0000000E+00
  -2.490000      0.0000000E+00
  -2.480000      0.0000000E+00
  -2.470000      0.0000000E+00
  -2.460000      0.0000000E+00
  -2.450000      0.0000000E+00
  -2.440000      0.0000000E+00
  -2.430000      0.0000000E+00
  -2.420000      0.0000000E+00
  -2.410000      0.0000000E+00
  -2.400000      0.0000000E+00
  -2.390000      0.0000000E+00
  -2.380000      0.0000000E+00
  -2.370000      0.0000000E+00
  -2.360000      0.0000000E+00
  -2.350000      0.0000000E+00
  -2.340000      0.0000000E+00
  -2.330000      0.0000000E+00
  -2.320000      0.0000000E+00
  -2.310000      0.0000000E+00
  -2.300000      0.0000000E+00
  -2.290000      0.0000000E+00
  -2.280000      0.0000000E+00
  -2.270000      0.0000000E+00
  -2.260000      0.0000000E+00
  -2.250000      0.0000000E+00
  -2.240000      0.0000000E+00
  -2.230000      0.0000000E+00
  -2.220000      0.0000000E+00
  -2.210000      0.0000000E+00
  -2.200000      0.0000000E+00
  -2.190000      0.0000000E+00
  -2.180000      0.0000000E+00
  -2.170000      0.0000000E+00
  -2.160000      0.0000000E+00
  -2.150000      0.0000000E+00
  -2.140000      0.0000000E+00
  -2.130000      0.0000000E+00
  -2.120000      0.0000000E+00
  -2.110000      0.0000000E+00
  -2.100000      0.0000000E+00
  -2.090000      0.0000000E+00
  -2.080000      0.0000000E+00
  -2.070000      0.0000000E+00
  -2.060000      0.0000000E+00
  -2.050000      0.0000000E+00
  -2.040000      0.0000000E+00
  -2.030000      0.0000000E+00
  -2.020000      0.0000000E+00
  -2.010000      0.0000000E+00
  -2.000000      0.0000000E+00
  -1.990000      0.0000000E+00
  -1.980000      0.0000000E+00
  -1.970000      0.0000000E+00
  -1.960000      0.0000000E+00
  -1.950000      0.0000000E+00
  -1.940000      0.0000000E+00
  -1.930000      0.0000000E+00
  -1.920000      0.0000000E+00
  -1.910000      0.0000000E+00
  -1.900000      0.0000000E+00
  -1.890000      0.0000000E+00
  -1.880000      0.0000000E+00
  -1.870000      0.0000000E+00
  -1.860000      0.0000000E+00
  -1.850000      0.0000000E+00
  -1.840000      0.0000000E+00
  -1.830000      0.0000000E+00
  -1.820000      0.0000000E+00
  -1.810000      0.0000000E+00
  -1.800000      0.0000000E+00
  -1.790000      0.0000000E+00
  -1.780000      0.0000000E+00
  -1.770000      0.0000000E+00
  -1.760000      0.0000000E+00
  -1.750000      0.0000000E+00
  -1.740000      0.0000000E+00
  -1.730000      0.0000000E+00
  -1.720000      0.0000000E+00
  -1.710000      0.0000000E+00
  -1.700000      0.0000000E+00
  -1.690000      0.0000000E+00
  -1.680000      0.0000000E+00
  -1.670000      0.0000000E+00
  -1.660000      0.0000000E+00
  -1.650000      0.0000000E+00
  -1.640000      0.0000000E+00
  -1.630000      0.0000000E+00
  -1.620000      0.0000000E+00
  -1.610000      0.0000000E+00
  -1.600000      0.0000000E+00
  -1.590000      0.0000000E+00
  -1.580000      0.0000000E+00
  -1.570000      0.0000000E+00
  -1.560000      0.0000000E+00
  -1.550000      0.0000000E+00
  -1.540000      0.0000000E+00
  -1.530000      0.0000000E+00
  -1.520000      0.0000000E+00
  -1.510000      0.0000000E+00
  -1.500000      0.0000000E+00
  -1.490000      0.0000000E+00
  -1.480000      0.0000000E+00
  -1.470000      0.0000000E+00
  -1.460000      0.0000000E+00
  -1.450000      0.0000000E+00
  -1.440000      0.0000000E+00
  -1.430000      0.0000000E+00
  -1.420000      0.0000000E+00
  -1.410000      0.0000000E+00
  -1.400000      0.0000000E+00
  -1.390000      0.0000000E+00
  -1.380000      0.0000000E+00
  -1.370000      0.0000000E+00
  -1.360000      0.0000000E+00
  -1.350000      0.0000000E+00
  -1.340000      0.0000000E+00
  -1.330000      0.0000000E+00
  -1.320000      0.0000000E+00
  -1.310000      0.0000000E+00
  -1.300000      0.0000000E+00
  -1.290000      0.0000000E+00
  -1.280000      0.0000000E+00
  -1.270000      0.0000000E+00
  -1.260000      0.0000000E+00
  -1.250000      0.0000000E+00
  -1.240000      0.0000000E+00
  -1.230000      0.0000000E+00
  -1.220000      0.0000000E+00
  -1.210000      0.0000000E+00
  -1.200000      0.0000000E+00
  -1.190000      0.0000000E+00
  -1.180000      0.0000000E+00
  -1.170000      0.0000000E+00
  -1.160000      0.0000000E+00
  -1.150000      0.0000000E+00
  -1.140000      0.0000000E+00
  -1.130000      0.0000000E+00
  -1.120000      0.0000000E+00
  -1.110000      0.0000000E+00
  -1.100000      0.0000000E+00
  -1.090000      0.0000000E+00
  -1.080000      0.0000000E+00
  -1.070000      0.0000000E+00
  -1.060000      0.0000000E+00
  -1.050000      0.0000000E+00
  -1.040000      0.0000000E+00
  -1.030000      0.0000000E+00
  -1.020000      0.0000000E+00
  -1.010000      0.0000000E+00
  -1.000000      0.0000000E+00
 -0.9900000      0.0000000E+00
 -0.9800000      0.0000000E+00
 -0.9700000      0.0000000E+00
 -0.9600000      0.0000000E+00
 -0.9500000      0.0000000E+00
 -0.9400000      0.0000000E+00
 -0.9300000      0.0000000E+00
 -0.9200000      0.0000000E+00
 -0.9100000      0.0000000E+00
 -0.9000000      0.0000000E+00
 -0.8900000      0.0000000E+00
 -0.8800000      0.0000000E+00
 -0.8700000      0.0000000E+00
 -0.8600000      0.0000000E+00
 -0.8500000      0.0000000E+00
 -0.8400000      0.0000000E+00
 -0.8300000      0.0000000E+00
 -0.8200000      0.0000000E+00
 -0.8100000      0.0000000E+00
 -0.8000000      0.0000000E+00
 -0.7900000      0.0000000E+00
 -0.7800000      0.0000000E+00
 -0.7700000      0.0000000E+00
 -0.7600000      0.0000000E+00
 -0.7500000      0.0000000E+00
 -0.7400000      0.0000000E+00
 -0.7300000      0.0000000E+00
 -0.7200000      0.0000000E+00
 -0.7100000      0.0000000E+00
 -0.7000000      0.0000000E+00
 -0.6900000      0.0000000E+00
 -0.6800000      0.0000000E+00
 -0.6700000      0.0000000E+00
 -0.6600000      0.0000000E+00
 -0.6500000      0.0000000E+00
 -0.6400000      0.0000000E+00
 -0.6300000      0.0000000E+00
 -0.6200000      0.0000000E+00
 -0.6100000      0.0000000E+00
 -0.6000000      0.0000000E+00
 -0.5900000      0.0000000E+00
 -0.5800000      0.0000000E+00
 -0.5700000      0.0000000E+00
 -0.5600000      0.0000000E+00
 -0.5500000      0.0000000E+00
 -0.5400000      0.0000000E+00
 -0.5300000      0.0000000E+00
 -0.5200000      0.0000000E+00
 -0.5100000      0.0000000E+00
 -0.5000000      0.0000000E+00
 -0.4900000      0.0000000E+00
 -0.4800000      0.0000000E+00
 -0.4700000      0.0000000E+00
 -0.4600000      0.0000000E+00
 -0.4500000      0.0000000E+00
 -0.4400000      0.0000000E+00
 -0.4300000      0.0000000E+00
 -0.4200000      0.0000000E+00
 -0.4100000      0.0000000E+00
 -0.4000000      0.0000000E+00
 -0.3900000      0.0000000E+00
 -0.3800000      0.0000000E+00
 -0.3700000      0.0000000E+00
 -0.3600000      0.0000000E+00
 -0.3500000      0.0000000E+00
 -0.3400000      0.0000000E+00
 -0.3300000      0.0000000E+00
 -0.3200000      0.0000000E+00
 -0.3100000      0.0000000E+00
 -0.3000000      0.0000000E+00
 -0.2900000      0.0000000E+00
 -0.2800000      0.0000000E+00
 -0.2700000      0.0000000E+00
 -0.2600000      0.0000000E+00
 -0.2500000      0.0000000E+00
 -0.2400000      0.0000000E+00
 -0.2300000      0.0000000E+00
 -0.2200000      0.0000000E+00
 -0.2100000      0.0000000E+00
 -0.2000000      0.0000000E+00
 -0.1900000      0.0000000E+00
 -0.1800000      0.0000000E+00
 -0.1700000      0.0000000E+00
 -0.1600000      0.0000000E+00
 -0.1500000      0.0000000E+00
 -0.1400000      0.0000000E+00
 -0.1300000      0.0000000E+00
 -0.1200000      0.0000000E+00
 -0.1100000      0.0000000E+00
 -0.1000000      0.0000000E+00
 -9.0000004E-02  0.0000000E+00
 -7.9999998E-02  0.0000000E+00
 -7.0000000E-02  0.0000000E+00
 -5.9999999E-02  0.0000000E+00
 -5.0000001E-02  0.0000000E+00
 -3.9999999E-02  0.0000000E+00
 -2.9999999E-02  0.0000000E+00
 -2.0000000E-02  0.0000000E+00
 -9.9999998E-03  0.0000000E+00
 -3.4694470E-17  0.0000000E+00
  9.9999998E-03  0.0000000E+00
  2.0000000E-02  0.0000000E+00
  2.9999999E-02  0.0000000E+00
  3.9999999E-02  0.0000000E+00
  5.0000001E-02  0.0000000E+00
  5.9999999E-02  0.0000000E+00
  7.0000000E-02  0.0000000E+00
  7.9999998E-02  0.0000000E+00
  9.0000004E-02  0.0000000E+00
  0.1000000      0.0000000E+00
  0.1100000      0.0000000E+00
  0.1200000      0.0000000E+00
  0.1300000      0.0000000E+00
  0.1400000      0.0000000E+00
  0.1500000      0.0000000E+00
  0.1600000      0.0000000E+00
  0.1700000      0.0000000E+00
  0.1800000      0.0000000E+00
  0.1900000      0.0000000E+00
  0.2000000      0.0000000E+00
  0.2100000      0.0000000E+00
  0.2200000      0.0000000E+00
  0.2300000      0.0000000E+00
  0.2400000      0.0000000E+00
  0.2500000      0.0000000E+00
  0.2600000      0.0000000E+00
  0.2700000      0.0000000E+00
  0.2800000      0.0000000E+00
  0.2900000      0.0000000E+00
  0.3000000      0.0000000E+00
  0.3100000      0.0000000E+00
  0.3200000      0.0000000E+00
  0.3300000      0.0000000E+00
  0.3400000      0.0000000E+00
  0.3500000      0.0000000E+00
  0.3600000      0.0000000E+00
  0.3700000      0.0000000E+00
  0.3800000      0.0000000E+00
  0.3900000      0.0000000E+00
  0.4000000      0.0000000E+00
  0.4100000      0.0000000E+00
  0.4200000      0.0000000E+00
  0.4300000      0.0000000E+00
  0.4400000      0.0000000E+00
  0.4500000      0.0000000E+00
  0.4600000      0.0000000E+00
  0.4700000      0.0000000E+00
  0.4800000      0.0000000E+00
  0.4900000      0.0000000E+00
  0.5000000      0.0000000E+00
  0.5100000      0.0000000E+00
  0.5200000      0.0000000E+00
  0.5300000      0.0000000E+00
  0.5400000      0.0000000E+00
  0.5500000      0.0000000E+00
  0.5600000      0.0000000E+00
  0.5700000      0.0000000E+00
  0.5800000      0.0000000E+00
  0.5900000      0.0000000E+00
  0.6000000      0.0000000E+00
  0.6100000      0.0000000E+00
  0.6200000      0.0000000E+00
  0.6300000      0.0000000E+00
  0.6400000      0.0000000E+00
  0.6500000      0.0000000E+00
  0.6600000      0.0000000E+00
  0.6700000      0.0000000E+00
  0.6800000      0.0000000E+00
  0.6900000      0.0000000E+00
  0.7000000      0.0000000E+00
  0.7100000      0.0000000E+00
  0.7200000      0.0000000E+00
  0.7300000      0.0000000E+00
  0.7400000      0.0000000E+00
  0.7500000      0.0000000E+00
  0.7600000      0.0000000E+00
  0.7700000      0.0000000E+00
  0.7800000      0.0000000E+00
  0.7900000      0.0000000E+00
  0.8000000      0.0000000E+00
  0.8100000      0.0000000E+00
  0.8200000      0.0000000E+00
  0.8300000      0.0000000E+00
  0.8400000      0.0000000E+00
  0.8500000      0.0000000E+00
  0.8600000      0.0000000E+00
  0.8700000      0.0000000E+00
  0.8800000      0.0000000E+00
  0.8900000      0.0000000E+00
  0.9000000      0.0000000E+00
  0.9100000      0.0000000E+00
  0.9200000      0.0000000E+00
  0.9300000      0.0000000E+00
  0.9400000      0.0000000E+00
  0.9500000      0.0000000E+00
  0.9600000      0.0000000E+00
  0.9700000      0.0000000E+00
  0.9800000      0.0000000E+00
  0.9900000      0.0000000E+00
   1.000000      0.0000000E+00
   1.010000      0.0000000E+00
   1.020000      0.0000000E+00
   1.030000      0.0000000E+00
   1.040000      0.0000000E+00
   1.050000      0.0000000E+00
   1.060000      0.0000000E+00
   1.070000      0.0000000E+00
   1.080000      0.0000000E+00
   1.090000      0.0000000E+00
   1.100000      0.0000000E+00
   1.110000      0.0000000E+00
   1.120000      0.0000000E+00
   1.130000      0.0000000E+00
   1.140000      0.0000000E+00
   1.150000      0.0000000E+00
   1.160000      0.0000000E+00
   1.170000      0.0000000E+00
   1.180000      0.0000000E+00
   1.190000      0.0000000E+00
   1.200000      0.0000000E+00
   1.210000      0.0000000E+00
   1.220000      0.0000000E+00
   1.230000      0.0000000E+00
   1.240000      0.0000000E+00
   1.250000      0.0000000E+00
   1.260000      0.0000000E+00
   1.270000      0.0000000E+00
   1.280000      0.0000000E+00
   1.290000      0.0000000E+00
   1.300000      0.0000000E+00
   1.310000      0.0000000E+00
   1.320000      0.0000000E+00
   1.330000      0.0000000E+00
   1.340000      0.0000000E+00
   1.350000      0.0000000E+00
   1.360000      0.0000000E+00
   1.370000      0.0000000E+00
   1.380000      0.0000000E+00
   1.390000      0.0000000E+00
   1.400000      0.0000000E+00
   1.410000      0.0000000E+00
   1.420000      0.0000000E+00
   1.430000      0.0000000E+00
   1.440000      0.0000000E+00
   1.450000      0.0000000E+00
   1.460000      0.0000000E+00
   1.470000      0.0000000E+00
   1.480000      0.0000000E+00
   1.490000      0.0000000E+00
   1.500000      0.0000000E+00
   1.510000      0.0000000E+00
   1.520000      0.0000000E+00
   1.530000      0.0000000E+00
   1.540000      0.0000000E+00
   1.550000      0.0000000E+00
   1.560000      0.0000000E+00
   1.570000      0.0000000E+00
   1.580000      0.0000000E+00
   1.590000      0.0000000E+00
   1.600000      0.0000000E+00
   1.610000      0.0000000E+00
   1.620000      0.0000000E+00
   1.630000      0.0000000E+00
   1.640000      0.0000000E+00
   1.650000      0.0000000E+00
   1.660000      0.0000000E+00
   1.670000      0.0000000E+00
   1.680000      0.0000000E+00
   1.690000      0.0000000E+00
   1.700000      0.0000000E+00
   1.710000      0.0000000E+00
   1.720000      0.0000000E+00
   1.730000      0.0000000E+00
   1.740000      0.0000000E+00
   1.750000      0.0000000E+00
   1.760000      0.0000000E+00
   1.770000      0.0000000E+00
   1.780000      0.0000000E+00
   1.790000      0.0000000E+00
   1.800000      0.0000000E+00
   1.810000      0.0000000E+00
   1.820000      0.0000000E+00
   1.830000      0.0000000E+00
   1.840000      0.0000000E+00
   1.850000      0.0000000E+00
   1.860000      0.0000000E+00
   1.870000      0.0000000E+00
   1.880000      0.0000000E+00
   1.890000      0.0000000E+00
   1.900000      0.0000000E+00
   1.910000      0.0000000E+00
   1.920000      0.0000000E+00
   1.930000      0.0000000E+00
   1.940000      0.0000000E+00
   1.950000      0.0000000E+00
   1.960000      0.0000000E+00
   1.970000      0.0000000E+00
   1.980000      0.0000000E+00
   1.990000      0.0000000E+00
   2.000000      0.0000000E+00
   2.010000      0.0000000E+00
   2.020000      0.0000000E+00
   2.030000      0.0000000E+00
   2.040000      0.0000000E+00
   2.050000      0.0000000E+00
   2.060000      0.0000000E+00
   2.070000      0.0000000E+00
   2.080000      0.0000000E+00
   2.090000      0.0000000E+00
   2.100000      0.0000000E+00
   2.110000      0.0000000E+00
   2.120000      0.0000000E+00
   2.130000      0.0000000E+00
   2.140000      0.0000000E+00
   2.150000      0.0000000E+00
   2.160000      0.0000000E+00
   2.170000      0.0000000E+00
   2.180000      0.0000000E+00
   2.190000      0.0000000E+00
   2.200000      0.0000000E+00
   2.210000      0.0000000E+00
   2.220000      0.0000000E+00
   2.230000      0.0000000E+00
   2.240000      0.0000000E+00
   2.250000      0.0000000E+00
   2.260000      0.0000000E+00
   2.270000      0.0000000E+00
   2.280000      0.0000000E+00
   2.290000      0.0000000E+00
   2.300000      0.0000000E+00
   2.310000     -1.3322988E-38
   2.320000     -1.7370077E-38
   2.330000     -2.1862453E-38
   2.340000     -2.6796066E-38
   2.350000     -3.2133326E-38
   2.360000     -3.7566842E-38
   2.370000     -4.3279501E-38
   2.380000     -4.8970449E-38
   2.390000     -5.4498700E-38
   2.400000     -6.0672569E-38
   2.410000     -6.7409121E-38
   2.420000     -7.4095663E-38
   2.430000     -8.0271981E-38
   2.440000     -8.5751109E-38
   2.450000     -8.9358270E-38
   2.460000     -9.0266995E-38
   2.470000     -8.9425341E-38
   2.480000     -8.7520248E-38
   2.490000     -8.4431730E-38
   2.500000     -8.0111135E-38
   2.510000     -7.3882094E-38
   2.520000     -6.5409574E-38
   2.530000     -5.5605827E-38
   2.540000     -4.2735492E-38
   2.550000     -2.6718774E-38
   2.560000      0.0000000E+00
   2.570000      0.0000000E+00
   2.580000      2.8281572E-38
   2.590000      4.7667667E-38
   2.600000      6.9251929E-38
   2.610000      9.2980733E-38
   2.620000      1.2199021E-37
   2.630000      1.5677601E-37
   2.640000      1.9412665E-37
   2.650000      2.3397913E-37
   2.660000      2.7731138E-37
   2.670000      3.2305465E-37
   2.680000      3.6828693E-37
   2.690000      4.1109541E-37
   2.700000      4.4738505E-37
   2.710000      4.7956348E-37
   2.720000      5.1335002E-37
   2.730000      5.4774999E-37
   2.740000      5.8027500E-37
   2.750000      6.1157042E-37
   2.760000      6.4010175E-37
   2.770000      6.6423834E-37
   2.780000      6.8181708E-37
   2.790000      6.9060105E-37
   2.800000      6.8731519E-37
   2.810000      6.7509139E-37
   2.820000      6.5100538E-37
   2.830000      6.0890893E-37
   2.840000      5.5571990E-37
   2.850000      4.8683109E-37
   2.860000      3.9619263E-37
   2.870000      2.9358528E-37
   2.880000      1.7872518E-37
   2.890000      3.6426476E-38
   2.900000     -1.5403874E-37
   2.910000     -3.7729286E-37
   2.920000     -6.3286952E-37
   2.930000     -9.1985581E-37
   2.940000     -1.2115566E-36
   2.950000     -1.5111601E-36
   2.960000     -1.8309973E-36
   2.970000     -2.1684276E-36
   2.980000     -2.5251678E-36
   2.990000     -2.9053305E-36
   3.000000     -3.2733611E-36
   3.010000     -3.6015571E-36
   3.020000     -3.9193420E-36
   3.030000     -4.2528086E-36
   3.040000     -4.5214252E-36
   3.050000     -4.7103915E-36
   3.060000     -4.8742554E-36
   3.070000     -5.0410810E-36
   3.080000     -5.2284416E-36
   3.090000     -5.3804053E-36
   3.100000     -5.3351444E-36
   3.110000     -4.8597791E-36
   3.120000     -4.1690395E-36
   3.130000     -3.5036777E-36
   3.140000     -2.7208533E-36
   3.150000     -1.7620916E-36
   3.160000     -7.4287509E-37
   3.170000      2.1828829E-37
   3.180000      1.2132827E-36
   3.190000      2.3474473E-36
   3.200000      3.5018909E-36
   3.210000      4.5769369E-36
   3.220000      5.6255293E-36
   3.230000      6.6405860E-36
   3.240000      7.5997173E-36
   3.250000      8.4257296E-36
   3.260000      9.1132330E-36
   3.270000      9.8057215E-36
   3.280000      1.0597914E-35
   3.290000      1.1523319E-35
   3.300000      1.2582289E-35
   3.310000      1.3758701E-35
   3.320000      1.4964007E-35
   3.330000      1.6130980E-35
   3.340000      1.7304409E-35
   3.350000      1.8544359E-35
   3.360000      1.9948207E-35
   3.370000      2.1414804E-35
   3.380000      2.2852966E-35
   3.390000      2.4287748E-35
   3.400000      2.5588779E-35
   3.410000      2.6785926E-35
   3.420000      2.8061610E-35
   3.430000      2.9132736E-35
   3.440000      2.9772451E-35
   3.450000      3.0075413E-35
   3.460000      2.9956492E-35
   3.470000      2.9389247E-35
   3.480000      2.8320626E-35
   3.490000      2.6622023E-35
   3.500000      2.4321429E-35
   3.510000      2.1213512E-35
   3.520000      1.6535132E-35
   3.530000      1.0465717E-35
   3.540000      3.7262493E-36
   3.550000     -3.4951915E-36
   3.560000     -1.1208014E-35
   3.570000     -1.9395971E-35
   3.580000     -2.7273067E-35
   3.590000     -3.4845515E-35
   3.600000     -4.2872219E-35
   3.610000     -5.1068405E-35
   3.620000     -5.9416607E-35
   3.630000     -6.8072826E-35
   3.640000     -7.6768649E-35
   3.650000     -8.5382859E-35
   3.660000     -9.3881706E-35
   3.670000     -1.0231925E-34
   3.680000     -1.1060761E-34
   3.690000     -1.1856508E-34
   3.700000     -1.2598433E-34
   3.710000     -1.3307131E-34
   3.720000     -1.4006922E-34
   3.730000     -1.4715397E-34
   3.740000     -1.5391320E-34
   3.750000     -1.6019240E-34
   3.760000     -1.6650278E-34
   3.770000     -1.7304794E-34
   3.780000     -1.7952997E-34
   3.790000     -1.8536815E-34
   3.800000     -1.9047761E-34
   3.810000     -1.9198080E-34
   3.820000     -1.8808955E-34
   3.830000     -1.8117154E-34
   3.840000     -1.7551393E-34
   3.850000     -1.6800243E-34
   3.860000     -1.4996331E-34
   3.870000     -1.2594861E-34
   3.880000     -1.0125752E-34
   3.890000     -7.3473058E-35
   3.900000     -4.2723692E-35
   3.910000     -8.1766538E-36
   3.920000      2.6341029E-35
   3.930000      6.0419537E-35
   3.940000      9.8627190E-35
   3.950000      1.3300028E-34
   3.960000      1.6094985E-34
   3.970000      1.8841104E-34
   3.980000      2.1647796E-34
   3.990000      2.4547272E-34
   4.000000      2.7563770E-34
   4.010000      3.0700721E-34
   4.020000      3.4017952E-34
   4.030000      3.7591859E-34
   4.040000      4.1433458E-34
   4.050000      4.5555590E-34
   4.060000      4.9937190E-34
   4.070000      5.3903519E-34
   4.080000      5.7335251E-34
   4.090000      6.1175274E-34
   4.100000      6.5632639E-34
   4.110000      7.0377903E-34
   4.120000      7.5459147E-34
   4.130000      8.0592389E-34
   4.140000      8.5101337E-34
   4.150000      8.9543916E-34
   4.160000      9.4348565E-34
   4.170000      9.8859865E-34
   4.180000      1.0284628E-33
   4.190000      1.0627461E-33
   4.200000      1.0918453E-33
   4.210000      1.1166345E-33
   4.220000      1.1322441E-33
   4.230000      1.1360685E-33
   4.240000      1.1275455E-33
   4.250000      1.1060582E-33
   4.260000      1.0733543E-33
   4.270000      1.0284322E-33
   4.280000      9.6812181E-34
   4.290000      8.9255277E-34
   4.300000      8.0340346E-34
   4.310000      7.0061479E-34
   4.320000      5.8478204E-34
   4.330000      4.5640726E-34
   4.340000      3.1849459E-34
   4.350000      1.7031338E-34
   4.360000      8.6350492E-36
   4.370000     -1.6411198E-34
   4.380000     -3.4587459E-34
   4.390000     -5.3660224E-34
   4.400000     -7.3513144E-34
   4.410000     -9.4188239E-34
   4.420000     -1.1553448E-33
   4.430000     -1.3744832E-33
   4.440000     -1.6014590E-33
   4.450000     -1.8359747E-33
   4.460000     -2.0771683E-33
   4.470000     -2.3255161E-33
   4.480000     -2.5806489E-33
   4.490000     -2.8413153E-33
   4.500000     -3.1066292E-33
   4.510000     -3.3760356E-33
   4.520000     -3.6504830E-33
   4.530000     -3.9281965E-33
   4.540000     -4.2049439E-33
   4.550000     -4.4809573E-33
   4.560000     -4.7560847E-33
   4.570000     -5.0281014E-33
   4.580000     -5.2949225E-33
   4.590000     -5.5534038E-33
   4.600000     -5.8010878E-33
   4.610000     -6.0343290E-33
   4.620000     -6.2492263E-33
   4.630000     -6.4461480E-33
   4.640000     -6.6181787E-33
   4.650000     -6.7586495E-33
   4.660000     -6.8682695E-33
   4.670000     -6.9441535E-33
   4.680000     -6.9827715E-33
   4.690000     -6.9804748E-33
   4.700000     -6.9329041E-33
   4.710000     -6.8355871E-33
   4.720000     -6.6859422E-33
   4.730000     -6.4820373E-33
   4.740000     -6.2240068E-33
   4.750000     -5.9082565E-33
   4.760000     -5.5280050E-33
   4.770000     -5.0814799E-33
   4.780000     -4.5710604E-33
   4.790000     -3.9967513E-33
   4.800000     -3.3557972E-33
   4.810000     -2.6474069E-33
   4.820000     -1.8709881E-33
   4.830000     -1.0261632E-33
   4.840000     -1.1299178E-34
   4.850000      8.6888557E-34
   4.860000      1.9195972E-33
   4.870000      3.0385201E-33
   4.880000      4.2250882E-33
   4.890000      5.4783628E-33
   4.900000      6.7972762E-33
   4.910000      8.1804533E-33
   4.920000      9.6260028E-33
   4.930000      1.1131669E-32
   4.940000      1.2694673E-32
   4.950000      1.4311700E-32
   4.960000      1.5978849E-32
   4.970000      1.7691562E-32
   4.980000      1.9444900E-32
   4.990000      2.1232539E-32
   5.000000      2.3047423E-32
   5.010000      2.4881795E-32
   5.020000      2.6727621E-32
   5.030000      2.8576191E-32
   5.040000      3.0416998E-32
   5.050000      3.2239140E-32
   5.060000      3.4030817E-32
   5.070000      3.5779471E-32
   5.080000      3.7471989E-32
   5.090000      3.9094515E-32
   5.100000      4.0632473E-32
   5.110000      4.2070766E-32
   5.120000      4.3393885E-32
   5.130000      4.4585875E-32
   5.140000      4.5630487E-32
   5.150000      4.6511138E-32
   5.160000      4.7211056E-32
   5.170000      4.7713533E-32
   5.180000      4.8001532E-32
   5.190000      4.8058056E-32
   5.200000      4.7866392E-32
   5.210000      4.7409803E-32
   5.220000      4.6671731E-32
   5.230000      4.5635835E-32
   5.240000      4.4286036E-32
   5.250000      4.2606507E-32
   5.260000      4.0581888E-32
   5.270000      3.8197251E-32
   5.280000      3.5438090E-32
   5.290000      3.2290518E-32
   5.300000      2.8741316E-32
   5.310000      2.4778034E-32
   5.320000      2.0389404E-32
   5.330000      1.5564558E-32
   5.340000      1.0293767E-32
   5.350000      4.5692027E-33
   5.360000     -1.6158116E-33
   5.370000     -8.2663540E-33
   5.380000     -1.5385734E-32
   5.390000     -2.2975307E-32
   5.400000     -3.1033883E-32
   5.410000     -3.9558817E-32
   5.420000     -4.8544993E-32
   5.430000     -5.7983780E-32
   5.440000     -6.7864169E-32
   5.450000     -7.8172149E-32
   5.460000     -8.8890612E-32
   5.470000     -9.9999163E-32
   5.480000     -1.1147405E-31
   5.490000     -1.2328833E-31
   5.500000     -1.3541082E-31
   5.510000     -1.4780671E-31
   5.520000     -1.6043808E-31
   5.530000     -1.7326291E-31
   5.540000     -1.8623538E-31
   5.550000     -1.9930584E-31
   5.560000     -2.1242074E-31
   5.570000     -2.2552151E-31
   5.580000     -2.3854805E-31
   5.590000     -2.5143624E-31
   5.600000     -2.6411590E-31
   5.610000     -2.7651400E-31
   5.620000     -2.8855365E-31
   5.630000     -3.0015407E-31
   5.640000     -3.1123068E-31
   5.650000     -3.2169509E-31
   5.660000     -3.3145522E-31
   5.670000     -3.4041534E-31
   5.680000     -3.4847608E-31
   5.690000     -3.5553476E-31
   5.700000     -3.6148532E-31
   5.710000     -3.6621864E-31
   5.720000     -3.6962266E-31
   5.730000     -3.7158279E-31
   5.740000     -3.7198201E-31
   5.750000     -3.7070134E-31
   5.760000     -3.6762013E-31
   5.770000     -3.6261650E-31
   5.780000     -3.5556774E-31
   5.790000     -3.4635085E-31
   5.800000     -3.3484305E-31
   5.810000     -3.2092237E-31
   5.820000     -3.0446818E-31
   5.830000     -2.8536179E-31
   5.840000     -2.6348720E-31
   5.850000     -2.3873174E-31
   5.860000     -2.1098687E-31
   5.870000     -1.8014875E-31
   5.880000     -1.4611921E-31
   5.890000     -1.0880645E-31
   5.900000     -6.8125875E-32
   5.910000     -2.4000970E-32
   5.920000      2.3635825E-32
   5.930000      7.4842279E-32
   5.940000      1.2966531E-31
   5.950000      1.8814014E-31
   5.960000      2.5028917E-31
   5.970000      3.1612113E-31
   5.980000      3.8562990E-31
   5.990000      4.5879342E-31
   6.000000      5.3557262E-31
   6.010000      6.1591009E-31
   6.020000      6.9972919E-31
   6.030000      7.8693272E-31
   6.040000      8.7740149E-31
   6.050000      9.7099341E-31
   6.060000      1.0675422E-30
   6.070000      1.1668559E-30
   6.080000      1.2687159E-30
   6.090000      1.3728758E-30
   6.100000      1.4790604E-30
   6.110000      1.5869642E-30
   6.120000      1.6962506E-30
   6.130000      1.8065513E-30
   6.140000      1.9174651E-30
   6.150000      2.0285574E-30
   6.160000      2.1393591E-30
   6.170000      2.2493671E-30
   6.180000      2.3580424E-30
   6.190000      2.4648110E-30
   6.200000      2.5690628E-30
   6.210000      2.6701529E-30
   6.220000      2.7674003E-30
   6.230000      2.8600887E-30
   6.240000      2.9474671E-30
   6.250000      3.0287502E-30
   6.260000      3.1031183E-30
   6.270000      3.1697200E-30
   6.280000      3.2276716E-30
   6.290000      3.2760587E-30
   6.300000      3.3139386E-30
   6.310000      3.3403408E-30
   6.320000      3.3542699E-30
   6.330000      3.3547070E-30
   6.340000      3.3406131E-30
   6.350000      3.3109301E-30
   6.360000      3.2645867E-30
   6.370000      3.2004995E-30
   6.380000      3.1175771E-30
   6.390000      3.0147251E-30
   6.400000      2.8908492E-30
   6.410000      2.7448621E-30
   6.420000      2.5756866E-30
   6.430000      2.3822629E-30
   6.440000      2.1635528E-30
   6.450000      1.9185480E-30
   6.460000      1.6462757E-30
   6.470000      1.3458051E-30
   6.480000      1.0162569E-30
   6.490000      6.5680897E-31
   6.500000      2.6670540E-31
   6.510000     -1.5473618E-31
   6.520000     -6.0811482E-31
   6.530000     -1.0939380E-30
   6.540000     -1.6126127E-30
   6.550000     -2.1644370E-30
   6.560000     -2.7495892E-30
   6.570000     -3.3681197E-30
   6.580000     -4.0199417E-30
   6.590000     -4.7048204E-30
   6.600000     -5.4223647E-30
   6.610000     -6.1720157E-30
   6.620000     -6.9530389E-30
   6.630000     -7.7645122E-30
   6.640000     -8.6053183E-30
   6.650000     -9.4741324E-30
   6.660000     -1.0369414E-29
   6.670000     -1.1289399E-29
   6.680000     -1.2232086E-29
   6.690000     -1.3195229E-29
   6.700000     -1.4176332E-29
   6.710000     -1.5172637E-29
   6.720000     -1.6181110E-29
   6.730000     -1.7198445E-29
   6.740000     -1.8221047E-29
   6.750000     -1.9245033E-29
   6.760000     -2.0266218E-29
   6.770000     -2.1280121E-29
   6.780000     -2.2281949E-29
   6.790000     -2.3266603E-29
   6.800000     -2.4228671E-29
   6.810000     -2.5162434E-29
   6.820000     -2.6061862E-29
   6.830000     -2.6920613E-29
   6.840000     -2.7732043E-29
   6.850000     -2.8489216E-29
   6.860000     -2.9184901E-29
   6.870000     -2.9811584E-29
   6.880000     -3.0361482E-29
   6.890000     -3.0826558E-29
   6.900000     -3.1198527E-29
   6.910000     -3.1468886E-29
   6.920000     -3.1628910E-29
   6.930000     -3.1669703E-29
   6.940000     -3.1582197E-29
   6.950000     -3.1357197E-29
   6.960000     -3.0985378E-29
   6.970000     -3.0457348E-29
   6.980000     -2.9763667E-29
   6.990000     -2.8894877E-29
   7.000000     -2.7841547E-29
   7.010000     -2.6594297E-29
   7.020000     -2.5143867E-29
   7.030000     -2.3481140E-29
   7.040000     -2.1597195E-29
   7.050000     -1.9483366E-29
   7.060000     -1.7131282E-29