  -2.600000      0.0000000E+00
  -2.590000      0.0000000E+00
  -2.580000      0.0000000E+00
  -2.570000      0.0000000E+00
  -2.560000      0.0000000E+00
  -2.550000      0.0000000E+00
  -2.540000      0.0000000E+00
  -2.530000      0.0000000E+00
  -2.520000      0.0000000E+00
  -2.510000      0.0000000E+00
  -2.500000      0.0000000E+00
  -2.490000      0.0000000E+00
  -2.480000      0.0000000E+00
  -2.470000      0.0000000E+00
  -2.460000      0.0000000E+00
  -2.450000      0.0000000E+00
  -2.440000      0.0000000E+00
  -2.430000      0.0000000E+00
  -2.420000      0.0000000E+00
  -2.410000      0.0000000E+00
  -2.400000      0.0000000E+00
  -2.390000      0.0000000E+00
  -2.380000      0.0000000E+00
  -2.370000      0.0000000E+00
  -2.360000      0.0000000E+00
  -2.350000      0.0000000E+00
  -2.340000      0.0000000E+00
  -2.330000      0.0000000E+00
  -2.320000      0.0000000E+00
  -2.310000      0.0000000E+00
  -2.300000      0.0000000E+00
  -2.290000      0.0000000E+00
  -2.280000      0.0000000E+00
  -2.270000      0.0000000E+00
  -2.260000      0.0000000E+00
  -2.250000      0.0000000E+00
  -2.240000      0.0000000E+00
  -2.230000      0.0000000E+00
  -2.220000      0.0000000E+00
  -2.210000      0.0000000E+00
  -2.200000      0.0000000E+00
  -2.190000      0.0000000E+00
  -2.180000      0.0000000E+00
  -2.170000      0.0000000E+00
  -2.160000      0.0000000E+00
  -2.150000      0.0000000E+00
  -2.140000      0.0000000E+00
  -2.130000      0.0000000E+00
  -2.120000      0.0000000E+00
  -2.110000      0.0000000E+00
  -2.100000      0.0000000E+00
  -2.090000      0.0000000E+00
  -2.080000      0.0000000E+00
  -2.070000      0.0000000E+00
  -2.060000      0.0000000E+00
  -2.050000      0.0000000E+00
  -2.040000      0.0000000E+00
  -2.030000      0.0000000E+00
  -2.020000      0.0000000E+00
  -2.010000      0.0000000E+00
  -2.000000      0.0000000E+00
  -1.990000      0.0000000E+00
  -1.980000      0.0000000E+00
  -1.970000      0.0000000E+00
  -1.960000      0.0000000E+00
  -1.950000      0.0000000E+00
  -1.940000      0.0000000E+00
  -1.930000      0.0000000E+00
  -1.920000      0.0000000E+00
  -1.910000      0.0000000E+00
  -1.900000      0.0000000E+00
  -1.890000      0.0000000E+00
  -1.880000      0.0000000E+00
  -1.870000      0.0000000E+00
  -1.860000      0.0000000E+00
  -1.850000      0.0000000E+00
  -1.840000      0.0000000E+00
  -1.830000      0.0000000E+00
  -1.820000      0.0000000E+00
  -1.810000      0.0000000E+00
  -1.800000      0.0000000E+00
  -1.790000      0.0000000E+00
  -1.780000      0.0000000E+00
  -1.770000      0.0000000E+00
  -1.760000      0.0000000E+00
  -1.750000      0.0000000E+00
  -1.740000      0.0000000E+00
  -1.730000      0.0000000E+00
  -1.720000      0.0000000E+00
  -1.710000      0.0000000E+00
  -1.700000      0.0000000E+00
  -1.690000      0.0000000E+00
  -1.680000      0.0000000E+00
  -1.670000      0.0000000E+00
  -1.660000      0.0000000E+00
  -1.650000      0.0000000E+00
  -1.640000      0.0000000E+00
  -1.630000      0.0000000E+00
  -1.620000      0.0000000E+00
  -1.610000      0.0000000E+00
  -1.600000      0.0000000E+00
  -1.590000      0.0000000E+00
  -1.580000      0.0000000E+00
  -1.570000      0.0000000E+00
  -1.560000      0.0000000E+00
  -1.550000      0.0000000E+00
  -1.540000      0.0000000E+00
  -1.530000      0.0000000E+00
  -1.520000      0.0000000E+00
  -1.510000      0.0000000E+00
  -1.500000      0.0000000E+00
  -1.490000      0.0000000E+00
  -1.480000      0.0000000E+00
  -1.470000      0.0000000E+00
  -1.460000      0.0000000E+00
  -1.450000      0.0000000E+00
  -1.440000      0.0000000E+00
  -1.430000      0.0000000E+00
  -1.420000      0.0000000E+00
  -1.410000      0.0000000E+00
  -1.400000      0.0000000E+00
  -1.390000      0.0000000E+00
  -1.380000      0.0000000E+00
  -1.370000      0.0000000E+00
  -1.360000      0.0000000E+00
  -1.350000      0.0000000E+00
  -1.340000      0.0000000E+00
  -1.330000      0.0000000E+00
  -1.320000      0.0000000E+00
  -1.310000      0.0000000E+00
  -1.300000      0.0000000E+00
  -1.290000      0.0000000E+00
  -1.280000      0.0000000E+00
  -1.270000      0.0000000E+00
  -1.260000      0.0000000E+00
  -1.250000      0.0000000E+00
  -1.240000      0.0000000E+00
  -1.230000      0.0000000E+00
  -1.220000      0.0000000E+00
  -1.210000      0.0000000E+00
  -1.200000      0.0000000E+00
  -1.190000      0.0000000E+00
  -1.180000      0.0000000E+00
  -1.170000      0.0000000E+00
  -1.160000      0.0000000E+00
  -1.150000      0.0000000E+00
  -1.140000      0.0000000E+00
  -1.130000      0.0000000E+00
  -1.120000      0.0000000E+00
  -1.110000      0.0000000E+00
  -1.100000      0.0000000E+00
  -1.090000      0.0000000E+00
  -1.080000      0.0000000E+00
  -1.070000      0.0000000E+00
  -1.060000      0.0000000E+00
  -1.050000      0.0000000E+00
  -1.040000      0.0000000E+00
  -1.030000      0.0000000E+00
  -1.020000      0.0000000E+00
  -1.010000      0.0000000E+00
  -1.000000      0.0000000E+00
 -0.9900000      0.0000000E+00
 -0.9800000      0.0000000E+00
 -0.9700000      0.0000000E+00
 -0.9600000      0.0000000E+00
 -0.9500000      0.0000000E+00
 -0.9400000      0.0000000E+00
 -0.9300000      0.0000000E+00
 -0.9200000      0.0000000E+00
 -0.9100000      0.0000000E+00
 -0.9000000      0.0000000E+00
 -0.8900000      0.0000000E+00
 -0.8800000      0.0000000E+00
 -0.8700000      0.0000000E+00
 -0.8600000      0.0000000E+00
 -0.8500000      0.0000000E+00
 -0.8400000      0.0000000E+00
 -0.8300000      0.0000000E+00
 -0.8200000      0.0000000E+00
 -0.8100000      0.0000000E+00
 -0.8000000      0.0000000E+00
 -0.7900000      0.0000000E+00
 -0.7800000      0.0000000E+00
 -0.7700000      0.0000000E+00
 -0.7600000      0.0000000E+00
 -0.7500000      0.0000000E+00
 -0.7400000      0.0000000E+00
 -0.7300000      0.0000000E+00
 -0.7200000      0.0000000E+00
 -0.7100000      0.0000000E+00
 -0.7000000      0.0000000E+00
 -0.6900000      0.0000000E+00
 -0.6800000      0.0000000E+00
 -0.6700000      0.0000000E+00
 -0.6600000      0.0000000E+00
 -0.6500000      0.0000000E+00
 -0.6400000      0.0000000E+00
 -0.6300000      0.0000000E+00
 -0.6200000      0.0000000E+00
 -0.6100000      0.0000000E+00
 -0.6000000      0.0000000E+00
 -0.5900000      0.0000000E+00
 -0.5800000      0.0000000E+00
 -0.5700000      0.0000000E+00
 -0.5600000      0.0000000E+00
 -0.5500000      0.0000000E+00
 -0.5400000      0.0000000E+00
 -0.5300000      0.0000000E+00
 -0.5200000      0.0000000E+00
 -0.5100000      0.0000000E+00
 -0.5000000      0.0000000E+00
 -0.4900000      0.0000000E+00
 -0.4800000      0.0000000E+00
 -0.4700000      0.0000000E+00
 -0.4600000      0.0000000E+00
 -0.4500000      0.0000000E+00
 -0.4400000      0.0000000E+00
 -0.4300000      0.0000000E+00
 -0.4200000      0.0000000E+00
 -0.4100000      0.0000000E+00
 -0.4000000      0.0000000E+00
 -0.3900000      0.0000000E+00
 -0.3800000      0.0000000E+00
 -0.3700000      0.0000000E+00
 -0.3600000      0.0000000E+00
 -0.3500000      0.0000000E+00
 -0.3400000      0.0000000E+00
 -0.3300000      0.0000000E+00
 -0.3200000      0.0000000E+00
 -0.3100000      0.0000000E+00
 -0.3000000      0.0000000E+00
 -0.2900000      0.0000000E+00
 -0.2800000      0.0000000E+00
 -0.2700000      0.0000000E+00
 -0.2600000      0.0000000E+00
 -0.2500000      0.0000000E+00
 -0.2400000      0.0000000E+00
 -0.2300000      0.0000000E+00
 -0.2200000      0.0000000E+00
 -0.2100000      0.0000000E+00
 -0.2000000      0.0000000E+00
 -0.1900000      0.0000000E+00
 -0.1800000      0.0000000E+00
 -0.1700000      0.0000000E+00
 -0.1600000      0.0000000E+00
 -0.1500000      0.0000000E+00
 -0.1400000      0.0000000E+00
 -0.1300000      0.0000000E+00
 -0.1200000      0.0000000E+00
 -0.1100000      0.0000000E+00
 -0.1000000      0.0000000E+00
 -9.0000004E-02  0.0000000E+00
 -7.9999998E-02  0.0000000E+00
 -7.0000000E-02  0.0000000E+00
 -5.9999999E-02  0.0000000E+00
 -5.0000001E-02  0.0000000E+00
 -3.9999999E-02  0.0000000E+00
 -2.9999999E-02  0.0000000E+00
 -2.0000000E-02  0.0000000E+00
 -9.9999998E-03  0.0000000E+00
 -3.4694470E-17  0.0000000E+00
  9.9999998E-03  0.0000000E+00
  2.0000000E-02  0.0000000E+00
  2.9999999E-02  0.0000000E+00
  3.9999999E-02  0.0000000E+00
  5.0000001E-02  0.0000000E+00
  5.9999999E-02  0.0000000E+00
  7.0000000E-02  0.0000000E+00
  7.9999998E-02  0.0000000E+00
  9.0000004E-02  0.0000000E+00
  0.1000000      0.0000000E+00
  0.1100000      0.0000000E+00
  0.1200000      0.0000000E+00
  0.1300000      0.0000000E+00
  0.1400000      0.0000000E+00
  0.1500000      0.0000000E+00
  0.1600000      0.0000000E+00
  0.1700000      0.0000000E+00
  0.1800000      0.0000000E+00
  0.1900000      0.0000000E+00
  0.2000000      0.0000000E+00
  0.2100000      0.0000000E+00
  0.2200000      0.0000000E+00
  0.2300000      0.0000000E+00
  0.2400000      0.0000000E+00
  0.2500000      0.0000000E+00
  0.2600000      0.0000000E+00
  0.2700000      0.0000000E+00
  0.2800000      0.0000000E+00
  0.2900000      0.0000000E+00
  0.3000000      0.0000000E+00
  0.3100000      0.0000000E+00
  0.3200000      0.0000000E+00
  0.3300000      0.0000000E+00
  0.3400000      0.0000000E+00
  0.3500000      0.0000000E+00
  0.3600000      0.0000000E+00
  0.3700000      0.0000000E+00
  0.3800000      0.0000000E+00
  0.3900000      0.0000000E+00
  0.4000000      0.0000000E+00
  0.4100000      0.0000000E+00
  0.4200000      0.0000000E+00
  0.4300000      0.0000000E+00
  0.4400000      0.0000000E+00
  0.4500000      0.0000000E+00
  0.4600000      0.0000000E+00
  0.4700000      0.0000000E+00
  0.4800000      0.0000000E+00
  0.4900000      0.0000000E+00
  0.5000000      0.0000000E+00
  0.5100000      0.0000000E+00
  0.5200000      0.0000000E+00
  0.5300000      0.0000000E+00
  0.5400000      0.0000000E+00
  0.5500000      0.0000000E+00
  0.5600000      0.0000000E+00
  0.5700000      0.0000000E+00
  0.5800000      0.0000000E+00
  0.5900000      0.0000000E+00
  0.6000000      0.0000000E+00
  0.6100000      0.0000000E+00
  0.6200000      0.0000000E+00
  0.6300000      0.0000000E+00
  0.6400000      0.0000000E+00
  0.6500000      0.0000000E+00
  0.6600000      0.0000000E+00
  0.6700000      0.0000000E+00
  0.6800000      0.0000000E+00
  0.6900000      0.0000000E+00
  0.7000000      0.0000000E+00
  0.7100000      0.0000000E+00
  0.7200000      0.0000000E+00
  0.7300000      0.0000000E+00
  0.7400000      0.0000000E+00
  0.7500000      0.0000000E+00
  0.7600000      0.0000000E+00
  0.7700000      0.0000000E+00
  0.7800000      0.0000000E+00
  0.7900000      0.0000000E+00
  0.8000000      0.0000000E+00
  0.8100000      0.0000000E+00
  0.8200000      0.0000000E+00
  0.8300000      0.0000000E+00
  0.8400000      0.0000000E+00
  0.8500000      0.0000000E+00
  0.8600000      0.0000000E+00
  0.8700000      0.0000000E+00
  0.8800000      0.0000000E+00
  0.8900000      0.0000000E+00
  0.9000000      0.0000000E+00
  0.9100000      0.0000000E+00
  0.9200000      0.0000000E+00
  0.9300000      0.0000000E+00
  0.9400000      0.0000000E+00
  0.9500000      0.0000000E+00
  0.9600000      0.0000000E+00
  0.9700000      0.0000000E+00
  0.9800000      0.0000000E+00
  0.9900000      0.0000000E+00
   1.000000      0.0000000E+00
   1.010000      0.0000000E+00
   1.020000      0.0000000E+00
   1.030000      0.0000000E+00
   1.040000      0.0000000E+00
   1.050000      0.0000000E+00
   1.060000      0.0000000E+00
   1.070000      0.0000000E+00
   1.080000      0.0000000E+00
   1.090000      0.0000000E+00
   1.100000      0.0000000E+00
   1.110000      0.0000000E+00
   1.120000      0.0000000E+00
   1.130000      0.0000000E+00
   1.140000      0.0000000E+00
   1.150000      0.0000000E+00
   1.160000      0.0000000E+00
   1.170000      0.0000000E+00
   1.180000      0.0000000E+00
   1.190000      0.0000000E+00
   1.200000      0.0000000E+00
   1.210000      0.0000000E+00
   1.220000      0.0000000E+00
   1.230000      0.0000000E+00
   1.240000      0.0000000E+00
   1.250000      0.0000000E+00
   1.260000      0.0000000E+00
   1.270000      0.0000000E+00
   1.280000      0.0000000E+00
   1.290000      0.0000000E+00
   1.300000      0.0000000E+00
   1.310000      0.0000000E+00
   1.320000      0.0000000E+00
   1.330000      0.0000000E+00
   1.340000      0.0000000E+00
   1.350000      0.0000000E+00
   1.360000      0.0000000E+00
   1.370000      0.0000000E+00
   1.380000      0.0000000E+00
   1.390000      0.0000000E+00
   1.400000      0.0000000E+00
   1.410000      0.0000000E+00
   1.420000      0.0000000E+00
   1.430000      0.0000000E+00
   1.440000      0.0000000E+00
   1.450000      0.0000000E+00
   1.460000      0.0000000E+00
   1.470000      0.0000000E+00
   1.480000      0.0000000E+00
   1.490000      0.0000000E+00
   1.500000      0.0000000E+00
   1.510000      0.0000000E+00
   1.520000      0.0000000E+00
   1.530000      0.0000000E+00
   1.540000      0.0000000E+00
   1.550000      0.0000000E+00
   1.560000      0.0000000E+00
   1.570000      0.0000000E+00
   1.580000      0.0000000E+00
   1.590000      0.0000000E+00
   1.600000      0.0000000E+00
   1.610000      0.0000000E+00
   1.620000      0.0000000E+00
   1.630000      0.0000000E+00
   1.640000      0.0000000E+00
   1.650000      0.0000000E+00
   1.660000      0.0000000E+00
   1.670000      0.0000000E+00
   1.680000      0.0000000E+00
   1.690000      0.0000000E+00
   1.700000      0.0000000E+00
   1.710000      0.0000000E+00
   1.720000      0.0000000E+00
   1.730000      0.0000000E+00
   1.740000      0.0000000E+00
   1.750000      0.0000000E+00
   1.760000      0.0000000E+00
   1.770000      0.0000000E+00
   1.780000      0.0000000E+00
   1.790000      0.0000000E+00
   1.800000      0.0000000E+00
   1.810000      0.0000000E+00
   1.820000      0.0000000E+00
   1.830000      0.0000000E+00
   1.840000      0.0000000E+00
   1.850000      0.0000000E+00
   1.860000      0.0000000E+00
   1.870000      0.0000000E+00
   1.880000      0.0000000E+00
   1.890000      0.0000000E+00
   1.900000      0.0000000E+00
   1.910000      0.0000000E+00
   1.920000      0.0000000E+00
   1.930000      0.0000000E+00
   1.940000      0.0000000E+00
   1.950000      0.0000000E+00
   1.960000      0.0000000E+00
   1.970000      0.0000000E+00
   1.980000      0.0000000E+00
   1.990000      0.0000000E+00
   2.000000      0.0000000E+00
   2.010000      0.0000000E+00
   2.020000      0.0000000E+00
   2.030000      0.0000000E+00
   2.040000      0.0000000E+00
   2.050000      0.0000000E+00
   2.060000      0.0000000E+00
   2.070000      0.0000000E+00
   2.080000      0.0000000E+00
   2.090000      0.0000000E+00
   2.100000      0.0000000E+00
   2.110000      0.0000000E+00
   2.120000      0.0000000E+00
   2.130000      0.0000000E+00
   2.140000      0.0000000E+00
   2.150000      0.0000000E+00
   2.160000      0.0000000E+00
   2.170000      0.0000000E+00
   2.180000      0.0000000E+00
   2.190000      0.0000000E+00
   2.200000      0.0000000E+00
   2.210000      0.0000000E+00
   2.220000      0.0000000E+00
   2.230000      0.0000000E+00
   2.240000      0.0000000E+00
   2.250000      0.0000000E+00
   2.260000      0.0000000E+00
   2.270000      0.0000000E+00
   2.280000      0.0000000E+00
   2.290000      0.0000000E+00
   2.300000      0.0000000E+00
   2.310000      0.0000000E+00
   2.320000      0.0000000E+00
   2.330000      0.0000000E+00
   2.340000      0.0000000E+00
   2.350000      0.0000000E+00
   2.360000      0.0000000E+00
   2.370000      0.0000000E+00
   2.380000      0.0000000E+00
   2.390000      0.0000000E+00
   2.400000      0.0000000E+00
   2.410000      0.0000000E+00
   2.420000      0.0000000E+00
   2.430000      0.0000000E+00
   2.440000      0.0000000E+00
   2.450000      0.0000000E+00
   2.460000      0.0000000E+00
   2.470000      0.0000000E+00
   2.480000      0.0000000E+00
   2.490000      0.0000000E+00
   2.500000      0.0000000E+00
   2.510000      0.0000000E+00
   2.520000      0.0000000E+00
   2.530000      0.0000000E+00
   2.540000      0.0000000E+00
   2.550000      0.0000000E+00
   2.560000      0.0000000E+00
   2.570000      0.0000000E+00
   2.580000      0.0000000E+00
   2.590000      0.0000000E+00
   2.600000      0.0000000E+00
   2.610000      0.0000000E+00
   2.620000      0.0000000E+00
   2.630000      0.0000000E+00
   2.640000      0.0000000E+00
   2.650000      0.0000000E+00
   2.660000      0.0000000E+00
   2.670000      0.0000000E+00
   2.680000      0.0000000E+00
   2.690000      0.0000000E+00
   2.700000      0.0000000E+00
   2.710000      0.0000000E+00
   2.720000      0.0000000E+00
   2.730000      0.0000000E+00
   2.740000      0.0000000E+00
   2.750000      0.0000000E+00
   2.760000      0.0000000E+00
   2.770000      0.0000000E+00
   2.780000      1.3601167E-38
   2.790000      1.5975486E-38
   2.800000      1.8543828E-38
   2.810000      2.1577178E-38
   2.820000      2.5675916E-38
   2.830000      3.0837669E-38
   2.840000      3.6294617E-38
   2.850000      4.1978401E-38
   2.860000      4.7512723E-38
   2.870000      5.2847500E-38
   2.880000      5.7937475E-38
   2.890000      6.3026773E-38
   2.900000      6.8972387E-38
   2.910000      7.8719471E-38
   2.920000      9.2809959E-38
   2.930000      1.0809113E-37
   2.940000      1.2413887E-37
   2.950000      1.4075518E-37
   2.960000      1.5550024E-37
   2.970000      1.6601686E-37
   2.980000      1.7433204E-37
   2.990000      1.7274010E-37
   3.000000      1.6160110E-37
   3.010000      1.6407470E-37
   3.020000      1.8288426E-37
   3.030000      2.1310548E-37
   3.040000      2.5438536E-37
   3.050000      2.9907745E-37
   3.060000      3.4804521E-37
   3.070000      4.0066298E-37
   3.080000      4.4575237E-37
   3.090000      4.7627104E-37
   3.100000      4.9915691E-37
   3.110000      5.2215251E-37
   3.120000      5.4515725E-37
   3.130000      5.6524779E-37
   3.140000      5.8238215E-37
   3.150000      5.9623990E-37
   3.160000      5.9503218E-37
   3.170000      5.6654690E-37
   3.180000      5.2282396E-37
   3.190000      4.8285005E-37
   3.200000      4.5000357E-37
   3.210000      4.1823858E-37
   3.220000      3.8352032E-37
   3.230000      3.4409951E-37
   3.240000      2.9818479E-37
   3.250000      2.4872864E-37
   3.260000      1.9591552E-37
   3.270000      1.3662057E-37
   3.280000      6.0033039E-38
   3.290000     -3.7726080E-38
   3.300000     -1.4842783E-37
   3.310000     -2.7088584E-37
   3.320000     -4.0408448E-37
   3.330000     -5.4449207E-37
   3.340000     -6.8677292E-37
   3.350000     -8.3577638E-37
   3.360000     -9.9175269E-37
   3.370000     -1.1476497E-36
   3.380000     -1.3062949E-36
   3.390000     -1.4825616E-36
   3.400000     -1.6835355E-36
   3.410000     -1.8947283E-36
   3.420000     -2.0837562E-36
   3.430000     -2.2574786E-36
   3.440000     -2.4402341E-36
   3.450000     -2.6202814E-36
   3.460000     -2.8374096E-36
   3.470000     -3.1032222E-36
   3.480000     -3.3663367E-36
   3.490000     -3.6120275E-36
   3.500000     -3.8542838E-36
   3.510000     -4.0871951E-36
   3.520000     -4.2862708E-36
   3.530000     -4.4768836E-36
   3.540000     -4.6638341E-36
   3.550000     -4.8065945E-36
   3.560000     -4.9122965E-36
   3.570000     -4.9840720E-36
   3.580000     -4.9818525E-36
   3.590000     -4.9090291E-36
   3.600000     -4.7922650E-36
   3.610000     -4.6343499E-36
   3.620000     -4.4795317E-36
   3.630000     -4.3432314E-36
   3.640000     -4.1800655E-36
   3.650000     -3.9498676E-36
   3.660000     -3.6648867E-36
   3.670000     -3.3228838E-36
   3.680000     -2.9205847E-36
   3.690000     -2.4543427E-36
   3.700000     -1.9135230E-36
   3.710000     -1.3150821E-36
   3.720000     -6.3523182E-37
   3.730000      1.7204779E-37
   3.740000      1.0971616E-36
   3.750000      2.1108970E-36
   3.760000      3.1803257E-36
   3.770000      4.3285366E-36
   3.780000      5.6277610E-36
   3.790000      7.0532481E-36
   3.800000      8.5378629E-36
   3.810000      9.9533255E-36
   3.820000      1.1238902E-35
   3.830000      1.2569675E-35
   3.840000      1.3988835E-35
   3.850000      1.5393766E-35
   3.860000      1.6817892E-35
   3.870000      1.8254733E-35
   3.880000      1.9442483E-35
   3.890000      2.0562131E-35
   3.900000      2.1892612E-35
   3.910000      2.3109853E-35
   3.920000      2.4090078E-35
   3.930000      2.4962713E-35
   3.940000      2.5705077E-35
   3.950000      2.6424697E-35
   3.960000      2.7431065E-35
   3.970000      2.8473085E-35
   3.980000      2.9211172E-35
   3.990000      2.9684912E-35
   4.000000      2.9987972E-35
   4.010000      3.0027708E-35
   4.020000      2.9776845E-35
   4.030000      2.9316709E-35
   4.040000      2.8877126E-35
   4.050000      2.8100574E-35
   4.060000      2.6199467E-35
   4.070000      2.3538541E-35
   4.080000      2.0584899E-35
   4.090000      1.7171595E-35
   4.100000      1.3209250E-35
   4.110000      8.6745679E-36
   4.120000      3.5229843E-36
   4.130000     -2.2618435E-36
   4.140000     -8.7957448E-36
   4.150000     -1.5933324E-35
   4.160000     -2.3348697E-35
   4.170000     -3.0763465E-35
   4.180000     -3.8295878E-35
   4.190000     -4.6533086E-35
   4.200000     -5.5611145E-35
   4.210000     -6.5252857E-35
   4.220000     -7.5372985E-35
   4.230000     -8.5452935E-35
   4.240000     -9.5719937E-35
   4.250000     -1.0679158E-34
   4.260000     -1.1797321E-34
   4.270000     -1.2907675E-34
   4.280000     -1.4025356E-34
   4.290000     -1.5198892E-34
   4.300000     -1.6444854E-34
   4.310000     -1.7733991E-34
   4.320000     -1.9056540E-34
   4.330000     -2.0396930E-34
   4.340000     -2.1664175E-34
   4.350000     -2.2795244E-34
   4.360000     -2.3877948E-34
   4.370000     -2.4880036E-34
   4.380000     -2.5750207E-34
   4.390000     -2.6454523E-34
   4.400000     -2.7002841E-34
   4.410000     -2.7429635E-34
   4.420000     -2.7656705E-34
   4.430000     -2.7678197E-34
   4.440000     -2.7391402E-34
   4.450000     -2.6792673E-34
   4.460000     -2.6046186E-34
   4.470000     -2.5143659E-34
   4.480000     -2.4056143E-34
   4.490000     -2.2781785E-34
   4.500000     -2.1207518E-34
   4.510000     -1.9322983E-34
   4.520000     -1.7151414E-34
   4.530000     -1.4627968E-34
   4.540000     -1.1708345E-34
   4.550000     -8.5191531E-35
   4.560000     -5.1085400E-35
   4.570000     -1.1981096E-35
   4.580000      3.2898792E-35
   4.590000      8.3218600E-35
   4.600000      1.4145416E-34
   4.610000      2.0652924E-34
   4.620000      2.7525063E-34
   4.630000      3.4895234E-34
   4.640000      4.2476521E-34
   4.650000      5.0151305E-34
   4.660000      5.8215040E-34
   4.670000      6.6656995E-34
   4.680000      7.5482239E-34
   4.690000      8.4694726E-34
   4.700000      9.4312355E-34
   4.710000      1.0395769E-33
   4.720000      1.1362923E-33
   4.730000      1.2400303E-33
   4.740000      1.3520589E-33
   4.750000      1.4687453E-33
   4.760000      1.5899582E-33
   4.770000      1.7137306E-33
   4.780000      1.8369491E-33
   4.790000      1.9594398E-33
   4.800000      2.0830355E-33
   4.810000      2.2078203E-33
   4.820000      2.3288343E-33
   4.830000      2.4439036E-33
   4.840000      2.5519835E-33
   4.850000      2.6526167E-33
   4.860000      2.7434479E-33
   4.870000      2.8266382E-33
   4.880000      2.9011654E-33
   4.890000      2.9613454E-33
   4.900000      3.0033537E-33
   4.910000      3.0251647E-33
   4.920000      3.0282211E-33
   4.930000      3.0139438E-33
   4.940000      2.9819711E-33
   4.950000      2.9301182E-33
   4.960000      2.8553873E-33
   4.970000      2.7549449E-33
   4.980000      2.6295625E-33
   4.990000      2.4764837E-33
   5.000000      2.2940268E-33
   5.010000      2.0804946E-33
   5.020000      1.8330361E-33
   5.030000      1.5549107E-33
   5.040000      1.2426944E-33
   5.050000      8.8979008E-34
   5.060000      4.9422448E-34
   5.070000      5.4279083E-35
   5.080000     -4.3029467E-34
   5.090000     -9.6160994E-34
   5.100000     -1.5398725E-33
   5.110000     -2.1653339E-33
   5.120000     -2.8396428E-33
   5.130000     -3.5637984E-33
   5.140000     -4.3399839E-33
   5.150000     -5.1681876E-33
   5.160000     -6.0488970E-33
   5.170000     -6.9810538E-33
   5.180000     -7.9616805E-33
   5.190000     -8.9941268E-33
   5.200000     -1.0077336E-32
   5.210000     -1.1206247E-32
   5.220000     -1.2381708E-32
   5.230000     -1.3600930E-32
   5.240000     -1.4860617E-32
   5.250000     -1.6158301E-32
   5.260000     -1.7488664E-32
   5.270000     -1.8846917E-32
   5.280000     -2.0227168E-32
   5.290000     -2.1623850E-32
   5.300000     -2.3030822E-32
   5.310000     -2.4441618E-32
   5.320000     -2.5848295E-32
   5.330000     -2.7243383E-32
   5.340000     -2.8621404E-32
   5.350000     -2.9973072E-32
   5.360000     -3.1288265E-32
   5.370000     -3.2558625E-32
   5.380000     -3.3772617E-32
   5.390000     -3.4915726E-32
   5.400000     -3.5973536E-32
   5.410000     -3.6933051E-32
   5.420000     -3.7782540E-32
   5.430000     -3.8508337E-32
   5.440000     -3.9096351E-32
   5.450000     -3.9532345E-32
   5.460000     -3.9798780E-32
   5.470000     -3.9877500E-32
   5.480000     -3.9751249E-32
   5.490000     -3.9403335E-32
   5.500000     -3.8814286E-32
   5.510000     -3.7963622E-32
   5.520000     -3.6832602E-32
   5.530000     -3.5401552E-32
   5.540000     -3.3648937E-32
   5.550000     -3.1556008E-32
   5.560000     -2.9104047E-32
   5.570000     -2.6271009E-32
   5.580000     -2.3035975E-32
   5.590000     -1.9380682E-32
   5.600000     -1.5285445E-32
   5.610000     -1.0729853E-32
   5.620000     -5.6965459E-33
   5.630000     -1.6822532E-34
   5.640000      5.8714341E-33
   5.650000      1.2437537E-32
   5.660000      1.9543838E-32
   5.670000      2.7202741E-32
   5.680000      3.5424733E-32
   5.690000      4.4218783E-32
   5.700000      5.3591722E-32
   5.710000      6.3547812E-32
   5.720000      7.4089816E-32
   5.730000      8.5217869E-32
   5.740000      9.6929078E-32
   5.750000      1.0921779E-31
   5.760000      1.2207530E-31
   5.770000      1.3548962E-31
   5.780000      1.4944464E-31
   5.790000      1.6391855E-31
   5.800000      1.7889134E-31
   5.810000      1.9433803E-31
   5.820000      2.1022292E-31
   5.830000      2.2650843E-31
   5.840000      2.4315284E-31
   5.850000      2.6010881E-31
   5.860000      2.7732124E-31
   5.870000      2.9473139E-31
   5.880000      3.1227560E-31
   5.890000      3.2988145E-31
   5.900000      3.4747089E-31
   5.910000      3.6495999E-31
   5.920000      3.8225654E-31
   5.930000      3.9926145E-31
   5.940000      4.1586992E-31
   5.950000      4.3196930E-31
   5.960000      4.4743970E-31
   5.970000      4.6215421E-31
   5.980000      4.7597854E-31
   5.990000      4.8877149E-31
   6.000000      5.0038472E-31
   6.010000      5.1066300E-31
   6.020000      5.1944381E-31
   6.030000      5.2655926E-31
   6.040000      5.3183530E-31
   6.050000      5.3509081E-31
   6.060000      5.3613945E-31
   6.070000      5.3478956E-31
   6.080000      5.3084455E-31
   6.090000      5.2410342E-31
   6.100000      5.1436106E-31
   6.110000      5.0140909E-31
   6.120000      4.8503605E-31
   6.130000      4.6502820E-31
   6.140000      4.4117036E-31
   6.150000      4.1324645E-31
   6.160000      3.8104035E-31
   6.170000      3.4433693E-31
   6.180000      3.0292304E-31
   6.190000      2.5658846E-31
   6.200000      2.0512738E-31
   6.210000      1.4833925E-31
   6.220000      8.6030270E-32
   6.230000      1.8015286E-32
   6.240000     -5.5881279E-32
   6.250000     -1.3582355E-31
   6.260000     -2.2196239E-31
   6.270000     -3.1443383E-31
   6.280000     -4.1335704E-31
   6.290000     -5.1883260E-31
   6.300000     -6.3094043E-31
   6.310000     -7.4973782E-31
   6.320000     -8.7525711E-31
   6.330000     -1.0075038E-30
   6.340000     -1.1464546E-30
   6.350000     -1.2920548E-30
   6.360000     -1.4442163E-30
   6.370000     -1.6028157E-30
   6.380000     -1.7676917E-30
   6.390000     -1.9386428E-30
   6.400000     -2.1154255E-30
   6.410000     -2.2977516E-30
   6.420000     -2.4852868E-30
   6.430000     -2.6776479E-30
   6.440000     -2.8744014E-30
   6.450000     -3.0750594E-30
   6.460000     -3.2790785E-30
   6.470000     -3.4858602E-30
   6.480000     -3.6947469E-30
   6.490000     -3.9050189E-30
   6.500000     -4.1158940E-30
   6.510000     -4.3265260E-30
   6.520000     -4.5360025E-30
   6.530000     -4.7433431E-30
   6.540000     -4.9474992E-30
   6.550000     -5.1473521E-30
   6.560000     -5.3417123E-30
   6.570000     -5.5293185E-30
   6.580000     -5.7088378E-30
   6.590000     -5.8788650E-30
   6.600000     -6.0379243E-30
   6.610000     -6.1844672E-30
   6.620000     -6.3168764E-30
   6.630000     -6.4334629E-30
   6.640000     -6.5324745E-30
   6.650000     -6.6120906E-30
   6.660000     -6.6704313E-30
   6.670000     -6.7055547E-30
   6.680000     -6.7154657E-30
   6.690000     -6.6981150E-30
   6.700000     -6.6514097E-30
   6.710000     -6.5732117E-30
   6.720000     -6.4613483E-30
   6.730000     -6.3136174E-30
   6.740000     -6.1277930E-30
   6.750000     -5.9016328E-30
   6.760000     -5.6328858E-30
   6.770000     -5.3193023E-30
   6.780000     -4.9586407E-30
   6.790000     -4.5486786E-30
   6.800000     -4.0872236E-30
   6.810000     -3.5721227E-30
   6.820000     -3.0012744E-30
   6.830000     -2.3726402E-30
   6.840000     -1.6842581E-30
   6.850000     -9.3425724E-31
   6.860000     -1.2087112E-31
   6.870000      7.5754757E-31
   6.880000      1.7025112E-30
   6.890000      2.7153801E-30
   6.900000      3.7973485E-30
   6.910000      4.9494222E-30
   6.920000      6.1724035E-30
   6.930000      7.4668725E-30
   6.940000      8.8331656E-30
   6.950000      1.0271355E-29
   6.960000      1.1781235E-29
   6.970000      1.3362290E-29
   6.980000      1.5013686E-29
   6.990000      1.6734237E-29
   7.000000      1.8522397E-29
   7.010000      2.0376224E-29
   7.020000      2.2293375E-29
   7.030000      2.4271066E-29
   7.040000      2.6306069E-29
   7.050000      2.8394683E-29
   7.060000      3.0532709E-29