  -2.600000      0.0000000E+00
  -2.590000      0.0000000E+00
  -2.580000      0.0000000E+00
  -2.570000      0.0000000E+00
  -2.560000      0.0000000E+00
  -2.550000      0.0000000E+00
  -2.540000      0.0000000E+00
  -2.530000      0.0000000E+00
  -2.520000      0.0000000E+00
  -2.510000      0.0000000E+00
  -2.500000      0.0000000E+00
  -2.490000      0.0000000E+00
  -2.480000      0.0000000E+00
  -2.470000      0.0000000E+00
  -2.460000      0.0000000E+00
  -2.450000      0.0000000E+00
  -2.440000      0.0000000E+00
  -2.430000      0.0000000E+00
  -2.420000      0.0000000E+00
  -2.410000      0.0000000E+00
  -2.400000      0.0000000E+00
  -2.390000      0.0000000E+00
  -2.380000      0.0000000E+00
  -2.370000      0.0000000E+00
  -2.360000      0.0000000E+00
  -2.350000      0.0000000E+00
  -2.340000      0.0000000E+00
  -2.330000      0.0000000E+00
  -2.320000      0.0000000E+00
  -2.310000      0.0000000E+00
  -2.300000      0.0000000E+00
  -2.290000      0.0000000E+00
  -2.280000      0.0000000E+00
  -2.270000      0.0000000E+00
  -2.260000      0.0000000E+00
  -2.250000      0.0000000E+00
  -2.240000      0.0000000E+00
  -2.230000      0.0000000E+00
  -2.220000      0.0000000E+00
  -2.210000      0.0000000E+00
  -2.200000      0.0000000E+00
  -2.190000      0.0000000E+00
  -2.180000      0.0000000E+00
  -2.170000      0.0000000E+00
  -2.160000      0.0000000E+00
  -2.150000      0.0000000E+00
  -2.140000      0.0000000E+00
  -2.130000      0.0000000E+00
  -2.120000      0.0000000E+00
  -2.110000      0.0000000E+00
  -2.100000      0.0000000E+00
  -2.090000      0.0000000E+00
  -2.080000      0.0000000E+00
  -2.070000      0.0000000E+00
  -2.060000      0.0000000E+00
  -2.050000      0.0000000E+00
  -2.040000      0.0000000E+00
  -2.030000      0.0000000E+00
  -2.020000      0.0000000E+00
  -2.010000      0.0000000E+00
  -2.000000      0.0000000E+00
  -1.990000      0.0000000E+00
  -1.980000      0.0000000E+00
  -1.970000      0.0000000E+00
  -1.960000      0.0000000E+00
  -1.950000      0.0000000E+00
  -1.940000      0.0000000E+00
  -1.930000      0.0000000E+00
  -1.920000      0.0000000E+00
  -1.910000      0.0000000E+00
  -1.900000      0.0000000E+00
  -1.890000      0.0000000E+00
  -1.880000      0.0000000E+00
  -1.870000      0.0000000E+00
  -1.860000      0.0000000E+00
  -1.850000      0.0000000E+00
  -1.840000      0.0000000E+00
  -1.830000      0.0000000E+00
  -1.820000      0.0000000E+00
  -1.810000      0.0000000E+00
  -1.800000      0.0000000E+00
  -1.790000      0.0000000E+00
  -1.780000      0.0000000E+00
  -1.770000      0.0000000E+00
  -1.760000      0.0000000E+00
  -1.750000      0.0000000E+00
  -1.740000      0.0000000E+00
  -1.730000      0.0000000E+00
  -1.720000      0.0000000E+00
  -1.710000      0.0000000E+00
  -1.700000      0.0000000E+00
  -1.690000      0.0000000E+00
  -1.680000      0.0000000E+00
  -1.670000      0.0000000E+00
  -1.660000      0.0000000E+00
  -1.650000      0.0000000E+00
  -1.640000      0.0000000E+00
  -1.630000      0.0000000E+00
  -1.620000      0.0000000E+00
  -1.610000      0.0000000E+00
  -1.600000      0.0000000E+00
  -1.590000      0.0000000E+00
  -1.580000      0.0000000E+00
  -1.570000      0.0000000E+00
  -1.560000      0.0000000E+00
  -1.550000      0.0000000E+00
  -1.540000      0.0000000E+00
  -1.530000      0.0000000E+00
  -1.520000      0.0000000E+00
  -1.510000      0.0000000E+00
  -1.500000      0.0000000E+00
  -1.490000      0.0000000E+00
  -1.480000      0.0000000E+00
  -1.470000      0.0000000E+00
  -1.460000      0.0000000E+00
  -1.450000      0.0000000E+00
  -1.440000      0.0000000E+00
  -1.430000      0.0000000E+00
  -1.420000      0.0000000E+00
  -1.410000      0.0000000E+00
  -1.400000      0.0000000E+00
  -1.390000      0.0000000E+00
  -1.380000      0.0000000E+00
  -1.370000      0.0000000E+00
  -1.360000      0.0000000E+00
  -1.350000      0.0000000E+00
  -1.340000      0.0000000E+00
  -1.330000      0.0000000E+00
  -1.320000      0.0000000E+00
  -1.310000      0.0000000E+00
  -1.300000      0.0000000E+00
  -1.290000      0.0000000E+00
  -1.280000      0.0000000E+00
  -1.270000      0.0000000E+00
  -1.260000      0.0000000E+00
  -1.250000      0.0000000E+00
  -1.240000      0.0000000E+00
  -1.230000      0.0000000E+00
  -1.220000      0.0000000E+00
  -1.210000      0.0000000E+00
  -1.200000      0.0000000E+00
  -1.190000      0.0000000E+00
  -1.180000      0.0000000E+00
  -1.170000      0.0000000E+00
  -1.160000      0.0000000E+00
  -1.150000      0.0000000E+00
  -1.140000      0.0000000E+00
  -1.130000      0.0000000E+00
  -1.120000      0.0000000E+00
  -1.110000      0.0000000E+00
  -1.100000      0.0000000E+00
  -1.090000      0.0000000E+00
  -1.080000      0.0000000E+00
  -1.070000      0.0000000E+00
  -1.060000      0.0000000E+00
  -1.050000      0.0000000E+00
  -1.040000      0.0000000E+00
  -1.030000      0.0000000E+00
  -1.020000      0.0000000E+00
  -1.010000      0.0000000E+00
  -1.000000      0.0000000E+00
 -0.9900000      0.0000000E+00
 -0.9800000      0.0000000E+00
 -0.9700000      0.0000000E+00
 -0.9600000      0.0000000E+00
 -0.9500000      0.0000000E+00
 -0.9400000      0.0000000E+00
 -0.9300000      0.0000000E+00
 -0.9200000      0.0000000E+00
 -0.9100000      0.0000000E+00
 -0.9000000      0.0000000E+00
 -0.8900000      0.0000000E+00
 -0.8800000      0.0000000E+00
 -0.8700000      0.0000000E+00
 -0.8600000      0.0000000E+00
 -0.8500000      0.0000000E+00
 -0.8400000      0.0000000E+00
 -0.8300000      0.0000000E+00
 -0.8200000      0.0000000E+00
 -0.8100000      0.0000000E+00
 -0.8000000      0.0000000E+00
 -0.7900000      0.0000000E+00
 -0.7800000      0.0000000E+00
 -0.7700000      0.0000000E+00
 -0.7600000      0.0000000E+00
 -0.7500000      0.0000000E+00
 -0.7400000      0.0000000E+00
 -0.7300000      0.0000000E+00
 -0.7200000      0.0000000E+00
 -0.7100000      0.0000000E+00
 -0.7000000      0.0000000E+00
 -0.6900000      0.0000000E+00
 -0.6800000      0.0000000E+00
 -0.6700000      0.0000000E+00
 -0.6600000      0.0000000E+00
 -0.6500000      0.0000000E+00
 -0.6400000      0.0000000E+00
 -0.6300000      0.0000000E+00
 -0.6200000      0.0000000E+00
 -0.6100000      0.0000000E+00
 -0.6000000      0.0000000E+00
 -0.5900000      0.0000000E+00
 -0.5800000      0.0000000E+00
 -0.5700000      0.0000000E+00
 -0.5600000      0.0000000E+00
 -0.5500000      0.0000000E+00
 -0.5400000      0.0000000E+00
 -0.5300000      0.0000000E+00
 -0.5200000      0.0000000E+00
 -0.5100000      0.0000000E+00
 -0.5000000      0.0000000E+00
 -0.4900000      0.0000000E+00
 -0.4800000      0.0000000E+00
 -0.4700000      0.0000000E+00
 -0.4600000      0.0000000E+00
 -0.4500000      0.0000000E+00
 -0.4400000      0.0000000E+00
 -0.4300000      0.0000000E+00
 -0.4200000      0.0000000E+00
 -0.4100000      0.0000000E+00
 -0.4000000      0.0000000E+00
 -0.3900000      0.0000000E+00
 -0.3800000      0.0000000E+00
 -0.3700000      0.0000000E+00
 -0.3600000      0.0000000E+00
 -0.3500000      0.0000000E+00
 -0.3400000      0.0000000E+00
 -0.3300000      0.0000000E+00
 -0.3200000      0.0000000E+00
 -0.3100000      0.0000000E+00
 -0.3000000      0.0000000E+00
 -0.2900000      0.0000000E+00
 -0.2800000      0.0000000E+00
 -0.2700000      0.0000000E+00
 -0.2600000      0.0000000E+00
 -0.2500000      0.0000000E+00
 -0.2400000      0.0000000E+00
 -0.2300000      0.0000000E+00
 -0.2200000      0.0000000E+00
 -0.2100000      0.0000000E+00
 -0.2000000      0.0000000E+00
 -0.1900000      0.0000000E+00
 -0.1800000      0.0000000E+00
 -0.1700000      0.0000000E+00
 -0.1600000      0.0000000E+00
 -0.1500000      0.0000000E+00
 -0.1400000      0.0000000E+00
 -0.1300000      0.0000000E+00
 -0.1200000      0.0000000E+00
 -0.1100000      0.0000000E+00
 -0.1000000      0.0000000E+00
 -9.0000004E-02  0.0000000E+00
 -7.9999998E-02  0.0000000E+00
 -7.0000000E-02  0.0000000E+00
 -5.9999999E-02  0.0000000E+00
 -5.0000001E-02  0.0000000E+00
 -3.9999999E-02  0.0000000E+00
 -2.9999999E-02  0.0000000E+00
 -2.0000000E-02  0.0000000E+00
 -9.9999998E-03  0.0000000E+00
 -3.4694470E-17  0.0000000E+00
  9.9999998E-03  0.0000000E+00
  2.0000000E-02  0.0000000E+00
  2.9999999E-02  0.0000000E+00
  3.9999999E-02  0.0000000E+00
  5.0000001E-02  0.0000000E+00
  5.9999999E-02  0.0000000E+00
  7.0000000E-02  0.0000000E+00
  7.9999998E-02  0.0000000E+00
  9.0000004E-02  0.0000000E+00
  0.1000000      0.0000000E+00
  0.1100000      0.0000000E+00
  0.1200000      0.0000000E+00
  0.1300000      0.0000000E+00
  0.1400000      0.0000000E+00
  0.1500000      0.0000000E+00
  0.1600000      0.0000000E+00
  0.1700000      0.0000000E+00
  0.1800000      0.0000000E+00
  0.1900000      0.0000000E+00
  0.2000000      0.0000000E+00
  0.2100000      0.0000000E+00
  0.2200000      0.0000000E+00
  0.2300000      0.0000000E+00
  0.2400000      0.0000000E+00
  0.2500000      0.0000000E+00
  0.2600000      0.0000000E+00
  0.2700000      0.0000000E+00
  0.2800000      0.0000000E+00
  0.2900000      0.0000000E+00
  0.3000000      0.0000000E+00
  0.3100000      0.0000000E+00
  0.3200000      0.0000000E+00
  0.3300000      0.0000000E+00
  0.3400000      0.0000000E+00
  0.3500000      0.0000000E+00
  0.3600000      0.0000000E+00
  0.3700000      0.0000000E+00
  0.3800000      0.0000000E+00
  0.3900000      0.0000000E+00
  0.4000000      0.0000000E+00
  0.4100000      0.0000000E+00
  0.4200000      0.0000000E+00
  0.4300000      0.0000000E+00
  0.4400000      0.0000000E+00
  0.4500000      0.0000000E+00
  0.4600000      0.0000000E+00
  0.4700000      0.0000000E+00
  0.4800000      0.0000000E+00
  0.4900000      0.0000000E+00
  0.5000000      0.0000000E+00
  0.5100000      0.0000000E+00
  0.5200000      0.0000000E+00
  0.5300000      0.0000000E+00
  0.5400000      0.0000000E+00
  0.5500000      0.0000000E+00
  0.5600000      0.0000000E+00
  0.5700000      0.0000000E+00
  0.5800000      0.0000000E+00
  0.5900000      0.0000000E+00
  0.6000000      0.0000000E+00
  0.6100000      0.0000000E+00
  0.6200000      0.0000000E+00
  0.6300000      0.0000000E+00
  0.6400000      0.0000000E+00
  0.6500000      0.0000000E+00
  0.6600000      0.0000000E+00
  0.6700000      0.0000000E+00
  0.6800000      0.0000000E+00
  0.6900000      0.0000000E+00
  0.7000000      0.0000000E+00
  0.7100000      0.0000000E+00
  0.7200000      0.0000000E+00
  0.7300000      0.0000000E+00
  0.7400000      0.0000000E+00
  0.7500000      0.0000000E+00
  0.7600000      0.0000000E+00
  0.7700000      0.0000000E+00
  0.7800000      0.0000000E+00
  0.7900000      0.0000000E+00
  0.8000000      0.0000000E+00
  0.8100000      0.0000000E+00
  0.8200000      0.0000000E+00
  0.8300000      0.0000000E+00
  0.8400000      0.0000000E+00
  0.8500000      0.0000000E+00
  0.8600000      0.0000000E+00
  0.8700000      0.0000000E+00
  0.8800000      0.0000000E+00
  0.8900000      0.0000000E+00
  0.9000000      0.0000000E+00
  0.9100000      0.0000000E+00
  0.9200000      0.0000000E+00
  0.9300000      0.0000000E+00
  0.9400000      0.0000000E+00
  0.9500000      0.0000000E+00
  0.9600000      0.0000000E+00
  0.9700000      0.0000000E+00
  0.9800000      0.0000000E+00
  0.9900000      0.0000000E+00
   1.000000      0.0000000E+00
   1.010000      0.0000000E+00
   1.020000      0.0000000E+00
   1.030000      0.0000000E+00
   1.040000      0.0000000E+00
   1.050000      0.0000000E+00
   1.060000      0.0000000E+00
   1.070000      0.0000000E+00
   1.080000      0.0000000E+00
   1.090000      0.0000000E+00
   1.100000      0.0000000E+00
   1.110000      0.0000000E+00
   1.120000      0.0000000E+00
   1.130000      0.0000000E+00
   1.140000      0.0000000E+00
   1.150000      0.0000000E+00
   1.160000      0.0000000E+00
   1.170000      0.0000000E+00
   1.180000      0.0000000E+00
   1.190000      0.0000000E+00
   1.200000      0.0000000E+00
   1.210000      0.0000000E+00
   1.220000      0.0000000E+00
   1.230000      0.0000000E+00
   1.240000      0.0000000E+00
   1.250000      0.0000000E+00
   1.260000      0.0000000E+00
   1.270000      0.0000000E+00
   1.280000      0.0000000E+00
   1.290000      0.0000000E+00
   1.300000      0.0000000E+00
   1.310000      0.0000000E+00
   1.320000      0.0000000E+00
   1.330000      0.0000000E+00
   1.340000      0.0000000E+00
   1.350000      0.0000000E+00
   1.360000      0.0000000E+00
   1.370000      0.0000000E+00
   1.380000      0.0000000E+00
   1.390000      0.0000000E+00
   1.400000      0.0000000E+00
   1.410000      0.0000000E+00
   1.420000      0.0000000E+00
   1.430000      0.0000000E+00
   1.440000      0.0000000E+00
   1.450000      0.0000000E+00
   1.460000      0.0000000E+00
   1.470000      0.0000000E+00
   1.480000      0.0000000E+00
   1.490000      0.0000000E+00
   1.500000      0.0000000E+00
   1.510000      0.0000000E+00
   1.520000      0.0000000E+00
   1.530000      0.0000000E+00
   1.540000      0.0000000E+00
   1.550000      0.0000000E+00
   1.560000      0.0000000E+00
   1.570000      0.0000000E+00
   1.580000      0.0000000E+00
   1.590000      0.0000000E+00
   1.600000      0.0000000E+00
   1.610000      0.0000000E+00
   1.620000      0.0000000E+00
   1.630000      0.0000000E+00
   1.640000      0.0000000E+00
   1.650000      0.0000000E+00
   1.660000      0.0000000E+00
   1.670000      0.0000000E+00
   1.680000      0.0000000E+00
   1.690000      0.0000000E+00
   1.700000      0.0000000E+00
   1.710000      0.0000000E+00
   1.720000      0.0000000E+00
   1.730000      0.0000000E+00
   1.740000      0.0000000E+00
   1.750000      0.0000000E+00
   1.760000      0.0000000E+00
   1.770000      0.0000000E+00
   1.780000      0.0000000E+00
   1.790000      0.0000000E+00
   1.800000      0.0000000E+00
   1.810000      0.0000000E+00
   1.820000      0.0000000E+00
   1.830000      0.0000000E+00
   1.840000      0.0000000E+00
   1.850000      0.0000000E+00
   1.860000      0.0000000E+00
   1.870000      0.0000000E+00
   1.880000      0.0000000E+00
   1.890000      0.0000000E+00
   1.900000      0.0000000E+00
   1.910000      0.0000000E+00
   1.920000      0.0000000E+00
   1.930000      0.0000000E+00
   1.940000      0.0000000E+00
   1.950000      0.0000000E+00
   1.960000      0.0000000E+00
   1.970000      0.0000000E+00
   1.980000      0.0000000E+00
   1.990000      0.0000000E+00
   2.000000      0.0000000E+00
   2.010000      0.0000000E+00
   2.020000      0.0000000E+00
   2.030000      0.0000000E+00
   2.040000      0.0000000E+00
   2.050000      0.0000000E+00
   2.060000      0.0000000E+00
   2.070000      0.0000000E+00
   2.080000      0.0000000E+00
   2.090000      0.0000000E+00
   2.100000      0.0000000E+00
   2.110000      0.0000000E+00
   2.120000      0.0000000E+00
   2.130000      0.0000000E+00
   2.140000      0.0000000E+00
   2.150000      0.0000000E+00
   2.160000      0.0000000E+00
   2.170000      0.0000000E+00
   2.180000      0.0000000E+00
   2.190000      0.0000000E+00
   2.200000      0.0000000E+00
   2.210000      0.0000000E+00
   2.220000      0.0000000E+00
   2.230000      0.0000000E+00
   2.240000      0.0000000E+00
   2.250000      0.0000000E+00
   2.260000      0.0000000E+00
   2.270000      0.0000000E+00
   2.280000      0.0000000E+00
   2.290000      0.0000000E+00
   2.300000      0.0000000E+00
   2.310000      0.0000000E+00
   2.320000      0.0000000E+00
   2.330000      0.0000000E+00
   2.340000      0.0000000E+00
   2.350000      0.0000000E+00
   2.360000      0.0000000E+00
   2.370000      0.0000000E+00
   2.380000      0.0000000E+00
   2.390000      0.0000000E+00
   2.400000      0.0000000E+00
   2.410000      0.0000000E+00
   2.420000      0.0000000E+00
   2.430000      0.0000000E+00
   2.440000      0.0000000E+00
   2.450000      0.0000000E+00
   2.460000      0.0000000E+00
   2.470000      0.0000000E+00
   2.480000      0.0000000E+00
   2.490000      0.0000000E+00
   2.500000      0.0000000E+00
   2.510000      0.0000000E+00
   2.520000      0.0000000E+00
   2.530000      0.0000000E+00
   2.540000      0.0000000E+00
   2.550000      0.0000000E+00
   2.560000      0.0000000E+00
   2.570000      0.0000000E+00
   2.580000      0.0000000E+00
   2.590000      0.0000000E+00
   2.600000      0.0000000E+00
   2.610000      0.0000000E+00
   2.620000      0.0000000E+00
   2.630000      0.0000000E+00
   2.640000      0.0000000E+00
   2.650000      0.0000000E+00
   2.660000      0.0000000E+00
   2.670000      0.0000000E+00
   2.680000      0.0000000E+00
   2.690000      0.0000000E+00
   2.700000      0.0000000E+00
   2.710000      0.0000000E+00
   2.720000      0.0000000E+00
   2.730000      0.0000000E+00
   2.740000      0.0000000E+00
   2.750000      0.0000000E+00
   2.760000      0.0000000E+00
   2.770000      0.0000000E+00
   2.780000      0.0000000E+00
   2.790000      0.0000000E+00
   2.800000      0.0000000E+00
   2.810000      0.0000000E+00
   2.820000      0.0000000E+00
   2.830000      0.0000000E+00
   2.840000      0.0000000E+00
   2.850000      0.0000000E+00
   2.860000      0.0000000E+00
   2.870000      0.0000000E+00
   2.880000      0.0000000E+00
   2.890000      0.0000000E+00
   2.900000      0.0000000E+00
   2.910000      0.0000000E+00
   2.920000      0.0000000E+00
   2.930000      0.0000000E+00
   2.940000      0.0000000E+00
   2.950000      0.0000000E+00
   2.960000      0.0000000E+00
   2.970000      0.0000000E+00
   2.980000      0.0000000E+00
   2.990000      0.0000000E+00
   3.000000      0.0000000E+00
   3.010000      0.0000000E+00
   3.020000      0.0000000E+00
   3.030000      0.0000000E+00
   3.040000      0.0000000E+00
   3.050000      0.0000000E+00
   3.060000      0.0000000E+00
   3.070000      0.0000000E+00
   3.080000      0.0000000E+00
   3.090000      0.0000000E+00
   3.100000      0.0000000E+00
   3.110000      0.0000000E+00
   3.120000      0.0000000E+00
   3.130000      0.0000000E+00
   3.140000      0.0000000E+00
   3.150000      0.0000000E+00
   3.160000      0.0000000E+00
   3.170000      0.0000000E+00
   3.180000      0.0000000E+00
   3.190000      0.0000000E+00
   3.200000      0.0000000E+00
   3.210000      0.0000000E+00
   3.220000      0.0000000E+00
   3.230000      0.0000000E+00
   3.240000      0.0000000E+00
   3.250000      0.0000000E+00
   3.260000      0.0000000E+00
   3.270000      0.0000000E+00
   3.280000      0.0000000E+00
   3.290000      0.0000000E+00
   3.300000      0.0000000E+00
   3.310000      0.0000000E+00
   3.320000      0.0000000E+00
   3.330000      0.0000000E+00
   3.340000      0.0000000E+00
   3.350000      0.0000000E+00
   3.360000      0.0000000E+00
   3.370000      0.0000000E+00
   3.380000      0.0000000E+00
   3.390000      0.0000000E+00
   3.400000      0.0000000E+00
   3.410000      0.0000000E+00
   3.420000      0.0000000E+00
   3.430000      0.0000000E+00
   3.440000      0.0000000E+00
   3.450000      0.0000000E+00
   3.460000      0.0000000E+00
   3.470000      0.0000000E+00
   3.480000      0.0000000E+00
   3.490000      0.0000000E+00
   3.500000      0.0000000E+00
   3.510000      0.0000000E+00
   3.520000      0.0000000E+00
   3.530000      0.0000000E+00
   3.540000      0.0000000E+00
   3.550000      0.0000000E+00
   3.560000      0.0000000E+00
   3.570000      0.0000000E+00
   3.580000      0.0000000E+00
   3.590000      0.0000000E+00
   3.600000      0.0000000E+00
   3.610000      0.0000000E+00
   3.620000      0.0000000E+00
   3.630000      0.0000000E+00
   3.640000      0.0000000E+00
   3.650000      0.0000000E+00
   3.660000      0.0000000E+00
   3.670000      0.0000000E+00
   3.680000      0.0000000E+00
   3.690000      0.0000000E+00
   3.700000      0.0000000E+00
   3.710000      0.0000000E+00
   3.720000      0.0000000E+00
   3.730000      0.0000000E+00
   3.740000      0.0000000E+00
   3.750000      0.0000000E+00
   3.760000      0.0000000E+00
   3.770000      0.0000000E+00
   3.780000      0.0000000E+00
   3.790000      0.0000000E+00
   3.800000     -1.5424165E-38
   3.810000     -1.9496926E-38
   3.820000     -2.3845072E-38
   3.830000     -2.8460478E-38
   3.840000     -3.3331739E-38
   3.850000     -3.7208064E-38
   3.860000     -3.9698099E-38
   3.870000     -4.1111292E-38
   3.880000     -4.1611482E-38
   3.890000     -4.2657568E-38
   3.900000     -4.4522879E-38
   3.910000     -4.6855623E-38
   3.920000     -4.9877969E-38
   3.930000     -5.4731815E-38
   3.940000     -6.1006269E-38
   3.950000     -6.7218107E-38
   3.960000     -7.3311384E-38
   3.970000     -7.9222173E-38
   3.980000     -8.4874658E-38
   3.990000     -8.9845725E-38
   4.000000     -9.4227849E-38
   4.010000     -9.8467943E-38
   4.020000     -1.0301479E-37
   4.030000     -1.0870368E-37
   4.040000     -1.1485476E-37
   4.050000     -1.1920386E-37
   4.060000     -1.2142380E-37
   4.070000     -1.2227190E-37
   4.080000     -1.2035220E-37
   4.090000     -1.1357023E-37
   4.100000     -1.0341611E-37
   4.110000     -9.2206835E-38
   4.120000     -8.0648712E-38
   4.130000     -6.8845138E-38
   4.140000     -5.2114419E-38
   4.150000     -3.0703792E-38
   4.160000      0.0000000E+00
   4.170000      1.3429048E-38
   4.180000      3.3635325E-38
   4.190000      5.7633494E-38
   4.200000      8.4879019E-38
   4.210000      1.1561898E-37
   4.220000      1.4957999E-37
   4.230000      1.9200802E-37
   4.240000      2.4258956E-37
   4.250000      2.9581852E-37
   4.260000      3.5158374E-37
   4.270000      4.0859105E-37
   4.280000      4.6705224E-37
   4.290000      5.2771528E-37
   4.300000      5.8975092E-37
   4.310000      6.5158486E-37
   4.320000      7.1304456E-37
   4.330000      7.7522746E-37
   4.340000      8.3780420E-37
   4.350000      8.9880683E-37
   4.360000      9.5833354E-37
   4.370000      1.0183662E-36
   4.380000      1.0829826E-36
   4.390000      1.1515054E-36
   4.400000      1.2189209E-36
   4.410000      1.2827335E-36
   4.420000      1.3385776E-36
   4.430000      1.3877056E-36
   4.440000      1.4390008E-36
   4.450000      1.4832449E-36
   4.460000      1.5140143E-36
   4.470000      1.5332212E-36
   4.480000      1.5365295E-36
   4.490000      1.5234779E-36
   4.500000      1.4918436E-36
   4.510000      1.4018561E-36
   4.520000      1.2423510E-36
   4.530000      1.0595809E-36
   4.540000      8.6432161E-37
   4.550000      5.6835711E-37
   4.560000      1.5935276E-37
   4.570000     -3.0185792E-37
   4.580000     -8.2215441E-37
   4.590000     -1.4180697E-36
   4.600000     -2.0672730E-36
   4.610000     -2.7406925E-36
   4.620000     -3.4561155E-36
   4.630000     -4.3251538E-36
   4.640000     -5.3473962E-36
   4.650000     -6.3706011E-36
   4.660000     -7.1327288E-36
   4.670000     -7.6544520E-36
   4.680000     -8.1527392E-36
   4.690000     -8.6122245E-36
   4.700000     -9.0443263E-36
   4.710000     -9.4843403E-36
   4.720000     -9.9435881E-36
   4.730000     -1.0261428E-35
   4.740000     -1.0236676E-35
   4.750000     -9.9442374E-36
   4.760000     -9.5630734E-36
   4.770000     -9.1528758E-36
   4.780000     -8.3896576E-36
   4.790000     -7.3345459E-36
   4.800000     -6.3726875E-36
   4.810000     -5.5541606E-36
   4.820000     -4.9458272E-36
   4.830000     -4.7670281E-36
   4.840000     -4.7735377E-36
   4.850000     -4.5617661E-36
   4.860000     -4.3215295E-36
   4.870000     -4.1292166E-36
   4.880000     -3.9252916E-36
   4.890000     -3.6020568E-36
   4.900000     -3.1835435E-36
   4.910000     -2.7716941E-36
   4.920000     -2.3717134E-36
   4.930000     -1.8730353E-36
   4.940000     -1.1978864E-36
   4.950000     -2.4743427E-37
   4.960000      1.1024129E-36
   4.970000      2.8105678E-36
   4.980000      4.8712550E-36
   4.990000      7.2675971E-36
   5.000000      9.9920908E-36
   5.010000      1.3042398E-35
   5.020000      1.6496541E-35
   5.030000      2.0320674E-35
   5.040000      2.4324310E-35
   5.050000      2.8462297E-35
   5.060000      3.2491519E-35
   5.070000      3.6567454E-35
   5.080000      4.1083063E-35
   5.090000      4.5788952E-35
   5.100000      5.0238224E-35
   5.110000      5.4162073E-35
   5.120000      5.7780426E-35
   5.130000      6.1195943E-35
   5.140000      6.4195853E-35
   5.150000      6.6880819E-35
   5.160000      6.8800255E-35
   5.170000      7.0002422E-35
   5.180000      7.0963234E-35
   5.190000      7.2103894E-35
   5.200000      7.3871182E-35
   5.210000      7.6163803E-35
   5.220000      7.8567201E-35
   5.230000      8.0890691E-35
   5.240000      8.3151118E-35
   5.250000      8.4864459E-35
   5.260000      8.5982516E-35
   5.270000      8.6801786E-35
   5.280000      8.5155279E-35
   5.290000      8.0589149E-35
   5.300000      7.4972146E-35
   5.310000      6.8657198E-35
   5.320000      6.1770730E-35
   5.330000      5.3869416E-35
   5.340000      4.3338327E-35
   5.350000      3.0433167E-35
   5.360000      1.6405024E-35
   5.370000      6.5251093E-37
   5.380000     -1.7012028E-35
   5.390000     -3.6148124E-35
   5.400000     -5.6512568E-35
   5.410000     -7.6836946E-35
   5.420000     -9.5698769E-35
   5.430000     -1.1273913E-34
   5.440000     -1.2915166E-34
   5.450000     -1.4612146E-34
   5.460000     -1.6333238E-34
   5.470000     -1.8139907E-34
   5.480000     -2.0036737E-34
   5.490000     -2.1986297E-34
   5.500000     -2.3933377E-34
   5.510000     -2.5850301E-34
   5.520000     -2.7854220E-34
   5.530000     -2.9883645E-34
   5.540000     -3.1959026E-34
   5.550000     -3.4197062E-34
   5.560000     -3.6597442E-34
   5.570000     -3.9115553E-34
   5.580000     -4.1702361E-34
   5.590000     -4.4241287E-34
   5.600000     -4.6767640E-34
   5.610000     -4.9533279E-34
   5.620000     -5.2460394E-34
   5.630000     -5.5543775E-34
   5.640000     -5.8785807E-34
   5.650000     -6.2110224E-34
   5.660000     -6.5428319E-34
   5.670000     -6.8751460E-34
   5.680000     -7.1843225E-34
   5.690000     -7.4310115E-34
   5.700000     -7.6607688E-34
   5.710000     -7.8903699E-34
   5.720000     -8.0789348E-34
   5.730000     -8.2266632E-34
   5.740000     -8.3139437E-34
   5.750000     -8.3368695E-34
   5.760000     -8.3140594E-34
   5.770000     -8.2371205E-34
   5.780000     -8.1103242E-34
   5.790000     -7.9339697E-34
   5.800000     -7.7037097E-34
   5.810000     -7.3926881E-34
   5.820000     -6.9965800E-34
   5.830000     -6.5284674E-34
   5.840000     -5.9822854E-34
   5.850000     -5.3539125E-34
   5.860000     -4.6423436E-34
   5.870000     -3.8282621E-34
   5.880000     -2.9174721E-34
   5.890000     -1.9394004E-34
   5.900000     -8.9289386E-35
   5.910000      2.4986662E-35
   5.920000      1.4849056E-34
   5.930000      2.7965805E-34
   5.940000      4.1974786E-34
   5.950000      5.6660389E-34
   5.960000      7.2049066E-34
   5.970000      8.8567824E-34
   5.980000      1.0614899E-33
   5.990000      1.2491148E-33
   6.000000      1.4499023E-33
   6.010000      1.6620469E-33
   6.020000      1.8867963E-33
   6.030000      2.1217486E-33
   6.040000      2.3654133E-33
   6.050000      2.6203604E-33
   6.060000      2.8867294E-33
   6.070000      3.1642956E-33
   6.080000      3.4545777E-33
   6.090000      3.7556901E-33
   6.100000      4.0662014E-33
   6.110000      4.3858029E-33
   6.120000      4.7120984E-33
   6.130000      5.0435625E-33
   6.140000      5.3794383E-33
   6.150000      5.7181441E-33
   6.160000      6.0590404E-33
   6.170000      6.4019531E-33
   6.180000      6.7450894E-33
   6.190000      7.0868218E-33
   6.200000      7.4249403E-33
   6.210000      7.7566560E-33
   6.220000      8.0785166E-33
   6.230000      8.3885246E-33
   6.240000      8.6840755E-33
   6.250000      8.9617485E-33
   6.260000      9.2182069E-33
   6.270000      9.4519502E-33
   6.280000      9.6579865E-33
   6.290000      9.8312316E-33
   6.300000      9.9709391E-33
   6.310000      1.0075317E-32
   6.320000      1.0141648E-32
   6.330000      1.0165166E-32
   6.340000      1.0141800E-32
   6.350000      1.0067240E-32
   6.360000      9.9358564E-33
   6.370000      9.7460464E-33
   6.380000      9.4942489E-33
   6.390000      9.1752168E-33
   6.400000      8.7866917E-33
   6.410000      8.3238650E-33
   6.420000      7.7836240E-33
   6.430000      7.1611660E-33
   6.440000      6.4515215E-33
   6.450000      5.6524865E-33
   6.460000      4.7590047E-33
   6.470000      3.7676894E-33
   6.480000      2.6749513E-33
   6.490000      1.4757827E-33
   6.500000      1.6837030E-34
   6.510000     -1.2527007E-33
   6.520000     -2.7929626E-33
   6.530000     -4.4534463E-33
   6.540000     -6.2363935E-33
   6.550000     -8.1448894E-33
   6.560000     -1.0181029E-32
   6.570000     -1.2346674E-32
   6.580000     -1.4642124E-32
   6.590000     -1.7067402E-32
   6.600000     -1.9624374E-32
   6.610000     -2.2312981E-32
   6.620000     -2.5131784E-32
   6.630000     -2.8079239E-32
   6.640000     -3.1151726E-32
   6.650000     -3.4346017E-32
   6.660000     -3.7658011E-32
   6.670000     -4.1081770E-32
   6.680000     -4.4611074E-32
   6.690000     -4.8238482E-32
   6.700000     -5.1956703E-32
   6.710000     -5.5757576E-32
   6.720000     -5.9628744E-32
   6.730000     -6.3557534E-32
   6.740000     -6.7533773E-32
   6.750000     -7.1544195E-32
   6.760000     -7.5572561E-32
   6.770000     -7.9603190E-32
   6.780000     -8.3619196E-32
   6.790000     -8.7602047E-32
   6.800000     -9.1531966E-32
   6.810000     -9.5387905E-32
   6.820000     -9.9147083E-32
   6.830000     -1.0278594E-31
   6.840000     -1.0627970E-31
   6.850000     -1.0960148E-31
   6.860000     -1.1272282E-31
   6.870000     -1.1561411E-31
   6.880000     -1.1824452E-31
   6.890000     -1.2058135E-31
   6.900000     -1.2259129E-31
   6.910000     -1.2423901E-31
   6.920000     -1.2548784E-31
   6.930000     -1.2630043E-31
   6.940000     -1.2663753E-31
   6.950000     -1.2645958E-31
   6.960000     -1.2572527E-31
   6.970000     -1.2439196E-31
   6.980000     -1.2241712E-31
   6.990000     -1.1975720E-31
   7.000000     -1.1636746E-31
   7.010000     -1.1220312E-31
   7.020000     -1.0721936E-31
   7.030000     -1.0137074E-31
   7.040000     -9.4612261E-32
   7.050000     -8.6899178E-32
   7.060000     -7.8187648E-32