  -2.600000      0.0000000E+00
  -2.590000      0.0000000E+00
  -2.580000      0.0000000E+00
  -2.570000      0.0000000E+00
  -2.560000      0.0000000E+00
  -2.550000      0.0000000E+00
  -2.540000      0.0000000E+00
  -2.530000      0.0000000E+00
  -2.520000      0.0000000E+00
  -2.510000      0.0000000E+00
  -2.500000      0.0000000E+00
  -2.490000      0.0000000E+00
  -2.480000      0.0000000E+00
  -2.470000      0.0000000E+00
  -2.460000      0.0000000E+00
  -2.450000      0.0000000E+00
  -2.440000      0.0000000E+00
  -2.430000      0.0000000E+00
  -2.420000      0.0000000E+00
  -2.410000      0.0000000E+00
  -2.400000      0.0000000E+00
  -2.390000      0.0000000E+00
  -2.380000      0.0000000E+00
  -2.370000      0.0000000E+00
  -2.360000      0.0000000E+00
  -2.350000      0.0000000E+00
  -2.340000      0.0000000E+00
  -2.330000      0.0000000E+00
  -2.320000      0.0000000E+00
  -2.310000      0.0000000E+00
  -2.300000      0.0000000E+00
  -2.290000      0.0000000E+00
  -2.280000      0.0000000E+00
  -2.270000      0.0000000E+00
  -2.260000      0.0000000E+00
  -2.250000      0.0000000E+00
  -2.240000      0.0000000E+00
  -2.230000      0.0000000E+00
  -2.220000      0.0000000E+00
  -2.210000      0.0000000E+00
  -2.200000      0.0000000E+00
  -2.190000      0.0000000E+00
  -2.180000      0.0000000E+00
  -2.170000      0.0000000E+00
  -2.160000      0.0000000E+00
  -2.150000      0.0000000E+00
  -2.140000      0.0000000E+00
  -2.130000      0.0000000E+00
  -2.120000      0.0000000E+00
  -2.110000      0.0000000E+00
  -2.100000      0.0000000E+00
  -2.090000      0.0000000E+00
  -2.080000      0.0000000E+00
  -2.070000      0.0000000E+00
  -2.060000      0.0000000E+00
  -2.050000      0.0000000E+00
  -2.040000      0.0000000E+00
  -2.030000      0.0000000E+00
  -2.020000      0.0000000E+00
  -2.010000      0.0000000E+00
  -2.000000      0.0000000E+00
  -1.990000      0.0000000E+00
  -1.980000      0.0000000E+00
  -1.970000      0.0000000E+00
  -1.960000      0.0000000E+00
  -1.950000      0.0000000E+00
  -1.940000      0.0000000E+00
  -1.930000      0.0000000E+00
  -1.920000      0.0000000E+00
  -1.910000      0.0000000E+00
  -1.900000      0.0000000E+00
  -1.890000      0.0000000E+00
  -1.880000      0.0000000E+00
  -1.870000      0.0000000E+00
  -1.860000      0.0000000E+00
  -1.850000      0.0000000E+00
  -1.840000      0.0000000E+00
  -1.830000      0.0000000E+00
  -1.820000      0.0000000E+00
  -1.810000      0.0000000E+00
  -1.800000      0.0000000E+00
  -1.790000      0.0000000E+00
  -1.780000      0.0000000E+00
  -1.770000      0.0000000E+00
  -1.760000      0.0000000E+00
  -1.750000      0.0000000E+00
  -1.740000      0.0000000E+00
  -1.730000      0.0000000E+00
  -1.720000      0.0000000E+00
  -1.710000      0.0000000E+00
  -1.700000      0.0000000E+00
  -1.690000      0.0000000E+00
  -1.680000      0.0000000E+00
  -1.670000      0.0000000E+00
  -1.660000      0.0000000E+00
  -1.650000      0.0000000E+00
  -1.640000      0.0000000E+00
  -1.630000      0.0000000E+00
  -1.620000      0.0000000E+00
  -1.610000      0.0000000E+00
  -1.600000      0.0000000E+00
  -1.590000      0.0000000E+00
  -1.580000      0.0000000E+00
  -1.570000      0.0000000E+00
  -1.560000      0.0000000E+00
  -1.550000      0.0000000E+00
  -1.540000      0.0000000E+00
  -1.530000      0.0000000E+00
  -1.520000      0.0000000E+00
  -1.510000      0.0000000E+00
  -1.500000      0.0000000E+00
  -1.490000      0.0000000E+00
  -1.480000      0.0000000E+00
  -1.470000      0.0000000E+00
  -1.460000      0.0000000E+00
  -1.450000      0.0000000E+00
  -1.440000      0.0000000E+00
  -1.430000      0.0000000E+00
  -1.420000      0.0000000E+00
  -1.410000      0.0000000E+00
  -1.400000      0.0000000E+00
  -1.390000      0.0000000E+00
  -1.380000      0.0000000E+00
  -1.370000      0.0000000E+00
  -1.360000      0.0000000E+00
  -1.350000      0.0000000E+00
  -1.340000      0.0000000E+00
  -1.330000      0.0000000E+00
  -1.320000      0.0000000E+00
  -1.310000      0.0000000E+00
  -1.300000      0.0000000E+00
  -1.290000      0.0000000E+00
  -1.280000      0.0000000E+00
  -1.270000      0.0000000E+00
  -1.260000      0.0000000E+00
  -1.250000      0.0000000E+00
  -1.240000      0.0000000E+00
  -1.230000      0.0000000E+00
  -1.220000      0.0000000E+00
  -1.210000      0.0000000E+00
  -1.200000      0.0000000E+00
  -1.190000      0.0000000E+00
  -1.180000      0.0000000E+00
  -1.170000      0.0000000E+00
  -1.160000      0.0000000E+00
  -1.150000      0.0000000E+00
  -1.140000      0.0000000E+00
  -1.130000      0.0000000E+00
  -1.120000      0.0000000E+00
  -1.110000      0.0000000E+00
  -1.100000      0.0000000E+00
  -1.090000      0.0000000E+00
  -1.080000      0.0000000E+00
  -1.070000      0.0000000E+00
  -1.060000      0.0000000E+00
  -1.050000      0.0000000E+00
  -1.040000      0.0000000E+00
  -1.030000      0.0000000E+00
  -1.020000      0.0000000E+00
  -1.010000      0.0000000E+00
  -1.000000      0.0000000E+00
 -0.9900000      0.0000000E+00
 -0.9800000      0.0000000E+00
 -0.9700000      0.0000000E+00
 -0.9600000      0.0000000E+00
 -0.9500000      0.0000000E+00
 -0.9400000      0.0000000E+00
 -0.9300000      0.0000000E+00
 -0.9200000      0.0000000E+00
 -0.9100000      0.0000000E+00
 -0.9000000      0.0000000E+00
 -0.8900000      0.0000000E+00
 -0.8800000      0.0000000E+00
 -0.8700000      0.0000000E+00
 -0.8600000      0.0000000E+00
 -0.8500000      0.0000000E+00
 -0.8400000      0.0000000E+00
 -0.8300000      0.0000000E+00
 -0.8200000      0.0000000E+00
 -0.8100000      0.0000000E+00
 -0.8000000      0.0000000E+00
 -0.7900000      0.0000000E+00
 -0.7800000      0.0000000E+00
 -0.7700000      0.0000000E+00
 -0.7600000      0.0000000E+00
 -0.7500000      0.0000000E+00
 -0.7400000      0.0000000E+00
 -0.7300000      0.0000000E+00
 -0.7200000      0.0000000E+00
 -0.7100000      0.0000000E+00
 -0.7000000      0.0000000E+00
 -0.6900000      0.0000000E+00
 -0.6800000      0.0000000E+00
 -0.6700000      0.0000000E+00
 -0.6600000      0.0000000E+00
 -0.6500000      0.0000000E+00
 -0.6400000      0.0000000E+00
 -0.6300000      0.0000000E+00
 -0.6200000      0.0000000E+00
 -0.6100000      0.0000000E+00
 -0.6000000      0.0000000E+00
 -0.5900000      0.0000000E+00
 -0.5800000      0.0000000E+00
 -0.5700000      0.0000000E+00
 -0.5600000      0.0000000E+00
 -0.5500000      0.0000000E+00
 -0.5400000      0.0000000E+00
 -0.5300000      0.0000000E+00
 -0.5200000      0.0000000E+00
 -0.5100000      0.0000000E+00
 -0.5000000      0.0000000E+00
 -0.4900000      0.0000000E+00
 -0.4800000      0.0000000E+00
 -0.4700000      0.0000000E+00
 -0.4600000      0.0000000E+00
 -0.4500000      0.0000000E+00
 -0.4400000      0.0000000E+00
 -0.4300000      0.0000000E+00
 -0.4200000      0.0000000E+00
 -0.4100000      0.0000000E+00
 -0.4000000      0.0000000E+00
 -0.3900000      0.0000000E+00
 -0.3800000      0.0000000E+00
 -0.3700000      0.0000000E+00
 -0.3600000      0.0000000E+00
 -0.3500000      0.0000000E+00
 -0.3400000      0.0000000E+00
 -0.3300000      0.0000000E+00
 -0.3200000      0.0000000E+00
 -0.3100000      0.0000000E+00
 -0.3000000      0.0000000E+00
 -0.2900000      0.0000000E+00
 -0.2800000      0.0000000E+00
 -0.2700000      0.0000000E+00
 -0.2600000      0.0000000E+00
 -0.2500000      0.0000000E+00
 -0.2400000      0.0000000E+00
 -0.2300000      0.0000000E+00
 -0.2200000      0.0000000E+00
 -0.2100000      0.0000000E+00
 -0.2000000      0.0000000E+00
 -0.1900000      0.0000000E+00
 -0.1800000      0.0000000E+00
 -0.1700000      0.0000000E+00
 -0.1600000      0.0000000E+00
 -0.1500000      0.0000000E+00
 -0.1400000      0.0000000E+00
 -0.1300000      0.0000000E+00
 -0.1200000      0.0000000E+00
 -0.1100000      0.0000000E+00
 -0.1000000      0.0000000E+00
 -9.0000004E-02  0.0000000E+00
 -7.9999998E-02  0.0000000E+00
 -7.0000000E-02  0.0000000E+00
 -5.9999999E-02  0.0000000E+00
 -5.0000001E-02  0.0000000E+00
 -3.9999999E-02  0.0000000E+00
 -2.9999999E-02  0.0000000E+00
 -2.0000000E-02  0.0000000E+00
 -9.9999998E-03  0.0000000E+00
 -3.4694470E-17  0.0000000E+00
  9.9999998E-03  0.0000000E+00
  2.0000000E-02  0.0000000E+00
  2.9999999E-02  0.0000000E+00
  3.9999999E-02  0.0000000E+00
  5.0000001E-02  0.0000000E+00
  5.9999999E-02  0.0000000E+00
  7.0000000E-02  0.0000000E+00
  7.9999998E-02  0.0000000E+00
  9.0000004E-02  0.0000000E+00
  0.1000000      0.0000000E+00
  0.1100000      0.0000000E+00
  0.1200000      0.0000000E+00
  0.1300000      0.0000000E+00
  0.1400000      0.0000000E+00
  0.1500000      0.0000000E+00
  0.1600000      0.0000000E+00
  0.1700000      0.0000000E+00
  0.1800000      0.0000000E+00
  0.1900000      0.0000000E+00
  0.2000000      0.0000000E+00
  0.2100000      0.0000000E+00
  0.2200000      0.0000000E+00
  0.2300000      0.0000000E+00
  0.2400000      0.0000000E+00
  0.2500000      0.0000000E+00
  0.2600000      0.0000000E+00
  0.2700000      0.0000000E+00
  0.2800000      0.0000000E+00
  0.2900000      0.0000000E+00
  0.3000000      0.0000000E+00
  0.3100000      0.0000000E+00
  0.3200000      0.0000000E+00
  0.3300000      0.0000000E+00
  0.3400000      0.0000000E+00
  0.3500000      0.0000000E+00
  0.3600000      0.0000000E+00
  0.3700000      0.0000000E+00
  0.3800000      0.0000000E+00
  0.3900000      0.0000000E+00
  0.4000000      0.0000000E+00
  0.4100000      0.0000000E+00
  0.4200000      0.0000000E+00
  0.4300000      0.0000000E+00
  0.4400000      0.0000000E+00
  0.4500000      0.0000000E+00
  0.4600000      0.0000000E+00
  0.4700000      0.0000000E+00
  0.4800000      0.0000000E+00
  0.4900000      0.0000000E+00
  0.5000000      0.0000000E+00
  0.5100000      0.0000000E+00
  0.5200000      0.0000000E+00
  0.5300000      0.0000000E+00
  0.5400000      0.0000000E+00
  0.5500000      0.0000000E+00
  0.5600000      0.0000000E+00
  0.5700000      0.0000000E+00
  0.5800000      0.0000000E+00
  0.5900000      0.0000000E+00
  0.6000000      0.0000000E+00
  0.6100000      0.0000000E+00
  0.6200000      0.0000000E+00
  0.6300000      0.0000000E+00
  0.6400000      0.0000000E+00
  0.6500000      0.0000000E+00
  0.6600000      0.0000000E+00
  0.6700000      0.0000000E+00
  0.6800000      0.0000000E+00
  0.6900000      0.0000000E+00
  0.7000000      0.0000000E+00
  0.7100000      0.0000000E+00
  0.7200000      0.0000000E+00
  0.7300000      0.0000000E+00
  0.7400000      0.0000000E+00
  0.7500000      0.0000000E+00
  0.7600000     -1.1989483E-38
  0.7700000     -1.3339504E-38
  0.7800000     -1.4553666E-38
  0.7900000     -1.7054685E-38
  0.8000000     -2.0788668E-38
  0.8100000     -2.5527852E-38
  0.8200000     -3.1225288E-38
  0.8300000     -3.7799614E-38
  0.8400000     -4.5501585E-38
  0.8500000     -5.4176435E-38
  0.8600000     -6.3290161E-38
  0.8700000     -7.1303867E-38
  0.8800000     -7.9994093E-38
  0.8900000     -8.6037349E-38
  0.9000000     -8.6341330E-38
  0.9100000     -8.4082162E-38
  0.9200000     -7.8957126E-38
  0.9300000     -6.9075607E-38
  0.9400000     -5.3677870E-38
  0.9500000     -3.4351296E-38
  0.9600000      0.0000000E+00
  0.9700000      1.7072294E-38
  0.9800000      4.8618431E-38
  0.9900000      8.4813539E-38
   1.000000      1.2331560E-37
   1.010000      1.6355262E-37
   1.020000      2.1009226E-37
   1.030000      2.6208411E-37
   1.040000      3.1862249E-37
   1.050000      3.7813144E-37
   1.060000      4.3353457E-37
   1.070000      4.8964597E-37
   1.080000      5.5648414E-37
   1.090000      6.3361358E-37
   1.100000      7.1862939E-37
   1.110000      8.1492891E-37
   1.120000      8.9022980E-37
   1.130000      9.3216150E-37
   1.140000      9.6965226E-37
   1.150000      1.0073735E-36
   1.160000      1.0440792E-36
   1.170000      1.0997133E-36
   1.180000      1.2226619E-36
   1.190000      1.3842467E-36
   1.200000      1.5308251E-36
   1.210000      1.6669829E-36
   1.220000      1.8631770E-36
   1.230000      2.1091191E-36
   1.240000      2.3535608E-36
   1.250000      2.5867919E-36
   1.260000      2.7852370E-36
   1.270000      2.9507975E-36
   1.280000      3.0968737E-36
   1.290000      3.2334130E-36
   1.300000      3.3083113E-36
   1.310000      3.3572345E-36
   1.320000      3.3998297E-36
   1.330000      3.4629297E-36
   1.340000      3.4146913E-36
   1.350000      3.1914532E-36
   1.360000      2.7240037E-36
   1.370000      1.9006599E-36
   1.380000      8.7417446E-37
   1.390000     -2.7473660E-37
   1.400000     -1.4927939E-36
   1.410000     -2.7377478E-36
   1.420000     -3.9893192E-36
   1.430000     -5.2674390E-36
   1.440000     -6.8718285E-36
   1.450000     -8.8359508E-36
   1.460000     -1.0896088E-35
   1.470000     -1.2978947E-35
   1.480000     -1.5261210E-35
   1.490000     -1.7886325E-35
   1.500000     -2.0653995E-35
   1.510000     -2.3371451E-35
   1.520000     -2.6066082E-35
   1.530000     -2.8832532E-35
   1.540000     -3.1631615E-35
   1.550000     -3.4701997E-35
   1.560000     -3.7931636E-35
   1.570000     -4.1134668E-35
   1.580000     -4.4346084E-35
   1.590000     -4.7384473E-35
   1.600000     -5.0448119E-35
   1.610000     -5.3537092E-35
   1.620000     -5.6398503E-35
   1.630000     -5.8467040E-35
   1.640000     -5.9558706E-35
   1.650000     -6.0074305E-35
   1.660000     -5.9940489E-35
   1.670000     -5.9027615E-35
   1.680000     -5.6988328E-35
   1.690000     -5.3538315E-35
   1.700000     -4.8629932E-35
   1.710000     -4.2450671E-35
   1.720000     -3.4931979E-35
   1.730000     -2.5685194E-35
   1.740000     -1.4778316E-35
   1.750000     -2.4857713E-36
   1.760000      1.1855511E-35
   1.770000      2.9321229E-35
   1.780000      4.9713045E-35
   1.790000      7.3196931E-35
   1.800000      9.9725084E-35
   1.810000      1.2860390E-34
   1.820000      1.5973152E-34
   1.830000      1.9280727E-34
   1.840000      2.2633287E-34
   1.850000      2.5998324E-34
   1.860000      2.9292580E-34
   1.870000      3.2181240E-34
   1.880000      3.4422871E-34
   1.890000      3.6061646E-34
   1.900000      3.7410099E-34
   1.910000      3.8695511E-34
   1.920000      4.0141139E-34
   1.930000      4.1697319E-34
   1.940000      4.2951677E-34
   1.950000      4.4913959E-34
   1.960000      4.7731568E-34
   1.970000      5.0411420E-34
   1.980000      5.3380121E-34
   1.990000      5.6689919E-34
   2.000000      5.9920388E-34
   2.010000      6.3153099E-34
   2.020000      6.6398859E-34
   2.030000      6.9341705E-34
   2.040000      7.1152898E-34
   2.050000      7.1696468E-34
   2.060000      7.1337134E-34
   2.070000      6.9956507E-34
   2.080000      6.7064253E-34
   2.090000      6.2327567E-34
   2.100000      5.5750074E-34
   2.110000      4.7341345E-34
   2.120000      3.7031351E-34
   2.130000      2.4592671E-34
   2.140000      9.9229413E-35
   2.150000     -6.7775141E-35
   2.160000     -2.5534821E-34
   2.170000     -4.6473293E-34
   2.180000     -6.9375316E-34
   2.190000     -9.4165096E-34
   2.200000     -1.2073171E-33
   2.210000     -1.4885849E-33
   2.220000     -1.7838900E-33
   2.230000     -2.0910309E-33
   2.240000     -2.4072293E-33
   2.250000     -2.7307307E-33
   2.260000     -3.0563136E-33
   2.270000     -3.3839345E-33
   2.280000     -3.7153369E-33
   2.290000     -4.0456152E-33
   2.300000     -4.3729077E-33
   2.310000     -4.6898224E-33
   2.320000     -4.9931889E-33
   2.330000     -5.2853569E-33
   2.340000     -5.5630399E-33
   2.350000     -5.8200757E-33
   2.360000     -6.0509439E-33
   2.370000     -6.2534147E-33
   2.380000     -6.4236351E-33
   2.390000     -6.5569626E-33
   2.400000     -6.6472097E-33
   2.410000     -6.6892446E-33
   2.420000     -6.6795872E-33
   2.430000     -6.6125223E-33
   2.440000     -6.4764104E-33
   2.450000     -6.2670019E-33
   2.460000     -5.9816176E-33
   2.470000     -5.6114155E-33
   2.480000     -5.1486594E-33
   2.490000     -4.5869057E-33
   2.500000     -3.9205749E-33
   2.510000     -3.1440183E-33
   2.520000     -2.2524217E-33
   2.530000     -1.2441013E-33
   2.540000     -1.1272834E-34
   2.550000      1.1480353E-33
   2.560000      2.5377577E-33
   2.570000      4.0566637E-33
   2.580000      5.7042968E-33
   2.590000      7.4786846E-33
   2.600000      9.3780653E-33
   2.610000      1.1396418E-32
   2.620000      1.3524539E-32
   2.630000      1.5757516E-32
   2.640000      1.8087158E-32
   2.650000      2.0500745E-32
   2.660000      2.2985775E-32
   2.670000      2.5527882E-32
   2.680000      2.8110837E-32
   2.690000      3.0716893E-32
   2.700000      3.3326305E-32
   2.710000      3.5918573E-32
   2.720000      3.8471729E-32
   2.730000      4.0961006E-32
   2.740000      4.3360689E-32
   2.750000      4.5644078E-32
   2.760000      4.7782846E-32
   2.770000      4.9747321E-32
   2.780000      5.1506554E-32
   2.790000      5.3028613E-32
   2.800000      5.4280062E-32
   2.810000      5.5226482E-32
   2.820000      5.5832990E-32
   2.830000      5.6063804E-32
   2.840000      5.5882719E-32
   2.850000      5.5253189E-32
   2.860000      5.4138679E-32
   2.870000      5.2502944E-32
   2.880000      5.0310312E-32
   2.890000      4.7526095E-32
   2.900000      4.4116879E-32
   2.910000      4.0051003E-32
   2.920000      3.5298958E-32
   2.930000      2.9833841E-32
   2.940000      2.3631805E-32
   2.950000      1.6672521E-32
   2.960000      8.9396507E-33
   2.970000      4.2131756E-34
   2.980000     -8.8891404E-33
   2.990000     -1.8993579E-32
   3.000000     -2.9888014E-32
   3.010000     -4.1561604E-32
   3.020000     -5.3997079E-32
   3.030000     -6.7170081E-32
   3.040000     -8.1049031E-32
   3.050000     -9.5594081E-32
   3.060000     -1.1075725E-31
   3.070000     -1.2648266E-31
   3.080000     -1.4270553E-31
   3.090000     -1.5935221E-31
   3.100000     -1.7634006E-31
   3.110000     -1.9357728E-31
   3.120000     -2.1096284E-31
   3.130000     -2.2838644E-31
   3.140000     -2.4572849E-31
   3.150000     -2.6286017E-31
   3.160000     -2.7964357E-31
   3.170000     -2.9593183E-31
   3.180000     -3.1156939E-31
   3.190000     -3.2639232E-31
   3.200000     -3.4022864E-31
   3.210000     -3.5289892E-31
   3.220000     -3.6421667E-31
   3.230000     -3.7398919E-31
   3.240000     -3.8201831E-31
   3.250000     -3.8810129E-31
   3.260000     -3.9203188E-31
   3.270000     -3.9360135E-31
   3.280000     -3.9260000E-31
   3.290000     -3.8881827E-31
   3.300000     -3.8204850E-31
   3.310000     -3.7208647E-31
   3.320000     -3.5873295E-31
   3.330000     -3.4179577E-31
   3.340000     -3.2109143E-31
   3.350000     -2.9644736E-31
   3.360000     -2.6770351E-31
   3.370000     -2.3471481E-31
   3.380000     -1.9735292E-31
   3.390000     -1.5550852E-31
   3.400000     -1.0909325E-31
   3.410000     -5.8041991E-32
   3.420000     -2.3148681E-33
   3.430000      5.8100601E-32
   3.440000      1.2318746E-31
   3.450000      1.9289727E-31
   3.460000      2.6714795E-31
   3.470000      3.4582186E-31
   3.480000      4.2876377E-31
   3.490000      5.1577894E-31
   3.500000      6.0663135E-31
   3.510000      7.0104174E-31
   3.520000      7.9868588E-31
   3.530000      8.9919299E-31
   3.540000      1.0021445E-30
   3.550000      1.1070718E-30
   3.560000      1.2134563E-30
   3.570000      1.3207274E-30
   3.580000      1.4282621E-30
   3.590000      1.5353844E-30
   3.600000      1.6413653E-30
   3.610000      1.7454225E-30
   3.620000      1.8467216E-30
   3.630000      1.9443758E-30
   3.640000      2.0374488E-30
   3.650000      2.1249552E-30
   3.660000      2.2058639E-30
   3.670000      2.2790998E-30
   3.680000      2.3435487E-30
   3.690000      2.3980591E-30
   3.700000      2.4414489E-30
   3.710000      2.4725087E-30
   3.720000      2.4900076E-30
   3.730000      2.4926993E-30
   3.740000      2.4793294E-30
   3.750000      2.4486397E-30
   3.760000      2.3993788E-30
   3.770000      2.3303070E-30
   3.780000      2.2402060E-30
   3.790000      2.1278861E-30
   3.800000      1.9921968E-30
   3.810000      1.8320337E-30
   3.820000      1.6463498E-30
   3.830000      1.4341641E-30
   3.840000      1.1945725E-30
   3.850000      9.2675740E-31
   3.860000      6.2999924E-31
   3.870000      3.0368781E-31
   3.880000     -5.2666102E-32
   3.890000     -4.3941958E-31
   3.900000     -8.5678473E-31
   3.910000     -1.3048152E-30
   3.920000     -1.7833946E-30
   3.930000     -2.2922230E-30
   3.940000     -2.8308027E-30
   3.950000     -3.3984249E-30
   3.960000     -3.9941564E-30
   3.970000     -4.6168265E-30
   3.980000     -5.2650117E-30
   3.990000     -5.9370247E-30
   4.000000     -6.6309016E-30
   4.010000     -7.3443879E-30
   4.020000     -8.0749300E-30
   4.030000     -8.8196623E-30
   4.040000     -9.5754024E-30
   4.050000     -1.0338636E-29
   4.060000     -1.1105518E-29
   4.070000     -1.1871860E-29
   4.080000     -1.2633133E-29
   4.090000     -1.3384462E-29
   4.100000     -1.4120625E-29
   4.110000     -1.4836060E-29
   4.120000     -1.5524861E-29
   4.130000     -1.6180786E-29
   4.140000     -1.6797269E-29
   4.150000     -1.7367422E-29
   4.160000     -1.7884052E-29
   4.170000     -1.8339666E-29
   4.180000     -1.8726500E-29
   4.190000     -1.9036516E-29
   4.200000     -1.9261439E-29
   4.210000     -1.9392769E-29
   4.220000     -1.9421809E-29
   4.230000     -1.9339684E-29
   4.240000     -1.9137378E-29
   4.250000     -1.8805759E-29
   4.260000     -1.8335619E-29
   4.270000     -1.7717707E-29
   4.280000     -1.6942768E-29
   4.290000     -1.6001595E-29
   4.300000     -1.4885069E-29
   4.310000     -1.3584216E-29
   4.320000     -1.2090254E-29
   4.330000     -1.0394667E-29
   4.340000     -8.4892592E-30
   4.350000     -6.3662164E-30
   4.360000     -4.0181888E-30
   4.370000     -1.4383597E-30
   4.380000      1.3794687E-30
   4.390000      4.4408025E-30
   4.400000      7.7503709E-30
   4.410000      1.1312032E-29
   4.420000      1.5128685E-29
   4.430000      1.9202191E-29
   4.440000      2.3533260E-29
   4.450000      2.8121376E-29
   4.460000      3.2964695E-29
   4.470000      3.8059951E-29
   4.480000      4.3402357E-29
   4.490000      4.8985517E-29
   4.500000      5.4801344E-29
   4.510000      6.0839940E-29
   4.520000      6.7089523E-29
   4.530000      7.3536351E-29
   4.540000      8.0164589E-29
   4.550000      8.6956273E-29
   4.560000      9.3891191E-29
   4.570000      1.0094683E-28
   4.580000      1.0809826E-28
   4.590000      1.1531810E-28
   4.600000      1.2257641E-28
   4.610000      1.2984062E-28
   4.620000      1.3707552E-28
   4.630000      1.4424314E-28
   4.640000      1.5130271E-28
   4.650000      1.5821064E-28
   4.660000      1.6492050E-28
   4.670000      1.7138291E-28
   4.680000      1.7754563E-28
   4.690000      1.8335349E-28
   4.700000      1.8874840E-28
   4.710000      1.9366944E-28
   4.720000      1.9805283E-28
   4.730000      2.0183202E-28
   4.740000      2.0493777E-28
   4.750000      2.0729826E-28
   4.760000      2.0883922E-28
   4.770000      2.0948403E-28
   4.780000      2.0915385E-28
   4.790000      2.0776793E-28
   4.800000      2.0524373E-28
   4.810000      2.0149713E-28
   4.820000      1.9644276E-28
   4.830000      1.8999420E-28
   4.840000      1.8206438E-28
   4.850000      1.7256583E-28
   4.860000      1.6141101E-28
   4.870000      1.4851277E-28
   4.880000      1.3378470E-28
   4.890000      1.1714152E-28
   4.900000      9.8499683E-29
   4.910000      7.7777694E-29
   4.920000      5.4896671E-29
   4.930000      2.9780871E-29
   4.940000      2.3582713E-30
   4.950000     -2.7438811E-29
   4.960000     -5.9673092E-29
   4.970000     -9.4401725E-29
   4.980000     -1.3167565E-28
   4.990000     -1.7153875E-28
   5.000000     -2.1402715E-28
   5.010000     -2.5916849E-28
   5.020000     -3.0698108E-28
   5.030000     -3.5747301E-28
   5.040000     -4.1064134E-28
   5.050000     -4.6647126E-28
   5.060000     -5.2493503E-28
   5.070000     -5.8599120E-28
   5.080000     -6.4958372E-28
   5.090000     -7.1564071E-28
   5.100000     -7.8407377E-28
   5.110000     -8.5477682E-28
   5.120000     -9.2762551E-28
   5.130000     -1.0024755E-27
   5.140000     -1.0791627E-27
   5.150000     -1.1575010E-27
   5.160000     -1.2372825E-27
   5.170000     -1.3182760E-27
   5.180000     -1.4002264E-27
   5.190000     -1.4828538E-27
   5.200000     -1.5658527E-27
   5.210000     -1.6488915E-27
   5.220000     -1.7316115E-27
   5.230000     -1.8136267E-27
   5.240000     -1.8945228E-27
   5.250000     -1.9738573E-27
   5.260000     -2.0511583E-27
   5.270000     -2.1259251E-27
   5.280000     -2.1976272E-27
   5.290000     -2.2657042E-27
   5.300000     -2.3295669E-27
   5.310000     -2.3885955E-27
   5.320000     -2.4421416E-27
   5.330000     -2.4895270E-27
   5.340000     -2.5300458E-27
   5.350000     -2.5629640E-27
   5.360000     -2.5875204E-27
   5.370000     -2.6029274E-27
   5.380000     -2.6083730E-27
   5.390000     -2.6030216E-27
   5.400000     -2.5860157E-27
   5.410000     -2.5564777E-27
   5.420000     -2.5135123E-27
   5.430000     -2.4562088E-27
   5.440000     -2.3836430E-27
   5.450000     -2.2948805E-27
   5.460000     -2.1889808E-27
   5.470000     -2.0649988E-27
   5.480000     -1.9219903E-27
   5.490000     -1.7590144E-27
   5.500000     -1.5751390E-27
   5.510000     -1.3694449E-27
   5.520000     -1.1410305E-27
   5.530000     -8.8901648E-28
   5.540000     -6.1255252E-28
   5.550000     -3.1082210E-28
   5.560000      1.6951522E-29
   5.570000      3.7149908E-28
   5.580000      7.5349881E-28
   5.590000      1.1635689E-27
   5.600000      1.6022605E-27
   5.610000      2.0700515E-27
   5.620000      2.5673372E-27
   5.630000      3.0944232E-27
   5.640000      3.6515185E-27
   5.650000      4.2387253E-27
   5.660000      4.8560297E-27
   5.670000      5.5032963E-27
   5.680000      6.1802549E-27
   5.690000      6.8864945E-27
   5.700000      7.6214533E-27
   5.710000      8.3844066E-27
   5.720000      9.1744623E-27
   5.730000      9.9905459E-27
   5.740000      1.0831395E-26
   5.750000      1.1695546E-26
   5.760000      1.2581330E-26
   5.770000      1.3486856E-26
   5.780000      1.4410011E-26
   5.790000      1.5348440E-26
   5.800000      1.6299550E-26
   5.810000      1.7260491E-26
   5.820000      1.8228152E-26
   5.830000      1.9199157E-26
   5.840000      2.0169851E-26
   5.850000      2.1136303E-26
   5.860000      2.2094293E-26
   5.870000      2.3039307E-26
   5.880000      2.3966542E-26
   5.890000      2.4870891E-26
   5.900000      2.5746950E-26
   5.910000      2.6589016E-26
   5.920000      2.7391078E-26
   5.930000      2.8146831E-26
   5.940000      2.8849673E-26
   5.950000      2.9492705E-26
   5.960000      3.0068749E-26
   5.970000      3.0570335E-26
   5.980000      3.0989723E-26
   5.990000      3.1318918E-26
   6.000000      3.1549666E-26
   6.010000      3.1673480E-26
   6.020000      3.1681649E-26
   6.030000      3.1565265E-26
   6.040000      3.1315230E-26
   6.050000      3.0922291E-26
   6.060000      3.0377052E-26
   6.070000      2.9670008E-26
   6.080000      2.8791574E-26
   6.090000      2.7732115E-26
   6.100000      2.6481980E-26
   6.110000      2.5031543E-26
   6.120000      2.3371234E-26
   6.130000      2.1491588E-26
   6.140000      1.9383286E-26
   6.150000      1.7037215E-26
   6.160000      1.4444495E-26
   6.170000      1.1596550E-26
   6.180000      8.4851605E-27
   6.190000      5.1025145E-27
   6.200000      1.4412724E-27
   6.210000     -2.5053681E-27
   6.220000     -6.7436067E-27
   6.230000     -1.1278977E-26
   6.240000     -1.6116273E-26
   6.250000     -2.1259469E-26
   6.260000     -2.6711662E-26
   6.270000     -3.2474991E-26
   6.280000     -3.8550545E-26
   6.290000     -4.4938303E-26
   6.300000     -5.1637045E-26
   6.310000     -5.8644265E-26
   6.320000     -6.5956112E-26
   6.330000     -7.3567264E-26
   6.340000     -8.1470898E-26
   6.350000     -8.9658559E-26
   6.360000     -9.8120109E-26
   6.370000     -1.0684363E-25
   6.380000     -1.1581534E-25
   6.390000     -1.2501954E-25
   6.400000     -1.3443848E-25
   6.410000     -1.4405232E-25
   6.420000     -1.5383911E-25
   6.430000     -1.6377455E-25
   6.440000     -1.7383214E-25
   6.450000     -1.8398296E-25
   6.460000     -1.9419569E-25
   6.470000     -2.0443647E-25
   6.480000     -2.1466900E-25
   6.490000     -2.2485432E-25
   6.500000     -2.3495093E-25
   6.510000     -2.4491464E-25
   6.520000     -2.5469871E-25
   6.530000     -2.6425364E-25
   6.540000     -2.7352729E-25
   6.550000     -2.8246491E-25
   6.560000     -2.9100909E-25
   6.570000     -2.9909984E-25
   6.580000     -3.0667463E-25
   6.590000     -3.1366843E-25
   6.600000     -3.2001373E-25
   6.610000     -3.2564075E-25
   6.620000     -3.3047740E-25
   6.630000     -3.3444951E-25
   6.640000     -3.3748091E-25
   6.650000     -3.3949351E-25
   6.660000     -3.4040758E-25
   6.670000     -3.4014188E-25
   6.680000     -3.3861376E-25
   6.690000     -3.3573950E-25
   6.700000     -3.3143454E-25
   6.710000     -3.2561363E-25
   6.720000     -3.1819121E-25
   6.730000     -3.0908164E-25
   6.740000     -2.9819946E-25
   6.750000     -2.8545980E-25
   6.760000     -2.7077875E-25
   6.770000     -2.5407361E-25
   6.780000     -2.3526342E-25
   6.790000     -2.1426927E-25
   6.800000     -1.9101473E-25
   6.810000     -1.6542641E-25
   6.820000     -1.3743429E-25
   6.830000     -1.0697221E-25
   6.840000     -7.3978470E-26
   6.850000     -3.8396282E-26
   6.860000     -1.7436614E-28
   6.870000      4.0732586E-26
   6.880000      8.4363263E-26
   6.890000      1.3074920E-25
   6.900000      1.7991414E-25
   6.910000      2.3187344E-25
   6.920000      2.8663360E-25
   6.930000      3.4419143E-25
   6.940000      4.0453357E-25
   6.950000      4.6763591E-25
   6.960000      5.3346275E-25
   6.970000      6.0196630E-25
   6.980000      6.7308615E-25
   6.990000      7.4674850E-25
   7.000000      8.2286564E-25
   7.010000      9.0133531E-25
   7.020000      9.8204012E-25
   7.030000      1.0648469E-24
   7.040000      1.1496061E-24
   7.050000      1.2361518E-24
   7.060000      1.3243004E-24