  -2.600000      0.0000000E+00
  -2.590000      0.0000000E+00
  -2.580000      0.0000000E+00
  -2.570000      0.0000000E+00
  -2.560000      0.0000000E+00
  -2.550000      0.0000000E+00
  -2.540000      0.0000000E+00
  -2.530000      0.0000000E+00
  -2.520000      0.0000000E+00
  -2.510000      0.0000000E+00
  -2.500000      0.0000000E+00
  -2.490000      0.0000000E+00
  -2.480000      0.0000000E+00
  -2.470000      0.0000000E+00
  -2.460000      0.0000000E+00
  -2.450000      0.0000000E+00
  -2.440000      0.0000000E+00
  -2.430000      0.0000000E+00
  -2.420000      0.0000000E+00
  -2.410000      0.0000000E+00
  -2.400000      0.0000000E+00
  -2.390000      0.0000000E+00
  -2.380000      0.0000000E+00
  -2.370000      0.0000000E+00
  -2.360000      0.0000000E+00
  -2.350000      0.0000000E+00
  -2.340000      0.0000000E+00
  -2.330000      0.0000000E+00
  -2.320000      0.0000000E+00
  -2.310000      0.0000000E+00
  -2.300000      0.0000000E+00
  -2.290000      0.0000000E+00
  -2.280000      0.0000000E+00
  -2.270000      0.0000000E+00
  -2.260000      0.0000000E+00
  -2.250000      0.0000000E+00
  -2.240000      0.0000000E+00
  -2.230000      0.0000000E+00
  -2.220000      0.0000000E+00
  -2.210000      0.0000000E+00
  -2.200000      0.0000000E+00
  -2.190000      0.0000000E+00
  -2.180000      0.0000000E+00
  -2.170000      0.0000000E+00
  -2.160000      0.0000000E+00
  -2.150000      0.0000000E+00
  -2.140000      0.0000000E+00
  -2.130000      0.0000000E+00
  -2.120000      0.0000000E+00
  -2.110000      0.0000000E+00
  -2.100000      0.0000000E+00
  -2.090000      0.0000000E+00
  -2.080000      0.0000000E+00
  -2.070000      0.0000000E+00
  -2.060000      0.0000000E+00
  -2.050000      0.0000000E+00
  -2.040000      0.0000000E+00
  -2.030000      0.0000000E+00
  -2.020000      0.0000000E+00
  -2.010000      0.0000000E+00
  -2.000000      0.0000000E+00
  -1.990000      0.0000000E+00
  -1.980000      0.0000000E+00
  -1.970000      0.0000000E+00
  -1.960000      0.0000000E+00
  -1.950000      0.0000000E+00
  -1.940000      0.0000000E+00
  -1.930000      0.0000000E+00
  -1.920000      0.0000000E+00
  -1.910000      0.0000000E+00
  -1.900000      0.0000000E+00
  -1.890000      0.0000000E+00
  -1.880000      0.0000000E+00
  -1.870000      0.0000000E+00
  -1.860000      0.0000000E+00
  -1.850000      0.0000000E+00
  -1.840000      0.0000000E+00
  -1.830000      0.0000000E+00
  -1.820000      0.0000000E+00
  -1.810000      0.0000000E+00
  -1.800000      0.0000000E+00
  -1.790000      0.0000000E+00
  -1.780000      0.0000000E+00
  -1.770000      0.0000000E+00
  -1.760000      0.0000000E+00
  -1.750000      0.0000000E+00
  -1.740000      0.0000000E+00
  -1.730000      0.0000000E+00
  -1.720000      0.0000000E+00
  -1.710000      0.0000000E+00
  -1.700000      0.0000000E+00
  -1.690000      0.0000000E+00
  -1.680000      0.0000000E+00
  -1.670000      0.0000000E+00
  -1.660000      0.0000000E+00
  -1.650000      0.0000000E+00
  -1.640000      0.0000000E+00
  -1.630000      0.0000000E+00
  -1.620000      0.0000000E+00
  -1.610000      0.0000000E+00
  -1.600000      0.0000000E+00
  -1.590000      0.0000000E+00
  -1.580000      0.0000000E+00
  -1.570000      0.0000000E+00
  -1.560000      0.0000000E+00
  -1.550000      0.0000000E+00
  -1.540000      0.0000000E+00
  -1.530000      0.0000000E+00
  -1.520000      0.0000000E+00
  -1.510000      0.0000000E+00
  -1.500000      0.0000000E+00
  -1.490000      0.0000000E+00
  -1.480000      0.0000000E+00
  -1.470000      0.0000000E+00
  -1.460000      0.0000000E+00
  -1.450000      0.0000000E+00
  -1.440000      0.0000000E+00
  -1.430000      0.0000000E+00
  -1.420000      0.0000000E+00
  -1.410000      0.0000000E+00
  -1.400000      0.0000000E+00
  -1.390000      0.0000000E+00
  -1.380000      0.0000000E+00
  -1.370000      0.0000000E+00
  -1.360000      0.0000000E+00
  -1.350000      0.0000000E+00
  -1.340000      0.0000000E+00
  -1.330000      0.0000000E+00
  -1.320000      0.0000000E+00
  -1.310000      0.0000000E+00
  -1.300000      0.0000000E+00
  -1.290000      0.0000000E+00
  -1.280000      0.0000000E+00
  -1.270000      0.0000000E+00
  -1.260000      0.0000000E+00
  -1.250000      0.0000000E+00
  -1.240000      0.0000000E+00
  -1.230000      0.0000000E+00
  -1.220000      0.0000000E+00
  -1.210000      0.0000000E+00
  -1.200000      0.0000000E+00
  -1.190000      0.0000000E+00
  -1.180000      0.0000000E+00
  -1.170000      0.0000000E+00
  -1.160000      0.0000000E+00
  -1.150000      0.0000000E+00
  -1.140000      0.0000000E+00
  -1.130000      0.0000000E+00
  -1.120000      0.0000000E+00
  -1.110000      0.0000000E+00
  -1.100000      0.0000000E+00
  -1.090000      0.0000000E+00
  -1.080000      0.0000000E+00
  -1.070000      0.0000000E+00
  -1.060000      0.0000000E+00
  -1.050000      0.0000000E+00
  -1.040000      0.0000000E+00
  -1.030000      0.0000000E+00
  -1.020000      0.0000000E+00
  -1.010000      0.0000000E+00
  -1.000000      0.0000000E+00
 -0.9900000      0.0000000E+00
 -0.9800000      0.0000000E+00
 -0.9700000      0.0000000E+00
 -0.9600000      0.0000000E+00
 -0.9500000      0.0000000E+00
 -0.9400000      0.0000000E+00
 -0.9300000      0.0000000E+00
 -0.9200000      0.0000000E+00
 -0.9100000      0.0000000E+00
 -0.9000000      0.0000000E+00
 -0.8900000      0.0000000E+00
 -0.8800000      0.0000000E+00
 -0.8700000      0.0000000E+00
 -0.8600000      0.0000000E+00
 -0.8500000      0.0000000E+00
 -0.8400000      0.0000000E+00
 -0.8300000      0.0000000E+00
 -0.8200000      0.0000000E+00
 -0.8100000      0.0000000E+00
 -0.8000000      0.0000000E+00
 -0.7900000      0.0000000E+00
 -0.7800000      0.0000000E+00
 -0.7700000      0.0000000E+00
 -0.7600000      0.0000000E+00
 -0.7500000      0.0000000E+00
 -0.7400000      0.0000000E+00
 -0.7300000      0.0000000E+00
 -0.7200000      0.0000000E+00
 -0.7100000      0.0000000E+00
 -0.7000000      0.0000000E+00
 -0.6900000      0.0000000E+00
 -0.6800000      0.0000000E+00
 -0.6700000      0.0000000E+00
 -0.6600000      0.0000000E+00
 -0.6500000      0.0000000E+00
 -0.6400000      0.0000000E+00
 -0.6300000      0.0000000E+00
 -0.6200000      0.0000000E+00
 -0.6100000      0.0000000E+00
 -0.6000000      0.0000000E+00
 -0.5900000      0.0000000E+00
 -0.5800000      0.0000000E+00
 -0.5700000      0.0000000E+00
 -0.5600000      0.0000000E+00
 -0.5500000      0.0000000E+00
 -0.5400000      0.0000000E+00
 -0.5300000      0.0000000E+00
 -0.5200000      0.0000000E+00
 -0.5100000      0.0000000E+00
 -0.5000000      0.0000000E+00
 -0.4900000      0.0000000E+00
 -0.4800000      0.0000000E+00
 -0.4700000      0.0000000E+00
 -0.4600000      0.0000000E+00
 -0.4500000      0.0000000E+00
 -0.4400000      0.0000000E+00
 -0.4300000      0.0000000E+00
 -0.4200000      0.0000000E+00
 -0.4100000      0.0000000E+00
 -0.4000000      0.0000000E+00
 -0.3900000      0.0000000E+00
 -0.3800000      0.0000000E+00
 -0.3700000      0.0000000E+00
 -0.3600000      0.0000000E+00
 -0.3500000      0.0000000E+00
 -0.3400000      0.0000000E+00
 -0.3300000      0.0000000E+00
 -0.3200000      0.0000000E+00
 -0.3100000      0.0000000E+00
 -0.3000000      0.0000000E+00
 -0.2900000      0.0000000E+00
 -0.2800000      0.0000000E+00
 -0.2700000      0.0000000E+00
 -0.2600000      0.0000000E+00
 -0.2500000      0.0000000E+00
 -0.2400000      0.0000000E+00
 -0.2300000      0.0000000E+00
 -0.2200000      0.0000000E+00
 -0.2100000      0.0000000E+00
 -0.2000000      0.0000000E+00
 -0.1900000      0.0000000E+00
 -0.1800000      0.0000000E+00
 -0.1700000      0.0000000E+00
 -0.1600000      0.0000000E+00
 -0.1500000      0.0000000E+00
 -0.1400000      0.0000000E+00
 -0.1300000      0.0000000E+00
 -0.1200000      0.0000000E+00
 -0.1100000      0.0000000E+00
 -0.1000000      0.0000000E+00
 -9.0000004E-02  0.0000000E+00
 -7.9999998E-02  0.0000000E+00
 -7.0000000E-02  0.0000000E+00
 -5.9999999E-02  0.0000000E+00
 -5.0000001E-02  0.0000000E+00
 -3.9999999E-02  0.0000000E+00
 -2.9999999E-02  0.0000000E+00
 -2.0000000E-02  0.0000000E+00
 -9.9999998E-03  0.0000000E+00
 -3.4694470E-17  0.0000000E+00
  9.9999998E-03  0.0000000E+00
  2.0000000E-02  0.0000000E+00
  2.9999999E-02  0.0000000E+00
  3.9999999E-02  0.0000000E+00
  5.0000001E-02  0.0000000E+00
  5.9999999E-02  0.0000000E+00
  7.0000000E-02  0.0000000E+00
  7.9999998E-02  0.0000000E+00
  9.0000004E-02  0.0000000E+00
  0.1000000      0.0000000E+00
  0.1100000      0.0000000E+00
  0.1200000      0.0000000E+00
  0.1300000      0.0000000E+00
  0.1400000      0.0000000E+00
  0.1500000      0.0000000E+00
  0.1600000      0.0000000E+00
  0.1700000      0.0000000E+00
  0.1800000      0.0000000E+00
  0.1900000      0.0000000E+00
  0.2000000      0.0000000E+00
  0.2100000      0.0000000E+00
  0.2200000      0.0000000E+00
  0.2300000      0.0000000E+00
  0.2400000      0.0000000E+00
  0.2500000      0.0000000E+00
  0.2600000      0.0000000E+00
  0.2700000      0.0000000E+00
  0.2800000      0.0000000E+00
  0.2900000      0.0000000E+00
  0.3000000      0.0000000E+00
  0.3100000      0.0000000E+00
  0.3200000      0.0000000E+00
  0.3300000      0.0000000E+00
  0.3400000      0.0000000E+00
  0.3500000      0.0000000E+00
  0.3600000      0.0000000E+00
  0.3700000      0.0000000E+00
  0.3800000      0.0000000E+00
  0.3900000      0.0000000E+00
  0.4000000      0.0000000E+00
  0.4100000      0.0000000E+00
  0.4200000      0.0000000E+00
  0.4300000      0.0000000E+00
  0.4400000      0.0000000E+00
  0.4500000      0.0000000E+00
  0.4600000      0.0000000E+00
  0.4700000      0.0000000E+00
  0.4800000      0.0000000E+00
  0.4900000      0.0000000E+00
  0.5000000      0.0000000E+00
  0.5100000      0.0000000E+00
  0.5200000      0.0000000E+00
  0.5300000      0.0000000E+00
  0.5400000      0.0000000E+00
  0.5500000      0.0000000E+00
  0.5600000      0.0000000E+00
  0.5700000      0.0000000E+00
  0.5800000      0.0000000E+00
  0.5900000      0.0000000E+00
  0.6000000      0.0000000E+00
  0.6100000      0.0000000E+00
  0.6200000      0.0000000E+00
  0.6300000      0.0000000E+00
  0.6400000      0.0000000E+00
  0.6500000      0.0000000E+00
  0.6600000      0.0000000E+00
  0.6700000     -1.1819190E-38
  0.6800000     -1.3696277E-38
  0.6900000     -1.5717966E-38
  0.7000000     -1.6246318E-38
  0.7100000     -1.4763278E-38
  0.7200000     -1.1773432E-38
  0.7300000      0.0000000E+00
  0.7400000      0.0000000E+00
  0.7500000      2.0352963E-38
  0.7600000      3.1336108E-38
  0.7700000      4.1422091E-38
  0.7800000      4.9898316E-38
  0.7900000      5.4800663E-38
  0.8000000      5.6804677E-38
  0.8100000      5.7286903E-38
  0.8200000      5.7083193E-38
  0.8300000      5.7375431E-38
  0.8400000      5.7892505E-38
  0.8500000      5.8997855E-38
  0.8600000      6.2385376E-38
  0.8700000      6.8035568E-38
  0.8800000      6.8589238E-38
  0.8900000      6.5063291E-38
  0.9000000      6.1842720E-38
  0.9100000      5.7079455E-38
  0.9200000      5.1349697E-38
  0.9300000      4.7010279E-38
  0.9400000      5.0628633E-38
  0.9500000      6.0041486E-38
  0.9600000      7.1490571E-38
  0.9700000      8.5677512E-38
  0.9800000      1.0136380E-37
  0.9900000      1.1681548E-37
   1.000000      1.0525832E-37
   1.010000      6.6638143E-38
   1.020000      2.7681194E-38
   1.030000     -1.1833135E-38
   1.040000     -5.7383609E-38
   1.050000     -1.1200093E-37
   1.060000     -1.7583243E-37
   1.070000     -2.3226412E-37
   1.080000     -2.7943779E-37
   1.090000     -3.2947998E-37
   1.100000     -3.7907549E-37
   1.110000     -4.2681233E-37
   1.120000     -4.9283035E-37
   1.130000     -5.7912289E-37
   1.140000     -6.6092195E-37
   1.150000     -7.1004269E-37
   1.160000     -8.3896990E-37
   1.170000     -1.0923960E-36
   1.180000     -1.2114715E-36
   1.190000     -1.2492208E-36
   1.200000     -1.3640412E-36
   1.210000     -1.4853442E-36
   1.220000     -1.5908912E-36
   1.230000     -1.6472605E-36
   1.240000     -1.6442152E-36
   1.250000     -1.6311711E-36
   1.260000     -1.6247888E-36
   1.270000     -1.6291265E-36
   1.280000     -1.4207636E-36
   1.290000     -8.3311090E-37
   1.300000     -8.9482245E-38
   1.310000      6.0336060E-37
   1.320000      1.2338751E-36
   1.330000      1.8385282E-36
   1.340000      2.3769046E-36
   1.350000      2.8150302E-36
   1.360000      3.1258001E-36
   1.370000      3.4716232E-36
   1.380000      3.8511452E-36
   1.390000      3.8940457E-36
   1.400000      3.6716219E-36
   1.410000      3.5319634E-36
   1.420000      3.5190178E-36
   1.430000      3.6240941E-36
   1.440000      3.7417720E-36
   1.450000      3.5221521E-36
   1.460000      2.9636235E-36
   1.470000      2.4034230E-36
   1.480000      1.8669512E-36
   1.490000      1.2270480E-36
   1.500000      2.9555035E-37
   1.510000     -1.0003476E-36
   1.520000     -2.6309741E-36
   1.530000     -4.6631909E-36
   1.540000     -7.1267279E-36
   1.550000     -1.0134625E-35
   1.560000     -1.3729493E-35
   1.570000     -1.7871599E-35
   1.580000     -2.2545405E-35
   1.590000     -2.7611028E-35
   1.600000     -3.3192293E-35
   1.610000     -3.9390807E-35
   1.620000     -4.6086401E-35
   1.630000     -5.3246467E-35
   1.640000     -6.0610148E-35
   1.650000     -6.8080368E-35
   1.660000     -7.5682356E-35
   1.670000     -8.3194809E-35
   1.680000     -9.0346539E-35
   1.690000     -9.7072794E-35
   1.700000     -1.0338164E-34
   1.710000     -1.1014209E-34
   1.720000     -1.1743766E-34
   1.730000     -1.2421891E-34
   1.740000     -1.3064109E-34
   1.750000     -1.3647625E-34
   1.760000     -1.4106223E-34
   1.770000     -1.4418324E-34
   1.780000     -1.4544817E-34
   1.790000     -1.4316050E-34
   1.800000     -1.3637351E-34
   1.810000     -1.2661298E-34
   1.820000     -1.1431828E-34
   1.830000     -9.8621657E-35
   1.840000     -7.8168802E-35
   1.850000     -5.2265951E-35
   1.860000     -2.1653781E-35
   1.870000      1.2291129E-35
   1.880000      4.7996838E-35
   1.890000      8.9450620E-35
   1.900000      1.3865179E-34
   1.910000      1.9405853E-34
   1.920000      2.5821726E-34
   1.930000      3.2935168E-34
   1.940000      4.0334852E-34
   1.950000      4.8435955E-34
   1.960000      5.7447125E-34
   1.970000      6.6323990E-34
   1.980000      7.4741641E-34
   1.990000      8.3001215E-34
   2.000000      9.1167705E-34
   2.010000      9.9473307E-34
   2.020000      1.0760248E-33
   2.030000      1.1566504E-33
   2.040000      1.2349555E-33
   2.050000      1.3061517E-33
   2.060000      1.3710541E-33
   2.070000      1.4313803E-33
   2.080000      1.4837497E-33
   2.090000      1.5281458E-33
   2.100000      1.5669949E-33
   2.110000      1.5984444E-33
   2.120000      1.6214795E-33
   2.130000      1.6330778E-33
   2.140000      1.6325089E-33
   2.150000      1.6202098E-33
   2.160000      1.5920524E-33
   2.170000      1.5477521E-33
   2.180000      1.4871865E-33
   2.190000      1.4056319E-33
   2.200000      1.3011585E-33
   2.210000      1.1712836E-33
   2.220000      1.0139569E-33
   2.230000      8.2691968E-34
   2.240000      6.0748533E-34
   2.250000      3.5364651E-34
   2.260000      6.5395707E-35
   2.270000     -2.6025702E-34
   2.280000     -6.2659267E-34
   2.290000     -1.0345619E-33
   2.300000     -1.4833256E-33
   2.310000     -1.9706221E-33
   2.320000     -2.4958963E-33
   2.330000     -3.0577538E-33
   2.340000     -3.6570052E-33
   2.350000     -4.2910066E-33
   2.360000     -4.9534105E-33
   2.370000     -5.6407856E-33
   2.380000     -6.3492513E-33
   2.390000     -7.0746246E-33
   2.400000     -7.8113620E-33
   2.410000     -8.5524722E-33
   2.420000     -9.2923269E-33
   2.430000     -1.0022190E-32
   2.440000     -1.0733280E-32
   2.450000     -1.1422110E-32
   2.460000     -1.2078744E-32
   2.470000     -1.2692693E-32
   2.480000     -1.3256567E-32
   2.490000     -1.3760269E-32
   2.500000     -1.4194619E-32
   2.510000     -1.4548897E-32
   2.520000     -1.4812219E-32
   2.530000     -1.4975623E-32
   2.540000     -1.5027407E-32
   2.550000     -1.4955083E-32
   2.560000     -1.4748205E-32
   2.570000     -1.4395596E-32
   2.580000     -1.3885476E-32
   2.590000     -1.3208504E-32
   2.600000     -1.2349657E-32
   2.610000     -1.1294268E-32
   2.620000     -1.0036765E-32
   2.630000     -8.5662549E-33
   2.640000     -6.8706227E-33
   2.650000     -4.9410605E-33
   2.660000     -2.7688404E-33
   2.670000     -3.4712592E-34
   2.680000      2.3297086E-33
   2.690000      5.2655887E-33
   2.700000      8.4624242E-33
   2.710000      1.1920175E-32
   2.720000      1.5636128E-32
   2.730000      1.9605009E-32
   2.740000      2.3818751E-32
   2.750000      2.8266087E-32
   2.760000      3.2932782E-32
   2.770000      3.7801201E-32
   2.780000      4.2850337E-32
   2.790000      4.8055702E-32
   2.800000      5.3389255E-32
   2.810000      5.8819474E-32
   2.820000      6.4311361E-32
   2.830000      6.9826445E-32
   2.840000      7.5322898E-32
   2.850000      8.0755474E-32
   2.860000      8.6075697E-32
   2.870000      9.1231939E-32
   2.880000      9.6169791E-32
   2.890000      1.0083200E-31
   2.900000      1.0515827E-31
   2.910000      1.0908578E-31
   2.920000      1.1254925E-31
   2.930000      1.1548105E-31
   2.940000      1.1781137E-31
   2.950000      1.1946838E-31
   2.960000      1.2037846E-31
   2.970000      1.2046651E-31
   2.980000      1.1965620E-31
   2.990000      1.1787036E-31
   3.000000      1.1503136E-31
   3.010000      1.1106174E-31
   3.020000      1.0588475E-31
   3.030000      9.9425028E-32
   3.040000      9.1609255E-32
   3.050000      8.2367148E-32
   3.060000      7.1632522E-32
   3.070000      5.9343392E-32
   3.080000      4.5444103E-32
   3.090000      2.9886380E-32
   3.100000      1.2629492E-32
   3.110000     -6.3578787E-33
   3.120000     -2.7096673E-32
   3.130000     -4.9596375E-32
   3.140000     -7.3853912E-32
   3.150000     -9.9852662E-32
   3.160000     -1.2756146E-31
   3.170000     -1.5693384E-31
   3.180000     -1.8790717E-31
   3.190000     -2.2040197E-31
   3.200000     -2.5432138E-31
   3.210000     -2.8955050E-31
   3.220000     -3.2595624E-31
   3.230000     -3.6338694E-31
   3.240000     -4.0167197E-31
   3.250000     -4.4062174E-31
   3.260000     -4.8002755E-31
   3.270000     -5.1966141E-31
   3.280000     -5.5927628E-31
   3.290000     -5.9860564E-31
   3.300000     -6.3736399E-31
   3.310000     -6.7524641E-31
   3.320000     -7.1192903E-31
   3.330000     -7.4706879E-31
   3.340000     -7.8030387E-31
   3.350000     -8.1125398E-31
   3.360000     -8.3952067E-31
   3.370000     -8.6468791E-31
   3.380000     -8.8632293E-31
   3.390000     -9.0397707E-31
   3.400000     -9.1718718E-31
   3.410000     -9.2547742E-31
   3.420000     -9.2836086E-31
   3.430000     -9.2534201E-31
   3.440000     -9.1591981E-31
   3.450000     -8.9959012E-31
   3.460000     -8.7584974E-31
   3.470000     -8.4420026E-31
   3.480000     -8.0415239E-31
   3.490000     -7.5523001E-31
   3.500000     -6.9697571E-31
   3.510000     -6.2895512E-31
   3.520000     -5.5076278E-31
   3.530000     -4.6202707E-31
   3.540000     -3.6241572E-31
   3.550000     -2.5164076E-31
   3.560000     -1.2946418E-31
   3.570000      4.2973344E-33
   3.580000      1.4976744E-31
   3.590000      3.0700553E-31
   3.600000      4.7600210E-31
   3.610000      6.5667454E-31
   3.620000      8.4886312E-31
   3.630000      1.0523271E-30
   3.640000      1.2667409E-30
   3.650000      1.4916907E-30
   3.660000      1.7266701E-30
   3.670000      1.9710774E-30
   3.680000      2.2242112E-30
   3.690000      2.4852668E-30
   3.700000      2.7533333E-30
   3.710000      3.0273877E-30
   3.720000      3.3062928E-30
   3.730000      3.5887922E-30
   3.740000      3.8735055E-30
   3.750000      4.1589272E-30
   3.760000      4.4434209E-30
   3.770000      4.7252161E-30
   3.780000      5.0024055E-30
   3.790000      5.2729457E-30
   3.800000      5.5346532E-30
   3.810000      5.7852062E-30
   3.820000      6.0221463E-30
   3.830000      6.2428816E-30
   3.840000      6.4446897E-30
   3.850000      6.6247235E-30
   3.860000      6.7800227E-30
   3.870000      6.9075208E-30
   3.880000      7.0040543E-30
   3.890000      7.0663814E-30
   3.900000      7.0911898E-30
   3.910000      7.0751181E-30
   3.920000      7.0147695E-30
   3.930000      6.9067308E-30
   3.940000      6.7475934E-30
   3.950000      6.5339686E-30
   3.960000      6.2625152E-30
   3.970000      5.9299530E-30
   3.980000      5.5330884E-30
   3.990000      5.0688332E-30
   4.000000      4.5342270E-30
   4.010000      3.9264600E-30
   4.020000      3.2428917E-30
   4.030000      2.4810762E-30
   4.040000      1.6387838E-30
   4.050000      7.1402480E-31
   4.060000     -2.9492556E-31
   4.070000     -1.3895006E-30
   4.080000     -2.5708167E-30
   4.090000     -3.8396426E-30
   4.100000     -5.1963689E-30
   4.110000     -6.6409736E-30
   4.120000     -8.1729922E-30
   4.130000     -9.7914767E-30
   4.140000     -1.1494960E-29
   4.150000     -1.3281412E-29
   4.160000     -1.5148202E-29
   4.170000     -1.7092060E-29
   4.180000     -1.9109027E-29
   4.190000     -2.1194423E-29
   4.200000     -2.3342798E-29
   4.210000     -2.5547900E-29
   4.220000     -2.7802640E-29
   4.230000     -3.0099056E-29
   4.240000     -3.2428279E-29
   4.250000     -3.4780519E-29
   4.260000     -3.7145050E-29
   4.270000     -3.9510173E-29
   4.280000     -4.1863226E-29
   4.290000     -4.4190574E-29
   4.300000     -4.6477604E-29
   4.310000     -4.8708742E-29
   4.320000     -5.0867451E-29
   4.330000     -5.2936261E-29
   4.340000     -5.4896785E-29
   4.350000     -5.6729723E-29
   4.360000     -5.8414906E-29
   4.370000     -5.9931329E-29
   4.380000     -6.1257181E-29
   4.390000     -6.2369869E-29
   4.400000     -6.3246059E-29
   4.410000     -6.3861724E-29
   4.420000     -6.4192184E-29
   4.430000     -6.4212153E-29
   4.440000     -6.3895795E-29
   4.450000     -6.3216785E-29
   4.460000     -6.2148357E-29
   4.470000     -6.0663411E-29
   4.480000     -5.8734592E-29
   4.490000     -5.6334354E-29
   4.500000     -5.3435101E-29
   4.510000     -5.0009287E-29
   4.520000     -4.6029563E-29
   4.530000     -4.1468925E-29
   4.540000     -3.6300873E-29
   4.550000     -3.0499589E-29
   4.560000     -2.4040133E-29
   4.570000     -1.6898648E-29
   4.580000     -9.0525726E-30
   4.590000     -4.8088764E-31
   4.600000      8.8356573E-30
   4.610000      1.8914298E-29
   4.620000      2.9769999E-29
   4.630000      4.1415192E-29
   4.640000      5.3859510E-29
   4.650000      6.7109540E-29
   4.660000      8.1168540E-29
   4.670000      9.6036190E-29
   4.680000      1.1170834E-28
   4.690000      1.2817675E-28
   4.700000      1.4542884E-28
   4.710000      1.6344739E-28
   4.720000      1.8221041E-28
   4.730000      2.0169076E-28
   4.740000      2.2185601E-28
   4.750000      2.4266809E-28
   4.760000      2.6408320E-28
   4.770000      2.8605137E-28
   4.780000      3.0851633E-28
   4.790000      3.3141525E-28
   4.800000      3.5467844E-28
   4.810000      3.7822905E-28
   4.820000      4.0198291E-28
   4.830000      4.2584824E-28
   4.840000      4.4972539E-28
   4.850000      4.7350654E-28
   4.860000      4.9707554E-28
   4.870000      5.2030769E-28
   4.880000      5.4306958E-28
   4.890000      5.6521884E-28
   4.900000      5.8660412E-28
   4.910000      6.0706496E-28
   4.920000      6.2643183E-28
   4.930000      6.4452594E-28
   4.940000      6.6115957E-28
   4.950000      6.7613603E-28
   4.960000      6.8925003E-28
   4.970000      7.0028772E-28
   4.980000      7.0902711E-28
   4.990000      7.1523843E-28
   5.000000      7.1868483E-28
   5.010000      7.1912245E-28
   5.020000      7.1630121E-28
   5.030000      7.0996562E-28
   5.040000      6.9985516E-28
   5.050000      6.8570530E-28
   5.060000      6.6724801E-28
   5.070000      6.4421297E-28
   5.080000      6.1632811E-28
   5.090000      5.8332080E-28
   5.100000      5.4491891E-28
   5.110000      5.0085185E-28
   5.120000      4.5085173E-28
   5.130000      3.9465434E-28
   5.140000      3.3200088E-28
   5.150000      2.6263914E-28
   5.160000      1.8632502E-28
   5.170000      1.0282402E-28
   5.180000      1.1913113E-29
   5.190000     -8.6617580E-29
   5.200000     -1.9296286E-28
   5.210000     -3.0730027E-28
   5.220000     -4.2978807E-28
   5.230000     -5.6056300E-28
   5.240000     -6.9973773E-28
   5.250000     -8.4739849E-28
   5.260000     -1.0036023E-27
   5.270000     -1.1683746E-27
   5.280000     -1.3417063E-27
   5.290000     -1.5235508E-27
   5.300000     -1.7138213E-27
   5.310000     -1.9123880E-27
   5.320000     -2.1190751E-27
   5.330000     -2.3336578E-27
   5.340000     -2.5558593E-27
   5.350000     -2.7853488E-27
   5.360000     -3.0217377E-27
   5.370000     -3.2645772E-27
   5.380000     -3.5133554E-27
   5.390000     -3.7674949E-27
   5.400000     -4.0263511E-27
   5.410000     -4.2892089E-27
   5.420000     -4.5552808E-27
   5.430000     -4.8237034E-27
   5.440000     -5.0935374E-27
   5.450000     -5.3637642E-27
   5.460000     -5.6332850E-27
   5.470000     -5.9009176E-27
   5.480000     -6.1653975E-27
   5.490000     -6.4253730E-27
   5.500000     -6.6794062E-27
   5.510000     -6.9259730E-27
   5.520000     -7.1634602E-27
   5.530000     -7.3901637E-27
   5.540000     -7.6042925E-27
   5.550000     -7.8039667E-27
   5.560000     -7.9872159E-27
   5.570000     -8.1519838E-27
   5.580000     -8.2961266E-27
   5.590000     -8.4174170E-27
   5.600000     -8.5135471E-27
   5.610000     -8.5821295E-27
   5.620000     -8.6207020E-27
   5.630000     -8.6267317E-27
   5.640000     -8.5976201E-27
   5.650000     -8.5307087E-27
   5.660000     -8.4232888E-27
   5.670000     -8.2726025E-27
   5.680000     -8.0758580E-27
   5.690000     -7.8302341E-27
   5.700000     -7.5328890E-27
   5.710000     -7.1809754E-27
   5.720000     -6.7716452E-27
   5.730000     -6.3020669E-27
   5.740000     -5.7694371E-27
   5.750000     -5.1709917E-27
   5.760000     -4.5040229E-27
   5.770000     -3.7658914E-27
   5.780000     -2.9540439E-27
   5.790000     -2.0660292E-27
   5.800000     -1.0995146E-27
   5.810000     -5.2302473E-29
   5.820000      1.0776495E-27
   5.830000      2.2922098E-27
   5.840000      3.5930507E-27
   5.850000      4.9816304E-27
   5.860000      6.4591696E-27
   5.870000      8.0266297E-27
   5.880000      9.6846913E-27
   5.890000      1.1433728E-26
   5.900000      1.3273783E-26
   5.910000      1.5204545E-26
   5.920000      1.7225314E-26
   5.930000      1.9334988E-26
   5.940000      2.1532031E-26
   5.950000      2.3814440E-26
   5.960000      2.6179727E-26
   5.970000      2.8624887E-26
   5.980000      3.1146364E-26
   5.990000      3.3740034E-26
   6.000000      3.6401179E-26
   6.010000      3.9124456E-26
   6.020000      4.1903869E-26
   6.030000      4.4732752E-26
   6.040000      4.7603747E-26
   6.050000      5.0508767E-26
   6.060000      5.3438997E-26
   6.070000      5.6384850E-26
   6.080000      5.9335985E-26
   6.090000      6.2281240E-26
   6.100000      6.5208685E-26
   6.110000      6.8105548E-26
   6.120000      7.0958254E-26
   6.130000      7.3752381E-26
   6.140000      7.6472675E-26
   6.150000      7.9103077E-26
   6.160000      8.1626661E-26
   6.170000      8.4025686E-26
   6.180000      8.6281606E-26
   6.190000      8.8375052E-26
   6.200000      9.0285864E-26
   6.210000      9.1993125E-26
   6.220000      9.3475167E-26
   6.230000      9.4709599E-26
   6.240000      9.5673340E-26
   6.250000      9.6342676E-26
   6.260000      9.6693300E-26
   6.270000      9.6700326E-26
   6.280000      9.6338393E-26
   6.290000      9.5581684E-26
   6.300000      9.4404014E-26
   6.310000      9.2778923E-26
   6.320000      9.0679734E-26
   6.330000      8.8079642E-26
   6.340000      8.4951808E-26
   6.350000      8.1269449E-26
   6.360000      7.7005995E-26
   6.370000      7.2135154E-26
   6.380000      6.6631056E-26
   6.390000      6.0468382E-26
   6.400000      5.3622500E-26
   6.410000      4.6069603E-26
   6.420000      3.7786887E-26
   6.430000      2.8752664E-26
   6.440000      1.8946539E-26
   6.450000      8.3496089E-27
   6.460000     -3.0554025E-27
   6.470000     -1.5283944E-26
   6.480000     -2.8349470E-26
   6.490000     -4.2263248E-26
   6.500000     -5.7034144E-26
   6.510000     -7.2668455E-26
   6.520000     -8.9169712E-26
   6.530000     -1.0653845E-25
   6.540000     -1.2477198E-25
   6.550000     -1.4386428E-25
   6.560000     -1.6380565E-25
   6.570000     -1.8458262E-25
   6.580000     -2.0617762E-25
   6.590000     -2.2856892E-25
   6.600000     -2.5173025E-25
   6.610000     -2.7563069E-25
   6.620000     -3.0023445E-25
   6.630000     -3.2550062E-25
   6.640000     -3.5138310E-25
   6.650000     -3.7783023E-25
   6.660000     -4.0478470E-25
   6.670000     -4.3218336E-25
   6.680000     -4.5995709E-25
   6.690000     -4.8803052E-25
   6.700000     -5.1632208E-25
   6.710000     -5.4474381E-25
   6.720000     -5.7320103E-25
   6.730000     -6.0159257E-25
   6.740000     -6.2981052E-25
   6.750000     -6.5774014E-25
   6.760000     -6.8526000E-25
   6.770000     -7.1224180E-25
   6.780000     -7.3855051E-25
   6.790000     -7.6404428E-25
   6.800000     -7.8857465E-25
   6.810000     -8.1198651E-25
   6.820000     -8.3411845E-25
   6.830000     -8.5480248E-25
   6.840000     -8.7386501E-25
   6.850000     -8.9112597E-25
   6.860000     -9.0640010E-25
   6.870000     -9.1949667E-25
   6.880000     -9.3022024E-25
   6.890000     -9.3837036E-25
   6.900000     -9.4374270E-25
   6.910000     -9.4612920E-25
   6.920000     -9.4531825E-25
   6.930000     -9.4109607E-25
   6.940000     -9.3324622E-25
   6.950000     -9.2155135E-25
   6.960000     -9.0579287E-25
   6.970000     -8.8575255E-25
   6.980000     -8.6121227E-25
   6.990000     -8.3195578E-25
   7.000000     -7.9776931E-25
   7.010000     -7.5844238E-25
   7.020000     -7.1376874E-25
   7.030000     -6.6354759E-25
   7.040000     -6.0758432E-25
   7.050000     -5.4569182E-25
   7.060000     -4.7769162E-25