  -2.600000      0.0000000E+00
  -2.590000      0.0000000E+00
  -2.580000      0.0000000E+00
  -2.570000      0.0000000E+00
  -2.560000      0.0000000E+00
  -2.550000      0.0000000E+00
  -2.540000      0.0000000E+00
  -2.530000      0.0000000E+00
  -2.520000      0.0000000E+00
  -2.510000      0.0000000E+00
  -2.500000      0.0000000E+00
  -2.490000      0.0000000E+00
  -2.480000      0.0000000E+00
  -2.470000      0.0000000E+00
  -2.460000      0.0000000E+00
  -2.450000      0.0000000E+00
  -2.440000      0.0000000E+00
  -2.430000      0.0000000E+00
  -2.420000      0.0000000E+00
  -2.410000      0.0000000E+00
  -2.400000      0.0000000E+00
  -2.390000      0.0000000E+00
  -2.380000      0.0000000E+00
  -2.370000      0.0000000E+00
  -2.360000      0.0000000E+00
  -2.350000      0.0000000E+00
  -2.340000      0.0000000E+00
  -2.330000      0.0000000E+00
  -2.320000      0.0000000E+00
  -2.310000      0.0000000E+00
  -2.300000      0.0000000E+00
  -2.290000      0.0000000E+00
  -2.280000      0.0000000E+00
  -2.270000      0.0000000E+00
  -2.260000      0.0000000E+00
  -2.250000      0.0000000E+00
  -2.240000      0.0000000E+00
  -2.230000      0.0000000E+00
  -2.220000      0.0000000E+00
  -2.210000      0.0000000E+00
  -2.200000      0.0000000E+00
  -2.190000      0.0000000E+00
  -2.180000      0.0000000E+00
  -2.170000      0.0000000E+00
  -2.160000      0.0000000E+00
  -2.150000      0.0000000E+00
  -2.140000      0.0000000E+00
  -2.130000      0.0000000E+00
  -2.120000      0.0000000E+00
  -2.110000      0.0000000E+00
  -2.100000      0.0000000E+00
  -2.090000      0.0000000E+00
  -2.080000      0.0000000E+00
  -2.070000      0.0000000E+00
  -2.060000      0.0000000E+00
  -2.050000      0.0000000E+00
  -2.040000      0.0000000E+00
  -2.030000      0.0000000E+00
  -2.020000      0.0000000E+00
  -2.010000      0.0000000E+00
  -2.000000      0.0000000E+00
  -1.990000      0.0000000E+00
  -1.980000      0.0000000E+00
  -1.970000      0.0000000E+00
  -1.960000      0.0000000E+00
  -1.950000      0.0000000E+00
  -1.940000      0.0000000E+00
  -1.930000      0.0000000E+00
  -1.920000      0.0000000E+00
  -1.910000      0.0000000E+00
  -1.900000      0.0000000E+00
  -1.890000      0.0000000E+00
  -1.880000      0.0000000E+00
  -1.870000      0.0000000E+00
  -1.860000      0.0000000E+00
  -1.850000      0.0000000E+00
  -1.840000      0.0000000E+00
  -1.830000      0.0000000E+00
  -1.820000      0.0000000E+00
  -1.810000      0.0000000E+00
  -1.800000      0.0000000E+00
  -1.790000      0.0000000E+00
  -1.780000      0.0000000E+00
  -1.770000      0.0000000E+00
  -1.760000      0.0000000E+00
  -1.750000      0.0000000E+00
  -1.740000      0.0000000E+00
  -1.730000      0.0000000E+00
  -1.720000      0.0000000E+00
  -1.710000      0.0000000E+00
  -1.700000      0.0000000E+00
  -1.690000      0.0000000E+00
  -1.680000      0.0000000E+00
  -1.670000      0.0000000E+00
  -1.660000      0.0000000E+00
  -1.650000      0.0000000E+00
  -1.640000      0.0000000E+00
  -1.630000      0.0000000E+00
  -1.620000      0.0000000E+00
  -1.610000      0.0000000E+00
  -1.600000      0.0000000E+00
  -1.590000      0.0000000E+00
  -1.580000      0.0000000E+00
  -1.570000      0.0000000E+00
  -1.560000      0.0000000E+00
  -1.550000      0.0000000E+00
  -1.540000      0.0000000E+00
  -1.530000      0.0000000E+00
  -1.520000      0.0000000E+00
  -1.510000      0.0000000E+00
  -1.500000      0.0000000E+00
  -1.490000      0.0000000E+00
  -1.480000      0.0000000E+00
  -1.470000      0.0000000E+00
  -1.460000      0.0000000E+00
  -1.450000      0.0000000E+00
  -1.440000      0.0000000E+00
  -1.430000      0.0000000E+00
  -1.420000      0.0000000E+00
  -1.410000      0.0000000E+00
  -1.400000      0.0000000E+00
  -1.390000      0.0000000E+00
  -1.380000      0.0000000E+00
  -1.370000      0.0000000E+00
  -1.360000      0.0000000E+00
  -1.350000      0.0000000E+00
  -1.340000      0.0000000E+00
  -1.330000      0.0000000E+00
  -1.320000      0.0000000E+00
  -1.310000      0.0000000E+00
  -1.300000      0.0000000E+00
  -1.290000      0.0000000E+00
  -1.280000      0.0000000E+00
  -1.270000      0.0000000E+00
  -1.260000      0.0000000E+00
  -1.250000      0.0000000E+00
  -1.240000      0.0000000E+00
  -1.230000      0.0000000E+00
  -1.220000      0.0000000E+00
  -1.210000      0.0000000E+00
  -1.200000      0.0000000E+00
  -1.190000      0.0000000E+00
  -1.180000      0.0000000E+00
  -1.170000      0.0000000E+00
  -1.160000      0.0000000E+00
  -1.150000      0.0000000E+00
  -1.140000      0.0000000E+00
  -1.130000      0.0000000E+00
  -1.120000      0.0000000E+00
  -1.110000      0.0000000E+00
  -1.100000      0.0000000E+00
  -1.090000      0.0000000E+00
  -1.080000      0.0000000E+00
  -1.070000      0.0000000E+00
  -1.060000      0.0000000E+00
  -1.050000      0.0000000E+00
  -1.040000      0.0000000E+00
  -1.030000      0.0000000E+00
  -1.020000      0.0000000E+00
  -1.010000      0.0000000E+00
  -1.000000      0.0000000E+00
 -0.9900000      0.0000000E+00
 -0.9800000      0.0000000E+00
 -0.9700000      0.0000000E+00
 -0.9600000      0.0000000E+00
 -0.9500000      0.0000000E+00
 -0.9400000      0.0000000E+00
 -0.9300000      0.0000000E+00
 -0.9200000      0.0000000E+00
 -0.9100000      0.0000000E+00
 -0.9000000      0.0000000E+00
 -0.8900000      0.0000000E+00
 -0.8800000      0.0000000E+00
 -0.8700000      0.0000000E+00
 -0.8600000      0.0000000E+00
 -0.8500000      0.0000000E+00
 -0.8400000      0.0000000E+00
 -0.8300000      0.0000000E+00
 -0.8200000      0.0000000E+00
 -0.8100000      0.0000000E+00
 -0.8000000      0.0000000E+00
 -0.7900000      0.0000000E+00
 -0.7800000      0.0000000E+00
 -0.7700000      0.0000000E+00
 -0.7600000      0.0000000E+00
 -0.7500000      0.0000000E+00
 -0.7400000      0.0000000E+00
 -0.7300000      0.0000000E+00
 -0.7200000      0.0000000E+00
 -0.7100000      0.0000000E+00
 -0.7000000      0.0000000E+00
 -0.6900000      0.0000000E+00
 -0.6800000      0.0000000E+00
 -0.6700000      0.0000000E+00
 -0.6600000      0.0000000E+00
 -0.6500000      0.0000000E+00
 -0.6400000      0.0000000E+00
 -0.6300000      0.0000000E+00
 -0.6200000      0.0000000E+00
 -0.6100000      0.0000000E+00
 -0.6000000      0.0000000E+00
 -0.5900000      0.0000000E+00
 -0.5800000      0.0000000E+00
 -0.5700000      0.0000000E+00
 -0.5600000      0.0000000E+00
 -0.5500000      0.0000000E+00
 -0.5400000      0.0000000E+00
 -0.5300000      0.0000000E+00
 -0.5200000      0.0000000E+00
 -0.5100000      0.0000000E+00
 -0.5000000      0.0000000E+00
 -0.4900000      0.0000000E+00
 -0.4800000      0.0000000E+00
 -0.4700000      0.0000000E+00
 -0.4600000      0.0000000E+00
 -0.4500000      0.0000000E+00
 -0.4400000      0.0000000E+00
 -0.4300000      0.0000000E+00
 -0.4200000      0.0000000E+00
 -0.4100000      0.0000000E+00
 -0.4000000      0.0000000E+00
 -0.3900000      0.0000000E+00
 -0.3800000      0.0000000E+00
 -0.3700000      0.0000000E+00
 -0.3600000      0.0000000E+00
 -0.3500000      0.0000000E+00
 -0.3400000      0.0000000E+00
 -0.3300000      0.0000000E+00
 -0.3200000      0.0000000E+00
 -0.3100000      0.0000000E+00
 -0.3000000      0.0000000E+00
 -0.2900000      0.0000000E+00
 -0.2800000      0.0000000E+00
 -0.2700000      0.0000000E+00
 -0.2600000      0.0000000E+00
 -0.2500000      0.0000000E+00
 -0.2400000      0.0000000E+00
 -0.2300000      0.0000000E+00
 -0.2200000      0.0000000E+00
 -0.2100000      0.0000000E+00
 -0.2000000      0.0000000E+00
 -0.1900000      0.0000000E+00
 -0.1800000      0.0000000E+00
 -0.1700000      0.0000000E+00
 -0.1600000      0.0000000E+00
 -0.1500000      0.0000000E+00
 -0.1400000      0.0000000E+00
 -0.1300000      0.0000000E+00
 -0.1200000      0.0000000E+00
 -0.1100000      0.0000000E+00
 -0.1000000      0.0000000E+00
 -9.0000004E-02  0.0000000E+00
 -7.9999998E-02  0.0000000E+00
 -7.0000000E-02  0.0000000E+00
 -5.9999999E-02  0.0000000E+00
 -5.0000001E-02  0.0000000E+00
 -3.9999999E-02  0.0000000E+00
 -2.9999999E-02  0.0000000E+00
 -2.0000000E-02  0.0000000E+00
 -9.9999998E-03  0.0000000E+00
 -3.4694470E-17  0.0000000E+00
  9.9999998E-03  0.0000000E+00
  2.0000000E-02  0.0000000E+00
  2.9999999E-02  0.0000000E+00
  3.9999999E-02  0.0000000E+00
  5.0000001E-02  0.0000000E+00
  5.9999999E-02  0.0000000E+00
  7.0000000E-02  0.0000000E+00
  7.9999998E-02  0.0000000E+00
  9.0000004E-02  0.0000000E+00
  0.1000000      0.0000000E+00
  0.1100000      0.0000000E+00
  0.1200000      0.0000000E+00
  0.1300000      0.0000000E+00
  0.1400000      0.0000000E+00
  0.1500000      0.0000000E+00
  0.1600000      0.0000000E+00
  0.1700000      0.0000000E+00
  0.1800000      0.0000000E+00
  0.1900000      0.0000000E+00
  0.2000000      0.0000000E+00
  0.2100000      0.0000000E+00
  0.2200000      0.0000000E+00
  0.2300000      0.0000000E+00
  0.2400000      0.0000000E+00
  0.2500000      0.0000000E+00
  0.2600000      0.0000000E+00
  0.2700000      0.0000000E+00
  0.2800000      0.0000000E+00
  0.2900000      0.0000000E+00
  0.3000000      0.0000000E+00
  0.3100000      0.0000000E+00
  0.3200000      0.0000000E+00
  0.3300000      0.0000000E+00
  0.3400000      0.0000000E+00
  0.3500000      0.0000000E+00
  0.3600000      0.0000000E+00
  0.3700000      0.0000000E+00
  0.3800000      0.0000000E+00
  0.3900000      0.0000000E+00
  0.4000000      0.0000000E+00
  0.4100000      0.0000000E+00
  0.4200000      0.0000000E+00
  0.4300000      0.0000000E+00
  0.4400000      0.0000000E+00
  0.4500000      0.0000000E+00
  0.4600000      0.0000000E+00
  0.4700000      0.0000000E+00
  0.4800000      0.0000000E+00
  0.4900000      0.0000000E+00
  0.5000000      0.0000000E+00
  0.5100000      0.0000000E+00
  0.5200000      0.0000000E+00
  0.5300000      0.0000000E+00
  0.5400000      0.0000000E+00
  0.5500000      0.0000000E+00
  0.5600000      0.0000000E+00
  0.5700000      0.0000000E+00
  0.5800000      0.0000000E+00
  0.5900000      0.0000000E+00
  0.6000000      0.0000000E+00
  0.6100000      0.0000000E+00
  0.6200000      0.0000000E+00
  0.6300000      0.0000000E+00
  0.6400000      0.0000000E+00
  0.6500000      0.0000000E+00
  0.6600000      0.0000000E+00
  0.6700000      0.0000000E+00
  0.6800000     -1.6220924E-38
  0.6900000     -2.3210820E-38
  0.7000000     -3.0995618E-38
  0.7100000     -3.9397431E-38
  0.7200000     -4.8407418E-38
  0.7300000     -5.5010247E-38
  0.7400000     -5.8878391E-38
  0.7500000     -6.2449763E-38
  0.7600000     -6.6380971E-38
  0.7700000     -7.4113499E-38
  0.7800000     -8.5236591E-38
  0.7900000     -9.4286457E-38
  0.8000000     -9.9944687E-38
  0.8100000     -9.9759469E-38
  0.8200000     -9.1474012E-38
  0.8300000     -7.6132680E-38
  0.8400000     -5.6122704E-38
  0.8500000     -3.4513805E-38
  0.8600000      0.0000000E+00
  0.8700000      1.8046912E-38
  0.8800000      4.6197271E-38
  0.8900000      7.6956290E-38
  0.9000000      1.1166880E-37
  0.9100000      1.4648647E-37
  0.9200000      1.7920143E-37
  0.9300000      2.1544531E-37
  0.9400000      2.5608384E-37
  0.9500000      2.9757696E-37
  0.9600000      3.4387882E-37
  0.9700000      3.9687678E-37
  0.9800000      4.5245649E-37
  0.9900000      5.0234016E-37
   1.000000      4.5972177E-37
   1.010000      3.2195700E-37
   1.020000      1.6574511E-37
   1.030000      0.0000000E+00
   1.040000     -1.9919323E-37
   1.050000     -4.0868912E-37
   1.060000     -6.2155999E-37
   1.070000     -8.3026831E-37
   1.080000     -1.0629316E-36
   1.090000     -1.3401256E-36
   1.100000     -1.6554692E-36
   1.110000     -1.9980954E-36
   1.120000     -1.7918655E-36
   1.130000     -9.8665842E-37
   1.140000     -1.0169715E-37
   1.150000      8.9535358E-37
   1.160000      1.8918541E-36
   1.170000      2.6629467E-36
   1.180000      2.8399388E-36
   1.190000      2.5815293E-36
   1.200000      2.3256425E-36
   1.210000      2.0837392E-36
   1.220000      1.8404391E-36
   1.230000      1.6788036E-36
   1.240000      1.0659307E-36
   1.250000     -1.4918126E-37
   1.260000     -1.4300831E-36
   1.270000     -2.7108979E-36
   1.280000     -3.8482617E-36
   1.290000     -4.6589424E-36
   1.300000     -4.6199281E-36
   1.310000     -3.8794284E-36
   1.320000     -3.1135799E-36
   1.330000     -2.2830816E-36
   1.340000     -1.3096622E-36
   1.350000     -6.3796349E-38
   1.360000      1.5093919E-36
   1.370000      3.2917239E-36
   1.380000      5.3181505E-36
   1.390000      6.8816125E-36
   1.400000      6.6597129E-36
   1.410000      4.8420229E-36
   1.420000      2.3756309E-36
   1.430000     -3.9461381E-37
   1.440000     -3.1591012E-36
   1.450000     -5.6619148E-36
   1.460000     -7.1644128E-36
   1.470000     -7.1577619E-36
   1.480000     -6.5103848E-36
   1.490000     -5.3678221E-36
   1.500000     -2.8364209E-36
   1.510000      9.7008462E-37
   1.520000      5.5066415E-36
   1.530000      1.0456489E-35
   1.540000      1.5530081E-35
   1.550000      2.0532626E-35
   1.560000      2.4849816E-35
   1.570000      2.8541849E-35
   1.580000      3.1645421E-35
   1.590000      3.3970188E-35
   1.600000      3.5610643E-35
   1.610000      3.6897221E-35
   1.620000      3.8286603E-35
   1.630000      3.9947144E-35
   1.640000      4.2051502E-35
   1.650000      4.5007782E-35
   1.660000      4.8593301E-35
   1.670000      5.1964886E-35
   1.680000      5.4598384E-35
   1.690000      5.7293250E-35
   1.700000      6.0576421E-35
   1.710000      6.5786903E-35
   1.720000      7.2219595E-35
   1.730000      7.7208111E-35
   1.740000      7.9013711E-35
   1.750000      7.7122652E-35
   1.760000      7.2172587E-35
   1.770000      6.4569876E-35
   1.780000      5.4602275E-35
   1.790000      4.1340750E-35
   1.800000      2.5698683E-35
   1.810000      8.5848310E-36
   1.820000     -1.0716748E-35
   1.830000     -3.6578534E-35
   1.840000     -6.8878132E-35
   1.850000     -1.0327259E-34
   1.860000     -1.3876060E-34
   1.870000     -1.7893546E-34
   1.880000     -2.2195797E-34
   1.890000     -2.6411372E-34
   1.900000     -3.0600967E-34
   1.910000     -3.4313061E-34
   1.920000     -3.7905567E-34
   1.930000     -4.2002567E-34
   1.940000     -4.6165832E-34
   1.950000     -5.1174416E-34
   1.960000     -5.6580377E-34
   1.970000     -6.0466263E-34
   1.980000     -6.3262085E-34
   1.990000     -6.6191623E-34
   2.000000     -6.9416486E-34
   2.010000     -7.2569405E-34
   2.020000     -7.5363096E-34
   2.030000     -7.7530951E-34
   2.040000     -7.8878591E-34
   2.050000     -7.8956716E-34
   2.060000     -7.8398687E-34
   2.070000     -7.7540061E-34
   2.080000     -7.5136988E-34
   2.090000     -7.2385955E-34
   2.100000     -7.0212443E-34
   2.110000     -6.7429983E-34
   2.120000     -6.4009465E-34
   2.130000     -5.9708786E-34
   2.140000     -5.4224214E-34
   2.150000     -4.7185413E-34
   2.160000     -3.7967030E-34
   2.170000     -2.7109329E-34
   2.180000     -1.4763290E-34
   2.190000     -3.7435919E-36
   2.200000      1.6194261E-34
   2.210000      3.4963057E-34
   2.220000      5.5768588E-34
   2.230000      7.8403728E-34
   2.240000      1.0261808E-33
   2.250000      1.2816197E-33
   2.260000      1.5476537E-33
   2.270000      1.8220715E-33
   2.280000      2.1029682E-33
   2.290000      2.3882682E-33
   2.300000      2.6791243E-33
   2.310000      2.9758558E-33
   2.320000      3.2766328E-33
   2.330000      3.5798678E-33
   2.340000      3.8846977E-33
   2.350000      4.1911924E-33
   2.360000      4.4952399E-33
   2.370000      4.8032584E-33
   2.380000      5.1050221E-33
   2.390000      5.3943094E-33
   2.400000      5.6770672E-33
   2.410000      5.9430856E-33
   2.420000      6.1814686E-33
   2.430000      6.3825119E-33
   2.440000      6.5416422E-33
   2.450000      6.6523451E-33
   2.460000      6.7089841E-33
   2.470000      6.7069204E-33
   2.480000      6.6418987E-33
   2.490000      6.5119074E-33
   2.500000      6.3172095E-33
   2.510000      6.0526267E-33
   2.520000      5.7134032E-33
   2.530000      5.3001828E-33
   2.540000      4.8103279E-33
   2.550000      4.2381975E-33
   2.560000      3.5791680E-33
   2.570000      2.8280893E-33
   2.580000      1.9785447E-33
   2.590000      1.0230775E-33
   2.600000     -4.4909004E-35
   2.610000     -1.2299674E-33
   2.620000     -2.5356730E-33
   2.630000     -3.9632868E-33
   2.640000     -5.5119004E-33
   2.650000     -7.1785067E-33
   2.660000     -8.9577886E-33
   2.670000     -1.0842417E-32
   2.680000     -1.2823660E-32
   2.690000     -1.4890798E-32
   2.700000     -1.7032104E-32
   2.710000     -1.9236064E-32
   2.720000     -2.1490535E-32
   2.730000     -2.3783163E-32
   2.740000     -2.6101517E-32
   2.750000     -2.8432658E-32
   2.760000     -3.0762937E-32
   2.770000     -3.3077515E-32
   2.780000     -3.5352414E-32
   2.790000     -3.7577513E-32
   2.800000     -3.9738639E-32
   2.810000     -4.1806468E-32
   2.820000     -4.3756437E-32
   2.830000     -4.5558297E-32
   2.840000     -4.7181134E-32
   2.850000     -4.8592556E-32
   2.860000     -4.9759411E-32
   2.870000     -5.0647879E-32
   2.880000     -5.1224494E-32
   2.890000     -5.1456583E-32
   2.900000     -5.1312562E-32
   2.910000     -5.0762001E-32
   2.920000     -4.9775579E-32
   2.930000     -4.8325055E-32
   2.940000     -4.6382785E-32
   2.950000     -4.3921330E-32
   2.960000     -4.0913322E-32
   2.970000     -3.7331279E-32
   2.980000     -3.3147639E-32
   2.990000     -2.8335053E-32
   3.000000     -2.2866727E-32
   3.010000     -1.6717274E-32
   3.020000     -9.8637604E-33
   3.030000     -2.2865736E-33
   3.040000      6.0294639E-33
   3.050000      1.5094037E-32
   3.060000      2.4910397E-32
   3.070000      3.5474753E-32
   3.080000      4.6775815E-32
   3.090000      5.8794466E-32
   3.100000      7.1503776E-32
   3.110000      8.4869282E-32
   3.120000      9.8849377E-32
   3.130000      1.1339556E-31
   3.140000      1.2845282E-31
   3.150000      1.4396002E-31
   3.160000      1.5984989E-31
   3.170000      1.7604899E-31
   3.180000      1.9247742E-31
   3.190000      2.0904832E-31
   3.200000      2.2566734E-31
   3.210000      2.4223208E-31
   3.220000      2.5863137E-31
   3.230000      2.7474496E-31
   3.240000      2.9044302E-31
   3.250000      3.0558628E-31
   3.260000      3.2002613E-31
   3.270000      3.3360497E-31
   3.280000      3.4615694E-31
   3.290000      3.5750876E-31
   3.300000      3.6748053E-31
   3.310000      3.7588665E-31
   3.320000      3.8253682E-31
   3.330000      3.8723680E-31
   3.340000      3.8978918E-31
   3.350000      3.8999378E-31
   3.360000      3.8764851E-31
   3.370000      3.8254971E-31
   3.380000      3.7449268E-31
   3.390000      3.6327278E-31
   3.400000      3.4868630E-31
   3.410000      3.3053190E-31
   3.420000      3.0861224E-31
   3.430000      2.8273608E-31
   3.440000      2.5272061E-31
   3.450000      2.1839411E-31
   3.460000      1.7959892E-31
   3.470000      1.3619434E-31
   3.480000      8.8059438E-32
   3.490000      3.5095709E-32
   3.500000     -2.2770165E-32
   3.510000     -8.5584476E-32
   3.520000     -1.5336457E-31
   3.530000     -2.2609717E-31
   3.540000     -3.0373728E-31
   3.550000     -3.8620726E-31
   3.560000     -4.7339574E-31
   3.570000     -5.6515671E-31
   3.580000     -6.6130848E-31
   3.590000     -7.6163246E-31
   3.600000     -8.6587177E-31
   3.610000     -9.7372949E-31
   3.620000     -1.0848666E-30
   3.630000     -1.1989000E-30
   3.640000     -1.3154002E-30
   3.650000     -1.4338885E-30
   3.660000     -1.5538353E-30
   3.670000     -1.6746574E-30
   3.680000     -1.7957170E-30
   3.690000     -1.9163195E-30
   3.700000     -2.0357128E-30
   3.710000     -2.1530870E-30
   3.720000     -2.2675732E-30
   3.730000     -2.3782444E-30
   3.740000     -2.4841160E-30
   3.750000     -2.5841462E-30
   3.760000     -2.6772390E-30
   3.770000     -2.7622440E-30
   3.780000     -2.8379597E-30
   3.790000     -2.9031361E-30
   3.800000     -2.9564779E-30
   3.810000     -2.9966483E-30
   3.820000     -3.0222725E-30
   3.830000     -3.0319447E-30
   3.840000     -3.0242329E-30
   3.850000     -2.9976857E-30
   3.860000     -2.9508410E-30
   3.870000     -2.8822326E-30
   3.880000     -2.7903998E-30
   3.890000     -2.6738955E-30
   3.900000     -2.5312966E-30
   3.910000     -2.3612127E-30
   3.920000     -2.1622959E-30
   3.930000     -1.9332496E-30
   3.940000     -1.6728379E-30
   3.950000     -1.3798953E-30
   3.960000     -1.0533353E-30
   3.970000     -6.9215891E-31
   3.980000     -2.9546457E-31
   3.990000      1.3754316E-31
   4.000000      6.0754259E-31
   4.010000      1.1150842E-30
   4.020000      1.6605778E-30
   4.030000      2.2442801E-30
   4.040000      2.8662822E-30
   4.050000      3.5264921E-30
   4.060000      4.2246187E-30
   4.070000      4.9601555E-30
   4.080000      5.7323612E-30
   4.090000      6.5402429E-30
   4.100000      7.3825386E-30
   4.110000      8.2576977E-30
   4.120000      9.1638606E-30
   4.130000      1.0098847E-29
   4.140000      1.1060133E-29
   4.150000      1.2044840E-29
   4.160000      1.3049722E-29
   4.170000      1.4071145E-29
   4.180000      1.5105082E-29
   4.190000      1.6147103E-29
   4.200000      1.7192363E-29
   4.210000      1.8235603E-29
   4.220000      1.9271135E-29
   4.230000      2.0292850E-29
   4.240000      2.1294210E-29
   4.250000      2.2268257E-29
   4.260000      2.3207605E-29
   4.270000      2.4104458E-29
   4.280000      2.4950604E-29
   4.290000      2.5737442E-29
   4.300000      2.6455967E-29
   4.310000      2.7096796E-29
   4.320000      2.7650179E-29
   4.330000      2.8106010E-29
   4.340000      2.8453845E-29
   4.350000      2.8682911E-29
   4.360000      2.8782144E-29
   4.370000      2.8740183E-29
   4.380000      2.8545399E-29
   4.390000      2.8185940E-29
   4.400000      2.7649725E-29
   4.410000      2.6924507E-29
   4.420000      2.5997900E-29
   4.430000      2.4857405E-29
   4.440000      2.3490477E-29
   4.450000      2.1884580E-29
   4.460000      2.0027241E-29
   4.470000      1.7906115E-29
   4.480000      1.5509056E-29
   4.490000      1.2824208E-29
   4.500000      9.8400839E-30
   4.510000      6.5456521E-30
   4.520000      2.9304371E-30
   4.530000     -1.0153687E-30
   4.540000     -5.3008058E-30
   4.550000     -9.9340377E-30
   4.560000     -1.4922247E-29
   4.570000     -2.0271522E-29
   4.580000     -2.5986744E-29
   4.590000     -3.2071473E-29
   4.600000     -3.8527831E-29
   4.610000     -4.5356393E-29
   4.620000     -5.2556076E-29
   4.630000     -6.0124012E-29
   4.640000     -6.8055443E-29
   4.650000     -7.6343610E-29
   4.660000     -8.4979619E-29
   4.670000     -9.3952328E-29
   4.680000     -1.0324826E-28
   4.690000     -1.1285143E-28
   4.700000     -1.2274325E-28
   4.710000     -1.3290241E-28
   4.720000     -1.4330474E-28
   4.730000     -1.5392310E-28
   4.740000     -1.6472721E-28
   4.750000     -1.7568358E-28
   4.760000     -1.8675534E-28
   4.770000     -1.9790212E-28
   4.780000     -2.0907987E-28
   4.790000     -2.2024087E-28
   4.800000     -2.3133353E-28
   4.810000     -2.4230228E-28
   4.820000     -2.5308739E-28
   4.830000     -2.6362514E-28
   4.840000     -2.7384750E-28
   4.850000     -2.8368219E-28
   4.860000     -2.9305270E-28
   4.870000     -3.0187825E-28
   4.880000     -3.1007373E-28
   4.890000     -3.1754986E-28
   4.900000     -3.2421319E-28
   4.910000     -3.2996623E-28
   4.920000     -3.3470758E-28
   4.930000     -3.3833209E-28
   4.940000     -3.4073093E-28
   4.950000     -3.4179195E-28
   4.960000     -3.4139973E-28
   4.970000     -3.3943600E-28
   4.980000     -3.3577989E-28
   4.990000     -3.3030823E-28
   5.000000     -3.2289578E-28
   5.010000     -3.1341558E-28
   5.020000     -3.0173939E-28
   5.030000     -2.8773810E-28
   5.040000     -2.7128209E-28
   5.050000     -2.5224179E-28
   5.060000     -2.3048812E-28
   5.070000     -2.0589315E-28
   5.080000     -1.7833066E-28
   5.090000     -1.4767648E-28
   5.100000     -1.1380945E-28
   5.110000     -7.6612175E-29
   5.120000     -3.5971707E-29
   5.130000      8.2197231E-30
   5.140000      5.6063622E-29
   5.150000      1.0765461E-28
   5.160000      1.6307925E-28
   5.170000      2.2241489E-28
   5.180000      2.8572882E-28
   5.190000      3.5307701E-28
   5.200000      4.2450279E-28
   5.210000      5.0003579E-28
   5.220000      5.7969061E-28
   5.230000      6.6346563E-28
   5.240000      7.5134158E-28
   5.250000      8.4328027E-28
   5.260000      9.3922317E-28
   5.270000      1.0390902E-27
   5.280000      1.1427785E-27
   5.290000      1.2501608E-27
   5.300000      1.3610849E-27
   5.310000      1.4753711E-27
   5.320000      1.5928119E-27
   5.330000      1.7131702E-27
   5.340000      1.8361789E-27
   5.350000      1.9615388E-27
   5.360000      2.0889177E-27
   5.370000      2.2179495E-27
   5.380000      2.3482325E-27
   5.390000      2.4793290E-27
   5.400000      2.6107642E-27
   5.410000      2.7420247E-27
   5.420000      2.8725580E-27
   5.430000      3.0017714E-27
   5.440000      3.1290320E-27
   5.450000      3.2536649E-27
   5.460000      3.3749526E-27
   5.470000      3.4921370E-27
   5.480000      3.6044160E-27
   5.490000      3.7109438E-27
   5.500000      3.8108333E-27
   5.510000      3.9031536E-27
   5.520000      3.9869319E-27
   5.530000      4.0611534E-27
   5.540000      4.1247634E-27
   5.550000      4.1766657E-27
   5.560000      4.2157278E-27
   5.570000      4.2407810E-27
   5.580000      4.2506214E-27
   5.590000      4.2440131E-27
   5.600000      4.2196921E-27
   5.610000      4.1763675E-27
   5.620000      4.1127256E-27
   5.630000      4.0274323E-27
   5.640000      3.9191392E-27
   5.650000      3.7864865E-27
   5.660000      3.6281080E-27
   5.670000      3.4426356E-27
   5.680000      3.2287045E-27
   5.690000      2.9849590E-27
   5.700000      2.7100600E-27
   5.710000      2.4026910E-27
   5.720000      2.0615622E-27
   5.730000      1.6854215E-27
   5.740000      1.2730601E-27
   5.750000      8.2331916E-28
   5.760000      3.3509980E-28
   5.770000     -1.9263065E-28
   5.780000     -7.6082620E-28
   5.790000     -1.3703565E-27
   5.800000     -2.0219961E-27
   5.810000     -2.7164134E-27
   5.820000     -3.4541634E-27
   5.830000     -4.2356723E-27
   5.840000     -5.0612283E-27
   5.850000     -5.9309671E-27
   5.860000     -6.8448621E-27
   5.870000     -7.8027141E-27
   5.880000     -8.8041361E-27
   5.890000     -9.8485440E-27
   5.900000     -1.0935139E-26
   5.910000     -1.2062900E-26
   5.920000     -1.3230566E-26
   5.930000     -1.4436631E-26
   5.940000     -1.5679321E-26
   5.950000     -1.6956593E-26
   5.960000     -1.8266111E-26
   5.970000     -1.9605247E-26
   5.980000     -2.0971063E-26
   5.990000     -2.2360298E-26
   6.000000     -2.3769361E-26
   6.010000     -2.5194316E-26
   6.020000     -2.6630884E-26
   6.030000     -2.8074410E-26
   6.040000     -2.9519896E-26
   6.050000     -3.0961952E-26
   6.060000     -3.2394810E-26
   6.070000     -3.3812326E-26
   6.080000     -3.5207956E-26
   6.090000     -3.6574769E-26
   6.100000     -3.7905444E-26
   6.110000     -3.9192261E-26
   6.120000     -4.0427112E-26
   6.130000     -4.1601501E-26
   6.140000     -4.2706538E-26
   6.150000     -4.3732948E-26
   6.160000     -4.4671088E-26
   6.170000     -4.5510960E-26
   6.180000     -4.6242204E-26
   6.190000     -4.6854116E-26
   6.200000     -4.7335691E-26
   6.210000     -4.7675613E-26
   6.220000     -4.7862271E-26
   6.230000     -4.7883814E-26
   6.240000     -4.7728152E-26
   6.250000     -4.7382992E-26
   6.260000     -4.6835858E-26
   6.270000     -4.6074148E-26
   6.280000     -4.5085182E-26
   6.290000     -4.3856210E-26
   6.300000     -4.2374486E-26
   6.310000     -4.0627289E-26
   6.320000     -3.8602006E-26
   6.330000     -3.6286166E-26
   6.340000     -3.3667496E-26
   6.350000     -3.0733999E-26
   6.360000     -2.7473988E-26
   6.370000     -2.3876160E-26
   6.380000     -1.9929666E-26
   6.390000     -1.5624208E-26
   6.400000     -1.0950104E-26
   6.410000     -5.8983392E-27
   6.420000     -4.6065100E-28
   6.430000      5.3703821E-27
   6.440000      1.1601246E-26
   6.450000      1.8237427E-26
   6.460000      2.5283296E-26
   6.470000      3.2742005E-26
   6.480000      4.0615437E-26
   6.490000      4.8904091E-26
   6.500000      5.7606962E-26
   6.510000      6.6721498E-26
   6.520000      7.6243456E-26
   6.530000      8.6166833E-26
   6.540000      9.6483772E-26
   6.550000      1.0718443E-25
   6.560000      1.1825692E-25
   6.570000      1.2968717E-25
   6.580000      1.4145886E-25
   6.590000      1.5355332E-25
   6.600000      1.6594946E-25
   6.610000      1.7862361E-25
   6.620000      1.9154952E-25
   6.630000      2.0469823E-25
   6.640000      2.1803800E-25
   6.650000      2.3153427E-25
   6.660000      2.4514960E-25
   6.670000      2.5884358E-25
   6.680000      2.7257277E-25
   6.690000      2.8629069E-25
   6.700000      2.9994777E-25
   6.710000      3.1349133E-25
   6.720000      3.2686560E-25
   6.730000      3.4001167E-25
   6.740000      3.5286747E-25
   6.750000      3.6536783E-25
   6.760000      3.7744450E-25
   6.770000      3.8902631E-25
   6.780000      4.0003901E-25
   6.790000      4.1040545E-25
   6.800000      4.2004570E-25
   6.810000      4.2887695E-25
   6.820000      4.3681408E-25
   6.830000      4.4376912E-25
   6.840000      4.4965205E-25
   6.850000      4.5437057E-25
   6.860000      4.5783051E-25
   6.870000      4.5993579E-25
   6.880000      4.6058886E-25
   6.890000      4.5969075E-25
   6.900000      4.5714149E-25
   6.910000      4.5284018E-25
   6.920000      4.4668563E-25
   6.930000      4.3857649E-25
   6.940000      4.2841167E-25
   6.950000      4.1609065E-25
   6.960000      4.0151373E-25
   6.970000      3.8458288E-25
   6.980000      3.6520160E-25
   6.990000      3.4327573E-25
   7.000000      3.1871401E-25
   7.010000      2.9142814E-25
   7.020000      2.6133347E-25
   7.030000      2.2834962E-25
   7.040000      1.9240104E-25
   7.050000      1.5341766E-25
   7.060000      1.1133526E-25