  -2.600000      0.0000000E+00
  -2.590000      0.0000000E+00
  -2.580000      0.0000000E+00
  -2.570000      0.0000000E+00
  -2.560000      0.0000000E+00
  -2.550000      0.0000000E+00
  -2.540000      0.0000000E+00
  -2.530000      0.0000000E+00
  -2.520000      0.0000000E+00
  -2.510000      0.0000000E+00
  -2.500000      0.0000000E+00
  -2.490000      0.0000000E+00
  -2.480000      0.0000000E+00
  -2.470000      0.0000000E+00
  -2.460000      0.0000000E+00
  -2.450000      0.0000000E+00
  -2.440000      0.0000000E+00
  -2.430000      0.0000000E+00
  -2.420000      0.0000000E+00
  -2.410000      0.0000000E+00
  -2.400000      0.0000000E+00
  -2.390000      0.0000000E+00
  -2.380000      0.0000000E+00
  -2.370000      0.0000000E+00
  -2.360000      0.0000000E+00
  -2.350000      0.0000000E+00
  -2.340000      0.0000000E+00
  -2.330000      0.0000000E+00
  -2.320000      0.0000000E+00
  -2.310000      0.0000000E+00
  -2.300000      0.0000000E+00
  -2.290000      0.0000000E+00
  -2.280000      0.0000000E+00
  -2.270000      0.0000000E+00
  -2.260000      0.0000000E+00
  -2.250000      0.0000000E+00
  -2.240000      0.0000000E+00
  -2.230000      0.0000000E+00
  -2.220000      0.0000000E+00
  -2.210000      0.0000000E+00
  -2.200000      0.0000000E+00
  -2.190000      0.0000000E+00
  -2.180000      0.0000000E+00
  -2.170000      0.0000000E+00
  -2.160000      0.0000000E+00
  -2.150000      0.0000000E+00
  -2.140000      0.0000000E+00
  -2.130000      0.0000000E+00
  -2.120000      0.0000000E+00
  -2.110000      0.0000000E+00
  -2.100000      0.0000000E+00
  -2.090000      0.0000000E+00
  -2.080000      0.0000000E+00
  -2.070000      0.0000000E+00
  -2.060000      0.0000000E+00
  -2.050000      0.0000000E+00
  -2.040000      0.0000000E+00
  -2.030000      0.0000000E+00
  -2.020000      0.0000000E+00
  -2.010000      0.0000000E+00
  -2.000000      0.0000000E+00
  -1.990000      0.0000000E+00
  -1.980000      0.0000000E+00
  -1.970000      0.0000000E+00
  -1.960000      0.0000000E+00
  -1.950000      0.0000000E+00
  -1.940000      0.0000000E+00
  -1.930000      0.0000000E+00
  -1.920000      0.0000000E+00
  -1.910000      0.0000000E+00
  -1.900000      0.0000000E+00
  -1.890000      0.0000000E+00
  -1.880000      0.0000000E+00
  -1.870000      0.0000000E+00
  -1.860000      0.0000000E+00
  -1.850000      0.0000000E+00
  -1.840000      0.0000000E+00
  -1.830000      0.0000000E+00
  -1.820000      0.0000000E+00
  -1.810000      0.0000000E+00
  -1.800000      0.0000000E+00
  -1.790000      0.0000000E+00
  -1.780000      0.0000000E+00
  -1.770000      0.0000000E+00
  -1.760000      0.0000000E+00
  -1.750000      0.0000000E+00
  -1.740000      0.0000000E+00
  -1.730000      0.0000000E+00
  -1.720000      0.0000000E+00
  -1.710000      0.0000000E+00
  -1.700000      0.0000000E+00
  -1.690000      0.0000000E+00
  -1.680000      0.0000000E+00
  -1.670000      0.0000000E+00
  -1.660000      0.0000000E+00
  -1.650000      0.0000000E+00
  -1.640000      0.0000000E+00
  -1.630000      0.0000000E+00
  -1.620000      0.0000000E+00
  -1.610000      0.0000000E+00
  -1.600000      0.0000000E+00
  -1.590000      0.0000000E+00
  -1.580000      0.0000000E+00
  -1.570000      0.0000000E+00
  -1.560000      0.0000000E+00
  -1.550000      0.0000000E+00
  -1.540000      0.0000000E+00
  -1.530000      0.0000000E+00
  -1.520000      0.0000000E+00
  -1.510000      0.0000000E+00
  -1.500000      0.0000000E+00
  -1.490000      0.0000000E+00
  -1.480000      0.0000000E+00
  -1.470000      0.0000000E+00
  -1.460000      0.0000000E+00
  -1.450000      0.0000000E+00
  -1.440000      0.0000000E+00
  -1.430000      0.0000000E+00
  -1.420000      0.0000000E+00
  -1.410000      0.0000000E+00
  -1.400000      0.0000000E+00
  -1.390000      0.0000000E+00
  -1.380000      0.0000000E+00
  -1.370000      0.0000000E+00
  -1.360000      0.0000000E+00
  -1.350000      0.0000000E+00
  -1.340000      0.0000000E+00
  -1.330000      0.0000000E+00
  -1.320000      0.0000000E+00
  -1.310000      0.0000000E+00
  -1.300000      0.0000000E+00
  -1.290000      0.0000000E+00
  -1.280000      0.0000000E+00
  -1.270000      0.0000000E+00
  -1.260000      0.0000000E+00
  -1.250000      0.0000000E+00
  -1.240000      0.0000000E+00
  -1.230000      0.0000000E+00
  -1.220000      0.0000000E+00
  -1.210000      0.0000000E+00
  -1.200000      0.0000000E+00
  -1.190000      0.0000000E+00
  -1.180000      0.0000000E+00
  -1.170000      0.0000000E+00
  -1.160000      0.0000000E+00
  -1.150000      0.0000000E+00
  -1.140000      0.0000000E+00
  -1.130000      0.0000000E+00
  -1.120000      0.0000000E+00
  -1.110000      0.0000000E+00
  -1.100000      0.0000000E+00
  -1.090000      0.0000000E+00
  -1.080000      0.0000000E+00
  -1.070000      0.0000000E+00
  -1.060000      0.0000000E+00
  -1.050000      0.0000000E+00
  -1.040000      0.0000000E+00
  -1.030000      0.0000000E+00
  -1.020000      0.0000000E+00
  -1.010000      0.0000000E+00
  -1.000000      0.0000000E+00
 -0.9900000      0.0000000E+00
 -0.9800000      0.0000000E+00
 -0.9700000      0.0000000E+00
 -0.9600000      0.0000000E+00
 -0.9500000      0.0000000E+00
 -0.9400000      0.0000000E+00
 -0.9300000      0.0000000E+00
 -0.9200000      0.0000000E+00
 -0.9100000      0.0000000E+00
 -0.9000000      0.0000000E+00
 -0.8900000      0.0000000E+00
 -0.8800000      0.0000000E+00
 -0.8700000      0.0000000E+00
 -0.8600000      0.0000000E+00
 -0.8500000      0.0000000E+00
 -0.8400000      0.0000000E+00
 -0.8300000      0.0000000E+00
 -0.8200000      0.0000000E+00
 -0.8100000      0.0000000E+00
 -0.8000000      0.0000000E+00
 -0.7900000      0.0000000E+00
 -0.7800000      0.0000000E+00
 -0.7700000      0.0000000E+00
 -0.7600000      0.0000000E+00
 -0.7500000      0.0000000E+00
 -0.7400000      0.0000000E+00
 -0.7300000      0.0000000E+00
 -0.7200000      0.0000000E+00
 -0.7100000      0.0000000E+00
 -0.7000000      0.0000000E+00
 -0.6900000      0.0000000E+00
 -0.6800000      0.0000000E+00
 -0.6700000      0.0000000E+00
 -0.6600000      0.0000000E+00
 -0.6500000      0.0000000E+00
 -0.6400000      0.0000000E+00
 -0.6300000      0.0000000E+00
 -0.6200000      0.0000000E+00
 -0.6100000      0.0000000E+00
 -0.6000000      0.0000000E+00
 -0.5900000      0.0000000E+00
 -0.5800000      0.0000000E+00
 -0.5700000      0.0000000E+00
 -0.5600000      0.0000000E+00
 -0.5500000      0.0000000E+00
 -0.5400000      0.0000000E+00
 -0.5300000      0.0000000E+00
 -0.5200000      0.0000000E+00
 -0.5100000      0.0000000E+00
 -0.5000000      0.0000000E+00
 -0.4900000      0.0000000E+00
 -0.4800000      0.0000000E+00
 -0.4700000      0.0000000E+00
 -0.4600000      0.0000000E+00
 -0.4500000      0.0000000E+00
 -0.4400000      0.0000000E+00
 -0.4300000      0.0000000E+00
 -0.4200000      0.0000000E+00
 -0.4100000      0.0000000E+00
 -0.4000000      0.0000000E+00
 -0.3900000      0.0000000E+00
 -0.3800000      0.0000000E+00
 -0.3700000      0.0000000E+00
 -0.3600000      0.0000000E+00
 -0.3500000      0.0000000E+00
 -0.3400000      0.0000000E+00
 -0.3300000      0.0000000E+00
 -0.3200000      0.0000000E+00
 -0.3100000      0.0000000E+00
 -0.3000000      0.0000000E+00
 -0.2900000      0.0000000E+00
 -0.2800000      0.0000000E+00
 -0.2700000      0.0000000E+00
 -0.2600000      0.0000000E+00
 -0.2500000      0.0000000E+00
 -0.2400000      0.0000000E+00
 -0.2300000      0.0000000E+00
 -0.2200000      0.0000000E+00
 -0.2100000      0.0000000E+00
 -0.2000000      0.0000000E+00
 -0.1900000      0.0000000E+00
 -0.1800000      0.0000000E+00
 -0.1700000      0.0000000E+00
 -0.1600000      0.0000000E+00
 -0.1500000      0.0000000E+00
 -0.1400000      0.0000000E+00
 -0.1300000      0.0000000E+00
 -0.1200000      0.0000000E+00
 -0.1100000      0.0000000E+00
 -0.1000000      0.0000000E+00
 -9.0000004E-02  0.0000000E+00
 -7.9999998E-02  0.0000000E+00
 -7.0000000E-02  0.0000000E+00
 -5.9999999E-02  0.0000000E+00
 -5.0000001E-02  0.0000000E+00
 -3.9999999E-02  0.0000000E+00
 -2.9999999E-02  0.0000000E+00
 -2.0000000E-02  0.0000000E+00
 -9.9999998E-03  0.0000000E+00
 -3.4694470E-17  0.0000000E+00
  9.9999998E-03  0.0000000E+00
  2.0000000E-02  0.0000000E+00
  2.9999999E-02  0.0000000E+00
  3.9999999E-02  0.0000000E+00
  5.0000001E-02  0.0000000E+00
  5.9999999E-02  0.0000000E+00
  7.0000000E-02  0.0000000E+00
  7.9999998E-02  0.0000000E+00
  9.0000004E-02  0.0000000E+00
  0.1000000      0.0000000E+00
  0.1100000      0.0000000E+00
  0.1200000      0.0000000E+00
  0.1300000      0.0000000E+00
  0.1400000      0.0000000E+00
  0.1500000      0.0000000E+00
  0.1600000      0.0000000E+00
  0.1700000      0.0000000E+00
  0.1800000      0.0000000E+00
  0.1900000      0.0000000E+00
  0.2000000      0.0000000E+00
  0.2100000      0.0000000E+00
  0.2200000      0.0000000E+00
  0.2300000      0.0000000E+00
  0.2400000      0.0000000E+00
  0.2500000      0.0000000E+00
  0.2600000      0.0000000E+00
  0.2700000      0.0000000E+00
  0.2800000      0.0000000E+00
  0.2900000      0.0000000E+00
  0.3000000      0.0000000E+00
  0.3100000      0.0000000E+00
  0.3200000      0.0000000E+00
  0.3300000      0.0000000E+00
  0.3400000      0.0000000E+00
  0.3500000      0.0000000E+00
  0.3600000      0.0000000E+00
  0.3700000      0.0000000E+00
  0.3800000      0.0000000E+00
  0.3900000      0.0000000E+00
  0.4000000      0.0000000E+00
  0.4100000      0.0000000E+00
  0.4200000      0.0000000E+00
  0.4300000      0.0000000E+00
  0.4400000      0.0000000E+00
  0.4500000      0.0000000E+00
  0.4600000      0.0000000E+00
  0.4700000      0.0000000E+00
  0.4800000      0.0000000E+00
  0.4900000      0.0000000E+00
  0.5000000      0.0000000E+00
  0.5100000      0.0000000E+00
  0.5200000      0.0000000E+00
  0.5300000      0.0000000E+00
  0.5400000      0.0000000E+00
  0.5500000      0.0000000E+00
  0.5600000      0.0000000E+00
  0.5700000      0.0000000E+00
  0.5800000      0.0000000E+00
  0.5900000      0.0000000E+00
  0.6000000      0.0000000E+00
  0.6100000      0.0000000E+00
  0.6200000      0.0000000E+00
  0.6300000      0.0000000E+00
  0.6400000      0.0000000E+00
  0.6500000      0.0000000E+00
  0.6600000      0.0000000E+00
  0.6700000      0.0000000E+00
  0.6800000      0.0000000E+00
  0.6900000      0.0000000E+00
  0.7000000      0.0000000E+00
  0.7100000      0.0000000E+00
  0.7200000      0.0000000E+00
  0.7300000      0.0000000E+00
  0.7400000      0.0000000E+00
  0.7500000      0.0000000E+00
  0.7600000      0.0000000E+00
  0.7700000      0.0000000E+00
  0.7800000      0.0000000E+00
  0.7900000      0.0000000E+00
  0.8000000      0.0000000E+00
  0.8100000      0.0000000E+00
  0.8200000      0.0000000E+00
  0.8300000      0.0000000E+00
  0.8400000      0.0000000E+00
  0.8500000      0.0000000E+00
  0.8600000      0.0000000E+00
  0.8700000      0.0000000E+00
  0.8800000      0.0000000E+00
  0.8900000      0.0000000E+00
  0.9000000      0.0000000E+00
  0.9100000      0.0000000E+00
  0.9200000      0.0000000E+00
  0.9300000      0.0000000E+00
  0.9400000      0.0000000E+00
  0.9500000      0.0000000E+00
  0.9600000      0.0000000E+00
  0.9700000      0.0000000E+00
  0.9800000      0.0000000E+00
  0.9900000      0.0000000E+00
   1.000000      0.0000000E+00
   1.010000      0.0000000E+00
   1.020000      0.0000000E+00
   1.030000      0.0000000E+00
   1.040000      0.0000000E+00
   1.050000      0.0000000E+00
   1.060000      0.0000000E+00
   1.070000      0.0000000E+00
   1.080000      0.0000000E+00
   1.090000      0.0000000E+00
   1.100000      0.0000000E+00
   1.110000      0.0000000E+00
   1.120000      0.0000000E+00
   1.130000      0.0000000E+00
   1.140000      0.0000000E+00
   1.150000      0.0000000E+00
   1.160000      0.0000000E+00
   1.170000      0.0000000E+00
   1.180000      0.0000000E+00
   1.190000      0.0000000E+00
   1.200000      0.0000000E+00
   1.210000      0.0000000E+00
   1.220000      0.0000000E+00
   1.230000      0.0000000E+00
   1.240000      0.0000000E+00
   1.250000      0.0000000E+00
   1.260000      0.0000000E+00
   1.270000      0.0000000E+00
   1.280000      0.0000000E+00
   1.290000      0.0000000E+00
   1.300000      0.0000000E+00
   1.310000      0.0000000E+00
   1.320000      0.0000000E+00
   1.330000      0.0000000E+00
   1.340000      0.0000000E+00
   1.350000      0.0000000E+00
   1.360000      0.0000000E+00
   1.370000      0.0000000E+00
   1.380000      0.0000000E+00
   1.390000      0.0000000E+00
   1.400000      0.0000000E+00
   1.410000      0.0000000E+00
   1.420000      0.0000000E+00
   1.430000      0.0000000E+00
   1.440000      0.0000000E+00
   1.450000      0.0000000E+00
   1.460000      0.0000000E+00
   1.470000      0.0000000E+00
   1.480000      0.0000000E+00
   1.490000      0.0000000E+00
   1.500000      0.0000000E+00
   1.510000      0.0000000E+00
   1.520000      0.0000000E+00
   1.530000      0.0000000E+00
   1.540000      0.0000000E+00
   1.550000      0.0000000E+00
   1.560000      0.0000000E+00
   1.570000      0.0000000E+00
   1.580000      0.0000000E+00
   1.590000      0.0000000E+00
   1.600000      0.0000000E+00
   1.610000      0.0000000E+00
   1.620000      0.0000000E+00
   1.630000      0.0000000E+00
   1.640000      0.0000000E+00
   1.650000      0.0000000E+00
   1.660000      0.0000000E+00
   1.670000      0.0000000E+00
   1.680000      0.0000000E+00
   1.690000      0.0000000E+00
   1.700000      0.0000000E+00
   1.710000      0.0000000E+00
   1.720000      0.0000000E+00
   1.730000      0.0000000E+00
   1.740000      0.0000000E+00
   1.750000      0.0000000E+00
   1.760000      0.0000000E+00
   1.770000      0.0000000E+00
   1.780000      0.0000000E+00
   1.790000      0.0000000E+00
   1.800000      0.0000000E+00
   1.810000      0.0000000E+00
   1.820000      0.0000000E+00
   1.830000      0.0000000E+00
   1.840000      0.0000000E+00
   1.850000      0.0000000E+00
   1.860000      0.0000000E+00
   1.870000      0.0000000E+00
   1.880000      0.0000000E+00
   1.890000      0.0000000E+00
   1.900000      0.0000000E+00
   1.910000      0.0000000E+00
   1.920000      0.0000000E+00
   1.930000      0.0000000E+00
   1.940000      0.0000000E+00
   1.950000      0.0000000E+00
   1.960000      0.0000000E+00
   1.970000      0.0000000E+00
   1.980000      0.0000000E+00
   1.990000      0.0000000E+00
   2.000000      0.0000000E+00
   2.010000      0.0000000E+00
   2.020000      0.0000000E+00
   2.030000      0.0000000E+00
   2.040000      0.0000000E+00
   2.050000      0.0000000E+00
   2.060000      0.0000000E+00
   2.070000      0.0000000E+00
   2.080000      0.0000000E+00
   2.090000      0.0000000E+00
   2.100000      0.0000000E+00
   2.110000      0.0000000E+00
   2.120000      0.0000000E+00
   2.130000      0.0000000E+00
   2.140000      0.0000000E+00
   2.150000      0.0000000E+00
   2.160000      0.0000000E+00
   2.170000      0.0000000E+00
   2.180000      0.0000000E+00
   2.190000      0.0000000E+00
   2.200000      0.0000000E+00
   2.210000      0.0000000E+00
   2.220000      0.0000000E+00
   2.230000      0.0000000E+00
   2.240000      0.0000000E+00
   2.250000      0.0000000E+00
   2.260000      0.0000000E+00
   2.270000      0.0000000E+00
   2.280000      0.0000000E+00
   2.290000      0.0000000E+00
   2.300000      0.0000000E+00
   2.310000      0.0000000E+00
   2.320000      0.0000000E+00
   2.330000      0.0000000E+00
   2.340000      0.0000000E+00
   2.350000      0.0000000E+00
   2.360000      0.0000000E+00
   2.370000      0.0000000E+00
   2.380000      0.0000000E+00
   2.390000      0.0000000E+00
   2.400000      0.0000000E+00
   2.410000      0.0000000E+00
   2.420000      0.0000000E+00
   2.430000      0.0000000E+00
   2.440000      0.0000000E+00
   2.450000      0.0000000E+00
   2.460000      0.0000000E+00
   2.470000      0.0000000E+00
   2.480000      0.0000000E+00
   2.490000      0.0000000E+00
   2.500000      0.0000000E+00
   2.510000      0.0000000E+00
   2.520000      0.0000000E+00
   2.530000      0.0000000E+00
   2.540000      0.0000000E+00
   2.550000      0.0000000E+00
   2.560000      0.0000000E+00
   2.570000      0.0000000E+00
   2.580000      0.0000000E+00
   2.590000      0.0000000E+00
   2.600000      0.0000000E+00
   2.610000      0.0000000E+00
   2.620000      0.0000000E+00
   2.630000      0.0000000E+00
   2.640000     -1.2146050E-38
   2.650000     -1.3254026E-38
   2.660000     -1.4239331E-38
   2.670000     -1.5208619E-38
   2.680000     -1.6311347E-38
   2.690000     -1.7503571E-38
   2.700000     -1.8719393E-38
   2.710000     -1.9913323E-38
   2.720000     -2.1102217E-38
   2.730000     -2.2281220E-38
   2.740000     -2.3447627E-38
   2.750000     -2.4600083E-38
   2.760000     -2.5733672E-38
   2.770000     -2.6841816E-38
   2.780000     -2.7782180E-38
   2.790000     -2.8548309E-38
   2.800000     -2.9276115E-38
   2.810000     -2.9461011E-38
   2.820000     -2.9054239E-38
   2.830000     -2.8367679E-38
   2.840000     -2.7421382E-38
   2.850000     -2.7880058E-38
   2.860000     -2.9895814E-38
   2.870000     -3.2132749E-38
   2.880000     -3.4610043E-38
   2.890000     -3.7416090E-38
   2.900000     -4.0600103E-38
   2.910000     -4.9490930E-38
   2.920000     -6.4527221E-38
   2.930000     -8.0796583E-38
   2.940000     -1.0493809E-37
   2.950000     -1.3418767E-37
   2.960000     -1.6215436E-37
   2.970000     -1.6237928E-37
   2.980000     -1.3032516E-37
   2.990000     -9.1442219E-38
   3.000000     -4.9832180E-38
   3.010000      0.0000000E+00
   3.020000      2.0331131E-38
   3.030000      1.7881335E-38
   3.040000     -2.4740462E-38
   3.050000     -8.6708022E-38
   3.060000     -1.6012765E-37
   3.070000     -2.3987530E-37
   3.080000     -3.2358486E-37
   3.090000     -3.7136243E-37
   3.100000     -3.7235348E-37
   3.110000     -3.5114306E-37
   3.120000     -3.1340116E-37
   3.130000     -2.6733613E-37
   3.140000     -2.1834504E-37
   3.150000     -1.7605228E-37
   3.160000     -9.8603454E-38
   3.170000      0.0000000E+00
   3.180000      8.9244815E-38
   3.190000      1.3540966E-37
   3.200000      1.2046119E-37
   3.210000      4.8203585E-38
   3.220000     -4.4030196E-38
   3.230000     -1.2894248E-37
   3.240000     -2.0927319E-37
   3.250000     -2.8944649E-37
   3.260000     -3.5580784E-37
   3.270000     -3.5887081E-37
   3.280000     -2.7968431E-37
   3.290000     -1.4357529E-37
   3.300000      3.6296340E-38
   3.310000      2.4720721E-37
   3.320000      4.7631700E-37
   3.330000      7.0492178E-37
   3.340000      9.0484438E-37
   3.350000      1.0626791E-36
   3.360000      1.1860455E-36
   3.370000      1.2432480E-36
   3.380000      1.2412626E-36
   3.390000      1.2297430E-36
   3.400000      1.2257537E-36
   3.410000      1.2481917E-36
   3.420000      1.3019490E-36
   3.430000      1.3835449E-36
   3.440000      1.5139736E-36
   3.450000      1.6916394E-36
   3.460000      1.9467929E-36
   3.470000      2.1347296E-36
   3.480000      2.1935870E-36
   3.490000      2.2269841E-36
   3.500000      2.2389329E-36
   3.510000      2.2708289E-36
   3.520000      2.2993849E-36
   3.530000      2.3614104E-36
   3.540000      2.4361394E-36
   3.550000      2.4401183E-36
   3.560000      2.3883057E-36
   3.570000      2.3001719E-36
   3.580000      2.1777480E-36
   3.590000      2.0262804E-36
   3.600000      1.8905689E-36
   3.610000      1.8374667E-36
   3.620000      1.7114233E-36
   3.630000      1.5611066E-36
   3.640000      1.5179516E-36
   3.650000      1.4814739E-36
   3.660000      1.4577902E-36
   3.670000      1.3520800E-36
   3.680000      1.0376083E-36
   3.690000      4.6887097E-37
   3.700000     -3.9716982E-37
   3.710000     -1.4294161E-36
   3.720000     -2.3459942E-36
   3.730000     -3.0452866E-36
   3.740000     -3.8309966E-36
   3.750000     -4.5849740E-36
   3.760000     -5.1277210E-36
   3.770000     -5.9794049E-36
   3.780000     -6.9560976E-36
   3.790000     -7.6104520E-36
   3.800000     -8.3609913E-36
   3.810000     -9.5392070E-36
   3.820000     -1.0929182E-35
   3.830000     -1.2543463E-35
   3.840000     -1.4312739E-35
   3.850000     -1.5476022E-35
   3.860000     -1.5698723E-35
   3.870000     -1.5552371E-35
   3.880000     -1.5912903E-35
   3.890000     -1.6121256E-35
   3.900000     -1.5519124E-35
   3.910000     -1.4981238E-35
   3.920000     -1.4719716E-35
   3.930000     -1.4189274E-35
   3.940000     -1.3768319E-35
   3.950000     -1.4110356E-35
   3.960000     -1.4693740E-35
   3.970000     -1.5062419E-35
   3.980000     -1.4666434E-35
   3.990000     -1.3400782E-35
   4.000000     -1.2705269E-35
   4.010000     -1.2695735E-35
   4.020000     -1.2389654E-35
   4.030000     -1.2556347E-35
   4.040000     -1.2984385E-35
   4.050000     -1.2520087E-35
   4.060000     -1.1386134E-35
   4.070000     -9.1766749E-36
   4.080000     -4.5715434E-36
   4.090000      1.7588164E-36
   4.100000      8.3705515E-36
   4.110000      1.5057767E-35
   4.120000      2.1141297E-35
   4.130000      2.6151369E-35
   4.140000      3.0983394E-35
   4.150000      3.5721850E-35
   4.160000      3.9421945E-35
   4.170000      4.2766416E-35
   4.180000      4.6270769E-35
   4.190000      4.9437028E-35
   4.200000      5.2293846E-35
   4.210000      5.5054002E-35
   4.220000      5.8357968E-35
   4.230000      6.2974217E-35
   4.240000      6.9419720E-35
   4.250000      7.8183122E-35
   4.260000      8.9551100E-35
   4.270000      1.0196042E-34
   4.280000      1.1489756E-34
   4.290000      1.2788117E-34
   4.300000      1.3707145E-34
   4.310000      1.4139832E-34
   4.320000      1.4309598E-34
   4.330000      1.4123431E-34
   4.340000      1.3465670E-34
   4.350000      1.2608079E-34
   4.360000      1.1816206E-34
   4.370000      1.1200862E-34
   4.380000      1.0903501E-34
   4.390000      1.0965472E-34
   4.400000      1.1040036E-34
   4.410000      1.0881151E-34
   4.420000      1.0861102E-34
   4.430000      1.1206915E-34
   4.440000      1.1654987E-34
   4.450000      1.1830137E-34
   4.460000      1.1669113E-34
   4.470000      1.1179604E-34
   4.480000      9.9612769E-35
   4.490000      7.9271419E-35
   4.500000      5.2901189E-35
   4.510000      1.9630453E-35
   4.520000     -2.2138238E-35
   4.530000     -6.7901283E-35
   4.540000     -1.1387359E-34
   4.550000     -1.5733754E-34
   4.560000     -1.9455605E-34
   4.570000     -2.2784444E-34
   4.580000     -2.5758307E-34
   4.590000     -2.8383675E-34
   4.600000     -3.1386709E-34
   4.610000     -3.4596096E-34
   4.620000     -3.7133495E-34
   4.630000     -3.9220259E-34
   4.640000     -4.1444960E-34
   4.650000     -4.3942142E-34
   4.660000     -4.7085606E-34
   4.670000     -5.1857425E-34
   4.680000     -5.8503931E-34
   4.690000     -6.6910897E-34
   4.700000     -7.6474030E-34
   4.710000     -8.6438379E-34
   4.720000     -9.6749981E-34
   4.730000     -1.0682963E-33
   4.740000     -1.1548858E-33
   4.750000     -1.2214108E-33
   4.760000     -1.2699196E-33
   4.770000     -1.2910814E-33
   4.780000     -1.2951712E-33
   4.790000     -1.2890887E-33
   4.800000     -1.2637823E-33
   4.810000     -1.2270042E-33
   4.820000     -1.1928311E-33
   4.830000     -1.1677540E-33
   4.840000     -1.1481781E-33
   4.850000     -1.1372267E-33
   4.860000     -1.1373154E-33
   4.870000     -1.1505538E-33
   4.880000     -1.1793660E-33
   4.890000     -1.2144905E-33
   4.900000     -1.2405836E-33
   4.910000     -1.2484024E-33
   4.920000     -1.2325722E-33
   4.930000     -1.1828425E-33
   4.940000     -1.0921291E-33
   4.950000     -9.6288186E-34
   4.960000     -8.0061212E-34
   4.970000     -6.1046659E-34
   4.980000     -3.9202140E-34
   4.990000     -1.5459373E-34
   5.000000      9.2293692E-35
   5.010000      3.4114414E-34
   5.020000      5.8297297E-34
   5.030000      8.1431581E-34
   5.040000      1.0396178E-33
   5.050000      1.2674480E-33
   5.060000      1.5057288E-33
   5.070000      1.7600537E-33
   5.080000      2.0415420E-33
   5.090000      2.3613766E-33
   5.100000      2.7282590E-33
   5.110000      3.1493962E-33
   5.120000      3.6209491E-33
   5.130000      4.1383984E-33
   5.140000      4.6939528E-33
   5.150000      5.2780156E-33
   5.160000      5.8790517E-33
   5.170000      6.4860906E-33
   5.180000      7.0893469E-33
   5.190000      7.6805684E-33
   5.200000      8.2553117E-33
   5.210000      8.8126863E-33
   5.220000      9.3553202E-33
   5.230000      9.8871476E-33
   5.240000      1.0413867E-32
   5.250000      1.0941357E-32
   5.260000      1.1476319E-32
   5.270000      1.2024081E-32
   5.280000      1.2585452E-32
   5.290000      1.3158415E-32
   5.300000      1.3737676E-32
   5.310000      1.4311403E-32
   5.320000      1.4865870E-32
   5.330000      1.5387068E-32
   5.340000      1.5861072E-32
   5.350000      1.6273858E-32
   5.360000      1.6611579E-32
   5.370000      1.6865329E-32
   5.380000      1.7029354E-32
   5.390000      1.7096641E-32
   5.400000      1.7065768E-32
   5.410000      1.6941048E-32
   5.420000      1.6721481E-32
   5.430000      1.6413601E-32
   5.440000      1.6021008E-32
   5.450000      1.5537817E-32
   5.460000      1.4959863E-32
   5.470000      1.4276851E-32
   5.480000      1.3471475E-32
   5.490000      1.2532703E-32
   5.500000      1.1445858E-32
   5.510000      1.0189323E-32
   5.520000      8.7452798E-33
   5.530000      7.0967246E-33
   5.540000      5.2300091E-33
   5.550000      3.1353009E-33
   5.560000      8.0666913E-34
   5.570000     -1.7590689E-33
   5.580000     -4.5607623E-33
   5.590000     -7.5918362E-33
   5.600000     -1.0847017E-32
   5.610000     -1.4323189E-32
   5.620000     -1.8017065E-32
   5.630000     -2.1927575E-32
   5.640000     -2.6056072E-32
   5.650000     -3.0406794E-32
   5.660000     -3.4986321E-32
   5.670000     -3.9801774E-32
   5.680000     -4.4860506E-32
   5.690000     -5.0169088E-32
   5.700000     -5.5731233E-32
   5.710000     -6.1546768E-32
   5.720000     -6.7610762E-32
   5.730000     -7.3912987E-32
   5.740000     -8.0438167E-32
   5.750000     -8.7165768E-32
   5.760000     -9.4071151E-32
   5.770000     -1.0112710E-31
   5.780000     -1.0830435E-31
   5.790000     -1.1557308E-31
   5.800000     -1.2290367E-31
   5.810000     -1.3026731E-31
   5.820000     -1.3763642E-31
   5.830000     -1.4498352E-31
   5.840000     -1.5228121E-31
   5.850000     -1.5950155E-31
   5.860000     -1.6661401E-31
   5.870000     -1.7358440E-31
   5.880000     -1.8037370E-31
   5.890000     -1.8693680E-31
   5.900000     -1.9322268E-31
   5.910000     -1.9917407E-31
   5.920000     -2.0472675E-31
   5.930000     -2.0981154E-31
   5.940000     -2.1435499E-31
   5.950000     -2.1828051E-31
   5.960000     -2.2151030E-31
   5.970000     -2.2396612E-31
   5.980000     -2.2556956E-31
   5.990000     -2.2624364E-31
   6.000000     -2.2591273E-31
   6.010000     -2.2450153E-31
   6.020000     -2.2193491E-31
   6.030000     -2.1813686E-31
   6.040000     -2.1302953E-31
   6.050000     -2.0653227E-31
   6.060000     -1.9856004E-31
   6.070000     -1.8902571E-31
   6.080000     -1.7783822E-31
   6.090000     -1.6490266E-31
   6.100000     -1.5011996E-31
   6.110000     -1.3339010E-31
   6.120000     -1.1461628E-31
   6.130000     -9.3702804E-32
   6.140000     -7.0558014E-32
   6.150000     -4.5095766E-32
   6.160000     -1.7236568E-32
   6.170000      1.3091701E-32
   6.180000      4.5953183E-32
   6.190000      8.1404671E-32
   6.200000      1.1949541E-31
   6.210000      1.6026704E-31
   6.220000      2.0375476E-31
   6.230000      2.4998719E-31
   6.240000      2.9898649E-31
   6.250000      3.5076784E-31
   6.260000      4.0533866E-31
   6.270000      4.6269719E-31
   6.280000      5.2283092E-31
   6.290000      5.8571475E-31
   6.300000      6.5130860E-31
   6.310000      7.1955587E-31
   6.320000      7.9038124E-31
   6.330000      8.6368911E-31
   6.340000      9.3936264E-31
   6.350000      1.0172628E-30
   6.360000      1.0972283E-30
   6.370000      1.1790749E-30
   6.380000      1.2625961E-30
   6.390000      1.3475634E-30
   6.400000      1.4337262E-30
   6.410000      1.5208118E-30
   6.420000      1.6085258E-30
   6.430000      1.6965506E-30
   6.440000      1.7845449E-30
   6.450000      1.8721427E-30
   6.460000      1.9589514E-30
   6.470000      2.0445497E-30
   6.480000      2.1284876E-30
   6.490000      2.2102826E-30
   6.500000      2.2894212E-30
   6.510000      2.3653568E-30
   6.520000      2.4375098E-30
   6.530000      2.5052683E-30
   6.540000      2.5679887E-30
   6.550000      2.6249974E-30
   6.560000      2.6755920E-30
   6.570000      2.7190435E-30
   6.580000      2.7545978E-30
   6.590000      2.7814775E-30
   6.600000      2.7988835E-30
   6.610000      2.8059968E-30
   6.620000      2.8019792E-30
   6.630000      2.7859746E-30
   6.640000      2.7571109E-30
   6.650000      2.7144997E-30
   6.660000      2.6572390E-30
   6.670000      2.5844152E-30
   6.680000      2.4951049E-30
   6.690000      2.3883784E-30
   6.700000      2.2633023E-30
   6.710000      2.1189442E-30
   6.720000      1.9543780E-30
   6.730000      1.7686885E-30
   6.740000      1.5609761E-30
   6.750000      1.3303633E-30
   6.760000      1.0760004E-30
   6.770000      7.9707112E-31
   6.780000      4.9279737E-31
   6.790000      1.6244637E-31
   6.800000     -1.9466451E-31
   6.810000     -5.7916240E-31
   6.820000     -9.9161177E-31
   6.830000     -1.4325103E-30
   6.840000     -1.9022820E-30
   6.850000     -2.4012703E-30
   6.860000     -2.9297293E-30
   6.870000     -3.4878181E-30
   6.880000     -4.0755909E-30
   6.890000     -4.6929891E-30
   6.900000     -5.3398311E-30
   6.910000     -6.0158032E-30
   6.920000     -6.7204490E-30
   6.930000     -7.4531623E-30
   6.940000     -8.2131749E-30
   6.950000     -8.9995532E-30
   6.960000     -9.8111799E-30
   6.970000     -1.0646757E-29
   6.980000     -1.1504788E-29
   6.990000     -1.2383576E-29
   7.000000     -1.3281216E-29
   7.010000     -1.4195584E-29
   7.020000     -1.5124340E-29
   7.030000     -1.6064907E-29
   7.040000     -1.7014481E-29
   7.050000     -1.7970007E-29
   7.060000     -1.8928187E-29