  -2.600000      0.0000000E+00
  -2.590000      0.0000000E+00
  -2.580000      0.0000000E+00
  -2.570000      0.0000000E+00
  -2.560000      0.0000000E+00
  -2.550000      0.0000000E+00
  -2.540000      0.0000000E+00
  -2.530000      0.0000000E+00
  -2.520000      0.0000000E+00
  -2.510000      0.0000000E+00
  -2.500000      0.0000000E+00
  -2.490000      0.0000000E+00
  -2.480000      0.0000000E+00
  -2.470000      0.0000000E+00
  -2.460000      0.0000000E+00
  -2.450000      0.0000000E+00
  -2.440000      0.0000000E+00
  -2.430000      0.0000000E+00
  -2.420000      0.0000000E+00
  -2.410000      0.0000000E+00
  -2.400000      0.0000000E+00
  -2.390000      0.0000000E+00
  -2.380000      0.0000000E+00
  -2.370000      0.0000000E+00
  -2.360000      0.0000000E+00
  -2.350000      0.0000000E+00
  -2.340000      0.0000000E+00
  -2.330000      0.0000000E+00
  -2.320000      0.0000000E+00
  -2.310000      0.0000000E+00
  -2.300000      0.0000000E+00
  -2.290000      0.0000000E+00
  -2.280000      0.0000000E+00
  -2.270000      0.0000000E+00
  -2.260000      0.0000000E+00
  -2.250000      0.0000000E+00
  -2.240000      0.0000000E+00
  -2.230000      0.0000000E+00
  -2.220000      0.0000000E+00
  -2.210000      0.0000000E+00
  -2.200000      0.0000000E+00
  -2.190000      0.0000000E+00
  -2.180000      0.0000000E+00
  -2.170000      0.0000000E+00
  -2.160000      0.0000000E+00
  -2.150000      0.0000000E+00
  -2.140000      0.0000000E+00
  -2.130000      0.0000000E+00
  -2.120000      0.0000000E+00
  -2.110000      0.0000000E+00
  -2.100000      0.0000000E+00
  -2.090000      0.0000000E+00
  -2.080000      0.0000000E+00
  -2.070000      0.0000000E+00
  -2.060000      0.0000000E+00
  -2.050000      0.0000000E+00
  -2.040000      0.0000000E+00
  -2.030000      0.0000000E+00
  -2.020000      0.0000000E+00
  -2.010000      0.0000000E+00
  -2.000000      0.0000000E+00
  -1.990000      0.0000000E+00
  -1.980000      0.0000000E+00
  -1.970000      0.0000000E+00
  -1.960000      0.0000000E+00
  -1.950000      0.0000000E+00
  -1.940000      0.0000000E+00
  -1.930000      0.0000000E+00
  -1.920000      0.0000000E+00
  -1.910000      0.0000000E+00
  -1.900000      0.0000000E+00
  -1.890000      0.0000000E+00
  -1.880000      0.0000000E+00
  -1.870000      0.0000000E+00
  -1.860000      0.0000000E+00
  -1.850000      0.0000000E+00
  -1.840000      0.0000000E+00
  -1.830000      0.0000000E+00
  -1.820000      0.0000000E+00
  -1.810000      0.0000000E+00
  -1.800000      0.0000000E+00
  -1.790000      0.0000000E+00
  -1.780000      0.0000000E+00
  -1.770000      0.0000000E+00
  -1.760000      0.0000000E+00
  -1.750000      0.0000000E+00
  -1.740000      0.0000000E+00
  -1.730000      0.0000000E+00
  -1.720000      0.0000000E+00
  -1.710000      0.0000000E+00
  -1.700000      0.0000000E+00
  -1.690000      0.0000000E+00
  -1.680000      0.0000000E+00
  -1.670000      0.0000000E+00
  -1.660000      0.0000000E+00
  -1.650000      0.0000000E+00
  -1.640000      0.0000000E+00
  -1.630000      0.0000000E+00
  -1.620000      0.0000000E+00
  -1.610000      0.0000000E+00
  -1.600000      0.0000000E+00
  -1.590000      0.0000000E+00
  -1.580000      0.0000000E+00
  -1.570000      0.0000000E+00
  -1.560000      0.0000000E+00
  -1.550000      0.0000000E+00
  -1.540000      0.0000000E+00
  -1.530000      0.0000000E+00
  -1.520000      0.0000000E+00
  -1.510000      0.0000000E+00
  -1.500000      0.0000000E+00
  -1.490000      0.0000000E+00
  -1.480000      0.0000000E+00
  -1.470000      0.0000000E+00
  -1.460000      0.0000000E+00
  -1.450000      0.0000000E+00
  -1.440000      0.0000000E+00
  -1.430000      0.0000000E+00
  -1.420000      0.0000000E+00
  -1.410000      0.0000000E+00
  -1.400000      0.0000000E+00
  -1.390000      0.0000000E+00
  -1.380000      0.0000000E+00
  -1.370000      0.0000000E+00
  -1.360000      0.0000000E+00
  -1.350000      0.0000000E+00
  -1.340000      0.0000000E+00
  -1.330000      0.0000000E+00
  -1.320000      0.0000000E+00
  -1.310000      0.0000000E+00
  -1.300000      0.0000000E+00
  -1.290000      0.0000000E+00
  -1.280000      0.0000000E+00
  -1.270000      0.0000000E+00
  -1.260000      0.0000000E+00
  -1.250000      0.0000000E+00
  -1.240000      0.0000000E+00
  -1.230000      0.0000000E+00
  -1.220000      0.0000000E+00
  -1.210000      0.0000000E+00
  -1.200000      0.0000000E+00
  -1.190000      0.0000000E+00
  -1.180000      0.0000000E+00
  -1.170000      0.0000000E+00
  -1.160000      0.0000000E+00
  -1.150000      0.0000000E+00
  -1.140000      0.0000000E+00
  -1.130000      0.0000000E+00
  -1.120000      0.0000000E+00
  -1.110000      0.0000000E+00
  -1.100000      0.0000000E+00
  -1.090000      0.0000000E+00
  -1.080000      0.0000000E+00
  -1.070000      0.0000000E+00
  -1.060000      0.0000000E+00
  -1.050000      0.0000000E+00
  -1.040000      0.0000000E+00
  -1.030000      0.0000000E+00
  -1.020000      0.0000000E+00
  -1.010000      0.0000000E+00
  -1.000000      0.0000000E+00
 -0.9900000      0.0000000E+00
 -0.9800000      0.0000000E+00
 -0.9700000      0.0000000E+00
 -0.9600000      0.0000000E+00
 -0.9500000      0.0000000E+00
 -0.9400000      0.0000000E+00
 -0.9300000      0.0000000E+00
 -0.9200000      0.0000000E+00
 -0.9100000      0.0000000E+00
 -0.9000000      0.0000000E+00
 -0.8900000      0.0000000E+00
 -0.8800000      0.0000000E+00
 -0.8700000      0.0000000E+00
 -0.8600000      0.0000000E+00
 -0.8500000      0.0000000E+00
 -0.8400000      0.0000000E+00
 -0.8300000      0.0000000E+00
 -0.8200000      0.0000000E+00
 -0.8100000      0.0000000E+00
 -0.8000000      0.0000000E+00
 -0.7900000      0.0000000E+00
 -0.7800000      0.0000000E+00
 -0.7700000      0.0000000E+00
 -0.7600000      0.0000000E+00
 -0.7500000      0.0000000E+00
 -0.7400000      0.0000000E+00
 -0.7300000      0.0000000E+00
 -0.7200000      0.0000000E+00
 -0.7100000      0.0000000E+00
 -0.7000000      0.0000000E+00
 -0.6900000      0.0000000E+00
 -0.6800000      0.0000000E+00
 -0.6700000      0.0000000E+00
 -0.6600000      0.0000000E+00
 -0.6500000      0.0000000E+00
 -0.6400000      0.0000000E+00
 -0.6300000      0.0000000E+00
 -0.6200000      0.0000000E+00
 -0.6100000      0.0000000E+00
 -0.6000000      0.0000000E+00
 -0.5900000      0.0000000E+00
 -0.5800000      0.0000000E+00
 -0.5700000      0.0000000E+00
 -0.5600000      0.0000000E+00
 -0.5500000      0.0000000E+00
 -0.5400000      0.0000000E+00
 -0.5300000      0.0000000E+00
 -0.5200000      0.0000000E+00
 -0.5100000      0.0000000E+00
 -0.5000000      0.0000000E+00
 -0.4900000      0.0000000E+00
 -0.4800000      0.0000000E+00
 -0.4700000      0.0000000E+00
 -0.4600000      0.0000000E+00
 -0.4500000      0.0000000E+00
 -0.4400000      0.0000000E+00
 -0.4300000      0.0000000E+00
 -0.4200000      0.0000000E+00
 -0.4100000      0.0000000E+00
 -0.4000000      0.0000000E+00
 -0.3900000      0.0000000E+00
 -0.3800000      0.0000000E+00
 -0.3700000      0.0000000E+00
 -0.3600000      0.0000000E+00
 -0.3500000      0.0000000E+00
 -0.3400000      0.0000000E+00
 -0.3300000      0.0000000E+00
 -0.3200000      0.0000000E+00
 -0.3100000      0.0000000E+00
 -0.3000000      0.0000000E+00
 -0.2900000      0.0000000E+00
 -0.2800000      0.0000000E+00
 -0.2700000      0.0000000E+00
 -0.2600000      0.0000000E+00
 -0.2500000      0.0000000E+00
 -0.2400000      0.0000000E+00
 -0.2300000      0.0000000E+00
 -0.2200000      0.0000000E+00
 -0.2100000      0.0000000E+00
 -0.2000000      0.0000000E+00
 -0.1900000      0.0000000E+00
 -0.1800000      0.0000000E+00
 -0.1700000      0.0000000E+00
 -0.1600000      0.0000000E+00
 -0.1500000      0.0000000E+00
 -0.1400000      0.0000000E+00
 -0.1300000      0.0000000E+00
 -0.1200000      0.0000000E+00
 -0.1100000      0.0000000E+00
 -0.1000000      0.0000000E+00
 -9.0000004E-02  0.0000000E+00
 -7.9999998E-02  0.0000000E+00
 -7.0000000E-02  0.0000000E+00
 -5.9999999E-02  0.0000000E+00
 -5.0000001E-02  0.0000000E+00
 -3.9999999E-02  0.0000000E+00
 -2.9999999E-02  0.0000000E+00
 -2.0000000E-02  0.0000000E+00
 -9.9999998E-03  0.0000000E+00
 -3.4694470E-17  0.0000000E+00
  9.9999998E-03  0.0000000E+00
  2.0000000E-02  0.0000000E+00
  2.9999999E-02  0.0000000E+00
  3.9999999E-02  0.0000000E+00
  5.0000001E-02  0.0000000E+00
  5.9999999E-02  0.0000000E+00
  7.0000000E-02  0.0000000E+00
  7.9999998E-02  0.0000000E+00
  9.0000004E-02  0.0000000E+00
  0.1000000      0.0000000E+00
  0.1100000      0.0000000E+00
  0.1200000      0.0000000E+00
  0.1300000      0.0000000E+00
  0.1400000      0.0000000E+00
  0.1500000      0.0000000E+00
  0.1600000      0.0000000E+00
  0.1700000      0.0000000E+00
  0.1800000      0.0000000E+00
  0.1900000      0.0000000E+00
  0.2000000      0.0000000E+00
  0.2100000      0.0000000E+00
  0.2200000      0.0000000E+00
  0.2300000      0.0000000E+00
  0.2400000      0.0000000E+00
  0.2500000      0.0000000E+00
  0.2600000      0.0000000E+00
  0.2700000      0.0000000E+00
  0.2800000      0.0000000E+00
  0.2900000      0.0000000E+00
  0.3000000      0.0000000E+00
  0.3100000      0.0000000E+00
  0.3200000      0.0000000E+00
  0.3300000      0.0000000E+00
  0.3400000      0.0000000E+00
  0.3500000      0.0000000E+00
  0.3600000      0.0000000E+00
  0.3700000      0.0000000E+00
  0.3800000      0.0000000E+00
  0.3900000      0.0000000E+00
  0.4000000      0.0000000E+00
  0.4100000      0.0000000E+00
  0.4200000      0.0000000E+00
  0.4300000      0.0000000E+00
  0.4400000      0.0000000E+00
  0.4500000      0.0000000E+00
  0.4600000      0.0000000E+00
  0.4700000      0.0000000E+00
  0.4800000      0.0000000E+00
  0.4900000      0.0000000E+00
  0.5000000      0.0000000E+00
  0.5100000      0.0000000E+00
  0.5200000      0.0000000E+00
  0.5300000      0.0000000E+00
  0.5400000      0.0000000E+00
  0.5500000      0.0000000E+00
  0.5600000      0.0000000E+00
  0.5700000      0.0000000E+00
  0.5800000      0.0000000E+00
  0.5900000      0.0000000E+00
  0.6000000      0.0000000E+00
  0.6100000      0.0000000E+00
  0.6200000      0.0000000E+00
  0.6300000      0.0000000E+00
  0.6400000      0.0000000E+00
  0.6500000      0.0000000E+00
  0.6600000      0.0000000E+00
  0.6700000      0.0000000E+00
  0.6800000      0.0000000E+00
  0.6900000      0.0000000E+00
  0.7000000      0.0000000E+00
  0.7100000      0.0000000E+00
  0.7200000      0.0000000E+00
  0.7300000      0.0000000E+00
  0.7400000      0.0000000E+00
  0.7500000      0.0000000E+00
  0.7600000      0.0000000E+00
  0.7700000      0.0000000E+00
  0.7800000      0.0000000E+00
  0.7900000      0.0000000E+00
  0.8000000      0.0000000E+00
  0.8100000      0.0000000E+00
  0.8200000      0.0000000E+00
  0.8300000      0.0000000E+00
  0.8400000      0.0000000E+00
  0.8500000      0.0000000E+00
  0.8600000      0.0000000E+00
  0.8700000      0.0000000E+00
  0.8800000      0.0000000E+00
  0.8900000      0.0000000E+00
  0.9000000      0.0000000E+00
  0.9100000      0.0000000E+00
  0.9200000      0.0000000E+00
  0.9300000      0.0000000E+00
  0.9400000      0.0000000E+00
  0.9500000      0.0000000E+00
  0.9600000      0.0000000E+00
  0.9700000      0.0000000E+00
  0.9800000      0.0000000E+00
  0.9900000      0.0000000E+00
   1.000000      0.0000000E+00
   1.010000      0.0000000E+00
   1.020000      0.0000000E+00
   1.030000      0.0000000E+00
   1.040000      0.0000000E+00
   1.050000      0.0000000E+00
   1.060000      0.0000000E+00
   1.070000      0.0000000E+00
   1.080000      0.0000000E+00
   1.090000      0.0000000E+00
   1.100000      0.0000000E+00
   1.110000      0.0000000E+00
   1.120000      0.0000000E+00
   1.130000      0.0000000E+00
   1.140000      0.0000000E+00
   1.150000      0.0000000E+00
   1.160000      0.0000000E+00
   1.170000      0.0000000E+00
   1.180000      0.0000000E+00
   1.190000      0.0000000E+00
   1.200000      0.0000000E+00
   1.210000      0.0000000E+00
   1.220000      0.0000000E+00
   1.230000      0.0000000E+00
   1.240000      0.0000000E+00
   1.250000      0.0000000E+00
   1.260000      0.0000000E+00
   1.270000      0.0000000E+00
   1.280000      0.0000000E+00
   1.290000      0.0000000E+00
   1.300000      0.0000000E+00
   1.310000      0.0000000E+00
   1.320000      0.0000000E+00
   1.330000      0.0000000E+00
   1.340000      0.0000000E+00
   1.350000      0.0000000E+00
   1.360000      0.0000000E+00
   1.370000      0.0000000E+00
   1.380000      0.0000000E+00
   1.390000      0.0000000E+00
   1.400000      0.0000000E+00
   1.410000      0.0000000E+00
   1.420000      0.0000000E+00
   1.430000      0.0000000E+00
   1.440000      0.0000000E+00
   1.450000      0.0000000E+00
   1.460000      0.0000000E+00
   1.470000      0.0000000E+00
   1.480000      0.0000000E+00
   1.490000      0.0000000E+00
   1.500000      0.0000000E+00
   1.510000      0.0000000E+00
   1.520000      0.0000000E+00
   1.530000      0.0000000E+00
   1.540000      0.0000000E+00
   1.550000      0.0000000E+00
   1.560000      0.0000000E+00
   1.570000      0.0000000E+00
   1.580000      0.0000000E+00
   1.590000      0.0000000E+00
   1.600000      0.0000000E+00
   1.610000      0.0000000E+00
   1.620000      0.0000000E+00
   1.630000      0.0000000E+00
   1.640000      0.0000000E+00
   1.650000      0.0000000E+00
   1.660000      0.0000000E+00
   1.670000      0.0000000E+00
   1.680000      0.0000000E+00
   1.690000      0.0000000E+00
   1.700000      0.0000000E+00
   1.710000      0.0000000E+00
   1.720000      0.0000000E+00
   1.730000      0.0000000E+00
   1.740000      0.0000000E+00
   1.750000      0.0000000E+00
   1.760000      0.0000000E+00
   1.770000      0.0000000E+00
   1.780000      0.0000000E+00
   1.790000      0.0000000E+00
   1.800000      0.0000000E+00
   1.810000      0.0000000E+00
   1.820000      0.0000000E+00
   1.830000      0.0000000E+00
   1.840000      0.0000000E+00
   1.850000      0.0000000E+00
   1.860000      0.0000000E+00
   1.870000      0.0000000E+00
   1.880000      0.0000000E+00
   1.890000      0.0000000E+00
   1.900000      0.0000000E+00
   1.910000      0.0000000E+00
   1.920000      0.0000000E+00
   1.930000      0.0000000E+00
   1.940000      0.0000000E+00
   1.950000      0.0000000E+00
   1.960000      0.0000000E+00
   1.970000      0.0000000E+00
   1.980000      0.0000000E+00
   1.990000      0.0000000E+00
   2.000000      0.0000000E+00
   2.010000      0.0000000E+00
   2.020000      0.0000000E+00
   2.030000      0.0000000E+00
   2.040000      0.0000000E+00
   2.050000      0.0000000E+00
   2.060000      0.0000000E+00
   2.070000      0.0000000E+00
   2.080000      0.0000000E+00
   2.090000      0.0000000E+00
   2.100000      0.0000000E+00
   2.110000      0.0000000E+00
   2.120000      0.0000000E+00
   2.130000      0.0000000E+00
   2.140000      0.0000000E+00
   2.150000     -1.3699559E-38
   2.160000     -1.5894978E-38
   2.170000     -1.7954721E-38
   2.180000     -1.9858727E-38
   2.190000     -2.1119200E-38
   2.200000     -2.1869984E-38
   2.210000     -2.2657473E-38
   2.220000     -2.3583699E-38
   2.230000     -2.5310309E-38
   2.240000     -2.7791625E-38
   2.250000     -3.0453792E-38
   2.260000     -3.3205090E-38
   2.270000     -3.6013951E-38
   2.280000     -3.9088307E-38
   2.290000     -4.2455706E-38
   2.300000     -4.5935354E-38
   2.310000     -4.9491771E-38
   2.320000     -5.3083904E-38
   2.330000     -5.6047124E-38
   2.340000     -5.6556030E-38
   2.350000     -5.4920166E-38
   2.360000     -5.2652977E-38
   2.370000     -4.9657842E-38
   2.380000     -4.5695721E-38
   2.390000     -3.9578495E-38
   2.400000     -3.1040776E-38
   2.410000     -2.0690913E-38
   2.420000      0.0000000E+00
   2.430000      0.0000000E+00
   2.440000      2.3720247E-38
   2.450000      4.3422896E-38
   2.460000      6.4939058E-38
   2.470000      8.7742746E-38
   2.480000      1.1139213E-37
   2.490000      1.3094886E-37
   2.500000      1.4672960E-37
   2.510000      1.6407633E-37
   2.520000      1.8269674E-37
   2.530000      2.0282840E-37
   2.540000      2.2482726E-37
   2.550000      2.4998257E-37
   2.560000      2.7872869E-37
   2.570000      3.1427174E-37
   2.580000      3.5573827E-37
   2.590000      3.9720179E-37
   2.600000      4.3658447E-37
   2.610000      4.7404281E-37
   2.620000      5.0874125E-37
   2.630000      5.3898553E-37
   2.640000      5.6744606E-37
   2.650000      5.9237343E-37
   2.660000      6.1104007E-37
   2.670000      6.2516010E-37
   2.680000      6.1798616E-37
   2.690000      6.3540635E-37
   2.700000      7.5740778E-37
   2.710000      9.4119079E-37
   2.720000      1.1284705E-36
   2.730000      1.3288333E-36
   2.740000      1.5399918E-36
   2.750000      1.7526575E-36
   2.760000      1.8483524E-36
   2.770000      1.8041915E-36
   2.780000      1.7184393E-36
   2.790000      1.5896502E-36
   2.800000      1.4199733E-36
   2.810000      1.0537795E-36
   2.820000      4.9127829E-37
   2.830000     -1.0987599E-37
   2.840000     -7.3933453E-37
   2.850000     -1.3574819E-36
   2.860000     -2.0360869E-36
   2.870000     -2.7588843E-36
   2.880000     -3.4297738E-36
   2.890000     -4.0645630E-36
   2.900000     -4.6525391E-36
   2.910000     -4.9633089E-36
   2.920000     -5.0343340E-36
   2.930000     -5.1620675E-36
   2.940000     -5.2846564E-36
   2.950000     -5.4171840E-36
   2.960000     -5.6317953E-36
   2.970000     -5.9111582E-36
   2.980000     -6.1941162E-36
   2.990000     -6.4700582E-36
   3.000000     -6.7892038E-36
   3.010000     -7.1652651E-36
   3.020000     -7.6731728E-36
   3.030000     -8.3177454E-36
   3.040000     -8.8383020E-36
   3.050000     -9.1710916E-36
   3.060000     -9.4765292E-36
   3.070000     -9.7021038E-36
   3.080000     -9.8093992E-36
   3.090000     -9.7816103E-36
   3.100000     -9.5878870E-36
   3.110000     -9.2122382E-36
   3.120000     -8.6551153E-36
   3.130000     -7.9440208E-36
   3.140000     -7.0475614E-36
   3.150000     -5.9188741E-36
   3.160000     -4.5670639E-36
   3.170000     -3.0242893E-36
   3.180000     -1.2793877E-36
   3.190000      7.0838709E-37
   3.200000      2.9096221E-36
   3.210000      5.2950191E-36
   3.220000      7.9497318E-36
   3.230000      1.0834940E-35
   3.240000      1.3813407E-35
   3.250000      1.6975672E-35
   3.260000      2.0384524E-35
   3.270000      2.3977677E-35
   3.280000      2.7724344E-35
   3.290000      3.1587496E-35
   3.300000      3.5514939E-35
   3.310000      3.9338670E-35
   3.320000      4.2991264E-35
   3.330000      4.6566830E-35
   3.340000      5.0084749E-35
   3.350000      5.3434770E-35
   3.360000      5.6206394E-35
   3.370000      5.8419004E-35
   3.380000      6.0411438E-35
   3.390000      6.2466734E-35
   3.400000      6.4166087E-35
   3.410000      6.5886412E-35
   3.420000      6.8036126E-35
   3.430000      6.9914254E-35
   3.440000      7.1615570E-35
   3.450000      7.2279982E-35
   3.460000      7.1586808E-35
   3.470000      7.0218396E-35
   3.480000      6.8196833E-35
   3.490000      6.5789692E-35
   3.500000      6.2921268E-35
   3.510000      5.9243853E-35
   3.520000      5.4766948E-35
   3.530000      4.9188159E-35
   3.540000      4.2421324E-35
   3.550000      3.5751243E-35
   3.560000      2.9021842E-35
   3.570000      2.0842178E-35
   3.580000      1.1205722E-35
   3.590000      5.3704017E-37
   3.600000     -1.1108601E-35
   3.610000     -2.3807352E-35
   3.620000     -3.7702859E-35
   3.630000     -5.2653021E-35
   3.640000     -6.7909445E-35
   3.650000     -8.2865889E-35
   3.660000     -9.7836005E-35
   3.670000     -1.1376947E-34
   3.680000     -1.3024107E-34
   3.690000     -1.4818238E-34
   3.700000     -1.6769940E-34
   3.710000     -1.8740059E-34
   3.720000     -2.0618669E-34
   3.730000     -2.2352987E-34
   3.740000     -2.4021884E-34
   3.750000     -2.5619966E-34
   3.760000     -2.7444813E-34
   3.770000     -2.9884407E-34
   3.780000     -3.2816912E-34
   3.790000     -3.5916132E-34
   3.800000     -3.9112279E-34
   3.810000     -4.2017306E-34
   3.820000     -4.4012671E-34
   3.830000     -4.5346306E-34
   3.840000     -4.6491738E-34
   3.850000     -4.7449279E-34
   3.860000     -4.8190516E-34
   3.870000     -4.8706393E-34
   3.880000     -4.8861269E-34
   3.890000     -4.8761352E-34
   3.900000     -4.8165734E-34
   3.910000     -4.6829936E-34
   3.920000     -4.4967714E-34
   3.930000     -4.2568255E-34
   3.940000     -3.9631278E-34
   3.950000     -3.5747093E-34
   3.960000     -3.0707363E-34
   3.970000     -2.4875235E-34
   3.980000     -1.8404396E-34
   3.990000     -1.1388228E-34
   4.000000     -3.8665855E-35
   4.010000      4.1519479E-35
   4.020000      1.2600352E-34
   4.030000      2.1145908E-34
   4.040000      2.9598316E-34
   4.050000      3.8072076E-34
   4.060000      4.6931460E-34
   4.070000      5.6357157E-34
   4.080000      6.5465686E-34
   4.090000      7.4261236E-34
   4.100000      8.3508239E-34
   4.110000      9.2761841E-34
   4.120000      1.0177258E-33
   4.130000      1.1080965E-33
   4.140000      1.1998027E-33
   4.150000      1.2963598E-33
   4.160000      1.3960358E-33
   4.170000      1.4984003E-33
   4.180000      1.6040339E-33
   4.190000      1.7099543E-33
   4.200000      1.8167256E-33
   4.210000      1.9255413E-33
   4.220000      2.0344439E-33
   4.230000      2.1398617E-33
   4.240000      2.2429529E-33
   4.250000      2.3432552E-33
   4.260000      2.4361681E-33
   4.270000      2.5192034E-33
   4.280000      2.5873806E-33
   4.290000      2.6408079E-33
   4.300000      2.6828875E-33
   4.310000      2.7104187E-33
   4.320000      2.7174312E-33
   4.330000      2.6985794E-33
   4.340000      2.6553010E-33
   4.350000      2.5894304E-33
   4.360000      2.4995289E-33
   4.370000      2.3822912E-33
   4.380000      2.2358619E-33
   4.390000      2.0607217E-33
   4.400000      1.8558661E-33
   4.410000      1.6201815E-33
   4.420000      1.3532847E-33
   4.430000      1.0568680E-33
   4.440000      7.3126016E-34
   4.450000      3.7550386E-34
   4.460000     -9.2694194E-36
   4.470000     -4.2186412E-34
   4.480000     -8.6139280E-34
   4.490000     -1.3269052E-33
   4.500000     -1.8172762E-33
   4.510000     -2.3306088E-33
   4.520000     -2.8658960E-33
   4.530000     -3.4223045E-33
   4.540000     -3.9959079E-33
   4.550000     -4.5833105E-33
   4.560000     -5.1889237E-33
   4.570000     -5.8130514E-33
   4.580000     -6.4504988E-33
   4.590000     -7.0991946E-33
   4.600000     -7.7567698E-33
   4.610000     -8.4210858E-33
   4.620000     -9.0912909E-33
   4.630000     -9.7644995E-33
   4.640000     -1.0435392E-32
   4.650000     -1.1099867E-32
   4.660000     -1.1753508E-32
   4.670000     -1.2391475E-32
   4.680000     -1.3008429E-32
   4.690000     -1.3598606E-32
   4.700000     -1.4156067E-32
   4.710000     -1.4674563E-32
   4.720000     -1.5147247E-32
   4.730000     -1.5567210E-32
   4.740000     -1.5927347E-32
   4.750000     -1.6220200E-32
   4.760000     -1.6438621E-32
   4.770000     -1.6575302E-32
   4.780000     -1.6622929E-32
   4.790000     -1.6574312E-32
   4.800000     -1.6422253E-32
   4.810000     -1.6158661E-32
   4.820000     -1.5778543E-32
   4.830000     -1.5278351E-32
   4.840000     -1.4647854E-32
   4.850000     -1.3879943E-32
   4.860000     -1.2972125E-32
   4.870000     -1.1918951E-32
   4.880000     -1.0715762E-32
   4.890000     -9.3591545E-33
   4.900000     -7.8458539E-33
   4.910000     -6.1730954E-33
   4.920000     -4.3387412E-33
   4.930000     -2.3412596E-33
   4.940000     -1.7959161E-34
   4.950000      2.1463794E-33
   4.960000      4.6360983E-33
   4.970000      7.2888504E-33
   4.980000      1.0103046E-32
   4.990000      1.3076095E-32
   5.000000      1.6204873E-32
   5.010000      1.9485579E-32
   5.020000      2.2913058E-32
   5.030000      2.6481152E-32
   5.040000      3.0182889E-32
   5.050000      3.4009926E-32
   5.060000      3.7952872E-32
   5.070000      4.2000804E-32
   5.080000      4.6141315E-32
   5.090000      5.0360817E-32
   5.100000      5.4644160E-32
   5.110000      5.8974610E-32
   5.120000      6.3333720E-32
   5.130000      6.7701469E-32
   5.140000      7.2056193E-32
   5.150000      7.6374613E-32
   5.160000      8.0631824E-32
   5.170000      8.4801332E-32
   5.180000      8.8855107E-32
   5.190000      9.2763619E-32
   5.200000      9.6495937E-32
   5.210000      1.0001981E-31
   5.220000      1.0330173E-31
   5.230000      1.0630710E-31
   5.240000      1.0900025E-31
   5.250000      1.1134469E-31
   5.260000      1.1330314E-31
   5.270000      1.1483764E-31
   5.280000      1.1590979E-31
   5.290000      1.1648073E-31
   5.300000      1.1651146E-31
   5.310000      1.1596278E-31
   5.320000      1.1479550E-31
   5.330000      1.1297212E-31
   5.340000      1.1045213E-31
   5.350000      1.0719541E-31
   5.360000      1.0316547E-31
   5.370000      9.8324895E-32
   5.380000      9.2636948E-32
   5.390000      8.6066217E-32
   5.400000      7.8577554E-32
   5.410000      7.0137064E-32
   5.420000      6.0713172E-32
   5.430000      5.0275658E-32
   5.440000      3.8796345E-32
   5.450000      2.6249409E-32
   5.460000      1.2611767E-32
   5.470000     -2.1363273E-33
   5.480000     -1.8011797E-32
   5.490000     -3.5027695E-32
   5.500000     -5.3192301E-32
   5.510000     -7.2509352E-32
   5.520000     -9.2977495E-32
   5.530000     -1.1459000E-31
   5.540000     -1.3733418E-31
   5.550000     -1.6119104E-31
   5.560000     -1.8613490E-31
   5.570000     -2.1213310E-31
   5.580000     -2.3914556E-31
   5.590000     -2.6712460E-31
   5.600000     -2.9601454E-31
   5.610000     -3.2575154E-31
   5.620000     -3.5626333E-31
   5.630000     -3.8746899E-31
   5.640000     -4.1927885E-31
   5.650000     -4.5159427E-31
   5.660000     -4.8430753E-31
   5.670000     -5.1730154E-31
   5.680000     -5.5045006E-31
   5.690000     -5.8361724E-31
   5.700000     -6.1665771E-31
   5.710000     -6.4941643E-31
   5.720000     -6.8172856E-31
   5.730000     -7.1341937E-31
   5.740000     -7.4430422E-31
   5.750000     -7.7418829E-31
   5.760000     -8.0286678E-31
   5.770000     -8.3012461E-31
   5.780000     -8.5573666E-31
   5.790000     -8.7946763E-31
   5.800000     -9.0107209E-31
   5.810000     -9.2029519E-31
   5.820000     -9.3687229E-31
   5.830000     -9.5052993E-31
   5.840000     -9.6098582E-31
   5.850000     -9.6794982E-31
   5.860000     -9.7112450E-31
   5.870000     -9.7020630E-31
   5.880000     -9.6488601E-31
   5.890000     -9.5485039E-31
   5.900000     -9.3978310E-31
   5.910000     -9.1936607E-31
   5.920000     -8.9328101E-31
   5.930000     -8.6121080E-31
   5.940000     -8.2284097E-31
   5.950000     -7.7786176E-31
   5.960000     -7.2596932E-31
   5.970000     -6.6686763E-31
   5.980000     -6.0027005E-31
   5.990000     -5.2590136E-31
   6.000000     -4.4349935E-31
   6.010000     -3.5281680E-31
   6.020000     -2.5362332E-31
   6.030000     -1.4570700E-31
   6.040000     -2.8876524E-32
   6.050000      9.7036794E-32
   6.060000      2.3217687E-31
   6.070000      3.7666109E-31
   6.080000      5.3057790E-31
   6.090000      6.9398436E-31
   6.100000      8.6690357E-31
   6.110000      1.0493227E-30
   6.120000      1.2411898E-30
   6.130000      1.4424111E-30
   6.140000      1.6528479E-30
   6.150000      1.8723144E-30
   6.160000      2.1005734E-30
   6.170000      2.3373334E-30
   6.180000      2.5822462E-30
   6.190000      2.8349027E-30
   6.200000      3.0948299E-30
   6.210000      3.3614880E-30
   6.220000      3.6342670E-30
   6.230000      3.9124853E-30
   6.240000      4.1953833E-30
   6.250000      4.4821265E-30
   6.260000      4.7717969E-30
   6.270000      5.0633966E-30
   6.280000      5.3558434E-30
   6.290000      5.6479690E-30
   6.300000      5.9385196E-30
   6.310000      6.2261546E-30
   6.320000      6.5094446E-30
   6.330000      6.7868748E-30
   6.340000      7.0568398E-30
   6.350000      7.3176506E-30
   6.360000      7.5675287E-30
   6.370000      7.8046114E-30
   6.380000      8.0269525E-30
   6.390000      8.2325207E-30
   6.400000      8.4192050E-30
   6.410000      8.5848132E-30
   6.420000      8.7270777E-30
   6.430000      8.8436551E-30
   6.440000      8.9321298E-30
   6.450000      8.9900198E-30
   6.460000      9.0147778E-30
   6.470000      9.0037962E-30
   6.480000      8.9544149E-30
   6.490000      8.8639256E-30
   6.500000      8.7295761E-30
   6.510000      8.5485854E-30
   6.520000      8.3181456E-30
   6.530000      8.0354356E-30
   6.540000      7.6976305E-30
   6.550000      7.3019136E-30
   6.560000      6.8454923E-30
   6.570000      6.3256086E-30
   6.580000      5.7395560E-30
   6.590000      5.0846981E-30
   6.600000      4.3584840E-30
   6.610000      3.5584670E-30
   6.620000      2.6823252E-30
   6.630000      1.7278787E-30
   6.640000      6.9311318E-31
   6.650000     -4.2379961E-31
   6.660000     -1.6244786E-30
   6.670000     -2.9103124E-30
   6.680000     -4.2824343E-30
   6.690000     -5.7417008E-30
   6.700000     -7.2886683E-30
   6.710000     -8.9235669E-30
   6.720000     -1.0646275E-29
   6.730000     -1.2456299E-29
   6.740000     -1.4352745E-29
   6.750000     -1.6334287E-29
   6.760000     -1.8399155E-29
   6.770000     -2.0545095E-29
   6.780000     -2.2769355E-29
   6.790000     -2.5068644E-29
   6.800000     -2.7439118E-29
   6.810000     -2.9876340E-29
   6.820000     -3.2375265E-29
   6.830000     -3.4930206E-29
   6.840000     -3.7534810E-29
   6.850000     -4.0182028E-29
   6.860000     -4.2864090E-29
   6.870000     -4.5572492E-29
   6.880000     -4.8297963E-29
   6.890000     -5.1030445E-29
   6.900000     -5.3759072E-29
   6.910000     -5.6472166E-29
   6.920000     -5.9157225E-29
   6.930000     -6.1800889E-29
   6.940000     -6.4388954E-29
   6.950000     -6.6906379E-29
   6.960000     -6.9337288E-29
   6.970000     -7.1664937E-29
   6.980000     -7.3871787E-29
   6.990000     -7.5939478E-29
   7.000000     -7.7848863E-29
   7.010000     -7.9580039E-29
   7.020000     -8.1112387E-29
   7.030000     -8.2424590E-29
   7.040000     -8.3494690E-29
   7.050000     -8.4300132E-29
   7.060000     -8.4817828E-29