  -2.600000      0.0000000E+00
  -2.590000      0.0000000E+00
  -2.580000      0.0000000E+00
  -2.570000      0.0000000E+00
  -2.560000      0.0000000E+00
  -2.550000      0.0000000E+00
  -2.540000      0.0000000E+00
  -2.530000      0.0000000E+00
  -2.520000      0.0000000E+00
  -2.510000      0.0000000E+00
  -2.500000      0.0000000E+00
  -2.490000      0.0000000E+00
  -2.480000      0.0000000E+00
  -2.470000      0.0000000E+00
  -2.460000      0.0000000E+00
  -2.450000      0.0000000E+00
  -2.440000      0.0000000E+00
  -2.430000      0.0000000E+00
  -2.420000      0.0000000E+00
  -2.410000      0.0000000E+00
  -2.400000      0.0000000E+00
  -2.390000      0.0000000E+00
  -2.380000      0.0000000E+00
  -2.370000      0.0000000E+00
  -2.360000      0.0000000E+00
  -2.350000      0.0000000E+00
  -2.340000      0.0000000E+00
  -2.330000      0.0000000E+00
  -2.320000      0.0000000E+00
  -2.310000      0.0000000E+00
  -2.300000      0.0000000E+00
  -2.290000      0.0000000E+00
  -2.280000      0.0000000E+00
  -2.270000      0.0000000E+00
  -2.260000      0.0000000E+00
  -2.250000      0.0000000E+00
  -2.240000      0.0000000E+00
  -2.230000      0.0000000E+00
  -2.220000      0.0000000E+00
  -2.210000      0.0000000E+00
  -2.200000      0.0000000E+00
  -2.190000      0.0000000E+00
  -2.180000      0.0000000E+00
  -2.170000      0.0000000E+00
  -2.160000      0.0000000E+00
  -2.150000      0.0000000E+00
  -2.140000      0.0000000E+00
  -2.130000      0.0000000E+00
  -2.120000      0.0000000E+00
  -2.110000      0.0000000E+00
  -2.100000      0.0000000E+00
  -2.090000      0.0000000E+00
  -2.080000      0.0000000E+00
  -2.070000      0.0000000E+00
  -2.060000      0.0000000E+00
  -2.050000      0.0000000E+00
  -2.040000      0.0000000E+00
  -2.030000      0.0000000E+00
  -2.020000      0.0000000E+00
  -2.010000      0.0000000E+00
  -2.000000      0.0000000E+00
  -1.990000      0.0000000E+00
  -1.980000      0.0000000E+00
  -1.970000      0.0000000E+00
  -1.960000      0.0000000E+00
  -1.950000      0.0000000E+00
  -1.940000      0.0000000E+00
  -1.930000      0.0000000E+00
  -1.920000      0.0000000E+00
  -1.910000      0.0000000E+00
  -1.900000      0.0000000E+00
  -1.890000      0.0000000E+00
  -1.880000      0.0000000E+00
  -1.870000      0.0000000E+00
  -1.860000      0.0000000E+00
  -1.850000      0.0000000E+00
  -1.840000      0.0000000E+00
  -1.830000      0.0000000E+00
  -1.820000      0.0000000E+00
  -1.810000      0.0000000E+00
  -1.800000      0.0000000E+00
  -1.790000      0.0000000E+00
  -1.780000      0.0000000E+00
  -1.770000      0.0000000E+00
  -1.760000      0.0000000E+00
  -1.750000      0.0000000E+00
  -1.740000      0.0000000E+00
  -1.730000      0.0000000E+00
  -1.720000      0.0000000E+00
  -1.710000      0.0000000E+00
  -1.700000      0.0000000E+00
  -1.690000      0.0000000E+00
  -1.680000      0.0000000E+00
  -1.670000      0.0000000E+00
  -1.660000      0.0000000E+00
  -1.650000      0.0000000E+00
  -1.640000      0.0000000E+00
  -1.630000      0.0000000E+00
  -1.620000      0.0000000E+00
  -1.610000      0.0000000E+00
  -1.600000      0.0000000E+00
  -1.590000      0.0000000E+00
  -1.580000      0.0000000E+00
  -1.570000      0.0000000E+00
  -1.560000      0.0000000E+00
  -1.550000      0.0000000E+00
  -1.540000      0.0000000E+00
  -1.530000      0.0000000E+00
  -1.520000      0.0000000E+00
  -1.510000      0.0000000E+00
  -1.500000      0.0000000E+00
  -1.490000      0.0000000E+00
  -1.480000      0.0000000E+00
  -1.470000      0.0000000E+00
  -1.460000      0.0000000E+00
  -1.450000      0.0000000E+00
  -1.440000      0.0000000E+00
  -1.430000      0.0000000E+00
  -1.420000      0.0000000E+00
  -1.410000      0.0000000E+00
  -1.400000      0.0000000E+00
  -1.390000      0.0000000E+00
  -1.380000      0.0000000E+00
  -1.370000      0.0000000E+00
  -1.360000      0.0000000E+00
  -1.350000      0.0000000E+00
  -1.340000      0.0000000E+00
  -1.330000      0.0000000E+00
  -1.320000      0.0000000E+00
  -1.310000      0.0000000E+00
  -1.300000      0.0000000E+00
  -1.290000      0.0000000E+00
  -1.280000      0.0000000E+00
  -1.270000      0.0000000E+00
  -1.260000      0.0000000E+00
  -1.250000      0.0000000E+00
  -1.240000      0.0000000E+00
  -1.230000      0.0000000E+00
  -1.220000      0.0000000E+00
  -1.210000      0.0000000E+00
  -1.200000      0.0000000E+00
  -1.190000      0.0000000E+00
  -1.180000      0.0000000E+00
  -1.170000      0.0000000E+00
  -1.160000      0.0000000E+00
  -1.150000      0.0000000E+00
  -1.140000      0.0000000E+00
  -1.130000      0.0000000E+00
  -1.120000      0.0000000E+00
  -1.110000      0.0000000E+00
  -1.100000      0.0000000E+00
  -1.090000      0.0000000E+00
  -1.080000      0.0000000E+00
  -1.070000      0.0000000E+00
  -1.060000      0.0000000E+00
  -1.050000      0.0000000E+00
  -1.040000      0.0000000E+00
  -1.030000      0.0000000E+00
  -1.020000      0.0000000E+00
  -1.010000      0.0000000E+00
  -1.000000      0.0000000E+00
 -0.9900000      0.0000000E+00
 -0.9800000      0.0000000E+00
 -0.9700000      0.0000000E+00
 -0.9600000      0.0000000E+00
 -0.9500000      0.0000000E+00
 -0.9400000      0.0000000E+00
 -0.9300000      0.0000000E+00
 -0.9200000      0.0000000E+00
 -0.9100000      0.0000000E+00
 -0.9000000      0.0000000E+00
 -0.8900000      0.0000000E+00
 -0.8800000      0.0000000E+00
 -0.8700000      0.0000000E+00
 -0.8600000      0.0000000E+00
 -0.8500000      0.0000000E+00
 -0.8400000      0.0000000E+00
 -0.8300000      0.0000000E+00
 -0.8200000      0.0000000E+00
 -0.8100000      0.0000000E+00
 -0.8000000      0.0000000E+00
 -0.7900000      0.0000000E+00
 -0.7800000      0.0000000E+00
 -0.7700000      0.0000000E+00
 -0.7600000      0.0000000E+00
 -0.7500000      0.0000000E+00
 -0.7400000      0.0000000E+00
 -0.7300000      0.0000000E+00
 -0.7200000      0.0000000E+00
 -0.7100000      0.0000000E+00
 -0.7000000      0.0000000E+00
 -0.6900000      0.0000000E+00
 -0.6800000      0.0000000E+00
 -0.6700000      0.0000000E+00
 -0.6600000      0.0000000E+00
 -0.6500000      0.0000000E+00
 -0.6400000      0.0000000E+00
 -0.6300000      0.0000000E+00
 -0.6200000      0.0000000E+00
 -0.6100000      0.0000000E+00
 -0.6000000      0.0000000E+00
 -0.5900000      0.0000000E+00
 -0.5800000      0.0000000E+00
 -0.5700000      0.0000000E+00
 -0.5600000      0.0000000E+00
 -0.5500000      0.0000000E+00
 -0.5400000      0.0000000E+00
 -0.5300000      0.0000000E+00
 -0.5200000      0.0000000E+00
 -0.5100000      0.0000000E+00
 -0.5000000      0.0000000E+00
 -0.4900000      0.0000000E+00
 -0.4800000      0.0000000E+00
 -0.4700000      0.0000000E+00
 -0.4600000      0.0000000E+00
 -0.4500000      0.0000000E+00
 -0.4400000      0.0000000E+00
 -0.4300000      0.0000000E+00
 -0.4200000      0.0000000E+00
 -0.4100000      0.0000000E+00
 -0.4000000      0.0000000E+00
 -0.3900000      0.0000000E+00
 -0.3800000      0.0000000E+00
 -0.3700000      0.0000000E+00
 -0.3600000      0.0000000E+00
 -0.3500000      0.0000000E+00
 -0.3400000      0.0000000E+00
 -0.3300000      0.0000000E+00
 -0.3200000      0.0000000E+00
 -0.3100000      0.0000000E+00
 -0.3000000      0.0000000E+00
 -0.2900000      0.0000000E+00
 -0.2800000      0.0000000E+00
 -0.2700000     -1.1876995E-38
 -0.2600000     -1.2064497E-38
 -0.2500000      0.0000000E+00
 -0.2400000      0.0000000E+00
 -0.2300000      1.6997717E-38
 -0.2200000      3.7061609E-38
 -0.2100000      6.1395891E-38
 -0.2000000      8.3388738E-38
 -0.1900000      9.6610449E-38
 -0.1800000      1.0011658E-37
 -0.1700000      9.0494016E-38
 -0.1600000      6.4910572E-38
 -0.1500000      2.4208059E-38
 -0.1400000     -2.7937811E-38
 -0.1300000     -9.2486495E-38
 -0.1200000     -1.6925363E-37
 -0.1100000     -2.5187024E-37
 -0.1000000     -3.3488190E-37
 -9.0000004E-02 -4.1185018E-37
 -7.9999998E-02 -4.7111215E-37
 -7.0000000E-02 -5.0384832E-37
 -5.9999999E-02 -5.0650285E-37
 -5.0000001E-02 -4.8026969E-37
 -3.9999999E-02 -3.9738820E-37
 -2.9999999E-02 -2.4427022E-37
 -2.0000000E-02 -7.4495633E-38
 -9.9999998E-03  7.1653973E-38
 -3.4694470E-17  1.8969902E-37
  9.9999998E-03  2.7386540E-37
  2.0000000E-02  3.2291535E-37
  2.9999999E-02  3.9413903E-37
  3.9999999E-02  3.5507450E-37
  5.0000001E-02  1.2122484E-37
  5.9999999E-02  2.2515861E-38
  7.0000000E-02  2.8631021E-37
  7.9999998E-02  9.2675360E-37
  9.0000004E-02  1.9390577E-36
  0.1000000      3.0798870E-36
  0.1100000      4.1866404E-36
  0.1200000      5.4346342E-36
  0.1300000      6.3162366E-36
  0.1400000      6.6080604E-36
  0.1500000      6.5564446E-36
  0.1600000      5.9401018E-36
  0.1700000      4.6149443E-36
  0.1800000      2.7713852E-36
  0.1900000      3.8724957E-37
  0.2000000     -2.8693122E-36
  0.2100000     -6.6192278E-36
  0.2200000     -1.0660130E-35
  0.2300000     -1.5089723E-35
  0.2400000     -2.0010814E-35
  0.2500000     -2.5663366E-35
  0.2600000     -3.2305785E-35
  0.2700000     -3.9215482E-35
  0.2800000     -4.5976620E-35
  0.2900000     -5.3588865E-35
  0.3000000     -6.2298704E-35
  0.3100000     -7.2154133E-35
  0.3200000     -8.3211007E-35
  0.3300000     -9.7402748E-35
  0.3400000     -1.1435556E-34
  0.3500000     -1.3242719E-34
  0.3600000     -1.5214146E-34
  0.3700000     -1.7344738E-34
  0.3800000     -1.9720665E-34
  0.3900000     -2.2357430E-34
  0.4000000     -2.5013877E-34
  0.4100000     -2.7548828E-34
  0.4200000     -2.9927257E-34
  0.4300000     -3.2050457E-34
  0.4400000     -3.3776799E-34
  0.4500000     -3.4922727E-34
  0.4600000     -3.6520389E-34
  0.4700000     -3.7734856E-34
  0.4800000     -3.7171349E-34
  0.4900000     -3.5840669E-34
  0.5000000     -3.4601441E-34
  0.5100000     -3.2671068E-34
  0.5200000     -2.9341937E-34
  0.5300000     -2.5126784E-34
  0.5400000     -2.0089334E-34
  0.5500000     -1.4726725E-34
  0.5600000     -1.0088330E-34
  0.5700000     -6.3993511E-35
  0.5800000     -3.3663572E-35
  0.5900000     -8.4388965E-36
  0.6000000      1.3850124E-35
  0.6100000      3.5725285E-35
  0.6200000      6.4401266E-35
  0.6300000      1.0632538E-34
  0.6400000      1.6265965E-34
  0.6500000      2.2815631E-34
  0.6600000      3.0099968E-34
  0.6700000      3.8959138E-34
  0.6800000      4.9613746E-34
  0.6900000      6.1178204E-34
  0.7000000      7.3026627E-34
  0.7100000      8.4369803E-34
  0.7200000      9.4738627E-34
  0.7300000      1.0398734E-33
  0.7400000      1.1152735E-33
  0.7500000      1.1715780E-33
  0.7600000      1.2085803E-33
  0.7700000      1.2276418E-33
  0.7800000      1.2322703E-33
  0.7900000      1.2294260E-33
  0.8000000      1.2213733E-33
  0.8100000      1.2140113E-33
  0.8200000      1.2063155E-33
  0.8300000      1.2002269E-33
  0.8400000      1.2090583E-33
  0.8500000      1.2257680E-33
  0.8600000      1.2491990E-33
  0.8700000      1.2684582E-33
  0.8800000      1.2760835E-33
  0.8900000      1.2779345E-33
  0.9000000      1.2661409E-33
  0.9100000      1.2384253E-33
  0.9200000      1.1942004E-33
  0.9300000      1.1338121E-33
  0.9400000      1.0597859E-33
  0.9500000      9.7644661E-34
  0.9600000      8.8884601E-34
  0.9700000      8.0272103E-34
  0.9800000      7.2445382E-34
  0.9900000      6.5957576E-34
   1.000000      6.1304749E-34
   1.010000      5.8870975E-34
   1.020000      5.8893139E-34
   1.030000      6.1512995E-34
   1.040000      6.6797898E-34
   1.050000      7.4788734E-34
   1.060000      8.5560542E-34
   1.070000      9.9267247E-34
   1.080000      1.1619719E-33
   1.090000      1.3679454E-33
   1.100000      1.6167878E-33
   1.110000      1.9188244E-33
   1.120000      2.2800502E-33
   1.130000      2.7068810E-33
   1.140000      3.2111167E-33
   1.150000      3.8013900E-33
   1.160000      4.4844863E-33
   1.170000      5.2647413E-33
   1.180000      6.1435581E-33
   1.190000      7.1190642E-33
   1.200000      8.1862367E-33
   1.210000      9.3373087E-33
   1.220000      1.0562161E-32
   1.230000      1.1849299E-32
   1.240000      1.3186716E-32
   1.250000      1.4562888E-32
   1.260000      1.5967874E-32
   1.270000      1.7393915E-32
   1.280000      1.8835936E-32
   1.290000      2.0291962E-32
   1.300000      2.1762828E-32
   1.310000      2.3252849E-32
   1.320000      2.4766017E-32
   1.330000      2.6310714E-32
   1.340000      2.7897799E-32
   1.350000      2.9534792E-32
   1.360000      3.1230023E-32
   1.370000      3.2990696E-32
   1.380000      3.4822251E-32
   1.390000      3.6728771E-32
   1.400000      3.8712300E-32
   1.410000      4.0772207E-32
   1.420000      4.2905888E-32
   1.430000      4.5108511E-32
   1.440000      4.7373031E-32
   1.450000      4.9690121E-32
   1.460000      5.2048151E-32
   1.470000      5.4433135E-32
   1.480000      5.6828763E-32
   1.490000      5.9216509E-32
   1.500000      6.1575850E-32
   1.510000      6.3884821E-32
   1.520000      6.6120746E-32
   1.530000      6.8261092E-32
   1.540000      7.0284800E-32
   1.550000      7.2173602E-32
   1.560000      7.3913521E-32
   1.570000      7.5496330E-32
   1.580000      7.6920853E-32
   1.590000      7.8193961E-32
   1.600000      7.9331216E-32
   1.610000      8.0356858E-32
   1.620000      8.1303320E-32
   1.630000      8.2210066E-32
   1.640000      8.3121756E-32
   1.650000      8.4085903E-32
   1.660000      8.5150119E-32
   1.670000      8.6359044E-32
   1.680000      8.7751623E-32
   1.690000      8.9357907E-32
   1.700000      9.1196298E-32
   1.710000      9.3271950E-32
   1.720000      9.5575396E-32
   1.730000      9.8082214E-32
   1.740000      1.0076241E-31
   1.750000      1.0355427E-31
   1.760000      1.0638564E-31
   1.770000      1.0919587E-31
   1.780000      1.1191191E-31
   1.790000      1.1446139E-31
   1.800000      1.1677699E-31
   1.810000      1.1880096E-31
   1.820000      1.2048924E-31
   1.830000      1.2181508E-31
   1.840000      1.2277231E-31
   1.850000      1.2337742E-31
   1.860000      1.2367077E-31
   1.870000      1.2371688E-31
   1.880000      1.2360316E-31
   1.890000      1.2343752E-31
   1.900000      1.2334507E-31
   1.910000      1.2346341E-31
   1.920000      1.2393664E-31
   1.930000      1.2490904E-31
   1.940000      1.2651812E-31
   1.950000      1.2888702E-31
   1.960000      1.3211725E-31
   1.970000      1.3628205E-31
   1.980000      1.4142048E-31
   1.990000      1.4753256E-31
   2.000000      1.5457633E-31
   2.010000      1.6246686E-31
   2.020000      1.7107718E-31
   2.030000      1.8024170E-31
   2.040000      1.8976178E-31
   2.050000      1.9941328E-31
   2.060000      2.0895606E-31
   2.070000      2.1814504E-31
   2.080000      2.2674134E-31
   2.090000      2.3452375E-31
   2.100000      2.4129996E-31
   2.110000      2.4691536E-31
   2.120000      2.5126022E-31
   2.130000      2.5427391E-31
   2.140000      2.5594530E-31
   2.150000      2.5630951E-31
   2.160000      2.5544092E-31
   2.170000      2.5344117E-31
   2.180000      2.5042412E-31
   2.190000      2.4649733E-31
   2.200000      2.4174173E-31
   2.210000      2.3618872E-31
   2.220000      2.2979760E-31
   2.230000      2.2243348E-31
   2.240000      2.1384763E-31
   2.250000      2.0366190E-31
   2.260000      1.9135735E-31
   2.270000      1.7626662E-31
   2.280000      1.5757471E-31
   2.290000      1.3432708E-31
   2.300000      1.0544114E-31
   2.310000      6.9727257E-32
   2.320000      2.5915569E-32
   2.330000     -2.7314210E-32
   2.340000     -9.1296685E-32
   2.350000     -1.6734461E-31
   2.360000     -2.5671036E-31
   2.370000     -3.6055118E-31
   2.380000     -4.7989740E-31
   2.390000     -6.1562346E-31
   2.400000     -7.6842921E-31
   2.410000     -9.3882878E-31
   2.420000     -1.1271450E-30
   2.430000     -1.3335183E-30
   2.440000     -1.5579241E-30
   2.450000     -1.8001978E-30
   2.460000     -2.0600653E-30
   2.470000     -2.3371905E-30
   2.480000     -2.6312136E-30
   2.490000     -2.9417972E-30
   2.500000     -3.2686755E-30
   2.510000     -3.6116912E-30
   2.520000     -3.9708278E-30
   2.530000     -4.3462307E-30
   2.540000     -4.7382146E-30
   2.550000     -5.1472614E-30
   2.560000     -5.5739915E-30
   2.570000     -6.0191250E-30
   2.580000     -6.4834303E-30
   2.590000     -6.9676482E-30
   2.600000     -7.4724103E-30
   2.610000     -7.9981486E-30
   2.620000     -8.5449931E-30
   2.630000     -9.1126767E-30
   2.640000     -9.7004427E-30
   2.650000     -1.0306956E-29
   2.660000     -1.0930242E-29
   2.670000     -1.1567627E-29
   2.680000     -1.2215709E-29
   2.690000     -1.2870370E-29
   2.700000     -1.3526792E-29
   2.710000     -1.4179498E-29
   2.720000     -1.4822447E-29
   2.730000     -1.5449130E-29
   2.740000     -1.6052686E-29
   2.750000     -1.6626024E-29
   2.760000     -1.7161972E-29
   2.770000     -1.7653423E-29
   2.780000     -1.8093451E-29
   2.790000     -1.8475437E-29
   2.800000     -1.8793157E-29
   2.810000     -1.9040849E-29
   2.820000     -1.9213256E-29
   2.830000     -1.9305617E-29
   2.840000     -1.9313627E-29
   2.850000     -1.9233370E-29
   2.860000     -1.9061224E-29
   2.870000     -1.8793722E-29
   2.880000     -1.8427418E-29
   2.890000     -1.7958716E-29
   2.900000     -1.7383719E-29
   2.910000     -1.6698092E-29
   2.920000     -1.5896954E-29
   2.930000     -1.4974788E-29
   2.940000     -1.3925405E-29
   2.950000     -1.2741962E-29
   2.960000     -1.1417038E-29
   2.970000     -9.9427894E-30
   2.980000     -8.3111400E-30
   2.990000     -6.5140255E-30
   3.000000     -4.5437333E-30
   3.010000     -2.3932617E-30
   3.020000     -5.6676989E-32
   3.030000      2.4704737E-30
   3.040000      5.1907559E-30
   3.050000      8.1044772E-30
   3.060000      1.1209355E-29
   3.070000      1.4500233E-29
   3.080000      1.7968850E-29
   3.090000      2.1603714E-29
   3.100000      2.5390058E-29
   3.110000      2.9309882E-29
   3.120000      3.3342084E-29
   3.130000      3.7462648E-29
   3.140000      4.1644925E-29
   3.150000      4.5860009E-29
   3.160000      5.0077082E-29
   3.170000      5.4263841E-29
   3.180000      5.8386835E-29
   3.190000      6.2411830E-29
   3.200000      6.6304153E-29
   3.210000      7.0028835E-29
   3.220000      7.3550789E-29
   3.230000      7.6834771E-29
   3.240000      7.9845276E-29
   3.250000      8.2546375E-29
   3.260000      8.4901384E-29
   3.270000      8.6872489E-29
   3.280000      8.8420184E-29
   3.290000      8.9502864E-29
   3.300000      9.0076297E-29
   3.310000      9.0093215E-29
   3.320000      8.9502785E-29
   3.330000      8.8250365E-29
   3.340000      8.6277424E-29
   3.350000      8.3521539E-29
   3.360000      7.9916553E-29
   3.370000      7.5393043E-29
   3.380000      6.9879088E-29
   3.390000      6.3301050E-29
   3.400000      5.5584685E-29
   3.410000      4.6656459E-29
   3.420000      3.6444718E-29
   3.430000      2.4881336E-29
   3.440000      1.1903367E-29
   3.450000     -2.5455765E-30
   3.460000     -1.8513781E-29
   3.470000     -3.6040078E-29
   3.480000     -5.5152573E-29
   3.490000     -7.5867683E-29
   3.500000     -9.8189283E-29
   3.510000     -1.2210803E-28
   3.520000     -1.4760118E-28
   3.530000     -1.7463234E-28
   3.540000     -2.0315162E-28
   3.550000     -2.3309600E-28
   3.560000     -2.6438957E-28
   3.570000     -2.9694412E-28
   3.580000     -3.3065933E-28
   3.590000     -3.6542328E-28
   3.600000     -4.0111264E-28
   3.610000     -4.3759271E-28
   3.620000     -4.7471698E-28
   3.630000     -5.1232654E-28
   3.640000     -5.5024916E-28
   3.650000     -5.8829808E-28
   3.660000     -6.2627019E-28
   3.670000     -6.6394475E-28
   3.680000     -7.0108087E-28
   3.690000     -7.3741513E-28
   3.700000     -7.7265965E-28
   3.710000     -8.0649978E-28
   3.720000     -8.3859169E-28
   3.730000     -8.6856099E-28
   3.740000     -8.9600125E-28
   3.750000     -9.2047289E-28
   3.760000     -9.4150299E-28
   3.770000     -9.5858531E-28
   3.780000     -9.7118214E-28
   3.790000     -9.7872476E-28
   3.800000     -9.8061660E-28
   3.810000     -9.7623665E-28
   3.820000     -9.6494194E-28
   3.830000     -9.4607235E-28
   3.840000     -9.1895497E-28
   3.850000     -8.8290859E-28
   3.860000     -8.3724807E-28
   3.870000     -7.8128959E-28
   3.880000     -7.1435419E-28
   3.890000     -6.3577259E-28
   3.900000     -5.4489017E-28
   3.910000     -4.4106906E-28
   3.920000     -3.2369235E-28
   3.930000     -1.9216775E-28
   3.940000     -4.5928353E-29
   3.950000      1.1556562E-28
   3.960000      2.9282316E-28
   3.970000      4.8632081E-28
   3.980000      6.9650048E-28
   3.990000      9.2376508E-28
   4.000000      1.1684766E-27
   4.010000      1.4309510E-27
   4.020000      1.7114534E-27
   4.030000      2.0101915E-27
   4.040000      2.3273066E-27
   4.050000      2.6628678E-27
   4.060000      3.0168597E-27
   4.070000      3.3891714E-27
   4.080000      3.7795855E-27
   4.090000      4.1877636E-27
   4.100000      4.6132332E-27
   4.110000      5.0553751E-27
   4.120000      5.5134047E-27
   4.130000      5.9863638E-27
   4.140000      6.4731029E-27
   4.150000      6.9722693E-27
   4.160000      7.4822956E-27
   4.170000      8.0013923E-27
   4.180000      8.5275348E-27
   4.190000      9.0584574E-27
   4.200000      9.5916434E-27
   4.210000      1.0124330E-26
   4.220000      1.0653495E-26
   4.230000      1.1175862E-26
   4.240000      1.1687893E-26
   4.250000      1.2185789E-26
   4.260000      1.2665495E-26
   4.270000      1.3122698E-26
   4.280000      1.3552826E-26
   4.290000      1.3951053E-26
   4.300000      1.4312294E-26
   4.310000      1.4631202E-26
   4.320000      1.4902183E-26
   4.330000      1.5119377E-26
   4.340000      1.5276663E-26
   4.350000      1.5367651E-26
   4.360000      1.5385706E-26
   4.370000      1.5323924E-26
   4.380000      1.5175129E-26
   4.390000      1.4931903E-26
   4.400000      1.4586577E-26
   4.410000      1.4131237E-26
   4.420000      1.3557736E-26
   4.430000      1.2857732E-26
   4.440000      1.2022693E-26
   4.450000      1.1043927E-26
   4.460000      9.9126212E-27
   4.470000      8.6198577E-27
   4.480000      7.1566763E-27
   4.490000      5.5141119E-27
   4.500000      3.6832432E-27
   4.510000      1.6552621E-27
   4.520000     -5.7848970E-28
   4.530000     -3.0264473E-27
   4.540000     -5.6967525E-27
   4.550000     -8.5972088E-27
   4.560000     -1.1735200E-26
   4.570000     -1.5117618E-26
   4.580000     -1.8750795E-26
   4.590000     -2.2640442E-26
   4.600000     -2.6791559E-26
   4.610000     -3.1208367E-26
   4.620000     -3.5894250E-26
   4.630000     -4.0851661E-26
   4.640000     -4.6082077E-26
   4.650000     -5.1585892E-26
   4.660000     -5.7362341E-26
   4.670000     -6.3409404E-26
   4.680000     -6.9723761E-26
   4.690000     -7.6300630E-26
   4.700000     -8.3133724E-26
   4.710000     -9.0215138E-26
   4.720000     -9.7535200E-26
   4.730000     -1.0508241E-25
   4.740000     -1.1284329E-25
   4.750000     -1.2080224E-25
   4.760000     -1.2894152E-25
   4.770000     -1.3724099E-25
   4.780000     -1.4567804E-25
   4.790000     -1.5422746E-25
   4.800000     -1.6286133E-25
   4.810000     -1.7154893E-25
   4.820000     -1.8025655E-25
   4.830000     -1.8894746E-25
   4.840000     -1.9758174E-25
   4.850000     -2.0611628E-25
   4.860000     -2.1450462E-25
   4.870000     -2.2269686E-25
   4.880000     -2.3063978E-25
   4.890000     -2.3827662E-25
   4.900000     -2.4554708E-25
   4.910000     -2.5238737E-25
   4.920000     -2.5873021E-25
   4.930000     -2.6450469E-25
   4.940000     -2.6963640E-25
   4.950000     -2.7404744E-25
   4.960000     -2.7765648E-25
   4.970000     -2.8037882E-25
   4.980000     -2.8212649E-25
   4.990000     -2.8280819E-25
   5.000000     -2.8232932E-25
   5.010000     -2.8059247E-25
   5.020000     -2.7749716E-25
   5.030000     -2.7294023E-25
   5.040000     -2.6681613E-25
   5.050000     -2.5901654E-25
   5.060000     -2.4943119E-25
   5.070000     -2.3794816E-25
   5.080000     -2.2445361E-25
   5.090000     -2.0883226E-25
   5.100000     -1.9096830E-25
   5.110000     -1.7074507E-25
   5.120000     -1.4804564E-25
   5.130000     -1.2275339E-25
   5.140000     -9.4752555E-26
   5.150000     -6.3928782E-26
   5.160000     -3.0169911E-26
   5.170000      6.6339304E-27
   5.180000      4.6589198E-26
   5.190000      8.9798256E-26
   5.200000      1.3635874E-25
   5.210000      1.8636281E-25
   5.220000      2.3989635E-25
   5.230000      2.9703810E-25
   5.240000      3.5785884E-25
   5.250000      4.2242022E-25
   5.260000      4.9077428E-25
   5.270000      5.6296210E-25
   5.280000      6.3901308E-25
   5.290000      7.1894357E-25
   5.300000      8.0275625E-25
   5.310000      8.9043907E-25
   5.320000      9.8196360E-25
   5.330000      1.0772844E-24
   5.340000      1.1763377E-24
   5.350000      1.2790409E-24
   5.360000      1.3852903E-24
   5.370000      1.4949605E-24
   5.380000      1.6079036E-24
   5.390000      1.7239468E-24
   5.400000      1.8428923E-24
   5.410000      1.9645151E-24
   5.420000      2.0885623E-24
   5.430000      2.2147524E-24
   5.440000      2.3427727E-24
   5.450000      2.4722796E-24
   5.460000      2.6028965E-24
   5.470000      2.7342136E-24
   5.480000      2.8657855E-24
   5.490000      2.9971313E-24
   5.500000      3.1277337E-24
   5.510000      3.2570375E-24
   5.520000      3.3844492E-24
   5.530000      3.5093365E-24
   5.540000      3.6310285E-24
   5.550000      3.7488122E-24
   5.560000      3.8619356E-24
   5.570000      3.9696049E-24
   5.580000      4.0709853E-24
   5.590000      4.1652029E-24
   5.600000      4.2513426E-24
   5.610000      4.3284490E-24
   5.620000      4.3955286E-24
   5.630000      4.4515480E-24
   5.640000      4.4954379E-24
   5.650000      4.5260918E-24
   5.660000      4.5423680E-24
   5.670000      4.5430902E-24
   5.680000      4.5270515E-24
   5.690000      4.4930153E-24
   5.700000      4.4397186E-24
   5.710000      4.3658734E-24
   5.720000      4.2701664E-24
   5.730000      4.1512673E-24
   5.740000      4.0078303E-24
   5.750000      3.8384993E-24
   5.760000      3.6419093E-24
   5.770000      3.4166919E-24
   5.780000      3.1614812E-24
   5.790000      2.8749158E-24
   5.800000      2.5556476E-24
   5.810000      2.2023468E-24
   5.820000      1.8137036E-24
   5.830000      1.3884413E-24
   5.840000      9.2532457E-25
   5.850000      4.2316294E-25
   5.860000     -1.1918474E-25
   5.870000     -7.0279613E-25
   5.880000     -1.3286770E-24
   5.890000     -1.9977609E-24
   5.900000     -2.7108911E-24
   5.910000     -3.4688170E-24
   5.920000     -4.2721819E-24
   5.930000     -5.1215146E-24
   5.940000     -6.0172215E-24
   5.950000     -6.9595723E-24
   5.960000     -7.9486903E-24
   5.970000     -8.9845467E-24
   5.980000     -1.0066944E-23
   5.990000     -1.1195501E-23
   6.000000     -1.2369648E-23
   6.010000     -1.3588615E-23
   6.020000     -1.4851416E-23
   6.030000     -1.6156835E-23
   6.040000     -1.7503422E-23
   6.050000     -1.8889475E-23
   6.060000     -2.0313036E-23
   6.070000     -2.1771873E-23
   6.080000     -2.3263469E-23
   6.090000     -2.4785017E-23
   6.100000     -2.6333411E-23
   6.110000     -2.7905219E-23
   6.120000     -2.9496693E-23
   6.130000     -3.1103744E-23
   6.140000     -3.2721938E-23
   6.150000     -3.4346499E-23
   6.160000     -3.5972272E-23
   6.170000     -3.7593747E-23
   6.180000     -3.9205036E-23
   6.190000     -4.0799870E-23
   6.200000     -4.2371600E-23
   6.210000     -4.3913182E-23
   6.220000     -4.5417196E-23
   6.230000     -4.6875819E-23
   6.240000     -4.8280834E-23
   6.250000     -4.9623639E-23
   6.260000     -5.0895242E-23
   6.270000     -5.2086280E-23
   6.280000     -5.3187009E-23
   6.290000     -5.4187335E-23
   6.300000     -5.5076785E-23
   6.310000     -5.5844568E-23
   6.320000     -5.6479538E-23
   6.330000     -5.6970253E-23
   6.340000     -5.7304945E-23
   6.350000     -5.7471559E-23
   6.360000     -5.7457814E-23
   6.370000     -5.7251176E-23
   6.380000     -5.6838899E-23
   6.390000     -5.6208094E-23
   6.400000     -5.5345705E-23
   6.410000     -5.4238542E-23
   6.420000     -5.2873355E-23
   6.430000     -5.1236872E-23
   6.440000     -4.9315832E-23
   6.450000     -4.7097019E-23
   6.460000     -4.4567318E-23
   6.470000     -4.1713759E-23
   6.480000     -3.8523590E-23
   6.490000     -3.4984315E-23
   6.500000     -3.1083786E-23
   6.510000     -2.6810258E-23
   6.520000     -2.2152416E-23
   6.530000     -1.7099466E-23
   6.540000     -1.1641182E-23
   6.550000     -5.7680231E-24
   6.560000      5.2879822E-25
   6.570000      7.2572718E-24
   6.580000      1.4424516E-23
   6.590000      2.2036615E-23
   6.600000      3.0098625E-23
   6.610000      3.8614508E-23
   6.620000      4.7586908E-23
   6.630000      5.7017169E-23
   6.640000      6.6905231E-23
   6.650000      7.7249488E-23
   6.660000      8.8046760E-23
   6.670000      9.9292206E-23
   6.680000      1.1097915E-22
   6.690000      1.2309908E-22
   6.700000      1.3564153E-22
   6.710000      1.4859392E-22
   6.720000      1.6194156E-22
   6.730000      1.7566755E-22
   6.740000      1.8975259E-22
   6.750000      2.0417502E-22
   6.760000      2.1891059E-22
   6.770000      2.3393255E-22
   6.780000      2.4921154E-22
   6.790000      2.6471539E-22
   6.800000      2.8040915E-22
   6.810000      2.9625501E-22
   6.820000      3.1221219E-22
   6.830000      3.2823702E-22
   6.840000      3.4428280E-22
   6.850000      3.6029979E-22
   6.860000      3.7623521E-22
   6.870000      3.9203315E-22
   6.880000      4.0763449E-22
   6.890000      4.2297715E-22
   6.900000      4.3799587E-22
   6.910000      4.5262218E-22
   6.920000      4.6678477E-22
   6.930000      4.8040917E-22
   6.940000      4.9341798E-22
   6.950000      5.0573083E-22
   6.960000      5.1726465E-22
   6.970000      5.2793359E-22
   6.980000      5.3764907E-22
   6.990000      5.4632023E-22
   7.000000      5.5385376E-22
   7.010000      5.6015415E-22
   7.020000      5.6512380E-22
   7.030000      5.6866335E-22
   7.040000      5.7067172E-22
   7.050000      5.7104629E-22
   7.060000      5.6968344E-22