  -2.600000      0.0000000E+00
  -2.590000      0.0000000E+00
  -2.580000      0.0000000E+00
  -2.570000      0.0000000E+00
  -2.560000      0.0000000E+00
  -2.550000      0.0000000E+00
  -2.540000      0.0000000E+00
  -2.530000      0.0000000E+00
  -2.520000      0.0000000E+00
  -2.510000      0.0000000E+00
  -2.500000      0.0000000E+00
  -2.490000      0.0000000E+00
  -2.480000      0.0000000E+00
  -2.470000      0.0000000E+00
  -2.460000      0.0000000E+00
  -2.450000      0.0000000E+00
  -2.440000      0.0000000E+00
  -2.430000      0.0000000E+00
  -2.420000      0.0000000E+00
  -2.410000      0.0000000E+00
  -2.400000      0.0000000E+00
  -2.390000      0.0000000E+00
  -2.380000      0.0000000E+00
  -2.370000      0.0000000E+00
  -2.360000      0.0000000E+00
  -2.350000      0.0000000E+00
  -2.340000      0.0000000E+00
  -2.330000      0.0000000E+00
  -2.320000      0.0000000E+00
  -2.310000      0.0000000E+00
  -2.300000      0.0000000E+00
  -2.290000      0.0000000E+00
  -2.280000      0.0000000E+00
  -2.270000      0.0000000E+00
  -2.260000      0.0000000E+00
  -2.250000      0.0000000E+00
  -2.240000      0.0000000E+00
  -2.230000      0.0000000E+00
  -2.220000      0.0000000E+00
  -2.210000      0.0000000E+00
  -2.200000      0.0000000E+00
  -2.190000      0.0000000E+00
  -2.180000      0.0000000E+00
  -2.170000      0.0000000E+00
  -2.160000      0.0000000E+00
  -2.150000      0.0000000E+00
  -2.140000      0.0000000E+00
  -2.130000      0.0000000E+00
  -2.120000      0.0000000E+00
  -2.110000      0.0000000E+00
  -2.100000      0.0000000E+00
  -2.090000      0.0000000E+00
  -2.080000      0.0000000E+00
  -2.070000      0.0000000E+00
  -2.060000      0.0000000E+00
  -2.050000      0.0000000E+00
  -2.040000      0.0000000E+00
  -2.030000      0.0000000E+00
  -2.020000      0.0000000E+00
  -2.010000      0.0000000E+00
  -2.000000      0.0000000E+00
  -1.990000      0.0000000E+00
  -1.980000      0.0000000E+00
  -1.970000      0.0000000E+00
  -1.960000      0.0000000E+00
  -1.950000      0.0000000E+00
  -1.940000      0.0000000E+00
  -1.930000      0.0000000E+00
  -1.920000      0.0000000E+00
  -1.910000      0.0000000E+00
  -1.900000      0.0000000E+00
  -1.890000      0.0000000E+00
  -1.880000      0.0000000E+00
  -1.870000      0.0000000E+00
  -1.860000      0.0000000E+00
  -1.850000      0.0000000E+00
  -1.840000      0.0000000E+00
  -1.830000      0.0000000E+00
  -1.820000      0.0000000E+00
  -1.810000      0.0000000E+00
  -1.800000      0.0000000E+00
  -1.790000      0.0000000E+00
  -1.780000      0.0000000E+00
  -1.770000      0.0000000E+00
  -1.760000      0.0000000E+00
  -1.750000      0.0000000E+00
  -1.740000      0.0000000E+00
  -1.730000      0.0000000E+00
  -1.720000      0.0000000E+00
  -1.710000      0.0000000E+00
  -1.700000      0.0000000E+00
  -1.690000      0.0000000E+00
  -1.680000      0.0000000E+00
  -1.670000      0.0000000E+00
  -1.660000      0.0000000E+00
  -1.650000      0.0000000E+00
  -1.640000      0.0000000E+00
  -1.630000      0.0000000E+00
  -1.620000      0.0000000E+00
  -1.610000      0.0000000E+00
  -1.600000      0.0000000E+00
  -1.590000      0.0000000E+00
  -1.580000      0.0000000E+00
  -1.570000      0.0000000E+00
  -1.560000      0.0000000E+00
  -1.550000      0.0000000E+00
  -1.540000      0.0000000E+00
  -1.530000      0.0000000E+00
  -1.520000      0.0000000E+00
  -1.510000      0.0000000E+00
  -1.500000      0.0000000E+00
  -1.490000      0.0000000E+00
  -1.480000      0.0000000E+00
  -1.470000      0.0000000E+00
  -1.460000      0.0000000E+00
  -1.450000      0.0000000E+00
  -1.440000      0.0000000E+00
  -1.430000      0.0000000E+00
  -1.420000      0.0000000E+00
  -1.410000      0.0000000E+00
  -1.400000      0.0000000E+00
  -1.390000      0.0000000E+00
  -1.380000      0.0000000E+00
  -1.370000      0.0000000E+00
  -1.360000      0.0000000E+00
  -1.350000      0.0000000E+00
  -1.340000      0.0000000E+00
  -1.330000      0.0000000E+00
  -1.320000      0.0000000E+00
  -1.310000      0.0000000E+00
  -1.300000      0.0000000E+00
  -1.290000      0.0000000E+00
  -1.280000      0.0000000E+00
  -1.270000      0.0000000E+00
  -1.260000      0.0000000E+00
  -1.250000      0.0000000E+00
  -1.240000      0.0000000E+00
  -1.230000      0.0000000E+00
  -1.220000      0.0000000E+00
  -1.210000      0.0000000E+00
  -1.200000      0.0000000E+00
  -1.190000      0.0000000E+00
  -1.180000      0.0000000E+00
  -1.170000      0.0000000E+00
  -1.160000      0.0000000E+00
  -1.150000      0.0000000E+00
  -1.140000      0.0000000E+00
  -1.130000      0.0000000E+00
  -1.120000      0.0000000E+00
  -1.110000      0.0000000E+00
  -1.100000      0.0000000E+00
  -1.090000      0.0000000E+00
  -1.080000      0.0000000E+00
  -1.070000      0.0000000E+00
  -1.060000      0.0000000E+00
  -1.050000      0.0000000E+00
  -1.040000      0.0000000E+00
  -1.030000      0.0000000E+00
  -1.020000      0.0000000E+00
  -1.010000      0.0000000E+00
  -1.000000      0.0000000E+00
 -0.9900000      0.0000000E+00
 -0.9800000      0.0000000E+00
 -0.9700000      0.0000000E+00
 -0.9600000      0.0000000E+00
 -0.9500000      0.0000000E+00
 -0.9400000      0.0000000E+00
 -0.9300000      0.0000000E+00
 -0.9200000      0.0000000E+00
 -0.9100000      0.0000000E+00
 -0.9000000      0.0000000E+00
 -0.8900000      0.0000000E+00
 -0.8800000      0.0000000E+00
 -0.8700000      0.0000000E+00
 -0.8600000      0.0000000E+00
 -0.8500000      0.0000000E+00
 -0.8400000      0.0000000E+00
 -0.8300000      0.0000000E+00
 -0.8200000      0.0000000E+00
 -0.8100000      0.0000000E+00
 -0.8000000      0.0000000E+00
 -0.7900000      0.0000000E+00
 -0.7800000      0.0000000E+00
 -0.7700000      0.0000000E+00
 -0.7600000      0.0000000E+00
 -0.7500000      0.0000000E+00
 -0.7400000      0.0000000E+00
 -0.7300000      0.0000000E+00
 -0.7200000      0.0000000E+00
 -0.7100000      0.0000000E+00
 -0.7000000      0.0000000E+00
 -0.6900000      0.0000000E+00
 -0.6800000      0.0000000E+00
 -0.6700000      0.0000000E+00
 -0.6600000      0.0000000E+00
 -0.6500000      0.0000000E+00
 -0.6400000      0.0000000E+00
 -0.6300000      0.0000000E+00
 -0.6200000      0.0000000E+00
 -0.6100000      0.0000000E+00
 -0.6000000      0.0000000E+00
 -0.5900000      0.0000000E+00
 -0.5800000      0.0000000E+00
 -0.5700000      0.0000000E+00
 -0.5600000      0.0000000E+00
 -0.5500000      0.0000000E+00
 -0.5400000      0.0000000E+00
 -0.5300000      0.0000000E+00
 -0.5200000      0.0000000E+00
 -0.5100000      0.0000000E+00
 -0.5000000      0.0000000E+00
 -0.4900000      0.0000000E+00
 -0.4800000      0.0000000E+00
 -0.4700000      0.0000000E+00
 -0.4600000      0.0000000E+00
 -0.4500000      0.0000000E+00
 -0.4400000      0.0000000E+00
 -0.4300000      0.0000000E+00
 -0.4200000      0.0000000E+00
 -0.4100000      0.0000000E+00
 -0.4000000      0.0000000E+00
 -0.3900000      0.0000000E+00
 -0.3800000      0.0000000E+00
 -0.3700000      0.0000000E+00
 -0.3600000      0.0000000E+00
 -0.3500000      0.0000000E+00
 -0.3400000      0.0000000E+00
 -0.3300000      0.0000000E+00
 -0.3200000      0.0000000E+00
 -0.3100000      0.0000000E+00
 -0.3000000      0.0000000E+00
 -0.2900000      0.0000000E+00
 -0.2800000      0.0000000E+00
 -0.2700000      0.0000000E+00
 -0.2600000      0.0000000E+00
 -0.2500000      0.0000000E+00
 -0.2400000      0.0000000E+00
 -0.2300000      0.0000000E+00
 -0.2200000      0.0000000E+00
 -0.2100000      0.0000000E+00
 -0.2000000      0.0000000E+00
 -0.1900000      0.0000000E+00
 -0.1800000      0.0000000E+00
 -0.1700000      0.0000000E+00
 -0.1600000      0.0000000E+00
 -0.1500000      0.0000000E+00
 -0.1400000      0.0000000E+00
 -0.1300000      0.0000000E+00
 -0.1200000      0.0000000E+00
 -0.1100000      0.0000000E+00
 -0.1000000      0.0000000E+00
 -9.0000004E-02  0.0000000E+00
 -7.9999998E-02  0.0000000E+00
 -7.0000000E-02  0.0000000E+00
 -5.9999999E-02  0.0000000E+00
 -5.0000001E-02  0.0000000E+00
 -3.9999999E-02  0.0000000E+00
 -2.9999999E-02  0.0000000E+00
 -2.0000000E-02  0.0000000E+00
 -9.9999998E-03  0.0000000E+00
 -3.4694470E-17  0.0000000E+00
  9.9999998E-03  0.0000000E+00
  2.0000000E-02  0.0000000E+00
  2.9999999E-02  0.0000000E+00
  3.9999999E-02  0.0000000E+00
  5.0000001E-02  0.0000000E+00
  5.9999999E-02  0.0000000E+00
  7.0000000E-02  0.0000000E+00
  7.9999998E-02  0.0000000E+00
  9.0000004E-02  0.0000000E+00
  0.1000000      0.0000000E+00
  0.1100000      0.0000000E+00
  0.1200000      0.0000000E+00
  0.1300000      0.0000000E+00
  0.1400000      0.0000000E+00
  0.1500000      0.0000000E+00
  0.1600000      0.0000000E+00
  0.1700000      0.0000000E+00
  0.1800000      0.0000000E+00
  0.1900000      0.0000000E+00
  0.2000000      0.0000000E+00
  0.2100000      0.0000000E+00
  0.2200000      0.0000000E+00
  0.2300000      0.0000000E+00
  0.2400000      0.0000000E+00
  0.2500000      0.0000000E+00
  0.2600000      0.0000000E+00
  0.2700000      0.0000000E+00
  0.2800000      0.0000000E+00
  0.2900000      0.0000000E+00
  0.3000000      0.0000000E+00
  0.3100000      0.0000000E+00
  0.3200000      0.0000000E+00
  0.3300000      0.0000000E+00
  0.3400000      0.0000000E+00
  0.3500000      0.0000000E+00
  0.3600000      0.0000000E+00
  0.3700000      0.0000000E+00
  0.3800000      0.0000000E+00
  0.3900000      0.0000000E+00
  0.4000000      0.0000000E+00
  0.4100000      0.0000000E+00
  0.4200000      0.0000000E+00
  0.4300000      0.0000000E+00
  0.4400000      0.0000000E+00
  0.4500000      0.0000000E+00
  0.4600000      0.0000000E+00
  0.4700000      0.0000000E+00
  0.4800000      0.0000000E+00
  0.4900000      0.0000000E+00
  0.5000000      0.0000000E+00
  0.5100000      0.0000000E+00
  0.5200000      0.0000000E+00
  0.5300000      0.0000000E+00
  0.5400000      0.0000000E+00
  0.5500000      0.0000000E+00
  0.5600000      0.0000000E+00
  0.5700000      0.0000000E+00
  0.5800000      0.0000000E+00
  0.5900000      0.0000000E+00
  0.6000000      0.0000000E+00
  0.6100000      0.0000000E+00
  0.6200000      0.0000000E+00
  0.6300000      0.0000000E+00
  0.6400000      0.0000000E+00
  0.6500000      0.0000000E+00
  0.6600000      0.0000000E+00
  0.6700000      0.0000000E+00
  0.6800000      0.0000000E+00
  0.6900000      0.0000000E+00
  0.7000000      0.0000000E+00
  0.7100000      0.0000000E+00
  0.7200000      0.0000000E+00
  0.7300000      0.0000000E+00
  0.7400000      0.0000000E+00
  0.7500000      0.0000000E+00
  0.7600000      0.0000000E+00
  0.7700000      0.0000000E+00
  0.7800000      0.0000000E+00
  0.7900000      0.0000000E+00
  0.8000000      0.0000000E+00
  0.8100000      0.0000000E+00
  0.8200000      0.0000000E+00
  0.8300000      0.0000000E+00
  0.8400000      0.0000000E+00
  0.8500000      0.0000000E+00
  0.8600000      0.0000000E+00
  0.8700000      0.0000000E+00
  0.8800000      0.0000000E+00
  0.8900000      0.0000000E+00
  0.9000000      0.0000000E+00
  0.9100000      0.0000000E+00
  0.9200000      0.0000000E+00
  0.9300000      0.0000000E+00
  0.9400000      0.0000000E+00
  0.9500000      0.0000000E+00
  0.9600000      0.0000000E+00
  0.9700000      0.0000000E+00
  0.9800000      0.0000000E+00
  0.9900000      0.0000000E+00
   1.000000      0.0000000E+00
   1.010000      0.0000000E+00
   1.020000      0.0000000E+00
   1.030000      0.0000000E+00
   1.040000      0.0000000E+00
   1.050000      0.0000000E+00
   1.060000      0.0000000E+00
   1.070000      0.0000000E+00
   1.080000      0.0000000E+00
   1.090000      0.0000000E+00
   1.100000      0.0000000E+00
   1.110000      0.0000000E+00
   1.120000      0.0000000E+00
   1.130000      0.0000000E+00
   1.140000      0.0000000E+00
   1.150000      0.0000000E+00
   1.160000      0.0000000E+00
   1.170000      0.0000000E+00
   1.180000      0.0000000E+00
   1.190000      0.0000000E+00
   1.200000      0.0000000E+00
   1.210000      0.0000000E+00
   1.220000      0.0000000E+00
   1.230000      0.0000000E+00
   1.240000      0.0000000E+00
   1.250000      0.0000000E+00
   1.260000      0.0000000E+00
   1.270000      0.0000000E+00
   1.280000      0.0000000E+00
   1.290000      0.0000000E+00
   1.300000      0.0000000E+00
   1.310000      0.0000000E+00
   1.320000      0.0000000E+00
   1.330000      0.0000000E+00
   1.340000      0.0000000E+00
   1.350000      0.0000000E+00
   1.360000      0.0000000E+00
   1.370000      0.0000000E+00
   1.380000      0.0000000E+00
   1.390000      0.0000000E+00
   1.400000      0.0000000E+00
   1.410000      0.0000000E+00
   1.420000      0.0000000E+00
   1.430000      0.0000000E+00
   1.440000      0.0000000E+00
   1.450000      0.0000000E+00
   1.460000      0.0000000E+00
   1.470000      0.0000000E+00
   1.480000      0.0000000E+00
   1.490000      0.0000000E+00
   1.500000      0.0000000E+00
   1.510000      0.0000000E+00
   1.520000      0.0000000E+00
   1.530000      0.0000000E+00
   1.540000      0.0000000E+00
   1.550000      0.0000000E+00
   1.560000      0.0000000E+00
   1.570000      0.0000000E+00
   1.580000      0.0000000E+00
   1.590000      0.0000000E+00
   1.600000      0.0000000E+00
   1.610000      0.0000000E+00
   1.620000      0.0000000E+00
   1.630000      0.0000000E+00
   1.640000      0.0000000E+00
   1.650000      0.0000000E+00
   1.660000      0.0000000E+00
   1.670000      0.0000000E+00
   1.680000      0.0000000E+00
   1.690000      0.0000000E+00
   1.700000      0.0000000E+00
   1.710000      0.0000000E+00
   1.720000      0.0000000E+00
   1.730000      0.0000000E+00
   1.740000      0.0000000E+00
   1.750000      0.0000000E+00
   1.760000      0.0000000E+00
   1.770000      0.0000000E+00
   1.780000      0.0000000E+00
   1.790000      0.0000000E+00
   1.800000      0.0000000E+00
   1.810000      0.0000000E+00
   1.820000      0.0000000E+00
   1.830000      0.0000000E+00
   1.840000      0.0000000E+00
   1.850000      0.0000000E+00
   1.860000      0.0000000E+00
   1.870000      0.0000000E+00
   1.880000      0.0000000E+00
   1.890000      0.0000000E+00
   1.900000      0.0000000E+00
   1.910000      0.0000000E+00
   1.920000      0.0000000E+00
   1.930000      0.0000000E+00
   1.940000      0.0000000E+00
   1.950000      0.0000000E+00
   1.960000      0.0000000E+00
   1.970000      0.0000000E+00
   1.980000      0.0000000E+00
   1.990000      0.0000000E+00
   2.000000      0.0000000E+00
   2.010000      0.0000000E+00
   2.020000      0.0000000E+00
   2.030000      0.0000000E+00
   2.040000      0.0000000E+00
   2.050000      0.0000000E+00
   2.060000      0.0000000E+00
   2.070000      0.0000000E+00
   2.080000      0.0000000E+00
   2.090000      0.0000000E+00
   2.100000      0.0000000E+00
   2.110000      0.0000000E+00
   2.120000      0.0000000E+00
   2.130000      0.0000000E+00
   2.140000      0.0000000E+00
   2.150000      0.0000000E+00
   2.160000      0.0000000E+00
   2.170000      0.0000000E+00
   2.180000      0.0000000E+00
   2.190000      0.0000000E+00
   2.200000      0.0000000E+00
   2.210000      0.0000000E+00
   2.220000      0.0000000E+00
   2.230000      0.0000000E+00
   2.240000      0.0000000E+00
   2.250000      0.0000000E+00
   2.260000      0.0000000E+00
   2.270000      0.0000000E+00
   2.280000      0.0000000E+00
   2.290000      0.0000000E+00
   2.300000      0.0000000E+00
   2.310000      0.0000000E+00
   2.320000      0.0000000E+00
   2.330000      0.0000000E+00
   2.340000      0.0000000E+00
   2.350000      0.0000000E+00
   2.360000      0.0000000E+00
   2.370000      0.0000000E+00
   2.380000      0.0000000E+00
   2.390000      0.0000000E+00
   2.400000      0.0000000E+00
   2.410000      0.0000000E+00
   2.420000      0.0000000E+00
   2.430000      0.0000000E+00
   2.440000      0.0000000E+00
   2.450000      0.0000000E+00
   2.460000      0.0000000E+00
   2.470000      0.0000000E+00
   2.480000      0.0000000E+00
   2.490000      0.0000000E+00
   2.500000      0.0000000E+00
   2.510000      0.0000000E+00
   2.520000      0.0000000E+00
   2.530000      0.0000000E+00
   2.540000      0.0000000E+00
   2.550000      0.0000000E+00
   2.560000      0.0000000E+00
   2.570000      0.0000000E+00
   2.580000      0.0000000E+00
   2.590000      0.0000000E+00
   2.600000      0.0000000E+00
   2.610000      0.0000000E+00
   2.620000      0.0000000E+00
   2.630000      0.0000000E+00
   2.640000      0.0000000E+00
   2.650000      0.0000000E+00
   2.660000      0.0000000E+00
   2.670000      0.0000000E+00
   2.680000      0.0000000E+00
   2.690000      0.0000000E+00
   2.700000      0.0000000E+00
   2.710000      0.0000000E+00
   2.720000      0.0000000E+00
   2.730000      0.0000000E+00
   2.740000      0.0000000E+00
   2.750000      0.0000000E+00
   2.760000      0.0000000E+00
   2.770000      0.0000000E+00
   2.780000      0.0000000E+00
   2.790000      0.0000000E+00
   2.800000      0.0000000E+00
   2.810000      0.0000000E+00
   2.820000      0.0000000E+00
   2.830000      0.0000000E+00
   2.840000      0.0000000E+00
   2.850000      0.0000000E+00
   2.860000      0.0000000E+00
   2.870000      0.0000000E+00
   2.880000      0.0000000E+00
   2.890000      0.0000000E+00
   2.900000      0.0000000E+00
   2.910000      0.0000000E+00
   2.920000      0.0000000E+00
   2.930000      0.0000000E+00
   2.940000      0.0000000E+00
   2.950000      0.0000000E+00
   2.960000      0.0000000E+00
   2.970000      0.0000000E+00
   2.980000      0.0000000E+00
   2.990000      0.0000000E+00
   3.000000      0.0000000E+00
   3.010000      0.0000000E+00
   3.020000      0.0000000E+00
   3.030000      0.0000000E+00
   3.040000      0.0000000E+00
   3.050000      0.0000000E+00
   3.060000      0.0000000E+00
   3.070000      0.0000000E+00
   3.080000      0.0000000E+00
   3.090000      0.0000000E+00
   3.100000      0.0000000E+00
   3.110000      0.0000000E+00
   3.120000      0.0000000E+00
   3.130000      0.0000000E+00
   3.140000      0.0000000E+00
   3.150000      0.0000000E+00
   3.160000      0.0000000E+00
   3.170000      0.0000000E+00
   3.180000      0.0000000E+00
   3.190000      0.0000000E+00
   3.200000      0.0000000E+00
   3.210000      0.0000000E+00
   3.220000      0.0000000E+00
   3.230000      0.0000000E+00
   3.240000      0.0000000E+00
   3.250000      0.0000000E+00
   3.260000      0.0000000E+00
   3.270000      0.0000000E+00
   3.280000      0.0000000E+00
   3.290000      0.0000000E+00
   3.300000      0.0000000E+00
   3.310000      0.0000000E+00
   3.320000      0.0000000E+00
   3.330000      0.0000000E+00
   3.340000      0.0000000E+00
   3.350000      0.0000000E+00
   3.360000      0.0000000E+00
   3.370000      0.0000000E+00
   3.380000      0.0000000E+00
   3.390000      0.0000000E+00
   3.400000      0.0000000E+00
   3.410000      0.0000000E+00
   3.420000      0.0000000E+00
   3.430000      0.0000000E+00
   3.440000      0.0000000E+00
   3.450000      0.0000000E+00
   3.460000      0.0000000E+00
   3.470000      0.0000000E+00
   3.480000      0.0000000E+00
   3.490000      0.0000000E+00
   3.500000      0.0000000E+00
   3.510000      0.0000000E+00
   3.520000      0.0000000E+00
   3.530000      0.0000000E+00
   3.540000      0.0000000E+00
   3.550000      0.0000000E+00
   3.560000      0.0000000E+00
   3.570000      0.0000000E+00
   3.580000      0.0000000E+00
   3.590000      0.0000000E+00
   3.600000      0.0000000E+00
   3.610000      0.0000000E+00
   3.620000      0.0000000E+00
   3.630000      0.0000000E+00
   3.640000      0.0000000E+00
   3.650000      0.0000000E+00
   3.660000      0.0000000E+00
   3.670000      0.0000000E+00
   3.680000      0.0000000E+00
   3.690000      0.0000000E+00
   3.700000      0.0000000E+00
   3.710000      0.0000000E+00
   3.720000     -1.6108851E-38
   3.730000     -2.0392409E-38
   3.740000     -2.3178645E-38
   3.750000     -2.4729162E-38
   3.760000     -2.6378863E-38
   3.770000     -2.8713586E-38
   3.780000     -3.1798228E-38
   3.790000     -3.5103224E-38
   3.800000     -3.8619121E-38
   3.810000     -4.0794514E-38
   3.820000     -4.1528940E-38
   3.830000     -4.2318737E-38
   3.840000     -4.3266452E-38
   3.850000     -4.4478172E-38
   3.860000     -4.7435859E-38
   3.870000     -5.2026008E-38
   3.880000     -5.6696222E-38
   3.890000     -6.1423245E-38
   3.900000     -6.6183646E-38
   3.910000     -7.0953470E-38
   3.920000     -7.5704819E-38
   3.930000     -7.9902515E-38
   3.940000     -8.2398323E-38
   3.950000     -8.3579062E-38
   3.960000     -8.4505506E-38
   3.970000     -8.6067320E-38
   3.980000     -8.8358538E-38
   3.990000     -9.0626955E-38
   4.000000     -9.2854846E-38
   4.010000     -9.4995065E-38
   4.020000     -9.3254742E-38
   4.030000     -8.7156364E-38
   4.040000     -7.9910867E-38
   4.050000     -7.1375546E-38
   4.060000     -6.1412690E-38
   4.070000     -4.9405064E-38
   4.080000     -3.5639002E-38
   4.090000     -2.1017107E-38
   4.100000      0.0000000E+00
   4.110000      0.0000000E+00
   4.120000      2.9025395E-38
   4.130000      5.0483274E-38
   4.140000      7.5376876E-38
   4.150000      1.0262601E-37
   4.160000      1.3210775E-37
   4.170000      1.6212041E-37
   4.180000      1.9242146E-37
   4.190000      2.2256185E-37
   4.200000      2.5375213E-37
   4.210000      2.8769987E-37
   4.220000      3.2037418E-37
   4.230000      3.5253867E-37
   4.240000      3.8699048E-37
   4.250000      4.2454366E-37
   4.260000      4.6559090E-37
   4.270000      5.0834750E-37
   4.280000      5.5094536E-37
   4.290000      5.8870051E-37
   4.300000      6.2071020E-37
   4.310000      6.4919750E-37
   4.320000      6.7394349E-37
   4.330000      6.9107426E-37
   4.340000      6.9683026E-37
   4.350000      6.9572711E-37
   4.360000      6.9443361E-37
   4.370000      7.0050134E-37
   4.380000      7.0888438E-37
   4.390000      7.1121857E-37
   4.400000      7.1039249E-37
   4.410000      7.0638882E-37
   4.420000      6.9829559E-37
   4.430000      6.5396146E-37
   4.440000      5.7009153E-37
   4.450000      4.7740920E-37
   4.460000      3.6660134E-37
   4.470000      2.3319497E-37
   4.480000      8.3746994E-38
   4.490000     -8.4024289E-38
   4.500000     -2.6845998E-37
   4.510000     -4.8180856E-37
   4.520000     -7.4833271E-37
   4.530000     -1.0679766E-36
   4.540000     -1.4279774E-36
   4.550000     -1.7962573E-36
   4.560000     -2.1609559E-36
   4.570000     -2.5538269E-36
   4.580000     -2.9703544E-36
   4.590000     -3.3940588E-36
   4.600000     -3.8302623E-36
   4.610000     -4.2910426E-36
   4.620000     -4.7250489E-36
   4.630000     -4.8420735E-36
   4.640000     -4.6683853E-36
   4.650000     -4.4945981E-36
   4.660000     -4.3393517E-36
   4.670000     -4.2917848E-36
   4.680000     -4.3428342E-36
   4.690000     -4.7502653E-36
   4.700000     -5.5976684E-36
   4.710000     -6.4615886E-36
   4.720000     -7.0114392E-36
   4.730000     -7.4021204E-36
   4.740000     -7.9148121E-36
   4.750000     -8.4737358E-36
   4.760000     -9.0472198E-36
   4.770000     -9.6001936E-36
   4.780000     -1.0290987E-35
   4.790000     -1.1152898E-35
   4.800000     -1.2088190E-35
   4.810000     -1.3061352E-35
   4.820000     -1.3738649E-35
   4.830000     -1.3952609E-35
   4.840000     -1.3904553E-35
   4.850000     -1.3740575E-35
   4.860000     -1.3458842E-35
   4.870000     -1.3038095E-35
   4.880000     -1.2419609E-35
   4.890000     -1.1540555E-35
   4.900000     -1.0395463E-35
   4.910000     -8.9375259E-36
   4.920000     -7.1528121E-36
   4.930000     -5.0345069E-36
   4.940000     -2.5458602E-36
   4.950000      2.2479661E-37
   4.960000      3.0764134E-36
   4.970000      5.9926464E-36
   4.980000      9.1398417E-36
   4.990000      1.2575198E-35
   5.000000      1.6278050E-35
   5.010000      2.0254650E-35
   5.020000      2.4353204E-35
   5.030000      2.8626654E-35
   5.040000      3.3010622E-35
   5.050000      3.7507669E-35
   5.060000      4.2060270E-35
   5.070000      4.6485289E-35
   5.080000      4.9609208E-35
   5.090000      5.1372713E-35
   5.100000      5.3142051E-35
   5.110000      5.4941992E-35
   5.120000      5.6765081E-35
   5.130000      5.9580924E-35
   5.140000      6.3583419E-35
   5.150000      6.7544956E-35
   5.160000      7.1332361E-35
   5.170000      7.5301491E-35
   5.180000      7.9188084E-35
   5.190000      8.2868604E-35
   5.200000      8.6424623E-35
   5.210000      9.0897752E-35
   5.220000      9.6227443E-35
   5.230000      1.0136289E-34
   5.240000      1.0637761E-34
   5.250000      1.1278479E-34
   5.260000      1.2042260E-34
   5.270000      1.2832167E-34
   5.280000      1.3637662E-34
   5.290000      1.4382914E-34
   5.300000      1.5053233E-34
   5.310000      1.5420168E-34
   5.320000      1.5233208E-34
   5.330000      1.4676771E-34
   5.340000      1.3986818E-34
   5.350000      1.3017280E-34
   5.360000      1.1730247E-34
   5.370000      1.0254648E-34
   5.380000      8.5624776E-35
   5.390000      6.4877703E-35
   5.400000      4.0618912E-35
   5.410000      1.4332340E-35
   5.420000     -1.4598780E-35
   5.430000     -4.5688019E-35
   5.440000     -7.7962803E-35
   5.450000     -1.0975789E-34
   5.460000     -1.4106343E-34
   5.470000     -1.7191744E-34
   5.480000     -2.0332354E-34
   5.490000     -2.3651394E-34
   5.500000     -2.6692065E-34
   5.510000     -2.9394591E-34
   5.520000     -3.2081346E-34
   5.530000     -3.5026329E-34
   5.540000     -3.8367867E-34
   5.550000     -4.2111158E-34
   5.560000     -4.6289461E-34
   5.570000     -5.0654214E-34
   5.580000     -5.4998052E-34
   5.590000     -5.9337811E-34
   5.600000     -6.3711252E-34
   5.610000     -6.8206356E-34
   5.620000     -7.2824768E-34
   5.630000     -7.7650163E-34
   5.640000     -8.2678340E-34
   5.650000     -8.7808776E-34
   5.660000     -9.3054842E-34
   5.670000     -9.8263825E-34
   5.680000     -1.0353736E-33
   5.690000     -1.0890218E-33
   5.700000     -1.1408265E-33
   5.710000     -1.1899853E-33
   5.720000     -1.2364467E-33
   5.730000     -1.2801031E-33
   5.740000     -1.3216806E-33
   5.750000     -1.3606365E-33
   5.760000     -1.3935632E-33
   5.770000     -1.4181694E-33
   5.780000     -1.4363403E-33
   5.790000     -1.4462654E-33
   5.800000     -1.4472780E-33
   5.810000     -1.4402529E-33
   5.820000     -1.4223104E-33
   5.830000     -1.3918008E-33
   5.840000     -1.3495631E-33
   5.850000     -1.2982216E-33
   5.860000     -1.2372177E-33
   5.870000     -1.1673270E-33
   5.880000     -1.0891546E-33
   5.890000     -1.0024014E-33
   5.900000     -9.0617151E-34
   5.910000     -7.9654234E-34
   5.920000     -6.7248103E-34
   5.930000     -5.3095840E-34
   5.940000     -3.7008332E-34
   5.950000     -1.9118866E-34
   5.960000      5.3947908E-36
   5.970000      2.2017889E-34
   5.980000      4.5559365E-34
   5.990000      7.1063143E-34
   6.000000      9.8576571E-34
   6.010000      1.2812738E-33
   6.020000      1.5986113E-33
   6.030000      1.9401224E-33
   6.040000      2.3049205E-33
   6.050000      2.6924186E-33
   6.060000      3.1042392E-33
   6.070000      3.5410570E-33
   6.080000      4.0003171E-33
   6.090000      4.4788370E-33
   6.100000      4.9756762E-33
   6.110000      5.4928544E-33
   6.120000      6.0277304E-33
   6.130000      6.5773831E-33
   6.140000      7.1405661E-33
   6.150000      7.7154064E-33
   6.160000      8.3028017E-33
   6.170000      8.9008609E-33
   6.180000      9.5053184E-33
   6.190000      1.0115482E-32
   6.200000      1.0730077E-32
   6.210000      1.1345515E-32
   6.220000      1.1959053E-32
   6.230000      1.2566949E-32
   6.240000      1.3166850E-32
   6.250000      1.3757579E-32
   6.260000      1.4334606E-32
   6.270000      1.4893794E-32
   6.280000      1.5432431E-32
   6.290000      1.5948129E-32
   6.300000      1.6437462E-32
   6.310000      1.6893729E-32
   6.320000      1.7311570E-32
   6.330000      1.7687117E-32
   6.340000      1.8015718E-32
   6.350000      1.8291649E-32
   6.360000      1.8505458E-32
   6.370000      1.8647938E-32
   6.380000      1.8714772E-32
   6.390000      1.8699473E-32
   6.400000      1.8592095E-32
   6.410000      1.8386316E-32
   6.420000      1.8073616E-32
   6.430000      1.7643843E-32
   6.440000      1.7091522E-32
   6.450000      1.6409543E-32
   6.460000      1.5586093E-32
   6.470000      1.4611883E-32
   6.480000      1.3480402E-32
   6.490000      1.2183995E-32
   6.500000      1.0716360E-32
   6.510000      9.0702804E-33
   6.520000      7.2365504E-33
   6.530000      5.2075987E-33
   6.540000      2.9790809E-33
   6.550000      5.4653026E-34
   6.560000     -2.0961841E-33
   6.570000     -4.9541665E-33
   6.580000     -8.0333064E-33
   6.590000     -1.1334694E-32
   6.600000     -1.4861948E-32
   6.610000     -1.8620965E-32
   6.620000     -2.2611930E-32
   6.630000     -2.6836395E-32
   6.640000     -3.1295518E-32
   6.650000     -3.5989364E-32
   6.660000     -4.0917283E-32
   6.670000     -4.6077022E-32
   6.680000     -5.1465899E-32
   6.690000     -5.7079190E-32
   6.700000     -6.2912176E-32
   6.710000     -6.8959054E-32
   6.720000     -7.5210562E-32
   6.730000     -8.1656961E-32
   6.740000     -8.8286661E-32
   6.750000     -9.5086208E-32
   6.760000     -1.0204090E-31
   6.770000     -1.0913357E-31
   6.780000     -1.1634448E-31
   6.790000     -1.2365216E-31
   6.800000     -1.3103263E-31
   6.810000     -1.3845933E-31
   6.820000     -1.4590277E-31
   6.830000     -1.5333081E-31
   6.840000     -1.6070954E-31
   6.850000     -1.6800196E-31
   6.860000     -1.7516831E-31
   6.870000     -1.8216622E-31
   6.880000     -1.8894984E-31
   6.890000     -1.9547109E-31
   6.900000     -2.0168142E-31
   6.910000     -2.0752840E-31
   6.920000     -2.1295589E-31
   6.930000     -2.1790727E-31
   6.940000     -2.2232322E-31
   6.950000     -2.2614085E-31
   6.960000     -2.2929576E-31
   6.970000     -2.3172231E-31
   6.980000     -2.3335197E-31
   6.990000     -2.3411414E-31
   7.000000     -2.3393736E-31
   7.010000     -2.3274652E-31
   7.020000     -2.3046618E-31
   7.030000     -2.2702071E-31
   7.040000     -2.2233044E-31
   7.050000     -2.1631659E-31
   7.060000     -2.0890004E-31