  -2.600000      0.0000000E+00
  -2.590000      0.0000000E+00
  -2.580000      0.0000000E+00
  -2.570000      0.0000000E+00
  -2.560000      0.0000000E+00
  -2.550000      0.0000000E+00
  -2.540000      0.0000000E+00
  -2.530000      0.0000000E+00
  -2.520000      0.0000000E+00
  -2.510000      0.0000000E+00
  -2.500000      0.0000000E+00
  -2.490000      0.0000000E+00
  -2.480000      0.0000000E+00
  -2.470000      0.0000000E+00
  -2.460000      0.0000000E+00
  -2.450000      0.0000000E+00
  -2.440000      0.0000000E+00
  -2.430000      0.0000000E+00
  -2.420000      0.0000000E+00
  -2.410000      0.0000000E+00
  -2.400000      0.0000000E+00
  -2.390000      0.0000000E+00
  -2.380000      0.0000000E+00
  -2.370000      0.0000000E+00
  -2.360000      0.0000000E+00
  -2.350000      0.0000000E+00
  -2.340000      0.0000000E+00
  -2.330000      0.0000000E+00
  -2.320000      0.0000000E+00
  -2.310000      0.0000000E+00
  -2.300000      0.0000000E+00
  -2.290000      0.0000000E+00
  -2.280000      0.0000000E+00
  -2.270000      0.0000000E+00
  -2.260000      0.0000000E+00
  -2.250000      0.0000000E+00
  -2.240000      0.0000000E+00
  -2.230000      0.0000000E+00
  -2.220000      0.0000000E+00
  -2.210000      0.0000000E+00
  -2.200000      0.0000000E+00
  -2.190000      0.0000000E+00
  -2.180000      0.0000000E+00
  -2.170000      0.0000000E+00
  -2.160000      0.0000000E+00
  -2.150000      0.0000000E+00
  -2.140000      0.0000000E+00
  -2.130000      0.0000000E+00
  -2.120000      0.0000000E+00
  -2.110000      0.0000000E+00
  -2.100000      0.0000000E+00
  -2.090000      0.0000000E+00
  -2.080000      0.0000000E+00
  -2.070000      0.0000000E+00
  -2.060000      0.0000000E+00
  -2.050000      0.0000000E+00
  -2.040000      0.0000000E+00
  -2.030000      0.0000000E+00
  -2.020000      0.0000000E+00
  -2.010000      0.0000000E+00
  -2.000000      0.0000000E+00
  -1.990000      0.0000000E+00
  -1.980000      0.0000000E+00
  -1.970000      0.0000000E+00
  -1.960000      0.0000000E+00
  -1.950000      0.0000000E+00
  -1.940000      0.0000000E+00
  -1.930000      0.0000000E+00
  -1.920000      0.0000000E+00
  -1.910000      0.0000000E+00
  -1.900000      0.0000000E+00
  -1.890000      0.0000000E+00
  -1.880000      0.0000000E+00
  -1.870000      0.0000000E+00
  -1.860000      0.0000000E+00
  -1.850000      0.0000000E+00
  -1.840000      0.0000000E+00
  -1.830000      0.0000000E+00
  -1.820000      0.0000000E+00
  -1.810000      0.0000000E+00
  -1.800000      0.0000000E+00
  -1.790000      0.0000000E+00
  -1.780000      0.0000000E+00
  -1.770000      0.0000000E+00
  -1.760000      0.0000000E+00
  -1.750000      0.0000000E+00
  -1.740000      0.0000000E+00
  -1.730000      0.0000000E+00
  -1.720000      0.0000000E+00
  -1.710000      0.0000000E+00
  -1.700000      0.0000000E+00
  -1.690000      0.0000000E+00
  -1.680000      0.0000000E+00
  -1.670000      0.0000000E+00
  -1.660000      0.0000000E+00
  -1.650000      0.0000000E+00
  -1.640000      0.0000000E+00
  -1.630000      0.0000000E+00
  -1.620000      0.0000000E+00
  -1.610000      0.0000000E+00
  -1.600000      0.0000000E+00
  -1.590000      0.0000000E+00
  -1.580000      0.0000000E+00
  -1.570000      0.0000000E+00
  -1.560000      0.0000000E+00
  -1.550000      0.0000000E+00
  -1.540000      0.0000000E+00
  -1.530000      0.0000000E+00
  -1.520000      0.0000000E+00
  -1.510000      0.0000000E+00
  -1.500000      0.0000000E+00
  -1.490000      0.0000000E+00
  -1.480000      0.0000000E+00
  -1.470000      0.0000000E+00
  -1.460000      0.0000000E+00
  -1.450000      0.0000000E+00
  -1.440000      0.0000000E+00
  -1.430000      0.0000000E+00
  -1.420000      0.0000000E+00
  -1.410000      0.0000000E+00
  -1.400000      0.0000000E+00
  -1.390000      0.0000000E+00
  -1.380000      0.0000000E+00
  -1.370000      0.0000000E+00
  -1.360000      0.0000000E+00
  -1.350000      0.0000000E+00
  -1.340000      0.0000000E+00
  -1.330000      0.0000000E+00
  -1.320000      0.0000000E+00
  -1.310000      0.0000000E+00
  -1.300000      0.0000000E+00
  -1.290000      0.0000000E+00
  -1.280000      0.0000000E+00
  -1.270000      0.0000000E+00
  -1.260000      0.0000000E+00
  -1.250000      0.0000000E+00
  -1.240000      0.0000000E+00
  -1.230000      0.0000000E+00
  -1.220000      0.0000000E+00
  -1.210000      0.0000000E+00
  -1.200000      0.0000000E+00
  -1.190000      0.0000000E+00
  -1.180000      0.0000000E+00
  -1.170000      0.0000000E+00
  -1.160000      0.0000000E+00
  -1.150000      0.0000000E+00
  -1.140000      0.0000000E+00
  -1.130000      0.0000000E+00
  -1.120000      0.0000000E+00
  -1.110000      0.0000000E+00
  -1.100000      0.0000000E+00
  -1.090000      0.0000000E+00
  -1.080000      0.0000000E+00
  -1.070000      0.0000000E+00
  -1.060000      0.0000000E+00
  -1.050000      0.0000000E+00
  -1.040000      0.0000000E+00
  -1.030000      0.0000000E+00
  -1.020000      0.0000000E+00
  -1.010000      0.0000000E+00
  -1.000000      0.0000000E+00
 -0.9900000      0.0000000E+00
 -0.9800000      0.0000000E+00
 -0.9700000      0.0000000E+00
 -0.9600000      0.0000000E+00
 -0.9500000      0.0000000E+00
 -0.9400000      0.0000000E+00
 -0.9300000      0.0000000E+00
 -0.9200000      0.0000000E+00
 -0.9100000      0.0000000E+00
 -0.9000000      0.0000000E+00
 -0.8900000      0.0000000E+00
 -0.8800000      0.0000000E+00
 -0.8700000      0.0000000E+00
 -0.8600000      0.0000000E+00
 -0.8500000      0.0000000E+00
 -0.8400000      0.0000000E+00
 -0.8300000      0.0000000E+00
 -0.8200000      0.0000000E+00
 -0.8100000      0.0000000E+00
 -0.8000000      0.0000000E+00
 -0.7900000      0.0000000E+00
 -0.7800000      0.0000000E+00
 -0.7700000      0.0000000E+00
 -0.7600000      0.0000000E+00
 -0.7500000      0.0000000E+00
 -0.7400000      0.0000000E+00
 -0.7300000      0.0000000E+00
 -0.7200000      0.0000000E+00
 -0.7100000      0.0000000E+00
 -0.7000000      0.0000000E+00
 -0.6900000      0.0000000E+00
 -0.6800000      0.0000000E+00
 -0.6700000      0.0000000E+00
 -0.6600000      0.0000000E+00
 -0.6500000      0.0000000E+00
 -0.6400000      0.0000000E+00
 -0.6300000      0.0000000E+00
 -0.6200000      0.0000000E+00
 -0.6100000      0.0000000E+00
 -0.6000000      0.0000000E+00
 -0.5900000      0.0000000E+00
 -0.5800000      0.0000000E+00
 -0.5700000      0.0000000E+00
 -0.5600000      0.0000000E+00
 -0.5500000      0.0000000E+00
 -0.5400000      0.0000000E+00
 -0.5300000      0.0000000E+00
 -0.5200000      0.0000000E+00
 -0.5100000      0.0000000E+00
 -0.5000000      0.0000000E+00
 -0.4900000      0.0000000E+00
 -0.4800000      0.0000000E+00
 -0.4700000      0.0000000E+00
 -0.4600000      0.0000000E+00
 -0.4500000      0.0000000E+00
 -0.4400000      0.0000000E+00
 -0.4300000      0.0000000E+00
 -0.4200000      0.0000000E+00
 -0.4100000      0.0000000E+00
 -0.4000000      0.0000000E+00
 -0.3900000      0.0000000E+00
 -0.3800000      0.0000000E+00
 -0.3700000      0.0000000E+00
 -0.3600000      0.0000000E+00
 -0.3500000      0.0000000E+00
 -0.3400000      0.0000000E+00
 -0.3300000      0.0000000E+00
 -0.3200000      0.0000000E+00
 -0.3100000      0.0000000E+00
 -0.3000000      0.0000000E+00
 -0.2900000      0.0000000E+00
 -0.2800000      0.0000000E+00
 -0.2700000      0.0000000E+00
 -0.2600000      0.0000000E+00
 -0.2500000      0.0000000E+00
 -0.2400000      0.0000000E+00
 -0.2300000      0.0000000E+00
 -0.2200000      0.0000000E+00
 -0.2100000      0.0000000E+00
 -0.2000000      0.0000000E+00
 -0.1900000      0.0000000E+00
 -0.1800000      0.0000000E+00
 -0.1700000      0.0000000E+00
 -0.1600000      0.0000000E+00
 -0.1500000      0.0000000E+00
 -0.1400000      0.0000000E+00
 -0.1300000      0.0000000E+00
 -0.1200000      0.0000000E+00
 -0.1100000      0.0000000E+00
 -0.1000000      0.0000000E+00
 -9.0000004E-02  0.0000000E+00
 -7.9999998E-02  0.0000000E+00
 -7.0000000E-02  0.0000000E+00
 -5.9999999E-02  0.0000000E+00
 -5.0000001E-02  0.0000000E+00
 -3.9999999E-02  0.0000000E+00
 -2.9999999E-02  0.0000000E+00
 -2.0000000E-02  0.0000000E+00
 -9.9999998E-03  0.0000000E+00
 -3.4694470E-17  0.0000000E+00
  9.9999998E-03  0.0000000E+00
  2.0000000E-02  0.0000000E+00
  2.9999999E-02  0.0000000E+00
  3.9999999E-02  0.0000000E+00
  5.0000001E-02  0.0000000E+00
  5.9999999E-02  0.0000000E+00
  7.0000000E-02  0.0000000E+00
  7.9999998E-02  0.0000000E+00
  9.0000004E-02  0.0000000E+00
  0.1000000      0.0000000E+00
  0.1100000      0.0000000E+00
  0.1200000      0.0000000E+00
  0.1300000      0.0000000E+00
  0.1400000      0.0000000E+00
  0.1500000      0.0000000E+00
  0.1600000      0.0000000E+00
  0.1700000      0.0000000E+00
  0.1800000      0.0000000E+00
  0.1900000      0.0000000E+00
  0.2000000      0.0000000E+00
  0.2100000      0.0000000E+00
  0.2200000      0.0000000E+00
  0.2300000      0.0000000E+00
  0.2400000      0.0000000E+00
  0.2500000      0.0000000E+00
  0.2600000      0.0000000E+00
  0.2700000      0.0000000E+00
  0.2800000      0.0000000E+00
  0.2900000      0.0000000E+00
  0.3000000      0.0000000E+00
  0.3100000      0.0000000E+00
  0.3200000      0.0000000E+00
  0.3300000      0.0000000E+00
  0.3400000      0.0000000E+00
  0.3500000      0.0000000E+00
  0.3600000      0.0000000E+00
  0.3700000      0.0000000E+00
  0.3800000      0.0000000E+00
  0.3900000      0.0000000E+00
  0.4000000      0.0000000E+00
  0.4100000      0.0000000E+00
  0.4200000      0.0000000E+00
  0.4300000      0.0000000E+00
  0.4400000      0.0000000E+00
  0.4500000      0.0000000E+00
  0.4600000      0.0000000E+00
  0.4700000      0.0000000E+00
  0.4800000      0.0000000E+00
  0.4900000      0.0000000E+00
  0.5000000      0.0000000E+00
  0.5100000      0.0000000E+00
  0.5200000      0.0000000E+00
  0.5300000      0.0000000E+00
  0.5400000      0.0000000E+00
  0.5500000      0.0000000E+00
  0.5600000      0.0000000E+00
  0.5700000      0.0000000E+00
  0.5800000      0.0000000E+00
  0.5900000      0.0000000E+00
  0.6000000      0.0000000E+00
  0.6100000      0.0000000E+00
  0.6200000      0.0000000E+00
  0.6300000      0.0000000E+00
  0.6400000      0.0000000E+00
  0.6500000      0.0000000E+00
  0.6600000      0.0000000E+00
  0.6700000      0.0000000E+00
  0.6800000      1.3113057E-38
  0.6900000      1.7606340E-38
  0.7000000      2.3528740E-38
  0.7100000      3.0404839E-38
  0.7200000      3.7888916E-38
  0.7300000      4.4678022E-38
  0.7400000      5.0643924E-38
  0.7500000      5.6456353E-38
  0.7600000      6.2140412E-38
  0.7700000      6.9373562E-38
  0.7800000      7.7397739E-38
  0.7900000      8.3363823E-38
  0.8000000      8.7222977E-38
  0.8100000      8.9622381E-38
  0.8200000      8.9614948E-38
  0.8300000      8.6791578E-38
  0.8400000      8.0815253E-38
  0.8500000      7.1387009E-38
  0.8600000      5.8755733E-38
  0.8700000      4.2782337E-38
  0.8800000      2.3266163E-38
  0.8900000      0.0000000E+00
  0.9000000     -2.6612964E-38
  0.9100000     -5.8341122E-38
  0.9200000     -9.3782208E-38
  0.9300000     -1.3380704E-37
  0.9400000     -1.7932314E-37
  0.9500000     -2.3061321E-37
  0.9600000     -2.9243054E-37
  0.9700000     -3.6518329E-37
  0.9800000     -4.4693148E-37
  0.9900000     -5.3616841E-37
   1.000000     -6.2678053E-37
   1.010000     -7.1809233E-37
   1.020000     -8.1303794E-37
   1.030000     -9.1134623E-37
   1.040000     -1.0103570E-36
   1.050000     -1.1004417E-36
   1.060000     -1.1871575E-36
   1.070000     -1.2770180E-36
   1.080000     -1.3550899E-36
   1.090000     -1.4183659E-36
   1.100000     -1.4721113E-36
   1.110000     -1.5084522E-36
   1.120000     -1.5305239E-36
   1.130000     -1.5457607E-36
   1.140000     -1.5481974E-36
   1.150000     -1.5350445E-36
   1.160000     -1.5050263E-36
   1.170000     -1.4367325E-36
   1.180000     -1.3147690E-36
   1.190000     -1.1518577E-36
   1.200000     -9.6011886E-37
   1.210000     -5.9649693E-37
   1.220000     -5.6746349E-38
   1.230000      5.4200516E-37
   1.240000      1.4285569E-36
   1.250000      2.5884027E-36
   1.260000      3.8270208E-36
   1.270000      5.0982225E-36
   1.280000      6.1303652E-36
   1.290000      6.9363896E-36
   1.300000      7.7388374E-36
   1.310000      8.5440531E-36
   1.320000      9.2225474E-36
   1.330000      9.7910464E-36
   1.340000      1.0147800E-35
   1.350000      1.0231847E-35
   1.360000      1.0215092E-35
   1.370000      1.0138916E-35
   1.380000      1.0029306E-35
   1.390000      9.8846677E-36
   1.400000      9.8619693E-36
   1.410000      9.7554566E-36
   1.420000      9.2915761E-36
   1.430000      8.4973699E-36
   1.440000      7.4789085E-36
   1.450000      6.3967283E-36
   1.460000      5.1066390E-36
   1.470000      3.4698833E-36
   1.480000      1.5595463E-36
   1.490000     -5.9364142E-37
   1.500000     -2.9686095E-36
   1.510000     -5.5321610E-36
   1.520000     -8.2475063E-36
   1.530000     -1.1024643E-35
   1.540000     -1.4016858E-35
   1.550000     -1.7447766E-35
   1.560000     -2.1339742E-35
   1.570000     -2.5391378E-35
   1.580000     -2.9405261E-35
   1.590000     -3.3554776E-35
   1.600000     -3.7837788E-35
   1.610000     -4.2163200E-35
   1.620000     -4.6587453E-35
   1.630000     -5.1035430E-35
   1.640000     -5.5339961E-35
   1.650000     -5.9327980E-35
   1.660000     -6.3170114E-35
   1.670000     -6.6875332E-35
   1.680000     -7.0108756E-35
   1.690000     -7.2958193E-35
   1.700000     -7.5342863E-35
   1.710000     -7.6881561E-35
   1.720000     -7.7677797E-35
   1.730000     -7.7775051E-35
   1.740000     -7.6880970E-35
   1.750000     -7.4760017E-35
   1.760000     -7.1399521E-35
   1.770000     -6.6720043E-35
   1.780000     -5.9830688E-35
   1.790000     -5.0158792E-35
   1.800000     -3.8010698E-35
   1.810000     -2.3027228E-35
   1.820000     -3.3868436E-36
   1.830000      2.1013728E-35
   1.840000      4.8337315E-35
   1.850000      7.7772135E-35
   1.860000      1.1204668E-34
   1.870000      1.4961972E-34
   1.880000      1.8525903E-34
   1.890000      2.2046305E-34
   1.900000      2.5440290E-34
   1.910000      2.8621586E-34
   1.920000      3.1473652E-34
   1.930000      3.3564361E-34
   1.940000      3.5561808E-34
   1.950000      3.7732253E-34
   1.960000      4.0111761E-34
   1.970000      4.2817749E-34
   1.980000      4.5415008E-34
   1.990000      4.8077921E-34
   2.000000      5.0920592E-34
   2.010000      5.3797904E-34
   2.020000      5.6463397E-34
   2.030000      5.9268439E-34
   2.040000      6.2027264E-34
   2.050000      6.4341101E-34
   2.060000      6.6092303E-34
   2.070000      6.7501739E-34
   2.080000      6.8814096E-34
   2.090000      6.9343854E-34
   2.100000      6.8776893E-34
   2.110000      6.7414156E-34
   2.120000      6.5244808E-34
   2.130000      6.1888267E-34
   2.140000      5.7397461E-34
   2.150000      5.1669111E-34
   2.160000      4.4478332E-34
   2.170000      3.5874577E-34
   2.180000      2.5658395E-34
   2.190000      1.3616890E-34
   2.200000     -1.1663877E-36
   2.210000     -1.5750223E-34
   2.220000     -3.3250419E-34
   2.230000     -5.2440415E-34
   2.240000     -7.3409705E-34
   2.250000     -9.6119677E-34
   2.260000     -1.2053216E-33
   2.270000     -1.4658195E-33
   2.280000     -1.7418066E-33
   2.290000     -2.0320503E-33
   2.300000     -2.3348837E-33
   2.310000     -2.6481085E-33
   2.320000     -2.9717719E-33
   2.330000     -3.3051492E-33
   2.340000     -3.6439127E-33
   2.350000     -3.9854350E-33
   2.360000     -4.3279120E-33
   2.370000     -4.6686723E-33
   2.380000     -5.0049861E-33
   2.390000     -5.3336568E-33
   2.400000     -5.6524946E-33
   2.410000     -5.9573161E-33
   2.420000     -6.2434531E-33
   2.430000     -6.5079988E-33
   2.440000     -6.7468057E-33
   2.450000     -6.9555301E-33
   2.460000     -7.1283381E-33
   2.470000     -7.2614716E-33
   2.480000     -7.3509818E-33
   2.490000     -7.3902338E-33
   2.500000     -7.3709843E-33
   2.510000     -7.2899671E-33
   2.520000     -7.1439604E-33
   2.530000     -6.9230475E-33
   2.540000     -6.6223267E-33
   2.550000     -6.2374309E-33
   2.560000     -5.7610383E-33
   2.570000     -5.1877637E-33
   2.580000     -4.5127948E-33
   2.590000     -3.7312784E-33
   2.600000     -2.8377418E-33
   2.610000     -1.8299187E-33
   2.620000     -7.0625657E-34
   2.630000      5.3668843E-34
   2.640000      1.9001374E-33
   2.650000      3.3844892E-33
   2.660000      4.9891363E-33
   2.670000      6.7124335E-33
   2.680000      8.5516193E-33
   2.690000      1.0502772E-32
   2.700000      1.2560749E-32
   2.710000      1.4719127E-32
   2.720000      1.6970209E-32
   2.730000      1.9304939E-32
   2.740000      2.1712571E-32
   2.750000      2.4181532E-32
   2.760000      2.6698856E-32
   2.770000      2.9249535E-32
   2.780000      3.1817382E-32
   2.790000      3.4384747E-32
   2.800000      3.6932498E-32
   2.810000      3.9440004E-32
   2.820000      4.1885097E-32
   2.830000      4.4244203E-32
   2.840000      4.6492283E-32
   2.850000      4.8602692E-32
   2.860000      5.0547462E-32
   2.870000      5.2297250E-32
   2.880000      5.3821378E-32
   2.890000      5.5088026E-32
   2.900000      5.6064321E-32
   2.910000      5.6716562E-32
   2.920000      5.7010353E-32
   2.930000      5.6910936E-32
   2.940000      5.6383439E-32
   2.950000      5.5392250E-32
   2.960000      5.3904057E-32
   2.970000      5.1886415E-32
   2.980000      4.9306357E-32
   2.990000      4.6133413E-32
   3.000000      4.2339055E-32
   3.010000      3.7897312E-32
   3.020000      3.2785014E-32
   3.030000      2.6982062E-32
   3.040000      2.0472020E-32
   3.050000      1.3242417E-32
   3.060000      5.2851192E-33
   3.070000     -3.4033111E-33
   3.080000     -1.2821262E-32
   3.090000     -2.2961725E-32
   3.100000     -3.3811958E-32
   3.110000     -4.5353161E-32
   3.120000     -5.7560138E-32
   3.130000     -7.0401003E-32
   3.140000     -8.3836833E-32
   3.150000     -9.7821401E-32
   3.160000     -1.1230086E-31
   3.170000     -1.2721337E-31
   3.180000     -1.4248888E-31
   3.190000     -1.5804881E-31
   3.200000     -1.7380586E-31
   3.210000     -1.8966367E-31
   3.220000     -2.0551671E-31
   3.230000     -2.2125000E-31
   3.240000     -2.3673908E-31
   3.250000     -2.5184995E-31
   3.260000     -2.6643901E-31
   3.270000     -2.8035324E-31
   3.280000     -2.9343045E-31
   3.290000     -3.0549951E-31
   3.300000     -3.1638087E-31
   3.310000     -3.2588717E-31
   3.320000     -3.3382392E-31
   3.330000     -3.3999044E-31
   3.340000     -3.4418089E-31
   3.350000     -3.4618534E-31
   3.360000     -3.4579127E-31
   3.370000     -3.4278478E-31
   3.380000     -3.3695233E-31
   3.390000     -3.2808226E-31
   3.400000     -3.1596656E-31
   3.410000     -3.0040271E-31
   3.420000     -2.8119541E-31
   3.430000     -2.5815866E-31
   3.440000     -2.3111735E-31
   3.450000     -1.9990946E-31
   3.460000     -1.6438788E-31
   3.470000     -1.2442233E-31
   3.480000     -7.9901413E-32
   3.490000     -3.0734478E-32
   3.500000      2.3146424E-32
   3.510000      8.1784385E-32
   3.520000      1.4519571E-31
   3.530000      2.1336774E-31
   3.540000      2.8625669E-31
   3.550000      3.6378539E-31
   3.560000      4.4584103E-31
   3.570000      5.3227268E-31
   3.580000      6.2288877E-31
   3.590000      7.1745484E-31
   3.600000      8.1569076E-31
   3.610000      9.1726805E-31
   3.620000      1.0218080E-30
   3.630000      1.1288779E-30
   3.640000      1.2379906E-30
   3.650000      1.3486004E-30
   3.660000      1.4601021E-30
   3.670000      1.5718294E-30
   3.680000      1.6830529E-30
   3.690000      1.7929795E-30
   3.700000      1.9007522E-30
   3.710000      2.0054490E-30
   3.720000      2.1060853E-30
   3.730000      2.2016127E-30
   3.740000      2.2909221E-30
   3.750000      2.3728454E-30
   3.760000      2.4461590E-30
   3.770000      2.5095866E-30
   3.780000      2.5618034E-30
   3.790000      2.6014401E-30
   3.800000      2.6270886E-30
   3.810000      2.6373079E-30
   3.820000      2.6306281E-30
   3.830000      2.6055592E-30
   3.840000      2.5605957E-30
   3.850000      2.4942250E-30
   3.860000      2.4049335E-30
   3.870000      2.2912149E-30
   3.880000      2.1515790E-30
   3.890000      1.9845587E-30
   3.900000      1.7887200E-30
   3.910000      1.5626706E-30
   3.920000      1.3050701E-30
   3.930000      1.0146408E-30
   3.940000      6.9017891E-31
   3.950000      3.3056613E-31
   3.960000     -6.5217273E-32
   3.970000     -4.9807830E-31
   3.980000     -9.6879712E-31
   3.990000     -1.4780115E-30
   4.000000     -2.0262007E-30
   4.010000     -2.6136677E-30
   4.020000     -3.2405216E-30
   4.030000     -3.9066597E-30
   4.040000     -4.6117465E-30
   4.050000     -5.3551972E-30
   4.060000     -6.1361565E-30
   4.070000     -6.9534790E-30
   4.080000     -7.8057106E-30
   4.090000     -8.6910703E-30
   4.100000     -9.6074331E-30
   4.110000     -1.0552309E-29
   4.120000     -1.1522831E-29
   4.130000     -1.2515739E-29
   4.140000     -1.3527366E-29
   4.150000     -1.4553628E-29
   4.160000     -1.5590009E-29
   4.170000     -1.6631558E-29
   4.180000     -1.7672876E-29
   4.190000     -1.8708119E-29
   4.200000     -1.9730982E-29
   4.210000     -2.0734705E-29
   4.220000     -2.1712071E-29
   4.230000     -2.2655397E-29
   4.240000     -2.3556549E-29
   4.250000     -2.4406939E-29
   4.260000     -2.5197524E-29
   4.270000     -2.5918822E-29
   4.280000     -2.6560909E-29
   4.290000     -2.7113443E-29
   4.300000     -2.7565661E-29
   4.310000     -2.7906394E-29
   4.320000     -2.8124102E-29
   4.330000     -2.8206881E-29
   4.340000     -2.8142483E-29
   4.350000     -2.7918356E-29
   4.360000     -2.7521671E-29
   4.370000     -2.6939366E-29
   4.380000     -2.6158176E-29
   4.390000     -2.5164700E-29
   4.400000     -2.3945441E-29
   4.410000     -2.2486877E-29
   4.420000     -2.0775522E-29
   4.430000     -1.8798000E-29
   4.440000     -1.6541128E-29
   4.450000     -1.3991998E-29
   4.460000     -1.1138066E-29
   4.470000     -7.9672442E-30
   4.480000     -4.4680074E-30
   4.490000     -6.2949425E-31
   4.500000      3.5583907E-30
   4.510000      8.1048586E-30
   4.520000      1.3018122E-29
   4.530000      1.8305295E-29
   4.540000      2.3972255E-29
   4.550000      3.0023533E-29
   4.560000      3.6462187E-29
   4.570000      4.3289696E-29
   4.580000      5.0505810E-29
   4.590000      5.8108436E-29
   4.600000      6.6093510E-29
   4.610000      7.4454875E-29
   4.620000      8.3184134E-29
   4.630000      9.2270509E-29
   4.640000      1.0170073E-28
   4.650000      1.1145886E-28
   4.660000      1.2152619E-28
   4.670000      1.3188105E-28
   4.680000      1.4249874E-28
   4.690000      1.5335128E-28
   4.700000      1.6440735E-28
   4.710000      1.7563208E-28
   4.720000      1.8698697E-28
   4.730000      1.9842974E-28
   4.740000      2.0991416E-28
   4.750000      2.2138998E-28
   4.760000      2.3280275E-28
   4.770000      2.4409381E-28
   4.780000      2.5520007E-28
   4.790000      2.6605408E-28
   4.800000      2.7658391E-28
   4.810000      2.8671309E-28
   4.820000      2.9636073E-28
   4.830000      3.0544125E-28
   4.840000      3.1386473E-28
   4.850000      3.2153672E-28
   4.860000      3.2835844E-28
   4.870000      3.3422694E-28
   4.880000      3.3903500E-28
   4.890000      3.4267149E-28
   4.900000      3.4502149E-28
   4.910000      3.4596652E-28
   4.920000      3.4538472E-28
   4.930000      3.4315105E-28
   4.940000      3.3913775E-28
   4.950000      3.3321455E-28
   4.960000      3.2524891E-28
   4.970000      3.1510655E-28
   4.980000      3.0265183E-28
   4.990000      2.8774804E-28
   5.000000      2.7025805E-28
   5.010000      2.5004483E-28
   5.020000      2.2697190E-28
   5.030000      2.0090394E-28
   5.040000      1.7170750E-28
   5.050000      1.3925168E-28
   5.060000      1.0340887E-28
   5.070000      6.4055611E-29
   5.080000      2.1073342E-29
   5.090000     -2.5650576E-29
   5.100000     -7.6221952E-29
   5.110000     -1.3073872E-28
   5.120000     -1.8928983E-28
   5.130000     -2.5195420E-28
   5.140000     -3.1879954E-28
   5.150000     -3.8988102E-28
   5.160000     -4.6524011E-28
   5.170000     -5.4490331E-28
   5.180000     -6.2888069E-28
   5.190000     -7.1716470E-28
   5.200000     -8.0972865E-28
   5.210000     -9.0652540E-28
   5.220000     -1.0074859E-27
   5.230000     -1.1125180E-27
   5.240000     -1.2215045E-27
   5.250000     -1.3343026E-27
   5.260000     -1.4507415E-27
   5.270000     -1.5706220E-27
   5.280000     -1.6937138E-27
   5.290000     -1.8197557E-27
   5.300000     -1.9484531E-27
   5.310000     -2.0794768E-27
   5.320000     -2.2124621E-27
   5.330000     -2.3470074E-27
   5.340000     -2.4826726E-27
   5.350000     -2.6189785E-27
   5.360000     -2.7554051E-27
   5.370000     -2.8913903E-27
   5.380000     -3.0263299E-27
   5.390000     -3.1595753E-27
   5.400000     -3.2904340E-27
   5.410000     -3.4181682E-27
   5.420000     -3.5419936E-27
   5.430000     -3.6610803E-27
   5.440000     -3.7745519E-27
   5.450000     -3.8814842E-27
   5.460000     -3.9809072E-27
   5.470000     -4.0718042E-27
   5.480000     -4.1531127E-27
   5.490000     -4.2237261E-27
   5.500000     -4.2824924E-27
   5.510000     -4.3282179E-27
   5.520000     -4.3596671E-27
   5.530000     -4.3755661E-27
   5.540000     -4.3746031E-27
   5.550000     -4.3554332E-27
   5.560000     -4.3166800E-27
   5.570000     -4.2569380E-27
   5.580000     -4.1747783E-27
   5.590000     -4.0687500E-27
   5.600000     -3.9373874E-27
   5.610000     -3.7792119E-27
   5.620000     -3.5927395E-27
   5.630000     -3.3764849E-27
   5.640000     -3.1289671E-27
   5.650000     -2.8487158E-27
   5.660000     -2.5342792E-27
   5.670000     -2.1842295E-27
   5.680000     -1.7971705E-27
   5.690000     -1.3717468E-27
   5.700000     -9.0665059E-28
   5.710000     -4.0063216E-28
   5.720000      1.4749213E-28
   5.730000      7.3883088E-28
   5.740000      1.3744061E-27
   5.750000      2.0551425E-27
   5.760000      2.7818575E-27
   5.770000      3.5552490E-27
   5.780000      4.3758835E-27
   5.790000      5.2441824E-27
   5.800000      6.1604128E-27
   5.810000      7.1246712E-27
   5.820000      8.1368707E-27
   5.830000      9.1967276E-27
   5.840000      1.0303748E-26
   5.850000      1.1457215E-26
   5.860000      1.2656169E-26
   5.870000      1.3899398E-26
   5.880000      1.5185423E-26
   5.890000      1.6512484E-26
   5.900000      1.7878523E-26
   5.910000      1.9281170E-26
   5.920000      2.0717737E-26
   5.930000      2.2185189E-26
   5.940000      2.3680151E-26
   5.950000      2.5198877E-26
   5.960000      2.6737245E-26
   5.970000      2.8290752E-26
   5.980000      2.9854493E-26
   5.990000      3.1423156E-26
   6.000000      3.2991010E-26
   6.010000      3.4551895E-26
   6.020000      3.6099230E-26
   6.030000      3.7625978E-26
   6.040000      3.9124669E-26
   6.050000      4.0587374E-26
   6.060000      4.2005718E-26
   6.070000      4.3370876E-26
   6.080000      4.4673563E-26
   6.090000      4.5904050E-26
   6.100000      4.7052166E-26
   6.110000      4.8107286E-26
   6.120000      4.9058372E-26
   6.130000      4.9893945E-26
   6.140000      5.0602136E-26
   6.150000      5.1170674E-26
   6.160000      5.1586921E-26
   6.170000      5.1837887E-26
   6.180000      5.1910246E-26
   6.190000      5.1790376E-26
   6.200000      5.1464398E-26
   6.210000      5.0918173E-26
   6.220000      5.0137383E-26
   6.230000      4.9107550E-26
   6.240000      4.7814077E-26
   6.250000      4.6242296E-26
   6.260000      4.4377537E-26
   6.270000      4.2205165E-26
   6.280000      3.9710651E-26
   6.290000      3.6879623E-26
   6.300000      3.3697932E-26
   6.310000      3.0151743E-26
   6.320000      2.6227576E-26
   6.330000      2.1912413E-26
   6.340000      1.7193752E-26
   6.350000      1.2059707E-26
   6.360000      6.4991007E-27
   6.370000      5.0154129E-28
   6.380000     -5.9424776E-27
   6.390000     -1.2841480E-26
   6.400000     -2.0202900E-26
   6.410000     -2.8032995E-26
   6.420000     -3.6336711E-26
   6.430000     -4.5117605E-26
   6.440000     -5.4377711E-26
   6.450000     -6.4117443E-26
   6.460000     -7.4335479E-26
   6.470000     -8.5028611E-26
   6.480000     -9.6191665E-26
   6.490000     -1.0781737E-25
   6.500000     -1.1989622E-25
   6.510000     -1.3241637E-25
   6.520000     -1.4536353E-25
   6.530000     -1.5872084E-25
   6.540000     -1.7246870E-25
   6.550000     -1.8658472E-25
   6.560000     -2.0104361E-25
   6.570000     -2.1581701E-25
   6.580000     -2.3087346E-25
   6.590000     -2.4617824E-25
   6.600000     -2.6169331E-25
   6.610000     -2.7737720E-25
   6.620000     -2.9318494E-25
   6.630000     -3.0906799E-25
   6.640000     -3.2497411E-25
   6.650000     -3.4084747E-25
   6.660000     -3.5662839E-25
   6.670000     -3.7225340E-25
   6.680000     -3.8765532E-25
   6.690000     -4.0276302E-25
   6.700000     -4.1750168E-25
   6.710000     -4.3179253E-25
   6.720000     -4.4555308E-25
   6.730000     -4.5869713E-25
   6.740000     -4.7113480E-25
   6.750000     -4.8277247E-25
   6.760000     -4.9351316E-25
   6.770000     -5.0325638E-25
   6.780000     -5.1189845E-25
   6.790000     -5.1933248E-25
   6.800000     -5.2544871E-25
   6.810000     -5.3013455E-25
   6.820000     -5.3327505E-25
   6.830000     -5.3475273E-25
   6.840000     -5.3444828E-25
   6.850000     -5.3224056E-25
   6.860000     -5.2800704E-25
   6.870000     -5.2162417E-25
   6.880000     -5.1296770E-25
   6.890000     -5.0191300E-25
   6.900000     -4.8833557E-25
   6.910000     -4.7211156E-25
   6.920000     -4.5311801E-25
   6.930000     -4.3123357E-25
   6.940000     -4.0633910E-25
   6.950000     -3.7831799E-25
   6.960000     -3.4705682E-25
   6.970000     -3.1244611E-25
   6.980000     -2.7438091E-25
   6.990000     -2.3276132E-25
   7.000000     -1.8749327E-25
   7.010000     -1.3848929E-25
   7.020000     -8.5669105E-26
   7.030000     -2.8960511E-26
   7.040000      3.1699975E-26
   7.050000      9.6366237E-26
   7.060000      1.6508177E-25