  -2.600000      0.0000000E+00
  -2.590000      0.0000000E+00
  -2.580000      0.0000000E+00
  -2.570000      0.0000000E+00
  -2.560000      0.0000000E+00
  -2.550000      0.0000000E+00
  -2.540000      0.0000000E+00
  -2.530000      0.0000000E+00
  -2.520000      0.0000000E+00
  -2.510000      0.0000000E+00
  -2.500000      0.0000000E+00
  -2.490000      0.0000000E+00
  -2.480000      0.0000000E+00
  -2.470000      0.0000000E+00
  -2.460000      0.0000000E+00
  -2.450000      0.0000000E+00
  -2.440000      0.0000000E+00
  -2.430000      0.0000000E+00
  -2.420000      0.0000000E+00
  -2.410000      0.0000000E+00
  -2.400000      0.0000000E+00
  -2.390000      0.0000000E+00
  -2.380000      0.0000000E+00
  -2.370000      0.0000000E+00
  -2.360000      0.0000000E+00
  -2.350000      0.0000000E+00
  -2.340000      0.0000000E+00
  -2.330000      0.0000000E+00
  -2.320000      0.0000000E+00
  -2.310000      0.0000000E+00
  -2.300000      0.0000000E+00
  -2.290000      0.0000000E+00
  -2.280000      0.0000000E+00
  -2.270000      0.0000000E+00
  -2.260000      0.0000000E+00
  -2.250000      0.0000000E+00
  -2.240000      0.0000000E+00
  -2.230000      0.0000000E+00
  -2.220000      0.0000000E+00
  -2.210000      0.0000000E+00
  -2.200000      0.0000000E+00
  -2.190000      0.0000000E+00
  -2.180000      0.0000000E+00
  -2.170000      0.0000000E+00
  -2.160000      0.0000000E+00
  -2.150000      0.0000000E+00
  -2.140000      0.0000000E+00
  -2.130000      0.0000000E+00
  -2.120000      0.0000000E+00
  -2.110000      0.0000000E+00
  -2.100000      0.0000000E+00
  -2.090000      0.0000000E+00
  -2.080000      0.0000000E+00
  -2.070000      0.0000000E+00
  -2.060000      0.0000000E+00
  -2.050000      0.0000000E+00
  -2.040000      0.0000000E+00
  -2.030000      0.0000000E+00
  -2.020000      0.0000000E+00
  -2.010000      0.0000000E+00
  -2.000000      0.0000000E+00
  -1.990000      0.0000000E+00
  -1.980000      0.0000000E+00
  -1.970000      0.0000000E+00
  -1.960000      0.0000000E+00
  -1.950000      0.0000000E+00
  -1.940000      0.0000000E+00
  -1.930000      0.0000000E+00
  -1.920000      0.0000000E+00
  -1.910000      0.0000000E+00
  -1.900000      0.0000000E+00
  -1.890000      0.0000000E+00
  -1.880000      0.0000000E+00
  -1.870000      0.0000000E+00
  -1.860000      0.0000000E+00
  -1.850000      0.0000000E+00
  -1.840000      0.0000000E+00
  -1.830000      0.0000000E+00
  -1.820000      0.0000000E+00
  -1.810000      0.0000000E+00
  -1.800000      0.0000000E+00
  -1.790000      0.0000000E+00
  -1.780000      0.0000000E+00
  -1.770000      0.0000000E+00
  -1.760000      0.0000000E+00
  -1.750000      0.0000000E+00
  -1.740000      0.0000000E+00
  -1.730000      0.0000000E+00
  -1.720000      0.0000000E+00
  -1.710000      0.0000000E+00
  -1.700000      0.0000000E+00
  -1.690000      0.0000000E+00
  -1.680000      0.0000000E+00
  -1.670000      0.0000000E+00
  -1.660000      0.0000000E+00
  -1.650000      0.0000000E+00
  -1.640000      0.0000000E+00
  -1.630000      0.0000000E+00
  -1.620000      0.0000000E+00
  -1.610000      0.0000000E+00
  -1.600000      0.0000000E+00
  -1.590000      0.0000000E+00
  -1.580000      0.0000000E+00
  -1.570000      0.0000000E+00
  -1.560000      0.0000000E+00
  -1.550000      0.0000000E+00
  -1.540000      0.0000000E+00
  -1.530000      0.0000000E+00
  -1.520000      0.0000000E+00
  -1.510000      0.0000000E+00
  -1.500000      0.0000000E+00
  -1.490000      0.0000000E+00
  -1.480000      0.0000000E+00
  -1.470000      0.0000000E+00
  -1.460000      0.0000000E+00
  -1.450000      0.0000000E+00
  -1.440000      0.0000000E+00
  -1.430000      0.0000000E+00
  -1.420000      0.0000000E+00
  -1.410000      0.0000000E+00
  -1.400000      0.0000000E+00
  -1.390000      0.0000000E+00
  -1.380000      0.0000000E+00
  -1.370000      0.0000000E+00
  -1.360000      0.0000000E+00
  -1.350000      0.0000000E+00
  -1.340000      0.0000000E+00
  -1.330000      0.0000000E+00
  -1.320000      0.0000000E+00
  -1.310000      0.0000000E+00
  -1.300000      0.0000000E+00
  -1.290000      0.0000000E+00
  -1.280000      0.0000000E+00
  -1.270000      0.0000000E+00
  -1.260000      0.0000000E+00
  -1.250000      0.0000000E+00
  -1.240000      0.0000000E+00
  -1.230000      0.0000000E+00
  -1.220000      0.0000000E+00
  -1.210000      0.0000000E+00
  -1.200000      0.0000000E+00
  -1.190000      0.0000000E+00
  -1.180000      0.0000000E+00
  -1.170000      0.0000000E+00
  -1.160000      0.0000000E+00
  -1.150000      0.0000000E+00
  -1.140000      0.0000000E+00
  -1.130000      0.0000000E+00
  -1.120000      0.0000000E+00
  -1.110000      0.0000000E+00
  -1.100000      0.0000000E+00
  -1.090000      0.0000000E+00
  -1.080000      0.0000000E+00
  -1.070000      0.0000000E+00
  -1.060000      0.0000000E+00
  -1.050000      0.0000000E+00
  -1.040000      0.0000000E+00
  -1.030000      0.0000000E+00
  -1.020000      0.0000000E+00
  -1.010000      0.0000000E+00
  -1.000000      0.0000000E+00
 -0.9900000      0.0000000E+00
 -0.9800000      0.0000000E+00
 -0.9700000      0.0000000E+00
 -0.9600000      0.0000000E+00
 -0.9500000      0.0000000E+00
 -0.9400000      0.0000000E+00
 -0.9300000      0.0000000E+00
 -0.9200000      0.0000000E+00
 -0.9100000      0.0000000E+00
 -0.9000000      0.0000000E+00
 -0.8900000      0.0000000E+00
 -0.8800000      0.0000000E+00
 -0.8700000      0.0000000E+00
 -0.8600000      0.0000000E+00
 -0.8500000      0.0000000E+00
 -0.8400000      0.0000000E+00
 -0.8300000      0.0000000E+00
 -0.8200000      0.0000000E+00
 -0.8100000      0.0000000E+00
 -0.8000000      0.0000000E+00
 -0.7900000      0.0000000E+00
 -0.7800000      0.0000000E+00
 -0.7700000      0.0000000E+00
 -0.7600000      0.0000000E+00
 -0.7500000      0.0000000E+00
 -0.7400000      0.0000000E+00
 -0.7300000      0.0000000E+00
 -0.7200000      0.0000000E+00
 -0.7100000      0.0000000E+00
 -0.7000000      0.0000000E+00
 -0.6900000      0.0000000E+00
 -0.6800000      0.0000000E+00
 -0.6700000      0.0000000E+00
 -0.6600000      0.0000000E+00
 -0.6500000      0.0000000E+00
 -0.6400000      0.0000000E+00
 -0.6300000      0.0000000E+00
 -0.6200000      0.0000000E+00
 -0.6100000      0.0000000E+00
 -0.6000000      0.0000000E+00
 -0.5900000      0.0000000E+00
 -0.5800000      0.0000000E+00
 -0.5700000      0.0000000E+00
 -0.5600000      0.0000000E+00
 -0.5500000      0.0000000E+00
 -0.5400000      0.0000000E+00
 -0.5300000      0.0000000E+00
 -0.5200000      0.0000000E+00
 -0.5100000      0.0000000E+00
 -0.5000000      0.0000000E+00
 -0.4900000      0.0000000E+00
 -0.4800000      0.0000000E+00
 -0.4700000      0.0000000E+00
 -0.4600000      0.0000000E+00
 -0.4500000      0.0000000E+00
 -0.4400000      0.0000000E+00
 -0.4300000      0.0000000E+00
 -0.4200000      0.0000000E+00
 -0.4100000      0.0000000E+00
 -0.4000000      0.0000000E+00
 -0.3900000      0.0000000E+00
 -0.3800000      0.0000000E+00
 -0.3700000      0.0000000E+00
 -0.3600000      0.0000000E+00
 -0.3500000      0.0000000E+00
 -0.3400000      0.0000000E+00
 -0.3300000      0.0000000E+00
 -0.3200000      0.0000000E+00
 -0.3100000      0.0000000E+00
 -0.3000000      0.0000000E+00
 -0.2900000      0.0000000E+00
 -0.2800000      0.0000000E+00
 -0.2700000      0.0000000E+00
 -0.2600000      0.0000000E+00
 -0.2500000      0.0000000E+00
 -0.2400000      0.0000000E+00
 -0.2300000      0.0000000E+00
 -0.2200000      0.0000000E+00
 -0.2100000      0.0000000E+00
 -0.2000000      0.0000000E+00
 -0.1900000      0.0000000E+00
 -0.1800000      0.0000000E+00
 -0.1700000      0.0000000E+00
 -0.1600000      0.0000000E+00
 -0.1500000      0.0000000E+00
 -0.1400000      0.0000000E+00
 -0.1300000      0.0000000E+00
 -0.1200000      0.0000000E+00
 -0.1100000      0.0000000E+00
 -0.1000000      0.0000000E+00
 -9.0000004E-02  0.0000000E+00
 -7.9999998E-02  0.0000000E+00
 -7.0000000E-02  0.0000000E+00
 -5.9999999E-02  0.0000000E+00
 -5.0000001E-02  0.0000000E+00
 -3.9999999E-02  0.0000000E+00
 -2.9999999E-02  0.0000000E+00
 -2.0000000E-02  0.0000000E+00
 -9.9999998E-03  0.0000000E+00
 -3.4694470E-17  0.0000000E+00
  9.9999998E-03  0.0000000E+00
  2.0000000E-02  0.0000000E+00
  2.9999999E-02  0.0000000E+00
  3.9999999E-02  0.0000000E+00
  5.0000001E-02  0.0000000E+00
  5.9999999E-02  0.0000000E+00
  7.0000000E-02  0.0000000E+00
  7.9999998E-02  0.0000000E+00
  9.0000004E-02  0.0000000E+00
  0.1000000      0.0000000E+00
  0.1100000      0.0000000E+00
  0.1200000      0.0000000E+00
  0.1300000      0.0000000E+00
  0.1400000      0.0000000E+00
  0.1500000      0.0000000E+00
  0.1600000      0.0000000E+00
  0.1700000      0.0000000E+00
  0.1800000      0.0000000E+00
  0.1900000      0.0000000E+00
  0.2000000      0.0000000E+00
  0.2100000      0.0000000E+00
  0.2200000      0.0000000E+00
  0.2300000      0.0000000E+00
  0.2400000      0.0000000E+00
  0.2500000      0.0000000E+00
  0.2600000      0.0000000E+00
  0.2700000      0.0000000E+00
  0.2800000      0.0000000E+00
  0.2900000      0.0000000E+00
  0.3000000      0.0000000E+00
  0.3100000      0.0000000E+00
  0.3200000      0.0000000E+00
  0.3300000      0.0000000E+00
  0.3400000      0.0000000E+00
  0.3500000      0.0000000E+00
  0.3600000      0.0000000E+00
  0.3700000      0.0000000E+00
  0.3800000      0.0000000E+00
  0.3900000      0.0000000E+00
  0.4000000      0.0000000E+00
  0.4100000      0.0000000E+00
  0.4200000      0.0000000E+00
  0.4300000      0.0000000E+00
  0.4400000      0.0000000E+00
  0.4500000      0.0000000E+00
  0.4600000      0.0000000E+00
  0.4700000      0.0000000E+00
  0.4800000      0.0000000E+00
  0.4900000      0.0000000E+00
  0.5000000      0.0000000E+00
  0.5100000      0.0000000E+00
  0.5200000      0.0000000E+00
  0.5300000      0.0000000E+00
  0.5400000      0.0000000E+00
  0.5500000      0.0000000E+00
  0.5600000      0.0000000E+00
  0.5700000      0.0000000E+00
  0.5800000      0.0000000E+00
  0.5900000      0.0000000E+00
  0.6000000      0.0000000E+00
  0.6100000      0.0000000E+00
  0.6200000      0.0000000E+00
  0.6300000      0.0000000E+00
  0.6400000      0.0000000E+00
  0.6500000      0.0000000E+00
  0.6600000      0.0000000E+00
  0.6700000      0.0000000E+00
  0.6800000      0.0000000E+00
  0.6900000      0.0000000E+00
  0.7000000      0.0000000E+00
  0.7100000      0.0000000E+00
  0.7200000      0.0000000E+00
  0.7300000      0.0000000E+00
  0.7400000      0.0000000E+00
  0.7500000      0.0000000E+00
  0.7600000      0.0000000E+00
  0.7700000      0.0000000E+00
  0.7800000      0.0000000E+00
  0.7900000      0.0000000E+00
  0.8000000      0.0000000E+00
  0.8100000      0.0000000E+00
  0.8200000      0.0000000E+00
  0.8300000      0.0000000E+00
  0.8400000      0.0000000E+00
  0.8500000      0.0000000E+00
  0.8600000      0.0000000E+00
  0.8700000      0.0000000E+00
  0.8800000      0.0000000E+00
  0.8900000      0.0000000E+00
  0.9000000      0.0000000E+00
  0.9100000      0.0000000E+00
  0.9200000      0.0000000E+00
  0.9300000      0.0000000E+00
  0.9400000      0.0000000E+00
  0.9500000      0.0000000E+00
  0.9600000      0.0000000E+00
  0.9700000      0.0000000E+00
  0.9800000      0.0000000E+00
  0.9900000      0.0000000E+00
   1.000000      0.0000000E+00
   1.010000      0.0000000E+00
   1.020000      0.0000000E+00
   1.030000      0.0000000E+00
   1.040000      0.0000000E+00
   1.050000      0.0000000E+00
   1.060000      0.0000000E+00
   1.070000      0.0000000E+00
   1.080000      0.0000000E+00
   1.090000      0.0000000E+00
   1.100000      0.0000000E+00
   1.110000      0.0000000E+00
   1.120000      0.0000000E+00
   1.130000      0.0000000E+00
   1.140000      0.0000000E+00
   1.150000      0.0000000E+00
   1.160000      0.0000000E+00
   1.170000      0.0000000E+00
   1.180000      0.0000000E+00
   1.190000      0.0000000E+00
   1.200000      0.0000000E+00
   1.210000      0.0000000E+00
   1.220000      0.0000000E+00
   1.230000      0.0000000E+00
   1.240000      0.0000000E+00
   1.250000      0.0000000E+00
   1.260000      0.0000000E+00
   1.270000      0.0000000E+00
   1.280000      0.0000000E+00
   1.290000      0.0000000E+00
   1.300000      0.0000000E+00
   1.310000      0.0000000E+00
   1.320000      0.0000000E+00
   1.330000      0.0000000E+00
   1.340000      0.0000000E+00
   1.350000      0.0000000E+00
   1.360000      0.0000000E+00
   1.370000      0.0000000E+00
   1.380000      0.0000000E+00
   1.390000      0.0000000E+00
   1.400000      0.0000000E+00
   1.410000      0.0000000E+00
   1.420000      0.0000000E+00
   1.430000      0.0000000E+00
   1.440000      0.0000000E+00
   1.450000      0.0000000E+00
   1.460000      0.0000000E+00
   1.470000      0.0000000E+00
   1.480000      0.0000000E+00
   1.490000      0.0000000E+00
   1.500000      0.0000000E+00
   1.510000      0.0000000E+00
   1.520000      0.0000000E+00
   1.530000      0.0000000E+00
   1.540000      0.0000000E+00
   1.550000      0.0000000E+00
   1.560000      0.0000000E+00
   1.570000      0.0000000E+00
   1.580000      0.0000000E+00
   1.590000      0.0000000E+00
   1.600000      0.0000000E+00
   1.610000      0.0000000E+00
   1.620000      0.0000000E+00
   1.630000      0.0000000E+00
   1.640000      0.0000000E+00
   1.650000      0.0000000E+00
   1.660000      0.0000000E+00
   1.670000      0.0000000E+00
   1.680000      0.0000000E+00
   1.690000      0.0000000E+00
   1.700000      0.0000000E+00
   1.710000      0.0000000E+00
   1.720000      0.0000000E+00
   1.730000      0.0000000E+00
   1.740000      0.0000000E+00
   1.750000      0.0000000E+00
   1.760000      0.0000000E+00
   1.770000      0.0000000E+00
   1.780000      0.0000000E+00
   1.790000      0.0000000E+00
   1.800000      0.0000000E+00
   1.810000      0.0000000E+00
   1.820000      0.0000000E+00
   1.830000      0.0000000E+00
   1.840000      0.0000000E+00
   1.850000      0.0000000E+00
   1.860000      0.0000000E+00
   1.870000      0.0000000E+00
   1.880000      0.0000000E+00
   1.890000      0.0000000E+00
   1.900000      0.0000000E+00
   1.910000      0.0000000E+00
   1.920000      0.0000000E+00
   1.930000      0.0000000E+00
   1.940000      0.0000000E+00
   1.950000      0.0000000E+00
   1.960000      0.0000000E+00
   1.970000      0.0000000E+00
   1.980000      0.0000000E+00
   1.990000      0.0000000E+00
   2.000000      0.0000000E+00
   2.010000      0.0000000E+00
   2.020000      0.0000000E+00
   2.030000      0.0000000E+00
   2.040000      0.0000000E+00
   2.050000      0.0000000E+00
   2.060000      0.0000000E+00
   2.070000      0.0000000E+00
   2.080000      0.0000000E+00
   2.090000      0.0000000E+00
   2.100000      0.0000000E+00
   2.110000      0.0000000E+00
   2.120000      0.0000000E+00
   2.130000      0.0000000E+00
   2.140000      0.0000000E+00
   2.150000      0.0000000E+00
   2.160000      0.0000000E+00
   2.170000      0.0000000E+00
   2.180000      0.0000000E+00
   2.190000      0.0000000E+00
   2.200000      0.0000000E+00
   2.210000      0.0000000E+00
   2.220000      0.0000000E+00
   2.230000      0.0000000E+00
   2.240000      0.0000000E+00
   2.250000      0.0000000E+00
   2.260000      0.0000000E+00
   2.270000      0.0000000E+00
   2.280000      0.0000000E+00
   2.290000      0.0000000E+00
   2.300000      0.0000000E+00
   2.310000      0.0000000E+00
   2.320000      0.0000000E+00
   2.330000      0.0000000E+00
   2.340000      0.0000000E+00
   2.350000      0.0000000E+00
   2.360000      0.0000000E+00
   2.370000      0.0000000E+00
   2.380000      0.0000000E+00
   2.390000      0.0000000E+00
   2.400000      0.0000000E+00
   2.410000      0.0000000E+00
   2.420000      0.0000000E+00
   2.430000      0.0000000E+00
   2.440000      0.0000000E+00
   2.450000      0.0000000E+00
   2.460000      0.0000000E+00
   2.470000      0.0000000E+00
   2.480000      0.0000000E+00
   2.490000      0.0000000E+00
   2.500000      0.0000000E+00
   2.510000      0.0000000E+00
   2.520000      0.0000000E+00
   2.530000      0.0000000E+00
   2.540000      0.0000000E+00
   2.550000      0.0000000E+00
   2.560000      0.0000000E+00
   2.570000      0.0000000E+00
   2.580000      0.0000000E+00
   2.590000      0.0000000E+00
   2.600000      0.0000000E+00
   2.610000      0.0000000E+00
   2.620000      0.0000000E+00
   2.630000      0.0000000E+00
   2.640000      0.0000000E+00
   2.650000      0.0000000E+00
   2.660000      0.0000000E+00
   2.670000      0.0000000E+00
   2.680000      0.0000000E+00
   2.690000      0.0000000E+00
   2.700000      0.0000000E+00
   2.710000      0.0000000E+00
   2.720000      0.0000000E+00
   2.730000      0.0000000E+00
   2.740000      0.0000000E+00
   2.750000      0.0000000E+00
   2.760000      0.0000000E+00
   2.770000      0.0000000E+00
   2.780000      0.0000000E+00
   2.790000      0.0000000E+00
   2.800000      0.0000000E+00
   2.810000      0.0000000E+00
   2.820000      0.0000000E+00
   2.830000      0.0000000E+00
   2.840000      0.0000000E+00
   2.850000      0.0000000E+00
   2.860000      0.0000000E+00
   2.870000      0.0000000E+00
   2.880000      0.0000000E+00
   2.890000      0.0000000E+00
   2.900000      0.0000000E+00
   2.910000      0.0000000E+00
   2.920000      0.0000000E+00
   2.930000      0.0000000E+00
   2.940000      0.0000000E+00
   2.950000      0.0000000E+00
   2.960000      0.0000000E+00
   2.970000      0.0000000E+00
   2.980000      0.0000000E+00
   2.990000      0.0000000E+00
   3.000000      0.0000000E+00
   3.010000      0.0000000E+00
   3.020000      0.0000000E+00
   3.030000      0.0000000E+00
   3.040000      0.0000000E+00
   3.050000      0.0000000E+00
   3.060000      0.0000000E+00
   3.070000      0.0000000E+00
   3.080000      0.0000000E+00
   3.090000      0.0000000E+00
   3.100000      0.0000000E+00
   3.110000      0.0000000E+00
   3.120000      0.0000000E+00
   3.130000      0.0000000E+00
   3.140000      0.0000000E+00
   3.150000      0.0000000E+00
   3.160000      0.0000000E+00
   3.170000      0.0000000E+00
   3.180000      0.0000000E+00
   3.190000      0.0000000E+00
   3.200000      0.0000000E+00
   3.210000      0.0000000E+00
   3.220000      0.0000000E+00
   3.230000      0.0000000E+00
   3.240000      0.0000000E+00
   3.250000      0.0000000E+00
   3.260000      0.0000000E+00
   3.270000      0.0000000E+00
   3.280000      0.0000000E+00
   3.290000      0.0000000E+00
   3.300000      0.0000000E+00
   3.310000      0.0000000E+00
   3.320000      0.0000000E+00
   3.330000      0.0000000E+00
   3.340000      0.0000000E+00
   3.350000      0.0000000E+00
   3.360000      0.0000000E+00
   3.370000      0.0000000E+00
   3.380000      0.0000000E+00
   3.390000      0.0000000E+00
   3.400000      0.0000000E+00
   3.410000      0.0000000E+00
   3.420000      0.0000000E+00
   3.430000      0.0000000E+00
   3.440000      0.0000000E+00
   3.450000      0.0000000E+00
   3.460000      0.0000000E+00
   3.470000      0.0000000E+00
   3.480000      0.0000000E+00
   3.490000      0.0000000E+00
   3.500000      0.0000000E+00
   3.510000      0.0000000E+00
   3.520000      0.0000000E+00
   3.530000      0.0000000E+00
   3.540000      0.0000000E+00
   3.550000      0.0000000E+00
   3.560000      0.0000000E+00
   3.570000      0.0000000E+00
   3.580000      0.0000000E+00
   3.590000      0.0000000E+00
   3.600000      0.0000000E+00
   3.610000      0.0000000E+00
   3.620000      0.0000000E+00
   3.630000      0.0000000E+00
   3.640000      0.0000000E+00
   3.650000      0.0000000E+00
   3.660000      0.0000000E+00
   3.670000      0.0000000E+00
   3.680000      0.0000000E+00
   3.690000      0.0000000E+00
   3.700000      0.0000000E+00
   3.710000      0.0000000E+00
   3.720000      0.0000000E+00
   3.730000      0.0000000E+00
   3.740000      0.0000000E+00
   3.750000      0.0000000E+00
   3.760000      0.0000000E+00
   3.770000      0.0000000E+00
   3.780000      0.0000000E+00
   3.790000      0.0000000E+00
   3.800000      0.0000000E+00
   3.810000      0.0000000E+00
   3.820000      0.0000000E+00
   3.830000      0.0000000E+00
   3.840000      0.0000000E+00
   3.850000      0.0000000E+00
   3.860000      0.0000000E+00
   3.870000      0.0000000E+00
   3.880000      0.0000000E+00
   3.890000      0.0000000E+00
   3.900000      0.0000000E+00
   3.910000      0.0000000E+00
   3.920000      0.0000000E+00
   3.930000      0.0000000E+00
   3.940000      0.0000000E+00
   3.950000      0.0000000E+00
   3.960000      0.0000000E+00
   3.970000      0.0000000E+00
   3.980000     -1.1969512E-38
   3.990000     -1.4073902E-38
   4.000000     -1.6219754E-38
   4.010000     -1.8447679E-38
   4.020000     -2.0782718E-38
   4.030000     -2.1659963E-38
   4.040000     -2.0559910E-38
   4.050000     -1.8561709E-38
   4.060000     -1.5714856E-38
   4.070000     -1.2107346E-38
   4.080000      0.0000000E+00
   4.090000      0.0000000E+00
   4.100000      0.0000000E+00
   4.110000      0.0000000E+00
   4.120000      1.4302405E-38
   4.130000      2.0516124E-38
   4.140000      2.6902041E-38
   4.150000      3.3282352E-38
   4.160000      3.9454682E-38
   4.170000      4.5214159E-38
   4.180000      5.0360627E-38
   4.190000      5.3561540E-38
   4.200000      5.4539730E-38
   4.210000      5.4194209E-38
   4.220000      5.1837735E-38
   4.230000      4.8470919E-38
   4.240000      4.4014320E-38
   4.250000      3.9180874E-38
   4.260000      3.5237550E-38
   4.270000      2.9289072E-38
   4.280000      2.0693410E-38
   4.290000      1.6152050E-38
   4.300000      1.5686970E-38
   4.310000      1.4682788E-38
   4.320000      1.4119901E-38
   4.330000      0.0000000E+00
   4.340000      0.0000000E+00
   4.350000      0.0000000E+00
   4.360000      0.0000000E+00
   4.370000      0.0000000E+00
   4.380000      0.0000000E+00
   4.390000      0.0000000E+00
   4.400000      1.2997179E-38
   4.410000      2.0091345E-38
   4.420000      2.6567739E-38
   4.430000     -7.2196842E-38
   4.440000     -2.8096487E-37
   4.450000     -5.0197524E-37
   4.460000     -7.4573885E-37
   4.470000     -1.0125075E-36
   4.480000     -1.2866790E-36
   4.490000     -1.5667037E-36
   4.500000     -1.8243396E-36
   4.510000     -1.9324945E-36
   4.520000     -1.3390072E-36
   4.530000     -1.0575459E-37
   4.540000      1.1790406E-36
   4.550000      1.8560155E-36
   4.560000      2.0820598E-36
   4.570000      2.4875440E-36
   4.580000      2.9474197E-36
   4.590000      3.4609695E-36
   4.600000      3.9953639E-36
   4.610000      4.4785137E-36
   4.620000      5.0686783E-36
   4.630000      5.1617687E-36
   4.640000      4.4287718E-36
   4.650000      3.3936193E-36
   4.660000      2.1412953E-36
   4.670000      7.9118621E-37
   4.680000     -4.1471551E-37
   4.690000     -1.3044126E-36
   4.700000     -1.2074983E-36
   4.710000     -1.2615796E-37
   4.720000      1.1521840E-36
   4.730000      2.4856310E-36
   4.740000      3.7439068E-36
   4.750000      4.9921636E-36
   4.760000      6.2600118E-36
   4.770000      6.9204073E-36
   4.780000      7.0641973E-36
   4.790000      7.1752544E-36
   4.800000      6.4497583E-36
   4.810000      4.7756940E-36
   4.820000      2.9487088E-36
   4.830000      1.0807481E-36
   4.840000     -8.2640485E-37
   4.850000     -2.1811205E-36
   4.860000     -2.2087549E-36
   4.870000     -1.3911219E-36
   4.880000     -3.3359408E-37
   4.890000      9.6310127E-37
   4.900000      2.1993843E-36
   4.910000      2.5764151E-36
   4.920000      1.8527384E-36
   4.930000      3.8667901E-37
   4.940000     -1.8036852E-36
   4.950000     -4.5493902E-36
   4.960000     -7.7844509E-36
   4.970000     -1.1251445E-35
   4.980000     -1.4721239E-35
   4.990000     -1.7814481E-35
   5.000000     -1.9396865E-35
   5.010000     -1.9841627E-35
   5.020000     -2.0766673E-35
   5.030000     -2.2172363E-35
   5.040000     -2.4142263E-35
   5.050000     -2.6230445E-35
   5.060000     -2.8200419E-35
   5.070000     -3.0796523E-35
   5.080000     -3.3916806E-35
   5.090000     -3.7489962E-35
   5.100000     -4.1321281E-35
   5.110000     -4.4808281E-35
   5.120000     -4.3582047E-35
   5.130000     -3.7304910E-35
   5.140000     -2.9470725E-35
   5.150000     -2.3724164E-35
   5.160000     -2.2011925E-35
   5.170000     -2.2936142E-35
   5.180000     -2.6823142E-35
   5.190000     -3.2425486E-35
   5.200000     -4.0855354E-35
   5.210000     -5.1864883E-35
   5.220000     -6.2190935E-35
   5.230000     -7.1757083E-35
   5.240000     -8.1397336E-35
   5.250000     -9.1077222E-35
   5.260000     -1.0080164E-34
   5.270000     -1.0348389E-34
   5.280000     -9.6782043E-35
   5.290000     -8.6328449E-35
   5.300000     -6.8796450E-35
   5.310000     -4.3894446E-35
   5.320000     -1.7517631E-35
   5.330000      6.9653500E-36
   5.340000      2.6871390E-35
   5.350000      3.8262155E-35
   5.360000      4.3136857E-35
   5.370000      4.3029398E-35
   5.380000      3.4940769E-35
   5.390000      2.3168362E-35
   5.400000      1.3168418E-35
   5.410000      2.0963502E-36
   5.420000     -7.3156881E-36
   5.430000     -9.1100353E-36
   5.440000     -6.8784809E-37
   5.450000      2.0364729E-35
   5.460000      5.3372219E-35
   5.470000      9.5102429E-35
   5.480000      1.4001873E-34
   5.490000      1.7913551E-34
   5.500000      2.1162957E-34
   5.510000      2.4106388E-34
   5.520000      2.6954662E-34
   5.530000      3.0140903E-34
   5.540000      3.2817901E-34
   5.550000      3.4206837E-34
   5.560000      3.4815385E-34
   5.570000      3.5455233E-34
   5.580000      3.5973899E-34
   5.590000      3.6446877E-34
   5.600000      3.6894348E-34
   5.610000      3.7436102E-34
   5.620000      3.8834219E-34
   5.630000      4.1108658E-34
   5.640000      4.4375913E-34
   5.650000      4.8508437E-34
   5.660000      5.3630318E-34
   5.670000      5.9171024E-34
   5.680000      6.3996690E-34
   5.690000      6.7971602E-34
   5.700000      7.1216907E-34
   5.710000      7.3460779E-34
   5.720000      7.3703914E-34
   5.730000      7.2044841E-34
   5.740000      6.9307028E-34
   5.750000      6.5847493E-34
   5.760000      6.2069977E-34
   5.770000      5.8342558E-34
   5.780000      5.4745642E-34
   5.790000      5.1517353E-34
   5.800000      4.9168288E-34
   5.810000      4.8334748E-34
   5.820000      4.8676266E-34
   5.830000      4.9174666E-34
   5.840000      4.9313747E-34
   5.850000      4.8676748E-34
   5.860000      4.6800622E-34
   5.870000      4.3412439E-34
   5.880000      3.8350124E-34
   5.890000      3.1630119E-34
   5.900000      2.3245242E-34
   5.910000      1.2089411E-34
   5.920000     -1.1389840E-35
   5.930000     -1.4955234E-34
   5.940000     -2.8504250E-34
   5.950000     -4.1101647E-34
   5.960000     -5.2831611E-34
   5.970000     -6.3519077E-34
   5.980000     -7.3575179E-34
   5.990000     -8.3618818E-34
   6.000000     -9.4597504E-34
   6.010000     -1.0726622E-33
   6.020000     -1.2133691E-33
   6.030000     -1.3692833E-33
   6.040000     -1.5576757E-33
   6.050000     -1.7751658E-33
   6.060000     -2.0085060E-33
   6.070000     -2.2604093E-33
   6.080000     -2.5237719E-33
   6.090000     -2.7957969E-33
   6.100000     -3.0710308E-33
   6.110000     -3.3423657E-33
   6.120000     -3.6069137E-33
   6.130000     -3.8613524E-33
   6.140000     -4.1079068E-33
   6.150000     -4.3503672E-33
   6.160000     -4.5901919E-33
   6.170000     -4.8279790E-33
   6.180000     -5.0692180E-33
   6.190000     -5.3189143E-33
   6.200000     -5.5776928E-33
   6.210000     -5.8443258E-33
   6.220000     -6.1151060E-33
   6.230000     -6.3863249E-33
   6.240000     -6.6568693E-33
   6.250000     -6.9226288E-33
   6.260000     -7.1779388E-33
   6.270000     -7.4186984E-33
   6.280000     -7.6399154E-33
   6.290000     -7.8358079E-33
   6.300000     -8.0029661E-33
   6.310000     -8.1415356E-33
   6.320000     -8.2454508E-33
   6.330000     -8.3117428E-33
   6.340000     -8.3413160E-33
   6.350000     -8.3291555E-33
   6.360000     -8.2739565E-33
   6.370000     -8.1812673E-33
   6.380000     -8.0488743E-33
   6.390000     -7.8808359E-33
   6.400000     -7.6871769E-33
   6.410000     -7.4556817E-33
   6.420000     -7.1773510E-33
   6.430000     -6.8488298E-33
   6.440000     -6.4579896E-33
   6.450000     -6.0005545E-33
   6.460000     -5.4765514E-33
   6.470000     -4.8738343E-33
   6.480000     -4.1815258E-33
   6.490000     -3.3968150E-33
   6.500000     -2.5202331E-33
   6.510000     -1.5527586E-33
   6.520000     -4.9212108E-34
   6.530000      6.6034869E-34
   6.540000      1.9005461E-33
   6.550000      3.2268598E-33
   6.560000      4.6376448E-33
   6.570000      6.1317889E-33
   6.580000      7.7107132E-33
   6.590000      9.3770698E-33
   6.600000      1.1137150E-32
   6.610000      1.2992842E-32
   6.620000      1.4946205E-32
   6.630000      1.7004097E-32
   6.640000      1.9170635E-32
   6.650000      2.1448478E-32
   6.660000      2.3838479E-32
   6.670000      2.6338303E-32
   6.680000      2.8943354E-32
   6.690000      3.1649033E-32
   6.700000      3.4446907E-32
   6.710000      3.7325760E-32
   6.720000      4.0275090E-32
   6.730000      4.3284200E-32
   6.740000      4.6342116E-32
   6.750000      4.9437789E-32
   6.760000      5.2562024E-32
   6.770000      5.5705472E-32
   6.780000      5.8860053E-32
   6.790000      6.2018712E-32
   6.800000      6.5172081E-32
   6.810000      6.8311897E-32
   6.820000      7.1427174E-32
   6.830000      7.4506282E-32
   6.840000      7.7534920E-32
   6.850000      8.0491517E-32
   6.860000      8.3355498E-32
   6.870000      8.6105337E-32
   6.880000      8.8714465E-32
   6.890000      9.1154691E-32
   6.900000      9.3397846E-32
   6.910000      9.5416399E-32
   6.920000      9.7181456E-32
   6.930000      9.8664824E-32
   6.940000      9.9840260E-32
   6.950000      1.0068428E-31
   6.960000      1.0117269E-31
   6.970000      1.0127863E-31
   6.980000      1.0097768E-31
   6.990000      1.0024240E-31
   7.000000      9.9046707E-32
   7.010000      9.7362841E-32
   7.020000      9.5157337E-32
   7.030000      9.2395942E-32
   7.040000      8.9041758E-32
   7.050000      8.5056802E-32
   7.060000      8.0402221E-32