  -2.600000      0.0000000E+00
  -2.590000      0.0000000E+00
  -2.580000      0.0000000E+00
  -2.570000      0.0000000E+00
  -2.560000      0.0000000E+00
  -2.550000      0.0000000E+00
  -2.540000      0.0000000E+00
  -2.530000      0.0000000E+00
  -2.520000      0.0000000E+00
  -2.510000      0.0000000E+00
  -2.500000      0.0000000E+00
  -2.490000      0.0000000E+00
  -2.480000      0.0000000E+00
  -2.470000      0.0000000E+00
  -2.460000      0.0000000E+00
  -2.450000      0.0000000E+00
  -2.440000      0.0000000E+00
  -2.430000      0.0000000E+00
  -2.420000      0.0000000E+00
  -2.410000      0.0000000E+00
  -2.400000      0.0000000E+00
  -2.390000      0.0000000E+00
  -2.380000      0.0000000E+00
  -2.370000      0.0000000E+00
  -2.360000      0.0000000E+00
  -2.350000      0.0000000E+00
  -2.340000      0.0000000E+00
  -2.330000      0.0000000E+00
  -2.320000      0.0000000E+00
  -2.310000      0.0000000E+00
  -2.300000      0.0000000E+00
  -2.290000      0.0000000E+00
  -2.280000      0.0000000E+00
  -2.270000      0.0000000E+00
  -2.260000      0.0000000E+00
  -2.250000      0.0000000E+00
  -2.240000      0.0000000E+00
  -2.230000      0.0000000E+00
  -2.220000      0.0000000E+00
  -2.210000      0.0000000E+00
  -2.200000      0.0000000E+00
  -2.190000      0.0000000E+00
  -2.180000      0.0000000E+00
  -2.170000      0.0000000E+00
  -2.160000      0.0000000E+00
  -2.150000      0.0000000E+00
  -2.140000      0.0000000E+00
  -2.130000      0.0000000E+00
  -2.120000      0.0000000E+00
  -2.110000      0.0000000E+00
  -2.100000      0.0000000E+00
  -2.090000      0.0000000E+00
  -2.080000      0.0000000E+00
  -2.070000      0.0000000E+00
  -2.060000      0.0000000E+00
  -2.050000      0.0000000E+00
  -2.040000      0.0000000E+00
  -2.030000      0.0000000E+00
  -2.020000      0.0000000E+00
  -2.010000      0.0000000E+00
  -2.000000      0.0000000E+00
  -1.990000      0.0000000E+00
  -1.980000      0.0000000E+00
  -1.970000      0.0000000E+00
  -1.960000      0.0000000E+00
  -1.950000      0.0000000E+00
  -1.940000      0.0000000E+00
  -1.930000      0.0000000E+00
  -1.920000      0.0000000E+00
  -1.910000      0.0000000E+00
  -1.900000      0.0000000E+00
  -1.890000      0.0000000E+00
  -1.880000      0.0000000E+00
  -1.870000      0.0000000E+00
  -1.860000      0.0000000E+00
  -1.850000      0.0000000E+00
  -1.840000      0.0000000E+00
  -1.830000      0.0000000E+00
  -1.820000      0.0000000E+00
  -1.810000      0.0000000E+00
  -1.800000      0.0000000E+00
  -1.790000      0.0000000E+00
  -1.780000      0.0000000E+00
  -1.770000      0.0000000E+00
  -1.760000      0.0000000E+00
  -1.750000      0.0000000E+00
  -1.740000      0.0000000E+00
  -1.730000      0.0000000E+00
  -1.720000      0.0000000E+00
  -1.710000      0.0000000E+00
  -1.700000      0.0000000E+00
  -1.690000      0.0000000E+00
  -1.680000      0.0000000E+00
  -1.670000      0.0000000E+00
  -1.660000      0.0000000E+00
  -1.650000      0.0000000E+00
  -1.640000      0.0000000E+00
  -1.630000      0.0000000E+00
  -1.620000      0.0000000E+00
  -1.610000      0.0000000E+00
  -1.600000      0.0000000E+00
  -1.590000      0.0000000E+00
  -1.580000      0.0000000E+00
  -1.570000      0.0000000E+00
  -1.560000      0.0000000E+00
  -1.550000      0.0000000E+00
  -1.540000      0.0000000E+00
  -1.530000      0.0000000E+00
  -1.520000      0.0000000E+00
  -1.510000      0.0000000E+00
  -1.500000      0.0000000E+00
  -1.490000      0.0000000E+00
  -1.480000      0.0000000E+00
  -1.470000      0.0000000E+00
  -1.460000      0.0000000E+00
  -1.450000      0.0000000E+00
  -1.440000      0.0000000E+00
  -1.430000      0.0000000E+00
  -1.420000      0.0000000E+00
  -1.410000      0.0000000E+00
  -1.400000      0.0000000E+00
  -1.390000      0.0000000E+00
  -1.380000      0.0000000E+00
  -1.370000      0.0000000E+00
  -1.360000      0.0000000E+00
  -1.350000      0.0000000E+00
  -1.340000      0.0000000E+00
  -1.330000      0.0000000E+00
  -1.320000      0.0000000E+00
  -1.310000      0.0000000E+00
  -1.300000      0.0000000E+00
  -1.290000      0.0000000E+00
  -1.280000      0.0000000E+00
  -1.270000      0.0000000E+00
  -1.260000      0.0000000E+00
  -1.250000      0.0000000E+00
  -1.240000      0.0000000E+00
  -1.230000      0.0000000E+00
  -1.220000      0.0000000E+00
  -1.210000      0.0000000E+00
  -1.200000      0.0000000E+00
  -1.190000      0.0000000E+00
  -1.180000      0.0000000E+00
  -1.170000      0.0000000E+00
  -1.160000      0.0000000E+00
  -1.150000      0.0000000E+00
  -1.140000      0.0000000E+00
  -1.130000      0.0000000E+00
  -1.120000      0.0000000E+00
  -1.110000      0.0000000E+00
  -1.100000      0.0000000E+00
  -1.090000      0.0000000E+00
  -1.080000      0.0000000E+00
  -1.070000      0.0000000E+00
  -1.060000      0.0000000E+00
  -1.050000      0.0000000E+00
  -1.040000      0.0000000E+00
  -1.030000      0.0000000E+00
  -1.020000      0.0000000E+00
  -1.010000      0.0000000E+00
  -1.000000      0.0000000E+00
 -0.9900000      0.0000000E+00
 -0.9800000      0.0000000E+00
 -0.9700000      0.0000000E+00
 -0.9600000      0.0000000E+00
 -0.9500000      0.0000000E+00
 -0.9400000      0.0000000E+00
 -0.9300000      0.0000000E+00
 -0.9200000      0.0000000E+00
 -0.9100000      0.0000000E+00
 -0.9000000      0.0000000E+00
 -0.8900000      0.0000000E+00
 -0.8800000      0.0000000E+00
 -0.8700000      0.0000000E+00
 -0.8600000      0.0000000E+00
 -0.8500000      0.0000000E+00
 -0.8400000      0.0000000E+00
 -0.8300000      0.0000000E+00
 -0.8200000      0.0000000E+00
 -0.8100000      0.0000000E+00
 -0.8000000      0.0000000E+00
 -0.7900000      0.0000000E+00
 -0.7800000      0.0000000E+00
 -0.7700000      0.0000000E+00
 -0.7600000      0.0000000E+00
 -0.7500000      0.0000000E+00
 -0.7400000      0.0000000E+00
 -0.7300000      0.0000000E+00
 -0.7200000      0.0000000E+00
 -0.7100000      0.0000000E+00
 -0.7000000      0.0000000E+00
 -0.6900000      0.0000000E+00
 -0.6800000      0.0000000E+00
 -0.6700000      0.0000000E+00
 -0.6600000      0.0000000E+00
 -0.6500000      0.0000000E+00
 -0.6400000      0.0000000E+00
 -0.6300000      0.0000000E+00
 -0.6200000      0.0000000E+00
 -0.6100000      0.0000000E+00
 -0.6000000      0.0000000E+00
 -0.5900000      0.0000000E+00
 -0.5800000      0.0000000E+00
 -0.5700000      0.0000000E+00
 -0.5600000      0.0000000E+00
 -0.5500000      0.0000000E+00
 -0.5400000      0.0000000E+00
 -0.5300000      0.0000000E+00
 -0.5200000      0.0000000E+00
 -0.5100000      0.0000000E+00
 -0.5000000      0.0000000E+00
 -0.4900000      0.0000000E+00
 -0.4800000      0.0000000E+00
 -0.4700000      0.0000000E+00
 -0.4600000      0.0000000E+00
 -0.4500000      0.0000000E+00
 -0.4400000      0.0000000E+00
 -0.4300000      0.0000000E+00
 -0.4200000      0.0000000E+00
 -0.4100000      0.0000000E+00
 -0.4000000      0.0000000E+00
 -0.3900000      0.0000000E+00
 -0.3800000      0.0000000E+00
 -0.3700000      0.0000000E+00
 -0.3600000      0.0000000E+00
 -0.3500000      0.0000000E+00
 -0.3400000      0.0000000E+00
 -0.3300000      0.0000000E+00
 -0.3200000      0.0000000E+00
 -0.3100000      0.0000000E+00
 -0.3000000      0.0000000E+00
 -0.2900000      0.0000000E+00
 -0.2800000      0.0000000E+00
 -0.2700000      0.0000000E+00
 -0.2600000      0.0000000E+00
 -0.2500000      0.0000000E+00
 -0.2400000      0.0000000E+00
 -0.2300000      0.0000000E+00
 -0.2200000      0.0000000E+00
 -0.2100000      0.0000000E+00
 -0.2000000      0.0000000E+00
 -0.1900000      0.0000000E+00
 -0.1800000      0.0000000E+00
 -0.1700000      0.0000000E+00
 -0.1600000      0.0000000E+00
 -0.1500000      0.0000000E+00
 -0.1400000      0.0000000E+00
 -0.1300000      0.0000000E+00
 -0.1200000      0.0000000E+00
 -0.1100000      0.0000000E+00
 -0.1000000      0.0000000E+00
 -9.0000004E-02  0.0000000E+00
 -7.9999998E-02  0.0000000E+00
 -7.0000000E-02  0.0000000E+00
 -5.9999999E-02  0.0000000E+00
 -5.0000001E-02  0.0000000E+00
 -3.9999999E-02  0.0000000E+00
 -2.9999999E-02  0.0000000E+00
 -2.0000000E-02  0.0000000E+00
 -9.9999998E-03  0.0000000E+00
 -3.4694470E-17  0.0000000E+00
  9.9999998E-03  0.0000000E+00
  2.0000000E-02  0.0000000E+00
  2.9999999E-02  0.0000000E+00
  3.9999999E-02  0.0000000E+00
  5.0000001E-02  0.0000000E+00
  5.9999999E-02  0.0000000E+00
  7.0000000E-02  0.0000000E+00
  7.9999998E-02  0.0000000E+00
  9.0000004E-02  0.0000000E+00
  0.1000000      0.0000000E+00
  0.1100000      0.0000000E+00
  0.1200000      0.0000000E+00
  0.1300000      0.0000000E+00
  0.1400000      0.0000000E+00
  0.1500000      0.0000000E+00
  0.1600000      0.0000000E+00
  0.1700000      0.0000000E+00
  0.1800000      0.0000000E+00
  0.1900000      0.0000000E+00
  0.2000000      0.0000000E+00
  0.2100000      0.0000000E+00
  0.2200000      0.0000000E+00
  0.2300000      0.0000000E+00
  0.2400000      0.0000000E+00
  0.2500000      0.0000000E+00
  0.2600000      0.0000000E+00
  0.2700000      0.0000000E+00
  0.2800000      0.0000000E+00
  0.2900000      0.0000000E+00
  0.3000000      0.0000000E+00
  0.3100000      0.0000000E+00
  0.3200000      0.0000000E+00
  0.3300000      0.0000000E+00
  0.3400000      0.0000000E+00
  0.3500000      0.0000000E+00
  0.3600000      0.0000000E+00
  0.3700000      0.0000000E+00
  0.3800000      0.0000000E+00
  0.3900000      0.0000000E+00
  0.4000000      0.0000000E+00
  0.4100000      0.0000000E+00
  0.4200000      0.0000000E+00
  0.4300000      0.0000000E+00
  0.4400000      0.0000000E+00
  0.4500000      0.0000000E+00
  0.4600000      0.0000000E+00
  0.4700000      0.0000000E+00
  0.4800000      0.0000000E+00
  0.4900000      0.0000000E+00
  0.5000000      0.0000000E+00
  0.5100000      0.0000000E+00
  0.5200000      0.0000000E+00
  0.5300000      0.0000000E+00
  0.5400000      0.0000000E+00
  0.5500000      0.0000000E+00
  0.5600000      0.0000000E+00
  0.5700000      0.0000000E+00
  0.5800000      0.0000000E+00
  0.5900000      0.0000000E+00
  0.6000000      0.0000000E+00
  0.6100000      0.0000000E+00
  0.6200000      0.0000000E+00
  0.6300000      0.0000000E+00
  0.6400000      0.0000000E+00
  0.6500000      0.0000000E+00
  0.6600000      0.0000000E+00
  0.6700000      0.0000000E+00
  0.6800000      0.0000000E+00
  0.6900000      0.0000000E+00
  0.7000000      0.0000000E+00
  0.7100000      0.0000000E+00
  0.7200000      0.0000000E+00
  0.7300000      0.0000000E+00
  0.7400000      0.0000000E+00
  0.7500000      0.0000000E+00
  0.7600000      0.0000000E+00
  0.7700000      0.0000000E+00
  0.7800000      0.0000000E+00
  0.7900000      0.0000000E+00
  0.8000000     -1.3362597E-38
  0.8100000     -1.4068718E-38
  0.8200000      0.0000000E+00
  0.8300000      0.0000000E+00
  0.8400000      0.0000000E+00
  0.8500000      0.0000000E+00
  0.8600000      0.0000000E+00
  0.8700000      0.0000000E+00
  0.8800000      0.0000000E+00
  0.8900000      0.0000000E+00
  0.9000000      0.0000000E+00
  0.9100000      0.0000000E+00
  0.9200000     -2.4792201E-38
  0.9300000     -4.3581509E-38
  0.9400000     -6.5324874E-38
  0.9500000     -8.8863124E-38
  0.9600000     -1.1081444E-37
  0.9700000     -1.2969493E-37
  0.9800000     -1.4752188E-37
  0.9900000     -1.6918029E-37
   1.000000     -2.0677141E-37
   1.010000     -2.5727169E-37
   1.020000     -3.0995693E-37
   1.030000     -3.6427076E-37
   1.040000     -4.1936558E-37
   1.050000     -4.7535479E-37
   1.060000     -5.2229882E-37
   1.070000     -5.5523333E-37
   1.080000     -5.9299054E-37
   1.090000     -6.4889311E-37
   1.100000     -7.2210161E-37
   1.110000     -8.0927305E-37
   1.120000     -8.3051180E-37
   1.130000     -7.7240863E-37
   1.140000     -6.9648982E-37
   1.150000     -5.9373204E-37
   1.160000     -4.6854479E-37
   1.170000     -3.5437464E-37
   1.180000     -3.2538475E-37
   1.190000     -3.5452423E-37
   1.200000     -4.1002540E-37
   1.210000     -4.7641170E-37
   1.220000     -6.2029533E-37
   1.230000     -9.0837126E-37
   1.240000     -1.2130776E-36
   1.250000     -1.6098730E-36
   1.260000     -2.1340401E-36
   1.270000     -2.6509539E-36
   1.280000     -2.8999318E-36
   1.290000     -2.8208204E-36
   1.300000     -2.5290014E-36
   1.310000     -2.0649446E-36
   1.320000     -1.7556556E-36
   1.330000     -1.6282986E-36
   1.340000     -1.5464633E-36
   1.350000     -1.4964461E-36
   1.360000     -1.4191952E-36
   1.370000     -9.0881250E-37
   1.380000      2.3488632E-37
   1.390000      1.5656940E-36
   1.400000      2.8147947E-36
   1.410000      4.1411090E-36
   1.420000      5.5843741E-36
   1.430000      6.9543269E-36
   1.440000      8.1360883E-36
   1.450000      9.2118766E-36
   1.460000      1.0376785E-35
   1.470000      1.1920199E-35
   1.480000      1.3920066E-35
   1.490000      1.6156719E-35
   1.500000      1.8584785E-35
   1.510000      2.0892994E-35
   1.520000      2.3039567E-35
   1.530000      2.5327888E-35
   1.540000      2.7668655E-35
   1.550000      2.9845087E-35
   1.560000      3.1654639E-35
   1.570000      3.3400676E-35
   1.580000      3.4899454E-35
   1.590000      3.5690370E-35
   1.600000      3.5876857E-35
   1.610000      3.5501729E-35
   1.620000      3.4579686E-35
   1.630000      3.3069164E-35
   1.640000      3.0985230E-35
   1.650000      2.8597066E-35
   1.660000      2.4971661E-35
   1.670000      1.8159729E-35
   1.680000      8.5109608E-36
   1.690000     -2.5281611E-36
   1.700000     -1.4653992E-35
   1.710000     -2.8036496E-35
   1.720000     -4.1801231E-35
   1.730000     -5.5748715E-35
   1.740000     -6.9928575E-35
   1.750000     -8.3601175E-35
   1.760000     -9.5828567E-35
   1.770000     -1.0789847E-34
   1.780000     -1.2214918E-34
   1.790000     -1.3505801E-34
   1.800000     -1.4456756E-34
   1.810000     -1.5429300E-34
   1.820000     -1.6535945E-34
   1.830000     -1.7718478E-34
   1.840000     -1.8873535E-34
   1.850000     -1.9856253E-34
   1.860000     -2.0697813E-34
   1.870000     -2.2293994E-34
   1.880000     -2.4660092E-34
   1.890000     -2.6843858E-34
   1.900000     -2.8475168E-34
   1.910000     -2.8578313E-34
   1.920000     -2.7741318E-34
   1.930000     -2.6890811E-34
   1.940000     -2.5453500E-34
   1.950000     -2.4429316E-34
   1.960000     -2.4050302E-34
   1.970000     -2.3810632E-34
   1.980000     -2.3625671E-34
   1.990000     -2.3440680E-34
   2.000000     -2.3781479E-34
   2.010000     -2.3969287E-34
   2.020000     -2.3680079E-34
   2.030000     -2.2844970E-34
   2.040000     -1.9503529E-34
   2.050000     -1.3713040E-34
   2.060000     -6.9840619E-35
   2.070000      3.6461386E-36
   2.080000      9.2109063E-35
   2.090000      1.9586096E-34
   2.100000      3.0370382E-34
   2.110000      4.1653633E-34
   2.120000      5.3089040E-34
   2.130000      6.4874684E-34
   2.140000      7.7218472E-34
   2.150000      8.9612425E-34
   2.160000      1.0227132E-33
   2.170000      1.1540230E-33
   2.180000      1.2924852E-33
   2.190000      1.4355647E-33
   2.200000      1.5799974E-33
   2.210000      1.7267856E-33
   2.220000      1.8760695E-33
   2.230000      2.0288942E-33
   2.240000      2.1833118E-33
   2.250000      2.3377315E-33
   2.260000      2.4908602E-33
   2.270000      2.6384243E-33
   2.280000      2.7738570E-33
   2.290000      2.8961505E-33
   2.300000      2.9964350E-33
   2.310000      3.0689922E-33
   2.320000      3.1128262E-33
   2.330000      3.1253004E-33
   2.340000      3.1045342E-33
   2.350000      3.0406382E-33
   2.360000      2.9422289E-33
   2.370000      2.8070313E-33
   2.380000      2.6283376E-33
   2.390000      2.4120437E-33
   2.400000      2.1576858E-33
   2.410000      1.8614634E-33
   2.420000      1.5146214E-33
   2.430000      1.1158664E-33
   2.440000      6.6519159E-34
   2.450000      1.6050909E-34
   2.460000     -4.0053432E-34
   2.470000     -1.0197445E-33
   2.480000     -1.6990810E-33
   2.490000     -2.4375932E-33
   2.500000     -3.2333912E-33
   2.510000     -4.0860481E-33
   2.520000     -4.9920644E-33
   2.530000     -5.9472355E-33
   2.540000     -6.9464817E-33
   2.550000     -7.9845072E-33
   2.560000     -9.0536472E-33
   2.570000     -1.0146328E-32
   2.580000     -1.1256192E-32
   2.590000     -1.2375606E-32
   2.600000     -1.3498271E-32
   2.610000     -1.4615563E-32
   2.620000     -1.5718450E-32
   2.630000     -1.6798930E-32
   2.640000     -1.7847418E-32
   2.650000     -1.8853557E-32
   2.660000     -1.9806834E-32
   2.670000     -2.0695316E-32
   2.680000     -2.1505121E-32
   2.690000     -2.2222384E-32
   2.700000     -2.2833637E-32
   2.710000     -2.3322584E-32
   2.720000     -2.3671365E-32
   2.730000     -2.3862477E-32
   2.740000     -2.3878249E-32
   2.750000     -2.3700997E-32
   2.760000     -2.3313599E-32
   2.770000     -2.2699626E-32
   2.780000     -2.1843433E-32
   2.790000     -2.0730874E-32
   2.800000     -1.9345723E-32
   2.810000     -1.7679561E-32
   2.820000     -1.5723617E-32
   2.830000     -1.3466300E-32
   2.840000     -1.0900294E-32
   2.850000     -8.0159414E-33
   2.860000     -4.8061784E-33
   2.870000     -1.2651185E-33
   2.880000      2.6117442E-33
   2.890000      6.8270456E-33
   2.900000      1.1381154E-32
   2.910000      1.6271719E-32
   2.920000      2.1493213E-32
   2.930000      2.7036461E-32
   2.940000      3.2888448E-32
   2.950000      3.9031967E-32
   2.960000      4.5445490E-32
   2.970000      5.2103246E-32
   2.980000      5.8975204E-32
   2.990000      6.6027747E-32
   3.000000      7.3222695E-32
   3.010000      8.0518371E-32
   3.020000      8.7870630E-32
   3.030000      9.5231805E-32
   3.040000      1.0255147E-31
   3.050000      1.0977561E-31
   3.060000      1.1684705E-31
   3.070000      1.2370590E-31
   3.080000      1.3028853E-31
   3.090000      1.3652749E-31
   3.100000      1.4235151E-31
   3.110000      1.4768541E-31
   3.120000      1.5245020E-31
   3.130000      1.5656329E-31
   3.140000      1.5993888E-31
   3.150000      1.6248857E-31
   3.160000      1.6412206E-31
   3.170000      1.6474804E-31
   3.180000      1.6427503E-31
   3.190000      1.6261232E-31
   3.200000      1.5967083E-31
   3.210000      1.5536401E-31
   3.220000      1.4960855E-31
   3.230000      1.4232501E-31
   3.240000      1.3343846E-31
   3.250000      1.2287899E-31
   3.260000      1.1058216E-31
   3.270000      9.6489625E-32
   3.280000      8.0549645E-32
   3.290000      6.2717802E-32
   3.300000      4.2957839E-32
   3.310000      2.1242626E-32
   3.320000     -2.4447878E-33
   3.330000     -2.8109993E-32
   3.340000     -5.5745880E-32
   3.350000     -8.5331415E-32
   3.360000     -1.1683044E-31
   3.370000     -1.5019053E-31
   3.380000     -1.8534196E-31
   3.390000     -2.2219693E-31
   3.400000     -2.6064890E-31
   3.410000     -3.0057221E-31
   3.420000     -3.4182172E-31
   3.430000     -3.8423276E-31
   3.440000     -4.2762072E-31
   3.450000     -4.7178141E-31
   3.460000     -5.1649049E-31
   3.470000     -5.6150365E-31
   3.480000     -6.0655617E-31
   3.490000     -6.5136277E-31
   3.500000     -6.9561712E-31
   3.510000     -7.3899173E-31
   3.520000     -7.8113763E-31
   3.530000     -8.2168438E-31
   3.540000     -8.6024021E-31
   3.550000     -8.9639231E-31
   3.560000     -9.2970807E-31
   3.570000     -9.5973575E-31
   3.580000     -9.8600654E-31
   3.590000     -1.0080360E-30
   3.600000     -1.0253269E-30
   3.610000     -1.0373713E-30
   3.620000     -1.0436535E-30
   3.630000     -1.0436533E-30
   3.640000     -1.0368482E-30
   3.650000     -1.0227174E-30
   3.660000     -1.0007446E-30
   3.670000     -9.7042080E-31
   3.680000     -9.3124807E-31
   3.690000     -8.8274237E-31
   3.700000     -8.2443748E-31
   3.710000     -7.5588843E-31
   3.720000     -6.7667525E-31
   3.730000     -5.8640716E-31
   3.740000     -4.8472666E-31
   3.750000     -3.7131469E-31
   3.760000     -2.4589539E-31
   3.770000     -1.0824119E-31
   3.780000      4.1822000E-32
   3.790000      2.0440972E-31
   3.800000      3.7957300E-31
   3.810000      5.6729306E-31
   3.820000      7.6747702E-31
   3.830000      9.7995218E-31
   3.840000      1.2044608E-30
   3.850000      1.4406560E-30
   3.860000      1.6880968E-30
   3.870000      1.9462432E-30
   3.880000      2.2144521E-30
   3.890000      2.4919720E-30
   3.900000      2.7779392E-30
   3.910000      3.0713728E-30
   3.920000      3.3711703E-30
   3.930000      3.6761034E-30
   3.940000      3.9848138E-30
   3.950000      4.2958089E-30
   3.960000      4.6074609E-30
   3.970000      4.9180013E-30
   3.980000      5.2255223E-30
   3.990000      5.5279730E-30
   4.000000      5.8231635E-30
   4.010000      6.1087628E-30
   4.020000      6.3823009E-30
   4.030000      6.6411744E-30
   4.040000      6.8826515E-30
   4.050000      7.1038716E-30
   4.060000      7.3018579E-30
   4.070000      7.4735200E-30
   4.080000      7.6156634E-30
   4.090000      7.7249953E-30
   4.100000      7.7981377E-30
   4.110000      7.8316339E-30
   4.120000      7.8219591E-30
   4.130000      7.7655369E-30
   4.140000      7.6587463E-30
   4.150000      7.4979379E-30
   4.160000      7.2794510E-30
   4.170000      6.9996269E-30
   4.180000      6.6548282E-30
   4.190000      6.2414563E-30
   4.200000      5.7559753E-30
   4.210000      5.1949327E-30
   4.220000      4.5549816E-30
   4.230000      3.8329072E-30
   4.240000      3.0256525E-30
   4.250000      2.1303450E-30
   4.260000      1.1443231E-30
   4.270000      6.5171770E-32
   4.280000     -1.1092500E-30
   4.290000     -2.3807752E-30
   4.300000     -3.7508945E-30
   4.310000     -5.2207236E-30
   4.320000     -6.7909659E-30
   4.330000     -8.4618787E-30
   4.340000     -1.0233232E-29
   4.350000     -1.2104270E-29
   4.360000     -1.4073679E-29
   4.370000     -1.6139537E-29
   4.380000     -1.8299287E-29
   4.390000     -2.0549697E-29
   4.400000     -2.2886819E-29
   4.410000     -2.5305952E-29
   4.420000     -2.7801611E-29
   4.430000     -3.0367483E-29
   4.440000     -3.2996404E-29
   4.450000     -3.5680323E-29
   4.460000     -3.8410274E-29
   4.470000     -4.1176349E-29
   4.480000     -4.3967666E-29
   4.490000     -4.6772349E-29
   4.500000     -4.9577505E-29
   4.510000     -5.2369201E-29
   4.520000     -5.5132453E-29
   4.530000     -5.7851204E-29
   4.540000     -6.0508289E-29
   4.550000     -6.3085466E-29
   4.560000     -6.5563386E-29
   4.570000     -6.7921591E-29
   4.580000     -7.0138523E-29
   4.590000     -7.2191522E-29
   4.600000     -7.4056851E-29
   4.610000     -7.5709708E-29
   4.620000     -7.7124268E-29
   4.630000     -7.8273681E-29
   4.640000     -7.9130148E-29
   4.650000     -7.9664949E-29
   4.660000     -7.9848478E-29
   4.670000     -7.9650372E-29
   4.680000     -7.9039533E-29
   4.690000     -7.7984214E-29
   4.700000     -7.6452142E-29
   4.710000     -7.4410590E-29
   4.720000     -7.1826504E-29
   4.730000     -6.8666637E-29
   4.740000     -6.4897658E-29
   4.750000     -6.0486328E-29
   4.760000     -5.5399628E-29
   4.770000     -4.9604932E-29
   4.780000     -4.3070173E-29
   4.790000     -3.5764041E-29
   4.800000     -2.7656182E-29
   4.810000     -1.8717374E-29
   4.820000     -8.9197489E-30
   4.830000      1.7629378E-30
   4.840000      1.3355110E-29
   4.850000      2.5879145E-29
   4.860000      3.9355066E-29
   4.870000      5.3800299E-29
   4.880000      6.9229436E-29
   4.890000      8.5653863E-29
   4.900000      1.0308149E-28
   4.910000      1.2151650E-28
   4.920000      1.4095899E-28
   4.930000      1.6140462E-28
   4.940000      1.8284433E-28
   4.950000      2.0526398E-28
   4.960000      2.2864395E-28
   4.970000      2.5295893E-28
   4.980000      2.7817737E-28
   4.990000      3.0426113E-28
   5.000000      3.3116532E-28
   5.010000      3.5883775E-28
   5.020000      3.8721862E-28
   5.030000      4.1624016E-28
   5.040000      4.4582635E-28
   5.050000      4.7589233E-28
   5.060000      5.0634451E-28
   5.070000      5.3707980E-28
   5.080000      5.6798558E-28
   5.090000      5.9893942E-28
   5.100000      6.2980870E-28
   5.110000      6.6045049E-28
   5.120000      6.9071133E-28
   5.130000      7.2042698E-28
   5.140000      7.4942219E-28
   5.150000      7.7751087E-28
   5.160000      8.0449570E-28
   5.170000      8.3016844E-28
   5.180000      8.5430949E-28
   5.190000      8.7668832E-28
   5.200000      8.9706341E-28
   5.210000      9.1518207E-28
   5.220000      9.3078143E-28
   5.230000      9.4358761E-28
   5.240000      9.5331722E-28
   5.250000      9.5967683E-28
   5.260000      9.6236379E-28
   5.270000      9.6106658E-28
   5.280000      9.5546540E-28
   5.290000      9.4523332E-28
   5.300000      9.3003667E-28
   5.310000      9.0953573E-28
   5.320000      8.8338603E-28
   5.330000      8.5123927E-28
   5.340000      8.1274436E-28
   5.350000      7.6754890E-28
   5.360000      7.1530035E-28
   5.370000      6.5564794E-28
   5.380000      5.8824367E-28
   5.390000      5.1274404E-28
   5.400000      4.2881268E-28
   5.410000      3.3612150E-28
   5.420000      2.3435308E-28
   5.430000      1.2320288E-28
   5.440000      2.3812659E-30
   5.450000     -1.2838372E-28
   5.460000     -2.6934414E-28
   5.470000     -4.2072975E-28
   5.480000     -5.8274485E-28
   5.490000     -7.5556567E-28
   5.500000     -9.3933757E-28
   5.510000     -1.1341719E-27
   5.520000     -1.3401433E-27
   5.530000     -1.5572858E-27
   5.540000     -1.7855903E-27
   5.550000     -2.0250009E-27
   5.560000     -2.2754107E-27
   5.570000     -2.5366595E-27
   5.580000     -2.8085299E-27
   5.590000     -3.0907435E-27
   5.600000     -3.3829583E-27
   5.610000     -3.6847631E-27
   5.620000     -3.9956764E-27
   5.630000     -4.3151416E-27
   5.640000     -4.6425231E-27
   5.650000     -4.9771018E-27
   5.660000     -5.3180754E-27
   5.670000     -5.6645513E-27
   5.680000     -6.0155459E-27
   5.690000     -6.3699794E-27
   5.700000     -6.7266747E-27
   5.710000     -7.0843515E-27
   5.720000     -7.4416284E-27
   5.730000     -7.7970172E-27
   5.740000     -8.1489208E-27
   5.750000     -8.4956329E-27
   5.760000     -8.8353369E-27
   5.770000     -9.1661015E-27
   5.780000     -9.4858844E-27
   5.790000     -9.7925279E-27
   5.800000     -1.0083763E-26
   5.810000     -1.0357207E-26
   5.820000     -1.0610366E-26
   5.830000     -1.0840637E-26
   5.840000     -1.1045311E-26
   5.850000     -1.1221570E-26
   5.860000     -1.1366498E-26
   5.870000     -1.1477080E-26
   5.880000     -1.1550211E-26
   5.890000     -1.1582693E-26
   5.900000     -1.1571250E-26
   5.910000     -1.1512531E-26
   5.920000     -1.1403121E-26
   5.930000     -1.1239545E-26
   5.940000     -1.1018281E-26
   5.950000     -1.0735767E-26
   5.960000     -1.0388415E-26
   5.970000     -9.9726224E-27
   5.980000     -9.4847859E-27
   5.990000     -8.9213181E-27
   6.000000     -8.2786592E-27
   6.010000     -7.5532916E-27
   6.020000     -6.7417586E-27
   6.030000     -5.8406872E-27
   6.040000     -4.8468011E-27
   6.050000     -3.7569435E-27
   6.060000     -2.5681012E-27
   6.070000     -1.2774229E-27
   6.080000      1.1776014E-28
   6.090000      1.6199012E-27
   6.100000      3.2312178E-27
   6.110000      4.9536678E-27
   6.120000      6.7889162E-27
   6.130000      8.7383078E-27
   6.140000      1.0802849E-26
   6.150000      1.2983167E-26
   6.160000      1.5279484E-26
   6.170000      1.7691582E-26
   6.180000      2.0218779E-26
   6.190000      2.2859904E-26
   6.200000      2.5613246E-26
   6.210000      2.8476538E-26
   6.220000      3.1446926E-26
   6.230000      3.4520923E-26
   6.240000      3.7694387E-26
   6.250000      4.0962499E-26
   6.260000      4.4319728E-26
   6.270000      4.7759784E-26
   6.280000      5.1275604E-26
   6.290000      5.4859323E-26
   6.300000      5.8502233E-26
   6.310000      6.2194768E-26
   6.320000      6.5926480E-26
   6.330000      6.9686006E-26
   6.340000      7.3461063E-26
   6.350000      7.7238413E-26
   6.360000      8.1003855E-26
   6.370000      8.4742206E-26
   6.380000      8.8437298E-26
   6.390000      9.2071968E-26
   6.400000      9.5628036E-26
   6.410000      9.9086310E-26
   6.420000      1.0242661E-25
   6.430000      1.0562774E-25
   6.440000      1.0866751E-25
   6.450000      1.1152278E-25
   6.460000      1.1416945E-25
   6.470000      1.1658245E-25
   6.480000      1.1873584E-25
   6.490000      1.2060281E-25
   6.500000      1.2215569E-25
   6.510000      1.2336609E-25
   6.520000      1.2420484E-25
   6.530000      1.2464217E-25
   6.540000      1.2464763E-25
   6.550000      1.2419026E-25
   6.560000      1.2323867E-25
   6.570000      1.2176111E-25
   6.580000      1.1972554E-25
   6.590000      1.1709979E-25
   6.600000      1.1385157E-25
   6.610000      1.0994867E-25
   6.620000      1.0535908E-25
   6.630000      1.0005105E-25
   6.640000      9.3993301E-26
   6.650000      8.7155146E-26
   6.660000      7.9506659E-26
   6.670000      7.1018818E-26
   6.680000      6.1663692E-26
   6.690000      5.1414583E-26
   6.700000      4.0246257E-26
   6.710000      2.8135106E-26
   6.720000      1.5059353E-26
   6.730000      9.9925315E-28
   6.740000     -1.4062700E-26
   6.750000     -3.0141552E-26
   6.760000     -4.7249634E-26
   6.770000     -6.5396353E-26
   6.780000     -8.4588002E-26
   6.790000     -1.0482749E-25
   6.800000     -1.2611415E-25
   6.810000     -1.4844346E-25
   6.820000     -1.7180676E-25
   6.830000     -1.9619105E-25
   6.840000     -2.2157883E-25
   6.850000     -2.4794768E-25
   6.860000     -2.7527013E-25
   6.870000     -3.0351342E-25
   6.880000     -3.3263930E-25
   6.890000     -3.6260371E-25
   6.900000     -3.9335669E-25
   6.910000     -4.2484203E-25
   6.920000     -4.5699723E-25
   6.930000     -4.8975305E-25
   6.940000     -5.2303361E-25
   6.950000     -5.5675589E-25
   6.960000     -5.9082990E-25
   6.970000     -6.2515827E-25
   6.980000     -6.5963637E-25
   6.990000     -6.9415194E-25
   7.000000     -7.2858518E-25
   7.010000     -7.6280868E-25
   7.020000     -7.9668734E-25
   7.030000     -8.3007839E-25
   7.040000     -8.6283141E-25
   7.050000     -8.9478806E-25
   7.060000     -9.2578280E-25