  -2.600000      0.0000000E+00
  -2.590000      0.0000000E+00
  -2.580000      0.0000000E+00
  -2.570000      0.0000000E+00
  -2.560000      0.0000000E+00
  -2.550000      0.0000000E+00
  -2.540000      0.0000000E+00
  -2.530000      0.0000000E+00
  -2.520000      0.0000000E+00
  -2.510000      0.0000000E+00
  -2.500000      0.0000000E+00
  -2.490000      0.0000000E+00
  -2.480000      0.0000000E+00
  -2.470000      0.0000000E+00
  -2.460000      0.0000000E+00
  -2.450000      0.0000000E+00
  -2.440000      0.0000000E+00
  -2.430000      0.0000000E+00
  -2.420000      0.0000000E+00
  -2.410000      0.0000000E+00
  -2.400000      0.0000000E+00
  -2.390000      0.0000000E+00
  -2.380000      0.0000000E+00
  -2.370000      0.0000000E+00
  -2.360000      0.0000000E+00
  -2.350000      0.0000000E+00
  -2.340000      0.0000000E+00
  -2.330000      0.0000000E+00
  -2.320000      0.0000000E+00
  -2.310000      0.0000000E+00
  -2.300000      0.0000000E+00
  -2.290000      0.0000000E+00
  -2.280000      0.0000000E+00
  -2.270000      0.0000000E+00
  -2.260000      0.0000000E+00
  -2.250000      0.0000000E+00
  -2.240000      0.0000000E+00
  -2.230000      0.0000000E+00
  -2.220000      0.0000000E+00
  -2.210000      0.0000000E+00
  -2.200000      0.0000000E+00
  -2.190000      0.0000000E+00
  -2.180000      0.0000000E+00
  -2.170000      0.0000000E+00
  -2.160000      0.0000000E+00
  -2.150000      0.0000000E+00
  -2.140000      0.0000000E+00
  -2.130000      0.0000000E+00
  -2.120000      0.0000000E+00
  -2.110000      0.0000000E+00
  -2.100000      0.0000000E+00
  -2.090000      0.0000000E+00
  -2.080000      0.0000000E+00
  -2.070000      0.0000000E+00
  -2.060000      0.0000000E+00
  -2.050000      0.0000000E+00
  -2.040000      0.0000000E+00
  -2.030000      0.0000000E+00
  -2.020000      0.0000000E+00
  -2.010000      0.0000000E+00
  -2.000000      0.0000000E+00
  -1.990000      0.0000000E+00
  -1.980000      0.0000000E+00
  -1.970000      0.0000000E+00
  -1.960000      0.0000000E+00
  -1.950000      0.0000000E+00
  -1.940000      0.0000000E+00
  -1.930000      0.0000000E+00
  -1.920000      0.0000000E+00
  -1.910000      0.0000000E+00
  -1.900000      0.0000000E+00
  -1.890000      0.0000000E+00
  -1.880000      0.0000000E+00
  -1.870000      0.0000000E+00
  -1.860000      0.0000000E+00
  -1.850000      0.0000000E+00
  -1.840000      0.0000000E+00
  -1.830000      0.0000000E+00
  -1.820000      0.0000000E+00
  -1.810000      0.0000000E+00
  -1.800000      0.0000000E+00
  -1.790000      0.0000000E+00
  -1.780000      0.0000000E+00
  -1.770000      0.0000000E+00
  -1.760000      0.0000000E+00
  -1.750000      0.0000000E+00
  -1.740000      0.0000000E+00
  -1.730000      0.0000000E+00
  -1.720000      0.0000000E+00
  -1.710000      0.0000000E+00
  -1.700000      0.0000000E+00
  -1.690000      0.0000000E+00
  -1.680000      0.0000000E+00
  -1.670000      0.0000000E+00
  -1.660000      0.0000000E+00
  -1.650000      0.0000000E+00
  -1.640000      0.0000000E+00
  -1.630000      0.0000000E+00
  -1.620000      0.0000000E+00
  -1.610000      0.0000000E+00
  -1.600000      0.0000000E+00
  -1.590000      0.0000000E+00
  -1.580000      0.0000000E+00
  -1.570000      0.0000000E+00
  -1.560000      0.0000000E+00
  -1.550000      0.0000000E+00
  -1.540000      0.0000000E+00
  -1.530000      0.0000000E+00
  -1.520000      0.0000000E+00
  -1.510000      0.0000000E+00
  -1.500000      0.0000000E+00
  -1.490000      0.0000000E+00
  -1.480000      0.0000000E+00
  -1.470000      0.0000000E+00
  -1.460000      0.0000000E+00
  -1.450000      0.0000000E+00
  -1.440000      0.0000000E+00
  -1.430000      0.0000000E+00
  -1.420000      0.0000000E+00
  -1.410000      0.0000000E+00
  -1.400000      0.0000000E+00
  -1.390000      0.0000000E+00
  -1.380000      0.0000000E+00
  -1.370000      0.0000000E+00
  -1.360000      0.0000000E+00
  -1.350000      0.0000000E+00
  -1.340000      0.0000000E+00
  -1.330000      0.0000000E+00
  -1.320000      0.0000000E+00
  -1.310000      0.0000000E+00
  -1.300000      0.0000000E+00
  -1.290000      0.0000000E+00
  -1.280000      0.0000000E+00
  -1.270000      0.0000000E+00
  -1.260000      0.0000000E+00
  -1.250000      0.0000000E+00
  -1.240000      0.0000000E+00
  -1.230000      0.0000000E+00
  -1.220000      0.0000000E+00
  -1.210000      0.0000000E+00
  -1.200000      0.0000000E+00
  -1.190000      0.0000000E+00
  -1.180000      0.0000000E+00
  -1.170000      0.0000000E+00
  -1.160000      0.0000000E+00
  -1.150000      0.0000000E+00
  -1.140000      0.0000000E+00
  -1.130000      0.0000000E+00
  -1.120000      0.0000000E+00
  -1.110000      0.0000000E+00
  -1.100000      0.0000000E+00
  -1.090000      0.0000000E+00
  -1.080000      0.0000000E+00
  -1.070000      0.0000000E+00
  -1.060000      0.0000000E+00
  -1.050000      0.0000000E+00
  -1.040000      0.0000000E+00
  -1.030000      0.0000000E+00
  -1.020000      0.0000000E+00
  -1.010000      0.0000000E+00
  -1.000000      0.0000000E+00
 -0.9900000      0.0000000E+00
 -0.9800000      0.0000000E+00
 -0.9700000      0.0000000E+00
 -0.9600000      0.0000000E+00
 -0.9500000      0.0000000E+00
 -0.9400000      0.0000000E+00
 -0.9300000      0.0000000E+00
 -0.9200000      0.0000000E+00
 -0.9100000      0.0000000E+00
 -0.9000000      0.0000000E+00
 -0.8900000      0.0000000E+00
 -0.8800000      0.0000000E+00
 -0.8700000      0.0000000E+00
 -0.8600000      0.0000000E+00
 -0.8500000      0.0000000E+00
 -0.8400000      0.0000000E+00
 -0.8300000      0.0000000E+00
 -0.8200000      0.0000000E+00
 -0.8100000      0.0000000E+00
 -0.8000000      0.0000000E+00
 -0.7900000      0.0000000E+00
 -0.7800000      0.0000000E+00
 -0.7700000      0.0000000E+00
 -0.7600000      0.0000000E+00
 -0.7500000      0.0000000E+00
 -0.7400000      0.0000000E+00
 -0.7300000      0.0000000E+00
 -0.7200000      0.0000000E+00
 -0.7100000      0.0000000E+00
 -0.7000000      0.0000000E+00
 -0.6900000      0.0000000E+00
 -0.6800000      0.0000000E+00
 -0.6700000      0.0000000E+00
 -0.6600000      0.0000000E+00
 -0.6500000      0.0000000E+00
 -0.6400000      0.0000000E+00
 -0.6300000      0.0000000E+00
 -0.6200000      0.0000000E+00
 -0.6100000      0.0000000E+00
 -0.6000000      0.0000000E+00
 -0.5900000      0.0000000E+00
 -0.5800000      0.0000000E+00
 -0.5700000      0.0000000E+00
 -0.5600000      0.0000000E+00
 -0.5500000      0.0000000E+00
 -0.5400000      0.0000000E+00
 -0.5300000      0.0000000E+00
 -0.5200000      0.0000000E+00
 -0.5100000      0.0000000E+00
 -0.5000000      0.0000000E+00
 -0.4900000      0.0000000E+00
 -0.4800000      0.0000000E+00
 -0.4700000      0.0000000E+00
 -0.4600000      0.0000000E+00
 -0.4500000      0.0000000E+00
 -0.4400000      0.0000000E+00
 -0.4300000      0.0000000E+00
 -0.4200000      0.0000000E+00
 -0.4100000      0.0000000E+00
 -0.4000000      0.0000000E+00
 -0.3900000      0.0000000E+00
 -0.3800000      0.0000000E+00
 -0.3700000      0.0000000E+00
 -0.3600000      0.0000000E+00
 -0.3500000      0.0000000E+00
 -0.3400000      0.0000000E+00
 -0.3300000      0.0000000E+00
 -0.3200000      0.0000000E+00
 -0.3100000      0.0000000E+00
 -0.3000000      0.0000000E+00
 -0.2900000     -1.6368530E-38
 -0.2800000     -2.0622338E-38
 -0.2700000     -2.3781215E-38
 -0.2600000     -2.6328618E-38
 -0.2500000     -2.5442678E-38
 -0.2400000     -1.9289406E-38
 -0.2300000      0.0000000E+00
 -0.2200000      0.0000000E+00
 -0.2100000      2.1892553E-38
 -0.2000000      3.9902464E-38
 -0.1900000      6.0188443E-38
 -0.1800000      8.0783954E-38
 -0.1700000      1.0101594E-37
 -0.1600000      1.1933347E-37
 -0.1500000      1.3214848E-37
 -0.1400000      1.3842245E-37
 -0.1300000      1.3614165E-37
 -0.1200000      1.2228452E-37
 -0.1100000      9.6980279E-38
 -0.1000000      6.0478422E-38
 -9.0000004E-02  1.3489612E-38
 -7.9999998E-02 -4.2530302E-38
 -7.0000000E-02 -1.0560866E-37
 -5.9999999E-02 -1.7486308E-37
 -5.0000001E-02 -2.5101448E-37
 -3.9999999E-02 -3.3166396E-37
 -2.9999999E-02 -4.1187686E-37
 -2.0000000E-02 -4.8474882E-37
 -9.9999998E-03 -5.5775446E-37
 -3.4694470E-17 -6.5119873E-37
  9.9999998E-03 -7.5213549E-37
  2.0000000E-02 -8.3699696E-37
  2.9999999E-02 -9.0218869E-37
  3.9999999E-02 -9.3503127E-37
  5.0000001E-02 -9.2488694E-37
  5.9999999E-02 -8.0347916E-37
  7.0000000E-02 -5.5916396E-37
  7.9999998E-02 -2.2516970E-37
  9.0000004E-02  2.1607861E-37
  0.1000000      7.7516674E-37
  0.1100000      1.4761991E-36
  0.1200000      2.3258801E-36
  0.1300000      3.3009527E-36
  0.1400000      4.3289617E-36
  0.1500000      5.3757834E-36
  0.1600000      6.3046776E-36
  0.1700000      6.9995387E-36
  0.1800000      7.5077986E-36
  0.1900000      7.7701403E-36
  0.2000000      7.5612175E-36
  0.2100000      6.8130330E-36
  0.2200000      5.5727436E-36
  0.2300000      3.6192591E-36
  0.2400000      8.7900327E-37
  0.2500000     -2.7006759E-36
  0.2600000     -7.3108466E-36
  0.2700000     -1.3063142E-35
  0.2800000     -2.0071555E-35
  0.2900000     -2.8376520E-35
  0.3000000     -3.8016446E-35
  0.3100000     -4.9124586E-35
  0.3200000     -6.1724588E-35
  0.3300000     -7.5852136E-35
  0.3400000     -9.1560529E-35
  0.3500000     -1.0862852E-34
  0.3600000     -1.2666841E-34
  0.3700000     -1.4547234E-34
  0.3800000     -1.6512049E-34
  0.3900000     -1.8550686E-34
  0.4000000     -2.0653849E-34
  0.4100000     -2.2993643E-34
  0.4200000     -2.5483028E-34
  0.4300000     -2.7931220E-34
  0.4400000     -3.0104980E-34
  0.4500000     -3.1955173E-34
  0.4600000     -3.3816495E-34
  0.4700000     -3.5616948E-34
  0.4800000     -3.7214406E-34
  0.4900000     -3.8646048E-34
  0.5000000     -4.0324769E-34
  0.5100000     -4.2025645E-34
  0.5200000     -4.3226486E-34
  0.5300000     -4.3954530E-34
  0.5400000     -4.4085203E-34
  0.5500000     -4.3599990E-34
  0.5600000     -4.2523219E-34
  0.5700000     -4.0878335E-34
  0.5800000     -3.8548349E-34
  0.5900000     -3.5418501E-34
  0.6000000     -3.2384596E-34
  0.6100000     -2.9876323E-34
  0.6200000     -2.7022505E-34
  0.6300000     -2.3384504E-34
  0.6400000     -1.8919135E-34
  0.6500000     -1.3923251E-34
  0.6600000     -8.4763130E-35
  0.6700000     -2.3067652E-35
  0.6800000      4.5393775E-35
  0.6900000      1.2118883E-34
  0.7000000      2.0320323E-34
  0.7100000      2.9163944E-34
  0.7200000      3.8742154E-34
  0.7300000      4.8883107E-34
  0.7400000      5.9503423E-34
  0.7500000      7.0463517E-34
  0.7600000      8.1701743E-34
  0.7700000      9.3007335E-34
  0.7800000      1.0414356E-33
  0.7900000      1.1510432E-33
  0.8000000      1.2569035E-33
  0.8100000      1.3578167E-33
  0.8200000      1.4528101E-33
  0.8300000      1.5423176E-33
  0.8400000      1.6230155E-33
  0.8500000      1.6932388E-33
  0.8600000      1.7563522E-33
  0.8700000      1.8119933E-33
  0.8800000      1.8594379E-33
  0.8900000      1.8997107E-33
  0.9000000      1.9355771E-33
  0.9100000      1.9687040E-33
  0.9200000      1.9994964E-33
  0.9300000      2.0291226E-33
  0.9400000      2.0609197E-33
  0.9500000      2.0943748E-33
  0.9600000      2.1295786E-33
  0.9700000      2.1696248E-33
  0.9800000      2.2138625E-33
  0.9900000      2.2621693E-33
   1.000000      2.3156320E-33
   1.010000      2.3737560E-33
   1.020000      2.4364095E-33
   1.030000      2.5020855E-33
   1.040000      2.5716418E-33
   1.050000      2.6461605E-33
   1.060000      2.7226093E-33
   1.070000      2.8025650E-33
   1.080000      2.8904530E-33
   1.090000      2.9880517E-33
   1.100000      3.0980249E-33
   1.110000      3.2165136E-33
   1.120000      3.3491190E-33
   1.130000      3.5066411E-33
   1.140000      3.6914732E-33
   1.150000      3.9100689E-33
   1.160000      4.1690711E-33
   1.170000      4.4752661E-33
   1.180000      4.8354056E-33
   1.190000      5.2559570E-33
   1.200000      5.7427072E-33
   1.210000      6.3009583E-33
   1.220000      6.9345468E-33
   1.230000      7.6459619E-33
   1.240000      8.4367345E-33
   1.250000      9.3072439E-33
   1.260000      1.0255994E-32
   1.270000      1.1279368E-32
   1.280000      1.2373663E-32
   1.290000      1.3534893E-32
   1.300000      1.4758442E-32
   1.310000      1.6039923E-32
   1.320000      1.7375718E-32
   1.330000      1.8763510E-32
   1.340000      2.0202878E-32
   1.350000      2.1695877E-32
   1.360000      2.3247486E-32
   1.370000      2.4865852E-32
   1.380000      2.6562561E-32
   1.390000      2.8352768E-32
   1.400000      3.0255035E-32
   1.410000      3.2291027E-32
   1.420000      3.4485049E-32
   1.430000      3.6863253E-32
   1.440000      3.9452899E-32
   1.450000      4.2281430E-32
   1.460000      4.5375313E-32
   1.470000      4.8758962E-32
   1.480000      5.2455936E-32
   1.490000      5.6481252E-32
   1.500000      6.0844898E-32
   1.510000      6.5555880E-32
   1.520000      7.0615096E-32
   1.530000      7.6017251E-32
   1.540000      8.1751365E-32
   1.550000      8.7801252E-32
   1.560000      9.4146483E-32
   1.570000      1.0076359E-31
   1.580000      1.0762759E-31
   1.590000      1.1471375E-31
   1.600000      1.2199896E-31
   1.610000      1.2946393E-31
   1.620000      1.3709496E-31
   1.630000      1.4488507E-31
   1.640000      1.5283437E-31
   1.650000      1.6095331E-31
   1.660000      1.6926108E-31
   1.670000      1.7778321E-31
   1.680000      1.8655312E-31
   1.690000      1.9560938E-31
   1.700000      2.0499328E-31
   1.710000      2.1474568E-31
   1.720000      2.2490348E-31
   1.730000      2.3549586E-31
   1.740000      2.4654014E-31
   1.750000      2.5803784E-31
   1.760000      2.6997078E-31
   1.770000      2.8229795E-31
   1.780000      2.9495281E-31
   1.790000      3.0784152E-31
   1.800000      3.2084220E-31
   1.810000      3.3380534E-31
   1.820000      3.4655537E-31
   1.830000      3.5889342E-31
   1.840000      3.7060147E-31
   1.850000      3.8144712E-31
   1.860000      3.9118947E-31
   1.870000      3.9958551E-31
   1.880000      4.0639670E-31
   1.890000      4.1139538E-31
   1.900000      4.1437112E-31
   1.910000      4.1513570E-31
   1.920000      4.1352720E-31
   1.930000      4.0941288E-31
   1.940000      4.0268966E-31
   1.950000      3.9328329E-31
   1.960000      3.8114539E-31
   1.970000      3.6624845E-31
   1.980000      3.4857931E-31
   1.990000      3.2813090E-31
   2.000000      3.0489321E-31
   2.010000      2.7884311E-31
   2.020000      2.4993481E-31
   2.030000      2.1809048E-31
   2.040000      1.8319186E-31
   2.050000      1.4507439E-31
   2.060000      1.0352288E-31
   2.070000      5.8270642E-32
   2.080000      9.0017433E-33
   2.090000     -4.4643471E-32
   2.100000     -1.0305923E-31
   2.110000     -1.6666157E-31
   2.120000     -2.3587333E-31
   2.130000     -3.1110598E-31
   2.140000     -3.9273983E-31
   2.150000     -4.8110416E-31
   2.160000     -5.7645655E-31
   2.170000     -6.7896384E-31
   2.180000     -7.8868562E-31
   2.190000     -9.0556050E-31
   2.200000     -1.0293976E-30
   2.210000     -1.1598722E-30
   2.220000     -1.2965273E-30
   2.230000     -1.4387799E-30
   2.240000     -1.5859354E-30
   2.250000     -1.7372059E-30
   2.260000     -1.8917323E-30
   2.270000     -2.0486124E-30
   2.280000     -2.2069295E-30
   2.290000     -2.3657826E-30
   2.300000     -2.5243166E-30
   2.310000     -2.6817476E-30
   2.320000     -2.8373874E-30
   2.330000     -2.9906592E-30
   2.340000     -3.1411086E-30
   2.350000     -3.2884039E-30
   2.360000     -3.4323284E-30
   2.370000     -3.5727671E-30
   2.380000     -3.7096774E-30
   2.390000     -3.8430600E-30
   2.400000     -3.9729170E-30
   2.410000     -4.0992102E-30
   2.420000     -4.2218130E-30
   2.430000     -4.3404661E-30
   2.440000     -4.4547346E-30
   2.450000     -4.5639736E-30
   2.460000     -4.6672983E-30
   2.470000     -4.7635699E-30
   2.480000     -4.8513931E-30
   2.490000     -4.9291273E-30
   2.500000     -4.9949162E-30
   2.510000     -5.0467313E-30
   2.520000     -5.0824294E-30
   2.530000     -5.0998271E-30
   2.540000     -5.0967787E-30
   2.550000     -5.0712711E-30
   2.560000     -5.0215102E-30
   2.570000     -4.9460164E-30
   2.580000     -4.8437089E-30
   2.590000     -4.7139784E-30
   2.600000     -4.5567510E-30
   2.610000     -4.3725249E-30
   2.620000     -4.1623969E-30
   2.630000     -3.9280552E-30
   2.640000     -3.6717512E-30
   2.650000     -3.3962484E-30
   2.660000     -3.1047529E-30
   2.670000     -2.8008132E-30
   2.680000     -2.4882167E-30
   2.690000     -2.1708783E-30
   2.700000     -1.8527188E-30
   2.710000     -1.5375477E-30
   2.720000     -1.2289599E-30
   2.730000     -9.3025548E-31
   2.740000     -6.4437375E-31
   2.750000     -3.7386548E-31
   2.760000     -1.2088810E-31
   2.770000      1.1275301E-31
   2.780000      3.2553104E-31
   2.790000      5.1610188E-31
   2.800000      6.8315918E-31
   2.810000      8.2529126E-31
   2.820000      9.4080192E-31
   2.830000      1.0275335E-30
   2.840000      1.0827008E-30
   2.850000      1.1027339E-30
   2.860000      1.0831464E-30
   2.870000      1.0184575E-30
   2.880000      9.0214019E-31
   2.890000      7.2663691E-31
   2.900000      4.8343799E-31
   2.910000      1.6321806E-31
   2.920000     -2.4398876E-31
   2.930000     -7.4851013E-31
   2.940000     -1.3607330E-30
   2.950000     -2.0907736E-30
   2.960000     -2.9481043E-30
   2.970000     -3.9411738E-30
   2.980000     -5.0770289E-30
   2.990000     -6.3609592E-30
   3.000000     -7.7961885E-30
   3.010000     -9.3836197E-30
   3.020000     -1.1121649E-29
   3.030000     -1.3006032E-29
   3.040000     -1.5029881E-29
   3.050000     -1.7183702E-29
   3.060000     -1.9455540E-29
   3.070000     -2.1831195E-29
   3.080000     -2.4294508E-29
   3.090000     -2.6827665E-29
   3.100000     -2.9411574E-29
   3.110000     -3.2026196E-29
   3.120000     -3.4650871E-29
   3.130000     -3.7264650E-29
   3.140000     -3.9846491E-29
   3.150000     -4.2375358E-29
   3.160000     -4.4830317E-29
   3.170000     -4.7190414E-29
   3.180000     -4.9434448E-29
   3.190000     -5.1540714E-29
   3.200000     -5.3486547E-29
   3.210000     -5.5247804E-29
   3.220000     -5.6798304E-29
   3.230000     -5.8109206E-29
   3.240000     -5.9148432E-29
   3.250000     -5.9880033E-29
   3.260000     -6.0263720E-29
   3.270000     -6.0254530E-29
   3.280000     -5.9802568E-29
   3.290000     -5.8853007E-29
   3.300000     -5.7346105E-29
   3.310000     -5.5217748E-29
   3.320000     -5.2400076E-29
   3.330000     -4.8822162E-29
   3.340000     -4.4411174E-29
   3.350000     -3.9093501E-29
   3.360000     -3.2796222E-29
   3.370000     -2.5448615E-29
   3.380000     -1.6983500E-29
   3.390000     -7.3388915E-30
   3.400000      3.5405751E-30
   3.410000      1.5702324E-29
   3.420000      2.9184567E-29
   3.430000      4.4015399E-29
   3.440000      6.0211985E-29
   3.450000      7.7779885E-29
   3.460000      9.6712919E-29
   3.470000      1.1699306E-28
   3.480000      1.3859041E-28
   3.490000      1.6146362E-28
   3.500000      1.8556011E-28
   3.510000      2.1081648E-28
   3.520000      2.3715889E-28
   3.530000      2.6450317E-28
   3.540000      2.9275498E-28
   3.550000      3.2180944E-28
   3.560000      3.5155044E-28
   3.570000      3.8184999E-28
   3.580000      4.1256679E-28
   3.590000      4.4354441E-28
   3.600000      4.7460937E-28
   3.610000      5.0556855E-28
   3.620000      5.3620673E-28
   3.630000      5.6628369E-28
   3.640000      5.9553081E-28
   3.650000      6.2364890E-28
   3.660000      6.5030517E-28
   3.670000      6.7513070E-28
   3.680000      6.9771824E-28
   3.690000      7.1762090E-28
   3.700000      7.3435131E-28
   3.710000      7.4738129E-28
   3.720000      7.5614200E-28
   3.730000      7.6002593E-28
   3.740000      7.5838807E-28
   3.750000      7.5054934E-28
   3.760000      7.3580009E-28
   3.770000      7.1340292E-28
   3.780000      6.8259758E-28
   3.790000      6.4260554E-28
   3.800000      5.9263464E-28
   3.810000      5.3188321E-28
   3.820000      4.5954561E-28
   3.830000      3.7481551E-28
   3.840000      2.7688996E-28
   3.850000      1.6497380E-28
   3.860000      3.8281378E-29
   3.870000     -1.0396029E-28
   3.880000     -2.6250844E-28
   3.890000     -4.3810361E-28
   3.900000     -6.3146630E-28
   3.910000     -8.4329539E-28
   3.920000     -1.0742650E-27
   3.930000     -1.3250217E-27
   3.940000     -1.5961811E-27
   3.950000     -1.8883212E-27
   3.960000     -2.2019768E-27
   3.970000     -2.5376328E-27
   3.980000     -2.8957148E-27
   3.990000     -3.2765765E-27
   4.000000     -3.6804903E-27
   4.010000     -4.1076315E-27
   4.020000     -4.5580637E-27
   4.030000     -5.0317216E-27
   4.040000     -5.5283962E-27
   4.050000     -6.0477135E-27
   4.060000     -6.5891179E-27
   4.070000     -7.1518523E-27
   4.080000     -7.7349430E-27
   4.090000     -8.3371782E-27
   4.100000     -8.9570957E-27
   4.110000     -9.5929646E-27
   4.120000     -1.0242773E-26
   4.130000     -1.0904214E-26
   4.140000     -1.1574678E-26
   4.150000     -1.2251240E-26
   4.160000     -1.2930655E-26
   4.170000     -1.3609351E-26
   4.180000     -1.4283427E-26
   4.190000     -1.4948638E-26
   4.200000     -1.5600405E-26
   4.210000     -1.6233799E-26
   4.220000     -1.6843549E-26
   4.230000     -1.7424028E-26
   4.240000     -1.7969255E-26
   4.250000     -1.8472885E-26
   4.260000     -1.8928209E-26
   4.270000     -1.9328137E-26
   4.280000     -1.9665202E-26
   4.290000     -1.9931543E-26
   4.300000     -2.0118908E-26
   4.310000     -2.0218647E-26
   4.320000     -2.0221699E-26
   4.330000     -2.0118600E-26
   4.340000     -1.9899475E-26
   4.350000     -1.9554056E-26
   4.360000     -1.9071680E-26
   4.370000     -1.8441300E-26
   4.380000     -1.7651516E-26
   4.390000     -1.6690599E-26
   4.400000     -1.5546515E-26
   4.410000     -1.4206972E-26
   4.420000     -1.2659460E-26
   4.430000     -1.0891302E-26
   4.440000     -8.8897205E-27
   4.450000     -6.6418914E-27
   4.460000     -4.1350128E-27
   4.470000     -1.3563928E-27
   4.480000      1.7065008E-27
   4.490000      5.0659222E-27
   4.500000      8.7338096E-27
   4.510000      1.2721669E-26
   4.520000      1.7040479E-26
   4.530000      2.1700645E-26
   4.540000      2.6711887E-26
   4.550000      3.2083118E-26
   4.560000      3.7822380E-26
   4.570000      4.3936782E-26
   4.580000      5.0432343E-26
   4.590000      5.7313906E-26
   4.600000      6.4585047E-26
   4.610000      7.2247943E-26
   4.620000      8.0303279E-26
   4.630000      8.8750112E-26
   4.640000      9.7585730E-26
   4.650000      1.0680552E-25
   4.660000      1.1640284E-25
   4.670000      1.2636881E-25
   4.680000      1.3669222E-25
   4.690000      1.4735932E-25
   4.700000      1.5835362E-25
   4.710000      1.6965574E-25
   4.720000      1.8124328E-25
   4.730000      1.9309051E-25
   4.740000      2.0516826E-25
   4.750000      2.1744376E-25
   4.760000      2.2988040E-25
   4.770000      2.4243764E-25
   4.780000      2.5507068E-25
   4.790000      2.6773057E-25
   4.800000      2.8036383E-25
   4.810000      2.9291249E-25
   4.820000      3.0531375E-25
   4.830000      3.1750017E-25
   4.840000      3.2939935E-25
   4.850000      3.4093397E-25
   4.860000      3.5202173E-25
   4.870000      3.6257519E-25
   4.880000      3.7250202E-25
   4.890000      3.8170472E-25
   4.900000      3.9008070E-25
   4.910000      3.9752225E-25
   4.920000      4.0391675E-25
   4.930000      4.0914658E-25
   4.940000      4.1308926E-25
   4.950000      4.1561738E-25
   4.960000      4.1659882E-25
   4.970000      4.1589689E-25
   4.980000      4.1337039E-25
   4.990000      4.0887385E-25
   5.000000      4.0225788E-25
   5.010000      3.9336909E-25
   5.020000      3.8205059E-25
   5.030000      3.6814235E-25
   5.040000      3.5148154E-25
   5.050000      3.3190275E-25
   5.060000      3.0923878E-25
   5.070000      2.8332097E-25
   5.080000      2.5397998E-25
   5.090000      2.2104617E-25
   5.100000      1.8435037E-25
   5.110000      1.4372496E-25
   5.120000      9.9004367E-26
   5.130000      5.0026003E-26
   5.140000     -3.3686768E-27
   5.150000     -6.1333270E-26
   5.160000     -1.2401553E-25
   5.170000     -1.9155601E-25
   5.180000     -2.6408709E-25
   5.190000     -3.4173178E-25
   5.200000     -4.2460211E-25
   5.210000     -5.1279829E-25
   5.220000     -6.0640739E-25
   5.230000     -7.0550197E-25
   5.240000     -8.1013855E-25
   5.250000     -9.2035623E-25
   5.260000     -1.0361753E-24
   5.270000     -1.1575955E-24
   5.280000     -1.2845949E-24
   5.290000     -1.4171280E-24
   5.300000     -1.5551239E-24
   5.310000     -1.6984848E-24
   5.320000     -1.8470849E-24
   5.330000     -2.0007676E-24
   5.340000     -2.1593448E-24
   5.350000     -2.3225943E-24
   5.360000     -2.4902582E-24
   5.370000     -2.6620411E-24
   5.380000     -2.8376088E-24
   5.390000     -3.0165852E-24
   5.400000     -3.1985515E-24
   5.410000     -3.3830442E-24
   5.420000     -3.5695538E-24
   5.430000     -3.7575212E-24
   5.440000     -3.9463390E-24
   5.450000     -4.1353481E-24
   5.460000     -4.3238369E-24
   5.470000     -4.5110384E-24
   5.480000     -4.6961308E-24
   5.490000     -4.8782373E-24
   5.500000     -5.0564217E-24
   5.510000     -5.2296911E-24
   5.520000     -5.3969931E-24
   5.530000     -5.5572170E-24
   5.540000     -5.7091919E-24
   5.550000     -5.8516893E-24
   5.560000     -5.9834200E-24
   5.570000     -6.1030354E-24
   5.580000     -6.2091309E-24
   5.590000     -6.3002451E-24
   5.600000     -6.3748591E-24
   5.610000     -6.4313992E-24
   5.620000     -6.4682409E-24
   5.630000     -6.4837085E-24
   5.640000     -6.4760767E-24
   5.650000     -6.4435764E-24
   5.660000     -6.3843961E-24
   5.670000     -6.2966846E-24
   5.680000     -6.1785562E-24
   5.690000     -6.0280940E-24
   5.700000     -5.8433542E-24
   5.710000     -5.6223746E-24
   5.720000     -5.3631758E-24
   5.730000     -5.0637715E-24
   5.740000     -4.7221715E-24
   5.750000     -4.3363901E-24
   5.760000     -3.9044572E-24
   5.770000     -3.4244203E-24
   5.780000     -2.8943589E-24
   5.790000     -2.3123903E-24
   5.800000     -1.6766836E-24
   5.810000     -9.8546575E-25
   5.820000     -2.3703431E-25
   5.830000      5.7023023E-25
   5.840000      1.4378543E-24
   5.850000      2.3672572E-24
   5.860000      3.3597377E-24
   5.870000      4.4164603E-24
   5.880000      5.5384433E-24
   5.890000      6.7265444E-24
   5.900000      7.9814430E-24
   5.910000      9.3036251E-24
   5.920000      1.0693373E-23
   5.930000      1.2150745E-23
   5.940000      1.3675555E-23
   5.950000      1.5267366E-23
   5.960000      1.6925464E-23
   5.970000      1.8648847E-23
   5.980000      2.0436204E-23
   5.990000      2.2285895E-23
   6.000000      2.4195943E-23
   6.010000      2.6164012E-23
   6.020000      2.8187389E-23
   6.030000      3.0262954E-23
   6.040000      3.2387189E-23
   6.050000      3.4556147E-23
   6.060000      3.6765421E-23
   6.070000      3.9010156E-23
   6.080000      4.1285004E-23
   6.090000      4.3584133E-23
   6.100000      4.5901210E-23
   6.110000      4.8229372E-23
   6.120000      5.0561222E-23
   6.130000      5.2888820E-23
   6.140000      5.5203659E-23
   6.150000      5.7496682E-23
   6.160000      5.9758252E-23
   6.170000      6.1978163E-23
   6.180000      6.4145606E-23
   6.190000      6.6249189E-23
   6.200000      6.8276946E-23
   6.210000      7.0216314E-23
   6.220000      7.2054145E-23
   6.230000      7.3776714E-23
   6.240000      7.5369746E-23
   6.250000      7.6818360E-23
   6.260000      7.8107176E-23
   6.270000      7.9220265E-23
   6.280000      8.0141187E-23
   6.290000      8.0853011E-23
   6.300000      8.1338337E-23
   6.310000      8.1579344E-23
   6.320000      8.1557805E-23
   6.330000      8.1255116E-23
   6.340000      8.0652369E-23
   6.350000      7.9730329E-23
   6.360000      7.8469534E-23
   6.370000      7.6850343E-23
   6.380000      7.4852986E-23
   6.390000      7.2457600E-23
   6.400000      6.9644320E-23
   6.410000      6.6393342E-23
   6.420000      6.2684989E-23
   6.430000      5.8499798E-23
   6.440000      5.3818565E-23
   6.450000      4.8622480E-23
   6.460000      4.2893201E-23
   6.470000      3.6612928E-23
   6.480000      2.9764530E-23
   6.490000      2.2331628E-23
   6.500000      1.4298703E-23
   6.510000      5.6512343E-24
   6.520000     -3.6242029E-24
   6.530000     -1.3539859E-23
   6.540000     -2.4106628E-23
   6.550000     -3.5333938E-23
   6.560000     -4.7229604E-23
   6.570000     -5.9799696E-23
   6.580000     -7.3048463E-23
   6.590000     -8.6978163E-23
   6.600000     -1.0158889E-22
   6.610000     -1.1687844E-22
   6.620000     -1.3284219E-22
   6.630000     -1.4947296E-22
   6.640000     -1.6676079E-22
   6.650000     -1.8469291E-22
   6.660000     -2.0325358E-22
   6.670000     -2.2242386E-22
   6.680000     -2.4218143E-22
   6.690000     -2.6250060E-22
   6.700000     -2.8335212E-22
   6.710000     -3.0470309E-22
   6.720000     -3.2651657E-22
   6.730000     -3.4875180E-22
   6.740000     -3.7136381E-22
   6.750000     -3.9430350E-22
   6.760000     -4.1751737E-22
   6.770000     -4.4094750E-22
   6.780000     -4.6453149E-22
   6.790000     -4.8820226E-22
   6.800000     -5.1188798E-22
   6.810000     -5.3551226E-22
   6.820000     -5.5899375E-22
   6.830000     -5.8224619E-22
   6.840000     -6.0517864E-22
   6.850000     -6.2769518E-22
   6.860000     -6.4969499E-22
   6.870000     -6.7107233E-22
   6.880000     -6.9171671E-22
   6.890000     -7.1151290E-22
   6.900000     -7.3034096E-22
   6.910000     -7.4807627E-22
   6.920000     -7.6458989E-22
   6.930000     -7.7974844E-22
   6.940000     -7.9341429E-22
   6.950000     -8.0544592E-22
   6.960000     -8.1569813E-22
   6.970000     -8.2402204E-22
   6.980000     -8.3026553E-22
   6.990000     -8.3427344E-22
   7.000000     -8.3588812E-22
   7.010000     -8.3494942E-22
   7.020000     -8.3129531E-22
   7.030000     -8.2476218E-22
   7.040000     -8.1518543E-22
   7.050000     -8.0239968E-22
   7.060000     -7.8623956E-22