  -2.600000      0.0000000E+00
  -2.590000      0.0000000E+00
  -2.580000      0.0000000E+00
  -2.570000      0.0000000E+00
  -2.560000      0.0000000E+00
  -2.550000      0.0000000E+00
  -2.540000      0.0000000E+00
  -2.530000      0.0000000E+00
  -2.520000      0.0000000E+00
  -2.510000      0.0000000E+00
  -2.500000      0.0000000E+00
  -2.490000      0.0000000E+00
  -2.480000      0.0000000E+00
  -2.470000      0.0000000E+00
  -2.460000      0.0000000E+00
  -2.450000      0.0000000E+00
  -2.440000      0.0000000E+00
  -2.430000      0.0000000E+00
  -2.420000      0.0000000E+00
  -2.410000      0.0000000E+00
  -2.400000      0.0000000E+00
  -2.390000      0.0000000E+00
  -2.380000      0.0000000E+00
  -2.370000      0.0000000E+00
  -2.360000      0.0000000E+00
  -2.350000      0.0000000E+00
  -2.340000      0.0000000E+00
  -2.330000      0.0000000E+00
  -2.320000      0.0000000E+00
  -2.310000      0.0000000E+00
  -2.300000      0.0000000E+00
  -2.290000      0.0000000E+00
  -2.280000      0.0000000E+00
  -2.270000      0.0000000E+00
  -2.260000      0.0000000E+00
  -2.250000      0.0000000E+00
  -2.240000      0.0000000E+00
  -2.230000      0.0000000E+00
  -2.220000      0.0000000E+00
  -2.210000      0.0000000E+00
  -2.200000      0.0000000E+00
  -2.190000      0.0000000E+00
  -2.180000      0.0000000E+00
  -2.170000      0.0000000E+00
  -2.160000      0.0000000E+00
  -2.150000      0.0000000E+00
  -2.140000      0.0000000E+00
  -2.130000      0.0000000E+00
  -2.120000      0.0000000E+00
  -2.110000      0.0000000E+00
  -2.100000      0.0000000E+00
  -2.090000      0.0000000E+00
  -2.080000      0.0000000E+00
  -2.070000      0.0000000E+00
  -2.060000      0.0000000E+00
  -2.050000      0.0000000E+00
  -2.040000      0.0000000E+00
  -2.030000      0.0000000E+00
  -2.020000      0.0000000E+00
  -2.010000      0.0000000E+00
  -2.000000      0.0000000E+00
  -1.990000      0.0000000E+00
  -1.980000      0.0000000E+00
  -1.970000      0.0000000E+00
  -1.960000      0.0000000E+00
  -1.950000      0.0000000E+00
  -1.940000      0.0000000E+00
  -1.930000      0.0000000E+00
  -1.920000      0.0000000E+00
  -1.910000      0.0000000E+00
  -1.900000      0.0000000E+00
  -1.890000      0.0000000E+00
  -1.880000      0.0000000E+00
  -1.870000      0.0000000E+00
  -1.860000      0.0000000E+00
  -1.850000      0.0000000E+00
  -1.840000      0.0000000E+00
  -1.830000      0.0000000E+00
  -1.820000      0.0000000E+00
  -1.810000      0.0000000E+00
  -1.800000      0.0000000E+00
  -1.790000      0.0000000E+00
  -1.780000      0.0000000E+00
  -1.770000      0.0000000E+00
  -1.760000      0.0000000E+00
  -1.750000      0.0000000E+00
  -1.740000      0.0000000E+00
  -1.730000      0.0000000E+00
  -1.720000      0.0000000E+00
  -1.710000      0.0000000E+00
  -1.700000      0.0000000E+00
  -1.690000      0.0000000E+00
  -1.680000      0.0000000E+00
  -1.670000      0.0000000E+00
  -1.660000      0.0000000E+00
  -1.650000      0.0000000E+00
  -1.640000      0.0000000E+00
  -1.630000      0.0000000E+00
  -1.620000      0.0000000E+00
  -1.610000      0.0000000E+00
  -1.600000      0.0000000E+00
  -1.590000      0.0000000E+00
  -1.580000      0.0000000E+00
  -1.570000      0.0000000E+00
  -1.560000      0.0000000E+00
  -1.550000      0.0000000E+00
  -1.540000      0.0000000E+00
  -1.530000      0.0000000E+00
  -1.520000      0.0000000E+00
  -1.510000      0.0000000E+00
  -1.500000      0.0000000E+00
  -1.490000      0.0000000E+00
  -1.480000      0.0000000E+00
  -1.470000      0.0000000E+00
  -1.460000      0.0000000E+00
  -1.450000      0.0000000E+00
  -1.440000      0.0000000E+00
  -1.430000      0.0000000E+00
  -1.420000      0.0000000E+00
  -1.410000      0.0000000E+00
  -1.400000      0.0000000E+00
  -1.390000      0.0000000E+00
  -1.380000      0.0000000E+00
  -1.370000      0.0000000E+00
  -1.360000      0.0000000E+00
  -1.350000      0.0000000E+00
  -1.340000      0.0000000E+00
  -1.330000      0.0000000E+00
  -1.320000      0.0000000E+00
  -1.310000      0.0000000E+00
  -1.300000      0.0000000E+00
  -1.290000      0.0000000E+00
  -1.280000      0.0000000E+00
  -1.270000      0.0000000E+00
  -1.260000      0.0000000E+00
  -1.250000      0.0000000E+00
  -1.240000      0.0000000E+00
  -1.230000      0.0000000E+00
  -1.220000      0.0000000E+00
  -1.210000      0.0000000E+00
  -1.200000      0.0000000E+00
  -1.190000      0.0000000E+00
  -1.180000      0.0000000E+00
  -1.170000      0.0000000E+00
  -1.160000      0.0000000E+00
  -1.150000      0.0000000E+00
  -1.140000      0.0000000E+00
  -1.130000      0.0000000E+00
  -1.120000      0.0000000E+00
  -1.110000      0.0000000E+00
  -1.100000      0.0000000E+00
  -1.090000      0.0000000E+00
  -1.080000      0.0000000E+00
  -1.070000      0.0000000E+00
  -1.060000      0.0000000E+00
  -1.050000      0.0000000E+00
  -1.040000      0.0000000E+00
  -1.030000      0.0000000E+00
  -1.020000      0.0000000E+00
  -1.010000      0.0000000E+00
  -1.000000      0.0000000E+00
 -0.9900000      0.0000000E+00
 -0.9800000      0.0000000E+00
 -0.9700000      0.0000000E+00
 -0.9600000      0.0000000E+00
 -0.9500000      0.0000000E+00
 -0.9400000      0.0000000E+00
 -0.9300000      0.0000000E+00
 -0.9200000      0.0000000E+00
 -0.9100000      0.0000000E+00
 -0.9000000      0.0000000E+00
 -0.8900000      0.0000000E+00
 -0.8800000      0.0000000E+00
 -0.8700000      0.0000000E+00
 -0.8600000      0.0000000E+00
 -0.8500000      0.0000000E+00
 -0.8400000      0.0000000E+00
 -0.8300000      0.0000000E+00
 -0.8200000      0.0000000E+00
 -0.8100000      0.0000000E+00
 -0.8000000      0.0000000E+00
 -0.7900000      0.0000000E+00
 -0.7800000      0.0000000E+00
 -0.7700000      0.0000000E+00
 -0.7600000      0.0000000E+00
 -0.7500000      0.0000000E+00
 -0.7400000      0.0000000E+00
 -0.7300000      0.0000000E+00
 -0.7200000      0.0000000E+00
 -0.7100000      0.0000000E+00
 -0.7000000      0.0000000E+00
 -0.6900000      0.0000000E+00
 -0.6800000      0.0000000E+00
 -0.6700000      0.0000000E+00
 -0.6600000      0.0000000E+00
 -0.6500000      0.0000000E+00
 -0.6400000      0.0000000E+00
 -0.6300000      0.0000000E+00
 -0.6200000      0.0000000E+00
 -0.6100000      0.0000000E+00
 -0.6000000      0.0000000E+00
 -0.5900000      0.0000000E+00
 -0.5800000      0.0000000E+00
 -0.5700000      0.0000000E+00
 -0.5600000      0.0000000E+00
 -0.5500000      0.0000000E+00
 -0.5400000      0.0000000E+00
 -0.5300000      0.0000000E+00
 -0.5200000      0.0000000E+00
 -0.5100000      0.0000000E+00
 -0.5000000      0.0000000E+00
 -0.4900000      0.0000000E+00
 -0.4800000      0.0000000E+00
 -0.4700000      0.0000000E+00
 -0.4600000      0.0000000E+00
 -0.4500000      0.0000000E+00
 -0.4400000      0.0000000E+00
 -0.4300000      0.0000000E+00
 -0.4200000      0.0000000E+00
 -0.4100000      0.0000000E+00
 -0.4000000      0.0000000E+00
 -0.3900000      0.0000000E+00
 -0.3800000      0.0000000E+00
 -0.3700000      0.0000000E+00
 -0.3600000      0.0000000E+00
 -0.3500000      0.0000000E+00
 -0.3400000      0.0000000E+00
 -0.3300000      0.0000000E+00
 -0.3200000      0.0000000E+00
 -0.3100000      0.0000000E+00
 -0.3000000      0.0000000E+00
 -0.2900000      0.0000000E+00
 -0.2800000      0.0000000E+00
 -0.2700000      0.0000000E+00
 -0.2600000      0.0000000E+00
 -0.2500000      0.0000000E+00
 -0.2400000      0.0000000E+00
 -0.2300000      0.0000000E+00
 -0.2200000      0.0000000E+00
 -0.2100000      0.0000000E+00
 -0.2000000      0.0000000E+00
 -0.1900000      0.0000000E+00
 -0.1800000      0.0000000E+00
 -0.1700000      0.0000000E+00
 -0.1600000      0.0000000E+00
 -0.1500000      0.0000000E+00
 -0.1400000      0.0000000E+00
 -0.1300000      0.0000000E+00
 -0.1200000      0.0000000E+00
 -0.1100000      0.0000000E+00
 -0.1000000      0.0000000E+00
 -9.0000004E-02  0.0000000E+00
 -7.9999998E-02  0.0000000E+00
 -7.0000000E-02  0.0000000E+00
 -5.9999999E-02  0.0000000E+00
 -5.0000001E-02  0.0000000E+00
 -3.9999999E-02  0.0000000E+00
 -2.9999999E-02  0.0000000E+00
 -2.0000000E-02  0.0000000E+00
 -9.9999998E-03  0.0000000E+00
 -3.4694470E-17  0.0000000E+00
  9.9999998E-03  0.0000000E+00
  2.0000000E-02  0.0000000E+00
  2.9999999E-02  0.0000000E+00
  3.9999999E-02  0.0000000E+00
  5.0000001E-02  0.0000000E+00
  5.9999999E-02  0.0000000E+00
  7.0000000E-02  0.0000000E+00
  7.9999998E-02  0.0000000E+00
  9.0000004E-02  0.0000000E+00
  0.1000000      0.0000000E+00
  0.1100000      0.0000000E+00
  0.1200000      0.0000000E+00
  0.1300000      0.0000000E+00
  0.1400000      0.0000000E+00
  0.1500000      0.0000000E+00
  0.1600000      0.0000000E+00
  0.1700000      0.0000000E+00
  0.1800000      0.0000000E+00
  0.1900000      0.0000000E+00
  0.2000000      0.0000000E+00
  0.2100000      0.0000000E+00
  0.2200000      0.0000000E+00
  0.2300000      0.0000000E+00
  0.2400000      0.0000000E+00
  0.2500000      0.0000000E+00
  0.2600000      0.0000000E+00
  0.2700000      0.0000000E+00
  0.2800000      0.0000000E+00
  0.2900000      0.0000000E+00
  0.3000000      0.0000000E+00
  0.3100000      0.0000000E+00
  0.3200000      0.0000000E+00
  0.3300000      0.0000000E+00
  0.3400000      0.0000000E+00
  0.3500000      0.0000000E+00
  0.3600000      0.0000000E+00
  0.3700000      0.0000000E+00
  0.3800000      0.0000000E+00
  0.3900000      0.0000000E+00
  0.4000000      0.0000000E+00
  0.4100000      0.0000000E+00
  0.4200000      0.0000000E+00
  0.4300000      0.0000000E+00
  0.4400000      0.0000000E+00
  0.4500000      0.0000000E+00
  0.4600000      0.0000000E+00
  0.4700000      0.0000000E+00
  0.4800000      0.0000000E+00
  0.4900000      0.0000000E+00
  0.5000000      0.0000000E+00
  0.5100000      0.0000000E+00
  0.5200000      0.0000000E+00
  0.5300000      0.0000000E+00
  0.5400000      0.0000000E+00
  0.5500000      0.0000000E+00
  0.5600000      0.0000000E+00
  0.5700000      0.0000000E+00
  0.5800000      0.0000000E+00
  0.5900000      0.0000000E+00
  0.6000000      0.0000000E+00
  0.6100000      0.0000000E+00
  0.6200000      0.0000000E+00
  0.6300000      0.0000000E+00
  0.6400000      0.0000000E+00
  0.6500000      0.0000000E+00
  0.6600000      0.0000000E+00
  0.6700000      0.0000000E+00
  0.6800000      0.0000000E+00
  0.6900000      0.0000000E+00
  0.7000000      0.0000000E+00
  0.7100000      0.0000000E+00
  0.7200000      0.0000000E+00
  0.7300000      0.0000000E+00
  0.7400000      0.0000000E+00
  0.7500000      0.0000000E+00
  0.7600000      0.0000000E+00
  0.7700000      0.0000000E+00
  0.7800000      0.0000000E+00
  0.7900000      0.0000000E+00
  0.8000000      0.0000000E+00
  0.8100000      0.0000000E+00
  0.8200000      0.0000000E+00
  0.8300000      0.0000000E+00
  0.8400000      0.0000000E+00
  0.8500000      0.0000000E+00
  0.8600000      0.0000000E+00
  0.8700000      0.0000000E+00
  0.8800000      0.0000000E+00
  0.8900000      0.0000000E+00
  0.9000000      0.0000000E+00
  0.9100000      0.0000000E+00
  0.9200000      0.0000000E+00
  0.9300000      0.0000000E+00
  0.9400000      0.0000000E+00
  0.9500000      0.0000000E+00
  0.9600000      0.0000000E+00
  0.9700000      0.0000000E+00
  0.9800000      0.0000000E+00
  0.9900000      0.0000000E+00
   1.000000      0.0000000E+00
   1.010000      0.0000000E+00
   1.020000      0.0000000E+00
   1.030000      0.0000000E+00
   1.040000      0.0000000E+00
   1.050000      0.0000000E+00
   1.060000      0.0000000E+00
   1.070000      0.0000000E+00
   1.080000      0.0000000E+00
   1.090000      0.0000000E+00
   1.100000      0.0000000E+00
   1.110000      0.0000000E+00
   1.120000      0.0000000E+00
   1.130000      0.0000000E+00
   1.140000      0.0000000E+00
   1.150000      0.0000000E+00
   1.160000      0.0000000E+00
   1.170000      0.0000000E+00
   1.180000      0.0000000E+00
   1.190000      0.0000000E+00
   1.200000      0.0000000E+00
   1.210000      0.0000000E+00
   1.220000      0.0000000E+00
   1.230000      0.0000000E+00
   1.240000      0.0000000E+00
   1.250000      0.0000000E+00
   1.260000      0.0000000E+00
   1.270000      0.0000000E+00
   1.280000      0.0000000E+00
   1.290000      0.0000000E+00
   1.300000      0.0000000E+00
   1.310000      0.0000000E+00
   1.320000      0.0000000E+00
   1.330000      0.0000000E+00
   1.340000      0.0000000E+00
   1.350000      0.0000000E+00
   1.360000      0.0000000E+00
   1.370000      0.0000000E+00
   1.380000      0.0000000E+00
   1.390000      0.0000000E+00
   1.400000      0.0000000E+00
   1.410000      0.0000000E+00
   1.420000      0.0000000E+00
   1.430000      0.0000000E+00
   1.440000      0.0000000E+00
   1.450000      0.0000000E+00
   1.460000      0.0000000E+00
   1.470000      0.0000000E+00
   1.480000      0.0000000E+00
   1.490000      0.0000000E+00
   1.500000      0.0000000E+00
   1.510000      0.0000000E+00
   1.520000      0.0000000E+00
   1.530000      0.0000000E+00
   1.540000      0.0000000E+00
   1.550000      0.0000000E+00
   1.560000      0.0000000E+00
   1.570000      0.0000000E+00
   1.580000      0.0000000E+00
   1.590000      0.0000000E+00
   1.600000      0.0000000E+00
   1.610000      0.0000000E+00
   1.620000      0.0000000E+00
   1.630000      0.0000000E+00
   1.640000      0.0000000E+00
   1.650000      0.0000000E+00
   1.660000      0.0000000E+00
   1.670000      0.0000000E+00
   1.680000      0.0000000E+00
   1.690000      0.0000000E+00
   1.700000      0.0000000E+00
   1.710000      0.0000000E+00
   1.720000      0.0000000E+00
   1.730000      0.0000000E+00
   1.740000      0.0000000E+00
   1.750000      0.0000000E+00
   1.760000      0.0000000E+00
   1.770000      0.0000000E+00
   1.780000      0.0000000E+00
   1.790000      0.0000000E+00
   1.800000      0.0000000E+00
   1.810000      0.0000000E+00
   1.820000      0.0000000E+00
   1.830000      0.0000000E+00
   1.840000      0.0000000E+00
   1.850000      0.0000000E+00
   1.860000      0.0000000E+00
   1.870000      0.0000000E+00
   1.880000      0.0000000E+00
   1.890000      0.0000000E+00
   1.900000      0.0000000E+00
   1.910000      0.0000000E+00
   1.920000      0.0000000E+00
   1.930000      0.0000000E+00
   1.940000      0.0000000E+00
   1.950000      0.0000000E+00
   1.960000      0.0000000E+00
   1.970000      0.0000000E+00
   1.980000      0.0000000E+00
   1.990000      0.0000000E+00
   2.000000      0.0000000E+00
   2.010000      0.0000000E+00
   2.020000      0.0000000E+00
   2.030000      0.0000000E+00
   2.040000      0.0000000E+00
   2.050000      0.0000000E+00
   2.060000      0.0000000E+00
   2.070000      0.0000000E+00
   2.080000      0.0000000E+00
   2.090000      0.0000000E+00
   2.100000      0.0000000E+00
   2.110000      0.0000000E+00
   2.120000      0.0000000E+00
   2.130000      0.0000000E+00
   2.140000      0.0000000E+00
   2.150000      0.0000000E+00
   2.160000      0.0000000E+00
   2.170000      0.0000000E+00
   2.180000      0.0000000E+00
   2.190000      0.0000000E+00
   2.200000      0.0000000E+00
   2.210000      0.0000000E+00
   2.220000      0.0000000E+00
   2.230000      0.0000000E+00
   2.240000      0.0000000E+00
   2.250000      0.0000000E+00
   2.260000      0.0000000E+00
   2.270000      0.0000000E+00
   2.280000      0.0000000E+00
   2.290000      0.0000000E+00
   2.300000      0.0000000E+00
   2.310000      0.0000000E+00
   2.320000      0.0000000E+00
   2.330000      0.0000000E+00
   2.340000      0.0000000E+00
   2.350000      0.0000000E+00
   2.360000      0.0000000E+00
   2.370000      0.0000000E+00
   2.380000      0.0000000E+00
   2.390000      0.0000000E+00
   2.400000      0.0000000E+00
   2.410000      0.0000000E+00
   2.420000      0.0000000E+00
   2.430000      0.0000000E+00
   2.440000      0.0000000E+00
   2.450000      0.0000000E+00
   2.460000      0.0000000E+00
   2.470000      0.0000000E+00
   2.480000      0.0000000E+00
   2.490000      0.0000000E+00
   2.500000      0.0000000E+00
   2.510000      0.0000000E+00
   2.520000      0.0000000E+00
   2.530000      0.0000000E+00
   2.540000      0.0000000E+00
   2.550000      0.0000000E+00
   2.560000      0.0000000E+00
   2.570000      0.0000000E+00
   2.580000      0.0000000E+00
   2.590000      0.0000000E+00
   2.600000      0.0000000E+00
   2.610000      0.0000000E+00
   2.620000      0.0000000E+00
   2.630000      0.0000000E+00
   2.640000      0.0000000E+00
   2.650000      0.0000000E+00
   2.660000      0.0000000E+00
   2.670000      0.0000000E+00
   2.680000      0.0000000E+00
   2.690000      0.0000000E+00
   2.700000      0.0000000E+00
   2.710000      0.0000000E+00
   2.720000      0.0000000E+00
   2.730000     -1.2495283E-38
   2.740000     -1.4324699E-38
   2.750000     -1.6253702E-38
   2.760000     -1.8213707E-38
   2.770000     -2.0384783E-38
   2.780000     -2.2804839E-38
   2.790000     -2.5250642E-38
   2.800000     -2.7516219E-38
   2.810000     -2.9528823E-38
   2.820000     -3.1389083E-38
   2.830000     -3.3068068E-38
   2.840000     -3.4534412E-38
   2.850000     -3.5553885E-38
   2.860000     -3.6297714E-38
   2.870000     -3.6924980E-38
   2.880000     -3.7085243E-38
   2.890000     -3.7439727E-38
   2.900000     -3.8156090E-38
   2.910000     -3.6676588E-38
   2.920000     -3.2771374E-38
   2.930000     -2.8423966E-38
   2.940000     -2.3598379E-38
   2.950000     -1.7883683E-38
   2.960000      0.0000000E+00
   2.970000      0.0000000E+00
   2.980000      0.0000000E+00
   2.990000      1.9234551E-38
   3.000000      3.0792382E-38
   3.010000      4.3259275E-38
   3.020000      5.6599661E-38
   3.030000      6.8240847E-38
   3.040000      7.8769885E-38
   3.050000      8.9914058E-38
   3.060000      9.9940763E-38
   3.070000      1.1006392E-37
   3.080000      1.2065376E-37
   3.090000      1.3186417E-37
   3.100000      1.4406535E-37
   3.110000      1.5327094E-37
   3.120000      1.6119576E-37
   3.130000      1.7207251E-37
   3.140000      1.8307917E-37
   3.150000      1.9418353E-37
   3.160000      2.0140116E-37
   3.170000      2.0318433E-37
   3.180000      2.0473244E-37
   3.190000      2.0695394E-37
   3.200000      2.1250992E-37
   3.210000      2.0766362E-37
   3.220000      1.8812089E-37
   3.230000      1.6076702E-37
   3.240000      1.0923037E-37
   3.250000      3.6598934E-38
   3.260000     -4.7846591E-38
   3.270000     -1.4559137E-37
   3.280000     -2.5734086E-37
   3.290000     -3.8505408E-37
   3.300000     -5.2937971E-37
   3.310000     -6.9146985E-37
   3.320000     -8.5685791E-37
   3.330000     -1.0174829E-36
   3.340000     -1.1781553E-36
   3.350000     -1.3366338E-36
   3.360000     -1.4971901E-36
   3.370000     -1.6610894E-36
   3.380000     -1.8059468E-36
   3.390000     -1.9241237E-36
   3.400000     -2.0348782E-36
   3.410000     -2.1344435E-36
   3.420000     -2.2200546E-36
   3.430000     -2.3030692E-36
   3.440000     -2.3756734E-36
   3.450000     -2.4338997E-36
   3.460000     -2.4817189E-36
   3.470000     -2.5172845E-36
   3.480000     -2.5567350E-36
   3.490000     -2.6098480E-36
   3.500000     -2.6606024E-36
   3.510000     -2.7049021E-36
   3.520000     -2.7483978E-36
   3.530000     -2.7827820E-36
   3.540000     -2.8006955E-36
   3.550000     -2.8147233E-36
   3.560000     -2.8366659E-36
   3.570000     -2.8695886E-36
   3.580000     -2.9046947E-36
   3.590000     -2.8878411E-36
   3.600000     -2.8122834E-36
   3.610000     -2.6935907E-36
   3.620000     -2.4835787E-36
   3.630000     -2.1265801E-36
   3.640000     -1.6196662E-36
   3.650000     -1.0116032E-36
   3.660000     -3.2159647E-37
   3.670000      4.1675594E-37
   3.680000      1.1702146E-36
   3.690000      2.0076016E-36
   3.700000      2.9616020E-36
   3.710000      3.9810218E-36
   3.720000      5.0314050E-36
   3.730000      6.1436239E-36
   3.740000      7.4456037E-36
   3.750000      8.8698905E-36
   3.760000      1.0319149E-35
   3.770000      1.1776229E-35
   3.780000      1.3135815E-35
   3.790000      1.4431782E-35
   3.800000      1.5812615E-35
   3.810000      1.7285428E-35
   3.820000      1.8687576E-35
   3.830000      1.9829330E-35
   3.840000      2.0776488E-35
   3.850000      2.1752768E-35
   3.860000      2.2829680E-35
   3.870000      2.3934190E-35
   3.880000      2.4844888E-35
   3.890000      2.5557801E-35
   3.900000      2.6165405E-35
   3.910000      2.6607785E-35
   3.920000      2.6510830E-35
   3.930000      2.5944569E-35
   3.940000      2.5411740E-35
   3.950000      2.4715113E-35
   3.960000      2.3846048E-35
   3.970000      2.3025593E-35
   3.980000      2.2261250E-35
   3.990000      2.1679052E-35
   4.000000      2.0977390E-35
   4.010000      1.9660066E-35
   4.020000      1.7805832E-35
   4.030000      1.5625625E-35
   4.040000      1.3165306E-35
   4.050000      1.0561024E-35
   4.060000      7.9172587E-36
   4.070000      5.0846276E-36
   4.080000      1.8621145E-36
   4.090000     -1.8464561E-36
   4.100000     -6.0566586E-36
   4.110000     -1.0711107E-35
   4.120000     -1.5975498E-35
   4.130000     -2.2007464E-35
   4.140000     -2.8531484E-35
   4.150000     -3.5465594E-35
   4.160000     -4.3023908E-35
   4.170000     -5.0862906E-35
   4.180000     -5.8899797E-35
   4.190000     -6.7306798E-35
   4.200000     -7.5988374E-35
   4.210000     -8.4622116E-35
   4.220000     -9.3227326E-35
   4.230000     -1.0204430E-34
   4.240000     -1.1095264E-34
   4.250000     -1.1992762E-34
   4.260000     -1.2881895E-34
   4.270000     -1.3762857E-34
   4.280000     -1.4630879E-34
   4.290000     -1.5435381E-34
   4.300000     -1.6145765E-34
   4.310000     -1.6803680E-34
   4.320000     -1.7400144E-34
   4.330000     -1.7903336E-34
   4.340000     -1.8344854E-34
   4.350000     -1.8680681E-34
   4.360000     -1.8804506E-34
   4.370000     -1.8738130E-34
   4.380000     -1.8497300E-34
   4.390000     -1.8088971E-34
   4.400000     -1.7491761E-34
   4.410000     -1.6689295E-34
   4.420000     -1.5703607E-34
   4.430000     -1.4548636E-34
   4.440000     -1.3356302E-34
   4.450000     -1.2089668E-34
   4.460000     -1.0787023E-34
   4.470000     -9.4852137E-35
   4.480000     -8.0726512E-35
   4.490000     -6.5569884E-35
   4.500000     -4.8443241E-35
   4.510000     -2.8479060E-35
   4.520000     -5.8470204E-36
   4.530000      2.0009811E-35
   4.540000      4.9471047E-35
   4.550000      8.2194416E-35
   4.560000      1.1697573E-34
   4.570000      1.5354254E-34
   4.580000      1.9337564E-34
   4.590000      2.3665870E-34
   4.600000      2.8448715E-34
   4.610000      3.3690442E-34
   4.620000      3.9191923E-34
   4.630000      4.4699803E-34
   4.640000      5.0266407E-34
   4.650000      5.6258774E-34
   4.660000      6.2510462E-34
   4.670000      6.8916470E-34
   4.680000      7.5777339E-34
   4.690000      8.2840972E-34
   4.700000      8.9349326E-34
   4.710000      9.5348782E-34
   4.720000      1.0161437E-33
   4.730000      1.0793531E-33
   4.740000      1.1406424E-33
   4.750000      1.2014225E-33
   4.760000      1.2597696E-33
   4.770000      1.3143628E-33
   4.780000      1.3649043E-33
   4.790000      1.4107524E-33
   4.800000      1.4500483E-33
   4.810000      1.4834733E-33
   4.820000      1.5117351E-33
   4.830000      1.5331293E-33
   4.840000      1.5458851E-33
   4.850000      1.5493704E-33
   4.860000      1.5422646E-33
   4.870000      1.5251925E-33
   4.880000      1.4991436E-33
   4.890000      1.4622526E-33
   4.900000      1.4128577E-33
   4.910000      1.3500895E-33
   4.920000      1.2752268E-33
   4.930000      1.1881656E-33
   4.940000      1.0838280E-33
   4.950000      9.5812855E-34
   4.960000      8.1225255E-34
   4.970000      6.4918411E-34
   4.980000      4.6770510E-34
   4.990000      2.6428309E-34
   5.000000      3.7929102E-35
   5.010000     -2.1086821E-34
   5.020000     -4.8433526E-34
   5.030000     -7.8735512E-34
   5.040000     -1.1175833E-33
   5.050000     -1.4723765E-33
   5.060000     -1.8529881E-33
   5.070000     -2.2614092E-33
   5.080000     -2.6961502E-33
   5.090000     -3.1567761E-33
   5.100000     -3.6466483E-33
   5.110000     -4.1628439E-33
   5.120000     -4.6999511E-33
   5.130000     -5.2589898E-33
   5.140000     -5.8403735E-33
   5.150000     -6.4402448E-33
   5.160000     -7.0579752E-33
   5.170000     -7.6917672E-33
   5.180000     -8.3390914E-33
   5.190000     -8.9978568E-33
   5.200000     -9.6654803E-33
   5.210000     -1.0339057E-32
   5.220000     -1.1015460E-32
   5.230000     -1.1691293E-32
   5.240000     -1.2361610E-32
   5.250000     -1.3023832E-32
   5.260000     -1.3677157E-32
   5.270000     -1.4314037E-32
   5.280000     -1.4927031E-32
   5.290000     -1.5512755E-32
   5.300000     -1.6066279E-32
   5.310000     -1.6581118E-32
   5.320000     -1.7050812E-32
   5.330000     -1.7468346E-32
   5.340000     -1.7826340E-32
   5.350000     -1.8117005E-32
   5.360000     -1.8331774E-32
   5.370000     -1.8463637E-32
   5.380000     -1.8504351E-32
   5.390000     -1.8443237E-32
   5.400000     -1.8271811E-32
   5.410000     -1.7981303E-32
   5.420000     -1.7560926E-32
   5.430000     -1.7000126E-32
   5.440000     -1.6289410E-32
   5.450000     -1.5418063E-32
   5.460000     -1.4375051E-32
   5.470000     -1.3151382E-32
   5.480000     -1.1735870E-32
   5.490000     -1.0118053E-32
   5.500000     -8.2882380E-33
   5.510000     -6.2362752E-33
   5.520000     -3.9535302E-33
   5.530000     -1.4310967E-33
   5.540000      1.3397410E-33
   5.550000      4.3665042E-33
   5.560000      7.6562460E-33
   5.570000      1.1215710E-32
   5.580000      1.5050349E-32
   5.590000      1.9165589E-32
   5.600000      2.3565848E-32
   5.610000      2.8253233E-32
   5.620000      3.3230332E-32
   5.630000      3.8498568E-32
   5.640000      4.4057831E-32
   5.650000      4.9905090E-32
   5.660000      5.6035763E-32
   5.670000      6.2445716E-32
   5.680000      6.9127937E-32
   5.690000      7.6073921E-32
   5.700000      8.3272061E-32
   5.710000      9.0708532E-32
   5.720000      9.8368253E-32
   5.730000      1.0623299E-31
   5.740000      1.1428201E-31
   5.750000      1.2249162E-31
   5.760000      1.3083515E-31
   5.770000      1.3928320E-31
   5.780000      1.4780305E-31
   5.790000      1.5635872E-31
   5.800000      1.6491085E-31
   5.810000      1.7341664E-31
   5.820000      1.8182972E-31
   5.830000      1.9010014E-31
   5.840000      1.9817424E-31
   5.850000      2.0599474E-31
   5.860000      2.1350062E-31
   5.870000      2.2062715E-31
   5.880000      2.2730593E-31
   5.890000      2.3346484E-31
   5.900000      2.3902827E-31
   5.910000      2.4391689E-31
   5.920000      2.4804802E-31
   5.930000      2.5133553E-31
   5.940000      2.5369000E-31
   5.950000      2.5501877E-31
   5.960000      2.5522627E-31
   5.970000      2.5421396E-31
   5.980000      2.5188058E-31
   5.990000      2.4812248E-31
   6.000000      2.4283360E-31
   6.010000      2.3590601E-31
   6.020000      2.2722995E-31
   6.030000      2.1669437E-31
   6.040000      2.0418729E-31
   6.050000      1.8959607E-31
   6.060000      1.7280803E-31
   6.070000      1.5371083E-31
   6.080000      1.3219318E-31
   6.090000      1.0814533E-31
   6.100000      8.1459754E-32
   6.110000      5.2031870E-32
   6.120000      1.9760705E-32
   6.130000     -1.5450258E-32
   6.140000     -5.3692227E-32
   6.150000     -9.5050332E-32
   6.160000     -1.3960266E-31
   6.170000     -1.8741927E-31
   6.180000     -2.3856134E-31
   6.190000     -2.9308003E-31
   6.200000     -3.5101547E-31
   6.210000     -4.1239591E-31
   6.220000     -4.7723637E-31
   6.230000     -5.4553757E-31
   6.240000     -6.1728504E-31
   6.250000     -6.9244752E-31
   6.260000     -7.7097632E-31
   6.270000     -8.5280394E-31
   6.280000     -9.3784278E-31
   6.290000     -1.0259841E-30
   6.300000     -1.1170968E-30
   6.310000     -1.2110263E-30
   6.320000     -1.3075933E-30
   6.330000     -1.4065923E-30
   6.340000     -1.5077910E-30
   6.350000     -1.6109285E-30
   6.360000     -1.7157149E-30
   6.370000     -1.8218289E-30
   6.380000     -1.9289181E-30
   6.390000     -2.0365968E-30
   6.400000     -2.1444457E-30
   6.410000     -2.2520100E-30
   6.420000     -2.3587998E-30
   6.430000     -2.4642883E-30
   6.440000     -2.5679112E-30
   6.450000     -2.6690664E-30
   6.460000     -2.7671129E-30
   6.470000     -2.8613714E-30
   6.480000     -2.9511231E-30
   6.490000     -3.0356103E-30
   6.500000     -3.1140361E-30
   6.510000     -3.1855652E-30
   6.520000     -3.2493244E-30
   6.530000     -3.3044030E-30
   6.540000     -3.3498535E-30
   6.550000     -3.3846932E-30
   6.560000     -3.4079063E-30
   6.570000     -3.4184444E-30
   6.580000     -3.4152282E-30
   6.590000     -3.3971520E-30
   6.600000     -3.3630826E-30
   6.610000     -3.3118645E-30
   6.620000     -3.2423230E-30
   6.630000     -3.1532657E-30
   6.640000     -3.0434877E-30
   6.650000     -2.9117746E-30
   6.660000     -2.7569072E-30
   6.670000     -2.5776669E-30
   6.680000     -2.3728379E-30
   6.690000     -2.1412149E-30
   6.700000     -1.8816080E-30
   6.710000     -1.5928490E-30
   6.720000     -1.2737977E-30
   6.730000     -9.2334752E-31
   6.740000     -5.4043390E-31
   6.750000     -1.2404214E-31
   6.760000      3.2678597E-31
   6.770000      8.1294293E-31
   6.780000      1.3352459E-30
   6.790000      1.8944293E-30
   6.800000      2.4911349E-30
   6.810000      3.1259003E-30
   6.820000      3.7991496E-30
   6.830000      4.5111843E-30
   6.840000      5.2621714E-30
   6.850000      6.0521310E-30
   6.860000      6.8809264E-30
   6.870000      7.7482531E-30
   6.880000      8.6536253E-30
   6.890000      9.5963650E-30
   6.900000      1.0575591E-29
   6.910000      1.1590207E-29
   6.920000      1.2638888E-29
   6.930000      1.3720068E-29
   6.940000      1.4831931E-29
   6.950000      1.5972401E-29
   6.960000      1.7139120E-29
   6.970000      1.8329451E-29
   6.980000      1.9540460E-29
   6.990000      2.0768904E-29
   7.000000      2.2011222E-29
   7.010000      2.3263529E-29
   7.020000      2.4521602E-29
   7.030000      2.5780874E-29
   7.040000      2.7036430E-29
   7.050000      2.8282991E-29
   7.060000      2.9514916E-29