  -2.600000      0.0000000E+00
  -2.590000      0.0000000E+00
  -2.580000      0.0000000E+00
  -2.570000      0.0000000E+00
  -2.560000      0.0000000E+00
  -2.550000      0.0000000E+00
  -2.540000      0.0000000E+00
  -2.530000      0.0000000E+00
  -2.520000      0.0000000E+00
  -2.510000      0.0000000E+00
  -2.500000      0.0000000E+00
  -2.490000      0.0000000E+00
  -2.480000      0.0000000E+00
  -2.470000      0.0000000E+00
  -2.460000      0.0000000E+00
  -2.450000      0.0000000E+00
  -2.440000      0.0000000E+00
  -2.430000      0.0000000E+00
  -2.420000      0.0000000E+00
  -2.410000      0.0000000E+00
  -2.400000      0.0000000E+00
  -2.390000      0.0000000E+00
  -2.380000      0.0000000E+00
  -2.370000      0.0000000E+00
  -2.360000      0.0000000E+00
  -2.350000      0.0000000E+00
  -2.340000      0.0000000E+00
  -2.330000      0.0000000E+00
  -2.320000      0.0000000E+00
  -2.310000      0.0000000E+00
  -2.300000      0.0000000E+00
  -2.290000      0.0000000E+00
  -2.280000      0.0000000E+00
  -2.270000      0.0000000E+00
  -2.260000      0.0000000E+00
  -2.250000      0.0000000E+00
  -2.240000      0.0000000E+00
  -2.230000      0.0000000E+00
  -2.220000      0.0000000E+00
  -2.210000      0.0000000E+00
  -2.200000      0.0000000E+00
  -2.190000      0.0000000E+00
  -2.180000      0.0000000E+00
  -2.170000      0.0000000E+00
  -2.160000      0.0000000E+00
  -2.150000      0.0000000E+00
  -2.140000      0.0000000E+00
  -2.130000      0.0000000E+00
  -2.120000      0.0000000E+00
  -2.110000      0.0000000E+00
  -2.100000      0.0000000E+00
  -2.090000      0.0000000E+00
  -2.080000      0.0000000E+00
  -2.070000      0.0000000E+00
  -2.060000      0.0000000E+00
  -2.050000      0.0000000E+00
  -2.040000      0.0000000E+00
  -2.030000      0.0000000E+00
  -2.020000      0.0000000E+00
  -2.010000      0.0000000E+00
  -2.000000      0.0000000E+00
  -1.990000      0.0000000E+00
  -1.980000      0.0000000E+00
  -1.970000      0.0000000E+00
  -1.960000      0.0000000E+00
  -1.950000      0.0000000E+00
  -1.940000      0.0000000E+00
  -1.930000      0.0000000E+00
  -1.920000      0.0000000E+00
  -1.910000      0.0000000E+00
  -1.900000      0.0000000E+00
  -1.890000      0.0000000E+00
  -1.880000      0.0000000E+00
  -1.870000      0.0000000E+00
  -1.860000      0.0000000E+00
  -1.850000      0.0000000E+00
  -1.840000      0.0000000E+00
  -1.830000      0.0000000E+00
  -1.820000      0.0000000E+00
  -1.810000      0.0000000E+00
  -1.800000      0.0000000E+00
  -1.790000      0.0000000E+00
  -1.780000      0.0000000E+00
  -1.770000      0.0000000E+00
  -1.760000      0.0000000E+00
  -1.750000      0.0000000E+00
  -1.740000      0.0000000E+00
  -1.730000      0.0000000E+00
  -1.720000      0.0000000E+00
  -1.710000      0.0000000E+00
  -1.700000      0.0000000E+00
  -1.690000      0.0000000E+00
  -1.680000      0.0000000E+00
  -1.670000      0.0000000E+00
  -1.660000      0.0000000E+00
  -1.650000      0.0000000E+00
  -1.640000      0.0000000E+00
  -1.630000      0.0000000E+00
  -1.620000      0.0000000E+00
  -1.610000      0.0000000E+00
  -1.600000      0.0000000E+00
  -1.590000      0.0000000E+00
  -1.580000      0.0000000E+00
  -1.570000      0.0000000E+00
  -1.560000      0.0000000E+00
  -1.550000      0.0000000E+00
  -1.540000      0.0000000E+00
  -1.530000      0.0000000E+00
  -1.520000      0.0000000E+00
  -1.510000      0.0000000E+00
  -1.500000      0.0000000E+00
  -1.490000      0.0000000E+00
  -1.480000      0.0000000E+00
  -1.470000      0.0000000E+00
  -1.460000      0.0000000E+00
  -1.450000      0.0000000E+00
  -1.440000      0.0000000E+00
  -1.430000      0.0000000E+00
  -1.420000      0.0000000E+00
  -1.410000      0.0000000E+00
  -1.400000      0.0000000E+00
  -1.390000      0.0000000E+00
  -1.380000      0.0000000E+00
  -1.370000      0.0000000E+00
  -1.360000      0.0000000E+00
  -1.350000      0.0000000E+00
  -1.340000      0.0000000E+00
  -1.330000      0.0000000E+00
  -1.320000      0.0000000E+00
  -1.310000      0.0000000E+00
  -1.300000      0.0000000E+00
  -1.290000      0.0000000E+00
  -1.280000      0.0000000E+00
  -1.270000      0.0000000E+00
  -1.260000      0.0000000E+00
  -1.250000      0.0000000E+00
  -1.240000      0.0000000E+00
  -1.230000      0.0000000E+00
  -1.220000      0.0000000E+00
  -1.210000      0.0000000E+00
  -1.200000      0.0000000E+00
  -1.190000      0.0000000E+00
  -1.180000      0.0000000E+00
  -1.170000      0.0000000E+00
  -1.160000      0.0000000E+00
  -1.150000      0.0000000E+00
  -1.140000      0.0000000E+00
  -1.130000      0.0000000E+00
  -1.120000      0.0000000E+00
  -1.110000      0.0000000E+00
  -1.100000      0.0000000E+00
  -1.090000      0.0000000E+00
  -1.080000      0.0000000E+00
  -1.070000      0.0000000E+00
  -1.060000      0.0000000E+00
  -1.050000      0.0000000E+00
  -1.040000      0.0000000E+00
  -1.030000      0.0000000E+00
  -1.020000      0.0000000E+00
  -1.010000      0.0000000E+00
  -1.000000      0.0000000E+00
 -0.9900000      0.0000000E+00
 -0.9800000      0.0000000E+00
 -0.9700000      0.0000000E+00
 -0.9600000      0.0000000E+00
 -0.9500000      0.0000000E+00
 -0.9400000      0.0000000E+00
 -0.9300000      0.0000000E+00
 -0.9200000      0.0000000E+00
 -0.9100000      0.0000000E+00
 -0.9000000      0.0000000E+00
 -0.8900000      0.0000000E+00
 -0.8800000      0.0000000E+00
 -0.8700000      0.0000000E+00
 -0.8600000      0.0000000E+00
 -0.8500000      0.0000000E+00
 -0.8400000      0.0000000E+00
 -0.8300000      0.0000000E+00
 -0.8200000      0.0000000E+00
 -0.8100000      0.0000000E+00
 -0.8000000      0.0000000E+00
 -0.7900000      0.0000000E+00
 -0.7800000      0.0000000E+00
 -0.7700000      0.0000000E+00
 -0.7600000      0.0000000E+00
 -0.7500000      0.0000000E+00
 -0.7400000      0.0000000E+00
 -0.7300000      0.0000000E+00
 -0.7200000      0.0000000E+00
 -0.7100000      0.0000000E+00
 -0.7000000      0.0000000E+00
 -0.6900000      0.0000000E+00
 -0.6800000      0.0000000E+00
 -0.6700000      0.0000000E+00
 -0.6600000      0.0000000E+00
 -0.6500000      0.0000000E+00
 -0.6400000      0.0000000E+00
 -0.6300000      0.0000000E+00
 -0.6200000      0.0000000E+00
 -0.6100000      0.0000000E+00
 -0.6000000      0.0000000E+00
 -0.5900000      0.0000000E+00
 -0.5800000      0.0000000E+00
 -0.5700000      0.0000000E+00
 -0.5600000      0.0000000E+00
 -0.5500000      0.0000000E+00
 -0.5400000      0.0000000E+00
 -0.5300000      0.0000000E+00
 -0.5200000      0.0000000E+00
 -0.5100000      0.0000000E+00
 -0.5000000      0.0000000E+00
 -0.4900000      0.0000000E+00
 -0.4800000      0.0000000E+00
 -0.4700000      0.0000000E+00
 -0.4600000      0.0000000E+00
 -0.4500000      0.0000000E+00
 -0.4400000      0.0000000E+00
 -0.4300000      0.0000000E+00
 -0.4200000      0.0000000E+00
 -0.4100000      0.0000000E+00
 -0.4000000      0.0000000E+00
 -0.3900000      0.0000000E+00
 -0.3800000      0.0000000E+00
 -0.3700000      0.0000000E+00
 -0.3600000      0.0000000E+00
 -0.3500000      0.0000000E+00
 -0.3400000      0.0000000E+00
 -0.3300000      0.0000000E+00
 -0.3200000      0.0000000E+00
 -0.3100000      0.0000000E+00
 -0.3000000      0.0000000E+00
 -0.2900000      0.0000000E+00
 -0.2800000      0.0000000E+00
 -0.2700000      0.0000000E+00
 -0.2600000      0.0000000E+00
 -0.2500000      0.0000000E+00
 -0.2400000      0.0000000E+00
 -0.2300000      0.0000000E+00
 -0.2200000      0.0000000E+00
 -0.2100000      0.0000000E+00
 -0.2000000      0.0000000E+00
 -0.1900000      0.0000000E+00
 -0.1800000      0.0000000E+00
 -0.1700000      0.0000000E+00
 -0.1600000      0.0000000E+00
 -0.1500000      0.0000000E+00
 -0.1400000      0.0000000E+00
 -0.1300000      0.0000000E+00
 -0.1200000      0.0000000E+00
 -0.1100000      0.0000000E+00
 -0.1000000      0.0000000E+00
 -9.0000004E-02  0.0000000E+00
 -7.9999998E-02  0.0000000E+00
 -7.0000000E-02  0.0000000E+00
 -5.9999999E-02  0.0000000E+00
 -5.0000001E-02  0.0000000E+00
 -3.9999999E-02  0.0000000E+00
 -2.9999999E-02  0.0000000E+00
 -2.0000000E-02  0.0000000E+00
 -9.9999998E-03  0.0000000E+00
 -3.4694470E-17  0.0000000E+00
  9.9999998E-03  0.0000000E+00
  2.0000000E-02  0.0000000E+00
  2.9999999E-02  0.0000000E+00
  3.9999999E-02  0.0000000E+00
  5.0000001E-02  0.0000000E+00
  5.9999999E-02  0.0000000E+00
  7.0000000E-02  0.0000000E+00
  7.9999998E-02  0.0000000E+00
  9.0000004E-02  0.0000000E+00
  0.1000000      0.0000000E+00
  0.1100000      0.0000000E+00
  0.1200000      0.0000000E+00
  0.1300000      0.0000000E+00
  0.1400000      0.0000000E+00
  0.1500000      0.0000000E+00
  0.1600000      0.0000000E+00
  0.1700000      0.0000000E+00
  0.1800000      0.0000000E+00
  0.1900000      0.0000000E+00
  0.2000000      0.0000000E+00
  0.2100000      0.0000000E+00
  0.2200000      0.0000000E+00
  0.2300000      0.0000000E+00
  0.2400000      0.0000000E+00
  0.2500000      0.0000000E+00
  0.2600000      0.0000000E+00
  0.2700000      0.0000000E+00
  0.2800000      0.0000000E+00
  0.2900000      0.0000000E+00
  0.3000000      0.0000000E+00
  0.3100000      0.0000000E+00
  0.3200000      0.0000000E+00
  0.3300000      0.0000000E+00
  0.3400000      0.0000000E+00
  0.3500000      0.0000000E+00
  0.3600000      0.0000000E+00
  0.3700000      0.0000000E+00
  0.3800000      0.0000000E+00
  0.3900000      0.0000000E+00
  0.4000000      0.0000000E+00
  0.4100000      0.0000000E+00
  0.4200000      0.0000000E+00
  0.4300000      0.0000000E+00
  0.4400000      0.0000000E+00
  0.4500000      0.0000000E+00
  0.4600000      0.0000000E+00
  0.4700000      0.0000000E+00
  0.4800000      0.0000000E+00
  0.4900000      0.0000000E+00
  0.5000000      0.0000000E+00
  0.5100000      0.0000000E+00
  0.5200000      0.0000000E+00
  0.5300000      0.0000000E+00
  0.5400000      0.0000000E+00
  0.5500000      0.0000000E+00
  0.5600000      0.0000000E+00
  0.5700000      0.0000000E+00
  0.5800000      0.0000000E+00
  0.5900000      0.0000000E+00
  0.6000000      0.0000000E+00
  0.6100000      0.0000000E+00
  0.6200000      0.0000000E+00
  0.6300000      0.0000000E+00
  0.6400000      0.0000000E+00
  0.6500000      0.0000000E+00
  0.6600000      0.0000000E+00
  0.6700000      0.0000000E+00
  0.6800000      0.0000000E+00
  0.6900000      0.0000000E+00
  0.7000000      0.0000000E+00
  0.7100000      0.0000000E+00
  0.7200000      0.0000000E+00
  0.7300000      0.0000000E+00
  0.7400000      0.0000000E+00
  0.7500000      1.7674359E-38
  0.7600000      2.4887974E-38
  0.7700000      3.3221642E-38
  0.7800000      4.2607407E-38
  0.7900000      5.2164647E-38
  0.8000000      6.1690612E-38
  0.8100000      7.1486557E-38
  0.8200000      8.1593350E-38
  0.8300000      9.2102606E-38
  0.8400000      1.0260043E-37
  0.8500000      1.1298267E-37
  0.8600000      1.2346356E-37
  0.8700000      1.3206945E-37
  0.8800000      1.3788725E-37
  0.8900000      1.4113531E-37
  0.9000000      1.4011491E-37
  0.9100000      1.3544408E-37
  0.9200000      1.2901749E-37
  0.9300000      1.2083174E-37
  0.9400000      1.0973967E-37
  0.9500000      9.6529308E-38
  0.9600000      8.0480394E-38
  0.9700000      6.0920694E-38
  0.9800000      3.9301456E-38
  0.9900000      1.5361861E-38
   1.000000      0.0000000E+00
   1.010000     -4.3053578E-38
   1.020000     -8.1059982E-38
   1.030000     -1.2499128E-37
   1.040000     -1.7373535E-37
   1.050000     -2.2582279E-37
   1.060000     -2.8087813E-37
   1.070000     -3.3869536E-37
   1.080000     -3.9843113E-37
   1.090000     -4.6183780E-37
   1.100000     -5.2991655E-37
   1.110000     -6.0114121E-37
   1.120000     -6.7161321E-37
   1.130000     -7.3976954E-37
   1.140000     -8.0687313E-37
   1.150000     -8.6963937E-37
   1.160000     -9.2555275E-37
   1.170000     -9.7311995E-37
   1.180000     -1.0038087E-36
   1.190000     -1.0208923E-36
   1.200000     -1.0548249E-36
   1.210000     -1.0938869E-36
   1.220000     -1.0863878E-36
   1.230000     -1.0245673E-36
   1.240000     -7.9662387E-37
   1.250000     -3.9484941E-37
   1.260000      6.6601278E-38
   1.270000      5.7801562E-37
   1.280000      1.1039417E-36
   1.290000      1.6446738E-36
   1.300000      2.2281284E-36
   1.310000      2.8591145E-36
   1.320000      3.5125323E-36
   1.330000      4.1719259E-36
   1.340000      4.8171000E-36
   1.350000      5.2933801E-36
   1.360000      5.6024675E-36
   1.370000      5.8460891E-36
   1.380000      5.9557242E-36
   1.390000      5.9088831E-36
   1.400000      5.6971929E-36
   1.410000      5.1896120E-36
   1.420000      4.4012771E-36
   1.430000      3.4982444E-36
   1.440000      2.5237580E-36
   1.450000      1.4816499E-36
   1.460000      3.2414917E-37
   1.470000     -1.0121525E-36
   1.480000     -2.4743591E-36
   1.490000     -4.0152280E-36
   1.500000     -5.5702594E-36
   1.510000     -7.1523709E-36
   1.520000     -8.7152367E-36
   1.530000     -1.0172881E-35
   1.540000     -1.1596867E-35
   1.550000     -1.2908545E-35
   1.560000     -1.3891433E-35
   1.570000     -1.4519505E-35
   1.580000     -1.4705528E-35
   1.590000     -1.4540143E-35
   1.600000     -1.4102019E-35
   1.610000     -1.3086076E-35
   1.620000     -1.1527688E-35
   1.630000     -9.6240723E-36
   1.640000     -7.1651087E-36
   1.650000     -4.3013189E-36
   1.660000     -1.7275681E-36
   1.670000      2.9727939E-37
   1.680000      1.7885361E-36
   1.690000      2.7153927E-36
   1.700000      3.5326113E-36
   1.710000      4.5737277E-36
   1.720000      5.6748235E-36
   1.730000      6.8421706E-36
   1.740000      8.1834711E-36
   1.750000      9.8779487E-36
   1.760000      1.1952512E-35
   1.770000      1.4342100E-35
   1.780000      1.7077951E-35
   1.790000      1.9966628E-35
   1.800000      2.2687174E-35
   1.810000      2.6439302E-35
   1.820000      3.5027499E-35
   1.830000      4.7352216E-35
   1.840000      5.9669511E-35
   1.850000      7.2209591E-35
   1.860000      9.2361358E-35
   1.870000      1.1699395E-34
   1.880000      1.3870266E-34
   1.890000      1.6038115E-34
   1.900000      1.8324209E-34
   1.910000      2.0855570E-34
   1.920000      2.2833652E-34
   1.930000      2.4046078E-34
   1.940000      2.5226258E-34
   1.950000      2.6025128E-34
   1.960000      2.6280754E-34
   1.970000      2.6184821E-34
   1.980000      2.5617158E-34
   1.990000      2.4536420E-34
   2.000000      2.2978979E-34
   2.010000      2.0979895E-34
   2.020000      1.8381362E-34
   2.030000      1.5155816E-34
   2.040000      1.1087134E-34
   2.050000      6.4195405E-35
   2.060000      1.1248794E-35
   2.070000     -4.6643292E-35
   2.080000     -1.0514408E-34
   2.090000     -1.6941509E-34
   2.100000     -2.4150961E-34
   2.110000     -3.1739879E-34
   2.120000     -3.9383827E-34
   2.130000     -4.7341667E-34
   2.140000     -5.6042896E-34
   2.150000     -6.5377703E-34
   2.160000     -7.5110416E-34
   2.170000     -8.5090363E-34
   2.180000     -9.5366378E-34
   2.190000     -1.0624983E-33
   2.200000     -1.1775500E-33
   2.210000     -1.2978721E-33
   2.220000     -1.4186875E-33
   2.230000     -1.5376570E-33
   2.240000     -1.6559712E-33
   2.250000     -1.7734957E-33
   2.260000     -1.8892850E-33
   2.270000     -2.0013566E-33
   2.280000     -2.1076498E-33
   2.290000     -2.2066644E-33
   2.300000     -2.2966248E-33
   2.310000     -2.3749508E-33
   2.320000     -2.4399762E-33
   2.330000     -2.4862018E-33
   2.340000     -2.5156189E-33
   2.350000     -2.5256073E-33
   2.360000     -2.5074338E-33
   2.370000     -2.4620760E-33
   2.380000     -2.3875269E-33
   2.390000     -2.2802653E-33
   2.400000     -2.1381157E-33
   2.410000     -1.9585253E-33
   2.420000     -1.7384235E-33
   2.430000     -1.4756998E-33
   2.440000     -1.1687293E-33
   2.450000     -8.1582541E-34
   2.460000     -4.1734880E-34
   2.470000      2.9454103E-35
   2.480000      5.2617598E-34
   2.490000      1.0720152E-33
   2.500000      1.6678599E-33
   2.510000      2.3122723E-33
   2.520000      3.0039705E-33
   2.530000      3.7434529E-33
   2.540000      4.5269724E-33
   2.550000      5.3505399E-33
   2.560000      6.2127080E-33
   2.570000      7.1096999E-33
   2.580000      8.0378092E-33
   2.590000      8.9924973E-33
   2.600000      9.9694344E-33
   2.610000      1.0961807E-32
   2.620000      1.1962094E-32
   2.630000      1.2963997E-32
   2.640000      1.3959552E-32
   2.650000      1.4940063E-32
   2.660000      1.5896019E-32
   2.670000      1.6817135E-32
   2.680000      1.7692430E-32
   2.690000      1.8510114E-32
   2.700000      1.9257723E-32
   2.710000      1.9922124E-32
   2.720000      2.0489488E-32
   2.730000      2.0945430E-32
   2.740000      2.1275031E-32
   2.750000      2.1463021E-32
   2.760000      2.1493832E-32
   2.770000      2.1351646E-32
   2.780000      2.1020596E-32
   2.790000      2.0484908E-32
   2.800000      1.9729033E-32
   2.810000      1.8737818E-32
   2.820000      1.7496553E-32
   2.830000      1.5991518E-32
   2.840000      1.4209918E-32
   2.850000      1.2139818E-32
   2.860000      9.7707127E-33
   2.870000      7.0935883E-33
   2.880000      4.1010871E-33
   2.890000      7.8774836E-34
   2.900000     -2.8498268E-33
   2.910000     -6.8128163E-33
   2.920000     -1.1099982E-32
   2.930000     -1.5707498E-32
   2.940000     -2.0628764E-32
   2.950000     -2.5856036E-32
   2.960000     -3.1374923E-32
   2.970000     -3.7167735E-32
   2.980000     -4.3216982E-32
   2.990000     -4.9499908E-32
   3.000000     -5.5990395E-32
   3.010000     -6.2657757E-32
   3.020000     -6.9467267E-32
   3.030000     -7.6380884E-32
   3.040000     -8.3356015E-32
   3.050000     -9.0345745E-32
   3.060000     -9.7298824E-32
   3.070000     -1.0415960E-31
   3.080000     -1.1086805E-31
   3.090000     -1.1735978E-31
   3.100000     -1.2356616E-31
   3.110000     -1.2941436E-31
   3.120000     -1.3482766E-31
   3.130000     -1.3972555E-31
   3.140000     -1.4402408E-31
   3.150000     -1.4763621E-31
   3.160000     -1.5047216E-31
   3.170000     -1.5243985E-31
   3.180000     -1.5344540E-31
   3.190000     -1.5339373E-31
   3.200000     -1.5218913E-31
   3.210000     -1.4973590E-31
   3.220000     -1.4593913E-31
   3.230000     -1.4070532E-31
   3.240000     -1.3394329E-31
   3.250000     -1.2556493E-31
   3.260000     -1.1548610E-31
   3.270000     -1.0362751E-31
   3.280000     -8.9915691E-32
   3.290000     -7.4283867E-32
   3.300000     -5.6672975E-32
   3.310000     -3.7032683E-32
   3.320000     -1.5322351E-32
   3.330000      8.4879163E-33
   3.340000      3.4416247E-32
   3.350000      6.2467915E-32
   3.360000      9.2634309E-32
   3.370000      1.2489188E-31
   3.380000      1.5920100E-31
   3.390000      1.9550496E-31
   3.400000      2.3372890E-31
   3.410000      2.7377875E-31
   3.420000      3.1554011E-31
   3.430000      3.5887739E-31
   3.440000      4.0363279E-31
   3.450000      4.4962537E-31
   3.460000      4.9665017E-31
   3.470000      5.4447765E-31
   3.480000      5.9285282E-31
   3.490000      6.4149477E-31
   3.500000      6.9009643E-31
   3.510000      7.3832419E-31
   3.520000      7.8581774E-31
   3.530000      8.3219047E-31
   3.540000      8.7702966E-31
   3.550000      9.1989683E-31
   3.560000      9.6032857E-31
   3.570000      9.9783766E-31
   3.580000      1.0319141E-30
   3.590000      1.0620263E-30
   3.600000      1.0876236E-30
   3.610000      1.1081370E-30
   3.620000      1.1229822E-30
   3.630000      1.1315614E-30
   3.640000      1.1332664E-30
   3.650000      1.1274809E-30
   3.660000      1.1135841E-30
   3.670000      1.0909538E-30
   3.680000      1.0589699E-30
   3.690000      1.0170178E-30
   3.700000      9.6449330E-31
   3.710000      9.0080624E-31
   3.720000      8.2538511E-31
   3.730000      7.3768171E-31
   3.740000      6.3717634E-31
   3.750000      5.2338270E-31
   3.760000      3.9585355E-31
   3.770000      2.5418634E-31
   3.780000      9.8029211E-32
   3.790000     -7.2912993E-32
   3.800000     -2.5887244E-31
   3.810000     -4.6001156E-31
   3.820000     -6.7641655E-31
   3.830000     -9.0809026E-31
   3.840000     -1.1549456E-30
   3.850000     -1.4167982E-30
   3.860000     -1.6933594E-30
   3.870000     -1.9842298E-30
   3.880000     -2.2888912E-30
   3.890000     -2.6067007E-30
   3.900000     -2.9368839E-30
   3.910000     -3.2785278E-30
   3.920000     -3.6305769E-30
   3.930000     -3.9918246E-30
   3.940000     -4.3609095E-30
   3.950000     -4.7363109E-30
   3.960000     -5.1163446E-30
   3.970000     -5.4991586E-30
   3.980000     -5.8827293E-30
   3.990000     -6.2648624E-30
   4.000000     -6.6431869E-30
   4.010000     -7.0151577E-30
   4.020000     -7.3780556E-30
   4.030000     -7.7289848E-30
   4.040000     -8.0648775E-30
   4.050000     -8.3824972E-30
   4.060000     -8.6784397E-30
   4.070000     -8.9491374E-30
   4.080000     -9.1908687E-30
   4.090000     -9.3997606E-30
   4.100000     -9.5717996E-30
   4.110000     -9.7028411E-30
   4.120000     -9.7886149E-30
   4.130000     -9.8247442E-30
   4.140000     -9.8067540E-30
   4.150000     -9.7300900E-30
   4.160000     -9.5901305E-30
   4.170000     -9.3822068E-30
   4.180000     -9.1016267E-30
   4.190000     -8.7436911E-30
   4.200000     -8.3037199E-30
   4.210000     -7.7770781E-30
   4.220000     -7.1592037E-30
   4.230000     -6.4456316E-30
   4.240000     -5.6320308E-30
   4.250000     -4.7142387E-30
   4.260000     -3.6882883E-30
   4.270000     -2.5504500E-30
   4.280000     -1.2972693E-30
   4.290000      7.4395168E-32
   4.300000      1.5673291E-30
   4.310000      3.1839222E-30
   4.320000      4.9261237E-30
   4.330000      6.7953978E-30
   4.340000      8.7926774E-30
   4.350000      1.0918322E-29
   4.360000      1.3172065E-29
   4.370000      1.5552971E-29
   4.380000      1.8059385E-29
   4.390000      2.0688890E-29
   4.400000      2.3438253E-29
   4.410000      2.6303379E-29
   4.420000      2.9279266E-29
   4.430000      3.2359947E-29
   4.440000      3.5538460E-29
   4.450000      3.8806793E-29
   4.460000      4.2155832E-29
   4.470000      4.5575330E-29
   4.480000      4.9053854E-29
   4.490000      5.2578754E-29
   4.500000      5.6136115E-29
   4.510000      5.9710719E-29
   4.520000      6.3286034E-29
   4.530000      6.6844153E-29
   4.540000      7.0365782E-29
   4.550000      7.3830236E-29
   4.560000      7.7215370E-29
   4.570000      8.0497642E-29
   4.580000      8.3652045E-29
   4.590000      8.6652132E-29
   4.600000      8.9470020E-29
   4.610000      9.2076418E-29
   4.620000      9.4440623E-29
   4.630000      9.6530570E-29
   4.640000      9.8312868E-29
   4.650000      9.9752849E-29
   4.660000      1.0081463E-28
   4.670000      1.0146118E-28
   4.680000      1.0165437E-28
   4.690000      1.0135513E-28
   4.700000      1.0052347E-28
   4.710000      9.9118635E-29
   4.720000      9.7099237E-29
   4.730000      9.4423374E-29
   4.740000      9.1048777E-29
   4.750000      8.6932963E-29
   4.760000      8.2033397E-29
   4.770000      7.6307728E-29
   4.780000      6.9713915E-29
   4.790000      6.2210498E-29
   4.800000      5.3756785E-29
   4.810000      4.4313117E-29
   4.820000      3.3841126E-29
   4.830000      2.2303964E-29
   4.840000      9.6666351E-30
   4.850000     -4.1037384E-30
   4.860000     -1.9037578E-29
   4.870000     -3.5162555E-29
   4.880000     -5.2503228E-29
   4.890000     -7.1080652E-29
   4.900000     -9.0912061E-29
   4.910000     -1.1201045E-28
   4.920000     -1.3438418E-28
   4.930000     -1.5803660E-28
   4.940000     -1.8296557E-28
   4.950000     -2.0916307E-28
   4.960000     -2.3661477E-28
   4.970000     -2.6529957E-28
   4.980000     -2.9518916E-28
   4.990000     -3.2624755E-28
   5.000000     -3.5843056E-28
   5.010000     -3.9168555E-28
   5.020000     -4.2595075E-28
   5.030000     -4.6115492E-28
   5.040000     -4.9721700E-28
   5.050000     -5.3404550E-28
   5.060000     -5.7153810E-28
   5.070000     -6.0958133E-28
   5.080000     -6.4805015E-28
   5.090000     -6.8680742E-28
   5.100000     -7.2570388E-28
   5.110000     -7.6457743E-28
   5.120000     -8.0325304E-28
   5.130000     -8.4154241E-28
   5.140000     -8.7924393E-28
   5.150000     -9.1614186E-28
   5.160000     -9.5200691E-28
   5.170000     -9.8659555E-28
   5.180000     -1.0196504E-27
   5.190000     -1.0508995E-27
   5.200000     -1.0800570E-27
   5.210000     -1.1068232E-27
   5.220000     -1.1308840E-27
   5.230000     -1.1519120E-27
   5.240000     -1.1695665E-27
   5.250000     -1.1834936E-27
   5.260000     -1.1933268E-27
   5.270000     -1.1986877E-27
   5.280000     -1.1991866E-27
   5.290000     -1.1944233E-27
   5.300000     -1.1839877E-27
   5.310000     -1.1674608E-27
   5.320000     -1.1444161E-27
   5.330000     -1.1144204E-27
   5.340000     -1.0770357E-27
   5.350000     -1.0318200E-27
   5.360000     -9.7832917E-28
   5.370000     -9.1611836E-28
   5.380000     -8.4474456E-28
   5.390000     -7.6376763E-28
   5.400000     -6.7275294E-28
   5.410000     -5.7127382E-28
   5.420000     -4.5891324E-28
   5.430000     -3.3526694E-28
   5.440000     -1.9994592E-28
   5.450000     -5.2578977E-29
   5.460000      1.0718396E-28
   5.470000      2.7966901E-28
   5.480000      4.6517492E-28
   5.490000      6.6396960E-28
   5.500000      8.7628695E-28
   5.510000      1.1023233E-27
   5.520000      1.3422334E-27
   5.530000      1.5961263E-27
   5.540000      1.8640618E-27
   5.550000      2.1460464E-27
   5.560000      2.4420281E-27
   5.570000      2.7518935E-27
   5.580000      3.0754626E-27
   5.590000      3.4124844E-27
   5.600000      3.7626327E-27
   5.610000      4.1255010E-27
   5.620000      4.5005990E-27
   5.630000      4.8873458E-27
   5.640000      5.2850684E-27
   5.650000      5.6929946E-27
   5.660000      6.1102496E-27
   5.670000      6.5358520E-27
   5.680000      6.9687094E-27
   5.690000      7.4076119E-27
   5.700000      7.8512337E-27
   5.710000      8.2981218E-27
   5.720000      8.7466987E-27
   5.730000      9.1952555E-27
   5.740000      9.6419518E-27
   5.750000      1.0084809E-26
   5.760000      1.0521712E-26
   5.770000      1.0950404E-26
   5.780000      1.1368486E-26
   5.790000      1.1773418E-26
   5.800000      1.2162512E-26
   5.810000      1.2532940E-26
   5.820000      1.2881727E-26
   5.830000      1.3205760E-26
   5.840000      1.3501777E-26
   5.850000      1.3766387E-26
   5.860000      1.3996055E-26
   5.870000      1.4187119E-26
   5.880000      1.4335792E-26
   5.890000      1.4438158E-26
   5.900000      1.4490193E-26
   5.910000      1.4487760E-26
   5.920000      1.4426625E-26
   5.930000      1.4302467E-26
   5.940000      1.4110877E-26
   5.950000      1.3847387E-26
   5.960000      1.3507468E-26
   5.970000      1.3086551E-26
   5.980000      1.2580043E-26
   5.990000      1.1983339E-26
   6.000000      1.1291842E-26
   6.010000      1.0500978E-26
   6.020000      9.6062258E-27
   6.030000      8.6031314E-27
   6.040000      7.4873292E-27
   6.050000      6.2545692E-27
   6.060000      4.9007429E-27
   6.070000      3.4219099E-27
   6.080000      1.8143225E-27
   6.090000      7.4460201E-29
   6.100000     -1.8009423E-27
   6.110000     -3.8148635E-27
   6.120000     -5.9699657E-27
   6.130000     -8.2685534E-27
   6.140000     -1.0712544E-26
   6.150000     -1.3303426E-26
   6.160000     -1.6042226E-26
   6.170000     -1.8929477E-26
   6.180000     -2.1965165E-26
   6.190000     -2.5148699E-26
   6.200000     -2.8478871E-26
   6.210000     -3.1953809E-26
   6.220000     -3.5570946E-26
   6.230000     -3.9326966E-26
   6.240000     -4.3217769E-26
   6.250000     -4.7238439E-26
   6.260000     -5.1383188E-26
   6.270000     -5.5645311E-26
   6.280000     -6.0017172E-26
   6.290000     -6.4490149E-26
   6.300000     -6.9054585E-26
   6.310000     -7.3699749E-26
   6.320000     -7.8413840E-26
   6.330000     -8.3183910E-26
   6.340000     -8.7995850E-26
   6.350000     -9.2834347E-26
   6.360000     -9.7682889E-26
   6.370000     -1.0252371E-25
   6.380000     -1.0733776E-25
   6.390000     -1.1210473E-25
   6.400000     -1.1680299E-25
   6.410000     -1.2140963E-25
   6.420000     -1.2590040E-25
   6.430000     -1.3024972E-25
   6.440000     -1.3443075E-25
   6.450000     -1.3841528E-25
   6.460000     -1.4217387E-25
   6.470000     -1.4567578E-25
   6.480000     -1.4888900E-25
   6.490000     -1.5178039E-25
   6.500000     -1.5431554E-25
   6.510000     -1.5645899E-25
   6.520000     -1.5817417E-25
   6.530000     -1.5942353E-25
   6.540000     -1.6016858E-25
   6.550000     -1.6036994E-25
   6.560000     -1.5998751E-25
   6.570000     -1.5898048E-25
   6.580000     -1.5730750E-25
   6.590000     -1.5492676E-25
   6.600000     -1.5179609E-25
   6.610000     -1.4787315E-25
   6.620000     -1.4311555E-25
   6.630000     -1.3748103E-25
   6.640000     -1.3092756E-25
   6.650000     -1.2341358E-25
   6.660000     -1.1489815E-25
   6.670000     -1.0534113E-25
   6.680000     -9.4703485E-26
   6.690000     -8.2947381E-26
   6.700000     -7.0036464E-26
   6.710000     -5.5936093E-26
   6.720000     -4.0613576E-26
   6.730000     -2.4038441E-26
   6.740000     -6.1827104E-27
   6.750000      1.2978868E-26
   6.760000      3.3468518E-26
   6.770000      5.5305146E-26
   6.780000      7.8504054E-26
   6.790000      1.0307660E-25
   6.800000      1.2902994E-25
   6.810000      1.5636667E-25
   6.820000      1.8508457E-25
   6.830000      2.1517623E-25
   6.840000      2.4662871E-25
   6.850000      2.7942328E-25
   6.860000      3.1353506E-25
   6.870000      3.4893265E-25
   6.880000      3.8557800E-25
   6.890000      4.2342582E-25
   6.900000      4.6242341E-25
   6.910000      5.0251041E-25
   6.920000      5.4361835E-25
   6.930000      5.8567055E-25
   6.940000      6.2858167E-25
   6.950000      6.7225745E-25
   6.960000      7.1659454E-25
   6.970000      7.6148043E-25
   6.980000      8.0679270E-25
   6.990000      8.5239951E-25
   7.000000      8.9815896E-25
   7.010000      9.4391881E-25
   7.020000      9.8951704E-25
   7.030000      1.0347811E-24
   7.040000      1.0795279E-24
   7.050000      1.1235644E-24
   7.060000      1.1666869E-24