  -2.600000      0.0000000E+00
  -2.590000      0.0000000E+00
  -2.580000      0.0000000E+00
  -2.570000      0.0000000E+00
  -2.560000      0.0000000E+00
  -2.550000      0.0000000E+00
  -2.540000      0.0000000E+00
  -2.530000      0.0000000E+00
  -2.520000      0.0000000E+00
  -2.510000      0.0000000E+00
  -2.500000      0.0000000E+00
  -2.490000      0.0000000E+00
  -2.480000      0.0000000E+00
  -2.470000      0.0000000E+00
  -2.460000      0.0000000E+00
  -2.450000      0.0000000E+00
  -2.440000      0.0000000E+00
  -2.430000      0.0000000E+00
  -2.420000      0.0000000E+00
  -2.410000      0.0000000E+00
  -2.400000      0.0000000E+00
  -2.390000      0.0000000E+00
  -2.380000      0.0000000E+00
  -2.370000      0.0000000E+00
  -2.360000      0.0000000E+00
  -2.350000      0.0000000E+00
  -2.340000      0.0000000E+00
  -2.330000      0.0000000E+00
  -2.320000      0.0000000E+00
  -2.310000      0.0000000E+00
  -2.300000      0.0000000E+00
  -2.290000      0.0000000E+00
  -2.280000      0.0000000E+00
  -2.270000      0.0000000E+00
  -2.260000      0.0000000E+00
  -2.250000      0.0000000E+00
  -2.240000      0.0000000E+00
  -2.230000      0.0000000E+00
  -2.220000      0.0000000E+00
  -2.210000      0.0000000E+00
  -2.200000      0.0000000E+00
  -2.190000      0.0000000E+00
  -2.180000      0.0000000E+00
  -2.170000      0.0000000E+00
  -2.160000      0.0000000E+00
  -2.150000      0.0000000E+00
  -2.140000      0.0000000E+00
  -2.130000      0.0000000E+00
  -2.120000      0.0000000E+00
  -2.110000      0.0000000E+00
  -2.100000      0.0000000E+00
  -2.090000      0.0000000E+00
  -2.080000      0.0000000E+00
  -2.070000      0.0000000E+00
  -2.060000      0.0000000E+00
  -2.050000      0.0000000E+00
  -2.040000      0.0000000E+00
  -2.030000      0.0000000E+00
  -2.020000      0.0000000E+00
  -2.010000      0.0000000E+00
  -2.000000      0.0000000E+00
  -1.990000      0.0000000E+00
  -1.980000      0.0000000E+00
  -1.970000      0.0000000E+00
  -1.960000      0.0000000E+00
  -1.950000      0.0000000E+00
  -1.940000      0.0000000E+00
  -1.930000      0.0000000E+00
  -1.920000      0.0000000E+00
  -1.910000      0.0000000E+00
  -1.900000      0.0000000E+00
  -1.890000      0.0000000E+00
  -1.880000      0.0000000E+00
  -1.870000      0.0000000E+00
  -1.860000      0.0000000E+00
  -1.850000      0.0000000E+00
  -1.840000      0.0000000E+00
  -1.830000      0.0000000E+00
  -1.820000      0.0000000E+00
  -1.810000      0.0000000E+00
  -1.800000      0.0000000E+00
  -1.790000      0.0000000E+00
  -1.780000      0.0000000E+00
  -1.770000      0.0000000E+00
  -1.760000      0.0000000E+00
  -1.750000      0.0000000E+00
  -1.740000      0.0000000E+00
  -1.730000      0.0000000E+00
  -1.720000      0.0000000E+00
  -1.710000      0.0000000E+00
  -1.700000      0.0000000E+00
  -1.690000      0.0000000E+00
  -1.680000      0.0000000E+00
  -1.670000      0.0000000E+00
  -1.660000      0.0000000E+00
  -1.650000      0.0000000E+00
  -1.640000      0.0000000E+00
  -1.630000      0.0000000E+00
  -1.620000      0.0000000E+00
  -1.610000      0.0000000E+00
  -1.600000      0.0000000E+00
  -1.590000      0.0000000E+00
  -1.580000      0.0000000E+00
  -1.570000      0.0000000E+00
  -1.560000      0.0000000E+00
  -1.550000      0.0000000E+00
  -1.540000      0.0000000E+00
  -1.530000      0.0000000E+00
  -1.520000      0.0000000E+00
  -1.510000      0.0000000E+00
  -1.500000      0.0000000E+00
  -1.490000      0.0000000E+00
  -1.480000      0.0000000E+00
  -1.470000      0.0000000E+00
  -1.460000      0.0000000E+00
  -1.450000      0.0000000E+00
  -1.440000      0.0000000E+00
  -1.430000      0.0000000E+00
  -1.420000      0.0000000E+00
  -1.410000      0.0000000E+00
  -1.400000      0.0000000E+00
  -1.390000      0.0000000E+00
  -1.380000      0.0000000E+00
  -1.370000      0.0000000E+00
  -1.360000      0.0000000E+00
  -1.350000      0.0000000E+00
  -1.340000      0.0000000E+00
  -1.330000      0.0000000E+00
  -1.320000      0.0000000E+00
  -1.310000      0.0000000E+00
  -1.300000      0.0000000E+00
  -1.290000      0.0000000E+00
  -1.280000      0.0000000E+00
  -1.270000      0.0000000E+00
  -1.260000      0.0000000E+00
  -1.250000      0.0000000E+00
  -1.240000      0.0000000E+00
  -1.230000      0.0000000E+00
  -1.220000      0.0000000E+00
  -1.210000      0.0000000E+00
  -1.200000      0.0000000E+00
  -1.190000      0.0000000E+00
  -1.180000      0.0000000E+00
  -1.170000      0.0000000E+00
  -1.160000      0.0000000E+00
  -1.150000      0.0000000E+00
  -1.140000      0.0000000E+00
  -1.130000      0.0000000E+00
  -1.120000      0.0000000E+00
  -1.110000      0.0000000E+00
  -1.100000      0.0000000E+00
  -1.090000      0.0000000E+00
  -1.080000      0.0000000E+00
  -1.070000      0.0000000E+00
  -1.060000      0.0000000E+00
  -1.050000      0.0000000E+00
  -1.040000      0.0000000E+00
  -1.030000      0.0000000E+00
  -1.020000      0.0000000E+00
  -1.010000      0.0000000E+00
  -1.000000      0.0000000E+00
 -0.9900000      0.0000000E+00
 -0.9800000      0.0000000E+00
 -0.9700000      0.0000000E+00
 -0.9600000      0.0000000E+00
 -0.9500000      0.0000000E+00
 -0.9400000      0.0000000E+00
 -0.9300000      0.0000000E+00
 -0.9200000      0.0000000E+00
 -0.9100000      0.0000000E+00
 -0.9000000      0.0000000E+00
 -0.8900000      0.0000000E+00
 -0.8800000      0.0000000E+00
 -0.8700000      0.0000000E+00
 -0.8600000      0.0000000E+00
 -0.8500000      0.0000000E+00
 -0.8400000      0.0000000E+00
 -0.8300000      0.0000000E+00
 -0.8200000      0.0000000E+00
 -0.8100000      0.0000000E+00
 -0.8000000      0.0000000E+00
 -0.7900000      0.0000000E+00
 -0.7800000      0.0000000E+00
 -0.7700000      0.0000000E+00
 -0.7600000      0.0000000E+00
 -0.7500000      0.0000000E+00
 -0.7400000      0.0000000E+00
 -0.7300000      0.0000000E+00
 -0.7200000      0.0000000E+00
 -0.7100000      0.0000000E+00
 -0.7000000      0.0000000E+00
 -0.6900000      0.0000000E+00
 -0.6800000      0.0000000E+00
 -0.6700000      0.0000000E+00
 -0.6600000      0.0000000E+00
 -0.6500000      0.0000000E+00
 -0.6400000      0.0000000E+00
 -0.6300000      0.0000000E+00
 -0.6200000      0.0000000E+00
 -0.6100000      0.0000000E+00
 -0.6000000      0.0000000E+00
 -0.5900000      0.0000000E+00
 -0.5800000      0.0000000E+00
 -0.5700000      0.0000000E+00
 -0.5600000      0.0000000E+00
 -0.5500000      0.0000000E+00
 -0.5400000      0.0000000E+00
 -0.5300000      0.0000000E+00
 -0.5200000      0.0000000E+00
 -0.5100000      0.0000000E+00
 -0.5000000      0.0000000E+00
 -0.4900000      0.0000000E+00
 -0.4800000      0.0000000E+00
 -0.4700000      0.0000000E+00
 -0.4600000      0.0000000E+00
 -0.4500000      0.0000000E+00
 -0.4400000      0.0000000E+00
 -0.4300000      0.0000000E+00
 -0.4200000      0.0000000E+00
 -0.4100000      0.0000000E+00
 -0.4000000      0.0000000E+00
 -0.3900000      0.0000000E+00
 -0.3800000      0.0000000E+00
 -0.3700000      0.0000000E+00
 -0.3600000      0.0000000E+00
 -0.3500000      0.0000000E+00
 -0.3400000      0.0000000E+00
 -0.3300000      0.0000000E+00
 -0.3200000      0.0000000E+00
 -0.3100000      0.0000000E+00
 -0.3000000      0.0000000E+00
 -0.2900000      0.0000000E+00
 -0.2800000      0.0000000E+00
 -0.2700000      0.0000000E+00
 -0.2600000      0.0000000E+00
 -0.2500000      0.0000000E+00
 -0.2400000      0.0000000E+00
 -0.2300000      0.0000000E+00
 -0.2200000      0.0000000E+00
 -0.2100000      0.0000000E+00
 -0.2000000      0.0000000E+00
 -0.1900000      0.0000000E+00
 -0.1800000      0.0000000E+00
 -0.1700000      0.0000000E+00
 -0.1600000      0.0000000E+00
 -0.1500000      0.0000000E+00
 -0.1400000      0.0000000E+00
 -0.1300000      0.0000000E+00
 -0.1200000      0.0000000E+00
 -0.1100000      0.0000000E+00
 -0.1000000      0.0000000E+00
 -9.0000004E-02  0.0000000E+00
 -7.9999998E-02  0.0000000E+00
 -7.0000000E-02  0.0000000E+00
 -5.9999999E-02  0.0000000E+00
 -5.0000001E-02  0.0000000E+00
 -3.9999999E-02  0.0000000E+00
 -2.9999999E-02  0.0000000E+00
 -2.0000000E-02  0.0000000E+00
 -9.9999998E-03  0.0000000E+00
 -3.4694470E-17  0.0000000E+00
  9.9999998E-03  0.0000000E+00
  2.0000000E-02  0.0000000E+00
  2.9999999E-02  0.0000000E+00
  3.9999999E-02  0.0000000E+00
  5.0000001E-02  0.0000000E+00
  5.9999999E-02  0.0000000E+00
  7.0000000E-02  0.0000000E+00
  7.9999998E-02  0.0000000E+00
  9.0000004E-02  0.0000000E+00
  0.1000000      0.0000000E+00
  0.1100000      0.0000000E+00
  0.1200000      0.0000000E+00
  0.1300000      0.0000000E+00
  0.1400000      0.0000000E+00
  0.1500000      0.0000000E+00
  0.1600000      0.0000000E+00
  0.1700000      0.0000000E+00
  0.1800000      0.0000000E+00
  0.1900000      0.0000000E+00
  0.2000000      0.0000000E+00
  0.2100000      0.0000000E+00
  0.2200000      0.0000000E+00
  0.2300000      0.0000000E+00
  0.2400000      0.0000000E+00
  0.2500000      0.0000000E+00
  0.2600000      0.0000000E+00
  0.2700000      0.0000000E+00
  0.2800000      0.0000000E+00
  0.2900000      0.0000000E+00
  0.3000000      0.0000000E+00
  0.3100000      0.0000000E+00
  0.3200000      0.0000000E+00
  0.3300000      0.0000000E+00
  0.3400000      0.0000000E+00
  0.3500000      0.0000000E+00
  0.3600000      0.0000000E+00
  0.3700000      0.0000000E+00
  0.3800000      0.0000000E+00
  0.3900000      0.0000000E+00
  0.4000000      0.0000000E+00
  0.4100000      0.0000000E+00
  0.4200000      0.0000000E+00
  0.4300000      0.0000000E+00
  0.4400000      0.0000000E+00
  0.4500000      0.0000000E+00
  0.4600000      0.0000000E+00
  0.4700000      0.0000000E+00
  0.4800000      0.0000000E+00
  0.4900000      0.0000000E+00
  0.5000000      0.0000000E+00
  0.5100000      0.0000000E+00
  0.5200000      0.0000000E+00
  0.5300000      0.0000000E+00
  0.5400000      0.0000000E+00
  0.5500000      0.0000000E+00
  0.5600000      0.0000000E+00
  0.5700000      0.0000000E+00
  0.5800000      0.0000000E+00
  0.5900000      0.0000000E+00
  0.6000000      0.0000000E+00
  0.6100000      0.0000000E+00
  0.6200000      0.0000000E+00
  0.6300000      0.0000000E+00
  0.6400000      0.0000000E+00
  0.6500000      0.0000000E+00
  0.6600000      0.0000000E+00
  0.6700000      0.0000000E+00
  0.6800000      0.0000000E+00
  0.6900000      0.0000000E+00
  0.7000000      0.0000000E+00
  0.7100000      0.0000000E+00
  0.7200000      0.0000000E+00
  0.7300000      0.0000000E+00
  0.7400000      0.0000000E+00
  0.7500000      0.0000000E+00
  0.7600000      0.0000000E+00
  0.7700000      0.0000000E+00
  0.7800000      0.0000000E+00
  0.7900000      0.0000000E+00
  0.8000000      0.0000000E+00
  0.8100000      0.0000000E+00
  0.8200000      0.0000000E+00
  0.8300000      0.0000000E+00
  0.8400000      0.0000000E+00
  0.8500000      0.0000000E+00
  0.8600000      0.0000000E+00
  0.8700000      0.0000000E+00
  0.8800000      0.0000000E+00
  0.8900000      0.0000000E+00
  0.9000000      0.0000000E+00
  0.9100000      0.0000000E+00
  0.9200000      0.0000000E+00
  0.9300000      0.0000000E+00
  0.9400000      0.0000000E+00
  0.9500000      0.0000000E+00
  0.9600000      0.0000000E+00
  0.9700000      0.0000000E+00
  0.9800000      0.0000000E+00
  0.9900000      0.0000000E+00
   1.000000      0.0000000E+00
   1.010000      0.0000000E+00
   1.020000      0.0000000E+00
   1.030000      0.0000000E+00
   1.040000      0.0000000E+00
   1.050000      0.0000000E+00
   1.060000      0.0000000E+00
   1.070000      0.0000000E+00
   1.080000      0.0000000E+00
   1.090000      0.0000000E+00
   1.100000      0.0000000E+00
   1.110000      0.0000000E+00
   1.120000      0.0000000E+00
   1.130000      0.0000000E+00
   1.140000      0.0000000E+00
   1.150000      0.0000000E+00
   1.160000      0.0000000E+00
   1.170000      0.0000000E+00
   1.180000      0.0000000E+00
   1.190000      0.0000000E+00
   1.200000      0.0000000E+00
   1.210000      0.0000000E+00
   1.220000      0.0000000E+00
   1.230000      0.0000000E+00
   1.240000      0.0000000E+00
   1.250000      0.0000000E+00
   1.260000      0.0000000E+00
   1.270000      0.0000000E+00
   1.280000      0.0000000E+00
   1.290000      0.0000000E+00
   1.300000      0.0000000E+00
   1.310000      0.0000000E+00
   1.320000      0.0000000E+00
   1.330000      0.0000000E+00
   1.340000      0.0000000E+00
   1.350000      0.0000000E+00
   1.360000      0.0000000E+00
   1.370000      0.0000000E+00
   1.380000      0.0000000E+00
   1.390000      0.0000000E+00
   1.400000      0.0000000E+00
   1.410000      0.0000000E+00
   1.420000      0.0000000E+00
   1.430000      0.0000000E+00
   1.440000      0.0000000E+00
   1.450000      0.0000000E+00
   1.460000      0.0000000E+00
   1.470000      0.0000000E+00
   1.480000      0.0000000E+00
   1.490000      0.0000000E+00
   1.500000      0.0000000E+00
   1.510000      0.0000000E+00
   1.520000      0.0000000E+00
   1.530000      0.0000000E+00
   1.540000      0.0000000E+00
   1.550000      0.0000000E+00
   1.560000      0.0000000E+00
   1.570000      0.0000000E+00
   1.580000      0.0000000E+00
   1.590000      0.0000000E+00
   1.600000      0.0000000E+00
   1.610000      0.0000000E+00
   1.620000      0.0000000E+00
   1.630000      0.0000000E+00
   1.640000      0.0000000E+00
   1.650000      0.0000000E+00
   1.660000      0.0000000E+00
   1.670000      0.0000000E+00
   1.680000      0.0000000E+00
   1.690000      0.0000000E+00
   1.700000      0.0000000E+00
   1.710000      0.0000000E+00
   1.720000      0.0000000E+00
   1.730000      0.0000000E+00
   1.740000      0.0000000E+00
   1.750000      0.0000000E+00
   1.760000      0.0000000E+00
   1.770000      0.0000000E+00
   1.780000      0.0000000E+00
   1.790000      0.0000000E+00
   1.800000      0.0000000E+00
   1.810000      0.0000000E+00
   1.820000      0.0000000E+00
   1.830000      0.0000000E+00
   1.840000      0.0000000E+00
   1.850000      0.0000000E+00
   1.860000      0.0000000E+00
   1.870000      0.0000000E+00
   1.880000      0.0000000E+00
   1.890000      0.0000000E+00
   1.900000      0.0000000E+00
   1.910000      0.0000000E+00
   1.920000      0.0000000E+00
   1.930000      0.0000000E+00
   1.940000      0.0000000E+00
   1.950000      0.0000000E+00
   1.960000      0.0000000E+00
   1.970000      0.0000000E+00
   1.980000      0.0000000E+00
   1.990000      0.0000000E+00
   2.000000      0.0000000E+00
   2.010000      0.0000000E+00
   2.020000      0.0000000E+00
   2.030000      0.0000000E+00
   2.040000      0.0000000E+00
   2.050000      0.0000000E+00
   2.060000      0.0000000E+00
   2.070000      0.0000000E+00
   2.080000      0.0000000E+00
   2.090000      0.0000000E+00
   2.100000      0.0000000E+00
   2.110000      0.0000000E+00
   2.120000     -1.3286948E-38
   2.130000     -1.5330429E-38
   2.140000     -1.7385237E-38
   2.150000     -1.9441601E-38
   2.160000     -2.1481648E-38
   2.170000     -2.3484924E-38
   2.180000     -2.5669798E-38
   2.190000     -2.7813165E-38
   2.200000     -2.9479788E-38
   2.210000     -3.0291950E-38
   2.220000     -3.0502008E-38
   2.230000     -3.0775541E-38
   2.240000     -3.0990055E-38
   2.250000     -3.1076747E-38
   2.260000     -2.9706765E-38
   2.270000     -2.6639250E-38
   2.280000     -2.3417979E-38
   2.290000     -2.0267568E-38
   2.300000     -1.7094374E-38
   2.310000     -1.4519729E-38
   2.320000     -1.2477981E-38
   2.330000      0.0000000E+00
   2.340000      0.0000000E+00
   2.350000      0.0000000E+00
   2.360000      0.0000000E+00
   2.370000      0.0000000E+00
   2.380000      0.0000000E+00
   2.390000      0.0000000E+00
   2.400000      0.0000000E+00
   2.410000      0.0000000E+00
   2.420000      0.0000000E+00
   2.430000      0.0000000E+00
   2.440000      0.0000000E+00
   2.450000      0.0000000E+00
   2.460000      0.0000000E+00
   2.470000      0.0000000E+00
   2.480000      0.0000000E+00
   2.490000      1.2457342E-38
   2.500000      1.7355618E-38
   2.510000      2.3634297E-38
   2.520000      3.1813446E-38
   2.530000      4.1895736E-38
   2.540000      5.2947496E-38
   2.550000      6.4838820E-38
   2.560000      7.8531838E-38
   2.570000      9.3433010E-38
   2.580000      1.1061881E-37
   2.590000      1.3144698E-37
   2.600000      1.5358922E-37
   2.610000      1.7461609E-37
   2.620000      1.9277302E-37
   2.630000      2.0864984E-37
   2.640000      2.2116425E-37
   2.650000      2.2926041E-37
   2.660000      2.3507975E-37
   2.670000      2.3896466E-37
   2.680000      2.8751577E-37
   2.690000      3.8415358E-37
   2.700000      4.9131730E-37
   2.710000      6.7847943E-37
   2.720000      9.5470397E-37
   2.730000      1.2616855E-36
   2.740000      1.5851707E-36
   2.750000      1.9208811E-36
   2.760000      1.9903584E-36
   2.770000      1.7107114E-36
   2.780000      1.2973372E-36
   2.790000      7.8807887E-37
   2.800000      2.3177441E-37
   2.810000     -2.9987079E-37
   2.820000     -7.5926297E-37
   2.830000     -1.1257101E-36
   2.840000     -1.3621648E-36
   2.850000     -1.2217909E-36
   2.860000     -7.7335523E-37
   2.870000     -3.1749448E-37
   2.880000     -2.3419350E-37
   2.890000     -5.5995057E-37
   2.900000     -1.1572524E-36
   2.910000     -2.0170933E-36
   2.920000     -2.9128935E-36
   2.930000     -3.8840851E-36
   2.940000     -4.6119115E-36
   2.950000     -5.0244452E-36
   2.960000     -5.4061049E-36
   2.970000     -5.4121743E-36
   2.980000     -5.0926452E-36
   2.990000     -4.8720033E-36
   3.000000     -4.7658271E-36
   3.010000     -4.8076062E-36
   3.020000     -5.4589512E-36
   3.030000     -6.8009645E-36
   3.040000     -8.0591036E-36
   3.050000     -9.1366152E-36
   3.060000     -1.0312667E-35
   3.070000     -1.1085549E-35
   3.080000     -1.0896949E-35
   3.090000     -9.8797846E-36
   3.100000     -8.3506827E-36
   3.110000     -6.4495789E-36
   3.120000     -4.4324065E-36
   3.130000     -2.3961987E-36
   3.140000     -2.5134418E-37
   3.150000      1.8497916E-36
   3.160000      3.6514532E-36
   3.170000      5.0497251E-36
   3.180000      6.1016250E-36
   3.190000      7.0035435E-36
   3.200000      7.6886406E-36
   3.210000      8.1127764E-36
   3.220000      8.4818217E-36
   3.230000      8.9521808E-36
   3.240000      9.6708589E-36
   3.250000      1.0773229E-35
   3.260000      1.2329750E-35
   3.270000      1.4532089E-35
   3.280000      1.7329309E-35
   3.290000      2.0387781E-35
   3.300000      2.3555770E-35
   3.310000      2.6892048E-35
   3.320000      3.0206500E-35
   3.330000      3.3203167E-35
   3.340000      3.5765561E-35
   3.350000      3.7419036E-35
   3.360000      3.8326141E-35
   3.370000      3.8958268E-35
   3.380000      3.8967655E-35
   3.390000      3.8297439E-35
   3.400000      3.7272518E-35
   3.410000      3.5881018E-35
   3.420000      3.4325339E-35
   3.430000      3.3237829E-35
   3.440000      3.2685309E-35
   3.450000      3.2253387E-35
   3.460000      3.1201532E-35
   3.470000      2.8423419E-35
   3.480000      2.4154265E-35
   3.490000      2.2163630E-35
   3.500000      2.2782566E-35
   3.510000      2.3282840E-35
   3.520000      2.2258994E-35
   3.530000      2.1567131E-35
   3.540000      2.2197246E-35
   3.550000      2.1909486E-35
   3.560000      1.6682169E-35
   3.570000      7.2999175E-36
   3.580000     -2.0522468E-36
   3.590000     -1.1786020E-35
   3.600000     -2.8734351E-35
   3.610000     -5.4276753E-35
   3.620000     -8.0644813E-35
   3.630000     -1.0531867E-34
   3.640000     -1.2517403E-34
   3.650000     -1.3670699E-34
   3.660000     -1.3805500E-34
   3.670000     -1.3728745E-34
   3.680000     -1.4170700E-34
   3.690000     -1.4910719E-34
   3.700000     -1.6183667E-34
   3.710000     -1.7781284E-34
   3.720000     -1.9332502E-34
   3.730000     -1.9929047E-34
   3.740000     -1.9286035E-34
   3.750000     -1.8188578E-34
   3.760000     -1.6875422E-34
   3.770000     -1.5647923E-34
   3.780000     -1.5119191E-34
   3.790000     -1.5779596E-34
   3.800000     -1.7091619E-34
   3.810000     -1.8520931E-34
   3.820000     -2.0727708E-34
   3.830000     -2.3958972E-34
   3.840000     -2.7483310E-34
   3.850000     -3.0692681E-34
   3.860000     -3.2735245E-34
   3.870000     -3.2442122E-34
   3.880000     -2.9973538E-34
   3.890000     -2.6305924E-34
   3.900000     -2.1703047E-34
   3.910000     -1.6478878E-34
   3.920000     -1.0778965E-34
   3.930000     -5.0874707E-35
   3.940000     -6.2499364E-37
   3.950000      3.9097786E-35
   3.960000      6.4997686E-35
   3.970000      7.8087717E-35
   3.980000      8.4667793E-35
   3.990000      9.3104255E-35
   4.000000      1.0551678E-34
   4.010000      1.2052750E-34
   4.020000      1.3969353E-34
   4.030000      1.6685940E-34
   4.040000      2.0677937E-34
   4.050000      2.6714207E-34
   4.060000      3.5114193E-34
   4.070000      4.5392748E-34
   4.080000      5.6420942E-34
   4.090000      6.7472682E-34
   4.100000      7.7786713E-34
   4.110000      8.7405168E-34
   4.120000      9.5930468E-34
   4.130000      1.0312070E-33
   4.140000      1.0969520E-33
   4.150000      1.1611587E-33
   4.160000      1.2120424E-33
   4.170000      1.2364939E-33
   4.180000      1.2478485E-33
   4.190000      1.2554878E-33
   4.200000      1.2605252E-33
   4.210000      1.2670645E-33
   4.220000      1.2802233E-33
   4.230000      1.2990850E-33
   4.240000      1.3246556E-33
   4.250000      1.3553051E-33
   4.260000      1.3860299E-33
   4.270000      1.4149290E-33
   4.280000      1.4376970E-33
   4.290000      1.4435168E-33
   4.300000      1.4257620E-33
   4.310000      1.3823792E-33
   4.320000      1.3129208E-33
   4.330000      1.2160235E-33
   4.340000      1.0904421E-33
   4.350000      9.4161377E-34
   4.360000      7.7225644E-34
   4.370000      5.8367193E-34
   4.380000      3.8641534E-34
   4.390000      1.8797574E-34
   4.400000     -1.0414884E-35
   4.410000     -2.0673904E-34
   4.420000     -4.0281115E-34
   4.430000     -6.0083387E-34
   4.440000     -8.0304301E-34
   4.450000     -1.0126966E-33
   4.460000     -1.2366314E-33
   4.470000     -1.4800325E-33
   4.480000     -1.7490256E-33
   4.490000     -2.0406321E-33
   4.500000     -2.3521677E-33
   4.510000     -2.6876286E-33
   4.520000     -3.0421305E-33
   4.530000     -3.4095298E-33
   4.540000     -3.7816469E-33
   4.550000     -4.1560073E-33
   4.560000     -4.5285975E-33
   4.570000     -4.8921761E-33
   4.580000     -5.2414867E-33
   4.590000     -5.5703606E-33
   4.600000     -5.8845001E-33
   4.610000     -6.1791646E-33
   4.620000     -6.4477511E-33
   4.630000     -6.6981439E-33
   4.640000     -6.9331120E-33
   4.650000     -7.1555677E-33
   4.660000     -7.3668944E-33
   4.670000     -7.5649703E-33
   4.680000     -7.7510819E-33
   4.690000     -7.9231442E-33
   4.700000     -8.0748557E-33
   4.710000     -8.1998768E-33
   4.720000     -8.2889286E-33
   4.730000     -8.3328532E-33
   4.740000     -8.3228651E-33
   4.750000     -8.2511615E-33
   4.760000     -8.1118588E-33
   4.770000     -7.9005196E-33
   4.780000     -7.6118013E-33
   4.790000     -7.2454269E-33
   4.800000     -6.8040633E-33
   4.810000     -6.2894517E-33
   4.820000     -5.7050187E-33
   4.830000     -5.0519621E-33
   4.840000     -4.3325912E-33
   4.850000     -3.5502291E-33
   4.860000     -2.7046876E-33
   4.870000     -1.7939730E-33
   4.880000     -8.1408650E-34
   4.890000      2.3981373E-34
   4.900000      1.3733254E-33
   4.910000      2.5928751E-33
   4.920000      3.9047325E-33
   4.930000      5.3127705E-33
   4.940000      6.8177673E-33
   4.950000      8.4184086E-33
   4.960000      1.0111014E-32
   4.970000      1.1889113E-32
   4.980000      1.3745026E-32
   4.990000      1.5669575E-32
   5.000000      1.7651977E-32
   5.010000      1.9681846E-32
   5.020000      2.1749265E-32
   5.030000      2.3845670E-32
   5.040000      2.5963482E-32
   5.050000      2.8097104E-32
   5.060000      3.0242269E-32
   5.070000      3.2394482E-32
   5.080000      3.4549660E-32
   5.090000      3.6707456E-32
   5.100000      3.8856686E-32
   5.110000      4.0984234E-32
   5.120000      4.3083511E-32
   5.130000      4.5140820E-32
   5.140000      4.7140283E-32
   5.150000      4.9062695E-32
   5.160000      5.0886792E-32
   5.170000      5.2590465E-32
   5.180000      5.4150717E-32
   5.190000      5.5544671E-32
   5.200000      5.6750222E-32
   5.210000      5.7746207E-32
   5.220000      5.8513964E-32
   5.230000      5.9036512E-32
   5.240000      5.9297466E-32
   5.250000      5.9281902E-32
   5.260000      5.8975380E-32
   5.270000      5.8362930E-32
   5.280000      5.7429329E-32
   5.290000      5.6157879E-32
   5.300000      5.4529514E-32
   5.310000      5.2523515E-32
   5.320000      5.0117290E-32
   5.330000      4.7286726E-32
   5.340000      4.4007026E-32
   5.350000      4.0253355E-32
   5.360000      3.6001569E-32
   5.370000      3.1229259E-32
   5.380000      2.5916347E-32
   5.390000      2.0045899E-32
   5.400000      1.3604266E-32
   5.410000      6.5811359E-33
   5.420000     -1.0302820E-33
   5.430000     -9.2344287E-33
   5.440000     -1.8033257E-32
   5.450000     -2.7426305E-32
   5.460000     -3.7411991E-32
   5.470000     -4.7987805E-32
   5.480000     -5.9150406E-32
   5.490000     -7.0895528E-32
   5.500000     -8.3217712E-32
   5.510000     -9.6109688E-32
   5.520000     -1.0956160E-31
   5.530000     -1.2356008E-31
   5.540000     -1.3808732E-31
   5.550000     -1.5312019E-31
   5.560000     -1.6862957E-31
   5.570000     -1.8457979E-31
   5.580000     -2.0092842E-31
   5.590000     -2.1762646E-31
   5.600000     -2.3461847E-31
   5.610000     -2.5184329E-31
   5.620000     -2.6923417E-31
   5.630000     -2.8672092E-31
   5.640000     -3.0422943E-31
   5.650000     -3.2168125E-31
   5.660000     -3.3899515E-31
   5.670000     -3.5608672E-31
   5.680000     -3.7286805E-31
   5.690000     -3.8924709E-31
   5.700000     -4.0512693E-31
   5.710000     -4.2040512E-31
   5.720000     -4.3497264E-31
   5.730000     -4.4871351E-31
   5.740000     -4.6150407E-31
   5.750000     -4.7321298E-31
   5.760000     -4.8370126E-31
   5.770000     -4.9282290E-31
   5.780000     -5.0042567E-31
   5.790000     -5.0635195E-31
   5.800000     -5.1044037E-31
   5.810000     -5.1252668E-31
   5.820000     -5.1244482E-31
   5.830000     -5.1002814E-31
   5.840000     -5.0511025E-31
   5.850000     -4.9752563E-31
   5.860000     -4.8710958E-31
   5.870000     -4.7369888E-31
   5.880000     -4.5713109E-31
   5.890000     -4.3724511E-31
   5.900000     -4.1388089E-31
   5.910000     -3.8687969E-31
   5.920000     -3.5608439E-31
   5.930000     -3.2134014E-31
   5.940000     -2.8249544E-31
   5.950000     -2.3940360E-31
   5.960000     -1.9192416E-31
   5.970000     -1.3992475E-31
   5.980000     -8.3282911E-32
   5.990000     -2.1888203E-32
   6.000000      4.4356392E-32
   6.010000      1.1553286E-31
   6.020000      1.9170655E-31
   6.030000      2.7292555E-31
   6.040000      3.5921960E-31
   6.050000      4.5059952E-31
   6.060000      5.4705655E-31
   6.070000      6.4856203E-31
   6.080000      7.5506652E-31
   6.090000      8.6649883E-31
   6.100000      9.8276481E-31
   6.110000      1.1037459E-30
   6.120000      1.2292973E-30
   6.130000      1.3592452E-30
   6.140000      1.4933853E-30
   6.150000      1.6314793E-30
   6.160000      1.7732530E-30
   6.170000      1.9183942E-30
   6.180000      2.0665497E-30
   6.190000      2.2173256E-30
   6.200000      2.3702839E-30
   6.210000      2.5249432E-30
   6.220000      2.6807777E-30
   6.230000      2.8372172E-30
   6.240000      2.9936478E-30
   6.250000      3.1494117E-30
   6.260000      3.3038076E-30
   6.270000      3.4560899E-30
   6.280000      3.6054710E-30
   6.290000      3.7511195E-30
   6.300000      3.8921585E-30
   6.310000      4.0276672E-30
   6.320000      4.1566786E-30
   6.330000      4.2781792E-30
   6.340000      4.3911082E-30
   6.350000      4.4943573E-30
   6.360000      4.5867699E-30
   6.370000      4.6671452E-30
   6.380000      4.7342356E-30
   6.390000      4.7867510E-30
   6.400000      4.8233606E-30
   6.410000      4.8426963E-30
   6.420000      4.8433542E-30
   6.430000      4.8239019E-30
   6.440000      4.7828811E-30
   6.450000      4.7188105E-30
   6.460000      4.6301906E-30
   6.470000      4.5155075E-30
   6.480000      4.3732403E-30
   6.490000      4.2018638E-30
   6.500000      3.9998533E-30
   6.510000      3.7656926E-30
   6.520000      3.4978785E-30
   6.530000      3.1949282E-30
   6.540000      2.8553894E-30
   6.550000      2.4778465E-30
   6.560000      2.0609331E-30
   6.570000      1.6033427E-30
   6.580000      1.1038386E-30
   6.590000      5.6126625E-31
   6.600000     -2.5434450E-32
   6.610000     -6.5721607E-31
   6.620000     -1.3349127E-30
   6.630000     -2.0592265E-30
   6.640000     -2.8307145E-30
   6.650000     -3.6497760E-30
   6.660000     -4.5166401E-30
   6.670000     -5.4313523E-30
   6.680000     -6.3937639E-30
   6.690000     -7.4035147E-30
   6.700000     -8.4600257E-30
   6.710000     -9.5624776E-30
   6.720000     -1.0709800E-29
   6.730000     -1.1900654E-29
   6.740000     -1.3133417E-29
   6.750000     -1.4406165E-29
   6.760000     -1.5716652E-29
   6.770000     -1.7062304E-29
   6.780000     -1.8440192E-29
   6.790000     -1.9847023E-29
   6.800000     -2.1279114E-29
   6.810000     -2.2732395E-29
   6.820000     -2.4202379E-29
   6.830000     -2.5684163E-29
   6.840000     -2.7172410E-29
   6.850000     -2.8661352E-29
   6.860000     -3.0144767E-29
   6.870000     -3.1615991E-29
   6.880000     -3.3067898E-29
   6.890000     -3.4492909E-29
   6.900000     -3.5882988E-29
   6.910000     -3.7229646E-29
   6.920000     -3.8523928E-29
   6.930000     -3.9756442E-29
   6.940000     -4.0917354E-29
   6.950000     -4.1996398E-29
   6.960000     -4.2982895E-29
   6.970000     -4.3865757E-29
   6.980000     -4.4633520E-29
   6.990000     -4.5274364E-29
   7.000000     -4.5776129E-29
   7.010000     -4.6126362E-29
   7.020000     -4.6312335E-29
   7.030000     -4.6321083E-29
   7.040000     -4.6139456E-29
   7.050000     -4.5754149E-29
   7.060000     -4.5151754E-29