  -2.600000      0.0000000E+00
  -2.590000      0.0000000E+00
  -2.580000      0.0000000E+00
  -2.570000      0.0000000E+00
  -2.560000      0.0000000E+00
  -2.550000      0.0000000E+00
  -2.540000      0.0000000E+00
  -2.530000      0.0000000E+00
  -2.520000      0.0000000E+00
  -2.510000      0.0000000E+00
  -2.500000      0.0000000E+00
  -2.490000      0.0000000E+00
  -2.480000      0.0000000E+00
  -2.470000      0.0000000E+00
  -2.460000      0.0000000E+00
  -2.450000      0.0000000E+00
  -2.440000      0.0000000E+00
  -2.430000      0.0000000E+00
  -2.420000      0.0000000E+00
  -2.410000      0.0000000E+00
  -2.400000      0.0000000E+00
  -2.390000      0.0000000E+00
  -2.380000      0.0000000E+00
  -2.370000      0.0000000E+00
  -2.360000      0.0000000E+00
  -2.350000      0.0000000E+00
  -2.340000      0.0000000E+00
  -2.330000      0.0000000E+00
  -2.320000      0.0000000E+00
  -2.310000      0.0000000E+00
  -2.300000      0.0000000E+00
  -2.290000      0.0000000E+00
  -2.280000      0.0000000E+00
  -2.270000      0.0000000E+00
  -2.260000      0.0000000E+00
  -2.250000      0.0000000E+00
  -2.240000      0.0000000E+00
  -2.230000      0.0000000E+00
  -2.220000      0.0000000E+00
  -2.210000      0.0000000E+00
  -2.200000      0.0000000E+00
  -2.190000      0.0000000E+00
  -2.180000      0.0000000E+00
  -2.170000      0.0000000E+00
  -2.160000      0.0000000E+00
  -2.150000      0.0000000E+00
  -2.140000      0.0000000E+00
  -2.130000      0.0000000E+00
  -2.120000      0.0000000E+00
  -2.110000      0.0000000E+00
  -2.100000      0.0000000E+00
  -2.090000      0.0000000E+00
  -2.080000      0.0000000E+00
  -2.070000      0.0000000E+00
  -2.060000      0.0000000E+00
  -2.050000      0.0000000E+00
  -2.040000      0.0000000E+00
  -2.030000      0.0000000E+00
  -2.020000      0.0000000E+00
  -2.010000      0.0000000E+00
  -2.000000      0.0000000E+00
  -1.990000      0.0000000E+00
  -1.980000      0.0000000E+00
  -1.970000      0.0000000E+00
  -1.960000      0.0000000E+00
  -1.950000      0.0000000E+00
  -1.940000      0.0000000E+00
  -1.930000      0.0000000E+00
  -1.920000      0.0000000E+00
  -1.910000      0.0000000E+00
  -1.900000      0.0000000E+00
  -1.890000      0.0000000E+00
  -1.880000      0.0000000E+00
  -1.870000      0.0000000E+00
  -1.860000      0.0000000E+00
  -1.850000      0.0000000E+00
  -1.840000      0.0000000E+00
  -1.830000      0.0000000E+00
  -1.820000      0.0000000E+00
  -1.810000      0.0000000E+00
  -1.800000      0.0000000E+00
  -1.790000      0.0000000E+00
  -1.780000      0.0000000E+00
  -1.770000      0.0000000E+00
  -1.760000      0.0000000E+00
  -1.750000      0.0000000E+00
  -1.740000      0.0000000E+00
  -1.730000      0.0000000E+00
  -1.720000      0.0000000E+00
  -1.710000      0.0000000E+00
  -1.700000      0.0000000E+00
  -1.690000      0.0000000E+00
  -1.680000      0.0000000E+00
  -1.670000      0.0000000E+00
  -1.660000      0.0000000E+00
  -1.650000      0.0000000E+00
  -1.640000      0.0000000E+00
  -1.630000      0.0000000E+00
  -1.620000      0.0000000E+00
  -1.610000      0.0000000E+00
  -1.600000      0.0000000E+00
  -1.590000      0.0000000E+00
  -1.580000      0.0000000E+00
  -1.570000      0.0000000E+00
  -1.560000      0.0000000E+00
  -1.550000      0.0000000E+00
  -1.540000      0.0000000E+00
  -1.530000      0.0000000E+00
  -1.520000      0.0000000E+00
  -1.510000      0.0000000E+00
  -1.500000      0.0000000E+00
  -1.490000      0.0000000E+00
  -1.480000      0.0000000E+00
  -1.470000      0.0000000E+00
  -1.460000      0.0000000E+00
  -1.450000      0.0000000E+00
  -1.440000      0.0000000E+00
  -1.430000      0.0000000E+00
  -1.420000      0.0000000E+00
  -1.410000      0.0000000E+00
  -1.400000      0.0000000E+00
  -1.390000      0.0000000E+00
  -1.380000      0.0000000E+00
  -1.370000      0.0000000E+00
  -1.360000      0.0000000E+00
  -1.350000      0.0000000E+00
  -1.340000      0.0000000E+00
  -1.330000      0.0000000E+00
  -1.320000      0.0000000E+00
  -1.310000      0.0000000E+00
  -1.300000      0.0000000E+00
  -1.290000      0.0000000E+00
  -1.280000      0.0000000E+00
  -1.270000      0.0000000E+00
  -1.260000      0.0000000E+00
  -1.250000      0.0000000E+00
  -1.240000      0.0000000E+00
  -1.230000      0.0000000E+00
  -1.220000      0.0000000E+00
  -1.210000      0.0000000E+00
  -1.200000      0.0000000E+00
  -1.190000      0.0000000E+00
  -1.180000      0.0000000E+00
  -1.170000      0.0000000E+00
  -1.160000      0.0000000E+00
  -1.150000      0.0000000E+00
  -1.140000      0.0000000E+00
  -1.130000      0.0000000E+00
  -1.120000      0.0000000E+00
  -1.110000      0.0000000E+00
  -1.100000      0.0000000E+00
  -1.090000      0.0000000E+00
  -1.080000      0.0000000E+00
  -1.070000      0.0000000E+00
  -1.060000      0.0000000E+00
  -1.050000      0.0000000E+00
  -1.040000      0.0000000E+00
  -1.030000      0.0000000E+00
  -1.020000      0.0000000E+00
  -1.010000      0.0000000E+00
  -1.000000      0.0000000E+00
 -0.9900000      0.0000000E+00
 -0.9800000      0.0000000E+00
 -0.9700000      0.0000000E+00
 -0.9600000      0.0000000E+00
 -0.9500000      0.0000000E+00
 -0.9400000      0.0000000E+00
 -0.9300000      0.0000000E+00
 -0.9200000      0.0000000E+00
 -0.9100000      0.0000000E+00
 -0.9000000      0.0000000E+00
 -0.8900000      0.0000000E+00
 -0.8800000      0.0000000E+00
 -0.8700000      0.0000000E+00
 -0.8600000      0.0000000E+00
 -0.8500000      0.0000000E+00
 -0.8400000      0.0000000E+00
 -0.8300000      0.0000000E+00
 -0.8200000      0.0000000E+00
 -0.8100000      0.0000000E+00
 -0.8000000      0.0000000E+00
 -0.7900000      0.0000000E+00
 -0.7800000      0.0000000E+00
 -0.7700000      0.0000000E+00
 -0.7600000      0.0000000E+00
 -0.7500000      0.0000000E+00
 -0.7400000      0.0000000E+00
 -0.7300000      0.0000000E+00
 -0.7200000      0.0000000E+00
 -0.7100000      0.0000000E+00
 -0.7000000      0.0000000E+00
 -0.6900000      0.0000000E+00
 -0.6800000      0.0000000E+00
 -0.6700000      0.0000000E+00
 -0.6600000      0.0000000E+00
 -0.6500000      0.0000000E+00
 -0.6400000      0.0000000E+00
 -0.6300000      0.0000000E+00
 -0.6200000      0.0000000E+00
 -0.6100000      0.0000000E+00
 -0.6000000      0.0000000E+00
 -0.5900000      0.0000000E+00
 -0.5800000      0.0000000E+00
 -0.5700000      0.0000000E+00
 -0.5600000      0.0000000E+00
 -0.5500000      0.0000000E+00
 -0.5400000      0.0000000E+00
 -0.5300000      0.0000000E+00
 -0.5200000      0.0000000E+00
 -0.5100000      0.0000000E+00
 -0.5000000      0.0000000E+00
 -0.4900000      0.0000000E+00
 -0.4800000      0.0000000E+00
 -0.4700000      0.0000000E+00
 -0.4600000      0.0000000E+00
 -0.4500000      0.0000000E+00
 -0.4400000      0.0000000E+00
 -0.4300000      0.0000000E+00
 -0.4200000      0.0000000E+00
 -0.4100000      0.0000000E+00
 -0.4000000      0.0000000E+00
 -0.3900000      0.0000000E+00
 -0.3800000      0.0000000E+00
 -0.3700000      0.0000000E+00
 -0.3600000      0.0000000E+00
 -0.3500000      0.0000000E+00
 -0.3400000      0.0000000E+00
 -0.3300000      0.0000000E+00
 -0.3200000      0.0000000E+00
 -0.3100000      0.0000000E+00
 -0.3000000      0.0000000E+00
 -0.2900000      0.0000000E+00
 -0.2800000      0.0000000E+00
 -0.2700000      0.0000000E+00
 -0.2600000      0.0000000E+00
 -0.2500000      0.0000000E+00
 -0.2400000      0.0000000E+00
 -0.2300000      0.0000000E+00
 -0.2200000      0.0000000E+00
 -0.2100000      0.0000000E+00
 -0.2000000      0.0000000E+00
 -0.1900000      0.0000000E+00
 -0.1800000      0.0000000E+00
 -0.1700000      0.0000000E+00
 -0.1600000      0.0000000E+00
 -0.1500000      0.0000000E+00
 -0.1400000      0.0000000E+00
 -0.1300000      0.0000000E+00
 -0.1200000      0.0000000E+00
 -0.1100000      0.0000000E+00
 -0.1000000      0.0000000E+00
 -9.0000004E-02  0.0000000E+00
 -7.9999998E-02  0.0000000E+00
 -7.0000000E-02  0.0000000E+00
 -5.9999999E-02  0.0000000E+00
 -5.0000001E-02  0.0000000E+00
 -3.9999999E-02  0.0000000E+00
 -2.9999999E-02  0.0000000E+00
 -2.0000000E-02  0.0000000E+00
 -9.9999998E-03  0.0000000E+00
 -3.4694470E-17  0.0000000E+00
  9.9999998E-03  0.0000000E+00
  2.0000000E-02  0.0000000E+00
  2.9999999E-02  0.0000000E+00
  3.9999999E-02  0.0000000E+00
  5.0000001E-02  0.0000000E+00
  5.9999999E-02  0.0000000E+00
  7.0000000E-02  0.0000000E+00
  7.9999998E-02  0.0000000E+00
  9.0000004E-02  0.0000000E+00
  0.1000000      0.0000000E+00
  0.1100000      0.0000000E+00
  0.1200000      0.0000000E+00
  0.1300000      0.0000000E+00
  0.1400000      0.0000000E+00
  0.1500000      0.0000000E+00
  0.1600000      0.0000000E+00
  0.1700000      0.0000000E+00
  0.1800000      0.0000000E+00
  0.1900000      0.0000000E+00
  0.2000000      0.0000000E+00
  0.2100000      0.0000000E+00
  0.2200000      0.0000000E+00
  0.2300000      0.0000000E+00
  0.2400000      0.0000000E+00
  0.2500000      0.0000000E+00
  0.2600000      0.0000000E+00
  0.2700000      0.0000000E+00
  0.2800000      0.0000000E+00
  0.2900000      0.0000000E+00
  0.3000000      0.0000000E+00
  0.3100000      0.0000000E+00
  0.3200000      0.0000000E+00
  0.3300000      0.0000000E+00
  0.3400000      0.0000000E+00
  0.3500000      0.0000000E+00
  0.3600000      0.0000000E+00
  0.3700000      0.0000000E+00
  0.3800000      0.0000000E+00
  0.3900000      0.0000000E+00
  0.4000000      0.0000000E+00
  0.4100000      0.0000000E+00
  0.4200000      0.0000000E+00
  0.4300000      0.0000000E+00
  0.4400000      0.0000000E+00
  0.4500000      0.0000000E+00
  0.4600000      0.0000000E+00
  0.4700000      0.0000000E+00
  0.4800000      0.0000000E+00
  0.4900000      0.0000000E+00
  0.5000000      0.0000000E+00
  0.5100000      0.0000000E+00
  0.5200000      0.0000000E+00
  0.5300000      0.0000000E+00
  0.5400000      0.0000000E+00
  0.5500000      0.0000000E+00
  0.5600000      0.0000000E+00
  0.5700000      0.0000000E+00
  0.5800000      0.0000000E+00
  0.5900000      0.0000000E+00
  0.6000000      0.0000000E+00
  0.6100000      0.0000000E+00
  0.6200000      0.0000000E+00
  0.6300000      0.0000000E+00
  0.6400000      0.0000000E+00
  0.6500000      0.0000000E+00
  0.6600000      0.0000000E+00
  0.6700000      0.0000000E+00
  0.6800000      0.0000000E+00
  0.6900000      0.0000000E+00
  0.7000000      0.0000000E+00
  0.7100000      0.0000000E+00
  0.7200000      0.0000000E+00
  0.7300000      0.0000000E+00
  0.7400000      0.0000000E+00
  0.7500000      0.0000000E+00
  0.7600000      0.0000000E+00
  0.7700000      0.0000000E+00
  0.7800000      0.0000000E+00
  0.7900000      0.0000000E+00
  0.8000000      0.0000000E+00
  0.8100000      0.0000000E+00
  0.8200000      0.0000000E+00
  0.8300000      0.0000000E+00
  0.8400000      0.0000000E+00
  0.8500000      0.0000000E+00
  0.8600000      0.0000000E+00
  0.8700000      0.0000000E+00
  0.8800000      0.0000000E+00
  0.8900000      0.0000000E+00
  0.9000000      0.0000000E+00
  0.9100000      0.0000000E+00
  0.9200000      0.0000000E+00
  0.9300000      0.0000000E+00
  0.9400000      0.0000000E+00
  0.9500000      0.0000000E+00
  0.9600000      0.0000000E+00
  0.9700000      0.0000000E+00
  0.9800000      0.0000000E+00
  0.9900000      0.0000000E+00
   1.000000      0.0000000E+00
   1.010000      0.0000000E+00
   1.020000      0.0000000E+00
   1.030000      0.0000000E+00
   1.040000      0.0000000E+00
   1.050000      0.0000000E+00
   1.060000      0.0000000E+00
   1.070000      0.0000000E+00
   1.080000      0.0000000E+00
   1.090000      0.0000000E+00
   1.100000      0.0000000E+00
   1.110000      0.0000000E+00
   1.120000      0.0000000E+00
   1.130000      0.0000000E+00
   1.140000      0.0000000E+00
   1.150000      0.0000000E+00
   1.160000      0.0000000E+00
   1.170000      0.0000000E+00
   1.180000      0.0000000E+00
   1.190000      0.0000000E+00
   1.200000      0.0000000E+00
   1.210000      0.0000000E+00
   1.220000      0.0000000E+00
   1.230000      0.0000000E+00
   1.240000      0.0000000E+00
   1.250000      0.0000000E+00
   1.260000      0.0000000E+00
   1.270000      0.0000000E+00
   1.280000      0.0000000E+00
   1.290000      0.0000000E+00
   1.300000      0.0000000E+00
   1.310000      0.0000000E+00
   1.320000      0.0000000E+00
   1.330000      0.0000000E+00
   1.340000      0.0000000E+00
   1.350000      0.0000000E+00
   1.360000      0.0000000E+00
   1.370000      0.0000000E+00
   1.380000      0.0000000E+00
   1.390000      0.0000000E+00
   1.400000      0.0000000E+00
   1.410000      0.0000000E+00
   1.420000      0.0000000E+00
   1.430000      0.0000000E+00
   1.440000      0.0000000E+00
   1.450000      0.0000000E+00
   1.460000      0.0000000E+00
   1.470000      0.0000000E+00
   1.480000      0.0000000E+00
   1.490000      0.0000000E+00
   1.500000      0.0000000E+00
   1.510000      0.0000000E+00
   1.520000      0.0000000E+00
   1.530000      0.0000000E+00
   1.540000      0.0000000E+00
   1.550000      0.0000000E+00
   1.560000      0.0000000E+00
   1.570000      0.0000000E+00
   1.580000      0.0000000E+00
   1.590000      0.0000000E+00
   1.600000      0.0000000E+00
   1.610000      0.0000000E+00
   1.620000      0.0000000E+00
   1.630000      0.0000000E+00
   1.640000      0.0000000E+00
   1.650000      0.0000000E+00
   1.660000      0.0000000E+00
   1.670000      0.0000000E+00
   1.680000      0.0000000E+00
   1.690000      0.0000000E+00
   1.700000      0.0000000E+00
   1.710000      0.0000000E+00
   1.720000      0.0000000E+00
   1.730000      0.0000000E+00
   1.740000      0.0000000E+00
   1.750000      0.0000000E+00
   1.760000      0.0000000E+00
   1.770000      0.0000000E+00
   1.780000      0.0000000E+00
   1.790000      0.0000000E+00
   1.800000      0.0000000E+00
   1.810000      0.0000000E+00
   1.820000      0.0000000E+00
   1.830000      0.0000000E+00
   1.840000      0.0000000E+00
   1.850000      0.0000000E+00
   1.860000      0.0000000E+00
   1.870000      0.0000000E+00
   1.880000      0.0000000E+00
   1.890000      0.0000000E+00
   1.900000      0.0000000E+00
   1.910000      0.0000000E+00
   1.920000      0.0000000E+00
   1.930000      0.0000000E+00
   1.940000      0.0000000E+00
   1.950000      0.0000000E+00
   1.960000      0.0000000E+00
   1.970000      0.0000000E+00
   1.980000      0.0000000E+00
   1.990000      0.0000000E+00
   2.000000      0.0000000E+00
   2.010000      0.0000000E+00
   2.020000      0.0000000E+00
   2.030000      0.0000000E+00
   2.040000      0.0000000E+00
   2.050000      0.0000000E+00
   2.060000      0.0000000E+00
   2.070000      0.0000000E+00
   2.080000      0.0000000E+00
   2.090000      0.0000000E+00
   2.100000      0.0000000E+00
   2.110000      0.0000000E+00
   2.120000      0.0000000E+00
   2.130000      0.0000000E+00
   2.140000      0.0000000E+00
   2.150000      0.0000000E+00
   2.160000      0.0000000E+00
   2.170000      0.0000000E+00
   2.180000      0.0000000E+00
   2.190000      0.0000000E+00
   2.200000      0.0000000E+00
   2.210000      0.0000000E+00
   2.220000      0.0000000E+00
   2.230000      0.0000000E+00
   2.240000      0.0000000E+00
   2.250000      0.0000000E+00
   2.260000      0.0000000E+00
   2.270000      0.0000000E+00
   2.280000      0.0000000E+00
   2.290000      0.0000000E+00
   2.300000      0.0000000E+00
   2.310000      0.0000000E+00
   2.320000      0.0000000E+00
   2.330000      0.0000000E+00
   2.340000      0.0000000E+00
   2.350000      0.0000000E+00
   2.360000      0.0000000E+00
   2.370000      0.0000000E+00
   2.380000      0.0000000E+00
   2.390000      0.0000000E+00
   2.400000      0.0000000E+00
   2.410000      0.0000000E+00
   2.420000      0.0000000E+00
   2.430000      0.0000000E+00
   2.440000      0.0000000E+00
   2.450000      0.0000000E+00
   2.460000      0.0000000E+00
   2.470000      0.0000000E+00
   2.480000      0.0000000E+00
   2.490000      0.0000000E+00
   2.500000      0.0000000E+00
   2.510000      0.0000000E+00
   2.520000      0.0000000E+00
   2.530000      0.0000000E+00
   2.540000      0.0000000E+00
   2.550000      0.0000000E+00
   2.560000      0.0000000E+00
   2.570000      0.0000000E+00
   2.580000      0.0000000E+00
   2.590000      0.0000000E+00
   2.600000      0.0000000E+00
   2.610000      0.0000000E+00
   2.620000      0.0000000E+00
   2.630000      0.0000000E+00
   2.640000      0.0000000E+00
   2.650000      0.0000000E+00
   2.660000      0.0000000E+00
   2.670000      0.0000000E+00
   2.680000      0.0000000E+00
   2.690000      0.0000000E+00
   2.700000      0.0000000E+00
   2.710000      0.0000000E+00
   2.720000      0.0000000E+00
   2.730000      0.0000000E+00
   2.740000      0.0000000E+00
   2.750000      0.0000000E+00
   2.760000      0.0000000E+00
   2.770000      0.0000000E+00
   2.780000      0.0000000E+00
   2.790000      0.0000000E+00
   2.800000      0.0000000E+00
   2.810000      0.0000000E+00
   2.820000      0.0000000E+00
   2.830000      0.0000000E+00
   2.840000      0.0000000E+00
   2.850000      0.0000000E+00
   2.860000      0.0000000E+00
   2.870000      0.0000000E+00
   2.880000      0.0000000E+00
   2.890000      0.0000000E+00
   2.900000      0.0000000E+00
   2.910000      0.0000000E+00
   2.920000      0.0000000E+00
   2.930000      0.0000000E+00
   2.940000      0.0000000E+00
   2.950000      0.0000000E+00
   2.960000      0.0000000E+00
   2.970000      0.0000000E+00
   2.980000      0.0000000E+00
   2.990000      0.0000000E+00
   3.000000      0.0000000E+00
   3.010000      0.0000000E+00
   3.020000      0.0000000E+00
   3.030000      0.0000000E+00
   3.040000      0.0000000E+00
   3.050000      0.0000000E+00
   3.060000      0.0000000E+00
   3.070000      0.0000000E+00
   3.080000      0.0000000E+00
   3.090000      0.0000000E+00
   3.100000      0.0000000E+00
   3.110000      0.0000000E+00
   3.120000      0.0000000E+00
   3.130000      0.0000000E+00
   3.140000      0.0000000E+00
   3.150000      0.0000000E+00
   3.160000      0.0000000E+00
   3.170000      0.0000000E+00
   3.180000      0.0000000E+00
   3.190000      0.0000000E+00
   3.200000      0.0000000E+00
   3.210000      0.0000000E+00
   3.220000      0.0000000E+00
   3.230000      0.0000000E+00
   3.240000      0.0000000E+00
   3.250000      0.0000000E+00
   3.260000      0.0000000E+00
   3.270000      0.0000000E+00
   3.280000      0.0000000E+00
   3.290000      0.0000000E+00
   3.300000      0.0000000E+00
   3.310000      0.0000000E+00
   3.320000      0.0000000E+00
   3.330000      0.0000000E+00
   3.340000      0.0000000E+00
   3.350000      0.0000000E+00
   3.360000      0.0000000E+00
   3.370000      0.0000000E+00
   3.380000      0.0000000E+00
   3.390000      0.0000000E+00
   3.400000      0.0000000E+00
   3.410000      0.0000000E+00
   3.420000      0.0000000E+00
   3.430000      0.0000000E+00
   3.440000      0.0000000E+00
   3.450000      0.0000000E+00
   3.460000      0.0000000E+00
   3.470000      0.0000000E+00
   3.480000      0.0000000E+00
   3.490000      0.0000000E+00
   3.500000      0.0000000E+00
   3.510000      0.0000000E+00
   3.520000      0.0000000E+00
   3.530000      0.0000000E+00
   3.540000      0.0000000E+00
   3.550000      0.0000000E+00
   3.560000      0.0000000E+00
   3.570000      0.0000000E+00
   3.580000      0.0000000E+00
   3.590000     -1.2716400E-38
   3.600000     -1.3888036E-38
   3.610000     -1.5194754E-38
   3.620000     -1.5493441E-38
   3.630000     -1.4405770E-38
   3.640000     -1.3244276E-38
   3.650000     -1.1808068E-38
   3.660000      0.0000000E+00
   3.670000      0.0000000E+00
   3.680000      0.0000000E+00
   3.690000      0.0000000E+00
   3.700000      0.0000000E+00
   3.710000      0.0000000E+00
   3.720000      0.0000000E+00
   3.730000      0.0000000E+00
   3.740000      0.0000000E+00
   3.750000      0.0000000E+00
   3.760000      0.0000000E+00
   3.770000      0.0000000E+00
   3.780000      0.0000000E+00
   3.790000      0.0000000E+00
   3.800000      0.0000000E+00
   3.810000      0.0000000E+00
   3.820000      0.0000000E+00
   3.830000      0.0000000E+00
   3.840000      0.0000000E+00
   3.850000      0.0000000E+00
   3.860000      0.0000000E+00
   3.870000      0.0000000E+00
   3.880000      1.4893992E-38
   3.890000      2.6496909E-38
   3.900000      3.7199393E-38
   3.910000      4.5242664E-38
   3.920000      5.2719600E-38
   3.930000      5.9448535E-38
   3.940000      6.7190524E-38
   3.950000      7.6775691E-38
   3.960000      8.7053840E-38
   3.970000      9.6912457E-38
   3.980000      1.0627729E-37
   3.990000      1.0928685E-37
   4.000000      1.0563462E-37
   4.010000      1.0220679E-37
   4.020000      9.8963408E-38
   4.030000      9.4987611E-38
   4.040000      9.0595661E-38
   4.050000      8.5954218E-38
   4.060000      8.2399803E-38
   4.070000      8.0381692E-38
   4.080000      7.8153179E-38
   4.090000      7.6017505E-38
   4.100000      7.4644064E-38
   4.110000      7.3353821E-38
   4.120000      7.3362526E-38
   4.130000      7.7339400E-38
   4.140000      8.1732784E-38
   4.150000      8.4000915E-38
   4.160000      8.6614729E-38
   4.170000      9.4920909E-38
   4.180000      1.0975257E-37
   4.190000      1.1759828E-37
   4.200000      1.1500183E-37
   4.210000      1.1622357E-37
   4.220000      1.1600439E-37
   4.230000      1.0192794E-37
   4.240000      7.3287747E-38
   4.250000      1.4191698E-38
   4.260000     -6.7948497E-38
   4.270000     -1.5646506E-37
   4.280000     -2.4958478E-37
   4.290000     -3.2996794E-37
   4.300000     -3.7974821E-37
   4.310000     -4.1533697E-37
   4.320000     -4.5092749E-37
   4.330000     -5.0599928E-37
   4.340000     -6.1552499E-37
   4.350000     -6.7788905E-37
   4.360000     -6.7365085E-37
   4.370000     -6.7909941E-37
   4.380000     -6.6823619E-37
   4.390000     -6.3073798E-37
   4.400000     -5.6800322E-37
   4.410000     -4.8466856E-37
   4.420000     -3.9625250E-37
   4.430000     -1.9650693E-37
   4.440000      1.7682536E-38
   4.450000      0.0000000E+00
   4.460000     -2.4537586E-37
   4.470000     -6.6379916E-37
   4.480000     -1.1096913E-36
   4.490000     -1.6734399E-36
   4.500000     -2.3769780E-36
   4.510000     -3.0704531E-36
   4.520000     -3.7371695E-36
   4.530000     -4.3927372E-36
   4.540000     -5.0150392E-36
   4.550000     -5.4418949E-36
   4.560000     -5.6963427E-36
   4.570000     -5.8968157E-36
   4.580000     -5.9139667E-36
   4.590000     -5.8297959E-36
   4.600000     -5.7482592E-36
   4.610000     -5.6566698E-36
   4.620000     -5.5629578E-36
   4.630000     -5.4328918E-36
   4.640000     -5.2522030E-36
   4.650000     -5.1373225E-36
   4.660000     -5.1369444E-36
   4.670000     -5.1815750E-36
   4.680000     -5.2644243E-36
   4.690000     -5.1860473E-36
   4.700000     -4.9452303E-36
   4.710000     -4.7246773E-36
   4.720000     -4.5011848E-36
   4.730000     -4.2225961E-36
   4.740000     -3.8470514E-36
   4.750000     -3.3815910E-36
   4.760000     -2.8064802E-36
   4.770000     -2.1842172E-36
   4.780000     -1.5388596E-36
   4.790000     -7.6953697E-37
   4.800000      0.0000000E+00
   4.810000      7.0307018E-37
   4.820000      1.3955619E-36
   4.830000      2.1601479E-36
   4.840000      3.0901941E-36
   4.850000      4.1685190E-36
   4.860000      5.3475756E-36
   4.870000      6.5671506E-36
   4.880000      7.9455598E-36
   4.890000      9.5182972E-36
   4.900000      1.1320641E-35
   4.910000      1.3362251E-35
   4.920000      1.5609736E-35
   4.930000      1.8090491E-35
   4.940000      2.0502236E-35
   4.950000      2.2628647E-35
   4.960000      2.4736838E-35
   4.970000      2.6861202E-35
   4.980000      2.8904674E-35
   4.990000      3.1253720E-35
   5.000000      3.4064721E-35
   5.010000      3.7438172E-35
   5.020000      4.0893569E-35
   5.030000      4.3565385E-35
   5.040000      4.5762009E-35
   5.050000      4.7849275E-35
   5.060000      4.9857531E-35
   5.070000      5.2039927E-35
   5.080000      5.4593155E-35
   5.090000      5.7829323E-35
   5.100000      6.1366815E-35
   5.110000      6.4112828E-35
   5.120000      6.6082900E-35
   5.130000      6.7827074E-35
   5.140000      6.9371495E-35
   5.150000      7.0418333E-35
   5.160000      7.0940068E-35
   5.170000      7.1253359E-35
   5.180000      7.2001417E-35
   5.190000      7.3142748E-35
   5.200000      7.1867997E-35
   5.210000      6.8100796E-35
   5.220000      6.4068764E-35
   5.230000      5.9839343E-35
   5.240000      5.4008788E-35
   5.250000      4.6225733E-35
   5.260000      3.7358711E-35
   5.270000      2.7073248E-35
   5.280000      1.4981086E-35
   5.290000      6.6398597E-37
   5.300000     -1.1363066E-35
   5.310000     -1.9693707E-35
   5.320000     -2.9297257E-35
   5.330000     -3.9002794E-35
   5.340000     -4.6488299E-35
   5.350000     -5.3339480E-35
   5.360000     -5.9284387E-35
   5.370000     -6.9682525E-35
   5.380000     -8.6936951E-35
   5.390000     -1.0590314E-34
   5.400000     -1.2572991E-34
   5.410000     -1.4310172E-34
   5.420000     -1.6039689E-34
   5.430000     -1.8421522E-34
   5.440000     -2.1311175E-34
   5.450000     -2.4394093E-34
   5.460000     -2.7549301E-34
   5.470000     -3.0741496E-34
   5.480000     -3.4033973E-34
   5.490000     -3.7378229E-34
   5.500000     -4.0679387E-34
   5.510000     -4.3814775E-34
   5.520000     -4.6844286E-34
   5.530000     -4.9749474E-34
   5.540000     -5.2401017E-34
   5.550000     -5.4974799E-34
   5.560000     -5.7591683E-34
   5.570000     -6.0268188E-34
   5.580000     -6.2769401E-34
   5.590000     -6.5028155E-34
   5.600000     -6.7102452E-34
   5.610000     -6.8986076E-34
   5.620000     -7.0552175E-34
   5.630000     -7.1700784E-34
   5.640000     -7.2444675E-34
   5.650000     -7.2831963E-34
   5.660000     -7.2940650E-34
   5.670000     -7.2603233E-34
   5.680000     -7.1753484E-34
   5.690000     -7.0692527E-34
   5.700000     -6.9241503E-34
   5.710000     -6.7092543E-34
   5.720000     -6.4530425E-34
   5.730000     -6.1310282E-34
   5.740000     -5.7199417E-34
   5.750000     -5.2607730E-34
   5.760000     -4.7065370E-34
   5.770000     -4.0412779E-34
   5.780000     -3.3008885E-34
   5.790000     -2.4910580E-34
   5.800000     -1.6192186E-34
   5.810000     -6.8391312E-35
   5.820000      3.4374328E-35
   5.830000      1.4541215E-34
   5.840000      2.6483426E-34
   5.850000      3.9569808E-34
   5.860000      5.3518205E-34
   5.870000      6.8340505E-34
   5.880000      8.4133060E-34
   5.890000      1.0068573E-33
   5.900000      1.1790792E-33
   5.910000      1.3611308E-33
   5.920000      1.5542542E-33
   5.930000      1.7582824E-33
   5.940000      1.9710706E-33
   5.950000      2.1918222E-33
   5.960000      2.4223610E-33
   5.970000      2.6596781E-33
   5.980000      2.9031480E-33
   5.990000      3.1544328E-33
   6.000000      3.4115315E-33
   6.010000      3.6733111E-33
   6.020000      3.9385699E-33
   6.030000      4.2072052E-33
   6.040000      4.4771395E-33
   6.050000      4.7447224E-33
   6.060000      5.0081606E-33
   6.070000      5.2661985E-33
   6.080000      5.5183325E-33
   6.090000      5.7634760E-33
   6.100000      5.9995795E-33
   6.110000      6.2235527E-33
   6.120000      6.4343541E-33
   6.130000      6.6294010E-33
   6.140000      6.8050191E-33
   6.150000      6.9596870E-33
   6.160000      7.0912498E-33
   6.170000      7.1978722E-33
   6.180000      7.2772526E-33
   6.190000      7.3270796E-33
   6.200000      7.3451925E-33
   6.210000      7.3288061E-33
   6.220000      7.2752793E-33
   6.230000      7.1819281E-33
   6.240000      7.0463708E-33
   6.250000      6.8657745E-33
   6.260000      6.6375728E-33
   6.270000      6.3593965E-33
   6.280000      6.0264859E-33
   6.290000      5.6374318E-33
   6.300000      5.1906789E-33
   6.310000      4.6819161E-33
   6.320000      4.1083594E-33
   6.330000      3.4669641E-33
   6.340000      2.7547157E-33
   6.350000      1.9689521E-33
   6.360000      1.1070635E-33
   6.370000      1.6654105E-34
   6.380000     -8.5499471E-34
   6.390000     -1.9596556E-33
   6.400000     -3.1492522E-33
   6.410000     -4.4252660E-33
   6.420000     -5.7892098E-33
   6.430000     -7.2419408E-33
   6.440000     -8.7837515E-33
   6.450000     -1.0414701E-32
   6.460000     -1.2134092E-32
   6.470000     -1.3940684E-32
   6.480000     -1.5832861E-32
   6.490000     -1.7808409E-32
   6.500000     -1.9864503E-32
   6.510000     -2.1997497E-32
   6.520000     -2.4203028E-32
   6.530000     -2.6476899E-32
   6.540000     -2.8813283E-32
   6.550000     -3.1205596E-32
   6.560000     -3.3647571E-32
   6.570000     -3.6131822E-32
   6.580000     -3.8651403E-32
   6.590000     -4.1195702E-32
   6.600000     -4.3754759E-32
   6.610000     -4.6320134E-32
   6.620000     -4.8880117E-32
   6.630000     -5.1422853E-32
   6.640000     -5.3935630E-32
   6.650000     -5.6404333E-32
   6.660000     -5.8815225E-32
   6.670000     -6.1153601E-32
   6.680000     -6.3402621E-32
   6.690000     -6.5545024E-32
   6.700000     -6.7562913E-32
   6.710000     -6.9437492E-32
   6.720000     -7.1149105E-32
   6.730000     -7.2676678E-32
   6.740000     -7.3997898E-32
   6.750000     -7.5091043E-32
   6.760000     -7.5933309E-32
   6.770000     -7.6500302E-32
   6.780000     -7.6767275E-32
   6.790000     -7.6708818E-32
   6.800000     -7.6298958E-32
   6.810000     -7.5511200E-32
   6.820000     -7.4318661E-32
   6.830000     -7.2694134E-32
   6.840000     -7.0610247E-32
   6.850000     -6.8039576E-32
   6.860000     -6.4954773E-32
   6.870000     -6.1328714E-32
   6.880000     -5.7134697E-32
   6.890000     -5.2346486E-32
   6.900000     -4.6938553E-32
   6.910000     -4.0886200E-32
   6.920000     -3.4165723E-32
   6.930000     -2.6754554E-32
   6.940000     -1.8631464E-32
   6.950000     -9.7766806E-33
   6.960000     -1.7204201E-34
   6.970000      1.0198754E-32
   6.980000      2.1349995E-32
   6.990000      3.3293756E-32
   7.000000      4.6039717E-32
   7.010000      5.9594919E-32
   7.020000      7.3963521E-32
   7.030000      8.9146570E-32
   7.040000      1.0514180E-31
   7.050000      1.2194335E-31
   7.060000      1.3954148E-31