  -2.600000      0.0000000E+00
  -2.590000      0.0000000E+00
  -2.580000      0.0000000E+00
  -2.570000      0.0000000E+00
  -2.560000      0.0000000E+00
  -2.550000      0.0000000E+00
  -2.540000      0.0000000E+00
  -2.530000      0.0000000E+00
  -2.520000      0.0000000E+00
  -2.510000      0.0000000E+00
  -2.500000      0.0000000E+00
  -2.490000      0.0000000E+00
  -2.480000      0.0000000E+00
  -2.470000      0.0000000E+00
  -2.460000      0.0000000E+00
  -2.450000      0.0000000E+00
  -2.440000      0.0000000E+00
  -2.430000      0.0000000E+00
  -2.420000      0.0000000E+00
  -2.410000      0.0000000E+00
  -2.400000      0.0000000E+00
  -2.390000      0.0000000E+00
  -2.380000      0.0000000E+00
  -2.370000      0.0000000E+00
  -2.360000      0.0000000E+00
  -2.350000      0.0000000E+00
  -2.340000      0.0000000E+00
  -2.330000      0.0000000E+00
  -2.320000      0.0000000E+00
  -2.310000      0.0000000E+00
  -2.300000      0.0000000E+00
  -2.290000      0.0000000E+00
  -2.280000      0.0000000E+00
  -2.270000      0.0000000E+00
  -2.260000      0.0000000E+00
  -2.250000      0.0000000E+00
  -2.240000      0.0000000E+00
  -2.230000      0.0000000E+00
  -2.220000      0.0000000E+00
  -2.210000      0.0000000E+00
  -2.200000      0.0000000E+00
  -2.190000      0.0000000E+00
  -2.180000      0.0000000E+00
  -2.170000      0.0000000E+00
  -2.160000      0.0000000E+00
  -2.150000      0.0000000E+00
  -2.140000      0.0000000E+00
  -2.130000      0.0000000E+00
  -2.120000      0.0000000E+00
  -2.110000      0.0000000E+00
  -2.100000      0.0000000E+00
  -2.090000      0.0000000E+00
  -2.080000      0.0000000E+00
  -2.070000      0.0000000E+00
  -2.060000      0.0000000E+00
  -2.050000      0.0000000E+00
  -2.040000      0.0000000E+00
  -2.030000      0.0000000E+00
  -2.020000      0.0000000E+00
  -2.010000      0.0000000E+00
  -2.000000      0.0000000E+00
  -1.990000      0.0000000E+00
  -1.980000      0.0000000E+00
  -1.970000      0.0000000E+00
  -1.960000      0.0000000E+00
  -1.950000      0.0000000E+00
  -1.940000      0.0000000E+00
  -1.930000      0.0000000E+00
  -1.920000      0.0000000E+00
  -1.910000      0.0000000E+00
  -1.900000      0.0000000E+00
  -1.890000      0.0000000E+00
  -1.880000      0.0000000E+00
  -1.870000      0.0000000E+00
  -1.860000      0.0000000E+00
  -1.850000      0.0000000E+00
  -1.840000      0.0000000E+00
  -1.830000      0.0000000E+00
  -1.820000      0.0000000E+00
  -1.810000      0.0000000E+00
  -1.800000      0.0000000E+00
  -1.790000      0.0000000E+00
  -1.780000      0.0000000E+00
  -1.770000      0.0000000E+00
  -1.760000      0.0000000E+00
  -1.750000      0.0000000E+00
  -1.740000      0.0000000E+00
  -1.730000      0.0000000E+00
  -1.720000      0.0000000E+00
  -1.710000      0.0000000E+00
  -1.700000      0.0000000E+00
  -1.690000      0.0000000E+00
  -1.680000      0.0000000E+00
  -1.670000      0.0000000E+00
  -1.660000      0.0000000E+00
  -1.650000      0.0000000E+00
  -1.640000      0.0000000E+00
  -1.630000      0.0000000E+00
  -1.620000      0.0000000E+00
  -1.610000      0.0000000E+00
  -1.600000      0.0000000E+00
  -1.590000      0.0000000E+00
  -1.580000      0.0000000E+00
  -1.570000      0.0000000E+00
  -1.560000      0.0000000E+00
  -1.550000      0.0000000E+00
  -1.540000      0.0000000E+00
  -1.530000      0.0000000E+00
  -1.520000      0.0000000E+00
  -1.510000      0.0000000E+00
  -1.500000      0.0000000E+00
  -1.490000      0.0000000E+00
  -1.480000      0.0000000E+00
  -1.470000      0.0000000E+00
  -1.460000      0.0000000E+00
  -1.450000      0.0000000E+00
  -1.440000      0.0000000E+00
  -1.430000      0.0000000E+00
  -1.420000      0.0000000E+00
  -1.410000      0.0000000E+00
  -1.400000      0.0000000E+00
  -1.390000      0.0000000E+00
  -1.380000      0.0000000E+00
  -1.370000      0.0000000E+00
  -1.360000      0.0000000E+00
  -1.350000      0.0000000E+00
  -1.340000      0.0000000E+00
  -1.330000      0.0000000E+00
  -1.320000      0.0000000E+00
  -1.310000      0.0000000E+00
  -1.300000      0.0000000E+00
  -1.290000      0.0000000E+00
  -1.280000      0.0000000E+00
  -1.270000      0.0000000E+00
  -1.260000      0.0000000E+00
  -1.250000      0.0000000E+00
  -1.240000      0.0000000E+00
  -1.230000      0.0000000E+00
  -1.220000      0.0000000E+00
  -1.210000      0.0000000E+00
  -1.200000      0.0000000E+00
  -1.190000      0.0000000E+00
  -1.180000      0.0000000E+00
  -1.170000      0.0000000E+00
  -1.160000      0.0000000E+00
  -1.150000      0.0000000E+00
  -1.140000      0.0000000E+00
  -1.130000      0.0000000E+00
  -1.120000      0.0000000E+00
  -1.110000      0.0000000E+00
  -1.100000      0.0000000E+00
  -1.090000      0.0000000E+00
  -1.080000      0.0000000E+00
  -1.070000      0.0000000E+00
  -1.060000      0.0000000E+00
  -1.050000      0.0000000E+00
  -1.040000      0.0000000E+00
  -1.030000      0.0000000E+00
  -1.020000      0.0000000E+00
  -1.010000      0.0000000E+00
  -1.000000      0.0000000E+00
 -0.9900000      0.0000000E+00
 -0.9800000      0.0000000E+00
 -0.9700000      0.0000000E+00
 -0.9600000      0.0000000E+00
 -0.9500000      0.0000000E+00
 -0.9400000      0.0000000E+00
 -0.9300000      0.0000000E+00
 -0.9200000      0.0000000E+00
 -0.9100000      0.0000000E+00
 -0.9000000      0.0000000E+00
 -0.8900000      0.0000000E+00
 -0.8800000      0.0000000E+00
 -0.8700000      0.0000000E+00
 -0.8600000      0.0000000E+00
 -0.8500000      0.0000000E+00
 -0.8400000      0.0000000E+00
 -0.8300000      0.0000000E+00
 -0.8200000      0.0000000E+00
 -0.8100000      0.0000000E+00
 -0.8000000      0.0000000E+00
 -0.7900000      0.0000000E+00
 -0.7800000      0.0000000E+00
 -0.7700000      0.0000000E+00
 -0.7600000      0.0000000E+00
 -0.7500000      0.0000000E+00
 -0.7400000      0.0000000E+00
 -0.7300000      0.0000000E+00
 -0.7200000      0.0000000E+00
 -0.7100000      0.0000000E+00
 -0.7000000      0.0000000E+00
 -0.6900000      0.0000000E+00
 -0.6800000      0.0000000E+00
 -0.6700000      0.0000000E+00
 -0.6600000      0.0000000E+00
 -0.6500000      0.0000000E+00
 -0.6400000      0.0000000E+00
 -0.6300000      0.0000000E+00
 -0.6200000      0.0000000E+00
 -0.6100000      0.0000000E+00
 -0.6000000      0.0000000E+00
 -0.5900000      0.0000000E+00
 -0.5800000      0.0000000E+00
 -0.5700000      0.0000000E+00
 -0.5600000      0.0000000E+00
 -0.5500000      0.0000000E+00
 -0.5400000      0.0000000E+00
 -0.5300000      0.0000000E+00
 -0.5200000      0.0000000E+00
 -0.5100000      0.0000000E+00
 -0.5000000      0.0000000E+00
 -0.4900000      0.0000000E+00
 -0.4800000      0.0000000E+00
 -0.4700000      0.0000000E+00
 -0.4600000      0.0000000E+00
 -0.4500000      0.0000000E+00
 -0.4400000      0.0000000E+00
 -0.4300000      0.0000000E+00
 -0.4200000      0.0000000E+00
 -0.4100000      0.0000000E+00
 -0.4000000      0.0000000E+00
 -0.3900000      0.0000000E+00
 -0.3800000      0.0000000E+00
 -0.3700000      0.0000000E+00
 -0.3600000      0.0000000E+00
 -0.3500000      0.0000000E+00
 -0.3400000      0.0000000E+00
 -0.3300000      0.0000000E+00
 -0.3200000      0.0000000E+00
 -0.3100000      0.0000000E+00
 -0.3000000      0.0000000E+00
 -0.2900000      0.0000000E+00
 -0.2800000      0.0000000E+00
 -0.2700000      0.0000000E+00
 -0.2600000      0.0000000E+00
 -0.2500000      0.0000000E+00
 -0.2400000      0.0000000E+00
 -0.2300000      0.0000000E+00
 -0.2200000      0.0000000E+00
 -0.2100000      0.0000000E+00
 -0.2000000      0.0000000E+00
 -0.1900000      0.0000000E+00
 -0.1800000      0.0000000E+00
 -0.1700000      0.0000000E+00
 -0.1600000      0.0000000E+00
 -0.1500000      0.0000000E+00
 -0.1400000      0.0000000E+00
 -0.1300000      0.0000000E+00
 -0.1200000      0.0000000E+00
 -0.1100000      0.0000000E+00
 -0.1000000      0.0000000E+00
 -9.0000004E-02  0.0000000E+00
 -7.9999998E-02  0.0000000E+00
 -7.0000000E-02  0.0000000E+00
 -5.9999999E-02  0.0000000E+00
 -5.0000001E-02  0.0000000E+00
 -3.9999999E-02  0.0000000E+00
 -2.9999999E-02  0.0000000E+00
 -2.0000000E-02  0.0000000E+00
 -9.9999998E-03  0.0000000E+00
 -3.4694470E-17  0.0000000E+00
  9.9999998E-03  0.0000000E+00
  2.0000000E-02  0.0000000E+00
  2.9999999E-02  0.0000000E+00
  3.9999999E-02  0.0000000E+00
  5.0000001E-02  0.0000000E+00
  5.9999999E-02  0.0000000E+00
  7.0000000E-02  0.0000000E+00
  7.9999998E-02  0.0000000E+00
  9.0000004E-02  0.0000000E+00
  0.1000000      0.0000000E+00
  0.1100000      0.0000000E+00
  0.1200000      0.0000000E+00
  0.1300000      0.0000000E+00
  0.1400000      0.0000000E+00
  0.1500000      0.0000000E+00
  0.1600000      0.0000000E+00
  0.1700000      0.0000000E+00
  0.1800000      0.0000000E+00
  0.1900000      0.0000000E+00
  0.2000000      0.0000000E+00
  0.2100000      0.0000000E+00
  0.2200000      0.0000000E+00
  0.2300000      0.0000000E+00
  0.2400000      0.0000000E+00
  0.2500000      0.0000000E+00
  0.2600000      0.0000000E+00
  0.2700000      0.0000000E+00
  0.2800000      0.0000000E+00
  0.2900000      0.0000000E+00
  0.3000000      0.0000000E+00
  0.3100000      0.0000000E+00
  0.3200000      0.0000000E+00
  0.3300000      0.0000000E+00
  0.3400000      0.0000000E+00
  0.3500000      0.0000000E+00
  0.3600000      0.0000000E+00
  0.3700000      0.0000000E+00
  0.3800000      0.0000000E+00
  0.3900000      0.0000000E+00
  0.4000000      0.0000000E+00
  0.4100000      0.0000000E+00
  0.4200000      0.0000000E+00
  0.4300000      0.0000000E+00
  0.4400000      0.0000000E+00
  0.4500000      0.0000000E+00
  0.4600000      0.0000000E+00
  0.4700000      0.0000000E+00
  0.4800000      0.0000000E+00
  0.4900000      0.0000000E+00
  0.5000000      0.0000000E+00
  0.5100000      0.0000000E+00
  0.5200000      0.0000000E+00
  0.5300000      0.0000000E+00
  0.5400000      0.0000000E+00
  0.5500000      0.0000000E+00
  0.5600000      0.0000000E+00
  0.5700000      0.0000000E+00
  0.5800000      0.0000000E+00
  0.5900000      0.0000000E+00
  0.6000000      0.0000000E+00
  0.6100000      0.0000000E+00
  0.6200000      0.0000000E+00
  0.6300000      0.0000000E+00
  0.6400000      0.0000000E+00
  0.6500000      0.0000000E+00
  0.6600000      0.0000000E+00
  0.6700000      0.0000000E+00
  0.6800000      0.0000000E+00
  0.6900000      0.0000000E+00
  0.7000000      0.0000000E+00
  0.7100000      0.0000000E+00
  0.7200000      0.0000000E+00
  0.7300000      0.0000000E+00
  0.7400000      0.0000000E+00
  0.7500000      0.0000000E+00
  0.7600000      0.0000000E+00
  0.7700000      0.0000000E+00
  0.7800000      0.0000000E+00
  0.7900000      0.0000000E+00
  0.8000000      0.0000000E+00
  0.8100000      0.0000000E+00
  0.8200000      0.0000000E+00
  0.8300000      0.0000000E+00
  0.8400000      0.0000000E+00
  0.8500000      0.0000000E+00
  0.8600000      0.0000000E+00
  0.8700000      0.0000000E+00
  0.8800000      0.0000000E+00
  0.8900000      0.0000000E+00
  0.9000000      0.0000000E+00
  0.9100000      0.0000000E+00
  0.9200000      0.0000000E+00
  0.9300000      0.0000000E+00
  0.9400000      0.0000000E+00
  0.9500000      0.0000000E+00
  0.9600000      0.0000000E+00
  0.9700000      0.0000000E+00
  0.9800000      0.0000000E+00
  0.9900000      0.0000000E+00
   1.000000      0.0000000E+00
   1.010000      0.0000000E+00
   1.020000      0.0000000E+00
   1.030000      0.0000000E+00
   1.040000      0.0000000E+00
   1.050000      0.0000000E+00
   1.060000      0.0000000E+00
   1.070000      0.0000000E+00
   1.080000      0.0000000E+00
   1.090000      0.0000000E+00
   1.100000      0.0000000E+00
   1.110000      0.0000000E+00
   1.120000      0.0000000E+00
   1.130000      0.0000000E+00
   1.140000      0.0000000E+00
   1.150000      0.0000000E+00
   1.160000      0.0000000E+00
   1.170000      0.0000000E+00
   1.180000      0.0000000E+00
   1.190000      0.0000000E+00
   1.200000      0.0000000E+00
   1.210000      0.0000000E+00
   1.220000      0.0000000E+00
   1.230000      0.0000000E+00
   1.240000      0.0000000E+00
   1.250000      0.0000000E+00
   1.260000      0.0000000E+00
   1.270000      0.0000000E+00
   1.280000      0.0000000E+00
   1.290000      0.0000000E+00
   1.300000      0.0000000E+00
   1.310000      0.0000000E+00
   1.320000      0.0000000E+00
   1.330000      0.0000000E+00
   1.340000      0.0000000E+00
   1.350000      0.0000000E+00
   1.360000      0.0000000E+00
   1.370000      0.0000000E+00
   1.380000      0.0000000E+00
   1.390000      0.0000000E+00
   1.400000      0.0000000E+00
   1.410000      0.0000000E+00
   1.420000      0.0000000E+00
   1.430000      0.0000000E+00
   1.440000      0.0000000E+00
   1.450000      0.0000000E+00
   1.460000      0.0000000E+00
   1.470000      0.0000000E+00
   1.480000      0.0000000E+00
   1.490000      0.0000000E+00
   1.500000      0.0000000E+00
   1.510000      0.0000000E+00
   1.520000      0.0000000E+00
   1.530000      0.0000000E+00
   1.540000      0.0000000E+00
   1.550000      0.0000000E+00
   1.560000      0.0000000E+00
   1.570000      0.0000000E+00
   1.580000      0.0000000E+00
   1.590000      0.0000000E+00
   1.600000      0.0000000E+00
   1.610000      0.0000000E+00
   1.620000      0.0000000E+00
   1.630000      0.0000000E+00
   1.640000      0.0000000E+00
   1.650000      0.0000000E+00
   1.660000      0.0000000E+00
   1.670000      0.0000000E+00
   1.680000      0.0000000E+00
   1.690000      0.0000000E+00
   1.700000      0.0000000E+00
   1.710000      0.0000000E+00
   1.720000      0.0000000E+00
   1.730000      0.0000000E+00
   1.740000      0.0000000E+00
   1.750000      0.0000000E+00
   1.760000      0.0000000E+00
   1.770000      0.0000000E+00
   1.780000      0.0000000E+00
   1.790000      0.0000000E+00
   1.800000      0.0000000E+00
   1.810000      0.0000000E+00
   1.820000      0.0000000E+00
   1.830000      0.0000000E+00
   1.840000      0.0000000E+00
   1.850000      0.0000000E+00
   1.860000      0.0000000E+00
   1.870000      0.0000000E+00
   1.880000      0.0000000E+00
   1.890000      0.0000000E+00
   1.900000      0.0000000E+00
   1.910000      0.0000000E+00
   1.920000      0.0000000E+00
   1.930000      0.0000000E+00
   1.940000      0.0000000E+00
   1.950000      0.0000000E+00
   1.960000      0.0000000E+00
   1.970000      0.0000000E+00
   1.980000      0.0000000E+00
   1.990000      0.0000000E+00
   2.000000      0.0000000E+00
   2.010000      0.0000000E+00
   2.020000      0.0000000E+00
   2.030000      0.0000000E+00
   2.040000      0.0000000E+00
   2.050000      0.0000000E+00
   2.060000      0.0000000E+00
   2.070000      0.0000000E+00
   2.080000      0.0000000E+00
   2.090000      0.0000000E+00
   2.100000      0.0000000E+00
   2.110000      0.0000000E+00
   2.120000      0.0000000E+00
   2.130000      0.0000000E+00
   2.140000      0.0000000E+00
   2.150000      0.0000000E+00
   2.160000      0.0000000E+00
   2.170000      0.0000000E+00
   2.180000      0.0000000E+00
   2.190000      0.0000000E+00
   2.200000      0.0000000E+00
   2.210000      0.0000000E+00
   2.220000      0.0000000E+00
   2.230000      0.0000000E+00
   2.240000      0.0000000E+00
   2.250000      0.0000000E+00
   2.260000      0.0000000E+00
   2.270000      0.0000000E+00
   2.280000      0.0000000E+00
   2.290000      0.0000000E+00
   2.300000      0.0000000E+00
   2.310000      0.0000000E+00
   2.320000      0.0000000E+00
   2.330000      0.0000000E+00
   2.340000      0.0000000E+00
   2.350000      0.0000000E+00
   2.360000      0.0000000E+00
   2.370000      0.0000000E+00
   2.380000      0.0000000E+00
   2.390000      0.0000000E+00
   2.400000      0.0000000E+00
   2.410000      0.0000000E+00
   2.420000      0.0000000E+00
   2.430000      0.0000000E+00
   2.440000      0.0000000E+00
   2.450000      0.0000000E+00
   2.460000      0.0000000E+00
   2.470000      0.0000000E+00
   2.480000      0.0000000E+00
   2.490000      0.0000000E+00
   2.500000      0.0000000E+00
   2.510000      0.0000000E+00
   2.520000      0.0000000E+00
   2.530000      0.0000000E+00
   2.540000      0.0000000E+00
   2.550000      0.0000000E+00
   2.560000      0.0000000E+00
   2.570000      0.0000000E+00
   2.580000      0.0000000E+00
   2.590000      0.0000000E+00
   2.600000      0.0000000E+00
   2.610000      0.0000000E+00
   2.620000      0.0000000E+00
   2.630000      0.0000000E+00
   2.640000      0.0000000E+00
   2.650000      0.0000000E+00
   2.660000      0.0000000E+00
   2.670000      0.0000000E+00
   2.680000      0.0000000E+00
   2.690000      0.0000000E+00
   2.700000      0.0000000E+00
   2.710000      0.0000000E+00
   2.720000      0.0000000E+00
   2.730000      0.0000000E+00
   2.740000      0.0000000E+00
   2.750000      0.0000000E+00
   2.760000      0.0000000E+00
   2.770000      0.0000000E+00
   2.780000      0.0000000E+00
   2.790000      0.0000000E+00
   2.800000      0.0000000E+00
   2.810000      0.0000000E+00
   2.820000      0.0000000E+00
   2.830000      0.0000000E+00
   2.840000      0.0000000E+00
   2.850000      0.0000000E+00
   2.860000      0.0000000E+00
   2.870000      0.0000000E+00
   2.880000      0.0000000E+00
   2.890000      0.0000000E+00
   2.900000      0.0000000E+00
   2.910000      0.0000000E+00
   2.920000      0.0000000E+00
   2.930000      0.0000000E+00
   2.940000      0.0000000E+00
   2.950000      0.0000000E+00
   2.960000      0.0000000E+00
   2.970000      0.0000000E+00
   2.980000      0.0000000E+00
   2.990000      0.0000000E+00
   3.000000      0.0000000E+00
   3.010000      0.0000000E+00
   3.020000      0.0000000E+00
   3.030000      0.0000000E+00
   3.040000      0.0000000E+00
   3.050000      0.0000000E+00
   3.060000      0.0000000E+00
   3.070000      0.0000000E+00
   3.080000      0.0000000E+00
   3.090000      0.0000000E+00
   3.100000      0.0000000E+00
   3.110000      0.0000000E+00
   3.120000      0.0000000E+00
   3.130000      0.0000000E+00
   3.140000      0.0000000E+00
   3.150000      0.0000000E+00
   3.160000      0.0000000E+00
   3.170000      0.0000000E+00
   3.180000      0.0000000E+00
   3.190000      0.0000000E+00
   3.200000      0.0000000E+00
   3.210000      0.0000000E+00
   3.220000      0.0000000E+00
   3.230000      0.0000000E+00
   3.240000      0.0000000E+00
   3.250000      0.0000000E+00
   3.260000      0.0000000E+00
   3.270000      0.0000000E+00
   3.280000      0.0000000E+00
   3.290000      0.0000000E+00
   3.300000      0.0000000E+00
   3.310000      0.0000000E+00
   3.320000      0.0000000E+00
   3.330000      0.0000000E+00
   3.340000      0.0000000E+00
   3.350000      0.0000000E+00
   3.360000      0.0000000E+00
   3.370000      0.0000000E+00
   3.380000      0.0000000E+00
   3.390000      0.0000000E+00
   3.400000      0.0000000E+00
   3.410000      0.0000000E+00
   3.420000      0.0000000E+00
   3.430000      0.0000000E+00
   3.440000      0.0000000E+00
   3.450000      0.0000000E+00
   3.460000      0.0000000E+00
   3.470000      0.0000000E+00
   3.480000      0.0000000E+00
   3.490000      0.0000000E+00
   3.500000      0.0000000E+00
   3.510000      0.0000000E+00
   3.520000      0.0000000E+00
   3.530000      0.0000000E+00
   3.540000      0.0000000E+00
   3.550000      0.0000000E+00
   3.560000      0.0000000E+00
   3.570000      0.0000000E+00
   3.580000     -1.3100058E-38
   3.590000     -1.6418839E-38
   3.600000     -2.0135773E-38
   3.610000     -2.1757622E-38
   3.620000     -2.0140587E-38
   3.630000     -1.7441678E-38
   3.640000     -1.3421194E-38
   3.650000      0.0000000E+00
   3.660000      0.0000000E+00
   3.670000      0.0000000E+00
   3.680000      0.0000000E+00
   3.690000      1.4436444E-38
   3.700000      1.8641385E-38
   3.710000      2.3649658E-38
   3.720000      2.7006962E-38
   3.730000      2.6435927E-38
   3.740000      2.3248203E-38
   3.750000      1.9319850E-38
   3.760000      1.7106954E-38
   3.770000      1.7664620E-38
   3.780000      2.2046615E-38
   3.790000      3.1113293E-38
   3.800000      4.4001784E-38
   3.810000      5.8511116E-38
   3.820000      7.2304775E-38
   3.830000      7.8945804E-38
   3.840000      7.8579252E-38
   3.850000      7.7354349E-38
   3.860000      7.5108516E-38
   3.870000      7.2332202E-38
   3.880000      7.0376191E-38
   3.890000      6.8542452E-38
   3.900000      7.0722166E-38
   3.910000      7.6889432E-38
   3.920000      8.1078507E-38
   3.930000      8.4600940E-38
   3.940000      8.8473860E-38
   3.950000      8.7433020E-38
   3.960000      7.3560726E-38
   3.970000      5.1400463E-38
   3.980000      3.0682545E-38
   3.990000      1.9934712E-38
   4.000000      1.9052393E-38
   4.010000      2.1684532E-38
   4.020000      3.4366671E-38
   4.030000      5.3850835E-38
   4.040000      6.9926581E-38
   4.050000      8.2814217E-38
   4.060000      9.1359587E-38
   4.070000      9.4173535E-38
   4.080000      9.2659846E-38
   4.090000      8.5765088E-38
   4.100000      7.7595288E-38
   4.110000      6.9053135E-38
   4.120000      5.0076824E-38
   4.130000      2.1759669E-38
   4.140000      0.0000000E+00
   4.150000     -2.9855345E-38
   4.160000     -5.7261041E-38
   4.170000     -8.4912779E-38
   4.180000     -1.1921740E-37
   4.190000     -1.5570669E-37
   4.200000     -1.8986370E-37
   4.210000     -2.5776311E-37
   4.220000     -3.3046725E-37
   4.230000     -3.7334638E-37
   4.240000     -4.1521047E-37
   4.250000     -4.4336030E-37
   4.260000     -4.4386934E-37
   4.270000     -4.3137451E-37
   4.280000     -4.2922400E-37
   4.290000     -4.4307663E-37
   4.300000     -4.9380875E-37
   4.310000     -5.9295175E-37
   4.320000     -6.2154685E-37
   4.330000     -3.7363350E-37
   4.340000      1.4485416E-37
   4.350000      7.7395602E-37
   4.360000      1.4683338E-36
   4.370000      1.9304449E-36
   4.380000      1.9224066E-36
   4.390000      1.6388694E-36
   4.400000      1.2566401E-36
   4.410000      7.2630707E-37
   4.420000      3.8243596E-38
   4.430000     -6.0806390E-37
   4.440000     -1.1347524E-36
   4.450000     -1.4507669E-36
   4.460000     -1.6647749E-36
   4.470000     -2.0019765E-36
   4.480000     -2.0901490E-36
   4.490000     -1.8891772E-36
   4.500000     -1.6770898E-36
   4.510000     -1.4943319E-36
   4.520000     -1.6685742E-36
   4.530000     -2.1750929E-36
   4.540000     -2.3857567E-36
   4.550000     -1.8723511E-36
   4.560000     -1.0204753E-36
   4.570000     -5.8429447E-37
   4.580000     -8.6979775E-37
   4.590000     -1.5582889E-36
   4.600000     -2.3440024E-36
   4.610000     -3.2847247E-36
   4.620000     -3.9341423E-36
   4.630000     -4.2234746E-36
   4.640000     -4.4808806E-36
   4.650000     -4.5766722E-36
   4.660000     -4.5402590E-36
   4.670000     -4.5223931E-36
   4.680000     -4.6133630E-36
   4.690000     -4.8098802E-36
   4.700000     -5.4051589E-36
   4.710000     -5.9277216E-36
   4.720000     -6.2495246E-36
   4.730000     -6.8086134E-36
   4.740000     -7.2698607E-36
   4.750000     -7.5875606E-36
   4.760000     -7.2553651E-36
   4.770000     -5.9910705E-36
   4.780000     -4.3722521E-36
   4.790000     -2.8104666E-36
   4.800000     -1.2251126E-36
   4.810000      4.9624620E-37
   4.820000      1.5372125E-36
   4.830000      2.0913084E-36
   4.840000      2.9690296E-36
   4.850000      4.1933401E-36
   4.860000      5.7232376E-36
   4.870000      7.2504971E-36
   4.880000      8.9739688E-36
   4.890000      1.0762144E-35
   4.900000      1.2297917E-35
   4.910000      1.3878555E-35
   4.920000      1.5658988E-35
   4.930000      1.7575909E-35
   4.940000      1.9614395E-35
   4.950000      2.1699847E-35
   4.960000      2.3575733E-35
   4.970000      2.5098687E-35
   4.980000      2.6196839E-35
   4.990000      2.7102012E-35
   5.000000      2.7786930E-35
   5.010000      2.8109276E-35
   5.020000      2.6564241E-35
   5.030000      2.5497130E-35
   5.040000      2.6767295E-35
   5.050000      2.9036785E-35
   5.060000      3.4228757E-35
   5.070000      4.0609372E-35
   5.080000      4.6295135E-35
   5.090000      5.2366460E-35
   5.100000      5.8781307E-35
   5.110000      6.4592732E-35
   5.120000      7.0608944E-35
   5.130000      7.6122357E-35
   5.140000      7.8878592E-35
   5.150000      7.3129208E-35
   5.160000      6.0478123E-35
   5.170000      5.0498313E-35
   5.180000      4.0507699E-35
   5.190000      3.4335513E-35
   5.200000      3.6907171E-35
   5.210000      3.7518189E-35
   5.220000      3.2080162E-35
   5.230000      2.3217090E-35
   5.240000      1.4312696E-35
   5.250000     -1.3702693E-36
   5.260000     -2.6357726E-35
   5.270000     -4.4888519E-35
   5.280000     -5.5621511E-35
   5.290000     -6.4196083E-35
   5.300000     -6.4471916E-35
   5.310000     -6.0952470E-35
   5.320000     -6.2411455E-35
   5.330000     -6.4339891E-35
   5.340000     -6.3767039E-35
   5.350000     -6.1237889E-35
   5.360000     -5.4503638E-35
   5.370000     -4.5728432E-35
   5.380000     -3.7789750E-35
   5.390000     -4.6083927E-35
   5.400000     -7.6194597E-35
   5.410000     -1.2140463E-34
   5.420000     -1.8192334E-34
   5.430000     -2.4923506E-34
   5.440000     -3.1837775E-34
   5.450000     -3.8362593E-34
   5.460000     -4.3176982E-34
   5.470000     -4.5681680E-34
   5.480000     -4.5942498E-34
   5.490000     -4.4012497E-34
   5.500000     -4.0999760E-34
   5.510000     -3.7986447E-34
   5.520000     -3.5309267E-34
   5.530000     -3.3041700E-34
   5.540000     -3.1132206E-34
   5.550000     -3.0915683E-34
   5.560000     -3.2633509E-34
   5.570000     -3.5035791E-34
   5.580000     -3.8139780E-34
   5.590000     -4.1720113E-34
   5.600000     -4.5217553E-34
   5.610000     -4.7531863E-34
   5.620000     -4.8001174E-34
   5.630000     -4.6778821E-34
   5.640000     -4.3830102E-34
   5.650000     -3.9035242E-34
   5.660000     -3.2882528E-34
   5.670000     -2.5823669E-34
   5.680000     -1.7682489E-34
   5.690000     -9.5005342E-35
   5.700000     -2.2402114E-35
   5.710000      3.2342022E-35
   5.720000      7.0303023E-35
   5.730000      1.0469151E-34
   5.740000      1.4359867E-34
   5.750000      1.7704685E-34
   5.760000      2.0135628E-34
   5.770000      2.2935598E-34
   5.780000      2.6765579E-34
   5.790000      3.2504600E-34
   5.800000      3.9743207E-34
   5.810000      4.7513978E-34
   5.820000      5.6318371E-34
   5.830000      6.6686437E-34
   5.840000      7.8435053E-34
   5.850000      9.1359614E-34
   5.860000      1.0530255E-33
   5.870000      1.1995765E-33
   5.880000      1.3487190E-33
   5.890000      1.4970720E-33
   5.900000      1.6416884E-33
   5.910000      1.7800414E-33
   5.920000      1.9120380E-33
   5.930000      2.0370248E-33
   5.940000      2.1597486E-33
   5.950000      2.2834123E-33
   5.960000      2.4069837E-33
   5.970000      2.5340473E-33
   5.980000      2.6659393E-33
   5.990000      2.8034868E-33
   6.000000      2.9464368E-33
   6.010000      3.0938067E-33
   6.020000      3.2429377E-33
   6.030000      3.3897242E-33
   6.040000      3.5296775E-33
   6.050000      3.6572476E-33
   6.060000      3.7673161E-33
   6.070000      3.8562059E-33
   6.080000      3.9215226E-33
   6.090000      3.9603672E-33
   6.100000      3.9727551E-33
   6.110000      3.9607977E-33
   6.120000      3.9250366E-33
   6.130000      3.8672508E-33
   6.140000      3.7914053E-33
   6.150000      3.6985593E-33
   6.160000      3.5886972E-33
   6.170000      3.4628341E-33
   6.180000      3.3198458E-33
   6.190000      3.1573448E-33
   6.200000      2.9720363E-33
   6.210000      2.7591301E-33
   6.220000      2.5135384E-33
   6.230000      2.2291000E-33
   6.240000      1.9025124E-33
   6.250000      1.5314115E-33
   6.260000      1.1115450E-33
   6.270000      6.4216173E-34
   6.280000      1.2145000E-34
   6.290000     -4.5105936E-34
   6.300000     -1.0725126E-33
   6.310000     -1.7401950E-33
   6.320000     -2.4514615E-33
   6.330000     -3.2077220E-33
   6.340000     -4.0026854E-33
   6.350000     -4.8305313E-33
   6.360000     -5.6965966E-33
   6.370000     -6.6044026E-33
   6.380000     -7.5549558E-33
   6.390000     -8.5506767E-33
   6.400000     -9.5955112E-33
   6.410000     -1.0692170E-32
   6.420000     -1.1842563E-32
   6.430000     -1.3047069E-32
   6.440000     -1.4304000E-32
   6.450000     -1.5609755E-32
   6.460000     -1.6958807E-32
   6.470000     -1.8343936E-32
   6.480000     -1.9756692E-32
   6.490000     -2.1189466E-32
   6.500000     -2.2630677E-32
   6.510000     -2.4069831E-32
   6.520000     -2.5500628E-32
   6.530000     -2.6915617E-32
   6.540000     -2.8308849E-32
   6.550000     -2.9675475E-32
   6.560000     -3.1011337E-32
   6.570000     -3.2312444E-32
   6.580000     -3.3574496E-32
   6.590000     -3.4792264E-32
   6.600000     -3.5959016E-32
   6.610000     -3.7066149E-32
   6.620000     -3.8102909E-32
   6.630000     -3.9056390E-32
   6.640000     -3.9911710E-32
   6.650000     -4.0652594E-32
   6.660000     -4.1261177E-32
   6.670000     -4.1719746E-32
   6.680000     -4.2011198E-32
   6.690000     -4.2118615E-32
   6.700000     -4.2026600E-32
   6.710000     -4.1721233E-32
   6.720000     -4.1189960E-32
   6.730000     -4.0421692E-32
   6.740000     -3.9406197E-32
   6.750000     -3.8133439E-32
   6.760000     -3.6593010E-32
   6.770000     -3.4773536E-32
   6.780000     -3.2662492E-32
   6.790000     -3.0245802E-32
   6.800000     -2.7507649E-32
   6.810000     -2.4430756E-32
   6.820000     -2.0996590E-32
   6.830000     -1.7186306E-32
   6.840000     -1.2981623E-32
   6.850000     -8.3651778E-33
   6.860000     -3.3215595E-33
   6.870000      2.1621218E-33
   6.880000      8.0958221E-33
   6.890000      1.4486360E-32
   6.900000      2.1337503E-32
   6.910000      2.8650233E-32
   6.920000      3.6423230E-32
   6.930000      4.4653448E-32
   6.940000      5.3336681E-32
   6.950000      6.2468021E-32
   6.960000      7.2042205E-32
   6.970000      8.2053690E-32
   6.980000      9.2496500E-32
   6.990000      1.0336377E-31
   7.000000      1.1464707E-31
   7.010000      1.2633560E-31
   7.020000      1.3841525E-31
   7.030000      1.5086775E-31
   7.040000      1.6366997E-31
   7.050000      1.7679329E-31
   7.060000      1.9020333E-31