  -2.600000      0.0000000E+00
  -2.590000      0.0000000E+00
  -2.580000      0.0000000E+00
  -2.570000      0.0000000E+00
  -2.560000      0.0000000E+00
  -2.550000      0.0000000E+00
  -2.540000      0.0000000E+00
  -2.530000      0.0000000E+00
  -2.520000      0.0000000E+00
  -2.510000      0.0000000E+00
  -2.500000      0.0000000E+00
  -2.490000      0.0000000E+00
  -2.480000      0.0000000E+00
  -2.470000      0.0000000E+00
  -2.460000      0.0000000E+00
  -2.450000      0.0000000E+00
  -2.440000      0.0000000E+00
  -2.430000      0.0000000E+00
  -2.420000      0.0000000E+00
  -2.410000      0.0000000E+00
  -2.400000      0.0000000E+00
  -2.390000      0.0000000E+00
  -2.380000      0.0000000E+00
  -2.370000      0.0000000E+00
  -2.360000      0.0000000E+00
  -2.350000      0.0000000E+00
  -2.340000      0.0000000E+00
  -2.330000      0.0000000E+00
  -2.320000      0.0000000E+00
  -2.310000      0.0000000E+00
  -2.300000      0.0000000E+00
  -2.290000      0.0000000E+00
  -2.280000      0.0000000E+00
  -2.270000      0.0000000E+00
  -2.260000      0.0000000E+00
  -2.250000      0.0000000E+00
  -2.240000      0.0000000E+00
  -2.230000      0.0000000E+00
  -2.220000      0.0000000E+00
  -2.210000      0.0000000E+00
  -2.200000      0.0000000E+00
  -2.190000      0.0000000E+00
  -2.180000      0.0000000E+00
  -2.170000      0.0000000E+00
  -2.160000      0.0000000E+00
  -2.150000      0.0000000E+00
  -2.140000      0.0000000E+00
  -2.130000      0.0000000E+00
  -2.120000      0.0000000E+00
  -2.110000      0.0000000E+00
  -2.100000      0.0000000E+00
  -2.090000      0.0000000E+00
  -2.080000      0.0000000E+00
  -2.070000      0.0000000E+00
  -2.060000      0.0000000E+00
  -2.050000      0.0000000E+00
  -2.040000      0.0000000E+00
  -2.030000      0.0000000E+00
  -2.020000      0.0000000E+00
  -2.010000      0.0000000E+00
  -2.000000      0.0000000E+00
  -1.990000      0.0000000E+00
  -1.980000      0.0000000E+00
  -1.970000      0.0000000E+00
  -1.960000      0.0000000E+00
  -1.950000      0.0000000E+00
  -1.940000      0.0000000E+00
  -1.930000      0.0000000E+00
  -1.920000      0.0000000E+00
  -1.910000      0.0000000E+00
  -1.900000      0.0000000E+00
  -1.890000      0.0000000E+00
  -1.880000      0.0000000E+00
  -1.870000      0.0000000E+00
  -1.860000      0.0000000E+00
  -1.850000      0.0000000E+00
  -1.840000      0.0000000E+00
  -1.830000      0.0000000E+00
  -1.820000      0.0000000E+00
  -1.810000      0.0000000E+00
  -1.800000      0.0000000E+00
  -1.790000      0.0000000E+00
  -1.780000      0.0000000E+00
  -1.770000      0.0000000E+00
  -1.760000      0.0000000E+00
  -1.750000      0.0000000E+00
  -1.740000      0.0000000E+00
  -1.730000      0.0000000E+00
  -1.720000      0.0000000E+00
  -1.710000      0.0000000E+00
  -1.700000      0.0000000E+00
  -1.690000      0.0000000E+00
  -1.680000      0.0000000E+00
  -1.670000      0.0000000E+00
  -1.660000      0.0000000E+00
  -1.650000      0.0000000E+00
  -1.640000      0.0000000E+00
  -1.630000      0.0000000E+00
  -1.620000      0.0000000E+00
  -1.610000      0.0000000E+00
  -1.600000      0.0000000E+00
  -1.590000      0.0000000E+00
  -1.580000      0.0000000E+00
  -1.570000      0.0000000E+00
  -1.560000      0.0000000E+00
  -1.550000      0.0000000E+00
  -1.540000      0.0000000E+00
  -1.530000      0.0000000E+00
  -1.520000      0.0000000E+00
  -1.510000      0.0000000E+00
  -1.500000      0.0000000E+00
  -1.490000      0.0000000E+00
  -1.480000      0.0000000E+00
  -1.470000      0.0000000E+00
  -1.460000      0.0000000E+00
  -1.450000      0.0000000E+00
  -1.440000      0.0000000E+00
  -1.430000      0.0000000E+00
  -1.420000      0.0000000E+00
  -1.410000      0.0000000E+00
  -1.400000      0.0000000E+00
  -1.390000      0.0000000E+00
  -1.380000      0.0000000E+00
  -1.370000      0.0000000E+00
  -1.360000      0.0000000E+00
  -1.350000      0.0000000E+00
  -1.340000      0.0000000E+00
  -1.330000      0.0000000E+00
  -1.320000      0.0000000E+00
  -1.310000      0.0000000E+00
  -1.300000      0.0000000E+00
  -1.290000      0.0000000E+00
  -1.280000      0.0000000E+00
  -1.270000      0.0000000E+00
  -1.260000      0.0000000E+00
  -1.250000      0.0000000E+00
  -1.240000      0.0000000E+00
  -1.230000      0.0000000E+00
  -1.220000      0.0000000E+00
  -1.210000      0.0000000E+00
  -1.200000      0.0000000E+00
  -1.190000      0.0000000E+00
  -1.180000      0.0000000E+00
  -1.170000      0.0000000E+00
  -1.160000      0.0000000E+00
  -1.150000      0.0000000E+00
  -1.140000      0.0000000E+00
  -1.130000      0.0000000E+00
  -1.120000      0.0000000E+00
  -1.110000      0.0000000E+00
  -1.100000      0.0000000E+00
  -1.090000      0.0000000E+00
  -1.080000      0.0000000E+00
  -1.070000      0.0000000E+00
  -1.060000      0.0000000E+00
  -1.050000      0.0000000E+00
  -1.040000      0.0000000E+00
  -1.030000      0.0000000E+00
  -1.020000      0.0000000E+00
  -1.010000      0.0000000E+00
  -1.000000      0.0000000E+00
 -0.9900000      0.0000000E+00
 -0.9800000      0.0000000E+00
 -0.9700000      0.0000000E+00
 -0.9600000      0.0000000E+00
 -0.9500000      0.0000000E+00
 -0.9400000      0.0000000E+00
 -0.9300000      0.0000000E+00
 -0.9200000      0.0000000E+00
 -0.9100000      0.0000000E+00
 -0.9000000      0.0000000E+00
 -0.8900000      0.0000000E+00
 -0.8800000      0.0000000E+00
 -0.8700000      0.0000000E+00
 -0.8600000      0.0000000E+00
 -0.8500000      0.0000000E+00
 -0.8400000      0.0000000E+00
 -0.8300000      0.0000000E+00
 -0.8200000      0.0000000E+00
 -0.8100000      0.0000000E+00
 -0.8000000      0.0000000E+00
 -0.7900000      0.0000000E+00
 -0.7800000      0.0000000E+00
 -0.7700000      0.0000000E+00
 -0.7600000      0.0000000E+00
 -0.7500000      0.0000000E+00
 -0.7400000      0.0000000E+00
 -0.7300000      0.0000000E+00
 -0.7200000      0.0000000E+00
 -0.7100000      0.0000000E+00
 -0.7000000      0.0000000E+00
 -0.6900000      0.0000000E+00
 -0.6800000      0.0000000E+00
 -0.6700000      0.0000000E+00
 -0.6600000      0.0000000E+00
 -0.6500000      0.0000000E+00
 -0.6400000      0.0000000E+00
 -0.6300000      0.0000000E+00
 -0.6200000      0.0000000E+00
 -0.6100000      0.0000000E+00
 -0.6000000      0.0000000E+00
 -0.5900000      0.0000000E+00
 -0.5800000      0.0000000E+00
 -0.5700000      0.0000000E+00
 -0.5600000      0.0000000E+00
 -0.5500000      0.0000000E+00
 -0.5400000      0.0000000E+00
 -0.5300000      0.0000000E+00
 -0.5200000      0.0000000E+00
 -0.5100000      0.0000000E+00
 -0.5000000      0.0000000E+00
 -0.4900000      0.0000000E+00
 -0.4800000      0.0000000E+00
 -0.4700000      0.0000000E+00
 -0.4600000      0.0000000E+00
 -0.4500000      0.0000000E+00
 -0.4400000      0.0000000E+00
 -0.4300000      0.0000000E+00
 -0.4200000      0.0000000E+00
 -0.4100000      0.0000000E+00
 -0.4000000      0.0000000E+00
 -0.3900000      0.0000000E+00
 -0.3800000      0.0000000E+00
 -0.3700000      0.0000000E+00
 -0.3600000      0.0000000E+00
 -0.3500000      0.0000000E+00
 -0.3400000      0.0000000E+00
 -0.3300000      0.0000000E+00
 -0.3200000      0.0000000E+00
 -0.3100000      0.0000000E+00
 -0.3000000      0.0000000E+00
 -0.2900000      0.0000000E+00
 -0.2800000      0.0000000E+00
 -0.2700000      0.0000000E+00
 -0.2600000      0.0000000E+00
 -0.2500000      0.0000000E+00
 -0.2400000      0.0000000E+00
 -0.2300000      0.0000000E+00
 -0.2200000      0.0000000E+00
 -0.2100000      0.0000000E+00
 -0.2000000      0.0000000E+00
 -0.1900000      0.0000000E+00
 -0.1800000      0.0000000E+00
 -0.1700000      0.0000000E+00
 -0.1600000      0.0000000E+00
 -0.1500000      0.0000000E+00
 -0.1400000      0.0000000E+00
 -0.1300000      0.0000000E+00
 -0.1200000      0.0000000E+00
 -0.1100000      0.0000000E+00
 -0.1000000      0.0000000E+00
 -9.0000004E-02  0.0000000E+00
 -7.9999998E-02  0.0000000E+00
 -7.0000000E-02  0.0000000E+00
 -5.9999999E-02  0.0000000E+00
 -5.0000001E-02  0.0000000E+00
 -3.9999999E-02  0.0000000E+00
 -2.9999999E-02  0.0000000E+00
 -2.0000000E-02  0.0000000E+00
 -9.9999998E-03  0.0000000E+00
 -3.4694470E-17  0.0000000E+00
  9.9999998E-03  0.0000000E+00
  2.0000000E-02  0.0000000E+00
  2.9999999E-02  0.0000000E+00
  3.9999999E-02  0.0000000E+00
  5.0000001E-02  0.0000000E+00
  5.9999999E-02  0.0000000E+00
  7.0000000E-02  0.0000000E+00
  7.9999998E-02  0.0000000E+00
  9.0000004E-02  0.0000000E+00
  0.1000000      0.0000000E+00
  0.1100000      0.0000000E+00
  0.1200000      0.0000000E+00
  0.1300000      0.0000000E+00
  0.1400000      0.0000000E+00
  0.1500000      0.0000000E+00
  0.1600000      0.0000000E+00
  0.1700000      0.0000000E+00
  0.1800000      0.0000000E+00
  0.1900000      0.0000000E+00
  0.2000000      0.0000000E+00
  0.2100000      0.0000000E+00
  0.2200000      0.0000000E+00
  0.2300000      0.0000000E+00
  0.2400000      0.0000000E+00
  0.2500000      0.0000000E+00
  0.2600000      0.0000000E+00
  0.2700000      0.0000000E+00
  0.2800000      0.0000000E+00
  0.2900000      0.0000000E+00
  0.3000000      0.0000000E+00
  0.3100000      0.0000000E+00
  0.3200000      0.0000000E+00
  0.3300000      0.0000000E+00
  0.3400000      0.0000000E+00
  0.3500000      0.0000000E+00
  0.3600000      0.0000000E+00
  0.3700000      0.0000000E+00
  0.3800000      0.0000000E+00
  0.3900000      0.0000000E+00
  0.4000000      0.0000000E+00
  0.4100000      0.0000000E+00
  0.4200000      0.0000000E+00
  0.4300000      0.0000000E+00
  0.4400000      0.0000000E+00
  0.4500000      0.0000000E+00
  0.4600000      0.0000000E+00
  0.4700000      0.0000000E+00
  0.4800000      0.0000000E+00
  0.4900000      0.0000000E+00
  0.5000000      0.0000000E+00
  0.5100000      0.0000000E+00
  0.5200000      0.0000000E+00
  0.5300000      0.0000000E+00
  0.5400000      0.0000000E+00
  0.5500000      0.0000000E+00
  0.5600000      0.0000000E+00
  0.5700000      0.0000000E+00
  0.5800000      0.0000000E+00
  0.5900000      0.0000000E+00
  0.6000000      0.0000000E+00
  0.6100000      0.0000000E+00
  0.6200000      0.0000000E+00
  0.6300000      0.0000000E+00
  0.6400000      0.0000000E+00
  0.6500000      0.0000000E+00
  0.6600000      0.0000000E+00
  0.6700000      0.0000000E+00
  0.6800000      0.0000000E+00
  0.6900000      0.0000000E+00
  0.7000000      0.0000000E+00
  0.7100000      0.0000000E+00
  0.7200000      0.0000000E+00
  0.7300000      0.0000000E+00
  0.7400000      0.0000000E+00
  0.7500000      0.0000000E+00
  0.7600000      0.0000000E+00
  0.7700000      0.0000000E+00
  0.7800000      0.0000000E+00
  0.7900000      0.0000000E+00
  0.8000000      0.0000000E+00
  0.8100000      0.0000000E+00
  0.8200000      0.0000000E+00
  0.8300000      0.0000000E+00
  0.8400000      0.0000000E+00
  0.8500000      0.0000000E+00
  0.8600000      0.0000000E+00
  0.8700000      0.0000000E+00
  0.8800000      0.0000000E+00
  0.8900000      0.0000000E+00
  0.9000000      0.0000000E+00
  0.9100000      0.0000000E+00
  0.9200000      0.0000000E+00
  0.9300000      0.0000000E+00
  0.9400000      0.0000000E+00
  0.9500000      0.0000000E+00
  0.9600000      0.0000000E+00
  0.9700000      0.0000000E+00
  0.9800000      0.0000000E+00
  0.9900000      0.0000000E+00
   1.000000      0.0000000E+00
   1.010000      0.0000000E+00
   1.020000      0.0000000E+00
   1.030000      0.0000000E+00
   1.040000      0.0000000E+00
   1.050000      0.0000000E+00
   1.060000      0.0000000E+00
   1.070000      0.0000000E+00
   1.080000      0.0000000E+00
   1.090000      0.0000000E+00
   1.100000      0.0000000E+00
   1.110000      0.0000000E+00
   1.120000      0.0000000E+00
   1.130000      0.0000000E+00
   1.140000      0.0000000E+00
   1.150000      0.0000000E+00
   1.160000      0.0000000E+00
   1.170000      0.0000000E+00
   1.180000      0.0000000E+00
   1.190000      0.0000000E+00
   1.200000      0.0000000E+00
   1.210000      0.0000000E+00
   1.220000      0.0000000E+00
   1.230000      0.0000000E+00
   1.240000      0.0000000E+00
   1.250000      0.0000000E+00
   1.260000      0.0000000E+00
   1.270000      0.0000000E+00
   1.280000      0.0000000E+00
   1.290000      0.0000000E+00
   1.300000      0.0000000E+00
   1.310000      0.0000000E+00
   1.320000      0.0000000E+00
   1.330000      0.0000000E+00
   1.340000      0.0000000E+00
   1.350000      0.0000000E+00
   1.360000      0.0000000E+00
   1.370000      0.0000000E+00
   1.380000      0.0000000E+00
   1.390000      0.0000000E+00
   1.400000      0.0000000E+00
   1.410000      0.0000000E+00
   1.420000      0.0000000E+00
   1.430000      0.0000000E+00
   1.440000      0.0000000E+00
   1.450000      0.0000000E+00
   1.460000      0.0000000E+00
   1.470000      0.0000000E+00
   1.480000      0.0000000E+00
   1.490000      0.0000000E+00
   1.500000      0.0000000E+00
   1.510000      0.0000000E+00
   1.520000      0.0000000E+00
   1.530000      0.0000000E+00
   1.540000      0.0000000E+00
   1.550000      0.0000000E+00
   1.560000      0.0000000E+00
   1.570000      0.0000000E+00
   1.580000      0.0000000E+00
   1.590000      0.0000000E+00
   1.600000      0.0000000E+00
   1.610000      0.0000000E+00
   1.620000      0.0000000E+00
   1.630000      0.0000000E+00
   1.640000      0.0000000E+00
   1.650000      0.0000000E+00
   1.660000      0.0000000E+00
   1.670000      0.0000000E+00
   1.680000      0.0000000E+00
   1.690000      0.0000000E+00
   1.700000      0.0000000E+00
   1.710000      0.0000000E+00
   1.720000      0.0000000E+00
   1.730000      0.0000000E+00
   1.740000      0.0000000E+00
   1.750000      0.0000000E+00
   1.760000      0.0000000E+00
   1.770000      0.0000000E+00
   1.780000      0.0000000E+00
   1.790000      0.0000000E+00
   1.800000      0.0000000E+00
   1.810000      0.0000000E+00
   1.820000      0.0000000E+00
   1.830000      0.0000000E+00
   1.840000      0.0000000E+00
   1.850000      0.0000000E+00
   1.860000      0.0000000E+00
   1.870000      0.0000000E+00
   1.880000      0.0000000E+00
   1.890000      0.0000000E+00
   1.900000      0.0000000E+00
   1.910000      0.0000000E+00
   1.920000      0.0000000E+00
   1.930000      0.0000000E+00
   1.940000      0.0000000E+00
   1.950000      0.0000000E+00
   1.960000      0.0000000E+00
   1.970000      0.0000000E+00
   1.980000      0.0000000E+00
   1.990000      0.0000000E+00
   2.000000      0.0000000E+00
   2.010000      0.0000000E+00
   2.020000      0.0000000E+00
   2.030000      0.0000000E+00
   2.040000      0.0000000E+00
   2.050000      0.0000000E+00
   2.060000      0.0000000E+00
   2.070000      0.0000000E+00
   2.080000      0.0000000E+00
   2.090000      0.0000000E+00
   2.100000      0.0000000E+00
   2.110000      0.0000000E+00
   2.120000      0.0000000E+00
   2.130000      0.0000000E+00
   2.140000      0.0000000E+00
   2.150000      0.0000000E+00
   2.160000      0.0000000E+00
   2.170000      0.0000000E+00
   2.180000      0.0000000E+00
   2.190000      0.0000000E+00
   2.200000      0.0000000E+00
   2.210000      0.0000000E+00
   2.220000      0.0000000E+00
   2.230000      0.0000000E+00
   2.240000      0.0000000E+00
   2.250000      0.0000000E+00
   2.260000      0.0000000E+00
   2.270000      0.0000000E+00
   2.280000      0.0000000E+00
   2.290000      0.0000000E+00
   2.300000      0.0000000E+00
   2.310000      0.0000000E+00
   2.320000      0.0000000E+00
   2.330000      0.0000000E+00
   2.340000      0.0000000E+00
   2.350000      0.0000000E+00
   2.360000      0.0000000E+00
   2.370000      0.0000000E+00
   2.380000      0.0000000E+00
   2.390000      0.0000000E+00
   2.400000      0.0000000E+00
   2.410000      0.0000000E+00
   2.420000      0.0000000E+00
   2.430000      0.0000000E+00
   2.440000      0.0000000E+00
   2.450000      0.0000000E+00
   2.460000      0.0000000E+00
   2.470000      0.0000000E+00
   2.480000      0.0000000E+00
   2.490000      0.0000000E+00
   2.500000      0.0000000E+00
   2.510000      0.0000000E+00
   2.520000      0.0000000E+00
   2.530000      0.0000000E+00
   2.540000      0.0000000E+00
   2.550000      0.0000000E+00
   2.560000      0.0000000E+00
   2.570000      0.0000000E+00
   2.580000      0.0000000E+00
   2.590000      0.0000000E+00
   2.600000      0.0000000E+00
   2.610000      0.0000000E+00
   2.620000      0.0000000E+00
   2.630000      0.0000000E+00
   2.640000      0.0000000E+00
   2.650000      0.0000000E+00
   2.660000      0.0000000E+00
   2.670000      0.0000000E+00
   2.680000      0.0000000E+00
   2.690000      0.0000000E+00
   2.700000      0.0000000E+00
   2.710000      0.0000000E+00
   2.720000      0.0000000E+00
   2.730000      0.0000000E+00
   2.740000      0.0000000E+00
   2.750000      0.0000000E+00
   2.760000      0.0000000E+00
   2.770000      0.0000000E+00
   2.780000      0.0000000E+00
   2.790000      0.0000000E+00
   2.800000      0.0000000E+00
   2.810000      0.0000000E+00
   2.820000      0.0000000E+00
   2.830000      0.0000000E+00
   2.840000      0.0000000E+00
   2.850000      0.0000000E+00
   2.860000      0.0000000E+00
   2.870000      0.0000000E+00
   2.880000      0.0000000E+00
   2.890000      0.0000000E+00
   2.900000      0.0000000E+00
   2.910000      0.0000000E+00
   2.920000      0.0000000E+00
   2.930000      0.0000000E+00
   2.940000      0.0000000E+00
   2.950000      0.0000000E+00
   2.960000      0.0000000E+00
   2.970000      0.0000000E+00
   2.980000      0.0000000E+00
   2.990000      0.0000000E+00
   3.000000      0.0000000E+00
   3.010000      0.0000000E+00
   3.020000      0.0000000E+00
   3.030000      0.0000000E+00
   3.040000      0.0000000E+00
   3.050000      0.0000000E+00
   3.060000      0.0000000E+00
   3.070000      0.0000000E+00
   3.080000      0.0000000E+00
   3.090000      0.0000000E+00
   3.100000      0.0000000E+00
   3.110000      0.0000000E+00
   3.120000      0.0000000E+00
   3.130000      0.0000000E+00
   3.140000      0.0000000E+00
   3.150000      0.0000000E+00
   3.160000      0.0000000E+00
   3.170000      0.0000000E+00
   3.180000      0.0000000E+00
   3.190000      0.0000000E+00
   3.200000      0.0000000E+00
   3.210000      0.0000000E+00
   3.220000      0.0000000E+00
   3.230000      0.0000000E+00
   3.240000      0.0000000E+00
   3.250000      0.0000000E+00
   3.260000      0.0000000E+00
   3.270000      0.0000000E+00
   3.280000      0.0000000E+00
   3.290000      0.0000000E+00
   3.300000      0.0000000E+00
   3.310000      0.0000000E+00
   3.320000      0.0000000E+00
   3.330000      0.0000000E+00
   3.340000      0.0000000E+00
   3.350000      0.0000000E+00
   3.360000      0.0000000E+00
   3.370000      0.0000000E+00
   3.380000      0.0000000E+00
   3.390000      0.0000000E+00
   3.400000      0.0000000E+00
   3.410000      0.0000000E+00
   3.420000      0.0000000E+00
   3.430000      0.0000000E+00
   3.440000      0.0000000E+00
   3.450000      0.0000000E+00
   3.460000      0.0000000E+00
   3.470000      0.0000000E+00
   3.480000      0.0000000E+00
   3.490000      0.0000000E+00
   3.500000     -1.2169661E-38
   3.510000     -1.2969188E-38
   3.520000     -1.4005423E-38
   3.530000     -1.5309519E-38
   3.540000     -1.6579917E-38
   3.550000     -1.7690105E-38
   3.560000     -1.8682635E-38
   3.570000     -1.8504463E-38
   3.580000     -1.6961461E-38
   3.590000     -1.4829795E-38
   3.600000     -1.1769167E-38
   3.610000      0.0000000E+00
   3.620000      0.0000000E+00
   3.630000      0.0000000E+00
   3.640000      0.0000000E+00
   3.650000      0.0000000E+00
   3.660000      1.2980114E-38
   3.670000      1.7041789E-38
   3.680000      2.1370471E-38
   3.690000      2.5300505E-38
   3.700000      2.7036877E-38
   3.710000      2.6808482E-38
   3.720000      2.6066382E-38
   3.730000      2.4934217E-38
   3.740000      2.3271464E-38
   3.750000      2.0898681E-38
   3.760000      1.8135397E-38
   3.770000      1.5435818E-38
   3.780000      1.2645383E-38
   3.790000      0.0000000E+00
   3.800000      0.0000000E+00
   3.810000      0.0000000E+00
   3.820000      0.0000000E+00
   3.830000      0.0000000E+00
   3.840000     -1.3336721E-38
   3.850000     -2.0852771E-38
   3.860000     -2.9860759E-38
   3.870000     -4.0769498E-38
   3.880000     -5.1891668E-38
   3.890000     -6.2272689E-38
   3.900000     -7.1721852E-38
   3.910000     -8.0380122E-38
   3.920000     -8.8708129E-38
   3.930000     -9.6817392E-38
   3.940000     -1.0367165E-37
   3.950000     -1.1010696E-37
   3.960000     -1.1734055E-37
   3.970000     -1.2551419E-37
   3.980000     -1.3583098E-37
   3.990000     -1.4732948E-37
   4.000000     -1.5916755E-37
   4.010000     -1.7041924E-37
   4.020000     -1.7774145E-37
   4.030000     -1.8490301E-37
   4.040000     -1.9433008E-37
   4.050000     -2.0331942E-37
   4.060000     -2.1443559E-37
   4.070000     -2.2724194E-37
   4.080000     -2.3944855E-37
   4.090000     -2.4921941E-37
   4.100000     -2.5619328E-37
   4.110000     -2.6121658E-37
   4.120000     -2.6211182E-37
   4.130000     -2.5700437E-37
   4.140000     -2.4487978E-37
   4.150000     -2.2600758E-37
   4.160000     -2.0548013E-37
   4.170000     -1.8434059E-37
   4.180000     -1.5736911E-37
   4.190000     -1.2497632E-37
   4.200000     -8.8797358E-38
   4.210000     -4.5794596E-38
   4.220000      0.0000000E+00
   4.230000      5.6734545E-38
   4.240000      1.1254683E-37
   4.250000      1.7357547E-37
   4.260000      2.4107217E-37
   4.270000      3.0964335E-37
   4.280000      3.7858892E-37
   4.290000      4.3980898E-37
   4.300000      4.9408241E-37
   4.310000      5.4727799E-37
   4.320000      5.8393815E-37
   4.330000      6.0423286E-37
   4.340000      6.3050812E-37
   4.350000      6.8278158E-37
   4.360000      7.6729750E-37
   4.370000      8.7070947E-37
   4.380000      9.5400166E-37
   4.390000      1.0130558E-36
   4.400000      1.0723358E-36
   4.410000      1.0805184E-36
   4.420000      9.8159330E-37
   4.430000      7.9409777E-37
   4.440000      5.4310912E-37
   4.450000      2.6263533E-37
   4.460000     -5.9831515E-38
   4.470000     -3.9594874E-37
   4.480000     -7.2403069E-37
   4.490000     -1.1118738E-36
   4.500000     -1.4591677E-36
   4.510000     -1.7406930E-36
   4.520000     -2.0408663E-36
   4.530000     -2.3196055E-36
   4.540000     -2.5392059E-36
   4.550000     -2.7448708E-36
   4.560000     -2.9547405E-36
   4.570000     -3.1334375E-36
   4.580000     -3.2555088E-36
   4.590000     -3.3345483E-36
   4.600000     -3.3956056E-36
   4.610000     -3.4559046E-36
   4.620000     -3.5372827E-36
   4.630000     -3.6957757E-36
   4.640000     -3.9603742E-36
   4.650000     -4.3102556E-36
   4.660000     -4.6546262E-36
   4.670000     -4.8101786E-36
   4.680000     -4.7309063E-36
   4.690000     -4.6146688E-36
   4.700000     -4.5690444E-36
   4.710000     -4.4146023E-36
   4.720000     -4.2853782E-36
   4.730000     -4.2217628E-36
   4.740000     -4.0829721E-36
   4.750000     -3.8839484E-36
   4.760000     -3.5764882E-36
   4.770000     -3.2347798E-36
   4.780000     -2.7524321E-36
   4.790000     -2.0296000E-36
   4.800000     -1.0923114E-36
   4.810000      7.1533910E-38
   4.820000      1.4505469E-36
   4.830000      2.9239071E-36
   4.840000      4.4667605E-36
   4.850000      6.1005581E-36
   4.860000      7.7873229E-36
   4.870000      9.5472756E-36
   4.880000      1.1319137E-35
   4.890000      1.3062210E-35
   4.900000      1.4784601E-35
   4.910000      1.6468614E-35
   4.920000      1.8132630E-35
   4.930000      1.9951995E-35
   4.940000      2.1818992E-35
   4.950000      2.3582885E-35
   4.960000      2.5317623E-35
   4.970000      2.7087402E-35
   4.980000      2.8845185E-35
   4.990000      3.0396031E-35
   5.000000      3.1782076E-35
   5.010000      3.3190976E-35
   5.020000      3.4655235E-35
   5.030000      3.6126687E-35
   5.040000      3.7702589E-35
   5.050000      3.9036850E-35
   5.060000      4.0101574E-35
   5.070000      4.1011356E-35
   5.080000      4.1364963E-35
   5.090000      4.1975141E-35
   5.100000      4.3416072E-35
   5.110000      4.4641817E-35
   5.120000      4.5141141E-35
   5.130000      4.5311189E-35
   5.140000      4.5728722E-35
   5.150000      4.6862491E-35
   5.160000      4.8657781E-35
   5.170000      5.0156438E-35
   5.180000      4.7768506E-35
   5.190000      4.1856625E-35
   5.200000      3.4018080E-35
   5.210000      2.4582396E-35
   5.220000      1.5362120E-35
   5.230000      5.5646940E-36
   5.240000     -5.6842743E-36
   5.250000     -1.8335295E-35
   5.260000     -3.2332362E-35
   5.270000     -4.7721980E-35
   5.280000     -6.2384117E-35
   5.290000     -7.6143846E-35
   5.300000     -9.0503250E-35
   5.310000     -1.0432763E-34
   5.320000     -1.1692591E-34
   5.330000     -1.3019398E-34
   5.340000     -1.4317420E-34
   5.350000     -1.5379538E-34
   5.360000     -1.6412355E-34
   5.370000     -1.7391503E-34
   5.380000     -1.7982439E-34
   5.390000     -1.8296011E-34
   5.400000     -1.8752167E-34
   5.410000     -1.9392463E-34
   5.420000     -2.0153988E-34
   5.430000     -2.1362867E-34
   5.440000     -2.2998136E-34
   5.450000     -2.4686252E-34
   5.460000     -2.6353915E-34
   5.470000     -2.7868687E-34
   5.480000     -2.9163028E-34
   5.490000     -3.0316261E-34
   5.500000     -3.1448062E-34
   5.510000     -3.2634416E-34
   5.520000     -3.3853567E-34
   5.530000     -3.5067150E-34
   5.540000     -3.6321442E-34
   5.550000     -3.7590672E-34
   5.560000     -3.8626965E-34
   5.570000     -3.9463935E-34
   5.580000     -4.0084931E-34
   5.590000     -4.0268552E-34
   5.600000     -3.9934509E-34
   5.610000     -3.8946580E-34
   5.620000     -3.7293139E-34
   5.630000     -3.4805612E-34
   5.640000     -3.1536050E-34
   5.650000     -2.7912341E-34
   5.660000     -2.4243485E-34
   5.670000     -2.0123942E-34
   5.680000     -1.5277699E-34
   5.690000     -9.9568504E-35
   5.700000     -4.0612076E-35
   5.710000      2.3603192E-35
   5.720000      9.4363773E-35
   5.730000      1.6944658E-34
   5.740000      2.4713786E-34
   5.750000      3.3031318E-34
   5.760000      4.1622267E-34
   5.770000      5.0316232E-34
   5.780000      5.9179069E-34
   5.790000      6.8252164E-34
   5.800000      7.7664903E-34
   5.810000      8.7550130E-34
   5.820000      9.7639224E-34
   5.830000      1.0785784E-33
   5.840000      1.1849752E-33
   5.850000      1.2945306E-33
   5.860000      1.4070671E-33
   5.870000      1.5234384E-33
   5.880000      1.6421588E-33
   5.890000      1.7654627E-33
   5.900000      1.8926989E-33
   5.910000      2.0234199E-33
   5.920000      2.1585061E-33
   5.930000      2.2955261E-33
   5.940000      2.4353787E-33
   5.950000      2.5778988E-33
   5.960000      2.7185860E-33
   5.970000      2.8560639E-33
   5.980000      2.9911438E-33
   5.990000      3.1215947E-33
   6.000000      3.2459080E-33
   6.010000      3.3620931E-33
   6.020000      3.4683284E-33
   6.030000      3.5627886E-33
   6.040000      3.6438316E-33
   6.050000      3.7097841E-33
   6.060000      3.7585532E-33
   6.070000      3.7884537E-33
   6.080000      3.7980663E-33
   6.090000      3.7864627E-33
   6.100000      3.7514914E-33
   6.110000      3.6903290E-33
   6.120000      3.6034548E-33
   6.130000      3.4903406E-33
   6.140000      3.3495969E-33
   6.150000      3.1801067E-33
   6.160000      2.9805570E-33
   6.170000      2.7493309E-33
   6.180000      2.4871451E-33
   6.190000      2.1933887E-33
   6.200000      1.8650948E-33
   6.210000      1.5019364E-33
   6.220000      1.1028380E-33
   6.230000      6.6648082E-34
   6.240000      1.9180765E-34
   6.250000     -3.2263837E-34
   6.260000     -8.7846741E-34
   6.270000     -1.4768587E-33
   6.280000     -2.1191340E-33
   6.290000     -2.8065734E-33
   6.300000     -3.5403120E-33
   6.310000     -4.3211459E-33
   6.320000     -5.1502103E-33
   6.330000     -6.0278054E-33
   6.340000     -6.9537632E-33
   6.350000     -7.9290305E-33
   6.360000     -8.9522704E-33
   6.370000     -1.0022264E-32
   6.380000     -1.1137821E-32
   6.390000     -1.2296546E-32
   6.400000     -1.3496593E-32
   6.410000     -1.4735030E-32
   6.420000     -1.6008382E-32
   6.430000     -1.7312693E-32
   6.440000     -1.8643468E-32
   6.450000     -1.9995636E-32
   6.460000     -2.1362397E-32
   6.470000     -2.2739130E-32
   6.480000     -2.4120230E-32
   6.490000     -2.5497286E-32
   6.500000     -2.6863132E-32
   6.510000     -2.8209801E-32
   6.520000     -2.9529059E-32
   6.530000     -3.0812361E-32
   6.540000     -3.2050814E-32
   6.550000     -3.3235213E-32
   6.560000     -3.4356068E-32
   6.570000     -3.5403624E-32
   6.580000     -3.6367668E-32
   6.590000     -3.7237830E-32
   6.600000     -3.8003386E-32
   6.610000     -3.8653023E-32
   6.620000     -3.9175336E-32
   6.630000     -3.9558450E-32
   6.640000     -3.9789920E-32
   6.650000     -3.9858304E-32
   6.660000     -3.9748939E-32
   6.670000     -3.9446728E-32
   6.680000     -3.8938973E-32
   6.690000     -3.8210852E-32
   6.700000     -3.7247934E-32
   6.710000     -3.6035493E-32
   6.720000     -3.4557806E-32
   6.730000     -3.2799337E-32
   6.740000     -3.0744461E-32
   6.750000     -2.8377821E-32
   6.760000     -2.5683567E-32
   6.770000     -2.2646038E-32
   6.780000     -1.9250485E-32
   6.790000     -1.5482320E-32
   6.800000     -1.1327537E-32
   6.810000     -6.7728664E-33
   6.820000     -1.8059224E-33
   6.830000      3.5846436E-33
   6.840000      9.4089749E-33
   6.850000      1.5675862E-32
   6.860000      2.2392608E-32
   6.870000      2.9564844E-32
   6.880000      3.7196394E-32
   6.890000      4.5289138E-32
   6.900000      5.3843295E-32
   6.910000      6.2856104E-32
   6.920000      7.2322513E-32
   6.930000      8.2235874E-32
   6.940000      9.2586631E-32
   6.950000      1.0336265E-31
   6.960000      1.1454914E-31
   6.970000      1.2612845E-31
   6.980000      1.3808008E-31
   6.990000      1.5038048E-31
   7.000000      1.6300298E-31
   7.010000      1.7591767E-31
   7.020000      1.8909122E-31
   7.030000      2.0248678E-31
   7.040000      2.1606383E-31
   7.050000      2.2977804E-31
   7.060000      2.4358114E-31