  -2.600000      0.0000000E+00
  -2.590000      0.0000000E+00
  -2.580000      0.0000000E+00
  -2.570000      0.0000000E+00
  -2.560000      0.0000000E+00
  -2.550000      0.0000000E+00
  -2.540000      0.0000000E+00
  -2.530000      0.0000000E+00
  -2.520000      0.0000000E+00
  -2.510000      0.0000000E+00
  -2.500000      0.0000000E+00
  -2.490000      0.0000000E+00
  -2.480000      0.0000000E+00
  -2.470000      0.0000000E+00
  -2.460000      0.0000000E+00
  -2.450000      0.0000000E+00
  -2.440000      0.0000000E+00
  -2.430000      0.0000000E+00
  -2.420000      0.0000000E+00
  -2.410000      0.0000000E+00
  -2.400000      0.0000000E+00
  -2.390000      0.0000000E+00
  -2.380000      0.0000000E+00
  -2.370000      0.0000000E+00
  -2.360000      0.0000000E+00
  -2.350000      0.0000000E+00
  -2.340000      0.0000000E+00
  -2.330000      0.0000000E+00
  -2.320000      0.0000000E+00
  -2.310000      0.0000000E+00
  -2.300000      0.0000000E+00
  -2.290000      0.0000000E+00
  -2.280000      0.0000000E+00
  -2.270000      0.0000000E+00
  -2.260000      0.0000000E+00
  -2.250000      0.0000000E+00
  -2.240000      0.0000000E+00
  -2.230000      0.0000000E+00
  -2.220000      0.0000000E+00
  -2.210000      0.0000000E+00
  -2.200000      0.0000000E+00
  -2.190000      0.0000000E+00
  -2.180000      0.0000000E+00
  -2.170000      0.0000000E+00
  -2.160000      0.0000000E+00
  -2.150000      0.0000000E+00
  -2.140000      0.0000000E+00
  -2.130000      0.0000000E+00
  -2.120000      0.0000000E+00
  -2.110000      0.0000000E+00
  -2.100000      0.0000000E+00
  -2.090000      0.0000000E+00
  -2.080000      0.0000000E+00
  -2.070000      0.0000000E+00
  -2.060000      0.0000000E+00
  -2.050000      0.0000000E+00
  -2.040000      0.0000000E+00
  -2.030000      0.0000000E+00
  -2.020000      0.0000000E+00
  -2.010000      0.0000000E+00
  -2.000000      0.0000000E+00
  -1.990000      0.0000000E+00
  -1.980000      0.0000000E+00
  -1.970000      0.0000000E+00
  -1.960000      0.0000000E+00
  -1.950000      0.0000000E+00
  -1.940000      0.0000000E+00
  -1.930000      0.0000000E+00
  -1.920000      0.0000000E+00
  -1.910000      0.0000000E+00
  -1.900000      0.0000000E+00
  -1.890000      0.0000000E+00
  -1.880000      0.0000000E+00
  -1.870000      0.0000000E+00
  -1.860000      0.0000000E+00
  -1.850000      0.0000000E+00
  -1.840000      0.0000000E+00
  -1.830000      0.0000000E+00
  -1.820000      0.0000000E+00
  -1.810000      0.0000000E+00
  -1.800000      0.0000000E+00
  -1.790000      0.0000000E+00
  -1.780000      0.0000000E+00
  -1.770000      0.0000000E+00
  -1.760000      0.0000000E+00
  -1.750000      0.0000000E+00
  -1.740000      0.0000000E+00
  -1.730000      0.0000000E+00
  -1.720000      0.0000000E+00
  -1.710000      0.0000000E+00
  -1.700000      0.0000000E+00
  -1.690000      0.0000000E+00
  -1.680000      0.0000000E+00
  -1.670000      0.0000000E+00
  -1.660000      0.0000000E+00
  -1.650000      0.0000000E+00
  -1.640000      0.0000000E+00
  -1.630000      0.0000000E+00
  -1.620000      0.0000000E+00
  -1.610000      0.0000000E+00
  -1.600000      0.0000000E+00
  -1.590000      0.0000000E+00
  -1.580000      0.0000000E+00
  -1.570000      0.0000000E+00
  -1.560000      0.0000000E+00
  -1.550000      0.0000000E+00
  -1.540000      0.0000000E+00
  -1.530000      0.0000000E+00
  -1.520000      0.0000000E+00
  -1.510000      0.0000000E+00
  -1.500000      0.0000000E+00
  -1.490000      0.0000000E+00
  -1.480000      0.0000000E+00
  -1.470000      0.0000000E+00
  -1.460000      0.0000000E+00
  -1.450000      0.0000000E+00
  -1.440000      0.0000000E+00
  -1.430000      0.0000000E+00
  -1.420000      0.0000000E+00
  -1.410000      0.0000000E+00
  -1.400000      0.0000000E+00
  -1.390000      0.0000000E+00
  -1.380000      0.0000000E+00
  -1.370000      0.0000000E+00
  -1.360000      0.0000000E+00
  -1.350000      0.0000000E+00
  -1.340000      0.0000000E+00
  -1.330000      0.0000000E+00
  -1.320000      0.0000000E+00
  -1.310000      0.0000000E+00
  -1.300000      0.0000000E+00
  -1.290000      0.0000000E+00
  -1.280000      0.0000000E+00
  -1.270000      0.0000000E+00
  -1.260000      0.0000000E+00
  -1.250000      0.0000000E+00
  -1.240000      0.0000000E+00
  -1.230000      0.0000000E+00
  -1.220000      0.0000000E+00
  -1.210000      0.0000000E+00
  -1.200000      0.0000000E+00
  -1.190000      0.0000000E+00
  -1.180000      0.0000000E+00
  -1.170000      0.0000000E+00
  -1.160000      0.0000000E+00
  -1.150000      0.0000000E+00
  -1.140000      0.0000000E+00
  -1.130000      0.0000000E+00
  -1.120000      0.0000000E+00
  -1.110000      0.0000000E+00
  -1.100000      0.0000000E+00
  -1.090000      0.0000000E+00
  -1.080000      0.0000000E+00
  -1.070000      0.0000000E+00
  -1.060000      0.0000000E+00
  -1.050000      0.0000000E+00
  -1.040000      0.0000000E+00
  -1.030000      0.0000000E+00
  -1.020000      0.0000000E+00
  -1.010000      0.0000000E+00
  -1.000000      0.0000000E+00
 -0.9900000      0.0000000E+00
 -0.9800000      0.0000000E+00
 -0.9700000      0.0000000E+00
 -0.9600000      0.0000000E+00
 -0.9500000      0.0000000E+00
 -0.9400000      0.0000000E+00
 -0.9300000      0.0000000E+00
 -0.9200000      0.0000000E+00
 -0.9100000      0.0000000E+00
 -0.9000000      0.0000000E+00
 -0.8900000      0.0000000E+00
 -0.8800000      0.0000000E+00
 -0.8700000      0.0000000E+00
 -0.8600000      0.0000000E+00
 -0.8500000      0.0000000E+00
 -0.8400000      0.0000000E+00
 -0.8300000      0.0000000E+00
 -0.8200000      0.0000000E+00
 -0.8100000      0.0000000E+00
 -0.8000000      0.0000000E+00
 -0.7900000      0.0000000E+00
 -0.7800000      0.0000000E+00
 -0.7700000      0.0000000E+00
 -0.7600000      0.0000000E+00
 -0.7500000      0.0000000E+00
 -0.7400000      0.0000000E+00
 -0.7300000      0.0000000E+00
 -0.7200000      0.0000000E+00
 -0.7100000      0.0000000E+00
 -0.7000000      0.0000000E+00
 -0.6900000      0.0000000E+00
 -0.6800000      0.0000000E+00
 -0.6700000      0.0000000E+00
 -0.6600000      0.0000000E+00
 -0.6500000      0.0000000E+00
 -0.6400000      0.0000000E+00
 -0.6300000      0.0000000E+00
 -0.6200000      0.0000000E+00
 -0.6100000      0.0000000E+00
 -0.6000000      0.0000000E+00
 -0.5900000      0.0000000E+00
 -0.5800000      0.0000000E+00
 -0.5700000      0.0000000E+00
 -0.5600000      0.0000000E+00
 -0.5500000      0.0000000E+00
 -0.5400000      0.0000000E+00
 -0.5300000      0.0000000E+00
 -0.5200000      0.0000000E+00
 -0.5100000      0.0000000E+00
 -0.5000000      0.0000000E+00
 -0.4900000      0.0000000E+00
 -0.4800000      0.0000000E+00
 -0.4700000      0.0000000E+00
 -0.4600000      0.0000000E+00
 -0.4500000      0.0000000E+00
 -0.4400000      0.0000000E+00
 -0.4300000      0.0000000E+00
 -0.4200000      0.0000000E+00
 -0.4100000      0.0000000E+00
 -0.4000000      0.0000000E+00
 -0.3900000      0.0000000E+00
 -0.3800000      0.0000000E+00
 -0.3700000      0.0000000E+00
 -0.3600000      0.0000000E+00
 -0.3500000      0.0000000E+00
 -0.3400000      0.0000000E+00
 -0.3300000      0.0000000E+00
 -0.3200000      0.0000000E+00
 -0.3100000      0.0000000E+00
 -0.3000000      0.0000000E+00
 -0.2900000      0.0000000E+00
 -0.2800000      0.0000000E+00
 -0.2700000      0.0000000E+00
 -0.2600000      0.0000000E+00
 -0.2500000      0.0000000E+00
 -0.2400000      0.0000000E+00
 -0.2300000      0.0000000E+00
 -0.2200000      0.0000000E+00
 -0.2100000      0.0000000E+00
 -0.2000000      0.0000000E+00
 -0.1900000      0.0000000E+00
 -0.1800000      0.0000000E+00
 -0.1700000      0.0000000E+00
 -0.1600000      0.0000000E+00
 -0.1500000      0.0000000E+00
 -0.1400000      0.0000000E+00
 -0.1300000      0.0000000E+00
 -0.1200000      0.0000000E+00
 -0.1100000      0.0000000E+00
 -0.1000000      0.0000000E+00
 -9.0000004E-02  0.0000000E+00
 -7.9999998E-02  0.0000000E+00
 -7.0000000E-02  0.0000000E+00
 -5.9999999E-02  0.0000000E+00
 -5.0000001E-02  0.0000000E+00
 -3.9999999E-02  0.0000000E+00
 -2.9999999E-02  0.0000000E+00
 -2.0000000E-02  0.0000000E+00
 -9.9999998E-03  0.0000000E+00
 -3.4694470E-17  0.0000000E+00
  9.9999998E-03  0.0000000E+00
  2.0000000E-02  0.0000000E+00
  2.9999999E-02  0.0000000E+00
  3.9999999E-02  0.0000000E+00
  5.0000001E-02  0.0000000E+00
  5.9999999E-02  0.0000000E+00
  7.0000000E-02  0.0000000E+00
  7.9999998E-02  0.0000000E+00
  9.0000004E-02  0.0000000E+00
  0.1000000      0.0000000E+00
  0.1100000      0.0000000E+00
  0.1200000      0.0000000E+00
  0.1300000      0.0000000E+00
  0.1400000      0.0000000E+00
  0.1500000      0.0000000E+00
  0.1600000      0.0000000E+00
  0.1700000      0.0000000E+00
  0.1800000      0.0000000E+00
  0.1900000      0.0000000E+00
  0.2000000      0.0000000E+00
  0.2100000      0.0000000E+00
  0.2200000      0.0000000E+00
  0.2300000      0.0000000E+00
  0.2400000      0.0000000E+00
  0.2500000      0.0000000E+00
  0.2600000      0.0000000E+00
  0.2700000      0.0000000E+00
  0.2800000      0.0000000E+00
  0.2900000      0.0000000E+00
  0.3000000      0.0000000E+00
  0.3100000      0.0000000E+00
  0.3200000      0.0000000E+00
  0.3300000      0.0000000E+00
  0.3400000      0.0000000E+00
  0.3500000      0.0000000E+00
  0.3600000      0.0000000E+00
  0.3700000      0.0000000E+00
  0.3800000      0.0000000E+00
  0.3900000      0.0000000E+00
  0.4000000      0.0000000E+00
  0.4100000      0.0000000E+00
  0.4200000      0.0000000E+00
  0.4300000      0.0000000E+00
  0.4400000      0.0000000E+00
  0.4500000      0.0000000E+00
  0.4600000      0.0000000E+00
  0.4700000      0.0000000E+00
  0.4800000      0.0000000E+00
  0.4900000      0.0000000E+00
  0.5000000      0.0000000E+00
  0.5100000      0.0000000E+00
  0.5200000      0.0000000E+00
  0.5300000      0.0000000E+00
  0.5400000      0.0000000E+00
  0.5500000      0.0000000E+00
  0.5600000      0.0000000E+00
  0.5700000      0.0000000E+00
  0.5800000      0.0000000E+00
  0.5900000      0.0000000E+00
  0.6000000      0.0000000E+00
  0.6100000      0.0000000E+00
  0.6200000      0.0000000E+00
  0.6300000      0.0000000E+00
  0.6400000      0.0000000E+00
  0.6500000      0.0000000E+00
  0.6600000      0.0000000E+00
  0.6700000      0.0000000E+00
  0.6800000      0.0000000E+00
  0.6900000      0.0000000E+00
  0.7000000      0.0000000E+00
  0.7100000      0.0000000E+00
  0.7200000      0.0000000E+00
  0.7300000      0.0000000E+00
  0.7400000      0.0000000E+00
  0.7500000      0.0000000E+00
  0.7600000      0.0000000E+00
  0.7700000      0.0000000E+00
  0.7800000      0.0000000E+00
  0.7900000      0.0000000E+00
  0.8000000      0.0000000E+00
  0.8100000      0.0000000E+00
  0.8200000      0.0000000E+00
  0.8300000      0.0000000E+00
  0.8400000      0.0000000E+00
  0.8500000      0.0000000E+00
  0.8600000      0.0000000E+00
  0.8700000      0.0000000E+00
  0.8800000      0.0000000E+00
  0.8900000      0.0000000E+00
  0.9000000      0.0000000E+00
  0.9100000      0.0000000E+00
  0.9200000      0.0000000E+00
  0.9300000      0.0000000E+00
  0.9400000      0.0000000E+00
  0.9500000      0.0000000E+00
  0.9600000      0.0000000E+00
  0.9700000      0.0000000E+00
  0.9800000      0.0000000E+00
  0.9900000      0.0000000E+00
   1.000000      0.0000000E+00
   1.010000      0.0000000E+00
   1.020000      0.0000000E+00
   1.030000      0.0000000E+00
   1.040000      0.0000000E+00
   1.050000      0.0000000E+00
   1.060000      0.0000000E+00
   1.070000      0.0000000E+00
   1.080000      0.0000000E+00
   1.090000      0.0000000E+00
   1.100000      0.0000000E+00
   1.110000      0.0000000E+00
   1.120000      0.0000000E+00
   1.130000      0.0000000E+00
   1.140000      0.0000000E+00
   1.150000      0.0000000E+00
   1.160000      0.0000000E+00
   1.170000      0.0000000E+00
   1.180000      0.0000000E+00
   1.190000      0.0000000E+00
   1.200000      0.0000000E+00
   1.210000      0.0000000E+00
   1.220000      0.0000000E+00
   1.230000      0.0000000E+00
   1.240000      0.0000000E+00
   1.250000      0.0000000E+00
   1.260000      0.0000000E+00
   1.270000      0.0000000E+00
   1.280000      0.0000000E+00
   1.290000      0.0000000E+00
   1.300000      0.0000000E+00
   1.310000      0.0000000E+00
   1.320000      0.0000000E+00
   1.330000      0.0000000E+00
   1.340000      0.0000000E+00
   1.350000      0.0000000E+00
   1.360000      0.0000000E+00
   1.370000      0.0000000E+00
   1.380000      0.0000000E+00
   1.390000      0.0000000E+00
   1.400000      0.0000000E+00
   1.410000      0.0000000E+00
   1.420000      0.0000000E+00
   1.430000      0.0000000E+00
   1.440000      0.0000000E+00
   1.450000      0.0000000E+00
   1.460000      0.0000000E+00
   1.470000      0.0000000E+00
   1.480000      0.0000000E+00
   1.490000      0.0000000E+00
   1.500000      0.0000000E+00
   1.510000      0.0000000E+00
   1.520000      0.0000000E+00
   1.530000      0.0000000E+00
   1.540000      0.0000000E+00
   1.550000      0.0000000E+00
   1.560000      0.0000000E+00
   1.570000      0.0000000E+00
   1.580000      0.0000000E+00
   1.590000      0.0000000E+00
   1.600000      0.0000000E+00
   1.610000      0.0000000E+00
   1.620000      0.0000000E+00
   1.630000      0.0000000E+00
   1.640000      0.0000000E+00
   1.650000      0.0000000E+00
   1.660000      0.0000000E+00
   1.670000      0.0000000E+00
   1.680000      0.0000000E+00
   1.690000      0.0000000E+00
   1.700000      0.0000000E+00
   1.710000      0.0000000E+00
   1.720000      0.0000000E+00
   1.730000      0.0000000E+00
   1.740000      0.0000000E+00
   1.750000      0.0000000E+00
   1.760000      0.0000000E+00
   1.770000      0.0000000E+00
   1.780000      0.0000000E+00
   1.790000      0.0000000E+00
   1.800000      0.0000000E+00
   1.810000      0.0000000E+00
   1.820000      0.0000000E+00
   1.830000      0.0000000E+00
   1.840000      0.0000000E+00
   1.850000      0.0000000E+00
   1.860000      0.0000000E+00
   1.870000      0.0000000E+00
   1.880000      0.0000000E+00
   1.890000      0.0000000E+00
   1.900000      0.0000000E+00
   1.910000      0.0000000E+00
   1.920000      0.0000000E+00
   1.930000      0.0000000E+00
   1.940000      0.0000000E+00
   1.950000      0.0000000E+00
   1.960000      0.0000000E+00
   1.970000      0.0000000E+00
   1.980000      0.0000000E+00
   1.990000      0.0000000E+00
   2.000000      0.0000000E+00
   2.010000      0.0000000E+00
   2.020000      0.0000000E+00
   2.030000      0.0000000E+00
   2.040000      0.0000000E+00
   2.050000      0.0000000E+00
   2.060000      0.0000000E+00
   2.070000      0.0000000E+00
   2.080000      0.0000000E+00
   2.090000      0.0000000E+00
   2.100000      0.0000000E+00
   2.110000      0.0000000E+00
   2.120000      0.0000000E+00
   2.130000      0.0000000E+00
   2.140000      0.0000000E+00
   2.150000      0.0000000E+00
   2.160000      0.0000000E+00
   2.170000      0.0000000E+00
   2.180000      0.0000000E+00
   2.190000      0.0000000E+00
   2.200000      0.0000000E+00
   2.210000      0.0000000E+00
   2.220000      0.0000000E+00
   2.230000      0.0000000E+00
   2.240000      0.0000000E+00
   2.250000      0.0000000E+00
   2.260000      0.0000000E+00
   2.270000      0.0000000E+00
   2.280000      0.0000000E+00
   2.290000      0.0000000E+00
   2.300000      0.0000000E+00
   2.310000      0.0000000E+00
   2.320000      0.0000000E+00
   2.330000      0.0000000E+00
   2.340000      0.0000000E+00
   2.350000      0.0000000E+00
   2.360000      0.0000000E+00
   2.370000      0.0000000E+00
   2.380000      0.0000000E+00
   2.390000      0.0000000E+00
   2.400000      0.0000000E+00
   2.410000      0.0000000E+00
   2.420000      0.0000000E+00
   2.430000      0.0000000E+00
   2.440000      0.0000000E+00
   2.450000      0.0000000E+00
   2.460000      0.0000000E+00
   2.470000      0.0000000E+00
   2.480000      0.0000000E+00
   2.490000      0.0000000E+00
   2.500000      0.0000000E+00
   2.510000      0.0000000E+00
   2.520000      0.0000000E+00
   2.530000      0.0000000E+00
   2.540000      0.0000000E+00
   2.550000      0.0000000E+00
   2.560000      0.0000000E+00
   2.570000      0.0000000E+00
   2.580000      0.0000000E+00
   2.590000      0.0000000E+00
   2.600000      0.0000000E+00
   2.610000      0.0000000E+00
   2.620000      0.0000000E+00
   2.630000      0.0000000E+00
   2.640000      0.0000000E+00
   2.650000      0.0000000E+00
   2.660000      0.0000000E+00
   2.670000      0.0000000E+00
   2.680000      0.0000000E+00
   2.690000      0.0000000E+00
   2.700000      0.0000000E+00
   2.710000      0.0000000E+00
   2.720000      0.0000000E+00
   2.730000      0.0000000E+00
   2.740000      0.0000000E+00
   2.750000      0.0000000E+00
   2.760000      0.0000000E+00
   2.770000      0.0000000E+00
   2.780000      0.0000000E+00
   2.790000      0.0000000E+00
   2.800000      0.0000000E+00
   2.810000      0.0000000E+00
   2.820000      0.0000000E+00
   2.830000      0.0000000E+00
   2.840000      0.0000000E+00
   2.850000      0.0000000E+00
   2.860000      0.0000000E+00
   2.870000      0.0000000E+00
   2.880000      0.0000000E+00
   2.890000      0.0000000E+00
   2.900000      0.0000000E+00
   2.910000      0.0000000E+00
   2.920000      0.0000000E+00
   2.930000      0.0000000E+00
   2.940000      0.0000000E+00
   2.950000      0.0000000E+00
   2.960000      0.0000000E+00
   2.970000      0.0000000E+00
   2.980000      0.0000000E+00
   2.990000      0.0000000E+00
   3.000000      0.0000000E+00
   3.010000      0.0000000E+00
   3.020000      0.0000000E+00
   3.030000      0.0000000E+00
   3.040000      0.0000000E+00
   3.050000      0.0000000E+00
   3.060000      0.0000000E+00
   3.070000      0.0000000E+00
   3.080000     -1.2391932E-38
   3.090000     -1.4783424E-38
   3.100000     -1.7207361E-38
   3.110000     -1.9700028E-38
   3.120000     -2.2163713E-38
   3.130000     -2.4502533E-38
   3.140000     -2.6468191E-38
   3.150000     -2.7843630E-38
   3.160000     -2.8219847E-38
   3.170000     -2.7623685E-38
   3.180000     -2.6550806E-38
   3.190000     -2.4963275E-38
   3.200000     -2.3550914E-38
   3.210000     -2.2262125E-38
   3.220000     -2.0693982E-38
   3.230000     -1.7037109E-38
   3.240000      0.0000000E+00
   3.250000      0.0000000E+00
   3.260000      1.3033449E-38
   3.270000      2.7956939E-38
   3.280000      4.5042856E-38
   3.290000      6.4453670E-38
   3.300000      8.6855685E-38
   3.310000      1.1180751E-37
   3.320000      1.3571879E-37
   3.330000      1.5724850E-37
   3.340000      1.7880737E-37
   3.350000      1.9846754E-37
   3.360000      2.1569705E-37
   3.370000      2.3275424E-37
   3.380000      2.4800485E-37
   3.390000      2.6028005E-37
   3.400000      2.6860356E-37
   3.410000      2.7363642E-37
   3.420000      2.7648482E-37
   3.430000      2.7562328E-37
   3.440000      2.7245814E-37
   3.450000      2.6431260E-37
   3.460000      2.5014924E-37
   3.470000      2.3708123E-37
   3.480000      2.2630376E-37
   3.490000      2.1400245E-37
   3.500000      1.9871208E-37
   3.510000      1.8140930E-37
   3.520000      1.6479425E-37
   3.530000      1.5300308E-37
   3.540000      1.3925856E-37
   3.550000      1.2098784E-37
   3.560000      1.0197018E-37
   3.570000      7.7651391E-38
   3.580000      4.6969072E-38
   3.590000      0.0000000E+00
   3.600000     -3.2622679E-38
   3.610000     -8.2811644E-38
   3.620000     -1.3873366E-37
   3.630000     -2.0281921E-37
   3.640000     -2.7693642E-37
   3.650000     -3.5808723E-37
   3.660000     -4.4612133E-37
   3.670000     -5.4128595E-37
   3.680000     -6.4078765E-37
   3.690000     -7.4468767E-37
   3.700000     -8.5223233E-37
   3.710000     -9.5885199E-37
   3.720000     -1.0656458E-36
   3.730000     -1.1761546E-36
   3.740000     -1.2892152E-36
   3.750000     -1.4009052E-36
   3.760000     -1.5053036E-36
   3.770000     -1.6014936E-36
   3.780000     -1.6843014E-36
   3.790000     -1.7518489E-36
   3.800000     -1.8016941E-36
   3.810000     -1.8302929E-36
   3.820000     -1.8582787E-36
   3.830000     -1.8679370E-36
   3.840000     -1.8307444E-36
   3.850000     -1.7662719E-36
   3.860000     -1.6822044E-36
   3.870000     -1.5718886E-36
   3.880000     -1.4450820E-36
   3.890000     -1.3162071E-36
   3.900000     -1.1813865E-36
   3.910000     -1.0247511E-36
   3.920000     -8.5788075E-37
   3.930000     -6.2768118E-37
   3.940000     -3.2034840E-37
   3.950000      2.8783385E-38
   3.960000      4.1564737E-37
   3.970000      8.2006524E-37
   3.980000      1.2337801E-36
   3.990000      1.6657330E-36
   4.000000      2.1315797E-36
   4.010000      2.6176262E-36
   4.020000      3.1308432E-36
   4.030000      3.6629291E-36
   4.040000      4.1838512E-36
   4.050000      4.7176235E-36
   4.060000      5.2841312E-36
   4.070000      5.8822899E-36
   4.080000      6.5319998E-36
   4.090000      7.1988231E-36
   4.100000      7.8748249E-36
   4.110000      8.5995978E-36
   4.120000      9.2776494E-36
   4.130000      9.8819069E-36
   4.140000      1.0395833E-35
   4.150000      1.0766399E-35
   4.160000      1.0819989E-35
   4.170000      1.0495469E-35
   4.180000      9.9692539E-36
   4.190000      9.4294076E-36
   4.200000      8.8580107E-36
   4.210000      8.1147731E-36
   4.220000      7.2152172E-36
   4.230000      6.2716082E-36
   4.240000      5.2783603E-36
   4.250000      4.1638580E-36
   4.260000      3.1888638E-36
   4.270000      2.4131167E-36
   4.280000      1.6581254E-36
   4.290000      8.8347254E-37
   4.300000      7.9671833E-38
   4.310000     -7.5340298E-37
   4.320000     -1.6104660E-36
   4.330000     -2.4954223E-36
   4.340000     -3.3582917E-36
   4.350000     -4.2473422E-36
   4.360000     -5.3111714E-36
   4.370000     -6.6696899E-36
   4.380000     -8.2086426E-36
   4.390000     -9.7977727E-36
   4.400000     -1.1545825E-35
   4.410000     -1.3424796E-35
   4.420000     -1.5469785E-35
   4.430000     -1.7770810E-35
   4.440000     -2.0311729E-35
   4.450000     -2.2975569E-35
   4.460000     -2.5653026E-35
   4.470000     -2.8359433E-35
   4.480000     -3.0985322E-35
   4.490000     -3.3737009E-35
   4.500000     -3.6658908E-35
   4.510000     -3.9518415E-35
   4.520000     -4.2289273E-35
   4.530000     -4.5022071E-35
   4.540000     -4.7757219E-35
   4.550000     -5.0312473E-35
   4.560000     -5.2438774E-35
   4.570000     -5.4136485E-35
   4.580000     -5.5491237E-35
   4.590000     -5.6368272E-35
   4.600000     -5.6722424E-35
   4.610000     -5.6470749E-35
   4.620000     -5.5538153E-35
   4.630000     -5.3902311E-35
   4.640000     -5.0989117E-35
   4.650000     -4.6773276E-35
   4.660000     -4.1769866E-35
   4.670000     -3.6198465E-35
   4.680000     -3.0310974E-35
   4.690000     -2.4086278E-35
   4.700000     -1.7414497E-35
   4.710000     -9.8985420E-36
   4.720000     -1.9253475E-36
   4.730000      5.8857208E-36
   4.740000      1.3600290E-35
   4.750000      2.1460717E-35
   4.760000      2.9343060E-35
   4.770000      3.7250977E-35
   4.780000      4.5568914E-35
   4.790000      5.3933041E-35
   4.800000      6.2456512E-35
   4.810000      7.1515360E-35
   4.820000      8.0849038E-35
   4.830000      9.0055041E-35
   4.840000      9.9530633E-35
   4.850000      1.0977270E-34
   4.860000      1.2041576E-34
   4.870000      1.3174305E-34
   4.880000      1.4388978E-34
   4.890000      1.5656179E-34
   4.900000      1.6940459E-34
   4.910000      1.8197980E-34
   4.920000      1.9390257E-34
   4.930000      2.0476985E-34
   4.940000      2.1537371E-34
   4.950000      2.2629051E-34
   4.960000      2.3695204E-34
   4.970000      2.4626839E-34
   4.980000      2.5433841E-34
   4.990000      2.6318265E-34
   5.000000      2.7490405E-34
   5.010000      2.8445792E-34
   5.020000      2.8495338E-34
   5.030000      2.8120371E-34
   5.040000      2.7428092E-34
   5.050000      2.6269746E-34
   5.060000      2.4718853E-34
   5.070000      2.2667379E-34
   5.080000      2.0390052E-34
   5.090000      1.8476285E-34
   5.100000      1.6942701E-34
   5.110000      1.5228954E-34
   5.120000      1.3410339E-34
   5.130000      1.1615980E-34
   5.140000      9.7427520E-35
   5.150000      7.7458443E-35
   5.160000      5.6319863E-35
   5.170000      3.3936169E-35
   5.180000      1.0518875E-35
   5.190000     -1.6441198E-35
   5.200000     -4.7554546E-35
   5.210000     -7.6311044E-35
   5.220000     -1.0238338E-34
   5.230000     -1.3198204E-34
   5.240000     -1.7007942E-34
   5.250000     -2.1548037E-34
   5.260000     -2.6507921E-34
   5.270000     -3.1471972E-34
   5.280000     -3.6046250E-34
   5.290000     -4.0750459E-34
   5.300000     -4.5899257E-34
   5.310000     -5.1392856E-34
   5.320000     -5.7204340E-34
   5.330000     -6.3385185E-34
   5.340000     -7.0188318E-34
   5.350000     -7.7515661E-34
   5.360000     -8.5067532E-34
   5.370000     -9.2906326E-34
   5.380000     -1.0068985E-33
   5.390000     -1.0809636E-33
   5.400000     -1.1519064E-33
   5.410000     -1.2186185E-33
   5.420000     -1.2808856E-33
   5.430000     -1.3388909E-33
   5.440000     -1.3921913E-33
   5.450000     -1.4381295E-33
   5.460000     -1.4755281E-33
   5.470000     -1.5054470E-33
   5.480000     -1.5274015E-33
   5.490000     -1.5408020E-33
   5.500000     -1.5459295E-33
   5.510000     -1.5424029E-33
   5.520000     -1.5308763E-33
   5.530000     -1.5140079E-33
   5.540000     -1.4937223E-33
   5.550000     -1.4661007E-33
   5.560000     -1.4288554E-33
   5.570000     -1.3895475E-33
   5.580000     -1.3448250E-33
   5.590000     -1.2870296E-33
   5.600000     -1.2212062E-33
   5.610000     -1.1494673E-33
   5.620000     -1.0682698E-33
   5.630000     -9.7705575E-34
   5.640000     -8.7678957E-34
   5.650000     -7.6587580E-34
   5.660000     -6.4269180E-34
   5.670000     -5.0704127E-34
   5.680000     -3.5677893E-34
   5.690000     -1.9178681E-34
   5.700000     -1.1727612E-35
   5.710000      1.8486532E-34
   5.720000      4.0068617E-34
   5.730000      6.3579923E-34
   5.740000      8.8620308E-34
   5.750000      1.1537447E-33
   5.760000      1.4397420E-33
   5.770000      1.7431417E-33
   5.780000      2.0633285E-33
   5.790000      2.3997140E-33
   5.800000      2.7513349E-33
   5.810000      3.1167983E-33
   5.820000      3.4924984E-33
   5.830000      3.8767289E-33
   5.840000      4.2685730E-33
   5.850000      4.6645750E-33
   5.860000      5.0628971E-33
   5.870000      5.4633388E-33
   5.880000      5.8643507E-33
   5.890000      6.2637546E-33
   5.900000      6.6594363E-33
   5.910000      7.0490554E-33
   5.920000      7.4312975E-33
   5.930000      7.8043245E-33
   5.940000      8.1662805E-33
   5.950000      8.5154927E-33
   5.960000      8.8509031E-33
   5.970000      9.1704451E-33
   5.980000      9.4735051E-33
   5.990000      9.7588057E-33
   6.000000      1.0021096E-32
   6.010000      1.0258254E-32
   6.020000      1.0469712E-32
   6.030000      1.0653394E-32
   6.040000      1.0805648E-32
   6.050000      1.0922802E-32
   6.060000      1.1002143E-32
   6.070000      1.1039987E-32
   6.080000      1.1032261E-32
   6.090000      1.0975431E-32
   6.100000      1.0866042E-32
   6.110000      1.0699153E-32
   6.120000      1.0470480E-32
   6.130000      1.0176122E-32
   6.140000      9.8117059E-33
   6.150000      9.3726367E-33
   6.160000      8.8548153E-33
   6.170000      8.2543309E-33
   6.180000      7.5672552E-33
   6.190000      6.7900741E-33
   6.200000      5.9196951E-33
   6.210000      4.9528617E-33
   6.220000      3.8873995E-33
   6.230000      2.7210165E-33
   6.240000      1.4513082E-33
   6.250000      7.7275954E-35
   6.260000     -1.4017806E-33
   6.270000     -2.9862868E-33
   6.280000     -4.6761327E-33
   6.290000     -6.4711831E-33
   6.300000     -8.3708665E-33
   6.310000     -1.0374042E-32
   6.320000     -1.2479404E-32
   6.330000     -1.4684922E-32
   6.340000     -1.6988371E-32
   6.350000     -1.9387243E-32
   6.360000     -2.1878615E-32
   6.370000     -2.4459108E-32
   6.380000     -2.7124935E-32
   6.390000     -2.9871856E-32
   6.400000     -3.2695024E-32
   6.410000     -3.5589017E-32
   6.420000     -3.8547781E-32
   6.430000     -4.1564361E-32
   6.440000     -4.4631308E-32
   6.450000     -4.7740370E-32
   6.460000     -5.0881919E-32
   6.470000     -5.4045269E-32
   6.480000     -5.7218733E-32
   6.490000     -6.0389870E-32
   6.500000     -6.3544938E-32
   6.510000     -6.6668679E-32
   6.520000     -6.9744825E-32
   6.530000     -7.2755795E-32
   6.540000     -7.5682740E-32
   6.550000     -7.8505408E-32
   6.560000     -8.1202674E-32
   6.570000     -8.3752221E-32
   6.580000     -8.6130334E-32
   6.590000     -8.8312393E-32
   6.600000     -9.0272817E-32
   6.610000     -9.1985037E-32
   6.620000     -9.3421702E-32
   6.630000     -9.4554814E-32
   6.640000     -9.5355649E-32
   6.650000     -9.5793815E-32
   6.660000     -9.5841011E-32
   6.670000     -9.5468526E-32
   6.680000     -9.4644986E-32
   6.690000     -9.3339958E-32
   6.700000     -9.1522920E-32
   6.710000     -8.9163480E-32
   6.720000     -8.6231309E-32
   6.730000     -8.2696245E-32
   6.740000     -7.8528401E-32
   6.750000     -7.3698265E-32
   6.760000     -6.8176821E-32
   6.770000     -6.1935663E-32
   6.780000     -5.4947137E-32
   6.790000     -4.7184467E-32
   6.800000     -3.8621951E-32
   6.810000     -2.9235159E-32
   6.820000     -1.9001152E-32
   6.830000     -7.8986836E-33
   6.840000      4.0915693E-33
   6.850000      1.6986594E-32
   6.860000      3.0800853E-32
   6.870000      4.5546060E-32
   6.880000      6.1230731E-32
   6.890000      7.7859856E-32
   6.900000      9.5434560E-32
   6.910000      1.1395181E-31
   6.920000      1.3340402E-31
   6.930000      1.5377870E-31
   6.940000      1.7505815E-31
   6.950000      1.9721906E-31
   6.960000      2.2023228E-31
   6.970000      2.4406239E-31
   6.980000      2.6866753E-31
   6.990000      2.9399904E-31
   7.000000      3.2000125E-31
   7.010000      3.4661134E-31
   7.020000      3.7375894E-31
   7.030000      4.0136606E-31
   7.040000      4.2934705E-31
   7.050000      4.5760820E-31
   7.060000      4.8604792E-31