  -2.600000      0.0000000E+00
  -2.590000      0.0000000E+00
  -2.580000      0.0000000E+00
  -2.570000      0.0000000E+00
  -2.560000      0.0000000E+00
  -2.550000      0.0000000E+00
  -2.540000      0.0000000E+00
  -2.530000      0.0000000E+00
  -2.520000      0.0000000E+00
  -2.510000      0.0000000E+00
  -2.500000      0.0000000E+00
  -2.490000      0.0000000E+00
  -2.480000      0.0000000E+00
  -2.470000      0.0000000E+00
  -2.460000      0.0000000E+00
  -2.450000      0.0000000E+00
  -2.440000      0.0000000E+00
  -2.430000      0.0000000E+00
  -2.420000      0.0000000E+00
  -2.410000      0.0000000E+00
  -2.400000      0.0000000E+00
  -2.390000      0.0000000E+00
  -2.380000      0.0000000E+00
  -2.370000      0.0000000E+00
  -2.360000      0.0000000E+00
  -2.350000      0.0000000E+00
  -2.340000      0.0000000E+00
  -2.330000      0.0000000E+00
  -2.320000      0.0000000E+00
  -2.310000      0.0000000E+00
  -2.300000      0.0000000E+00
  -2.290000      0.0000000E+00
  -2.280000      0.0000000E+00
  -2.270000      0.0000000E+00
  -2.260000      0.0000000E+00
  -2.250000      0.0000000E+00
  -2.240000      0.0000000E+00
  -2.230000      0.0000000E+00
  -2.220000      0.0000000E+00
  -2.210000      0.0000000E+00
  -2.200000      0.0000000E+00
  -2.190000      0.0000000E+00
  -2.180000      0.0000000E+00
  -2.170000      0.0000000E+00
  -2.160000      0.0000000E+00
  -2.150000      0.0000000E+00
  -2.140000      0.0000000E+00
  -2.130000      0.0000000E+00
  -2.120000      0.0000000E+00
  -2.110000      0.0000000E+00
  -2.100000      0.0000000E+00
  -2.090000      0.0000000E+00
  -2.080000      0.0000000E+00
  -2.070000      0.0000000E+00
  -2.060000      0.0000000E+00
  -2.050000      0.0000000E+00
  -2.040000      0.0000000E+00
  -2.030000      0.0000000E+00
  -2.020000      0.0000000E+00
  -2.010000      0.0000000E+00
  -2.000000      0.0000000E+00
  -1.990000      0.0000000E+00
  -1.980000      0.0000000E+00
  -1.970000      0.0000000E+00
  -1.960000      0.0000000E+00
  -1.950000      0.0000000E+00
  -1.940000      0.0000000E+00
  -1.930000      0.0000000E+00
  -1.920000      0.0000000E+00
  -1.910000      0.0000000E+00
  -1.900000      0.0000000E+00
  -1.890000      0.0000000E+00
  -1.880000      0.0000000E+00
  -1.870000      0.0000000E+00
  -1.860000      0.0000000E+00
  -1.850000      0.0000000E+00
  -1.840000      0.0000000E+00
  -1.830000      0.0000000E+00
  -1.820000      0.0000000E+00
  -1.810000      0.0000000E+00
  -1.800000      0.0000000E+00
  -1.790000      0.0000000E+00
  -1.780000      0.0000000E+00
  -1.770000      0.0000000E+00
  -1.760000      0.0000000E+00
  -1.750000      0.0000000E+00
  -1.740000      0.0000000E+00
  -1.730000      0.0000000E+00
  -1.720000      0.0000000E+00
  -1.710000      0.0000000E+00
  -1.700000      0.0000000E+00
  -1.690000      0.0000000E+00
  -1.680000      0.0000000E+00
  -1.670000      0.0000000E+00
  -1.660000      0.0000000E+00
  -1.650000      0.0000000E+00
  -1.640000      0.0000000E+00
  -1.630000      0.0000000E+00
  -1.620000      0.0000000E+00
  -1.610000      0.0000000E+00
  -1.600000      0.0000000E+00
  -1.590000      0.0000000E+00
  -1.580000      0.0000000E+00
  -1.570000      0.0000000E+00
  -1.560000      0.0000000E+00
  -1.550000      0.0000000E+00
  -1.540000      0.0000000E+00
  -1.530000      0.0000000E+00
  -1.520000      0.0000000E+00
  -1.510000      0.0000000E+00
  -1.500000      0.0000000E+00
  -1.490000      0.0000000E+00
  -1.480000      0.0000000E+00
  -1.470000      0.0000000E+00
  -1.460000      0.0000000E+00
  -1.450000      0.0000000E+00
  -1.440000      0.0000000E+00
  -1.430000      0.0000000E+00
  -1.420000      0.0000000E+00
  -1.410000      0.0000000E+00
  -1.400000      0.0000000E+00
  -1.390000      0.0000000E+00
  -1.380000      0.0000000E+00
  -1.370000      0.0000000E+00
  -1.360000      0.0000000E+00
  -1.350000      0.0000000E+00
  -1.340000      0.0000000E+00
  -1.330000      0.0000000E+00
  -1.320000      0.0000000E+00
  -1.310000      0.0000000E+00
  -1.300000      0.0000000E+00
  -1.290000      0.0000000E+00
  -1.280000      0.0000000E+00
  -1.270000      0.0000000E+00
  -1.260000      0.0000000E+00
  -1.250000      0.0000000E+00
  -1.240000      0.0000000E+00
  -1.230000      0.0000000E+00
  -1.220000      0.0000000E+00
  -1.210000      0.0000000E+00
  -1.200000      0.0000000E+00
  -1.190000      0.0000000E+00
  -1.180000      0.0000000E+00
  -1.170000      0.0000000E+00
  -1.160000      0.0000000E+00
  -1.150000      0.0000000E+00
  -1.140000      0.0000000E+00
  -1.130000      0.0000000E+00
  -1.120000      0.0000000E+00
  -1.110000      0.0000000E+00
  -1.100000      0.0000000E+00
  -1.090000      0.0000000E+00
  -1.080000      0.0000000E+00
  -1.070000      0.0000000E+00
  -1.060000      0.0000000E+00
  -1.050000      0.0000000E+00
  -1.040000      0.0000000E+00
  -1.030000      0.0000000E+00
  -1.020000      0.0000000E+00
  -1.010000      0.0000000E+00
  -1.000000      0.0000000E+00
 -0.9900000      0.0000000E+00
 -0.9800000      0.0000000E+00
 -0.9700000      0.0000000E+00
 -0.9600000      0.0000000E+00
 -0.9500000      0.0000000E+00
 -0.9400000      0.0000000E+00
 -0.9300000      0.0000000E+00
 -0.9200000      0.0000000E+00
 -0.9100000      0.0000000E+00
 -0.9000000      0.0000000E+00
 -0.8900000      0.0000000E+00
 -0.8800000      0.0000000E+00
 -0.8700000      0.0000000E+00
 -0.8600000      0.0000000E+00
 -0.8500000      0.0000000E+00
 -0.8400000      0.0000000E+00
 -0.8300000      0.0000000E+00
 -0.8200000      0.0000000E+00
 -0.8100000      0.0000000E+00
 -0.8000000      0.0000000E+00
 -0.7900000      0.0000000E+00
 -0.7800000      0.0000000E+00
 -0.7700000      0.0000000E+00
 -0.7600000      0.0000000E+00
 -0.7500000      0.0000000E+00
 -0.7400000      0.0000000E+00
 -0.7300000      0.0000000E+00
 -0.7200000      0.0000000E+00
 -0.7100000      0.0000000E+00
 -0.7000000      0.0000000E+00
 -0.6900000      0.0000000E+00
 -0.6800000      0.0000000E+00
 -0.6700000      0.0000000E+00
 -0.6600000      0.0000000E+00
 -0.6500000      0.0000000E+00
 -0.6400000      0.0000000E+00
 -0.6300000      0.0000000E+00
 -0.6200000      0.0000000E+00
 -0.6100000      0.0000000E+00
 -0.6000000      0.0000000E+00
 -0.5900000      0.0000000E+00
 -0.5800000      0.0000000E+00
 -0.5700000      0.0000000E+00
 -0.5600000      0.0000000E+00
 -0.5500000      0.0000000E+00
 -0.5400000      0.0000000E+00
 -0.5300000      0.0000000E+00
 -0.5200000      0.0000000E+00
 -0.5100000      0.0000000E+00
 -0.5000000      0.0000000E+00
 -0.4900000      0.0000000E+00
 -0.4800000      0.0000000E+00
 -0.4700000      0.0000000E+00
 -0.4600000      0.0000000E+00
 -0.4500000      0.0000000E+00
 -0.4400000      0.0000000E+00
 -0.4300000      0.0000000E+00
 -0.4200000      0.0000000E+00
 -0.4100000      0.0000000E+00
 -0.4000000      0.0000000E+00
 -0.3900000      0.0000000E+00
 -0.3800000      0.0000000E+00
 -0.3700000      0.0000000E+00
 -0.3600000      0.0000000E+00
 -0.3500000      0.0000000E+00
 -0.3400000      0.0000000E+00
 -0.3300000      0.0000000E+00
 -0.3200000      0.0000000E+00
 -0.3100000      0.0000000E+00
 -0.3000000      0.0000000E+00
 -0.2900000      0.0000000E+00
 -0.2800000      0.0000000E+00
 -0.2700000      0.0000000E+00
 -0.2600000      0.0000000E+00
 -0.2500000      0.0000000E+00
 -0.2400000      0.0000000E+00
 -0.2300000      0.0000000E+00
 -0.2200000      0.0000000E+00
 -0.2100000      0.0000000E+00
 -0.2000000      0.0000000E+00
 -0.1900000      0.0000000E+00
 -0.1800000      0.0000000E+00
 -0.1700000      0.0000000E+00
 -0.1600000      0.0000000E+00
 -0.1500000      0.0000000E+00
 -0.1400000      0.0000000E+00
 -0.1300000      0.0000000E+00
 -0.1200000      0.0000000E+00
 -0.1100000      0.0000000E+00
 -0.1000000      0.0000000E+00
 -9.0000004E-02  0.0000000E+00
 -7.9999998E-02  0.0000000E+00
 -7.0000000E-02  0.0000000E+00
 -5.9999999E-02  0.0000000E+00
 -5.0000001E-02  0.0000000E+00
 -3.9999999E-02  0.0000000E+00
 -2.9999999E-02  0.0000000E+00
 -2.0000000E-02  0.0000000E+00
 -9.9999998E-03  0.0000000E+00
 -3.4694470E-17  0.0000000E+00
  9.9999998E-03  0.0000000E+00
  2.0000000E-02  0.0000000E+00
  2.9999999E-02  0.0000000E+00
  3.9999999E-02  0.0000000E+00
  5.0000001E-02  0.0000000E+00
  5.9999999E-02  0.0000000E+00
  7.0000000E-02  0.0000000E+00
  7.9999998E-02  0.0000000E+00
  9.0000004E-02  0.0000000E+00
  0.1000000      0.0000000E+00
  0.1100000      0.0000000E+00
  0.1200000      0.0000000E+00
  0.1300000      0.0000000E+00
  0.1400000      0.0000000E+00
  0.1500000      0.0000000E+00
  0.1600000      0.0000000E+00
  0.1700000      0.0000000E+00
  0.1800000      0.0000000E+00
  0.1900000      0.0000000E+00
  0.2000000      0.0000000E+00
  0.2100000      0.0000000E+00
  0.2200000      0.0000000E+00
  0.2300000      0.0000000E+00
  0.2400000      0.0000000E+00
  0.2500000      0.0000000E+00
  0.2600000      0.0000000E+00
  0.2700000      0.0000000E+00
  0.2800000      0.0000000E+00
  0.2900000      0.0000000E+00
  0.3000000      0.0000000E+00
  0.3100000      0.0000000E+00
  0.3200000      0.0000000E+00
  0.3300000      0.0000000E+00
  0.3400000      0.0000000E+00
  0.3500000      0.0000000E+00
  0.3600000      0.0000000E+00
  0.3700000      0.0000000E+00
  0.3800000      0.0000000E+00
  0.3900000      0.0000000E+00
  0.4000000      0.0000000E+00
  0.4100000      0.0000000E+00
  0.4200000      0.0000000E+00
  0.4300000      0.0000000E+00
  0.4400000      0.0000000E+00
  0.4500000      0.0000000E+00
  0.4600000      0.0000000E+00
  0.4700000      0.0000000E+00
  0.4800000      0.0000000E+00
  0.4900000      0.0000000E+00
  0.5000000      0.0000000E+00
  0.5100000      0.0000000E+00
  0.5200000      0.0000000E+00
  0.5300000      0.0000000E+00
  0.5400000      0.0000000E+00
  0.5500000      0.0000000E+00
  0.5600000      0.0000000E+00
  0.5700000      0.0000000E+00
  0.5800000      0.0000000E+00
  0.5900000      0.0000000E+00
  0.6000000      0.0000000E+00
  0.6100000      0.0000000E+00
  0.6200000      0.0000000E+00
  0.6300000      0.0000000E+00
  0.6400000      0.0000000E+00
  0.6500000      0.0000000E+00
  0.6600000      0.0000000E+00
  0.6700000      0.0000000E+00
  0.6800000      0.0000000E+00
  0.6900000      0.0000000E+00
  0.7000000      0.0000000E+00
  0.7100000      0.0000000E+00
  0.7200000      0.0000000E+00
  0.7300000      0.0000000E+00
  0.7400000      0.0000000E+00
  0.7500000      0.0000000E+00
  0.7600000      0.0000000E+00
  0.7700000      0.0000000E+00
  0.7800000      0.0000000E+00
  0.7900000      0.0000000E+00
  0.8000000      0.0000000E+00
  0.8100000      0.0000000E+00
  0.8200000      0.0000000E+00
  0.8300000      0.0000000E+00
  0.8400000      0.0000000E+00
  0.8500000      0.0000000E+00
  0.8600000      0.0000000E+00
  0.8700000      0.0000000E+00
  0.8800000      0.0000000E+00
  0.8900000      0.0000000E+00
  0.9000000      0.0000000E+00
  0.9100000      0.0000000E+00
  0.9200000      0.0000000E+00
  0.9300000      0.0000000E+00
  0.9400000      0.0000000E+00
  0.9500000      0.0000000E+00
  0.9600000      0.0000000E+00
  0.9700000      0.0000000E+00
  0.9800000      0.0000000E+00
  0.9900000      0.0000000E+00
   1.000000      0.0000000E+00
   1.010000      0.0000000E+00
   1.020000      0.0000000E+00
   1.030000      0.0000000E+00
   1.040000      0.0000000E+00
   1.050000      0.0000000E+00
   1.060000      0.0000000E+00
   1.070000      0.0000000E+00
   1.080000      0.0000000E+00
   1.090000      0.0000000E+00
   1.100000      0.0000000E+00
   1.110000      0.0000000E+00
   1.120000      0.0000000E+00
   1.130000      0.0000000E+00
   1.140000      0.0000000E+00
   1.150000      0.0000000E+00
   1.160000      0.0000000E+00
   1.170000      0.0000000E+00
   1.180000      0.0000000E+00
   1.190000      0.0000000E+00
   1.200000      0.0000000E+00
   1.210000      0.0000000E+00
   1.220000      0.0000000E+00
   1.230000      0.0000000E+00
   1.240000      0.0000000E+00
   1.250000      0.0000000E+00
   1.260000      0.0000000E+00
   1.270000      0.0000000E+00
   1.280000      0.0000000E+00
   1.290000      0.0000000E+00
   1.300000      0.0000000E+00
   1.310000      0.0000000E+00
   1.320000      0.0000000E+00
   1.330000      0.0000000E+00
   1.340000      0.0000000E+00
   1.350000      0.0000000E+00
   1.360000      0.0000000E+00
   1.370000      0.0000000E+00
   1.380000      0.0000000E+00
   1.390000      0.0000000E+00
   1.400000      0.0000000E+00
   1.410000      0.0000000E+00
   1.420000      0.0000000E+00
   1.430000      0.0000000E+00
   1.440000      0.0000000E+00
   1.450000      0.0000000E+00
   1.460000      0.0000000E+00
   1.470000      0.0000000E+00
   1.480000      0.0000000E+00
   1.490000      0.0000000E+00
   1.500000      0.0000000E+00
   1.510000      0.0000000E+00
   1.520000      0.0000000E+00
   1.530000      0.0000000E+00
   1.540000      0.0000000E+00
   1.550000      0.0000000E+00
   1.560000      0.0000000E+00
   1.570000      0.0000000E+00
   1.580000      0.0000000E+00
   1.590000      0.0000000E+00
   1.600000      0.0000000E+00
   1.610000      0.0000000E+00
   1.620000      0.0000000E+00
   1.630000      0.0000000E+00
   1.640000      0.0000000E+00
   1.650000      0.0000000E+00
   1.660000      0.0000000E+00
   1.670000      0.0000000E+00
   1.680000      0.0000000E+00
   1.690000      0.0000000E+00
   1.700000      0.0000000E+00
   1.710000      0.0000000E+00
   1.720000      0.0000000E+00
   1.730000      0.0000000E+00
   1.740000      0.0000000E+00
   1.750000      0.0000000E+00
   1.760000      0.0000000E+00
   1.770000      0.0000000E+00
   1.780000      0.0000000E+00
   1.790000      0.0000000E+00
   1.800000      0.0000000E+00
   1.810000      0.0000000E+00
   1.820000      0.0000000E+00
   1.830000      0.0000000E+00
   1.840000      0.0000000E+00
   1.850000      0.0000000E+00
   1.860000      0.0000000E+00
   1.870000      0.0000000E+00
   1.880000      0.0000000E+00
   1.890000      0.0000000E+00
   1.900000      0.0000000E+00
   1.910000      0.0000000E+00
   1.920000      0.0000000E+00
   1.930000      0.0000000E+00
   1.940000      0.0000000E+00
   1.950000      0.0000000E+00
   1.960000      0.0000000E+00
   1.970000      0.0000000E+00
   1.980000      0.0000000E+00
   1.990000      0.0000000E+00
   2.000000      0.0000000E+00
   2.010000      0.0000000E+00
   2.020000      0.0000000E+00
   2.030000      0.0000000E+00
   2.040000      0.0000000E+00
   2.050000      0.0000000E+00
   2.060000      0.0000000E+00
   2.070000      0.0000000E+00
   2.080000      0.0000000E+00
   2.090000      0.0000000E+00
   2.100000      0.0000000E+00
   2.110000      0.0000000E+00
   2.120000      0.0000000E+00
   2.130000      0.0000000E+00
   2.140000      0.0000000E+00
   2.150000      0.0000000E+00
   2.160000      0.0000000E+00
   2.170000      0.0000000E+00
   2.180000      0.0000000E+00
   2.190000      0.0000000E+00
   2.200000      0.0000000E+00
   2.210000      0.0000000E+00
   2.220000      0.0000000E+00
   2.230000      0.0000000E+00
   2.240000      0.0000000E+00
   2.250000      0.0000000E+00
   2.260000      0.0000000E+00
   2.270000      0.0000000E+00
   2.280000      0.0000000E+00
   2.290000      0.0000000E+00
   2.300000      0.0000000E+00
   2.310000      0.0000000E+00
   2.320000      0.0000000E+00
   2.330000      0.0000000E+00
   2.340000      0.0000000E+00
   2.350000      0.0000000E+00
   2.360000      0.0000000E+00
   2.370000      0.0000000E+00
   2.380000      0.0000000E+00
   2.390000      0.0000000E+00
   2.400000      0.0000000E+00
   2.410000      0.0000000E+00
   2.420000      0.0000000E+00
   2.430000      0.0000000E+00
   2.440000      0.0000000E+00
   2.450000      0.0000000E+00
   2.460000      0.0000000E+00
   2.470000      0.0000000E+00
   2.480000      0.0000000E+00
   2.490000      0.0000000E+00
   2.500000      0.0000000E+00
   2.510000      0.0000000E+00
   2.520000      0.0000000E+00
   2.530000      0.0000000E+00
   2.540000      0.0000000E+00
   2.550000      0.0000000E+00
   2.560000      0.0000000E+00
   2.570000      0.0000000E+00
   2.580000      0.0000000E+00
   2.590000      0.0000000E+00
   2.600000      0.0000000E+00
   2.610000      0.0000000E+00
   2.620000      0.0000000E+00
   2.630000      0.0000000E+00
   2.640000      0.0000000E+00
   2.650000      0.0000000E+00
   2.660000      0.0000000E+00
   2.670000      0.0000000E+00
   2.680000      0.0000000E+00
   2.690000      0.0000000E+00
   2.700000      0.0000000E+00
   2.710000      0.0000000E+00
   2.720000      0.0000000E+00
   2.730000      0.0000000E+00
   2.740000      0.0000000E+00
   2.750000      0.0000000E+00
   2.760000      0.0000000E+00
   2.770000      0.0000000E+00
   2.780000      0.0000000E+00
   2.790000      0.0000000E+00
   2.800000      0.0000000E+00
   2.810000      0.0000000E+00
   2.820000      0.0000000E+00
   2.830000      0.0000000E+00
   2.840000      0.0000000E+00
   2.850000      0.0000000E+00
   2.860000      0.0000000E+00
   2.870000      0.0000000E+00
   2.880000      0.0000000E+00
   2.890000      0.0000000E+00
   2.900000      0.0000000E+00
   2.910000      0.0000000E+00
   2.920000      0.0000000E+00
   2.930000      0.0000000E+00
   2.940000      0.0000000E+00
   2.950000      0.0000000E+00
   2.960000      0.0000000E+00
   2.970000      0.0000000E+00
   2.980000      0.0000000E+00
   2.990000      0.0000000E+00
   3.000000      0.0000000E+00
   3.010000      0.0000000E+00
   3.020000      0.0000000E+00
   3.030000      0.0000000E+00
   3.040000      0.0000000E+00
   3.050000      0.0000000E+00
   3.060000      0.0000000E+00
   3.070000      0.0000000E+00
   3.080000      0.0000000E+00
   3.090000      0.0000000E+00
   3.100000      0.0000000E+00
   3.110000      0.0000000E+00
   3.120000      0.0000000E+00
   3.130000      0.0000000E+00
   3.140000      0.0000000E+00
   3.150000      0.0000000E+00
   3.160000      1.5830016E-38
   3.170000      2.1923456E-38
   3.180000      2.7939411E-38
   3.190000      3.4854065E-38
   3.200000      3.2927596E-38
   3.210000      1.9046586E-38
   3.220000      0.0000000E+00
   3.230000     -1.9900958E-38
   3.240000     -4.1315825E-38
   3.250000     -6.1221799E-38
   3.260000     -8.0128774E-38
   3.270000     -9.7237569E-38
   3.280000     -1.2017075E-37
   3.290000     -1.4788609E-37
   3.300000     -1.6363588E-37
   3.310000     -1.7029652E-37
   3.320000     -1.7746786E-37
   3.330000     -1.8706923E-37
   3.340000     -1.9130971E-37
   3.350000     -1.7406104E-37
   3.360000     -1.4335719E-37
   3.370000     -1.2653032E-37
   3.380000     -1.3105559E-37
   3.390000     -1.5048992E-37
   3.400000     -1.7696223E-37
   3.410000     -2.0395332E-37
   3.420000     -2.3116618E-37
   3.430000     -2.6356231E-37
   3.440000     -3.1548614E-37
   3.450000     -3.8252955E-37
   3.460000     -4.5236408E-37
   3.470000     -4.9929605E-37
   3.480000     -5.0535405E-37
   3.490000     -4.8147544E-37
   3.500000     -4.2565604E-37
   3.510000     -3.4172602E-37
   3.520000     -2.4196061E-37
   3.530000     -1.3347543E-37
   3.540000     -4.3784806E-38
   3.550000      2.5749170E-38
   3.560000      9.3676057E-38
   3.570000      1.4932759E-37
   3.580000      1.9052117E-37
   3.590000      2.2235181E-37
   3.600000      2.4444340E-37
   3.610000      2.5736142E-37
   3.620000      3.2229526E-37
   3.630000      4.4126974E-37
   3.640000      5.6071032E-37
   3.650000      6.8217142E-37
   3.660000      7.8901256E-37
   3.670000      8.6090711E-37
   3.680000      9.2028808E-37
   3.690000      9.9658652E-37
   3.700000      1.1068505E-36
   3.710000      1.2237309E-36
   3.720000      1.3170163E-36
   3.730000      1.4117673E-36
   3.740000      1.5705816E-36
   3.750000      1.7857507E-36
   3.760000      2.0114474E-36
   3.770000      2.2538181E-36
   3.780000      2.5123745E-36
   3.790000      2.8432123E-36
   3.800000      3.1950975E-36
   3.810000      3.4704516E-36
   3.820000      3.4099352E-36
   3.830000      2.9614496E-36
   3.840000      2.3504571E-36
   3.850000      1.6513891E-36
   3.860000      1.0040681E-36
   3.870000      5.1942780E-37
   3.880000      4.5962347E-37
   3.890000      6.9728724E-37
   3.900000      8.2259601E-37
   3.910000      8.8403440E-37
   3.920000      9.3223620E-37
   3.930000      9.9289857E-37
   3.940000      1.0704501E-36
   3.950000      1.1227446E-36
   3.960000      5.3543951E-37
   3.970000     -7.6868131E-37
   3.980000     -1.9153593E-36
   3.990000     -2.9141650E-36
   4.000000     -3.5865198E-36
   4.010000     -3.9334025E-36
   4.020000     -4.3203880E-36
   4.030000     -4.8427734E-36
   4.040000     -5.5829004E-36
   4.050000     -6.4868419E-36
   4.060000     -7.4571714E-36
   4.070000     -8.1936692E-36
   4.080000     -8.7952562E-36
   4.090000     -9.2695959E-36
   4.100000     -9.7088314E-36
   4.110000     -1.0356374E-35
   4.120000     -1.1215944E-35
   4.130000     -1.2242218E-35
   4.140000     -1.3194191E-35
   4.150000     -1.4054379E-35
   4.160000     -1.5020579E-35
   4.170000     -1.5190806E-35
   4.180000     -1.4214211E-35
   4.190000     -1.2604656E-35
   4.200000     -1.0821110E-35
   4.210000     -9.2417748E-36
   4.220000     -7.6378355E-36
   4.230000     -6.0210035E-36
   4.240000     -4.8729694E-36
   4.250000     -4.4984247E-36
   4.260000     -4.7487475E-36
   4.270000     -5.2345795E-36
   4.280000     -5.7849765E-36
   4.290000     -6.5419245E-36
   4.300000     -7.0878406E-36
   4.310000     -6.8101516E-36
   4.320000     -5.6545257E-36
   4.330000     -3.6556048E-36
   4.340000     -1.0456130E-36
   4.350000      2.2672781E-36
   4.360000      6.4478061E-36
   4.370000      1.0941174E-35
   4.380000      1.5382433E-35
   4.390000      1.9688248E-35
   4.400000      2.3569437E-35
   4.410000      2.6586264E-35
   4.420000      2.9040872E-35
   4.430000      3.1034704E-35
   4.440000      3.2272029E-35
   4.450000      3.3141181E-35
   4.460000      3.4110200E-35
   4.470000      3.5497952E-35
   4.480000      3.7354513E-35
   4.490000      3.9474446E-35
   4.500000      4.1678800E-35
   4.510000      4.3983328E-35
   4.520000      4.7064550E-35
   4.530000      5.1094314E-35
   4.540000      5.5264685E-35
   4.550000      5.9072196E-35
   4.560000      6.2039159E-35
   4.570000      6.3881741E-35
   4.580000      6.4834603E-35
   4.590000      6.4457831E-35
   4.600000      6.1152574E-35
   4.610000      5.5042098E-35
   4.620000      4.7648982E-35
   4.630000      3.9634252E-35
   4.640000      3.6135942E-35
   4.650000      3.7110245E-35
   4.660000      3.8030236E-35
   4.670000      3.8879915E-35
   4.680000      4.0852825E-35
   4.690000      4.1646347E-35
   4.700000      3.9997854E-35
   4.710000      3.7316278E-35
   4.720000      3.3260349E-35
   4.730000      2.7792133E-35
   4.740000      2.1855825E-35
   4.750000      1.5278093E-35
   4.760000      3.6868519E-36
   4.770000     -1.4723410E-35
   4.780000     -3.5587139E-35
   4.790000     -5.5987378E-35
   4.800000     -7.4324803E-35
   4.810000     -9.0090547E-35
   4.820000     -1.0553910E-34
   4.830000     -1.1968143E-34
   4.840000     -1.2972136E-34
   4.850000     -1.3611878E-34
   4.860000     -1.4150586E-34
   4.870000     -1.4673594E-34
   4.880000     -1.5450909E-34
   4.890000     -1.6635901E-34
   4.900000     -1.8285823E-34
   4.910000     -2.0555220E-34
   4.920000     -2.3205370E-34
   4.930000     -2.5712281E-34
   4.940000     -2.7717597E-34
   4.950000     -2.9189221E-34
   4.960000     -3.0362209E-34
   4.970000     -3.1449516E-34
   4.980000     -3.1572015E-34
   4.990000     -3.1233824E-34
   5.000000     -3.1229404E-34
   5.010000     -3.1093984E-34
   5.020000     -3.1162975E-34
   5.030000     -3.2012134E-34
   5.040000     -3.2824357E-34
   5.050000     -3.2809301E-34
   5.060000     -3.2575708E-34
   5.070000     -3.2155288E-34
   5.080000     -3.2103499E-34
   5.090000     -3.1656164E-34
   5.100000     -2.9897032E-34
   5.110000     -2.8011353E-34
   5.120000     -2.5555761E-34
   5.130000     -2.2336588E-34
   5.140000     -1.9679229E-34
   5.150000     -1.7878003E-34
   5.160000     -1.6536029E-34
   5.170000     -1.5106998E-34
   5.180000     -1.3042913E-34
   5.190000     -1.0306619E-34
   5.200000     -6.5039838E-35
   5.210000     -2.4531408E-35
   5.220000      8.4513560E-36
   5.230000      5.1149180E-35
   5.240000      1.1014453E-34
   5.250000      1.7674570E-34
   5.260000      2.4587730E-34
   5.270000      3.2229454E-34
   5.280000      4.1265683E-34
   5.290000      5.1634430E-34
   5.300000      6.2479770E-34
   5.310000      7.2841656E-34
   5.320000      8.3649188E-34
   5.330000      9.5075351E-34
   5.340000      1.0529123E-33
   5.350000      1.1408359E-33
   5.360000      1.2170379E-33
   5.370000      1.2793137E-33
   5.380000      1.3353559E-33
   5.390000      1.3887423E-33
   5.400000      1.4392326E-33
   5.410000      1.4944024E-33
   5.420000      1.5592038E-33
   5.430000      1.6291248E-33
   5.440000      1.7039276E-33
   5.450000      1.7841301E-33
   5.460000      1.8682246E-33
   5.470000      1.9543505E-33
   5.480000      2.0365456E-33
   5.490000      2.1105852E-33
   5.500000      2.1737528E-33
   5.510000      2.2211682E-33
   5.520000      2.2511867E-33
   5.530000      2.2654004E-33
   5.540000      2.2650364E-33
   5.550000      2.2515358E-33
   5.560000      2.2270765E-33
   5.570000      2.1922920E-33
   5.580000      2.1481559E-33
   5.590000      2.0987967E-33
   5.600000      2.0457237E-33
   5.610000      1.9863619E-33
   5.620000      1.9211431E-33
   5.630000      1.8503352E-33
   5.640000      1.7707717E-33
   5.650000      1.6755867E-33
   5.660000      1.5587571E-33
   5.670000      1.4159326E-33
   5.680000      1.2436516E-33
   5.690000      1.0397868E-33
   5.700000      8.0199544E-34
   5.710000      5.3051924E-34
   5.720000      2.2660921E-34
   5.730000     -9.8659907E-35
   5.740000     -4.4702250E-34
   5.750000     -8.2151048E-34
   5.760000     -1.2206437E-33
   5.770000     -1.6348493E-33
   5.780000     -2.0538006E-33
   5.790000     -2.4844828E-33
   5.800000     -2.9266593E-33
   5.810000     -3.3785508E-33
   5.820000     -3.8422061E-33
   5.830000     -4.3230322E-33
   5.840000     -4.8238115E-33
   5.850000     -5.3480306E-33
   5.860000     -5.9009045E-33
   5.870000     -6.4846050E-33
   5.880000     -7.0984394E-33
   5.890000     -7.7384982E-33
   5.900000     -8.4004228E-33
   5.910000     -9.0769102E-33
   5.920000     -9.7631183E-33
   5.930000     -1.0452948E-32
   5.940000     -1.1135857E-32
   5.950000     -1.1805931E-32
   5.960000     -1.2458791E-32
   5.970000     -1.3090649E-32
   5.980000     -1.3698672E-32
   5.990000     -1.4283257E-32
   6.000000     -1.4845024E-32
   6.010000     -1.5385129E-32
   6.020000     -1.5904154E-32
   6.030000     -1.6402954E-32
   6.040000     -1.6879836E-32
   6.050000     -1.7330252E-32
   6.060000     -1.7750219E-32
   6.070000     -1.8131877E-32
   6.080000     -1.8465700E-32
   6.090000     -1.8741447E-32
   6.100000     -1.8947404E-32
   6.110000     -1.9072685E-32
   6.120000     -1.9107420E-32
   6.130000     -1.9042487E-32
   6.140000     -1.8869153E-32
   6.150000     -1.8584535E-32
   6.160000     -1.8186144E-32
   6.170000     -1.7669793E-32
   6.180000     -1.7035104E-32
   6.190000     -1.6281227E-32
   6.200000     -1.5407204E-32
   6.210000     -1.4411617E-32
   6.220000     -1.3290199E-32
   6.230000     -1.2037171E-32
   6.240000     -1.0646179E-32
   6.250000     -9.1085090E-33
   6.260000     -7.4143145E-33
   6.270000     -5.5533714E-33
   6.280000     -3.5156387E-33
   6.290000     -1.2921304E-33
   6.300000      1.1244095E-33
   6.310000      3.7396520E-33
   6.320000      6.5552544E-33
   6.330000      9.5704283E-33
   6.340000      1.2783172E-32
   6.350000      1.6189033E-32
   6.360000      1.9781320E-32
   6.370000      2.3551239E-32
   6.380000      2.7493423E-32
   6.390000      3.1603595E-32
   6.400000      3.5872873E-32
   6.410000      4.0294833E-32
   6.420000      4.4866348E-32
   6.430000      4.9583480E-32
   6.440000      5.4442680E-32
   6.450000      5.9441264E-32
   6.460000      6.4570886E-32
   6.470000      6.9821814E-32
   6.480000      7.5185747E-32
   6.490000      8.0647735E-32
   6.500000      8.6189785E-32
   6.510000      9.1791492E-32
   6.520000      9.7429063E-32
   6.530000      1.0307627E-31
   6.540000      1.0870463E-31
   6.550000      1.1428469E-31
   6.560000      1.1978646E-31
   6.570000      1.2517987E-31
   6.580000      1.3043530E-31
   6.590000      1.3552346E-31
   6.600000      1.4041532E-31
   6.610000      1.4508159E-31
   6.620000      1.4949191E-31
   6.630000      1.5361434E-31
   6.640000      1.5741500E-31
   6.650000      1.6085697E-31
   6.660000      1.6390001E-31
   6.670000      1.6650048E-31
   6.680000      1.6861111E-31
   6.690000      1.7018154E-31
   6.700000      1.7115908E-31
   6.710000      1.7148923E-31
   6.720000      1.7111661E-31
   6.730000      1.6998571E-31
   6.740000      1.6804185E-31
   6.750000      1.6523168E-31
   6.760000      1.6150353E-31
   6.770000      1.5680777E-31
   6.780000      1.5109652E-31
   6.790000      1.4432332E-31
   6.800000      1.3644247E-31
   6.810000      1.2740851E-31
   6.820000      1.1717584E-31
   6.830000      1.0569836E-31
   6.840000      9.2929170E-32
   6.850000      7.8820828E-32
   6.860000      6.3325761E-32
   6.870000      4.6397009E-32
   6.880000      2.7987783E-32
   6.890000      8.0567384E-33
   6.900000     -1.3433613E-32
   6.910000     -3.6518704E-32
   6.920000     -6.1226769E-32
   6.930000     -8.7579325E-32
   6.940000     -1.1559069E-31
   6.950000     -1.4526764E-31
   6.960000     -1.7660974E-31
   6.970000     -2.0960842E-31
   6.980000     -2.4424791E-31
   6.990000     -2.8050624E-31
   7.000000     -3.1835427E-31
   7.010000     -3.5775602E-31
   7.020000     -3.9866830E-31
   7.030000     -4.4104031E-31
   7.040000     -4.8481280E-31
   7.050000     -5.2991666E-31
   7.060000     -5.7627195E-31