  -2.600000      0.0000000E+00
  -2.590000      0.0000000E+00
  -2.580000      0.0000000E+00
  -2.570000      0.0000000E+00
  -2.560000      0.0000000E+00
  -2.550000      0.0000000E+00
  -2.540000      0.0000000E+00
  -2.530000      0.0000000E+00
  -2.520000      0.0000000E+00
  -2.510000      0.0000000E+00
  -2.500000      0.0000000E+00
  -2.490000      0.0000000E+00
  -2.480000      0.0000000E+00
  -2.470000      0.0000000E+00
  -2.460000      0.0000000E+00
  -2.450000      0.0000000E+00
  -2.440000      0.0000000E+00
  -2.430000      0.0000000E+00
  -2.420000      0.0000000E+00
  -2.410000      0.0000000E+00
  -2.400000      0.0000000E+00
  -2.390000      0.0000000E+00
  -2.380000      0.0000000E+00
  -2.370000      0.0000000E+00
  -2.360000      0.0000000E+00
  -2.350000      0.0000000E+00
  -2.340000      0.0000000E+00
  -2.330000      0.0000000E+00
  -2.320000      0.0000000E+00
  -2.310000      0.0000000E+00
  -2.300000      0.0000000E+00
  -2.290000      0.0000000E+00
  -2.280000      0.0000000E+00
  -2.270000      0.0000000E+00
  -2.260000      0.0000000E+00
  -2.250000      0.0000000E+00
  -2.240000      0.0000000E+00
  -2.230000      0.0000000E+00
  -2.220000      0.0000000E+00
  -2.210000      0.0000000E+00
  -2.200000      0.0000000E+00
  -2.190000      0.0000000E+00
  -2.180000      0.0000000E+00
  -2.170000      0.0000000E+00
  -2.160000      0.0000000E+00
  -2.150000      0.0000000E+00
  -2.140000      0.0000000E+00
  -2.130000      0.0000000E+00
  -2.120000      0.0000000E+00
  -2.110000      0.0000000E+00
  -2.100000      0.0000000E+00
  -2.090000      0.0000000E+00
  -2.080000      0.0000000E+00
  -2.070000      0.0000000E+00
  -2.060000      0.0000000E+00
  -2.050000      0.0000000E+00
  -2.040000      0.0000000E+00
  -2.030000      0.0000000E+00
  -2.020000      0.0000000E+00
  -2.010000      0.0000000E+00
  -2.000000      0.0000000E+00
  -1.990000      0.0000000E+00
  -1.980000      0.0000000E+00
  -1.970000      0.0000000E+00
  -1.960000      0.0000000E+00
  -1.950000      0.0000000E+00
  -1.940000      0.0000000E+00
  -1.930000      0.0000000E+00
  -1.920000      0.0000000E+00
  -1.910000      0.0000000E+00
  -1.900000      0.0000000E+00
  -1.890000      0.0000000E+00
  -1.880000      0.0000000E+00
  -1.870000      0.0000000E+00
  -1.860000      0.0000000E+00
  -1.850000      0.0000000E+00
  -1.840000      0.0000000E+00
  -1.830000      0.0000000E+00
  -1.820000      0.0000000E+00
  -1.810000      0.0000000E+00
  -1.800000      0.0000000E+00
  -1.790000      0.0000000E+00
  -1.780000      0.0000000E+00
  -1.770000      0.0000000E+00
  -1.760000      0.0000000E+00
  -1.750000      0.0000000E+00
  -1.740000      0.0000000E+00
  -1.730000      0.0000000E+00
  -1.720000      0.0000000E+00
  -1.710000      0.0000000E+00
  -1.700000      0.0000000E+00
  -1.690000      0.0000000E+00
  -1.680000      0.0000000E+00
  -1.670000      0.0000000E+00
  -1.660000      0.0000000E+00
  -1.650000      0.0000000E+00
  -1.640000      0.0000000E+00
  -1.630000      0.0000000E+00
  -1.620000      0.0000000E+00
  -1.610000      0.0000000E+00
  -1.600000      0.0000000E+00
  -1.590000      0.0000000E+00
  -1.580000      0.0000000E+00
  -1.570000      0.0000000E+00
  -1.560000      0.0000000E+00
  -1.550000      0.0000000E+00
  -1.540000      0.0000000E+00
  -1.530000      0.0000000E+00
  -1.520000      0.0000000E+00
  -1.510000      0.0000000E+00
  -1.500000      0.0000000E+00
  -1.490000      0.0000000E+00
  -1.480000      0.0000000E+00
  -1.470000      0.0000000E+00
  -1.460000      0.0000000E+00
  -1.450000      0.0000000E+00
  -1.440000      0.0000000E+00
  -1.430000      0.0000000E+00
  -1.420000      0.0000000E+00
  -1.410000      0.0000000E+00
  -1.400000      0.0000000E+00
  -1.390000      0.0000000E+00
  -1.380000      0.0000000E+00
  -1.370000      0.0000000E+00
  -1.360000      0.0000000E+00
  -1.350000      0.0000000E+00
  -1.340000      0.0000000E+00
  -1.330000      0.0000000E+00
  -1.320000      0.0000000E+00
  -1.310000      0.0000000E+00
  -1.300000      0.0000000E+00
  -1.290000      0.0000000E+00
  -1.280000      0.0000000E+00
  -1.270000      0.0000000E+00
  -1.260000      0.0000000E+00
  -1.250000      0.0000000E+00
  -1.240000      0.0000000E+00
  -1.230000      0.0000000E+00
  -1.220000      0.0000000E+00
  -1.210000      0.0000000E+00
  -1.200000      0.0000000E+00
  -1.190000      0.0000000E+00
  -1.180000      0.0000000E+00
  -1.170000      0.0000000E+00
  -1.160000      0.0000000E+00
  -1.150000      0.0000000E+00
  -1.140000      0.0000000E+00
  -1.130000      0.0000000E+00
  -1.120000      0.0000000E+00
  -1.110000      0.0000000E+00
  -1.100000      0.0000000E+00
  -1.090000      0.0000000E+00
  -1.080000      0.0000000E+00
  -1.070000      0.0000000E+00
  -1.060000      0.0000000E+00
  -1.050000      0.0000000E+00
  -1.040000      0.0000000E+00
  -1.030000      0.0000000E+00
  -1.020000      0.0000000E+00
  -1.010000      0.0000000E+00
  -1.000000      0.0000000E+00
 -0.9900000      0.0000000E+00
 -0.9800000      0.0000000E+00
 -0.9700000      0.0000000E+00
 -0.9600000      0.0000000E+00
 -0.9500000      0.0000000E+00
 -0.9400000      0.0000000E+00
 -0.9300000      0.0000000E+00
 -0.9200000      0.0000000E+00
 -0.9100000      0.0000000E+00
 -0.9000000      0.0000000E+00
 -0.8900000      0.0000000E+00
 -0.8800000      0.0000000E+00
 -0.8700000      0.0000000E+00
 -0.8600000      0.0000000E+00
 -0.8500000      0.0000000E+00
 -0.8400000      0.0000000E+00
 -0.8300000      0.0000000E+00
 -0.8200000      0.0000000E+00
 -0.8100000      0.0000000E+00
 -0.8000000      0.0000000E+00
 -0.7900000      0.0000000E+00
 -0.7800000      0.0000000E+00
 -0.7700000      0.0000000E+00
 -0.7600000      0.0000000E+00
 -0.7500000      0.0000000E+00
 -0.7400000      0.0000000E+00
 -0.7300000      0.0000000E+00
 -0.7200000      0.0000000E+00
 -0.7100000      0.0000000E+00
 -0.7000000      0.0000000E+00
 -0.6900000      0.0000000E+00
 -0.6800000      0.0000000E+00
 -0.6700000      0.0000000E+00
 -0.6600000      0.0000000E+00
 -0.6500000      0.0000000E+00
 -0.6400000      0.0000000E+00
 -0.6300000      0.0000000E+00
 -0.6200000      0.0000000E+00
 -0.6100000      0.0000000E+00
 -0.6000000      0.0000000E+00
 -0.5900000      0.0000000E+00
 -0.5800000      0.0000000E+00
 -0.5700000      0.0000000E+00
 -0.5600000      0.0000000E+00
 -0.5500000      0.0000000E+00
 -0.5400000      0.0000000E+00
 -0.5300000      0.0000000E+00
 -0.5200000      0.0000000E+00
 -0.5100000      0.0000000E+00
 -0.5000000      0.0000000E+00
 -0.4900000      0.0000000E+00
 -0.4800000      0.0000000E+00
 -0.4700000      0.0000000E+00
 -0.4600000      0.0000000E+00
 -0.4500000      0.0000000E+00
 -0.4400000      0.0000000E+00
 -0.4300000      0.0000000E+00
 -0.4200000      0.0000000E+00
 -0.4100000      0.0000000E+00
 -0.4000000      0.0000000E+00
 -0.3900000      0.0000000E+00
 -0.3800000      0.0000000E+00
 -0.3700000      0.0000000E+00
 -0.3600000      0.0000000E+00
 -0.3500000      0.0000000E+00
 -0.3400000      0.0000000E+00
 -0.3300000      0.0000000E+00
 -0.3200000      0.0000000E+00
 -0.3100000      0.0000000E+00
 -0.3000000      0.0000000E+00
 -0.2900000      0.0000000E+00
 -0.2800000      0.0000000E+00
 -0.2700000      0.0000000E+00
 -0.2600000      0.0000000E+00
 -0.2500000      0.0000000E+00
 -0.2400000      0.0000000E+00
 -0.2300000      0.0000000E+00
 -0.2200000      0.0000000E+00
 -0.2100000      0.0000000E+00
 -0.2000000      0.0000000E+00
 -0.1900000      0.0000000E+00
 -0.1800000      0.0000000E+00
 -0.1700000      0.0000000E+00
 -0.1600000      0.0000000E+00
 -0.1500000      0.0000000E+00
 -0.1400000      0.0000000E+00
 -0.1300000      0.0000000E+00
 -0.1200000      0.0000000E+00
 -0.1100000      0.0000000E+00
 -0.1000000      0.0000000E+00
 -9.0000004E-02  0.0000000E+00
 -7.9999998E-02  0.0000000E+00
 -7.0000000E-02  0.0000000E+00
 -5.9999999E-02  0.0000000E+00
 -5.0000001E-02  0.0000000E+00
 -3.9999999E-02  0.0000000E+00
 -2.9999999E-02  0.0000000E+00
 -2.0000000E-02  0.0000000E+00
 -9.9999998E-03  0.0000000E+00
 -3.4694470E-17  0.0000000E+00
  9.9999998E-03  0.0000000E+00
  2.0000000E-02  0.0000000E+00
  2.9999999E-02  0.0000000E+00
  3.9999999E-02  0.0000000E+00
  5.0000001E-02  0.0000000E+00
  5.9999999E-02  0.0000000E+00
  7.0000000E-02  0.0000000E+00
  7.9999998E-02  0.0000000E+00
  9.0000004E-02  0.0000000E+00
  0.1000000      0.0000000E+00
  0.1100000      0.0000000E+00
  0.1200000      0.0000000E+00
  0.1300000      0.0000000E+00
  0.1400000      0.0000000E+00
  0.1500000      0.0000000E+00
  0.1600000      0.0000000E+00
  0.1700000      0.0000000E+00
  0.1800000      0.0000000E+00
  0.1900000      0.0000000E+00
  0.2000000      0.0000000E+00
  0.2100000      0.0000000E+00
  0.2200000      0.0000000E+00
  0.2300000      0.0000000E+00
  0.2400000      0.0000000E+00
  0.2500000      0.0000000E+00
  0.2600000      0.0000000E+00
  0.2700000      0.0000000E+00
  0.2800000      0.0000000E+00
  0.2900000      0.0000000E+00
  0.3000000      0.0000000E+00
  0.3100000      0.0000000E+00
  0.3200000      0.0000000E+00
  0.3300000      0.0000000E+00
  0.3400000      0.0000000E+00
  0.3500000      0.0000000E+00
  0.3600000      0.0000000E+00
  0.3700000      0.0000000E+00
  0.3800000      0.0000000E+00
  0.3900000      0.0000000E+00
  0.4000000      0.0000000E+00
  0.4100000      0.0000000E+00
  0.4200000      0.0000000E+00
  0.4300000      0.0000000E+00
  0.4400000      0.0000000E+00
  0.4500000      0.0000000E+00
  0.4600000      0.0000000E+00
  0.4700000      0.0000000E+00
  0.4800000      0.0000000E+00
  0.4900000      0.0000000E+00
  0.5000000      0.0000000E+00
  0.5100000      0.0000000E+00
  0.5200000      0.0000000E+00
  0.5300000      0.0000000E+00
  0.5400000      0.0000000E+00
  0.5500000      0.0000000E+00
  0.5600000      0.0000000E+00
  0.5700000      0.0000000E+00
  0.5800000      0.0000000E+00
  0.5900000      0.0000000E+00
  0.6000000      0.0000000E+00
  0.6100000      0.0000000E+00
  0.6200000      0.0000000E+00
  0.6300000      0.0000000E+00
  0.6400000      0.0000000E+00
  0.6500000      0.0000000E+00
  0.6600000      0.0000000E+00
  0.6700000      0.0000000E+00
  0.6800000      0.0000000E+00
  0.6900000      0.0000000E+00
  0.7000000      0.0000000E+00
  0.7100000      0.0000000E+00
  0.7200000      0.0000000E+00
  0.7300000      0.0000000E+00
  0.7400000      0.0000000E+00
  0.7500000      0.0000000E+00
  0.7600000      0.0000000E+00
  0.7700000      0.0000000E+00
  0.7800000      0.0000000E+00
  0.7900000      0.0000000E+00
  0.8000000      0.0000000E+00
  0.8100000      0.0000000E+00
  0.8200000      0.0000000E+00
  0.8300000      0.0000000E+00
  0.8400000      0.0000000E+00
  0.8500000      0.0000000E+00
  0.8600000      0.0000000E+00
  0.8700000      0.0000000E+00
  0.8800000      0.0000000E+00
  0.8900000      0.0000000E+00
  0.9000000      0.0000000E+00
  0.9100000      0.0000000E+00
  0.9200000      0.0000000E+00
  0.9300000      0.0000000E+00
  0.9400000      0.0000000E+00
  0.9500000      0.0000000E+00
  0.9600000      0.0000000E+00
  0.9700000      0.0000000E+00
  0.9800000      0.0000000E+00
  0.9900000      0.0000000E+00
   1.000000      0.0000000E+00
   1.010000      0.0000000E+00
   1.020000      0.0000000E+00
   1.030000      0.0000000E+00
   1.040000      0.0000000E+00
   1.050000      0.0000000E+00
   1.060000      0.0000000E+00
   1.070000      0.0000000E+00
   1.080000      0.0000000E+00
   1.090000      0.0000000E+00
   1.100000      0.0000000E+00
   1.110000      0.0000000E+00
   1.120000      0.0000000E+00
   1.130000      0.0000000E+00
   1.140000      0.0000000E+00
   1.150000      0.0000000E+00
   1.160000      0.0000000E+00
   1.170000      0.0000000E+00
   1.180000      0.0000000E+00
   1.190000      0.0000000E+00
   1.200000      0.0000000E+00
   1.210000      0.0000000E+00
   1.220000      0.0000000E+00
   1.230000      0.0000000E+00
   1.240000      0.0000000E+00
   1.250000      0.0000000E+00
   1.260000      0.0000000E+00
   1.270000      0.0000000E+00
   1.280000      0.0000000E+00
   1.290000      0.0000000E+00
   1.300000      0.0000000E+00
   1.310000      0.0000000E+00
   1.320000      0.0000000E+00
   1.330000      0.0000000E+00
   1.340000      0.0000000E+00
   1.350000      0.0000000E+00
   1.360000      0.0000000E+00
   1.370000      0.0000000E+00
   1.380000      0.0000000E+00
   1.390000      0.0000000E+00
   1.400000      0.0000000E+00
   1.410000      0.0000000E+00
   1.420000      0.0000000E+00
   1.430000      0.0000000E+00
   1.440000      0.0000000E+00
   1.450000      0.0000000E+00
   1.460000      0.0000000E+00
   1.470000      0.0000000E+00
   1.480000      0.0000000E+00
   1.490000      0.0000000E+00
   1.500000      0.0000000E+00
   1.510000      0.0000000E+00
   1.520000      0.0000000E+00
   1.530000      0.0000000E+00
   1.540000      0.0000000E+00
   1.550000      0.0000000E+00
   1.560000      0.0000000E+00
   1.570000      0.0000000E+00
   1.580000      0.0000000E+00
   1.590000      0.0000000E+00
   1.600000      0.0000000E+00
   1.610000      0.0000000E+00
   1.620000      0.0000000E+00
   1.630000      0.0000000E+00
   1.640000      0.0000000E+00
   1.650000      0.0000000E+00
   1.660000      0.0000000E+00
   1.670000      0.0000000E+00
   1.680000      0.0000000E+00
   1.690000      0.0000000E+00
   1.700000      0.0000000E+00
   1.710000      0.0000000E+00
   1.720000      0.0000000E+00
   1.730000      0.0000000E+00
   1.740000      0.0000000E+00
   1.750000      0.0000000E+00
   1.760000      0.0000000E+00
   1.770000      0.0000000E+00
   1.780000      0.0000000E+00
   1.790000      0.0000000E+00
   1.800000      0.0000000E+00
   1.810000      0.0000000E+00
   1.820000      0.0000000E+00
   1.830000      0.0000000E+00
   1.840000      0.0000000E+00
   1.850000      0.0000000E+00
   1.860000      0.0000000E+00
   1.870000      0.0000000E+00
   1.880000      0.0000000E+00
   1.890000      0.0000000E+00
   1.900000      0.0000000E+00
   1.910000      0.0000000E+00
   1.920000      0.0000000E+00
   1.930000      0.0000000E+00
   1.940000      0.0000000E+00
   1.950000      0.0000000E+00
   1.960000      0.0000000E+00
   1.970000      0.0000000E+00
   1.980000      0.0000000E+00
   1.990000      0.0000000E+00
   2.000000      0.0000000E+00
   2.010000      0.0000000E+00
   2.020000      0.0000000E+00
   2.030000      0.0000000E+00
   2.040000      0.0000000E+00
   2.050000      0.0000000E+00
   2.060000      0.0000000E+00
   2.070000      0.0000000E+00
   2.080000      0.0000000E+00
   2.090000      0.0000000E+00
   2.100000      0.0000000E+00
   2.110000      0.0000000E+00
   2.120000      0.0000000E+00
   2.130000      0.0000000E+00
   2.140000      0.0000000E+00
   2.150000      0.0000000E+00
   2.160000      0.0000000E+00
   2.170000      0.0000000E+00
   2.180000      0.0000000E+00
   2.190000      0.0000000E+00
   2.200000      0.0000000E+00
   2.210000      0.0000000E+00
   2.220000      0.0000000E+00
   2.230000      0.0000000E+00
   2.240000      0.0000000E+00
   2.250000      0.0000000E+00
   2.260000      0.0000000E+00
   2.270000      0.0000000E+00
   2.280000      0.0000000E+00
   2.290000      0.0000000E+00
   2.300000      0.0000000E+00
   2.310000      0.0000000E+00
   2.320000      0.0000000E+00
   2.330000      0.0000000E+00
   2.340000      0.0000000E+00
   2.350000      0.0000000E+00
   2.360000      0.0000000E+00
   2.370000      0.0000000E+00
   2.380000      0.0000000E+00
   2.390000      0.0000000E+00
   2.400000      0.0000000E+00
   2.410000      0.0000000E+00
   2.420000      0.0000000E+00
   2.430000      0.0000000E+00
   2.440000      0.0000000E+00
   2.450000      0.0000000E+00
   2.460000      0.0000000E+00
   2.470000      0.0000000E+00
   2.480000      0.0000000E+00
   2.490000      0.0000000E+00
   2.500000      0.0000000E+00
   2.510000      0.0000000E+00
   2.520000      0.0000000E+00
   2.530000      0.0000000E+00
   2.540000      0.0000000E+00
   2.550000      0.0000000E+00
   2.560000      0.0000000E+00
   2.570000      0.0000000E+00
   2.580000      0.0000000E+00
   2.590000      0.0000000E+00
   2.600000      0.0000000E+00
   2.610000      0.0000000E+00
   2.620000      0.0000000E+00
   2.630000      0.0000000E+00
   2.640000      0.0000000E+00
   2.650000      0.0000000E+00
   2.660000      0.0000000E+00
   2.670000      0.0000000E+00
   2.680000      0.0000000E+00
   2.690000      0.0000000E+00
   2.700000      0.0000000E+00
   2.710000      0.0000000E+00
   2.720000      0.0000000E+00
   2.730000      0.0000000E+00
   2.740000      0.0000000E+00
   2.750000      0.0000000E+00
   2.760000      0.0000000E+00
   2.770000      0.0000000E+00
   2.780000      0.0000000E+00
   2.790000      0.0000000E+00
   2.800000      0.0000000E+00
   2.810000      0.0000000E+00
   2.820000      0.0000000E+00
   2.830000      0.0000000E+00
   2.840000      0.0000000E+00
   2.850000      0.0000000E+00
   2.860000      0.0000000E+00
   2.870000      0.0000000E+00
   2.880000      0.0000000E+00
   2.890000      0.0000000E+00
   2.900000      0.0000000E+00
   2.910000      0.0000000E+00
   2.920000      0.0000000E+00
   2.930000      0.0000000E+00
   2.940000      0.0000000E+00
   2.950000      0.0000000E+00
   2.960000      0.0000000E+00
   2.970000      0.0000000E+00
   2.980000      0.0000000E+00
   2.990000      0.0000000E+00
   3.000000      0.0000000E+00
   3.010000     -1.2064027E-38
   3.020000     -1.3458247E-38
   3.030000     -1.4717625E-38
   3.040000     -1.5739702E-38
   3.050000     -1.6717330E-38
   3.060000     -1.7798246E-38
   3.070000     -1.8795508E-38
   3.080000     -1.8889217E-38
   3.090000     -1.7884377E-38
   3.100000     -1.9203264E-38
   3.110000     -2.3320637E-38
   3.120000     -2.7343105E-38
   3.130000     -3.1350037E-38
   3.140000     -3.5839708E-38
   3.150000     -4.0570060E-38
   3.160000     -4.5807144E-38
   3.170000     -4.8407099E-38
   3.180000     -4.7497830E-38
   3.190000     -4.5717416E-38
   3.200000     -4.2074384E-38
   3.210000     -3.6279031E-38
   3.220000     -2.3291388E-38
   3.230000      0.0000000E+00
   3.240000      1.9275050E-38
   3.250000      4.3287071E-38
   3.260000      6.8531309E-38
   3.270000      9.4371263E-38
   3.280000      1.2101174E-37
   3.290000      1.4775223E-37
   3.300000      1.7176315E-37
   3.310000      1.9174119E-37
   3.320000      2.0892844E-37
   3.330000      2.2373580E-37
   3.340000      2.3667281E-37
   3.350000      2.4861819E-37
   3.360000      2.5822841E-37
   3.370000      2.5801667E-37
   3.380000      2.5029731E-37
   3.390000      2.4260550E-37
   3.400000      2.3407899E-37
   3.410000      2.2829277E-37
   3.420000      2.2896863E-37
   3.430000      2.3721017E-37
   3.440000      2.5285054E-37
   3.450000      2.7217976E-37
   3.460000      2.9536248E-37
   3.470000      3.2057653E-37
   3.480000      3.4244501E-37
   3.490000      3.4766867E-37
   3.500000      3.3748567E-37
   3.510000      3.2534341E-37
   3.520000      3.1004876E-37
   3.530000      2.7929726E-37
   3.540000      2.3214984E-37
   3.550000      1.7656050E-37
   3.560000      1.0990546E-37
   3.570000      3.2535294E-38
   3.580000     -6.0048952E-38
   3.590000     -1.6650115E-37
   3.600000     -2.8028960E-37
   3.610000     -4.0127004E-37
   3.620000     -5.2082825E-37
   3.630000     -6.3610762E-37
   3.640000     -7.4678630E-37
   3.650000     -8.5760210E-37
   3.660000     -9.7803593E-37
   3.670000     -1.1072356E-36
   3.680000     -1.2433426E-36
   3.690000     -1.3858539E-36
   3.700000     -1.5312970E-36
   3.710000     -1.6777954E-36
   3.720000     -1.8217890E-36
   3.730000     -1.9531200E-36
   3.740000     -2.0600569E-36
   3.750000     -2.1519320E-36
   3.760000     -2.2385908E-36
   3.770000     -2.3154407E-36
   3.780000     -2.3761432E-36
   3.790000     -2.4140357E-36
   3.800000     -2.4711205E-36
   3.810000     -2.5669044E-36
   3.820000     -2.6454158E-36
   3.830000     -2.6817373E-36
   3.840000     -2.6772922E-36
   3.850000     -2.6359903E-36
   3.860000     -2.5147074E-36
   3.870000     -2.3181920E-36
   3.880000     -2.1187674E-36
   3.890000     -1.9338663E-36
   3.900000     -1.6523995E-36
   3.910000     -1.2489381E-36
   3.920000     -8.1414140E-37
   3.930000     -3.7928800E-37
   3.940000      5.7021234E-38
   3.950000      5.3225356E-37
   3.960000      1.0559572E-36
   3.970000      1.5474808E-36
   3.980000      2.0217757E-36
   3.990000      2.5292140E-36
   4.000000      3.0369152E-36
   4.010000      3.5548950E-36
   4.020000      3.9918609E-36
   4.030000      4.3395838E-36
   4.040000      4.7606492E-36
   4.050000      5.3253212E-36
   4.060000      6.0381903E-36
   4.070000      6.9038690E-36
   4.080000      7.9953447E-36
   4.090000      9.2475367E-36
   4.100000      1.0410943E-35
   4.110000      1.1473479E-35
   4.120000      1.2424622E-35
   4.130000      1.3145542E-35
   4.140000      1.3647512E-35
   4.150000      1.4052804E-35
   4.160000      1.4402978E-35
   4.170000      1.4618722E-35
   4.180000      1.4718144E-35
   4.190000      1.4725048E-35
   4.200000      1.4674305E-35
   4.210000      1.4622919E-35
   4.220000      1.4512474E-35
   4.230000      1.4265456E-35
   4.240000      1.3834951E-35
   4.250000      1.3153559E-35
   4.260000      1.2319376E-35
   4.270000      1.1363082E-35
   4.280000      1.0182964E-35
   4.290000      8.8443136E-36
   4.300000      7.3295839E-36
   4.310000      5.6089821E-36
   4.320000      3.7982594E-36
   4.330000      1.9208506E-36
   4.340000     -1.7835089E-38
   4.350000     -2.0766709E-36
   4.360000     -4.4756732E-36
   4.370000     -7.0721109E-36
   4.380000     -9.7722725E-36
   4.390000     -1.2743580E-35
   4.400000     -1.5938565E-35
   4.410000     -1.9434594E-35
   4.420000     -2.2837460E-35
   4.430000     -2.5860411E-35
   4.440000     -2.9013080E-35
   4.450000     -3.2616717E-35
   4.460000     -3.6594944E-35
   4.470000     -4.0773313E-35
   4.480000     -4.4891291E-35
   4.490000     -4.8762410E-35
   4.500000     -5.2402878E-35
   4.510000     -5.5986655E-35
   4.520000     -5.9883706E-35
   4.530000     -6.4351881E-35
   4.540000     -6.9429047E-35
   4.550000     -7.4501828E-35
   4.560000     -7.9127840E-35
   4.570000     -8.3118792E-35
   4.580000     -8.6445734E-35
   4.590000     -8.9288330E-35
   4.600000     -9.1550599E-35
   4.610000     -9.3247983E-35
   4.620000     -9.4073929E-35
   4.630000     -9.3639541E-35
   4.640000     -9.2336126E-35
   4.650000     -9.0645641E-35
   4.660000     -8.8610124E-35
   4.670000     -8.5884860E-35
   4.680000     -8.2257266E-35
   4.690000     -7.7914567E-35
   4.700000     -7.2877855E-35
   4.710000     -6.7051323E-35
   4.720000     -6.0549835E-35
   4.730000     -5.3162432E-35
   4.740000     -4.5020369E-35
   4.750000     -3.6184632E-35
   4.760000     -2.5585315E-35
   4.770000     -1.2444208E-35
   4.780000      2.4073188E-36
   4.790000      1.8696760E-35
   4.800000      3.6304308E-35
   4.810000      5.4575901E-35
   4.820000      7.3187753E-35
   4.830000      9.0861305E-35
   4.840000      1.0668082E-34
   4.850000      1.2005993E-34
   4.860000      1.3215085E-34
   4.870000      1.4505172E-34
   4.880000      1.5885299E-34
   4.890000      1.7430345E-34
   4.900000      1.9319181E-34
   4.910000      2.1728120E-34
   4.920000      2.4707064E-34
   4.930000      2.7903265E-34
   4.940000      3.1182536E-34
   4.950000      3.4280085E-34
   4.960000      3.6910676E-34
   4.970000      3.9371640E-34
   4.980000      4.1861696E-34
   4.990000      4.4253138E-34
   5.000000      4.6477164E-34
   5.010000      4.8571918E-34
   5.020000      5.0493833E-34
   5.030000      5.2284685E-34
   5.040000      5.3957243E-34
   5.050000      5.5604924E-34
   5.060000      5.7169598E-34
   5.070000      5.8543476E-34
   5.080000      5.9530335E-34
   5.090000      5.9768176E-34
   5.100000      5.9315211E-34
   5.110000      5.8381267E-34
   5.120000      5.6711670E-34
   5.130000      5.4090097E-34
   5.140000      5.0775869E-34
   5.150000      4.7083191E-34
   5.160000      4.3086175E-34
   5.170000      3.8463674E-34
   5.180000      3.3307421E-34
   5.190000      2.8070936E-34
   5.200000      2.2986888E-34
   5.210000      1.7975287E-34
   5.220000      1.2754553E-34
   5.230000      7.1860702E-35
   5.240000      1.3890846E-35
   5.250000     -4.3483772E-35
   5.260000     -1.0405941E-34
   5.270000     -1.7061528E-34
   5.280000     -2.4165333E-34
   5.290000     -3.2189997E-34
   5.300000     -4.1100297E-34
   5.310000     -5.0508765E-34
   5.320000     -6.0755237E-34
   5.330000     -7.1799695E-34
   5.340000     -8.3453615E-34
   5.350000     -9.5816767E-34
   5.360000     -1.0900431E-33
   5.370000     -1.2298062E-33
   5.380000     -1.3754422E-33
   5.390000     -1.5258605E-33
   5.400000     -1.6814365E-33
   5.410000     -1.8428069E-33
   5.420000     -2.0080616E-33
   5.430000     -2.1748776E-33
   5.440000     -2.3424188E-33
   5.450000     -2.5095048E-33
   5.460000     -2.6726223E-33
   5.470000     -2.8307340E-33
   5.480000     -2.9855009E-33
   5.490000     -3.1369878E-33
   5.500000     -3.2833247E-33
   5.510000     -3.4203576E-33
   5.520000     -3.5445783E-33
   5.530000     -3.6561654E-33
   5.540000     -3.7540378E-33
   5.550000     -3.8366380E-33
   5.560000     -3.9040750E-33
   5.570000     -3.9550705E-33
   5.580000     -3.9873393E-33
   5.590000     -4.0011370E-33
   5.600000     -3.9966841E-33
   5.610000     -3.9735772E-33
   5.620000     -3.9297797E-33
   5.630000     -3.8630227E-33
   5.640000     -3.7760005E-33
   5.650000     -3.6651451E-33
   5.660000     -3.5283051E-33
   5.670000     -3.3658554E-33
   5.680000     -3.1747182E-33
   5.690000     -2.9578202E-33
   5.700000     -2.7153056E-33
   5.710000     -2.4443981E-33
   5.720000     -2.1444367E-33
   5.730000     -1.8125311E-33
   5.740000     -1.4476173E-33
   5.750000     -1.0481965E-33
   5.760000     -6.1180463E-34
   5.770000     -1.3761267E-34
   5.780000      3.7416927E-34
   5.790000      9.2282726E-34
   5.800000      1.5126154E-33
   5.810000      2.1464863E-33
   5.820000      2.8220912E-33
   5.830000      3.5391251E-33
   5.840000      4.2996421E-33
   5.850000      5.1035329E-33
   5.860000      5.9495145E-33
   5.870000      6.8348891E-33
   5.880000      7.7584743E-33
   5.890000      8.7194718E-33
   5.900000      9.7148187E-33
   5.910000      1.0741783E-32
   5.920000      1.1797148E-32
   5.930000      1.2877618E-32
   5.940000      1.3979499E-32
   5.950000      1.5098775E-32
   5.960000      1.6230962E-32
   5.970000      1.7371350E-32
   5.980000      1.8514421E-32
   5.990000      1.9655494E-32
   6.000000      2.0790844E-32
   6.010000      2.1915640E-32
   6.020000      2.3021976E-32
   6.030000      2.4103137E-32
   6.040000      2.5154027E-32
   6.050000      2.6167345E-32
   6.060000      2.7136851E-32
   6.070000      2.8056255E-32
   6.080000      2.8918375E-32
   6.090000      2.9716391E-32
   6.100000      3.0442609E-32
   6.110000      3.1089654E-32
   6.120000      3.1648172E-32
   6.130000      3.2107805E-32
   6.140000      3.2459754E-32
   6.150000      3.2694071E-32
   6.160000      3.2801144E-32
   6.170000      3.2769306E-32
   6.180000      3.2587586E-32
   6.190000      3.2247242E-32
   6.200000      3.1737657E-32
   6.210000      3.1047098E-32
   6.220000      3.0163361E-32
   6.230000      2.9075950E-32
   6.240000      2.7775048E-32
   6.250000      2.6248545E-32
   6.260000      2.4484993E-32
   6.270000      2.2474137E-32
   6.280000      2.0205631E-32
   6.290000      1.7669645E-32
   6.300000      1.4856844E-32
   6.310000      1.1758622E-32
   6.320000      8.3671034E-33
   6.330000      4.6752547E-33
   6.340000      6.7698561E-34
   6.350000     -3.6328017E-33
   6.360000     -8.2581277E-33
   6.370000     -1.3201868E-32
   6.380000     -1.8465747E-32
   6.390000     -2.4049959E-32
   6.400000     -2.9953350E-32
   6.410000     -3.6173635E-32
   6.420000     -4.2706947E-32
   6.430000     -4.9547933E-32
   6.440000     -5.6689655E-32
   6.450000     -6.4123399E-32
   6.460000     -7.1839021E-32
   6.470000     -7.9824495E-32
   6.480000     -8.8065756E-32
   6.490000     -9.6547030E-32
   6.500000     -1.0525048E-31
   6.510000     -1.1415617E-31
   6.520000     -1.2324205E-31
   6.530000     -1.3248383E-31
   6.540000     -1.4185470E-31
   6.550000     -1.5132522E-31
   6.560000     -1.6086407E-31
   6.570000     -1.7043719E-31
   6.580000     -1.8000713E-31
   6.590000     -1.8953395E-31
   6.600000     -1.9897480E-31
   6.610000     -2.0828373E-31
   6.620000     -2.1741208E-31
   6.630000     -2.2630822E-31
   6.640000     -2.3491697E-31
   6.650000     -2.4318039E-31
   6.660000     -2.5103761E-31
   6.670000     -2.5842423E-31
   6.680000     -2.6527539E-31
   6.690000     -2.7152006E-31
   6.700000     -2.7708452E-31
   6.710000     -2.8189584E-31
   6.720000     -2.8587663E-31
   6.730000     -2.8894784E-31
   6.740000     -2.9102842E-31
   6.750000     -2.9203577E-31
   6.760000     -2.9188578E-31
   6.770000     -2.9049320E-31
   6.780000     -2.8777195E-31
   6.790000     -2.8363501E-31
   6.800000     -2.7799506E-31
   6.810000     -2.7076464E-31
   6.820000     -2.6185665E-31
   6.830000     -2.5118431E-31
   6.840000     -2.3866146E-31
   6.850000     -2.2420317E-31
   6.860000     -2.0772593E-31
   6.870000     -1.8914813E-31
   6.880000     -1.6839015E-31
   6.890000     -1.4537509E-31
   6.900000     -1.2002906E-31
   6.910000     -9.2281749E-32
   6.920000     -6.2066960E-32
   6.930000     -2.9323133E-32
   6.940000      6.0059786E-33
   6.950000      4.3970650E-32
   6.960000      8.4614446E-32
   6.970000      1.2797348E-31
   6.980000      1.7407562E-31
   6.990000      2.2293963E-31
   7.000000      2.7457432E-31
   7.010000      3.2897754E-31
   7.020000      3.8613532E-31
   7.030000      4.4602102E-31
   7.040000      5.0859428E-31
   7.050000      5.7380003E-31
   7.060000      6.4156756E-31