  -2.600000      0.0000000E+00
  -2.590000      0.0000000E+00
  -2.580000      0.0000000E+00
  -2.570000      0.0000000E+00
  -2.560000      0.0000000E+00
  -2.550000      0.0000000E+00
  -2.540000      0.0000000E+00
  -2.530000      0.0000000E+00
  -2.520000      0.0000000E+00
  -2.510000      0.0000000E+00
  -2.500000      0.0000000E+00
  -2.490000      0.0000000E+00
  -2.480000      0.0000000E+00
  -2.470000      0.0000000E+00
  -2.460000      0.0000000E+00
  -2.450000      0.0000000E+00
  -2.440000      0.0000000E+00
  -2.430000      0.0000000E+00
  -2.420000      0.0000000E+00
  -2.410000      0.0000000E+00
  -2.400000      0.0000000E+00
  -2.390000      0.0000000E+00
  -2.380000      0.0000000E+00
  -2.370000      0.0000000E+00
  -2.360000      0.0000000E+00
  -2.350000      0.0000000E+00
  -2.340000      0.0000000E+00
  -2.330000      0.0000000E+00
  -2.320000      0.0000000E+00
  -2.310000      0.0000000E+00
  -2.300000      0.0000000E+00
  -2.290000      0.0000000E+00
  -2.280000      0.0000000E+00
  -2.270000      0.0000000E+00
  -2.260000      0.0000000E+00
  -2.250000      0.0000000E+00
  -2.240000      0.0000000E+00
  -2.230000      0.0000000E+00
  -2.220000      0.0000000E+00
  -2.210000      0.0000000E+00
  -2.200000      0.0000000E+00
  -2.190000      0.0000000E+00
  -2.180000      0.0000000E+00
  -2.170000      0.0000000E+00
  -2.160000      0.0000000E+00
  -2.150000      0.0000000E+00
  -2.140000      0.0000000E+00
  -2.130000      0.0000000E+00
  -2.120000      0.0000000E+00
  -2.110000      0.0000000E+00
  -2.100000      0.0000000E+00
  -2.090000      0.0000000E+00
  -2.080000      0.0000000E+00
  -2.070000      0.0000000E+00
  -2.060000      0.0000000E+00
  -2.050000      0.0000000E+00
  -2.040000      0.0000000E+00
  -2.030000      0.0000000E+00
  -2.020000      0.0000000E+00
  -2.010000      0.0000000E+00
  -2.000000      0.0000000E+00
  -1.990000      0.0000000E+00
  -1.980000      0.0000000E+00
  -1.970000      0.0000000E+00
  -1.960000      0.0000000E+00
  -1.950000      0.0000000E+00
  -1.940000      0.0000000E+00
  -1.930000      0.0000000E+00
  -1.920000      0.0000000E+00
  -1.910000      0.0000000E+00
  -1.900000      0.0000000E+00
  -1.890000      0.0000000E+00
  -1.880000      0.0000000E+00
  -1.870000      0.0000000E+00
  -1.860000      0.0000000E+00
  -1.850000      0.0000000E+00
  -1.840000      0.0000000E+00
  -1.830000      0.0000000E+00
  -1.820000      0.0000000E+00
  -1.810000      0.0000000E+00
  -1.800000      0.0000000E+00
  -1.790000      0.0000000E+00
  -1.780000      0.0000000E+00
  -1.770000      0.0000000E+00
  -1.760000      0.0000000E+00
  -1.750000      0.0000000E+00
  -1.740000      0.0000000E+00
  -1.730000      0.0000000E+00
  -1.720000      0.0000000E+00
  -1.710000      0.0000000E+00
  -1.700000      0.0000000E+00
  -1.690000      0.0000000E+00
  -1.680000      0.0000000E+00
  -1.670000      0.0000000E+00
  -1.660000      0.0000000E+00
  -1.650000      0.0000000E+00
  -1.640000      0.0000000E+00
  -1.630000      0.0000000E+00
  -1.620000      0.0000000E+00
  -1.610000      0.0000000E+00
  -1.600000      0.0000000E+00
  -1.590000      0.0000000E+00
  -1.580000      0.0000000E+00
  -1.570000      1.3556488E-38
  -1.560000      2.6103391E-38
  -1.550000      3.9659479E-38
  -1.540000      5.2925322E-38
  -1.530000      6.7127790E-38
  -1.520000      7.7673537E-38
  -1.510000      6.6888191E-38
  -1.500000      2.9364372E-38
  -1.490000     -2.6793973E-38
  -1.480000     -7.6943303E-38
  -1.470000     -1.1976484E-37
  -1.460000     -1.4999493E-37
  -1.450000     -1.8259596E-37
  -1.440000     -2.3405294E-37
  -1.430000     -1.9305880E-37
  -1.420000     -9.4067428E-38
  -1.410000      5.6086792E-38
  -1.400000      2.8825934E-37
  -1.390000      5.8652296E-37
  -1.380000      9.1307227E-37
  -1.370000      1.2357032E-36
  -1.360000      1.8498542E-36
  -1.350000      2.8549620E-36
  -1.340000      4.5302318E-36
  -1.330000      7.1736085E-36
  -1.320000      1.1247657E-35
  -1.310000      1.7358665E-35
  -1.300000      2.5218331E-35
  -1.290000      3.5105969E-35
  -1.280000      4.8800774E-35
  -1.270000      6.6633448E-35
  -1.260000      8.7834918E-35
  -1.250000      1.1323925E-34
  -1.240000      1.4154418E-34
  -1.230000      1.7434752E-34
  -1.220000      2.1506886E-34
  -1.210000      2.6419343E-34
  -1.200000      3.2152813E-34
  -1.190000      3.8882708E-34
  -1.180000      4.7990755E-34
  -1.170000      6.0003357E-34
  -1.160000      7.4533032E-34
  -1.150000      9.2526742E-34
  -1.140000      1.1455373E-33
  -1.130000      1.4067700E-33
  -1.120000      1.7113513E-33
  -1.110000      2.0650109E-33
  -1.100000      2.4774570E-33
  -1.090000      2.9575282E-33
  -1.080000      3.5147285E-33
  -1.070000      4.1609267E-33
  -1.060000      4.9099337E-33
  -1.050000      5.7765501E-33
  -1.040000      6.7781003E-33
  -1.030000      7.9338830E-33
  -1.020000      9.2656961E-33
  -1.010000      1.0798229E-32
  -1.000000      1.2559264E-32
 -0.9900000      1.4580112E-32
 -0.9800000      1.6896009E-32
 -0.9700000      1.9546620E-32
 -0.9600000      2.2576356E-32
 -0.9500000      2.6034875E-32
 -0.9400000      2.9977830E-32
 -0.9300000      3.4467343E-32
 -0.9200000      3.9572682E-32
 -0.9100000      4.5370876E-32
 -0.9000000      5.1947393E-32
 -0.8900000      5.9396889E-32
 -0.8800000      6.7823855E-32
 -0.8700000      7.7343443E-32
 -0.8600000      8.8082619E-32
 -0.8500000      1.0018037E-31
 -0.8400000      1.1378884E-31
 -0.8300000      1.2907557E-31
 -0.8200000      1.4622326E-31
 -0.8100000      1.6543155E-31
 -0.8000000      1.8691933E-31
 -0.7900000      2.1092551E-31
 -0.7800000      2.3771150E-31
 -0.7700000      2.6756327E-31
 -0.7600000      3.0079337E-31
 -0.7500000      3.3774431E-31
 -0.7400000      3.7879170E-31
 -0.7300000      4.2434664E-31
 -0.7200000      4.7485989E-31
 -0.7100000      5.3082555E-31
 -0.7000000      5.9278487E-31
 -0.6900000      6.6133044E-31
 -0.6800000      7.3711033E-31
 -0.6700000      8.2083238E-31
 -0.6600000      9.1326855E-31
 -0.6500000      1.0152592E-30
 -0.6400000      1.1277177E-30
 -0.6300000      1.2516340E-30
 -0.6200000      1.3880800E-30
 -0.6100000      1.5382131E-30
 -0.6000000      1.7032815E-30
 -0.5900000      1.8846291E-30
 -0.5800000      2.0837003E-30
 -0.5700000      2.3020468E-30
 -0.5600000      2.5413340E-30
 -0.5500000      2.8033488E-30
 -0.5400000      3.0900090E-30
 -0.5300000      3.4033736E-30
 -0.5200000      3.7456546E-30
 -0.5100000      4.1192294E-30
 -0.5000000      4.5266580E-30
 -0.4900000      4.9706977E-30
 -0.4800000      5.4543224E-30
 -0.4700000      5.9807411E-30
 -0.4600000      6.5534198E-30
 -0.4500000      7.1761022E-30
 -0.4400000      7.8528304E-30
 -0.4300000      8.5879676E-30
 -0.4200000      9.3862227E-30
 -0.4100000      1.0252665E-29
 -0.4000000      1.1192752E-29
 -0.3900000      1.2212341E-29
 -0.3800000      1.3317712E-29
 -0.3700000      1.4515584E-29
 -0.3600000      1.5813132E-29
 -0.3500000      1.7218003E-29
 -0.3400000      1.8738332E-29
 -0.3300000      2.0382764E-29
 -0.3200000      2.2160469E-29
 -0.3100000      2.4081175E-29
 -0.3000000      2.6155194E-29
 -0.2900000      2.8393450E-29
 -0.2800000      3.0807533E-29
 -0.2700000      3.3409748E-29
 -0.2600000      3.6213152E-29
 -0.2500000      3.9231656E-29
 -0.2400000      4.2480068E-29
 -0.2300000      4.5974187E-29
 -0.2200000      4.9730894E-29
 -0.2100000      5.3768239E-29
 -0.2000000      5.8105535E-29
 -0.1900000      6.2763475E-29
 -0.1800000      6.7764182E-29
 -0.1700000      7.3131346E-29
 -0.1600000      7.8890285E-29
 -0.1500000      8.5068019E-29
 -0.1400000      9.1693338E-29
 -0.1300000      9.8796884E-29
 -0.1200000      1.0641116E-28
 -0.1100000      1.1457058E-28
 -0.1000000      1.2331152E-28
 -9.0000004E-02  1.3267234E-28
 -7.9999998E-02  1.4269341E-28
 -7.0000000E-02  1.5341718E-28
 -5.9999999E-02  1.6488819E-28
 -5.0000001E-02  1.7715319E-28
 -3.9999999E-02  1.9026121E-28
 -2.9999999E-02  2.0426372E-28
 -2.0000000E-02  2.1921474E-28
 -9.9999998E-03  2.3517116E-28
 -3.4694470E-17  2.5219287E-28
  9.9999998E-03  2.7034308E-28
  2.0000000E-02  2.8968866E-28
  2.9999999E-02  3.1030037E-28
  3.9999999E-02  3.3225339E-28
  5.0000001E-02  3.5562759E-28
  5.9999999E-02  3.8050783E-28
  7.0000000E-02  4.0698448E-28
  7.9999998E-02  4.3515352E-28
  9.0000004E-02  4.6511704E-28
  0.1000000      4.9698333E-28
  0.1100000      5.3086709E-28
  0.1200000      5.6688953E-28
  0.1300000      6.0517837E-28
  0.1400000      6.4586797E-28
  0.1500000      6.8909913E-28
  0.1600000      7.3501913E-28
  0.1700000      7.8378170E-28
  0.1800000      8.3554680E-28
  0.1900000      8.9048048E-28
  0.2000000      9.4875556E-28
  0.2100000      1.0105510E-27
  0.2200000      1.0760529E-27
  0.2300000      1.1454542E-27
  0.2400000      1.2189563E-27
  0.2500000      1.2967686E-27
  0.2600000      1.3791107E-27
  0.2700000      1.4662123E-27
  0.2800000      1.5583155E-27
  0.2900000      1.6556748E-27
  0.3000000      1.7585599E-27
  0.3100000      1.8672555E-27
  0.3200000      1.9820631E-27
  0.3300000      2.1033023E-27
  0.3400000      2.2313110E-27
  0.3500000      2.3664464E-27
  0.3600000      2.5090850E-27
  0.3700000      2.6596230E-27
  0.3800000      2.8184752E-27
  0.3900000      2.9860754E-27
  0.4000000      3.1628741E-27
  0.4100000      3.3493385E-27
  0.4200000      3.5459525E-27
  0.4300000      3.7532118E-27
  0.4400000      3.9716281E-27
  0.4500000      4.2017243E-27
  0.4600000      4.4440360E-27
  0.4700000      4.6991123E-27
  0.4800000      4.9675153E-27
  0.4900000      5.2498223E-27
  0.5000000      5.5466282E-27
  0.5100000      5.8585483E-27
  0.5200000      6.1862206E-27
  0.5300000      6.5303115E-27
  0.5400000      6.8915174E-27
  0.5500000      7.2705727E-27
  0.5600000      7.6682495E-27
  0.5700000      8.0853636E-27
  0.5800000      8.5227785E-27
  0.5900000      8.9814056E-27
  0.6000000      9.4622048E-27
  0.6100000      9.9661890E-27
  0.6200000      1.0494415E-26
  0.6300000      1.1047988E-26
  0.6400000      1.1628050E-26
  0.6500000      1.2235783E-26
  0.6600000      1.2872397E-26
  0.6700000      1.3539121E-26
  0.6800000      1.4237206E-26
  0.6900000      1.4967912E-26
  0.7000000      1.5732504E-26
  0.7100000      1.6532247E-26
  0.7200000      1.7368412E-26
  0.7300000      1.8242264E-26
  0.7400000      1.9155071E-26
  0.7500000      2.0108117E-26
  0.7600000      2.1102693E-26
  0.7700000      2.2140124E-26
  0.7800000      2.3221769E-26
  0.7900000      2.4349042E-26
  0.8000000      2.5523422E-26
  0.8100000      2.6746468E-26
  0.8200000      2.8019822E-26
  0.8300000      2.9345234E-26
  0.8400000      3.0724555E-26
  0.8500000      3.2159733E-26
  0.8600000      3.3652831E-26
  0.8700000      3.5205999E-26
  0.8800000      3.6821476E-26
  0.8900000      3.8501549E-26
  0.9000000      4.0248562E-26
  0.9100000      4.2064849E-26
  0.9200000      4.3952744E-26
  0.9300000      4.5914524E-26
  0.9400000      4.7952402E-26
  0.9500000      5.0068484E-26
  0.9600000      5.2264765E-26
  0.9700000      5.4543100E-26
  0.9800000      5.6905221E-26
  0.9900000      5.9352730E-26
   1.000000      6.1887093E-26
   1.010000      6.4509704E-26
   1.020000      6.7221876E-26
   1.030000      7.0024902E-26
   1.040000      7.2920108E-26
   1.050000      7.5908868E-26
   1.060000      7.8992673E-26
   1.070000      8.2173157E-26
   1.080000      8.5452143E-26
   1.090000      8.8831636E-26
   1.100000      9.2313853E-26
   1.110000      9.5901210E-26
   1.120000      9.9596290E-26
   1.130000      1.0340177E-25
   1.140000      1.0732037E-25
   1.150000      1.1135482E-25
   1.160000      1.1550766E-25
   1.170000      1.1978126E-25
   1.180000      1.2417760E-25
   1.190000      1.2869824E-25
   1.200000      1.3334423E-25
   1.210000      1.3811600E-25
   1.220000      1.4301331E-25
   1.230000      1.4803526E-25
   1.240000      1.5318026E-25
   1.250000      1.5844613E-25
   1.260000      1.6383008E-25
   1.270000      1.6932891E-25
   1.280000      1.7493909E-25
   1.290000      1.8065692E-25
   1.300000      1.8647876E-25
   1.310000      1.9240102E-25
   1.320000      1.9842048E-25
   1.330000      2.0453433E-25
   1.340000      2.1074027E-25
   1.350000      2.1703659E-25
   1.360000      2.2342212E-25
   1.370000      2.2989613E-25
   1.380000      2.3645827E-25
   1.390000      2.4310824E-25
   1.400000      2.4984576E-25
   1.410000      2.5667002E-25
   1.420000      2.6357956E-25
   1.430000      2.7057187E-25
   1.440000      2.7764300E-25
   1.450000      2.8478739E-25
   1.460000      2.9199755E-25
   1.470000      2.9926390E-25
   1.480000      3.0657467E-25
   1.490000      3.1391598E-25
   1.500000      3.2127194E-25
   1.510000      3.2862491E-25
   1.520000      3.3595584E-25
   1.530000      3.4324477E-25
   1.540000      3.5047123E-25
   1.550000      3.5761493E-25
   1.560000      3.6465625E-25
   1.570000      3.7157678E-25
   1.580000      3.7835983E-25
   1.590000      3.8499075E-25
   1.600000      3.9145706E-25
   1.610000      3.9774875E-25
   1.620000      4.0385796E-25
   1.630000      4.0977858E-25
   1.640000      4.1550596E-25
   1.650000      4.2103592E-25
   1.660000      4.2636418E-25
   1.670000      4.3148522E-25
   1.680000      4.3639125E-25
   1.690000      4.4107141E-25
   1.700000      4.4551068E-25
   1.710000      4.4968907E-25
   1.720000      4.5358122E-25
   1.730000      4.5715609E-25
   1.740000      4.6037686E-25
   1.750000      4.6320128E-25
   1.760000      4.6558275E-25
   1.770000      4.6747089E-25
   1.780000      4.6881328E-25
   1.790000      4.6955678E-25
   1.800000      4.6964952E-25
   1.810000      4.6904249E-25
   1.820000      4.6769127E-25
   1.830000      4.6555790E-25
   1.840000      4.6261175E-25
   1.850000      4.5883064E-25
   1.860000      4.5420111E-25
   1.870000      4.4871818E-25
   1.880000      4.4238472E-25
   1.890000      4.3520983E-25
   1.900000      4.2720693E-25
   1.910000      4.1839131E-25
   1.920000      4.0877747E-25
   1.930000      3.9837584E-25
   1.940000      3.8718994E-25
   1.950000      3.7521331E-25
   1.960000      3.6242713E-25
   1.970000      3.4879830E-25
   1.980000      3.3427828E-25
   1.990000      3.1880273E-25
   2.000000      3.0229239E-25
   2.010000      2.8465486E-25
   2.020000      2.6578731E-25
   2.030000      2.4558024E-25
   2.040000      2.2392184E-25
   2.050000      2.0070325E-25
   2.060000      1.7582364E-25
   2.070000      1.4919546E-25
   2.080000      1.2074927E-25
   2.090000      9.0437812E-26
   2.100000      5.8238889E-26
   2.110000      2.4156811E-26
   2.120000     -1.1777743E-26
   2.130000     -4.9509496E-26
   2.140000     -8.8961878E-26
   2.150000     -1.3004241E-25
   2.160000     -1.7264968E-25
   2.170000     -2.1668106E-25
   2.180000     -2.6204155E-25
   2.190000     -3.0865265E-25
   2.200000     -3.5646095E-25
   2.210000     -4.0544606E-25
   2.220000     -4.5562653E-25
   2.230000     -5.0706411E-25
   2.240000     -5.5986548E-25
   2.250000     -6.1418166E-25
   2.260000     -6.7020350E-25
   2.270000     -7.2815520E-25
   2.280000     -7.8828385E-25
   2.290000     -8.5084792E-25
   2.300000     -9.1610308E-25
   2.310000     -9.8428778E-25
   2.320000     -1.0556074E-24
   2.330000     -1.1302209E-24
   2.340000     -1.2082278E-24
   2.350000     -1.2896591E-24
   2.360000     -1.3744704E-24
   2.370000     -1.4625407E-24
   2.380000     -1.5536752E-24
   2.390000     -1.6476127E-24
   2.400000     -1.7440389E-24
   2.410000     -1.8426036E-24
   2.420000     -1.9429398E-24
   2.430000     -2.0446884E-24
   2.440000     -2.1475224E-24
   2.450000     -2.2511696E-24
   2.460000     -2.3554363E-24
   2.470000     -2.4602243E-24
   2.480000     -2.5655447E-24
   2.490000     -2.6715254E-24
   2.500000     -2.7784105E-24
   2.510000     -2.8865505E-24
   2.520000     -2.9963876E-24
   2.530000     -3.1084283E-24
   2.540000     -3.2232143E-24
   2.550000     -3.3412835E-24
   2.560000     -3.4631301E-24
   2.570000     -3.5891617E-24
   2.580000     -3.7196582E-24
   2.590000     -3.8547353E-24
   2.600000     -3.9943120E-24
   2.610000     -4.1380906E-24
   2.620000     -4.2855433E-24
   2.630000     -4.4359159E-24
   2.640000     -4.5882399E-24
   2.650000     -4.7413605E-24
   2.660000     -4.8939771E-24
   2.670000     -5.0446925E-24
   2.680000     -5.1920722E-24
   2.690000     -5.3347050E-24
   2.700000     -5.4712687E-24
   2.710000     -5.6005890E-24
   2.720000     -5.7216937E-24
   2.730000     -5.8338504E-24
   2.740000     -5.9365933E-24
   2.750000     -6.0297285E-24
   2.760000     -6.1133202E-24
   2.770000     -6.1876534E-24
   2.780000     -6.2531769E-24
   2.790000     -6.3104258E-24
   2.800000     -6.3599295E-24
   2.810000     -6.4021060E-24
   2.820000     -6.4371523E-24
   2.830000     -6.4649340E-24
   2.840000     -6.4848808E-24
   2.850000     -6.4958992E-24
   2.860000     -6.4963051E-24
   2.870000     -6.4837823E-24
   2.880000     -6.4553715E-24
   2.890000     -6.4074951E-24
   2.900000     -6.3360148E-24
   2.910000     -6.2363249E-24
   2.920000     -6.1034720E-24
   2.930000     -5.9323011E-24
   2.940000     -5.7176185E-24
   2.950000     -5.4543594E-24
   2.960000     -5.1377544E-24
   2.970000     -4.7634810E-24
   2.980000     -4.3277864E-24
   2.990000     -3.8275819E-24
   3.000000     -3.2604846E-24
   3.010000     -2.6248155E-24
   3.020000     -1.9195427E-24
   3.030000     -1.1441673E-24
   3.040000     -2.9855878E-25
   3.050000      6.1724998E-25
   3.060000      1.6033029E-24
   3.070000      2.6599847E-24
   3.080000      3.7882844E-24
   3.090000      4.9900560E-24
   3.100000      6.2682398E-24
   3.110000      7.6270449E-24
   3.120000      9.0720629E-24
   3.130000      1.0610316E-23
   3.140000      1.2250212E-23
   3.150000      1.4001418E-23
   3.160000      1.5874641E-23
   3.170000      1.7881339E-23
   3.180000      2.0033348E-23
   3.190000      2.2342470E-23
   3.200000      2.4820036E-23
   3.210000      2.7476442E-23
   3.220000      3.0320727E-23
   3.230000      3.3360189E-23
   3.240000      3.6600098E-23
   3.250000      4.0043479E-23
   3.260000      4.3691033E-23
   3.270000      4.7541157E-23
   3.280000      5.1590159E-23
   3.290000      5.5832508E-23
   3.300000      6.0261286E-23
   3.310000      6.4868714E-23
   3.320000      6.9646705E-23
   3.330000      7.4587499E-23
   3.340000      7.9684254E-23
   3.350000      8.4931586E-23
   3.360000      9.0326050E-23
   3.370000      9.5866448E-23
   3.380000      1.0155397E-22
   3.390000      1.0739217E-22
   3.400000      1.1338671E-22
   3.410000      1.1954494E-22
   3.420000      1.2587513E-22
   3.430000      1.3238577E-22
   3.440000      1.3908443E-22
   3.450000      1.4597680E-22
   3.460000      1.5306550E-22
   3.470000      1.6034898E-22
   3.480000      1.6782055E-22
   3.490000      1.7546747E-22
   3.500000      1.8327034E-22
   3.510000      1.9120272E-22
   3.520000      1.9923108E-22
   3.530000      2.0731498E-22
   3.540000      2.1540770E-22
   3.550000      2.2345708E-22
   3.560000      2.3140658E-22
   3.570000      2.3919674E-22
   3.580000      2.4676647E-22
   3.590000      2.5405459E-22
   3.600000      2.6100133E-22
   3.610000      2.6754938E-22
   3.620000      2.7364509E-22
   3.630000      2.7923899E-22
   3.640000      2.8428598E-22
   3.650000      2.8874520E-22
   3.660000      2.9257919E-22
   3.670000      2.9575264E-22
   3.680000      2.9823087E-22
   3.690000      2.9997773E-22
   3.700000      3.0095326E-22
   3.710000      3.0111129E-22
   3.720000      3.0039702E-22
   3.730000      2.9874465E-22
   3.740000      2.9607538E-22
   3.750000      2.9229586E-22
   3.760000      2.8729726E-22
   3.770000      2.8095484E-22
   3.780000      2.7312854E-22
   3.790000      2.6366410E-22
   3.800000      2.5239505E-22
   3.810000      2.3914522E-22
   3.820000      2.2373206E-22
   3.830000      2.0597012E-22
   3.840000      1.8567485E-22
   3.850000      1.6266648E-22
   3.860000      1.3677339E-22
   3.870000      1.0783533E-22
   3.880000      7.5705763E-23
   3.890000      4.0253461E-23
   3.900000      1.3630373E-24
   3.910000     -4.1065764E-23
   3.920000     -8.7119400E-23
   3.930000     -1.3687330E-22
   3.940000     -1.9039556E-22
   3.950000     -2.4775112E-22
   3.960000     -3.0900656E-22
   3.970000     -3.7423491E-22
   3.980000     -4.4352067E-22
   3.990000     -5.1696385E-22
   4.000000     -5.9468339E-22
   4.010000     -6.7681928E-22
   4.020000     -7.6353365E-22
   4.030000     -8.5500991E-22
   4.040000     -9.5144986E-22
   4.050000     -1.0530697E-21
   4.060000     -1.1600938E-21
   4.070000     -1.2727483E-21
   4.080000     -1.3912515E-21
   4.090000     -1.5158053E-21
   4.100000     -1.6465861E-21
   4.110000     -1.7837350E-21
   4.120000     -1.9273506E-21
   4.130000     -2.0774803E-21
   4.140000     -2.2341165E-21
   4.150000     -2.3971920E-21
   4.160000     -2.5665801E-21
   4.170000     -2.7420955E-21
   4.180000     -2.9234982E-21
   4.190000     -3.1105004E-21
   4.200000     -3.3027735E-21
   4.210000     -3.4999579E-21
   4.220000     -3.7016732E-21
   4.230000     -3.9075293E-21
   4.240000     -4.1171356E-21
   4.250000     -4.3301079E-21
   4.260000     -4.5460764E-21
   4.270000     -4.7646884E-21
   4.280000     -4.9856090E-21
   4.290000     -5.2085164E-21
   4.300000     -5.4330959E-21
   4.310000     -5.6590285E-21
   4.320000     -5.8859777E-21
   4.330000     -6.1135720E-21
   4.340000     -6.3413859E-21
   4.350000     -6.5689220E-21
   4.360000     -6.7955892E-21
   4.370000     -7.0206874E-21
   4.380000     -7.2433864E-21
   4.390000     -7.4627193E-21
   4.400000     -7.6775706E-21
   4.410000     -7.8866728E-21
   4.420000     -8.0886074E-21
   4.430000     -8.2818163E-21
   4.440000     -8.4646111E-21
   4.450000     -8.6351913E-21
   4.460000     -8.7916673E-21
   4.470000     -8.9320820E-21
   4.480000     -9.0544385E-21
   4.490000     -9.1567254E-21
   4.500000     -9.2369353E-21
   4.510000     -9.2930947E-21
   4.520000     -9.3232690E-21
   4.530000     -9.3255769E-21
   4.540000     -9.2981935E-21
   4.550000     -9.2393417E-21
   4.560000     -9.1472774E-21
   4.570000     -9.0202745E-21
   4.580000     -8.8565978E-21
   4.590000     -8.6544660E-21
   4.600000     -8.4120245E-21
   4.610000     -8.1273064E-21
   4.620000     -7.7982016E-21
   4.630000     -7.4224233E-21
   4.640000     -6.9974851E-21
   4.650000     -6.5206914E-21
   4.660000     -5.9891253E-21
   4.670000     -5.3996565E-21
   4.680000     -4.7489606E-21
   4.690000     -4.0335471E-21
   4.700000     -3.2498018E-21
   4.710000     -2.3940317E-21
   4.720000     -1.4625308E-21
   4.730000     -4.5163743E-22
   4.740000      6.4220003E-22
   4.750000      1.8223613E-21
   4.760000      3.0919937E-21
   4.770000      4.4539657E-21
   4.780000      5.9108311E-21
   4.790000      7.4647969E-21
   4.800000      9.1177146E-21
   4.810000      1.0871094E-20
   4.820000      1.2726116E-20
   4.830000      1.4683671E-20
   4.840000      1.6744409E-20
   4.850000      1.8908795E-20
   4.860000      2.1177166E-20
   4.870000      2.3549796E-20
   4.880000      2.6026944E-20
   4.890000      2.8608914E-20
   4.900000      3.1296072E-20
   4.910000      3.4088872E-20
   4.920000      3.6987850E-20
   4.930000      3.9993578E-20
   4.940000      4.3106614E-20
   4.950000      4.6327436E-20
   4.960000      4.9656331E-20
   4.970000      5.3093276E-20
   4.980000      5.6637832E-20
   4.990000      6.0288975E-20
   5.000000      6.4044982E-20
   5.010000      6.7903289E-20
   5.020000      7.1860379E-20
   5.030000      7.5911690E-20
   5.040000      8.0051561E-20
   5.050000      8.4273154E-20
   5.060000      8.8568503E-20
   5.070000      9.2928475E-20
   5.080000      9.7342899E-20
   5.090000      1.0180059E-19
   5.100000      1.0628951E-19
   5.110000      1.1079688E-19
   5.120000      1.1530930E-19
   5.130000      1.1981291E-19
   5.140000      1.2429350E-19
   5.150000      1.2873664E-19
   5.160000      1.3312770E-19
   5.170000      1.3745192E-19
   5.180000      1.4169441E-19
   5.190000      1.4584010E-19
   5.200000      1.4987359E-19
   5.210000      1.5377908E-19
   5.220000      1.5754015E-19
   5.230000      1.6113960E-19
   5.240000      1.6455917E-19
   5.250000      1.6777931E-19
   5.260000      1.7077904E-19
   5.270000      1.7353564E-19
   5.280000      1.7602459E-19
   5.290000      1.7821936E-19
   5.300000      1.8009144E-19
   5.310000      1.8161027E-19
   5.320000      1.8274342E-19
   5.330000      1.8345659E-19
   5.340000      1.8371398E-19
   5.350000      1.8347848E-19
   5.360000      1.8271201E-19
   5.370000      1.8137585E-19
   5.380000      1.7943100E-19
   5.390000      1.7683851E-19
   5.400000      1.7355990E-19
   5.410000      1.6955736E-19
   5.420000      1.6479391E-19
   5.430000      1.5923374E-19
   5.440000      1.5284212E-19
   5.450000      1.4558542E-19
   5.460000      1.3743098E-19
   5.470000      1.2834699E-19
   5.480000      1.1830216E-19
   5.490000      1.0726547E-19
   5.500000      9.5205794E-20
   5.510000      8.2091640E-20
   5.520000      6.7890784E-20
   5.530000      5.2570058E-20
   5.540000      3.6095225E-20
   5.550000      1.8430878E-20
   5.560000     -4.5949964E-22
   5.570000     -2.0613331E-20
   5.580000     -4.2068616E-20
   5.590000     -6.4863484E-20
   5.600000     -8.9035537E-20
   5.610000     -1.1462128E-19
   5.620000     -1.4165533E-19
   5.630000     -1.7016952E-19
   5.640000     -2.0019216E-19
   5.650000     -2.3174721E-19
   5.660000     -2.6485364E-19
   5.670000     -2.9952471E-19
   5.680000     -3.3576753E-19
   5.690000     -3.7358271E-19
   5.700000     -4.1296429E-19
   5.710000     -4.5389975E-19
   5.720000     -4.9636984E-19
   5.730000     -5.4034948E-19
   5.740000     -5.8580786E-19
   5.750000     -6.3270911E-19
   5.760000     -6.8101273E-19
   5.770000     -7.3067438E-19
   5.780000     -7.8164644E-19
   5.790000     -8.3387814E-19
   5.800000     -8.8731592E-19
   5.810000     -9.4190353E-19
   5.820000     -9.9758209E-19
   5.830000     -1.0542894E-18
   5.840000     -1.1119591E-18
   5.850000     -1.1705205E-18
   5.860000     -1.2298968E-18
   5.870000     -1.2900042E-18
   5.880000     -1.3507503E-18
   5.890000     -1.4120330E-18
   5.900000     -1.4737393E-18
   5.910000     -1.5357432E-18
   5.920000     -1.5979054E-18
   5.930000     -1.6600723E-18
   5.940000     -1.7220752E-18
   5.950000     -1.7837302E-18
   5.960000     -1.8448384E-18
   5.970000     -1.9051864E-18
   5.980000     -1.9645469E-18
   5.990000     -2.0226801E-18
   6.000000     -2.0793350E-18
   6.010000     -2.1342501E-18
   6.020000     -2.1871565E-18
   6.030000     -2.2377783E-18
   6.040000     -2.2858346E-18
   6.050000     -2.3310405E-18
   6.060000     -2.3731080E-18
   6.070000     -2.4117472E-18
   6.080000     -2.4466660E-18
   6.090000     -2.4775699E-18
   6.100000     -2.5041611E-18
   6.110000     -2.5261382E-18
   6.120000     -2.5431951E-18
   6.130000     -2.5550176E-18
   6.140000     -2.5612839E-18
   6.150000     -2.5616619E-18
   6.160000     -2.5558067E-18
   6.170000     -2.5433604E-18
   6.180000     -2.5239512E-18
   6.190000     -2.4971925E-18
   6.200000     -2.4626836E-18
   6.210000     -2.4200091E-18
   6.220000     -2.3687423E-18
   6.230000     -2.3084456E-18
   6.240000     -2.2386744E-18
   6.250000     -2.1589792E-18
   6.260000     -2.0689113E-18
   6.270000     -1.9680246E-18
   6.280000     -1.8558812E-18
   6.290000     -1.7320549E-18
   6.300000     -1.5961338E-18
   6.310000     -1.4477259E-18
   6.320000     -1.2864601E-18
   6.330000     -1.1119889E-18
   6.340000     -9.2398928E-19
   6.350000     -7.2216414E-19
   6.360000     -5.0624100E-19
   6.370000     -2.7597180E-19
   6.380000     -3.1131320E-20
   6.390000      2.2848538E-19
   6.400000      5.0306483E-19
   6.410000      7.9277703E-19
   6.420000      1.0977773E-18
   6.430000      1.4182080E-18
   6.440000      1.7541988E-18
   6.450000      2.1058668E-18
   6.460000      2.4733141E-18
   6.470000      2.8566273E-18
   6.480000      3.2558720E-18
   6.490000      3.6710892E-18
   6.500000      4.1022885E-18
   6.510000      4.5494429E-18
   6.520000      5.0124796E-18
   6.530000      5.4912749E-18
   6.540000      5.9856435E-18
   6.550000      6.4953348E-18
   6.560000      7.0200246E-18
   6.570000      7.5593091E-18
   6.580000      8.1127004E-18
   6.590000      8.6796277E-18
   6.600000      9.2594275E-18
   6.610000      9.8513522E-18
   6.620000      1.0454568E-17
   6.630000      1.1068156E-17
   6.640000      1.1691124E-17
   6.650000      1.2322400E-17
   6.660000      1.2960849E-17
   6.670000      1.3605271E-17
   6.680000      1.4254408E-17
   6.690000      1.4906949E-17
   6.700000      1.5561532E-17
   6.710000      1.6216747E-17
   6.720000      1.6871129E-17
   6.730000      1.7523169E-17
   6.740000      1.8171300E-17
   6.750000      1.8813889E-17
   6.760000      1.9449238E-17
   6.770000      2.0075569E-17
   6.780000      2.0691020E-17
   6.790000      2.1293629E-17
   6.800000      2.1881329E-17
   6.810000      2.2451943E-17
   6.820000      2.3003173E-17
   6.830000      2.3532595E-17
   6.840000      2.4037662E-17
   6.850000      2.4515703E-17
   6.860000      2.4963922E-17
   6.870000      2.5379412E-17
   6.880000      2.5759159E-17
   6.890000      2.6100061E-17
   6.900000      2.6398937E-17
   6.910000      2.6652544E-17
   6.920000      2.6857590E-17
   6.930000      2.7010757E-17
   6.940000      2.7108715E-17
   6.950000      2.7148134E-17
   6.960000      2.7125696E-17
   6.970000      2.7038104E-17
   6.980000      2.6882094E-17
   6.990000      2.6654433E-17
   7.000000      2.6351913E-17
   7.010000      2.5971365E-17
   7.020000      2.5509640E-17
   7.030000      2.4963606E-17
   7.040000      2.4330140E-17
   7.050000      2.3606120E-17
   7.060000      2.2788419E-17