  -2.600000      0.0000000E+00
  -2.590000      0.0000000E+00
  -2.580000      0.0000000E+00
  -2.570000      0.0000000E+00
  -2.560000      0.0000000E+00
  -2.550000      0.0000000E+00
  -2.540000      0.0000000E+00
  -2.530000      0.0000000E+00
  -2.520000      0.0000000E+00
  -2.510000      0.0000000E+00
  -2.500000      0.0000000E+00
  -2.490000      0.0000000E+00
  -2.480000      0.0000000E+00
  -2.470000      0.0000000E+00
  -2.460000      0.0000000E+00
  -2.450000      0.0000000E+00
  -2.440000      0.0000000E+00
  -2.430000      0.0000000E+00
  -2.420000      0.0000000E+00
  -2.410000      0.0000000E+00
  -2.400000      0.0000000E+00
  -2.390000      0.0000000E+00
  -2.380000      0.0000000E+00
  -2.370000      0.0000000E+00
  -2.360000      0.0000000E+00
  -2.350000      0.0000000E+00
  -2.340000      0.0000000E+00
  -2.330000      0.0000000E+00
  -2.320000      0.0000000E+00
  -2.310000      0.0000000E+00
  -2.300000      0.0000000E+00
  -2.290000      0.0000000E+00
  -2.280000      0.0000000E+00
  -2.270000      0.0000000E+00
  -2.260000      0.0000000E+00
  -2.250000      0.0000000E+00
  -2.240000      0.0000000E+00
  -2.230000      0.0000000E+00
  -2.220000      0.0000000E+00
  -2.210000      0.0000000E+00
  -2.200000      0.0000000E+00
  -2.190000      0.0000000E+00
  -2.180000      0.0000000E+00
  -2.170000      0.0000000E+00
  -2.160000      0.0000000E+00
  -2.150000      0.0000000E+00
  -2.140000      0.0000000E+00
  -2.130000      0.0000000E+00
  -2.120000      0.0000000E+00
  -2.110000      0.0000000E+00
  -2.100000      0.0000000E+00
  -2.090000      0.0000000E+00
  -2.080000      0.0000000E+00
  -2.070000      0.0000000E+00
  -2.060000      0.0000000E+00
  -2.050000      0.0000000E+00
  -2.040000      0.0000000E+00
  -2.030000      0.0000000E+00
  -2.020000      0.0000000E+00
  -2.010000      0.0000000E+00
  -2.000000      0.0000000E+00
  -1.990000      0.0000000E+00
  -1.980000      0.0000000E+00
  -1.970000      0.0000000E+00
  -1.960000      0.0000000E+00
  -1.950000      0.0000000E+00
  -1.940000      0.0000000E+00
  -1.930000      0.0000000E+00
  -1.920000      0.0000000E+00
  -1.910000      0.0000000E+00
  -1.900000      0.0000000E+00
  -1.890000      0.0000000E+00
  -1.880000      0.0000000E+00
  -1.870000      0.0000000E+00
  -1.860000      0.0000000E+00
  -1.850000      0.0000000E+00
  -1.840000      0.0000000E+00
  -1.830000      0.0000000E+00
  -1.820000      0.0000000E+00
  -1.810000      0.0000000E+00
  -1.800000      0.0000000E+00
  -1.790000      0.0000000E+00
  -1.780000      0.0000000E+00
  -1.770000      0.0000000E+00
  -1.760000      0.0000000E+00
  -1.750000      0.0000000E+00
  -1.740000      0.0000000E+00
  -1.730000      0.0000000E+00
  -1.720000      0.0000000E+00
  -1.710000      0.0000000E+00
  -1.700000      0.0000000E+00
  -1.690000      0.0000000E+00
  -1.680000      0.0000000E+00
  -1.670000      0.0000000E+00
  -1.660000      0.0000000E+00
  -1.650000      0.0000000E+00
  -1.640000      0.0000000E+00
  -1.630000      0.0000000E+00
  -1.620000      0.0000000E+00
  -1.610000      0.0000000E+00
  -1.600000      0.0000000E+00
  -1.590000      0.0000000E+00
  -1.580000      0.0000000E+00
  -1.570000      0.0000000E+00
  -1.560000      0.0000000E+00
  -1.550000      0.0000000E+00
  -1.540000      0.0000000E+00
  -1.530000      0.0000000E+00
  -1.520000      0.0000000E+00
  -1.510000      0.0000000E+00
  -1.500000      0.0000000E+00
  -1.490000      0.0000000E+00
  -1.480000      0.0000000E+00
  -1.470000      0.0000000E+00
  -1.460000      0.0000000E+00
  -1.450000      0.0000000E+00
  -1.440000      0.0000000E+00
  -1.430000      0.0000000E+00
  -1.420000      0.0000000E+00
  -1.410000      0.0000000E+00
  -1.400000      0.0000000E+00
  -1.390000      0.0000000E+00
  -1.380000      0.0000000E+00
  -1.370000      0.0000000E+00
  -1.360000      0.0000000E+00
  -1.350000      0.0000000E+00
  -1.340000      0.0000000E+00
  -1.330000      0.0000000E+00
  -1.320000      0.0000000E+00
  -1.310000      0.0000000E+00
  -1.300000      0.0000000E+00
  -1.290000      0.0000000E+00
  -1.280000      0.0000000E+00
  -1.270000      0.0000000E+00
  -1.260000      0.0000000E+00
  -1.250000      0.0000000E+00
  -1.240000      0.0000000E+00
  -1.230000      0.0000000E+00
  -1.220000      0.0000000E+00
  -1.210000      0.0000000E+00
  -1.200000      0.0000000E+00
  -1.190000      0.0000000E+00
  -1.180000      0.0000000E+00
  -1.170000      0.0000000E+00
  -1.160000      0.0000000E+00
  -1.150000      0.0000000E+00
  -1.140000      0.0000000E+00
  -1.130000      0.0000000E+00
  -1.120000      0.0000000E+00
  -1.110000      0.0000000E+00
  -1.100000      0.0000000E+00
  -1.090000      0.0000000E+00
  -1.080000      0.0000000E+00
  -1.070000      0.0000000E+00
  -1.060000      0.0000000E+00
  -1.050000      0.0000000E+00
  -1.040000      0.0000000E+00
  -1.030000      0.0000000E+00
  -1.020000      0.0000000E+00
  -1.010000      0.0000000E+00
  -1.000000      0.0000000E+00
 -0.9900000      0.0000000E+00
 -0.9800000      0.0000000E+00
 -0.9700000      0.0000000E+00
 -0.9600000      0.0000000E+00
 -0.9500000      0.0000000E+00
 -0.9400000      0.0000000E+00
 -0.9300000      0.0000000E+00
 -0.9200000      0.0000000E+00
 -0.9100000      0.0000000E+00
 -0.9000000      0.0000000E+00
 -0.8900000      0.0000000E+00
 -0.8800000      0.0000000E+00
 -0.8700000      0.0000000E+00
 -0.8600000      0.0000000E+00
 -0.8500000      0.0000000E+00
 -0.8400000      0.0000000E+00
 -0.8300000      0.0000000E+00
 -0.8200000      0.0000000E+00
 -0.8100000      0.0000000E+00
 -0.8000000      0.0000000E+00
 -0.7900000      0.0000000E+00
 -0.7800000      0.0000000E+00
 -0.7700000      0.0000000E+00
 -0.7600000      0.0000000E+00
 -0.7500000      0.0000000E+00
 -0.7400000      0.0000000E+00
 -0.7300000      0.0000000E+00
 -0.7200000      0.0000000E+00
 -0.7100000      0.0000000E+00
 -0.7000000      0.0000000E+00
 -0.6900000      0.0000000E+00
 -0.6800000      0.0000000E+00
 -0.6700000      0.0000000E+00
 -0.6600000      0.0000000E+00
 -0.6500000      0.0000000E+00
 -0.6400000      0.0000000E+00
 -0.6300000      0.0000000E+00
 -0.6200000      0.0000000E+00
 -0.6100000      0.0000000E+00
 -0.6000000      0.0000000E+00
 -0.5900000      0.0000000E+00
 -0.5800000      0.0000000E+00
 -0.5700000      0.0000000E+00
 -0.5600000      0.0000000E+00
 -0.5500000      0.0000000E+00
 -0.5400000      0.0000000E+00
 -0.5300000      0.0000000E+00
 -0.5200000      0.0000000E+00
 -0.5100000      0.0000000E+00
 -0.5000000      0.0000000E+00
 -0.4900000      0.0000000E+00
 -0.4800000      0.0000000E+00
 -0.4700000      0.0000000E+00
 -0.4600000      0.0000000E+00
 -0.4500000      0.0000000E+00
 -0.4400000      0.0000000E+00
 -0.4300000      0.0000000E+00
 -0.4200000      0.0000000E+00
 -0.4100000      0.0000000E+00
 -0.4000000      0.0000000E+00
 -0.3900000      0.0000000E+00
 -0.3800000      0.0000000E+00
 -0.3700000      0.0000000E+00
 -0.3600000      0.0000000E+00
 -0.3500000      0.0000000E+00
 -0.3400000      0.0000000E+00
 -0.3300000      0.0000000E+00
 -0.3200000      0.0000000E+00
 -0.3100000      0.0000000E+00
 -0.3000000      0.0000000E+00
 -0.2900000      0.0000000E+00
 -0.2800000      0.0000000E+00
 -0.2700000      0.0000000E+00
 -0.2600000      0.0000000E+00
 -0.2500000      0.0000000E+00
 -0.2400000      0.0000000E+00
 -0.2300000      0.0000000E+00
 -0.2200000      0.0000000E+00
 -0.2100000      0.0000000E+00
 -0.2000000      0.0000000E+00
 -0.1900000      0.0000000E+00
 -0.1800000      0.0000000E+00
 -0.1700000      0.0000000E+00
 -0.1600000      0.0000000E+00
 -0.1500000      0.0000000E+00
 -0.1400000      0.0000000E+00
 -0.1300000      0.0000000E+00
 -0.1200000      0.0000000E+00
 -0.1100000      0.0000000E+00
 -0.1000000      0.0000000E+00
 -9.0000004E-02  0.0000000E+00
 -7.9999998E-02  0.0000000E+00
 -7.0000000E-02  0.0000000E+00
 -5.9999999E-02  0.0000000E+00
 -5.0000001E-02  0.0000000E+00
 -3.9999999E-02  0.0000000E+00
 -2.9999999E-02  0.0000000E+00
 -2.0000000E-02  0.0000000E+00
 -9.9999998E-03  0.0000000E+00
 -3.4694470E-17  0.0000000E+00
  9.9999998E-03  0.0000000E+00
  2.0000000E-02  0.0000000E+00
  2.9999999E-02  0.0000000E+00
  3.9999999E-02  0.0000000E+00
  5.0000001E-02  0.0000000E+00
  5.9999999E-02  0.0000000E+00
  7.0000000E-02  0.0000000E+00
  7.9999998E-02  0.0000000E+00
  9.0000004E-02  0.0000000E+00
  0.1000000      0.0000000E+00
  0.1100000      0.0000000E+00
  0.1200000      0.0000000E+00
  0.1300000      0.0000000E+00
  0.1400000      0.0000000E+00
  0.1500000      0.0000000E+00
  0.1600000      0.0000000E+00
  0.1700000      0.0000000E+00
  0.1800000      0.0000000E+00
  0.1900000      0.0000000E+00
  0.2000000      0.0000000E+00
  0.2100000      0.0000000E+00
  0.2200000      0.0000000E+00
  0.2300000      0.0000000E+00
  0.2400000      0.0000000E+00
  0.2500000      0.0000000E+00
  0.2600000      0.0000000E+00
  0.2700000      0.0000000E+00
  0.2800000      0.0000000E+00
  0.2900000      0.0000000E+00
  0.3000000      0.0000000E+00
  0.3100000      0.0000000E+00
  0.3200000      0.0000000E+00
  0.3300000      0.0000000E+00
  0.3400000      0.0000000E+00
  0.3500000      0.0000000E+00
  0.3600000      0.0000000E+00
  0.3700000      0.0000000E+00
  0.3800000      0.0000000E+00
  0.3900000      0.0000000E+00
  0.4000000      0.0000000E+00
  0.4100000      0.0000000E+00
  0.4200000      0.0000000E+00
  0.4300000      0.0000000E+00
  0.4400000      0.0000000E+00
  0.4500000      0.0000000E+00
  0.4600000      0.0000000E+00
  0.4700000      0.0000000E+00
  0.4800000      0.0000000E+00
  0.4900000      0.0000000E+00
  0.5000000      0.0000000E+00
  0.5100000      0.0000000E+00
  0.5200000      0.0000000E+00
  0.5300000      0.0000000E+00
  0.5400000      0.0000000E+00
  0.5500000      0.0000000E+00
  0.5600000      0.0000000E+00
  0.5700000      0.0000000E+00
  0.5800000      0.0000000E+00
  0.5900000      0.0000000E+00
  0.6000000      0.0000000E+00
  0.6100000      0.0000000E+00
  0.6200000      0.0000000E+00
  0.6300000      0.0000000E+00
  0.6400000      0.0000000E+00
  0.6500000      0.0000000E+00
  0.6600000      0.0000000E+00
  0.6700000      0.0000000E+00
  0.6800000      0.0000000E+00
  0.6900000      0.0000000E+00
  0.7000000      0.0000000E+00
  0.7100000      0.0000000E+00
  0.7200000      0.0000000E+00
  0.7300000      0.0000000E+00
  0.7400000      0.0000000E+00
  0.7500000      0.0000000E+00
  0.7600000      0.0000000E+00
  0.7700000      0.0000000E+00
  0.7800000      0.0000000E+00
  0.7900000      0.0000000E+00
  0.8000000      0.0000000E+00
  0.8100000      0.0000000E+00
  0.8200000      0.0000000E+00
  0.8300000      0.0000000E+00
  0.8400000      0.0000000E+00
  0.8500000      0.0000000E+00
  0.8600000      0.0000000E+00
  0.8700000      0.0000000E+00
  0.8800000      0.0000000E+00
  0.8900000      0.0000000E+00
  0.9000000      0.0000000E+00
  0.9100000      0.0000000E+00
  0.9200000      0.0000000E+00
  0.9300000      0.0000000E+00
  0.9400000      0.0000000E+00
  0.9500000      0.0000000E+00
  0.9600000      0.0000000E+00
  0.9700000      0.0000000E+00
  0.9800000      0.0000000E+00
  0.9900000      0.0000000E+00
   1.000000      0.0000000E+00
   1.010000      0.0000000E+00
   1.020000      0.0000000E+00
   1.030000      0.0000000E+00
   1.040000      0.0000000E+00
   1.050000      0.0000000E+00
   1.060000      0.0000000E+00
   1.070000      0.0000000E+00
   1.080000      0.0000000E+00
   1.090000      0.0000000E+00
   1.100000      0.0000000E+00
   1.110000      0.0000000E+00
   1.120000      0.0000000E+00
   1.130000      0.0000000E+00
   1.140000      0.0000000E+00
   1.150000      0.0000000E+00
   1.160000      0.0000000E+00
   1.170000      0.0000000E+00
   1.180000      0.0000000E+00
   1.190000      0.0000000E+00
   1.200000      0.0000000E+00
   1.210000      0.0000000E+00
   1.220000      0.0000000E+00
   1.230000      0.0000000E+00
   1.240000      0.0000000E+00
   1.250000      0.0000000E+00
   1.260000      0.0000000E+00
   1.270000      0.0000000E+00
   1.280000      0.0000000E+00
   1.290000      0.0000000E+00
   1.300000      0.0000000E+00
   1.310000      0.0000000E+00
   1.320000      0.0000000E+00
   1.330000      0.0000000E+00
   1.340000      0.0000000E+00
   1.350000      0.0000000E+00
   1.360000      0.0000000E+00
   1.370000      0.0000000E+00
   1.380000      0.0000000E+00
   1.390000      0.0000000E+00
   1.400000      0.0000000E+00
   1.410000      0.0000000E+00
   1.420000      0.0000000E+00
   1.430000      0.0000000E+00
   1.440000      0.0000000E+00
   1.450000      0.0000000E+00
   1.460000      0.0000000E+00
   1.470000      0.0000000E+00
   1.480000      0.0000000E+00
   1.490000      0.0000000E+00
   1.500000      0.0000000E+00
   1.510000      0.0000000E+00
   1.520000      0.0000000E+00
   1.530000      0.0000000E+00
   1.540000      0.0000000E+00
   1.550000      0.0000000E+00
   1.560000      0.0000000E+00
   1.570000      0.0000000E+00
   1.580000      0.0000000E+00
   1.590000      0.0000000E+00
   1.600000      0.0000000E+00
   1.610000      0.0000000E+00
   1.620000      0.0000000E+00
   1.630000      0.0000000E+00
   1.640000      0.0000000E+00
   1.650000      0.0000000E+00
   1.660000      0.0000000E+00
   1.670000      0.0000000E+00
   1.680000      0.0000000E+00
   1.690000      0.0000000E+00
   1.700000      0.0000000E+00
   1.710000      0.0000000E+00
   1.720000      0.0000000E+00
   1.730000      0.0000000E+00
   1.740000      0.0000000E+00
   1.750000      0.0000000E+00
   1.760000      0.0000000E+00
   1.770000      0.0000000E+00
   1.780000      0.0000000E+00
   1.790000      0.0000000E+00
   1.800000      0.0000000E+00
   1.810000      0.0000000E+00
   1.820000      0.0000000E+00
   1.830000      0.0000000E+00
   1.840000      0.0000000E+00
   1.850000      0.0000000E+00
   1.860000      0.0000000E+00
   1.870000      0.0000000E+00
   1.880000      0.0000000E+00
   1.890000      0.0000000E+00
   1.900000      0.0000000E+00
   1.910000      0.0000000E+00
   1.920000      0.0000000E+00
   1.930000      0.0000000E+00
   1.940000      0.0000000E+00
   1.950000      0.0000000E+00
   1.960000      0.0000000E+00
   1.970000      0.0000000E+00
   1.980000      0.0000000E+00
   1.990000      0.0000000E+00
   2.000000      0.0000000E+00
   2.010000      0.0000000E+00
   2.020000      0.0000000E+00
   2.030000      0.0000000E+00
   2.040000      0.0000000E+00
   2.050000      0.0000000E+00
   2.060000      0.0000000E+00
   2.070000      0.0000000E+00
   2.080000      0.0000000E+00
   2.090000      0.0000000E+00
   2.100000      0.0000000E+00
   2.110000      0.0000000E+00
   2.120000      0.0000000E+00
   2.130000      0.0000000E+00
   2.140000      0.0000000E+00
   2.150000      0.0000000E+00
   2.160000      0.0000000E+00
   2.170000      0.0000000E+00
   2.180000      0.0000000E+00
   2.190000      0.0000000E+00
   2.200000      0.0000000E+00
   2.210000      0.0000000E+00
   2.220000      0.0000000E+00
   2.230000      0.0000000E+00
   2.240000      0.0000000E+00
   2.250000      0.0000000E+00
   2.260000      0.0000000E+00
   2.270000      0.0000000E+00
   2.280000      0.0000000E+00
   2.290000      0.0000000E+00
   2.300000      0.0000000E+00
   2.310000      0.0000000E+00
   2.320000      0.0000000E+00
   2.330000      0.0000000E+00
   2.340000      0.0000000E+00
   2.350000      0.0000000E+00
   2.360000      0.0000000E+00
   2.370000      0.0000000E+00
   2.380000      0.0000000E+00
   2.390000      0.0000000E+00
   2.400000      0.0000000E+00
   2.410000      0.0000000E+00
   2.420000      0.0000000E+00
   2.430000      0.0000000E+00
   2.440000      0.0000000E+00
   2.450000      0.0000000E+00
   2.460000      0.0000000E+00
   2.470000      0.0000000E+00
   2.480000      0.0000000E+00
   2.490000      0.0000000E+00
   2.500000      0.0000000E+00
   2.510000      0.0000000E+00
   2.520000      0.0000000E+00
   2.530000      0.0000000E+00
   2.540000      0.0000000E+00
   2.550000      0.0000000E+00
   2.560000      0.0000000E+00
   2.570000      0.0000000E+00
   2.580000      0.0000000E+00
   2.590000      0.0000000E+00
   2.600000      0.0000000E+00
   2.610000      0.0000000E+00
   2.620000      0.0000000E+00
   2.630000      0.0000000E+00
   2.640000      0.0000000E+00
   2.650000      0.0000000E+00
   2.660000      0.0000000E+00
   2.670000      0.0000000E+00
   2.680000      0.0000000E+00
   2.690000      0.0000000E+00
   2.700000      0.0000000E+00
   2.710000      0.0000000E+00
   2.720000      0.0000000E+00
   2.730000      0.0000000E+00
   2.740000      0.0000000E+00
   2.750000      0.0000000E+00
   2.760000      0.0000000E+00
   2.770000      0.0000000E+00
   2.780000      0.0000000E+00
   2.790000      0.0000000E+00
   2.800000      0.0000000E+00
   2.810000      0.0000000E+00
   2.820000      0.0000000E+00
   2.830000      0.0000000E+00
   2.840000      0.0000000E+00
   2.850000      0.0000000E+00
   2.860000      0.0000000E+00
   2.870000      0.0000000E+00
   2.880000      0.0000000E+00
   2.890000      0.0000000E+00
   2.900000      0.0000000E+00
   2.910000      0.0000000E+00
   2.920000      0.0000000E+00
   2.930000      0.0000000E+00
   2.940000      0.0000000E+00
   2.950000      0.0000000E+00
   2.960000      0.0000000E+00
   2.970000      0.0000000E+00
   2.980000      0.0000000E+00
   2.990000      0.0000000E+00
   3.000000      0.0000000E+00
   3.010000      0.0000000E+00
   3.020000      0.0000000E+00
   3.030000      0.0000000E+00
   3.040000      0.0000000E+00
   3.050000      0.0000000E+00
   3.060000      0.0000000E+00
   3.070000      0.0000000E+00
   3.080000      0.0000000E+00
   3.090000      0.0000000E+00
   3.100000      0.0000000E+00
   3.110000      0.0000000E+00
   3.120000      0.0000000E+00
   3.130000      0.0000000E+00
   3.140000      0.0000000E+00
   3.150000      0.0000000E+00
   3.160000      1.3442667E-38
   3.170000      1.4764423E-38
   3.180000      1.6397266E-38
   3.190000      1.8388134E-38
   3.200000      2.0595940E-38
   3.210000      2.2135981E-38
   3.220000      2.4398837E-38
   3.230000      2.8349930E-38
   3.240000      3.1772985E-38
   3.250000      3.2301866E-38
   3.260000      3.0386689E-38
   3.270000      2.8157820E-38
   3.280000      2.6868281E-38
   3.290000      2.6545803E-38
   3.300000      2.0973893E-38
   3.310000      0.0000000E+00
   3.320000     -1.6517866E-38
   3.330000     -4.3026595E-38
   3.340000     -7.2331938E-38
   3.350000     -1.0535733E-37
   3.360000     -1.3873684E-37
   3.370000     -1.7159155E-37
   3.380000     -1.9984902E-37
   3.390000     -2.2160780E-37
   3.400000     -2.4306645E-37
   3.410000     -2.6558144E-37
   3.420000     -2.8737553E-37
   3.430000     -3.0827656E-37
   3.440000     -3.2672951E-37
   3.450000     -3.4374078E-37
   3.460000     -3.6517531E-37
   3.470000     -3.9366604E-37
   3.480000     -4.3146397E-37
   3.490000     -4.7649497E-37
   3.500000     -5.2666056E-37
   3.510000     -5.8303505E-37
   3.520000     -6.4808485E-37
   3.530000     -7.2112994E-37
   3.540000     -8.0070365E-37
   3.550000     -8.8739967E-37
   3.560000     -9.8118156E-37
   3.570000     -1.0839765E-36
   3.580000     -1.1953106E-36
   3.590000     -1.3133193E-36
   3.600000     -1.4364857E-36
   3.610000     -1.5523148E-36
   3.620000     -1.6659537E-36
   3.630000     -1.7912594E-36
   3.640000     -1.9130616E-36
   3.650000     -2.0201226E-36
   3.660000     -2.1214701E-36
   3.670000     -2.2227293E-36
   3.680000     -2.3190680E-36
   3.690000     -2.4118668E-36
   3.700000     -2.5024190E-36
   3.710000     -2.5872732E-36
   3.720000     -2.6579797E-36
   3.730000     -2.7299890E-36
   3.740000     -2.8134380E-36
   3.750000     -2.9003501E-36
   3.760000     -2.9995529E-36
   3.770000     -3.1112912E-36
   3.780000     -3.2388726E-36
   3.790000     -3.3288172E-36
   3.800000     -3.3496796E-36
   3.810000     -3.3197452E-36
   3.820000     -3.2621783E-36
   3.830000     -3.1660251E-36
   3.840000     -2.8226648E-36
   3.850000     -2.2708262E-36
   3.860000     -1.7407409E-36
   3.870000     -1.4035251E-36
   3.880000     -9.4448368E-37
   3.890000     -1.8861231E-37
   3.900000      5.4696813E-37
   3.910000      1.2718518E-36
   3.920000      2.0260487E-36
   3.930000      2.9907587E-36
   3.940000      4.2127873E-36
   3.950000      5.4264985E-36
   3.960000      6.6174965E-36
   3.970000      7.6505347E-36
   3.980000      8.5648137E-36
   3.990000      9.3785580E-36
   4.000000      9.9346399E-36
   4.010000      1.0369211E-35
   4.020000      1.0720407E-35
   4.030000      1.1064331E-35
   4.040000      1.1479149E-35
   4.050000      1.1967690E-35
   4.060000      1.2425686E-35
   4.070000      1.2883844E-35
   4.080000      1.3504408E-35
   4.090000      1.4309151E-35
   4.100000      1.5380801E-35
   4.110000      1.6727927E-35
   4.120000      1.7937928E-35
   4.130000      1.9050581E-35
   4.140000      2.0321109E-35
   4.150000      2.1360783E-35
   4.160000      2.2403218E-35
   4.170000      2.3709677E-35
   4.180000      2.5066837E-35
   4.190000      2.6509223E-35
   4.200000      2.8023662E-35
   4.210000      2.9355670E-35
   4.220000      3.0675070E-35
   4.230000      3.2330471E-35
   4.240000      3.4412029E-35
   4.250000      3.6878400E-35
   4.260000      3.9511097E-35
   4.270000      4.2385052E-35
   4.280000      4.5082981E-35
   4.290000      4.7366244E-35
   4.300000      4.9487968E-35
   4.310000      5.1148486E-35
   4.320000      5.2335689E-35
   4.330000      5.3352601E-35
   4.340000      5.3731531E-35
   4.350000      5.2968809E-35
   4.360000      5.1450228E-35
   4.370000      4.9503568E-35
   4.380000      4.6582273E-35
   4.390000      4.2820452E-35
   4.400000      3.8746759E-35
   4.410000      3.4940869E-35
   4.420000      3.1660230E-35
   4.430000      2.8659204E-35
   4.440000      2.5811850E-35
   4.450000      2.2879441E-35
   4.460000      1.9865880E-35
   4.470000      1.7266442E-35
   4.480000      1.4998757E-35
   4.490000      1.2353732E-35
   4.500000      9.7479856E-36
   4.510000      7.2919013E-36
   4.520000      4.5831584E-36
   4.530000      1.8201268E-36
   4.540000     -1.0912521E-36
   4.550000     -4.6094700E-36
   4.560000     -8.9797910E-36
   4.570000     -1.4085185E-35
   4.580000     -1.9946340E-35
   4.590000     -2.6738183E-35
   4.600000     -3.4269210E-35
   4.610000     -4.2446958E-35
   4.620000     -5.1506133E-35
   4.630000     -6.1857784E-35
   4.640000     -7.3499954E-35
   4.650000     -8.6125297E-35
   4.660000     -9.9790539E-35
   4.670000     -1.1465869E-34
   4.680000     -1.3061685E-34
   4.690000     -1.4782916E-34
   4.700000     -1.6628018E-34
   4.710000     -1.8553327E-34
   4.720000     -2.0547770E-34
   4.730000     -2.2606453E-34
   4.740000     -2.4703624E-34
   4.750000     -2.6774657E-34
   4.760000     -2.8814197E-34
   4.770000     -3.0842325E-34
   4.780000     -3.2852799E-34
   4.790000     -3.4846609E-34
   4.800000     -3.6757359E-34
   4.810000     -3.8595690E-34
   4.820000     -4.0400092E-34
   4.830000     -4.2153719E-34
   4.840000     -4.3886691E-34
   4.850000     -4.5231402E-34
   4.860000     -4.6154656E-34
   4.870000     -4.7126597E-34
   4.880000     -4.7929694E-34
   4.890000     -4.8618511E-34
   4.900000     -5.0129053E-34
   4.910000     -5.2060629E-34
   4.920000     -5.3751063E-34
   4.930000     -5.5441837E-34
   4.940000     -5.7008569E-34
   4.950000     -5.8535325E-34
   4.960000     -6.0330686E-34
   4.970000     -6.2835927E-34
   4.980000     -6.5781408E-34
   4.990000     -6.8982821E-34
   5.000000     -7.2725158E-34
   5.010000     -7.6169830E-34
   5.020000     -7.8977544E-34
   5.030000     -8.1431030E-34
   5.040000     -8.3239877E-34
   5.050000     -8.4339029E-34
   5.060000     -8.4856908E-34
   5.070000     -8.4720716E-34
   5.080000     -8.3636276E-34
   5.090000     -8.1610449E-34
   5.100000     -7.8952124E-34
   5.110000     -7.5775741E-34
   5.120000     -7.2331125E-34
   5.130000     -6.8280399E-34
   5.140000     -6.3365868E-34
   5.150000     -5.7934588E-34
   5.160000     -5.2128895E-34
   5.170000     -4.6281192E-34
   5.180000     -4.0890122E-34
   5.190000     -3.5894154E-34
   5.200000     -3.1323474E-34
   5.210000     -2.6779476E-34
   5.220000     -2.1670633E-34
   5.230000     -1.6208288E-34
   5.240000     -1.0340628E-34
   5.250000     -4.1799032E-35
   5.260000      2.2716457E-35
   5.270000      9.3454395E-35
   5.280000      1.6899624E-34
   5.290000      2.5181927E-34
   5.300000      3.4824156E-34
   5.310000      4.5958091E-34
   5.320000      5.8695900E-34
   5.330000      7.3396641E-34
   5.340000      9.0297399E-34
   5.350000      1.0922575E-33
   5.360000      1.2967282E-33
   5.370000      1.5133027E-33
   5.380000      1.7428302E-33
   5.390000      1.9817516E-33
   5.400000      2.2300028E-33
   5.410000      2.4901233E-33
   5.420000      2.7623460E-33
   5.430000      3.0434616E-33
   5.440000      3.3290830E-33
   5.450000      3.6187612E-33
   5.460000      3.9080452E-33
   5.470000      4.1919752E-33
   5.480000      4.4771340E-33
   5.490000      4.7707357E-33
   5.500000      5.0634720E-33
   5.510000      5.3529717E-33
   5.520000      5.6499324E-33
   5.530000      5.9534869E-33
   5.540000      6.2593524E-33
   5.550000      6.5707394E-33
   5.560000      6.8940341E-33
   5.570000      7.2324810E-33
   5.580000      7.5861373E-33
   5.590000      7.9563893E-33
   5.600000      8.3439337E-33
   5.610000      8.7483544E-33
   5.620000      9.1692101E-33
   5.630000      9.6044119E-33
   5.640000      1.0052878E-32
   5.650000      1.0510256E-32
   5.660000      1.0968425E-32
   5.670000      1.1421273E-32
   5.680000      1.1863028E-32
   5.690000      1.2293508E-32
   5.700000      1.2709288E-32
   5.710000      1.3101006E-32
   5.720000      1.3461607E-32
   5.730000      1.3785792E-32
   5.740000      1.4067116E-32
   5.750000      1.4304341E-32
   5.760000      1.4499680E-32
   5.770000      1.4651657E-32
   5.780000      1.4761636E-32
   5.790000      1.4824910E-32
   5.800000      1.4841163E-32
   5.810000      1.4816984E-32
   5.820000      1.4754248E-32
   5.830000      1.4655930E-32
   5.840000      1.4524391E-32
   5.850000      1.4362936E-32
   5.860000      1.4172662E-32
   5.870000      1.3951574E-32
   5.880000      1.3696823E-32
   5.890000      1.3405493E-32
   5.900000      1.3068551E-32
   5.910000      1.2678585E-32
   5.920000      1.2229332E-32
   5.930000      1.1708005E-32
   5.940000      1.1100844E-32
   5.950000      1.0393325E-32
   5.960000      9.5720990E-33
   5.970000      8.6236932E-33
   5.980000      7.5352053E-33
   5.990000      6.2953387E-33
   6.000000      4.8945127E-33
   6.010000      3.3251554E-33
   6.020000      1.5831663E-33
   6.030000     -3.3337130E-34
   6.040000     -2.4238412E-33
   6.050000     -4.6846062E-33
   6.060000     -7.1083018E-33
   6.070000     -9.6856863E-33
   6.080000     -1.2407430E-32
   6.090000     -1.5262752E-32
   6.100000     -1.8240735E-32
   6.110000     -2.1329485E-32
   6.120000     -2.4524919E-32
   6.130000     -2.7820466E-32
   6.140000     -3.1208714E-32
   6.150000     -3.4692744E-32
   6.160000     -3.8277790E-32
   6.170000     -4.1970544E-32
   6.180000     -4.5782325E-32
   6.190000     -4.9729189E-32
   6.200000     -5.3828302E-32
   6.210000     -5.8098979E-32
   6.220000     -6.2560950E-32
   6.230000     -6.7233281E-32
   6.240000     -7.2133535E-32
   6.250000     -7.7275018E-32
   6.260000     -8.2666652E-32
   6.270000     -8.8312610E-32
   6.280000     -9.4209025E-32
   6.290000     -1.0034856E-31
   6.300000     -1.0671278E-31
   6.310000     -1.1327424E-31
   6.320000     -1.2000360E-31
   6.330000     -1.2686151E-31
   6.340000     -1.3380656E-31
   6.350000     -1.4079512E-31
   6.360000     -1.4777880E-31
   6.370000     -1.5471082E-31
   6.380000     -1.6154679E-31
   6.390000     -1.6824659E-31
   6.400000     -1.7477569E-31
   6.410000     -1.8110630E-31
   6.420000     -1.8721883E-31
   6.430000     -1.9310222E-31
   6.440000     -1.9875362E-31
   6.450000     -2.0417780E-31
   6.460000     -2.0938573E-31
   6.470000     -2.1439303E-31
   6.480000     -2.1921745E-31
   6.490000     -2.2387631E-31
   6.500000     -2.2838376E-31
   6.510000     -2.3274765E-31
   6.520000     -2.3696675E-31
   6.530000     -2.4102813E-31
   6.540000     -2.4490503E-31
   6.550000     -2.4855518E-31
   6.560000     -2.5192034E-31
   6.570000     -2.5492586E-31
   6.580000     -2.5748125E-31
   6.590000     -2.5948250E-31
   6.600000     -2.6081478E-31
   6.610000     -2.6135521E-31
   6.620000     -2.6097693E-31
   6.630000     -2.5955362E-31
   6.640000     -2.5696375E-31
   6.650000     -2.5309508E-31
   6.660000     -2.4784896E-31
   6.670000     -2.4114361E-31
   6.680000     -2.3291689E-31
   6.690000     -2.2312966E-31
   6.700000     -2.1176006E-31
   6.710000     -1.9880976E-31
   6.720000     -1.8430259E-31
   6.730000     -1.6827365E-31
   6.740000     -1.5077029E-31
   6.750000     -1.3184646E-31
   6.760000     -1.1155271E-31
   6.770000     -8.9933593E-32
   6.780000     -6.7022456E-32
   6.790000     -4.2831009E-32
   6.800000     -1.7346892E-32
   6.810000      9.4708191E-33
   6.820000      3.7694092E-32
   6.830000      6.7426573E-32
   6.840000      9.8802369E-32
   6.850000      1.3198278E-31
   6.860000      1.6715112E-31
   6.870000      2.0450574E-31
   6.880000      2.4425155E-31
   6.890000      2.8659046E-31
   6.900000      3.3171106E-31
   6.910000      3.7977834E-31
   6.920000      4.3092396E-31
   6.930000      4.8523739E-31
   6.940000      5.4275880E-31
   6.950000      6.0347411E-31
   6.960000      6.6731258E-31
   6.970000      7.3414714E-31
   6.980000      8.0379768E-31
   6.990000      8.7603735E-31
   7.000000      9.5060159E-31
   7.010000      1.0271994E-30
   7.020000      1.1055262E-30
   7.030000      1.1852780E-30
   7.040000      1.2661659E-30
   7.050000      1.3479300E-30
   7.060000      1.4303519E-30