  -2.600000      0.0000000E+00
  -2.590000      0.0000000E+00
  -2.580000      0.0000000E+00
  -2.570000      2.1183214E-26
  -2.560000      1.7480515E-25
  -2.550000      7.6354113E-25
  -2.540000      2.3519626E-24
  -2.530000      5.7173207E-24
  -2.520000      1.1613957E-23
  -2.510000      2.0363969E-23
  -2.500000      3.1409273E-23
  -2.490000      4.3086885E-23
  -2.480000      5.2963806E-23
  -2.470000      5.9030417E-23
  -2.460000      6.1859550E-23
  -2.450000      6.7486659E-23
  -2.440000      9.0300700E-23
  -2.430000      1.5475774E-22
  -2.420000      2.9438522E-22
  -2.410000      5.4650234E-22
  -2.400000      9.4148845E-22
  -2.390000      1.4863713E-21
  -2.380000      2.1439617E-21
  -2.370000      2.8105860E-21
  -2.360000      3.2973566E-21
  -2.350000      3.3214900E-21
  -2.340000      2.5149332E-21
  -2.330000      4.5706454E-22
  -2.320000     -3.2638808E-21
  -2.310000     -8.9598459E-21
  -2.300000     -1.6727057E-20
  -2.290000     -2.6316323E-20
  -2.280000     -3.7007395E-20
  -2.270000     -4.7511190E-20
  -2.260000     -5.5927433E-20
  -2.250000     -5.9785778E-20
  -2.240000     -5.6194625E-20
  -2.230000     -4.2112990E-20
  -2.220000     -1.4747293E-20
  -2.210000      2.7942895E-20
  -2.200000      8.6666227E-20
  -2.190000      1.6020484E-19
  -2.180000      2.4487832E-19
  -2.170000      3.3415429E-19
  -2.160000      4.1849794E-19
  -2.150000      4.8554763E-19
  -2.140000      5.2068554E-19
  -2.130000      5.0804425E-19
  -2.120000      4.3194764E-19
  -2.110000      2.7873808E-19
  -2.100000      3.8886924E-20
  -2.090000     -2.9076701E-19
  -2.080000     -7.0485290E-19
  -2.070000     -1.1876152E-18
  -2.060000     -1.7116296E-18
  -2.050000     -2.2373420E-18
  -2.040000     -2.7136584E-18
  -2.030000     -3.0797626E-18
  -2.020000     -3.2682636E-18
  -2.010000     -3.2096769E-18
  -2.000000     -2.8381317E-18
  -1.990000     -2.0980717E-18
  -1.980000     -9.5159209E-19
  -1.970000      6.1406182E-19
  -1.960000      2.5794081E-18
  -1.950000      4.8867076E-18
  -1.940000      7.4356944E-18
  -1.930000      1.0081745E-17
  -1.920000      1.2637116E-17
  -1.910000      1.4875758E-17
  -1.900000      1.6542072E-17
  -1.890000      1.7363727E-17
  -1.880000      1.7068391E-17
  -1.870000      1.5403934E-17
  -1.860000      1.2161317E-17
  -1.850000      7.1990033E-18
  -1.840000      4.6749679E-19
  -1.830000     -7.9677643E-18
  -1.820000     -1.7907082E-17
  -1.810000     -2.9002769E-17
  -1.800000     -4.0753035E-17
  -1.790000     -5.2505339E-17
  -1.780000     -6.3470726E-17
  -1.770000     -7.2750197E-17
  -1.760000     -7.9373433E-17
  -1.750000     -8.2349648E-17
  -1.740000     -8.0729129E-17
  -1.730000     -7.3673543E-17
  -1.720000     -6.0531793E-17
  -1.710000     -4.0917710E-17
  -1.700000     -1.4785087E-17
  -1.690000      1.7504962E-17
  -1.680000      5.5129301E-17
  -1.670000      9.6765772E-17
  -1.660000      1.4057827E-16
  -1.650000      1.8422757E-16
  -1.640000      2.2491022E-16
  -1.630000      2.5942668E-16
  -1.620000      2.8427792E-16
  -1.610000      2.9578777E-16
  -1.600000      2.9024727E-16
  -1.590000      2.6407435E-16
  -1.580000      2.1398200E-16
  -1.570000      1.3714554E-16
  -1.560000      3.1360353E-17
  -1.550000     -1.0482023E-16
  -1.540000     -2.7197556E-16
  -1.530000     -4.6974541E-16
  -1.520000     -6.9680138E-16
  -1.510000     -9.5086638E-16
  -1.500000     -1.2287850E-15
  -1.490000     -1.5266416E-15
  -1.480000     -1.8399254E-15
  -1.470000     -2.1637319E-15
  -1.460000     -2.4929929E-15
  -1.450000     -2.8227218E-15
  -1.440000     -3.1482582E-15
  -1.430000     -3.4654987E-15
  -1.420000     -3.7710949E-15
  -1.410000     -4.0626046E-15
  -1.400000     -4.3385849E-15
  -1.390000     -4.5986096E-15
  -1.380000     -4.8432137E-15
  -1.370000     -5.0737523E-15
  -1.360000     -5.2921873E-15
  -1.350000     -5.5007988E-15
  -1.340000     -5.7018472E-15
  -1.330000     -5.8971920E-15
  -1.320000     -6.0879015E-15
  -1.310000     -6.2738705E-15
  -1.300000     -6.4534809E-15
  -1.290000     -6.6233233E-15
  -1.280000     -6.7780178E-15
  -1.270000     -6.9101460E-15
  -1.260000     -7.0103145E-15
  -1.250000     -7.0673579E-15
  -1.240000     -7.0686873E-15
  -1.230000     -7.0007701E-15
  -1.220000     -6.8497331E-15
  -1.210000     -6.6020569E-15
  -1.200000     -6.2453277E-15
  -1.190000     -5.7690118E-15
  -1.180000     -5.1652061E-15
  -1.170000     -4.4293165E-15
  -1.160000     -3.5606267E-15
  -1.150000     -2.5626992E-15
  -1.140000     -1.4435907E-15
  -1.130000     -2.1584411E-16
  -1.120000      1.1037515E-15
  -1.110000      2.4946414E-15
  -1.100000      3.9332093E-15
  -1.090000      5.3936809E-15
  -1.080000      6.8491855E-15
  -1.070000      8.2729310E-15
  -1.060000      9.6394238E-15
  -1.050000      1.0925666E-14
  -1.040000      1.2112263E-14
  -1.030000      1.3184370E-14
  -1.020000      1.4132415E-14
  -1.010000      1.4952546E-14
  -1.000000      1.5646755E-14
 -0.9900000      1.6222677E-14
 -0.9800000      1.6693019E-14
 -0.9700000      1.7074704E-14
 -0.9600000      1.7387692E-14
 -0.9500000      1.7653613E-14
 -0.9400000      1.7894220E-14
 -0.9300000      1.8129817E-14
 -0.9200000      1.8377720E-14
 -0.9100000      1.8650869E-14
 -0.9000000      1.8956694E-14
 -0.8900000      1.9296332E-14
 -0.8800000      1.9664249E-14
 -0.8700000      2.0048353E-14
 -0.8600000      2.0430599E-14
 -0.8500000      2.0788091E-14
 -0.8400000      2.1094651E-14
 -0.8300000      2.1322782E-14
 -0.8200000      2.1445961E-14
 -0.8100000      2.1441074E-14
 -0.8000000      2.1290942E-14
 -0.7900000      2.0986724E-14
 -0.7800000      2.0530090E-14
 -0.7700000      1.9934966E-14
 -0.7600000      1.9228778E-14
 -0.7500000      1.8453065E-14
 -0.7400000      1.7663375E-14
 -0.7300000      1.6928436E-14
 -0.7200000      1.6328627E-14
 -0.7100000      1.5953749E-14
 -0.7000000      1.5900235E-14
 -0.6900000      1.6267934E-14
 -0.6800000      1.7156644E-14
 -0.6700000      1.8662579E-14
 -0.6600000      2.0874958E-14
 -0.6500000      2.3872976E-14
 -0.6400000      2.7723334E-14
 -0.6300000      3.2478489E-14
 -0.6200000      3.8175853E-14
 -0.6100000      4.4837886E-14
 -0.6000000      5.2473224E-14
 -0.5900000      6.1078760E-14
 -0.5800000      7.0642690E-14
 -0.5700000      8.1148331E-14
 -0.5600000      9.2578411E-14
 -0.5500000      1.0491980E-13
 -0.5400000      1.1816820E-13
 -0.5300000      1.3233257E-13
 -0.5200000      1.4743909E-13
 -0.5100000      1.6353431E-13
 -0.5000000      1.8068714E-13
 -0.4900000      1.9898979E-13
 -0.4800000      2.1855716E-13
 -0.4700000      2.3952501E-13
 -0.4600000      2.6204668E-13
 -0.4500000      2.8628863E-13
 -0.4400000      3.1242489E-13
 -0.4300000      3.4063093E-13
 -0.4200000      3.7107695E-13
 -0.4100000      4.0392134E-13
 -0.4000000      4.3930422E-13
 -0.3900000      4.7734207E-13
 -0.3800000      5.1812325E-13
 -0.3700000      5.6170503E-13
 -0.3600000      6.0811225E-13
 -0.3500000      6.5733785E-13
 -0.3400000      7.0934491E-13
 -0.3300000      7.6407099E-13
 -0.3200000      8.2143331E-13
 -0.3100000      8.8133586E-13
 -0.3000000      9.4367699E-13
 -0.2900000      1.0083572E-12
 -0.2800000      1.0752879E-12
 -0.2700000      1.1443975E-12
 -0.2600000      1.2156388E-12
 -0.2500000      1.2889931E-12
 -0.2400000      1.3644730E-12
 -0.2300000      1.4421226E-12
 -0.2200000      1.5220155E-12
 -0.2100000      1.6042506E-12
 -0.2000000      1.6889450E-12
 -0.1900000      1.7762250E-12
 -0.1800000      1.8662166E-12
 -0.1700000      1.9590323E-12
 -0.1600000      2.0547607E-12
 -0.1500000      2.1534532E-12
 -0.1400000      2.2551138E-12
 -0.1300000      2.3596888E-12
 -0.1200000      2.4670600E-12
 -0.1100000      2.5770393E-12
 -0.1000000      2.6893667E-12
 -9.0000004E-02  2.8037108E-12
 -7.9999998E-02  2.9196741E-12
 -7.0000000E-02  3.0367982E-12
 -5.9999999E-02  3.1545753E-12
 -5.0000001E-02  3.2724578E-12
 -3.9999999E-02  3.3898711E-12
 -2.9999999E-02  3.5062281E-12
 -2.0000000E-02  3.6209406E-12
 -9.9999998E-03  3.7334311E-12
 -3.4694470E-17  3.8431424E-12
  9.9999998E-03  3.9495429E-12
  2.0000000E-02  4.0521323E-12
  2.9999999E-02  4.1504369E-12
  3.9999999E-02  4.2440101E-12
  5.0000001E-02  4.3324224E-12
  5.9999999E-02  4.4152472E-12
  7.0000000E-02  4.4920482E-12
  7.9999998E-02  4.5623618E-12
  9.0000004E-02  4.6256779E-12
  0.1000000      4.6814215E-12
  0.1100000      4.7289351E-12
  0.1200000      4.7674620E-12
  0.1300000      4.7961327E-12
  0.1400000      4.8139570E-12
  0.1500000      4.8198169E-12
  0.1600000      4.8124673E-12
  0.1700000      4.7905430E-12
  0.1800000      4.7525647E-12
  0.1900000      4.6969559E-12
  0.2000000      4.6220627E-12
  0.2100000      4.5261694E-12
  0.2200000      4.4075256E-12
  0.2300000      4.2643697E-12
  0.2400000      4.0949501E-12
  0.2500000      3.8975437E-12
  0.2600000      3.6704767E-12
  0.2700000      3.4121332E-12
  0.2800000      3.1209629E-12
  0.2900000      2.7954845E-12
  0.3000000      2.4342809E-12
  0.3100000      2.0359879E-12
  0.3200000      1.5992785E-12
  0.3300000      1.1228443E-12
  0.3400000      6.0537507E-13
  0.3500000      4.5537464E-14
  0.3600000     -5.5804634E-13
  0.3700000     -1.2068208E-12
  0.3800000     -1.9023101E-12
  0.3900000     -2.6461322E-12
  0.4000000     -3.4400046E-12
  0.4100000     -4.2857389E-12
  0.4200000     -5.1852281E-12
  0.4300000     -6.1404289E-12
  0.4400000     -7.1533374E-12
  0.4500000     -8.2259546E-12
  0.4600000     -9.3602539E-12
  0.4700000     -1.0558134E-11
  0.4800000     -1.1821376E-11
  0.4900000     -1.3151605E-11
  0.5000000     -1.4550241E-11
  0.5100000     -1.6018473E-11
  0.5200000     -1.7557221E-11
  0.5300000     -1.9167107E-11
  0.5400000     -2.0848446E-11
  0.5500000     -2.2601239E-11
  0.5600000     -2.4425167E-11
  0.5700000     -2.6319613E-11
  0.5800000     -2.8283664E-11
  0.5900000     -3.0316132E-11
  0.6000000     -3.2415581E-11
  0.6100000     -3.4580352E-11
  0.6200000     -3.6808584E-11
  0.6300000     -3.9098242E-11
  0.6400000     -4.1447110E-11
  0.6500000     -4.3852817E-11
  0.6600000     -4.6312818E-11
  0.6700000     -4.8824389E-11
  0.6800000     -5.1384598E-11
  0.6900000     -5.3990257E-11
  0.7000000     -5.6637896E-11
  0.7100000     -5.9323692E-11
  0.7200000     -6.2043405E-11
  0.7300000     -6.4792373E-11
  0.7400000     -6.7565391E-11
  0.7500000     -7.0356651E-11
  0.7600000     -7.3159749E-11
  0.7700000     -7.5967586E-11
  0.7800000     -7.8772357E-11
  0.7900000     -8.1565532E-11
  0.8000000     -8.4337828E-11
  0.8100000     -8.7079260E-11
  0.8200000     -8.9779122E-11
  0.8300000     -9.2425997E-11
  0.8400000     -9.5007856E-11
  0.8500000     -9.7512068E-11
  0.8600000     -9.9925457E-11
  0.8700000     -1.0223435E-10
  0.8800000     -1.0442466E-10
  0.8900000     -1.0648191E-10
  0.9000000     -1.0839125E-10
  0.9100000     -1.1013754E-10
  0.9200000     -1.1170535E-10
  0.9300000     -1.1307893E-10
  0.9400000     -1.1424222E-10
  0.9500000     -1.1517887E-10
  0.9600000     -1.1587218E-10
  0.9700000     -1.1630504E-10
  0.9800000     -1.1645998E-10
  0.9900000     -1.1631903E-10
   1.000000     -1.1586376E-10
   1.010000     -1.1507523E-10
   1.020000     -1.1393394E-10
   1.030000     -1.1241991E-10
   1.040000     -1.1051269E-10
   1.050000     -1.0819138E-10
   1.060000     -1.0543476E-10
   1.070000     -1.0222130E-10
   1.080000     -9.8529303E-11
   1.090000     -9.4336990E-11
   1.100000     -8.9622663E-11
   1.110000     -8.4364862E-11
   1.120000     -7.8542492E-11
   1.130000     -7.2134958E-11
   1.140000     -6.5122359E-11
   1.150000     -5.7485544E-11
   1.160000     -4.9206302E-11
   1.170000     -4.0267435E-11
   1.180000     -3.0652755E-11
   1.190000     -2.0347307E-11
   1.200000     -9.3374457E-12
   1.210000      2.3892735E-12
   1.220000      1.4843994E-11
   1.230000      2.8036462E-11
   1.240000      4.1975052E-11
   1.250000      5.6666762E-11
   1.260000      7.2117159E-11
   1.270000      8.8330239E-11
   1.280000      1.0530845E-10
   1.290000      1.2305262E-10
   1.300000      1.4156185E-10
   1.310000      1.6083325E-10
   1.320000      1.8086195E-10
   1.330000      2.0164084E-10
   1.340000      2.2316035E-10
   1.350000      2.4540822E-10
   1.360000      2.6836930E-10
   1.370000      2.9202543E-10
   1.380000      3.1635511E-10
   1.390000      3.4133329E-10
   1.400000      3.6693121E-10
   1.410000      3.9311626E-10
   1.420000      4.1985193E-10
   1.430000      4.4709750E-10
   1.440000      4.7480803E-10
   1.450000      5.0293447E-10
   1.460000      5.3142363E-10
   1.470000      5.6021804E-10
   1.480000      5.8925598E-10
   1.490000      6.1847177E-10
   1.500000      6.4779548E-10
   1.510000      6.7715333E-10
   1.520000      7.0646761E-10
   1.530000      7.3565637E-10
   1.540000      7.6463386E-10
   1.550000      7.9331031E-10
   1.560000      8.2159207E-10
   1.570000      8.4938145E-10
   1.580000      8.7657676E-10
   1.590000      9.0307234E-10
   1.600000      9.2875824E-10
   1.610000      9.5352037E-10
   1.620000      9.7724051E-10
   1.630000      9.9979591E-10
   1.640000      1.0210599E-09
   1.650000      1.0409013E-09
   1.660000      1.0591847E-09
   1.670000      1.0757710E-09
   1.680000      1.0905167E-09
   1.690000      1.1032750E-09
   1.700000      1.1138955E-09
   1.710000      1.1222246E-09
   1.720000      1.1281063E-09
   1.730000      1.1313822E-09
   1.740000      1.1318918E-09
   1.750000      1.1294738E-09
   1.760000      1.1239656E-09
   1.770000      1.1152045E-09
   1.780000      1.1030277E-09
   1.790000      1.0872729E-09
   1.800000      1.0677793E-09
   1.810000      1.0443866E-09
   1.820000      1.0169363E-09
   1.830000      9.8527220E-10
   1.840000      9.4924024E-10
   1.850000      9.0868901E-10
   1.860000      8.6347063E-10
   1.870000      8.1344032E-10
   1.880000      7.5845685E-10
   1.890000      6.9838424E-10
   1.900000      6.3309091E-10
   1.910000      5.6245003E-10
   1.920000      4.8634069E-10
   1.930000      4.0464870E-10
   1.940000      3.1726660E-10
   1.950000      2.2409460E-10
   1.960000      1.2504178E-10
   1.970000      2.0026194E-11
   1.980000     -9.1024036E-11
   1.990000     -2.0816970E-10
   2.000000     -3.3145955E-10
   2.010000     -4.6092982E-10
   2.020000     -5.9660304E-10
   2.030000     -7.3848677E-10
   2.040000     -8.8657354E-10
   2.050000     -1.0408409E-09
   2.060000     -1.2012493E-09
   2.070000     -1.3677425E-09
   2.080000     -1.5402462E-09
   2.090000     -1.7186678E-09
   2.100000     -1.9028965E-09
   2.110000     -2.0928033E-09
   2.120000     -2.2882389E-09
   2.130000     -2.4890363E-09
   2.140000     -2.6950071E-09
   2.150000     -2.9059433E-09
   2.160000     -3.1216174E-09
   2.170000     -3.3417804E-09
   2.180000     -3.5661620E-09
   2.190000     -3.7944714E-09
   2.200000     -4.0263948E-09
   2.210000     -4.2615969E-09
   2.220000     -4.4997193E-09
   2.230000     -4.7403783E-09
   2.240000     -4.9831672E-09
   2.250000     -5.2276552E-09
   2.260000     -5.4733884E-09
   2.270000     -5.7198859E-09
   2.280000     -5.9666441E-09
   2.290000     -6.2131309E-09
   2.300000     -6.4587908E-09
   2.310000     -6.7030452E-09
   2.320000     -6.9452883E-09
   2.330000     -7.1848900E-09
   2.340000     -7.4211974E-09
   2.350000     -7.6535365E-09
   2.360000     -7.8812095E-09
   2.370000     -8.1035010E-09
   2.380000     -8.3196730E-09
   2.390000     -8.5289695E-09
   2.400000     -8.7306198E-09
   2.410000     -8.9238297E-09
   2.420000     -9.1077954E-09
   2.430000     -9.2816981E-09
   2.440000     -9.4447019E-09
   2.450000     -9.5959631E-09
   2.460000     -9.7346229E-09
   2.470000     -9.8598116E-09
   2.480000     -9.9706510E-09
   2.490000     -1.0066260E-08
   2.500000     -1.0145744E-08
   2.510000     -1.0208206E-08
   2.520000     -1.0252744E-08
   2.530000     -1.0278457E-08
   2.540000     -1.0284437E-08
   2.550000     -1.0269780E-08
   2.560000     -1.0233581E-08
   2.570000     -1.0174943E-08
   2.580000     -1.0092974E-08
   2.590000     -9.9867918E-09
   2.600000     -9.8555235E-09
   2.610000     -9.6983133E-09
   2.620000     -9.5143262E-09
   2.630000     -9.3027426E-09
   2.640000     -9.0627683E-09
   2.650000     -8.7936405E-09
   2.660000     -8.4946166E-09
   2.670000     -8.1649922E-09
   2.680000     -7.8040934E-09
   2.690000     -7.4112818E-09
   2.700000     -6.9859638E-09
   2.710000     -6.5275798E-09
   2.720000     -6.0356173E-09
   2.730000     -5.5096114E-09
   2.740000     -4.9491482E-09
   2.750000     -4.3538657E-09
   2.760000     -3.7234460E-09
   2.770000     -3.0576286E-09
   2.780000     -2.3562083E-09
   2.790000     -1.6190386E-09
   2.800000     -8.4603585E-10
   2.810000     -3.7177567E-11
   2.820000      8.0749057E-10
   2.830000      1.6878519E-09
   2.840000      2.6037239E-09
   2.850000      3.5548495E-09
   2.860000      4.5408926E-09
   2.870000      5.5614380E-09
   2.880000      6.6159886E-09
   2.890000      7.7039628E-09
   2.900000      8.8246930E-09
   2.910000      9.9774162E-09
   2.920000      1.1161284E-08
   2.930000      1.2375359E-08
   2.940000      1.3618607E-08
   2.950000      1.4889897E-08
   2.960000      1.6188011E-08
   2.970000      1.7511624E-08
   2.980000      1.8859323E-08
   2.990000      2.0229594E-08
   3.000000      2.1620833E-08
   3.010000      2.3031332E-08
   3.020000      2.4459288E-08
   3.030000      2.5902812E-08
   3.040000      2.7359919E-08
   3.050000      2.8828516E-08
   3.060000      3.0306431E-08
   3.070000      3.1791405E-08
   3.080000      3.3281090E-08
   3.090000      3.4773045E-08
   3.100000      3.6264744E-08
   3.110000      3.7753569E-08
   3.120000      3.9236834E-08
   3.130000      4.0711758E-08
   3.140000      4.2175476E-08
   3.150000      4.3625040E-08
   3.160000      4.5057423E-08
   3.170000      4.6469527E-08
   3.180000      4.7858169E-08
   3.190000      4.9220098E-08
   3.200000      5.0551996E-08
   3.210000      5.1850485E-08
   3.220000      5.3112128E-08
   3.230000      5.4333434E-08
   3.240000      5.5510863E-08
   3.250000      5.6640843E-08
   3.260000      5.7719763E-08
   3.270000      5.8743982E-08
   3.280000      5.9709848E-08
   3.290000      6.0613687E-08
   3.300000      6.1451807E-08
   3.310000      6.2220536E-08
   3.320000      6.2916186E-08
   3.330000      6.3535090E-08
   3.340000      6.4073582E-08
   3.350000      6.4528010E-08
   3.360000      6.4894770E-08
   3.370000      6.5170255E-08
   3.380000      6.5350910E-08
   3.390000      6.5433241E-08
   3.400000      6.5413793E-08
   3.410000      6.5289193E-08
   3.420000      6.5056149E-08
   3.430000      6.4711422E-08
   3.440000      6.4251857E-08
   3.450000      6.3674406E-08
   3.460000      6.2976085E-08
   3.470000      6.2154008E-08
   3.480000      6.1205419E-08
   3.490000      6.0127668E-08
   3.500000      5.8918239E-08
   3.510000      5.7574752E-08
   3.520000      5.6094954E-08
   3.530000      5.4476768E-08
   3.540000      5.2718306E-08
   3.550000      5.0817860E-08
   3.560000      4.8773884E-08
   3.570000      4.6585061E-08
   3.580000      4.4250267E-08
   3.590000      4.1768565E-08
   3.600000      3.9139255E-08
   3.610000      3.6361843E-08
   3.620000      3.3436056E-08
   3.630000      3.0361822E-08
   3.640000      2.7139324E-08
   3.650000      2.3768976E-08
   3.660000      2.0251422E-08
   3.670000      1.6587562E-08
   3.680000      1.2778572E-08
   3.690000      8.8258778E-09
   3.700000      4.7311719E-09
   3.710000      4.9640891E-10
   3.720000     -3.8761971E-09
   3.730000     -8.3841325E-09
   3.740000     -1.3024618E-08
   3.750000     -1.7794591E-08
   3.760000     -2.2690685E-08
   3.770000     -2.7709264E-08
   3.780000     -3.2846444E-08
   3.790000     -3.8098037E-08
   3.800000     -4.3459529E-08
   3.810000     -4.8926136E-08
   3.820000     -5.4492777E-08
   3.830000     -6.0154065E-08
   3.840000     -6.5904324E-08
   3.850000     -7.1737524E-08
   3.860000     -7.7647350E-08
   3.870000     -8.3627192E-08
   3.880000     -8.9670174E-08
   3.890000     -9.5769153E-08
   3.900000     -1.0191670E-07
   3.910000     -1.0810516E-07
   3.920000     -1.1432654E-07
   3.930000     -1.2057266E-07
   3.940000     -1.2683513E-07
   3.950000     -1.3310529E-07
   3.960000     -1.3937425E-07
   3.970000     -1.4563292E-07
   3.980000     -1.5187199E-07
   3.990000     -1.5808192E-07
   4.000000     -1.6425298E-07
   4.010000     -1.7037533E-07
   4.020000     -1.7643883E-07
   4.030000     -1.8243325E-07
   4.040000     -1.8834818E-07
   4.050000     -1.9417305E-07
   4.060000     -1.9989720E-07
   4.070000     -2.0550978E-07
   4.080000     -2.1099984E-07
   4.090000     -2.1635630E-07
   4.100000     -2.2156800E-07
   4.110000     -2.2662380E-07
   4.120000     -2.3151246E-07
   4.130000     -2.3622272E-07
   4.140000     -2.4074330E-07
   4.150000     -2.4506292E-07
   4.160000     -2.4917037E-07
   4.170000     -2.5305440E-07
   4.180000     -2.5670383E-07
   4.190000     -2.6010758E-07
   4.200000     -2.6325469E-07
   4.210000     -2.6613426E-07
   4.220000     -2.6873548E-07
   4.230000     -2.7104770E-07
   4.240000     -2.7306046E-07
   4.250000     -2.7476355E-07
   4.260000     -2.7614692E-07
   4.270000     -2.7720080E-07
   4.280000     -2.7791557E-07
   4.290000     -2.7828204E-07
   4.300000     -2.7829122E-07
   4.310000     -2.7793439E-07
   4.320000     -2.7720310E-07
   4.330000     -2.7608928E-07
   4.340000     -2.7458512E-07
   4.350000     -2.7268317E-07
   4.360000     -2.7037640E-07
   4.370000     -2.6765801E-07
   4.380000     -2.6452176E-07
   4.390000     -2.6096177E-07
   4.400000     -2.5697270E-07
   4.410000     -2.5254963E-07
   4.420000     -2.4768815E-07
   4.430000     -2.4238437E-07
   4.440000     -2.3663495E-07
   4.450000     -2.3043711E-07
   4.460000     -2.2378870E-07
   4.470000     -2.1668797E-07
   4.480000     -2.0913379E-07
   4.490000     -2.0112559E-07
   4.500000     -1.9266346E-07
   4.510000     -1.8374810E-07
   4.520000     -1.7438086E-07
   4.530000     -1.6456367E-07
   4.540000     -1.5429914E-07
   4.550000     -1.4359055E-07
   4.560000     -1.3244184E-07
   4.570000     -1.2085754E-07
   4.580000     -1.0884282E-07
   4.590000     -9.6403603E-08
   4.600000     -8.3546475E-08
   4.610000     -7.0278617E-08
   4.620000     -5.6607874E-08
   4.630000     -4.2542791E-08
   4.640000     -2.8092698E-08
   4.650000     -1.3267576E-08
   4.660000      1.9219484E-09
   4.670000      1.7464671E-08
   4.680000      3.3348698E-08
   4.690000      4.9561329E-08
   4.700000      6.6089278E-08
   4.710000      8.2918554E-08
   4.720000      1.0003449E-07
   4.730000      1.1742191E-07
   4.740000      1.3506488E-07
   4.750000      1.5294677E-07
   4.760000      1.7105040E-07
   4.770000      1.8935808E-07
   4.780000      2.0785130E-07
   4.790000      2.2651103E-07
   4.800000      2.4531772E-07
   4.810000      2.6425113E-07
   4.820000      2.8329057E-07
   4.830000      3.0241475E-07
   4.840000      3.2160219E-07
   4.850000      3.4083087E-07
   4.860000      3.6007842E-07
   4.870000      3.7932196E-07
   4.880000      3.9853836E-07
   4.890000      4.1770397E-07
   4.900000      4.3679481E-07
   4.910000      4.5578645E-07
   4.920000      4.7465429E-07
   4.930000      4.9337353E-07
   4.940000      5.1191910E-07
   4.950000      5.3026565E-07
   4.960000      5.4838756E-07
   4.970000      5.6625919E-07
   4.980000      5.8385450E-07
   4.990000      6.0114758E-07
   5.000000      6.1811232E-07
   5.010000      6.3472260E-07
   5.020000      6.5095242E-07
   5.030000      6.6677580E-07
   5.040000      6.8216639E-07
   5.050000      6.9709830E-07
   5.060000      7.1154579E-07
   5.070000      7.2548306E-07
   5.080000      7.3888481E-07
   5.090000      7.5172568E-07
   5.100000      7.6398095E-07
   5.110000      7.7562584E-07
   5.120000      7.8663601E-07
   5.130000      7.9698754E-07
   5.140000      8.0665689E-07
   5.150000      8.1562087E-07
   5.160000      8.2385714E-07
   5.170000      8.3134347E-07
   5.180000      8.3805821E-07
   5.190000      8.4398056E-07
   5.200000      8.4909010E-07
   5.210000      8.5336723E-07
   5.220000      8.5679289E-07
   5.230000      8.5934897E-07
   5.240000      8.6101790E-07
   5.250000      8.6178267E-07
   5.260000      8.6162720E-07
   5.270000      8.6053615E-07
   5.280000      8.5849467E-07
   5.290000      8.5548885E-07
   5.300000      8.5150572E-07
   5.310000      8.4653334E-07
   5.320000      8.4056069E-07
   5.330000      8.3357776E-07
   5.340000      8.2557540E-07
   5.350000      8.1654576E-07
   5.360000      8.0648221E-07
   5.370000      7.9537898E-07
   5.380000      7.8323126E-07
   5.390000      7.7003557E-07
   5.400000      7.5578930E-07
   5.410000      7.4049115E-07
   5.420000      7.2414088E-07
   5.430000      7.0673929E-07
   5.440000      6.8828831E-07
   5.450000      6.6879102E-07
   5.460000      6.4825173E-07
   5.470000      6.2667601E-07
   5.480000      6.0407058E-07
   5.490000      5.8044321E-07
   5.500000      5.5580313E-07
   5.510000      5.3016055E-07
   5.520000      5.0352685E-07
   5.530000      4.7591479E-07
   5.540000      4.4733852E-07
   5.550000      4.1781294E-07
   5.560000      3.8735405E-07
   5.570000      3.5597927E-07
   5.580000      3.2370704E-07
   5.590000      2.9055701E-07
   5.600000      2.5655012E-07
   5.610000      2.2170836E-07
   5.620000      1.8605492E-07
   5.630000      1.4961360E-07
   5.640000      1.1240962E-07
   5.650000      7.4469519E-08
   5.660000      3.5820801E-08
   5.670000     -3.5079530E-09
   5.680000     -4.3487130E-08
   5.690000     -8.4085968E-08
   5.700000     -1.2527272E-07
   5.710000     -1.6701479E-07
   5.720000     -2.0927891E-07
   5.730000     -2.5203047E-07
   5.740000     -2.9523429E-07
   5.750000     -3.3885459E-07
   5.760000     -3.8285438E-07
   5.770000     -4.2719628E-07
   5.780000     -4.7184216E-07
   5.790000     -5.1675312E-07
   5.800000     -5.6188952E-07
   5.810000     -6.0721118E-07
   5.820000     -6.5267750E-07
   5.830000     -6.9824711E-07
   5.840000     -7.4387788E-07
   5.850000     -7.8952741E-07
   5.860000     -8.3515243E-07
   5.870000     -8.8070965E-07
   5.880000     -9.2615517E-07
   5.890000     -9.7144459E-07
   5.900000     -1.0165338E-06
   5.910000     -1.0613778E-06
   5.920000     -1.1059318E-06
   5.930000     -1.1501512E-06
   5.940000     -1.1939907E-06
   5.950000     -1.2374053E-06
   5.960000     -1.2803496E-06
   5.970000     -1.3227783E-06
   5.980000     -1.3646462E-06
   5.990000     -1.4059083E-06
   6.000000     -1.4465193E-06
   6.010000     -1.4864337E-06
   6.020000     -1.5256068E-06
   6.030000     -1.5639937E-06
   6.040000     -1.6015495E-06
   6.050000     -1.6382298E-06
   6.060000     -1.6739912E-06
   6.070000     -1.7087910E-06
   6.080000     -1.7425868E-06
   6.090000     -1.7753362E-06
   6.100000     -1.8069986E-06
   6.110000     -1.8375335E-06
   6.120000     -1.8669008E-06
   6.130000     -1.8950611E-06
   6.140000     -1.9219756E-06
   6.150000     -1.9476058E-06
   6.160000     -1.9719130E-06
   6.170000     -1.9948593E-06
   6.180000     -2.0164080E-06
   6.190000     -2.0365233E-06
   6.200000     -2.0551702E-06
   6.210000     -2.0723153E-06
   6.220000     -2.0879263E-06
   6.230000     -2.1019723E-06
   6.240000     -2.1144224E-06
   6.250000     -2.1252481E-06
   6.260000     -2.1344208E-06
   6.270000     -2.1419141E-06
   6.280000     -2.1477013E-06
   6.290000     -2.1517558E-06
   6.300000     -2.1540538E-06
   6.310000     -2.1545716E-06
   6.320000     -2.1532876E-06
   6.330000     -2.1501812E-06
   6.340000     -2.1452324E-06
   6.350000     -2.1384240E-06
   6.360000     -2.1297390E-06
   6.370000     -2.1191624E-06
   6.380000     -2.1066812E-06
   6.390000     -2.0922828E-06
   6.400000     -2.0759555E-06
   6.410000     -2.0576897E-06
   6.420000     -2.0374771E-06
   6.430000     -2.0153100E-06
   6.440000     -1.9911831E-06
   6.450000     -1.9650920E-06
   6.460000     -1.9370334E-06
   6.470000     -1.9070048E-06
   6.480000     -1.8750053E-06
   6.490000     -1.8410354E-06
   6.500000     -1.8050973E-06
   6.510000     -1.7671947E-06
   6.520000     -1.7273333E-06
   6.530000     -1.6855199E-06
   6.540000     -1.6417627E-06
   6.550000     -1.5960713E-06
   6.560000     -1.5484577E-06
   6.570000     -1.4989345E-06
   6.580000     -1.4475157E-06
   6.590000     -1.3942170E-06
   6.600000     -1.3390552E-06
   6.610000     -1.2820491E-06
   6.620000     -1.2232185E-06
   6.630000     -1.1625852E-06
   6.640000     -1.1001723E-06
   6.650000     -1.0360038E-06
   6.660000     -9.7010491E-07
   6.670000     -9.0250239E-07
   6.680000     -8.3322459E-07
   6.690000     -7.6230060E-07
   6.700000     -6.8976129E-07
   6.710000     -6.1563912E-07
   6.720000     -5.3996769E-07
   6.730000     -4.6278197E-07
   6.740000     -3.8411909E-07
   6.750000     -3.0401745E-07
   6.760000     -2.2251626E-07
   6.770000     -1.3965591E-07
   6.780000     -5.5478580E-08
   6.790000      2.9972323E-08
   6.800000      1.1665234E-07
   6.810000      2.0451574E-07
   6.820000      2.9351619E-07
   6.830000      3.8360577E-07
   6.840000      4.7473497E-07
   6.850000      5.6685366E-07
   6.860000      6.5991048E-07
   6.870000      7.5385208E-07
   6.880000      8.4862330E-07
   6.890000      9.4416885E-07
   6.900000      1.0404322E-06
   6.910000      1.1373542E-06
   6.920000      1.2348751E-06
   6.930000      1.3329345E-06
   6.940000      1.4314712E-06
   6.950000      1.5304225E-06
   6.960000      1.6297250E-06
   6.970000      1.7293146E-06
   6.980000      1.8291267E-06
   6.990000      1.9290960E-06
   7.000000      2.0291561E-06
   7.010000      2.1292390E-06
   7.020000      2.2292757E-06
   7.030000      2.3291955E-06
   7.040000      2.4289266E-06
   7.050000      2.5283982E-06
   7.060000      2.6275377E-06