  -2.600000      0.0000000E+00
  -2.590000      0.0000000E+00
  -2.580000      0.0000000E+00
  -2.570000      0.0000000E+00
  -2.560000      2.0527936E-27
  -2.550000      2.1367094E-26
  -2.540000      1.1788763E-25
  -2.530000      4.5914022E-25
  -2.520000      1.4155549E-24
  -2.510000      3.6697131E-24
  -2.500000      8.2938043E-24
  -2.490000      1.6722319E-23
  -2.480000      3.0530517E-23
  -2.470000      5.0935729E-23
  -2.460000      7.7978364E-23
  -2.450000      1.0941710E-22
  -2.440000      1.3948395E-22
  -2.430000      1.5777420E-22
  -2.420000      1.4866801E-22
  -2.410000      9.1760130E-23
  -2.400000     -3.6224635E-23
  -2.390000     -2.5766237E-22
  -2.380000     -5.8827970E-22
  -2.370000     -1.0296643E-21
  -2.360000     -1.5607491E-21
  -2.350000     -2.1295012E-21
  -2.340000     -2.6465226E-21
  -2.330000     -2.9826182E-21
  -2.320000     -2.9724774E-21
  -2.310000     -2.4263871E-21
  -2.300000     -1.1512432E-21
  -2.290000      1.0189256E-21
  -2.280000      4.1841421E-21
  -2.270000      8.3343003E-21
  -2.260000      1.3304310E-20
  -2.250000      1.8734893E-20
  -2.240000      2.4046556E-20
  -2.230000      2.8434754E-20
  -2.220000      3.0893826E-20
  -2.210000      3.0275751E-20
  -2.200000      2.5387002E-20
  -2.190000      1.5122983E-20
  -2.180000     -1.3652526E-21
  -2.170000     -2.4482489E-20
  -2.160000     -5.3994916E-20
  -2.150000     -8.8850294E-20
  -2.140000     -1.2703687E-19
  -2.130000     -1.6550681E-19
  -2.120000     -2.0018917E-19
  -2.110000     -2.2611455E-19
  -2.100000     -2.3766605E-19
  -2.090000     -2.2896370E-19
  -2.080000     -1.9437575E-19
  -2.070000     -1.2913880E-19
  -2.060000     -3.0052654E-20
  -2.050000      1.0379720E-19
  -2.040000      2.7034969E-19
  -2.030000      4.6398039E-19
  -2.020000      6.7509084E-19
  -2.010000      8.8994915E-19
  -2.000000      1.0908514E-18
  -1.990000      1.2566559E-18
  -1.980000      1.3637284E-18
  -1.970000      1.3873018E-18
  -1.960000      1.3032295E-18
  -1.950000      1.0900681E-18
  -1.940000      7.3139522E-19
  -1.930000      2.1822444E-19
  -1.920000     -4.4864731E-19
  -1.910000     -1.2565539E-18
  -1.900000     -2.1793430E-18
  -1.890000     -3.1764379E-18
  -1.880000     -4.1927767E-18
  -1.870000     -5.1597951E-18
  -1.860000     -5.9975756E-18
  -1.850000     -6.6182204E-18
  -1.840000     -6.9304236E-18
  -1.830000     -6.8451458E-18
  -1.820000     -6.2821671E-18
  -1.810000     -5.1772370E-18
  -1.800000     -3.4894122E-18
  -1.790000     -1.2081229E-18
  -1.780000      1.6405616E-18
  -1.770000      4.9890257E-18
  -1.760000      8.7251052E-18
  -1.750000      1.2691509E-17
  -1.740000      1.6688074E-17
  -1.730000      2.0477175E-17
  -1.720000      2.3792428E-17
  -1.710000      2.6350644E-17
  -1.700000      2.7866778E-17
  -1.690000      2.8071393E-17
  -1.680000      2.6729938E-17
  -1.670000      2.3662961E-17
  -1.660000      1.8766172E-17
  -1.650000      1.2029174E-17
  -1.640000      3.5516058E-18
  -1.630000     -6.4444938E-18
  -1.620000     -1.7607309E-17
  -1.610000     -2.9453767E-17
  -1.600000     -4.1374714E-17
  -1.590000     -5.2647114E-17
  -1.580000     -6.2453354E-17
  -1.570000     -6.9907138E-17
  -1.560000     -7.4085340E-17
  -1.550000     -7.4064290E-17
  -1.540000     -6.8959116E-17
  -1.530000     -5.7963987E-17
  -1.520000     -4.0391216E-17
  -1.510000     -1.5706696E-17
  -1.500000      1.6440484E-17
  -1.490000      5.6196480E-17
  -1.480000      1.0349105E-16
  -1.470000      1.5803729E-16
  -1.460000      2.1934352E-16
  -1.450000      2.8673781E-16
  -1.440000      3.5940429E-16
  -1.430000      4.3643021E-16
  -1.420000      5.1686194E-16
  -1.410000      5.9976661E-16
  -1.400000      6.8429658E-16
  -1.390000      7.6975310E-16
  -1.380000      8.5564526E-16
  -1.370000      9.4173991E-16
  -1.360000      1.0280992E-15
  -1.350000      1.1151021E-15
  -1.340000      1.2034490E-15
  -1.330000      1.2941438E-15
  -1.320000      1.3884591E-15
  -1.310000      1.4878779E-15
  -1.300000      1.5940207E-15
  -1.290000      1.7085559E-15
  -1.280000      1.8330989E-15
  -1.270000      1.9691079E-15
  -1.260000      2.1177776E-15
  -1.250000      2.2799408E-15
  -1.240000      2.4559816E-15
  -1.230000      2.6457690E-15
  -1.220000      2.8486122E-15
  -1.210000      3.0632445E-15
  -1.200000      3.2878389E-15
  -1.190000      3.5200540E-15
  -1.180000      3.7571125E-15
  -1.170000      3.9959084E-15
  -1.160000      4.2331374E-15
  -1.150000      4.4654476E-15
  -1.140000      4.6895975E-15
  -1.130000      4.9026203E-15
  -1.120000      5.1019780E-15
  -1.110000      5.2857007E-15
  -1.100000      5.4525002E-15
  -1.090000      5.6018499E-15
  -1.080000      5.7340217E-15
  -1.070000      5.8500881E-15
  -1.060000      5.9518646E-15
  -1.050000      6.0418161E-15
  -1.040000      6.1229128E-15
  -1.030000      6.1984533E-15
  -1.020000      6.2718542E-15
  -1.010000      6.3464265E-15
  -1.000000      6.4251371E-15
 -0.9900000      6.5103795E-15
 -0.9800000      6.6037666E-15
 -0.9700000      6.7059535E-15
 -0.9600000      6.8164993E-15
 -0.9500000      6.9337914E-15
 -0.9400000      7.0550196E-15
 -0.9300000      7.1762215E-15
 -0.9200000      7.2923946E-15
 -0.9100000      7.3976673E-15
 -0.9000000      7.4855181E-15
 -0.8900000      7.5490507E-15
 -0.8800000      7.5812905E-15
 -0.8700000      7.5755002E-15
 -0.8600000      7.5254871E-15
 -0.8500000      7.4258938E-15
 -0.8400000      7.2724614E-15
 -0.8300000      7.0622071E-15
 -0.8200000      6.7935600E-15
 -0.8100000      6.4664007E-15
 -0.8000000      6.0820193E-15
 -0.7900000      5.6429839E-15
 -0.7800000      5.1529143E-15
 -0.7700000      4.6161805E-15
 -0.7600000      4.0375325E-15
 -0.7500000      3.4216705E-15
 -0.7400000      2.7727899E-15
 -0.7300000      2.0940984E-15
 -0.7200000      1.3873588E-15
 -0.7100000      6.5246916E-16
 -0.7000000     -1.1291937E-16
 -0.6900000     -9.1369137E-16
 -0.6800000     -1.7574774E-15
 -0.6700000     -2.6547425E-15
 -0.6600000     -3.6187941E-15
 -0.6500000     -4.6656595E-15
 -0.6400000     -5.8138719E-15
 -0.6300000     -7.0841562E-15
 -0.6200000     -8.4990337E-15
 -0.6100000     -1.0082399E-14
 -0.6000000     -1.1859039E-14
 -0.5900000     -1.3854184E-14
 -0.5800000     -1.6093070E-14
 -0.5700000     -1.8600557E-14
 -0.5600000     -2.1400838E-14
 -0.5500000     -2.4517237E-14
 -0.5400000     -2.7972175E-14
 -0.5300000     -3.1787222E-14
 -0.5200000     -3.5983305E-14
 -0.5100000     -4.0581077E-14
 -0.5000000     -4.5601381E-14
 -0.4900000     -5.1065878E-14
 -0.4800000     -5.6997701E-14
 -0.4700000     -6.3422215E-14
 -0.4600000     -7.0367831E-14
 -0.4500000     -7.7866777E-14
 -0.4400000     -8.5955853E-14
 -0.4300000     -9.4677128E-14
 -0.4200000     -1.0407851E-13
 -0.4100000     -1.1421423E-13
 -0.4000000     -1.2514513E-13
 -0.3900000     -1.3693879E-13
 -0.3800000     -1.4966946E-13
 -0.3700000     -1.6341796E-13
 -0.3600000     -1.7827126E-13
 -0.3500000     -1.9432193E-13
 -0.3400000     -2.1166761E-13
 -0.3300000     -2.3041012E-13
 -0.3200000     -2.5065488E-13
 -0.3100000     -2.7250991E-13
 -0.3000000     -2.9608515E-13
 -0.2900000     -3.2149178E-13
 -0.2800000     -3.4884153E-13
 -0.2700000     -3.7824632E-13
 -0.2600000     -4.0981785E-13
 -0.2500000     -4.4366756E-13
 -0.2400000     -4.7990680E-13
 -0.2300000     -5.1864697E-13
 -0.2200000     -5.6000018E-13
 -0.2100000     -6.0408005E-13
 -0.2000000     -6.5100226E-13
 -0.1900000     -7.0088596E-13
 -0.1800000     -7.5385450E-13
 -0.1700000     -8.1003688E-13
 -0.1600000     -8.6956863E-13
 -0.1500000     -9.3259276E-13
 -0.1400000     -9.9926068E-13
 -0.1300000     -1.0697328E-12
 -0.1200000     -1.1441792E-12
 -0.1100000     -1.2227787E-12
 -0.1000000     -1.3057202E-12
 -9.0000004E-02 -1.3932003E-12
 -7.9999998E-02 -1.4854238E-12
 -7.0000000E-02 -1.5826013E-12
 -5.9999999E-02 -1.6849483E-12
 -5.0000001E-02 -1.7926823E-12
 -3.9999999E-02 -1.9060209E-12
 -2.9999999E-02 -2.0251802E-12
 -2.0000000E-02 -2.1503706E-12
 -9.9999998E-03 -2.2817963E-12
 -3.4694470E-17 -2.4196513E-12
  9.9999998E-03 -2.5641175E-12
  2.0000000E-02 -2.7153633E-12
  2.9999999E-02 -2.8735415E-12
  3.9999999E-02 -3.0387878E-12
  5.0000001E-02 -3.2112208E-12
  5.9999999E-02 -3.3909410E-12
  7.0000000E-02 -3.5780309E-12
  7.9999998E-02 -3.7725561E-12
  9.0000004E-02 -3.9745646E-12
  0.1000000     -4.1840901E-12
  0.1100000     -4.4011513E-12
  0.1200000     -4.6257542E-12
  0.1300000     -4.8578936E-12
  0.1400000     -5.0975526E-12
  0.1500000     -5.3447025E-12
  0.1600000     -5.5993049E-12
  0.1700000     -5.8613101E-12
  0.1800000     -6.1306515E-12
  0.1900000     -6.4072480E-12
  0.2000000     -6.6909984E-12
  0.2100000     -6.9817737E-12
  0.2200000     -7.2794167E-12
  0.2300000     -7.5837323E-12
  0.2400000     -7.8944811E-12
  0.2500000     -8.2113752E-12
  0.2600000     -8.5340649E-12
  0.2700000     -8.8621376E-12
  0.2800000     -9.1951073E-12
  0.2900000     -9.5324096E-12
  0.3000000     -9.8733955E-12
  0.3100000     -1.0217327E-11
  0.3200000     -1.0563372E-11
  0.3300000     -1.0910607E-11
  0.3400000     -1.1258011E-11
  0.3500000     -1.1604471E-11
  0.3600000     -1.1948779E-11
  0.3700000     -1.2289635E-11
  0.3800000     -1.2625654E-11
  0.3900000     -1.2955367E-11
  0.4000000     -1.3277223E-11
  0.4100000     -1.3589594E-11
  0.4200000     -1.3890777E-11
  0.4300000     -1.4178995E-11
  0.4400000     -1.4452393E-11
  0.4500000     -1.4709045E-11
  0.4600000     -1.4946941E-11
  0.4700000     -1.5163988E-11
  0.4800000     -1.5357991E-11
  0.4900000     -1.5526662E-11
  0.5000000     -1.5667589E-11
  0.5100000     -1.5778236E-11
  0.5200000     -1.5855935E-11
  0.5300000     -1.5897854E-11
  0.5400000     -1.5901006E-11
  0.5500000     -1.5862230E-11
  0.5600000     -1.5778183E-11
  0.5700000     -1.5645327E-11
  0.5800000     -1.5459942E-11
  0.5900000     -1.5218106E-11
  0.6000000     -1.4915709E-11
  0.6100000     -1.4548461E-11
  0.6200000     -1.4111893E-11
  0.6300000     -1.3601379E-11
  0.6400000     -1.3012143E-11
  0.6500000     -1.2339282E-11
  0.6600000     -1.1577773E-11
  0.6700000     -1.0722499E-11
  0.6800000     -9.7682713E-12
  0.6900000     -8.7098427E-12
  0.7000000     -7.5419193E-12
  0.7100000     -6.2591690E-12
  0.7200000     -4.8562317E-12
  0.7300000     -3.3277296E-12
  0.7400000     -1.6682637E-12
  0.7500000      1.2758830E-13
  0.7600000      2.0652720E-12
  0.7700000      4.1502652E-12
  0.7800000      6.3881006E-12
  0.7900000      8.7843448E-12
  0.8000000      1.1344631E-11
  0.8100000      1.4074659E-11
  0.8200000      1.6980186E-11
  0.8300000      2.0067037E-11
  0.8400000      2.3341070E-11
  0.8500000      2.6808193E-11
  0.8600000      3.0474328E-11
  0.8700000      3.4345377E-11
  0.8800000      3.8427192E-11
  0.8900000      4.2725525E-11
  0.9000000      4.7245985E-11
  0.9100000      5.1993986E-11
  0.9200000      5.6974675E-11
  0.9300000      6.2192897E-11
  0.9400000      6.7653119E-11
  0.9500000      7.3359409E-11
  0.9600000      7.9315325E-11
  0.9700000      8.5523907E-11
  0.9800000      9.1987640E-11
  0.9900000      9.8708403E-11
   1.000000      1.0568742E-10
   1.010000      1.1292531E-10
   1.020000      1.2042199E-10
   1.030000      1.2817673E-10
   1.040000      1.3618807E-10
   1.050000      1.4445393E-10
   1.060000      1.5297151E-10
   1.070000      1.6173733E-10
   1.080000      1.7074722E-10
   1.090000      1.7999625E-10
   1.100000      1.8947875E-10
   1.110000      1.9918829E-10
   1.120000      2.0911761E-10
   1.130000      2.1925858E-10
   1.140000      2.2960213E-10
   1.150000      2.4013810E-10
   1.160000      2.5085528E-10
   1.170000      2.6174118E-10
   1.180000      2.7278205E-10
   1.190000      2.8396271E-10
   1.200000      2.9526648E-10
   1.210000      3.0667507E-10
   1.220000      3.1816852E-10
   1.230000      3.2972503E-10
   1.240000      3.4132108E-10
   1.250000      3.5293124E-10
   1.260000      3.6452816E-10
   1.270000      3.7608258E-10
   1.280000      3.8756334E-10
   1.290000      3.9893738E-10
   1.300000      4.1016979E-10
   1.310000      4.2122375E-10
   1.320000      4.3206072E-10
   1.330000      4.4264034E-10
   1.340000      4.5292053E-10
   1.350000      4.6285761E-10
   1.360000      4.7240628E-10
   1.370000      4.8151944E-10
   1.380000      4.9014859E-10
   1.390000      4.9824345E-10
   1.400000      5.0575200E-10
   1.410000      5.1262072E-10
   1.420000      5.1879412E-10
   1.430000      5.2421506E-10
   1.440000      5.2882448E-10
   1.450000      5.3256149E-10
   1.460000      5.3536309E-10
   1.470000      5.3716431E-10
   1.480000      5.3789811E-10
   1.490000      5.3749544E-10
   1.500000      5.3588523E-10
   1.510000      5.3299437E-10
   1.520000      5.2874793E-10
   1.530000      5.2306925E-10
   1.540000      5.1588001E-10
   1.550000      5.0710047E-10
   1.560000      4.9664967E-10
   1.570000      4.8444571E-10
   1.580000      4.7040583E-10
   1.590000      4.5444676E-10
   1.600000      4.3648496E-10
   1.610000      4.1643694E-10
   1.620000      3.9421943E-10
   1.630000      3.6974959E-10
   1.640000      3.4294523E-10
   1.650000      3.1372493E-10
   1.660000      2.8200842E-10
   1.670000      2.4771662E-10
   1.680000      2.1077172E-10
   1.690000      1.7109734E-10
   1.700000      1.2861857E-10
   1.710000      8.3262335E-11
   1.720000      3.4957176E-11
   1.730000     -1.6366511E-11
   1.740000     -7.0776114E-11
   1.750000     -1.2833683E-10
   1.760000     -1.8911135E-10
   1.770000     -2.5315960E-10
   1.780000     -3.2053854E-10
   1.790000     -3.9130157E-10
   1.800000     -4.6549845E-10
   1.810000     -5.4317451E-10
   1.820000     -6.2437028E-10
   1.830000     -7.0912126E-10
   1.840000     -7.9745716E-10
   1.850000     -8.8940127E-10
   1.860000     -9.8497011E-10
   1.870000     -1.0841730E-09
   1.880000     -1.1870108E-09
   1.890000     -1.2934768E-09
   1.900000     -1.4035552E-09
   1.910000     -1.5172207E-09
   1.920000     -1.6344389E-09
   1.930000     -1.7551652E-09
   1.940000     -1.8793456E-09
   1.950000     -2.0069151E-09
   1.960000     -2.1377984E-09
   1.970000     -2.2719100E-09
   1.980000     -2.4091531E-09
   1.990000     -2.5494207E-09
   2.000000     -2.6925937E-09
   2.010000     -2.8385427E-09
   2.020000     -2.9871268E-09
   2.030000     -3.1381924E-09
   2.040000     -3.2915746E-09
   2.050000     -3.4470964E-09
   2.060000     -3.6045678E-09
   2.070000     -3.7637857E-09
   2.080000     -3.9245340E-09
   2.090000     -4.0865817E-09
   2.100000     -4.2496846E-09
   2.110000     -4.4135824E-09
   2.120000     -4.5780002E-09
   2.130000     -4.7426481E-09
   2.140000     -4.9072177E-09
   2.150000     -5.0713869E-09
   2.160000     -5.2348157E-09
   2.170000     -5.3971481E-09
   2.180000     -5.5580109E-09
   2.190000     -5.7170153E-09
   2.200000     -5.8737561E-09
   2.210000     -6.0278125E-09
   2.220000     -6.1787464E-09
   2.230000     -6.3261081E-09
   2.240000     -6.4694303E-09
   2.250000     -6.6082335E-09
   2.260000     -6.7420238E-09
   2.270000     -6.8702946E-09
   2.280000     -6.9925279E-09
   2.290000     -7.1081940E-09
   2.300000     -7.2167521E-09
   2.310000     -7.3176505E-09
   2.320000     -7.4103261E-09
   2.330000     -7.4942088E-09
   2.340000     -7.5687154E-09
   2.350000     -7.6332585E-09
   2.360000     -7.6872375E-09
   2.370000     -7.7300477E-09
   2.380000     -7.7610744E-09
   2.390000     -7.7796960E-09
   2.400000     -7.7852853E-09
   2.410000     -7.7772100E-09
   2.420000     -7.7548297E-09
   2.430000     -7.7175031E-09
   2.440000     -7.6645845E-09
   2.450000     -7.5954283E-09
   2.460000     -7.5093904E-09
   2.470000     -7.4058257E-09
   2.480000     -7.2840920E-09
   2.490000     -7.1435537E-09
   2.500000     -6.9835826E-09
   2.510000     -6.8035586E-09
   2.520000     -6.6028734E-09
   2.530000     -6.3809313E-09
   2.540000     -6.1371517E-09
   2.550000     -5.8709699E-09
   2.560000     -5.5818421E-09
   2.570000     -5.2692437E-09
   2.580000     -4.9326738E-09
   2.590000     -4.5716533E-09
   2.600000     -4.1857295E-09
   2.610000     -3.7744763E-09
   2.620000     -3.3374952E-09
   2.630000     -2.8744180E-09
   2.640000     -2.3849096E-09
   2.650000     -1.8686659E-09
   2.660000     -1.3254176E-09
   2.670000     -7.5493062E-10
   2.680000     -1.5700748E-10
   2.690000      4.6850890E-10
   2.700000      1.1217337E-09
   2.710000      1.8027398E-09
   2.720000      2.5115550E-09
   2.730000      3.2481584E-09
   2.740000      4.0124797E-09
   2.750000      4.8043969E-09
   2.760000      5.6237317E-09
   2.770000      6.4702492E-09
   2.780000      7.3436532E-09
   2.790000      8.2435854E-09
   2.800000      9.1696233E-09
   2.810000      1.0121277E-08
   2.820000      1.1097988E-08
   2.830000      1.2099129E-08
   2.840000      1.3123999E-08
   2.850000      1.4171824E-08
   2.860000      1.5241758E-08
   2.870000      1.6332880E-08
   2.880000      1.7444192E-08
   2.890000      1.8574623E-08
   2.900000      1.9723021E-08
   2.910000      2.0888162E-08
   2.920000      2.2068743E-08
   2.930000      2.3263388E-08
   2.940000      2.4470642E-08
   2.950000      2.5688976E-08
   2.960000      2.6916782E-08
   2.970000      2.8152375E-08
   2.980000      2.9393997E-08
   2.990000      3.0639807E-08
   3.000000      3.1887890E-08
   3.010000      3.3136256E-08
   3.020000      3.4382833E-08
   3.030000      3.5625472E-08
   3.040000      3.6861948E-08
   3.050000      3.8089954E-08
   3.060000      3.9307114E-08
   3.070000      4.0510972E-08
   3.080000      4.1699000E-08
   3.090000      4.2868585E-08
   3.100000      4.4017060E-08
   3.110000      4.5141686E-08
   3.120000      4.6239645E-08
   3.130000      4.7308074E-08
   3.140000      4.8344038E-08
   3.150000      4.9344557E-08
   3.160000      5.0306593E-08
   3.170000      5.1227065E-08
   3.180000      5.2102845E-08
   3.190000      5.2930773E-08
   3.200000      5.3707659E-08
   3.210000      5.4430277E-08
   3.220000      5.5095388E-08
   3.230000      5.5699733E-08
   3.240000      5.6240030E-08
   3.250000      5.6712995E-08
   3.260000      5.7115340E-08
   3.270000      5.7443774E-08
   3.280000      5.7695019E-08
   3.290000      5.7865790E-08
   3.300000      5.7952835E-08
   3.310000      5.7952906E-08
   3.320000      5.7862781E-08
   3.330000      5.7679276E-08
   3.340000      5.7399248E-08
   3.350000      5.7019594E-08
   3.360000      5.6537246E-08
   3.370000      5.5949211E-08
   3.380000      5.5252560E-08
   3.390000      5.4444413E-08
   3.400000      5.3521990E-08
   3.410000      5.2482594E-08
   3.420000      5.1323621E-08
   3.430000      5.0042576E-08
   3.440000      4.8637087E-08
   3.450000      4.7104894E-08
   3.460000      4.5443869E-08
   3.470000      4.3652019E-08
   3.480000      4.1727510E-08
   3.490000      3.9668652E-08
   3.500000      3.7473935E-08
   3.510000      3.5142005E-08
   3.520000      3.2671686E-08
   3.530000      3.0061994E-08
   3.540000      2.7312138E-08
   3.550000      2.4421523E-08
   3.560000      2.1389747E-08
   3.570000      1.8216630E-08
   3.580000      1.4902193E-08
   3.590000      1.1446691E-08
   3.600000      7.8506073E-09
   3.610000      4.1146491E-09
   3.620000      2.3975355E-10
   3.630000     -3.7728971E-09
   3.640000     -7.9218561E-09
   3.650000     -1.2205423E-08
   3.660000     -1.6621643E-08
   3.670000     -2.1168296E-08
   3.680000     -2.5842882E-08
   3.690000     -3.0642624E-08
   3.700000     -3.5564462E-08
   3.710000     -4.0605045E-08
   3.720000     -4.5760714E-08
   3.730000     -5.1027534E-08
   3.740000     -5.6401252E-08
   3.750000     -6.1877316E-08
   3.760000     -6.7450863E-08
   3.770000     -7.3116738E-08
   3.780000     -7.8869448E-08
   3.790000     -8.4703231E-08
   3.800000     -9.0611984E-08
   3.810000     -9.6589311E-08
   3.820000     -1.0262853E-07
   3.830000     -1.0872264E-07
   3.840000     -1.1486435E-07
   3.850000     -1.2104609E-07
   3.860000     -1.2725998E-07
   3.870000     -1.3349789E-07
   3.880000     -1.3975138E-07
   3.890000     -1.4601177E-07
   3.900000     -1.5227009E-07
   3.910000     -1.5851714E-07
   3.920000     -1.6474344E-07
   3.930000     -1.7093929E-07
   3.940000     -1.7709471E-07
   3.950000     -1.8319953E-07
   3.960000     -1.8924335E-07
   3.970000     -1.9521552E-07
   3.980000     -2.0110519E-07
   3.990000     -2.0690136E-07
   4.000000     -2.1259278E-07
   4.010000     -2.1816804E-07
   4.020000     -2.2361557E-07
   4.030000     -2.2892365E-07
   4.040000     -2.3408040E-07
   4.050000     -2.3907387E-07
   4.060000     -2.4389198E-07
   4.070000     -2.4852247E-07
   4.080000     -2.5295310E-07
   4.090000     -2.5717156E-07
   4.100000     -2.6116552E-07
   4.110000     -2.6492259E-07
   4.120000     -2.6843043E-07
   4.130000     -2.7167667E-07
   4.140000     -2.7464904E-07
   4.150000     -2.7733526E-07
   4.160000     -2.7972325E-07
   4.170000     -2.8180091E-07
   4.180000     -2.8355629E-07
   4.190000     -2.8497766E-07
   4.200000     -2.8605336E-07
   4.210000     -2.8677201E-07
   4.220000     -2.8712236E-07
   4.230000     -2.8709337E-07
   4.240000     -2.8667432E-07
   4.250000     -2.8585467E-07
   4.260000     -2.8462418E-07
   4.270000     -2.8297299E-07
   4.280000     -2.8089150E-07
   4.290000     -2.7837041E-07
   4.300000     -2.7540085E-07
   4.310000     -2.7197436E-07
   4.320000     -2.6808280E-07
   4.330000     -2.6371853E-07
   4.340000     -2.5887434E-07
   4.350000     -2.5354350E-07
   4.360000     -2.4771987E-07
   4.370000     -2.4139774E-07
   4.380000     -2.3457203E-07
   4.390000     -2.2723817E-07
   4.400000     -2.1939225E-07
   4.410000     -2.1103094E-07
   4.420000     -2.0215155E-07
   4.430000     -1.9275211E-07
   4.440000     -1.8283127E-07
   4.450000     -1.7238834E-07
   4.460000     -1.6142346E-07
   4.470000     -1.4993741E-07
   4.480000     -1.3793174E-07
   4.490000     -1.2540870E-07
   4.500000     -1.1237139E-07
   4.510000     -9.8823641E-08
   4.520000     -8.4770043E-08
   4.530000     -7.0216004E-08
   4.540000     -5.5167725E-08
   4.550000     -3.9632244E-08
   4.560000     -2.3617401E-08
   4.570000     -7.1318720E-09
   4.580000      9.8148671E-09
   4.590000      2.7212469E-08
   4.600000      4.5049749E-08
   4.610000      6.3314701E-08
   4.620000      8.1994401E-08
   4.630000      1.0107508E-07
   4.640000      1.2054217E-07
   4.650000      1.4038015E-07
   4.660000      1.6057274E-07
   4.670000      1.8110268E-07
   4.680000      2.0195186E-07
   4.690000      2.2310137E-07
   4.700000      2.4453144E-07
   4.710000      2.6622143E-07
   4.720000      2.8814989E-07
   4.730000      3.1029458E-07
   4.740000      3.3263240E-07
   4.750000      3.5513949E-07
   4.760000      3.7779120E-07
   4.770000      4.0056219E-07
   4.780000      4.2342634E-07
   4.790000      4.4635695E-07
   4.800000      4.6932658E-07
   4.810000      4.9230704E-07
   4.820000      5.1526962E-07
   4.830000      5.3818513E-07
   4.840000      5.6102363E-07
   4.850000      5.8375463E-07
   4.860000      6.0634738E-07
   4.870000      6.2877029E-07
   4.880000      6.5099152E-07
   4.890000      6.7297873E-07
   4.900000      6.9469928E-07
   4.910000      7.1612010E-07
   4.920000      7.3720770E-07
   4.930000      7.5792849E-07
   4.940000      7.7824842E-07
   4.950000      7.9813333E-07
   4.960000      8.1754871E-07
   4.970000      8.3646012E-07
   4.980000      8.5483288E-07
   4.990000      8.7263220E-07
   5.000000      8.8982347E-07
   5.010000      9.0637195E-07
   5.020000      9.2224303E-07
   5.030000      9.3740232E-07
   5.040000      9.5181537E-07
   5.050000      9.6544818E-07
   5.060000      9.7826717E-07
   5.070000      9.9023862E-07
   5.080000      1.0013298E-06
   5.090000      1.0115078E-06
   5.100000      1.0207408E-06
   5.110000      1.0289971E-06
   5.120000      1.0362457E-06
   5.130000      1.0424563E-06
   5.140000      1.0475994E-06
   5.150000      1.0516459E-06
   5.160000      1.0545675E-06
   5.170000      1.0563372E-06
   5.180000      1.0569282E-06
   5.190000      1.0563150E-06
   5.200000      1.0544730E-06
   5.210000      1.0513785E-06
   5.220000      1.0470087E-06
   5.230000      1.0413420E-06
   5.240000      1.0343580E-06
   5.250000      1.0260375E-06
   5.260000      1.0163621E-06
   5.270000      1.0053153E-06
   5.280000      9.9288138E-07
   5.290000      9.7904604E-07
   5.300000      9.6379654E-07
   5.310000      9.4712141E-07
   5.320000      9.2901087E-07
   5.330000      9.0945645E-07
   5.340000      8.8845127E-07
   5.350000      8.6599010E-07
   5.360000      8.4206948E-07
   5.370000      8.1668747E-07
   5.380000      7.8984374E-07
   5.390000      7.6153964E-07
   5.400000      7.3177836E-07
   5.410000      7.0056478E-07
   5.420000      6.6790545E-07
   5.430000      6.3380878E-07
   5.440000      5.9828506E-07
   5.450000      5.6134610E-07
   5.460000      5.2300578E-07
   5.470000      4.8327968E-07
   5.480000      4.4218498E-07
   5.490000      3.9974094E-07
   5.500000      3.5596838E-07
   5.510000      3.1089010E-07
   5.520000      2.6453066E-07
   5.530000      2.1691656E-07
   5.540000      1.6807596E-07
   5.550000      1.1803886E-07
   5.560000      6.6837210E-08
   5.570000      1.4504733E-08
   5.580000     -3.8923105E-08
   5.590000     -9.3408993E-08
   5.600000     -1.4891386E-07
   5.610000     -2.0539680E-07
   5.620000     -2.6281526E-07
   5.630000     -3.2112484E-07
   5.640000     -3.8027952E-07
   5.650000     -4.4023167E-07
   5.660000     -5.0093200E-07
   5.670000     -5.6232960E-07
   5.680000     -6.2437198E-07
   5.690000     -6.8700518E-07
   5.700000     -7.5017385E-07
   5.710000     -8.1382115E-07
   5.720000     -8.7788874E-07
   5.730000     -9.4231717E-07
   5.740000     -1.0070459E-06
   5.750000     -1.0720127E-06
   5.760000     -1.1371544E-06
   5.770000     -1.2024070E-06
   5.780000     -1.2677050E-06
   5.790000     -1.3329823E-06
   5.800000     -1.3981715E-06
   5.810000     -1.4632047E-06
   5.820000     -1.5280131E-06
   5.830000     -1.5925267E-06
   5.840000     -1.6566754E-06
   5.850000     -1.7203881E-06
   5.860000     -1.7835931E-06
   5.870000     -1.8462183E-06
   5.880000     -1.9081911E-06
   5.890000     -1.9694382E-06
   5.900000     -2.0298862E-06
   5.910000     -2.0894615E-06
   5.920000     -2.1480907E-06
   5.930000     -2.2056997E-06
   5.940000     -2.2622146E-06
   5.950000     -2.3175610E-06
   5.960000     -2.3716657E-06
   5.970000     -2.4244548E-06
   5.980000     -2.4758549E-06
   5.990000     -2.5257934E-06
   6.000000     -2.5741979E-06
   6.010000     -2.6209964E-06
   6.020000     -2.6661176E-06
   6.030000     -2.7094909E-06
   6.040000     -2.7510468E-06
   6.050000     -2.7907161E-06
   6.060000     -2.8284308E-06
   6.070000     -2.8641241E-06
   6.080000     -2.8977297E-06
   6.090000     -2.9291830E-06
   6.100000     -2.9584203E-06
   6.110000     -2.9853791E-06
   6.120000     -3.0099989E-06
   6.130000     -3.0322194E-06
   6.140000     -3.0519830E-06
   6.150000     -3.0692324E-06
   6.160000     -3.0839128E-06
   6.170000     -3.0959711E-06
   6.180000     -3.1053546E-06
   6.190000     -3.1120139E-06
   6.200000     -3.1159009E-06
   6.210000     -3.1169691E-06
   6.220000     -3.1151735E-06
   6.230000     -3.1104723E-06
   6.240000     -3.1028251E-06
   6.250000     -3.0921935E-06
   6.260000     -3.0785420E-06
   6.270000     -3.0618371E-06
   6.280000     -3.0420470E-06
   6.290000     -3.0191422E-06
   6.300000     -2.9930968E-06
   6.310000     -2.9638861E-06
   6.320000     -2.9314890E-06
   6.330000     -2.8958862E-06
   6.340000     -2.8570612E-06
   6.350000     -2.8149998E-06
   6.360000     -2.7696908E-06
   6.370000     -2.7211252E-06
   6.380000     -2.6692974E-06
   6.390000     -2.6142043E-06
   6.400000     -2.5558452E-06
   6.410000     -2.4942226E-06
   6.420000     -2.4293415E-06
   6.430000     -2.3612092E-06
   6.440000     -2.2898362E-06
   6.450000     -2.2152356E-06
   6.460000     -2.1374231E-06
   6.470000     -2.0564173E-06
   6.480000     -1.9722399E-06
   6.490000     -1.8849150E-06
   6.500000     -1.7944703E-06
   6.510000     -1.7009354E-06
   6.520000     -1.6043430E-06
   6.530000     -1.5047287E-06
   6.540000     -1.4021311E-06
   6.550000     -1.2965917E-06
   6.560000     -1.1881546E-06
   6.570000     -1.0768667E-06
   6.580000     -9.6277802E-07
   6.590000     -8.4594132E-07
   6.600000     -7.2641240E-07
   6.610000     -6.0424975E-07
   6.620000     -4.7951482E-07
   6.630000     -3.5227154E-07
   6.640000     -2.2258669E-07
   6.650000     -9.0529710E-08
   6.660000      4.3827274E-08
   6.670000      1.8040991E-07
   6.680000      3.1914092E-07
   6.690000      4.5994037E-07
   6.700000      6.0272635E-07
   6.710000      7.4741439E-07
   6.720000      8.9391727E-07
   6.730000      1.0421459E-06
   6.740000      1.1920082E-06
   6.750000      1.3434103E-06
   6.760000      1.4962561E-06
   6.770000      1.6504467E-06
   6.780000      1.8058813E-06
   6.790000      1.9624570E-06
   6.800000      2.1200688E-06
   6.810000      2.2786091E-06
   6.820000      2.4379692E-06
   6.830000      2.5980371E-06
   6.840000      2.7586996E-06
   6.850000      2.9198409E-06
   6.860000      3.0813433E-06
   6.870000      3.2430878E-06
   6.880000      3.4049538E-06
   6.890000      3.5668184E-06
   6.900000      3.7285574E-06
   6.910000      3.8900448E-06
   6.920000      4.0511532E-06
   6.930000      4.2117540E-06
   6.940000      4.3717168E-06
   6.950000      4.5309112E-06
   6.960000      4.6892033E-06
   6.970000      4.8464599E-06
   6.980000      5.0025451E-06
   6.990000      5.1573234E-06
   7.000000      5.3106583E-06
   7.010000      5.4624124E-06
   7.020000      5.6124463E-06
   7.030000      5.7606217E-06
   7.040000      5.9067970E-06
   7.050000      6.0508314E-06
   7.060000      6.1925834E-06