  -2.600000      0.0000000E+00
  -2.590000      0.0000000E+00
  -2.580000      0.0000000E+00
  -2.570000      0.0000000E+00
  -2.560000      0.0000000E+00
  -2.550000      0.0000000E+00
  -2.540000      0.0000000E+00
  -2.530000      0.0000000E+00
  -2.520000      0.0000000E+00
  -2.510000      0.0000000E+00
  -2.500000      0.0000000E+00
  -2.490000      0.0000000E+00
  -2.480000      0.0000000E+00
  -2.470000      0.0000000E+00
  -2.460000      0.0000000E+00
  -2.450000      0.0000000E+00
  -2.440000      0.0000000E+00
  -2.430000      0.0000000E+00
  -2.420000      0.0000000E+00
  -2.410000      0.0000000E+00
  -2.400000      0.0000000E+00
  -2.390000      0.0000000E+00
  -2.380000      0.0000000E+00
  -2.370000      0.0000000E+00
  -2.360000      0.0000000E+00
  -2.350000      0.0000000E+00
  -2.340000      0.0000000E+00
  -2.330000      0.0000000E+00
  -2.320000      0.0000000E+00
  -2.310000      0.0000000E+00
  -2.300000      0.0000000E+00
  -2.290000      0.0000000E+00
  -2.280000      0.0000000E+00
  -2.270000      0.0000000E+00
  -2.260000      0.0000000E+00
  -2.250000      0.0000000E+00
  -2.240000      0.0000000E+00
  -2.230000      0.0000000E+00
  -2.220000      0.0000000E+00
  -2.210000      0.0000000E+00
  -2.200000      0.0000000E+00
  -2.190000      0.0000000E+00
  -2.180000      0.0000000E+00
  -2.170000      0.0000000E+00
  -2.160000      0.0000000E+00
  -2.150000      0.0000000E+00
  -2.140000      0.0000000E+00
  -2.130000      0.0000000E+00
  -2.120000      0.0000000E+00
  -2.110000      0.0000000E+00
  -2.100000      0.0000000E+00
  -2.090000      0.0000000E+00
  -2.080000      0.0000000E+00
  -2.070000      0.0000000E+00
  -2.060000      0.0000000E+00
  -2.050000      0.0000000E+00
  -2.040000      0.0000000E+00
  -2.030000      0.0000000E+00
  -2.020000      0.0000000E+00
  -2.010000      0.0000000E+00
  -2.000000      0.0000000E+00
  -1.990000      0.0000000E+00
  -1.980000      0.0000000E+00
  -1.970000      0.0000000E+00
  -1.960000      0.0000000E+00
  -1.950000      0.0000000E+00
  -1.940000      0.0000000E+00
  -1.930000      0.0000000E+00
  -1.920000      0.0000000E+00
  -1.910000      0.0000000E+00
  -1.900000      0.0000000E+00
  -1.890000      0.0000000E+00
  -1.880000      0.0000000E+00
  -1.870000      0.0000000E+00
  -1.860000      0.0000000E+00
  -1.850000      0.0000000E+00
  -1.840000      0.0000000E+00
  -1.830000      0.0000000E+00
  -1.820000      0.0000000E+00
  -1.810000      0.0000000E+00
  -1.800000      0.0000000E+00
  -1.790000      0.0000000E+00
  -1.780000      0.0000000E+00
  -1.770000      0.0000000E+00
  -1.760000      0.0000000E+00
  -1.750000      0.0000000E+00
  -1.740000      0.0000000E+00
  -1.730000      0.0000000E+00
  -1.720000      0.0000000E+00
  -1.710000      0.0000000E+00
  -1.700000      0.0000000E+00
  -1.690000      0.0000000E+00
  -1.680000      0.0000000E+00
  -1.670000      0.0000000E+00
  -1.660000      0.0000000E+00
  -1.650000      0.0000000E+00
  -1.640000      0.0000000E+00
  -1.630000      0.0000000E+00
  -1.620000      0.0000000E+00
  -1.610000      0.0000000E+00
  -1.600000      0.0000000E+00
  -1.590000      0.0000000E+00
  -1.580000      0.0000000E+00
  -1.570000      0.0000000E+00
  -1.560000      0.0000000E+00
  -1.550000      0.0000000E+00
  -1.540000      0.0000000E+00
  -1.530000      0.0000000E+00
  -1.520000      0.0000000E+00
  -1.510000      0.0000000E+00
  -1.500000      0.0000000E+00
  -1.490000      0.0000000E+00
  -1.480000      0.0000000E+00
  -1.470000      0.0000000E+00
  -1.460000      0.0000000E+00
  -1.450000      0.0000000E+00
  -1.440000      0.0000000E+00
  -1.430000      0.0000000E+00
  -1.420000      0.0000000E+00
  -1.410000      0.0000000E+00
  -1.400000      0.0000000E+00
  -1.390000      0.0000000E+00
  -1.380000      0.0000000E+00
  -1.370000      0.0000000E+00
  -1.360000      0.0000000E+00
  -1.350000      0.0000000E+00
  -1.340000      0.0000000E+00
  -1.330000      0.0000000E+00
  -1.320000      0.0000000E+00
  -1.310000      0.0000000E+00
  -1.300000      0.0000000E+00
  -1.290000      0.0000000E+00
  -1.280000      0.0000000E+00
  -1.270000      0.0000000E+00
  -1.260000      0.0000000E+00
  -1.250000      0.0000000E+00
  -1.240000      0.0000000E+00
  -1.230000      0.0000000E+00
  -1.220000      0.0000000E+00
  -1.210000      0.0000000E+00
  -1.200000      0.0000000E+00
  -1.190000      0.0000000E+00
  -1.180000      0.0000000E+00
  -1.170000      0.0000000E+00
  -1.160000      0.0000000E+00
  -1.150000      0.0000000E+00
  -1.140000      0.0000000E+00
  -1.130000      0.0000000E+00
  -1.120000      0.0000000E+00
  -1.110000      0.0000000E+00
  -1.100000      0.0000000E+00
  -1.090000      0.0000000E+00
  -1.080000      0.0000000E+00
  -1.070000      0.0000000E+00
  -1.060000      0.0000000E+00
  -1.050000      0.0000000E+00
  -1.040000      0.0000000E+00
  -1.030000      0.0000000E+00
  -1.020000      0.0000000E+00
  -1.010000      0.0000000E+00
  -1.000000      0.0000000E+00
 -0.9900000      0.0000000E+00
 -0.9800000      0.0000000E+00
 -0.9700000      0.0000000E+00
 -0.9600000      0.0000000E+00
 -0.9500000      0.0000000E+00
 -0.9400000      0.0000000E+00
 -0.9300000      0.0000000E+00
 -0.9200000      0.0000000E+00
 -0.9100000      0.0000000E+00
 -0.9000000      0.0000000E+00
 -0.8900000      0.0000000E+00
 -0.8800000      0.0000000E+00
 -0.8700000      0.0000000E+00
 -0.8600000      0.0000000E+00
 -0.8500000      0.0000000E+00
 -0.8400000      0.0000000E+00
 -0.8300000      0.0000000E+00
 -0.8200000      0.0000000E+00
 -0.8100000      0.0000000E+00
 -0.8000000      0.0000000E+00
 -0.7900000      0.0000000E+00
 -0.7800000      0.0000000E+00
 -0.7700000      0.0000000E+00
 -0.7600000      0.0000000E+00
 -0.7500000      0.0000000E+00
 -0.7400000      0.0000000E+00
 -0.7300000      0.0000000E+00
 -0.7200000      0.0000000E+00
 -0.7100000      0.0000000E+00
 -0.7000000      0.0000000E+00
 -0.6900000      0.0000000E+00
 -0.6800000      0.0000000E+00
 -0.6700000      0.0000000E+00
 -0.6600000      0.0000000E+00
 -0.6500000      0.0000000E+00
 -0.6400000      0.0000000E+00
 -0.6300000      0.0000000E+00
 -0.6200000      0.0000000E+00
 -0.6100000      0.0000000E+00
 -0.6000000      0.0000000E+00
 -0.5900000      0.0000000E+00
 -0.5800000      0.0000000E+00
 -0.5700000      0.0000000E+00
 -0.5600000      0.0000000E+00
 -0.5500000      0.0000000E+00
 -0.5400000      0.0000000E+00
 -0.5300000      0.0000000E+00
 -0.5200000      0.0000000E+00
 -0.5100000      0.0000000E+00
 -0.5000000      0.0000000E+00
 -0.4900000      0.0000000E+00
 -0.4800000      0.0000000E+00
 -0.4700000      0.0000000E+00
 -0.4600000      0.0000000E+00
 -0.4500000      0.0000000E+00
 -0.4400000      0.0000000E+00
 -0.4300000      0.0000000E+00
 -0.4200000      0.0000000E+00
 -0.4100000      0.0000000E+00
 -0.4000000      0.0000000E+00
 -0.3900000      0.0000000E+00
 -0.3800000      0.0000000E+00
 -0.3700000      0.0000000E+00
 -0.3600000      0.0000000E+00
 -0.3500000      0.0000000E+00
 -0.3400000      0.0000000E+00
 -0.3300000      0.0000000E+00
 -0.3200000      0.0000000E+00
 -0.3100000      0.0000000E+00
 -0.3000000      0.0000000E+00
 -0.2900000      0.0000000E+00
 -0.2800000      0.0000000E+00
 -0.2700000      0.0000000E+00
 -0.2600000      0.0000000E+00
 -0.2500000      0.0000000E+00
 -0.2400000      0.0000000E+00
 -0.2300000      0.0000000E+00
 -0.2200000      0.0000000E+00
 -0.2100000      0.0000000E+00
 -0.2000000      0.0000000E+00
 -0.1900000      0.0000000E+00
 -0.1800000      0.0000000E+00
 -0.1700000      0.0000000E+00
 -0.1600000      0.0000000E+00
 -0.1500000      0.0000000E+00
 -0.1400000      0.0000000E+00
 -0.1300000      0.0000000E+00
 -0.1200000      0.0000000E+00
 -0.1100000      0.0000000E+00
 -0.1000000      0.0000000E+00
 -9.0000004E-02  0.0000000E+00
 -7.9999998E-02  0.0000000E+00
 -7.0000000E-02  0.0000000E+00
 -5.9999999E-02  0.0000000E+00
 -5.0000001E-02  0.0000000E+00
 -3.9999999E-02  0.0000000E+00
 -2.9999999E-02  0.0000000E+00
 -2.0000000E-02  0.0000000E+00
 -9.9999998E-03  0.0000000E+00
 -3.4694470E-17  0.0000000E+00
  9.9999998E-03  0.0000000E+00
  2.0000000E-02  0.0000000E+00
  2.9999999E-02  0.0000000E+00
  3.9999999E-02  0.0000000E+00
  5.0000001E-02  0.0000000E+00
  5.9999999E-02  0.0000000E+00
  7.0000000E-02  0.0000000E+00
  7.9999998E-02  0.0000000E+00
  9.0000004E-02  0.0000000E+00
  0.1000000      0.0000000E+00
  0.1100000      0.0000000E+00
  0.1200000      0.0000000E+00
  0.1300000      0.0000000E+00
  0.1400000      0.0000000E+00
  0.1500000      0.0000000E+00
  0.1600000      0.0000000E+00
  0.1700000      0.0000000E+00
  0.1800000      0.0000000E+00
  0.1900000      0.0000000E+00
  0.2000000      0.0000000E+00
  0.2100000      0.0000000E+00
  0.2200000      0.0000000E+00
  0.2300000      0.0000000E+00
  0.2400000      0.0000000E+00
  0.2500000      0.0000000E+00
  0.2600000      0.0000000E+00
  0.2700000      0.0000000E+00
  0.2800000      0.0000000E+00
  0.2900000      0.0000000E+00
  0.3000000      0.0000000E+00
  0.3100000      0.0000000E+00
  0.3200000      0.0000000E+00
  0.3300000      0.0000000E+00
  0.3400000      0.0000000E+00
  0.3500000      0.0000000E+00
  0.3600000      0.0000000E+00
  0.3700000      0.0000000E+00
  0.3800000      0.0000000E+00
  0.3900000      0.0000000E+00
  0.4000000      0.0000000E+00
  0.4100000      0.0000000E+00
  0.4200000      0.0000000E+00
  0.4300000      0.0000000E+00
  0.4400000      0.0000000E+00
  0.4500000      0.0000000E+00
  0.4600000      0.0000000E+00
  0.4700000      0.0000000E+00
  0.4800000      0.0000000E+00
  0.4900000      0.0000000E+00
  0.5000000      0.0000000E+00
  0.5100000      0.0000000E+00
  0.5200000      0.0000000E+00
  0.5300000      0.0000000E+00
  0.5400000      0.0000000E+00
  0.5500000      0.0000000E+00
  0.5600000      0.0000000E+00
  0.5700000      0.0000000E+00
  0.5800000      0.0000000E+00
  0.5900000      0.0000000E+00
  0.6000000      0.0000000E+00
  0.6100000      0.0000000E+00
  0.6200000      0.0000000E+00
  0.6300000      0.0000000E+00
  0.6400000      0.0000000E+00
  0.6500000      0.0000000E+00
  0.6600000      0.0000000E+00
  0.6700000      0.0000000E+00
  0.6800000      0.0000000E+00
  0.6900000      0.0000000E+00
  0.7000000      0.0000000E+00
  0.7100000      0.0000000E+00
  0.7200000      0.0000000E+00
  0.7300000      0.0000000E+00
  0.7400000      0.0000000E+00
  0.7500000      0.0000000E+00
  0.7600000      0.0000000E+00
  0.7700000      0.0000000E+00
  0.7800000      0.0000000E+00
  0.7900000      0.0000000E+00
  0.8000000      0.0000000E+00
  0.8100000      0.0000000E+00
  0.8200000      0.0000000E+00
  0.8300000      0.0000000E+00
  0.8400000      0.0000000E+00
  0.8500000      0.0000000E+00
  0.8600000      0.0000000E+00
  0.8700000      0.0000000E+00
  0.8800000      0.0000000E+00
  0.8900000      0.0000000E+00
  0.9000000      0.0000000E+00
  0.9100000      0.0000000E+00
  0.9200000      0.0000000E+00
  0.9300000      0.0000000E+00
  0.9400000      0.0000000E+00
  0.9500000      0.0000000E+00
  0.9600000      0.0000000E+00
  0.9700000      0.0000000E+00
  0.9800000      0.0000000E+00
  0.9900000      0.0000000E+00
   1.000000      0.0000000E+00
   1.010000      0.0000000E+00
   1.020000      0.0000000E+00
   1.030000      0.0000000E+00
   1.040000      0.0000000E+00
   1.050000      0.0000000E+00
   1.060000      0.0000000E+00
   1.070000      0.0000000E+00
   1.080000      0.0000000E+00
   1.090000      0.0000000E+00
   1.100000      0.0000000E+00
   1.110000      0.0000000E+00
   1.120000      0.0000000E+00
   1.130000      0.0000000E+00
   1.140000      0.0000000E+00
   1.150000      0.0000000E+00
   1.160000      0.0000000E+00
   1.170000      0.0000000E+00
   1.180000      0.0000000E+00
   1.190000      0.0000000E+00
   1.200000      0.0000000E+00
   1.210000      0.0000000E+00
   1.220000      0.0000000E+00
   1.230000      0.0000000E+00
   1.240000      0.0000000E+00
   1.250000      0.0000000E+00
   1.260000      0.0000000E+00
   1.270000      0.0000000E+00
   1.280000      0.0000000E+00
   1.290000      0.0000000E+00
   1.300000      0.0000000E+00
   1.310000      0.0000000E+00
   1.320000      0.0000000E+00
   1.330000      0.0000000E+00
   1.340000      0.0000000E+00
   1.350000      0.0000000E+00
   1.360000      0.0000000E+00
   1.370000      0.0000000E+00
   1.380000      0.0000000E+00
   1.390000      0.0000000E+00
   1.400000      0.0000000E+00
   1.410000      0.0000000E+00
   1.420000      0.0000000E+00
   1.430000      0.0000000E+00
   1.440000      0.0000000E+00
   1.450000      0.0000000E+00
   1.460000      0.0000000E+00
   1.470000      0.0000000E+00
   1.480000      0.0000000E+00
   1.490000      0.0000000E+00
   1.500000      0.0000000E+00
   1.510000      0.0000000E+00
   1.520000      0.0000000E+00
   1.530000      0.0000000E+00
   1.540000      0.0000000E+00
   1.550000      0.0000000E+00
   1.560000      0.0000000E+00
   1.570000      0.0000000E+00
   1.580000      0.0000000E+00
   1.590000      0.0000000E+00
   1.600000      0.0000000E+00
   1.610000      0.0000000E+00
   1.620000      0.0000000E+00
   1.630000      0.0000000E+00
   1.640000      0.0000000E+00
   1.650000      0.0000000E+00
   1.660000      0.0000000E+00
   1.670000      0.0000000E+00
   1.680000      0.0000000E+00
   1.690000      0.0000000E+00
   1.700000      0.0000000E+00
   1.710000      0.0000000E+00
   1.720000      0.0000000E+00
   1.730000      0.0000000E+00
   1.740000      0.0000000E+00
   1.750000      0.0000000E+00
   1.760000      0.0000000E+00
   1.770000      0.0000000E+00
   1.780000      0.0000000E+00
   1.790000      0.0000000E+00
   1.800000      0.0000000E+00
   1.810000      0.0000000E+00
   1.820000      0.0000000E+00
   1.830000      0.0000000E+00
   1.840000      0.0000000E+00
   1.850000      0.0000000E+00
   1.860000      0.0000000E+00
   1.870000      0.0000000E+00
   1.880000      0.0000000E+00
   1.890000      0.0000000E+00
   1.900000      0.0000000E+00
   1.910000      0.0000000E+00
   1.920000      0.0000000E+00
   1.930000      0.0000000E+00
   1.940000      0.0000000E+00
   1.950000      0.0000000E+00
   1.960000      0.0000000E+00
   1.970000      0.0000000E+00
   1.980000      0.0000000E+00
   1.990000      0.0000000E+00
   2.000000      0.0000000E+00
   2.010000      0.0000000E+00
   2.020000      0.0000000E+00
   2.030000      0.0000000E+00
   2.040000      0.0000000E+00
   2.050000      0.0000000E+00
   2.060000      0.0000000E+00
   2.070000      0.0000000E+00
   2.080000      0.0000000E+00
   2.090000      0.0000000E+00
   2.100000      0.0000000E+00
   2.110000      0.0000000E+00
   2.120000      0.0000000E+00
   2.130000      0.0000000E+00
   2.140000      0.0000000E+00
   2.150000      0.0000000E+00
   2.160000      0.0000000E+00
   2.170000      0.0000000E+00
   2.180000      0.0000000E+00
   2.190000      0.0000000E+00
   2.200000      0.0000000E+00
   2.210000      0.0000000E+00
   2.220000      0.0000000E+00
   2.230000      0.0000000E+00
   2.240000      0.0000000E+00
   2.250000      0.0000000E+00
   2.260000      0.0000000E+00
   2.270000      0.0000000E+00
   2.280000      0.0000000E+00
   2.290000      0.0000000E+00
   2.300000      0.0000000E+00
   2.310000      0.0000000E+00
   2.320000      0.0000000E+00
   2.330000      0.0000000E+00
   2.340000      0.0000000E+00
   2.350000      0.0000000E+00
   2.360000      0.0000000E+00
   2.370000      0.0000000E+00
   2.380000      0.0000000E+00
   2.390000      0.0000000E+00
   2.400000      0.0000000E+00
   2.410000      0.0000000E+00
   2.420000      0.0000000E+00
   2.430000      0.0000000E+00
   2.440000      0.0000000E+00
   2.450000      0.0000000E+00
   2.460000      0.0000000E+00
   2.470000      0.0000000E+00
   2.480000      0.0000000E+00
   2.490000      0.0000000E+00
   2.500000      0.0000000E+00
   2.510000      0.0000000E+00
   2.520000      0.0000000E+00
   2.530000      0.0000000E+00
   2.540000      0.0000000E+00
   2.550000      0.0000000E+00
   2.560000      0.0000000E+00
   2.570000      0.0000000E+00
   2.580000      0.0000000E+00
   2.590000      0.0000000E+00
   2.600000      0.0000000E+00
   2.610000      0.0000000E+00
   2.620000      0.0000000E+00
   2.630000      0.0000000E+00
   2.640000      0.0000000E+00
   2.650000      0.0000000E+00
   2.660000      0.0000000E+00
   2.670000      0.0000000E+00
   2.680000      0.0000000E+00
   2.690000      0.0000000E+00
   2.700000      0.0000000E+00
   2.710000      0.0000000E+00
   2.720000      0.0000000E+00
   2.730000      0.0000000E+00
   2.740000      0.0000000E+00
   2.750000      0.0000000E+00
   2.760000      0.0000000E+00
   2.770000     -1.1807624E-38
   2.780000     -1.2776283E-38
   2.790000     -1.3844002E-38
   2.800000     -1.5008967E-38
   2.810000     -1.6267527E-38
   2.820000     -1.7614770E-38
   2.830000     -1.9044913E-38
   2.840000     -2.0551191E-38
   2.850000     -2.2125948E-38
   2.860000     -2.3760400E-38
   2.870000     -2.5445133E-38
   2.880000     -2.7140772E-38
   2.890000     -2.8916693E-38
   2.900000     -3.0809651E-38
   2.910000     -3.2720989E-38
   2.920000     -3.4641956E-38
   2.930000     -3.6596765E-38
   2.940000     -3.8589787E-38
   2.950000     -4.0541899E-38
   2.960000     -4.2456647E-38
   2.970000     -4.4456054E-38
   2.980000     -4.5544826E-38
   2.990000     -4.5666019E-38
   3.000000     -4.6043316E-38
   3.010000     -4.6567303E-38
   3.020000     -4.7137960E-38
   3.030000     -4.8939278E-38
   3.040000     -5.0901746E-38
   3.050000     -5.2018391E-38
   3.060000     -5.3284772E-38
   3.070000     -5.4698621E-38
   3.080000     -5.6249297E-38
   3.090000     -5.7874193E-38
   3.100000     -5.9237387E-38
   3.110000     -5.9913637E-38
   3.120000     -6.0015012E-38
   3.130000     -6.0346862E-38
   3.140000     -5.9463854E-38
   3.150000     -5.5293646E-38
   3.160000     -4.7962797E-38
   3.170000     -4.1471812E-38
   3.180000     -3.6572489E-38
   3.190000     -3.0378576E-38
   3.200000     -2.3322888E-38
   3.210000     -1.8073495E-38
   3.220000      0.0000000E+00
   3.230000      3.7586667E-38
   3.240000      7.4331815E-38
   3.250000      9.3701022E-38
   3.260000      9.6507829E-38
   3.270000      9.7754099E-38
   3.280000      1.3606367E-37
   3.290000      2.1377943E-37
   3.300000      2.7543147E-37
   3.310000      3.2122857E-37
   3.320000      3.5720710E-37
   3.330000      3.5898702E-37
   3.340000      3.3665839E-37
   3.350000      3.0406914E-37
   3.360000      2.7718464E-37
   3.370000      2.9507438E-37
   3.380000      3.4997698E-37
   3.390000      4.2048066E-37
   3.400000      4.9949761E-37
   3.410000      5.7803831E-37
   3.420000      6.5627332E-37
   3.430000      7.3747858E-37
   3.440000      8.7980890E-37
   3.450000      1.0803382E-36
   3.460000      1.2539266E-36
   3.470000      1.3842239E-36
   3.480000      1.4543114E-36
   3.490000      1.5073172E-36
   3.500000      1.5902938E-36
   3.510000      1.6800474E-36
   3.520000      1.7698070E-36
   3.530000      1.8584495E-36
   3.540000      1.9505067E-36
   3.550000      2.0251528E-36
   3.560000      2.0757504E-36
   3.570000      2.1242438E-36
   3.580000      2.1693976E-36
   3.590000      2.2104298E-36
   3.600000      2.2825451E-36
   3.610000      2.3650598E-36
   3.620000      2.4038981E-36
   3.630000      2.4018846E-36
   3.640000      2.3809568E-36
   3.650000      2.3418148E-36
   3.660000      2.3672979E-36
   3.670000      2.4787066E-36
   3.680000      2.7319385E-36
   3.690000      3.1484447E-36
   3.700000      3.6151581E-36
   3.710000      3.4244976E-36
   3.720000      2.5836399E-36
   3.730000      1.8088310E-36
   3.740000      1.1496359E-36
   3.750000      6.2670771E-37
   3.760000      6.4346823E-37
   3.770000      1.1606521E-36
   3.780000      1.7622166E-36
   3.790000      2.5254421E-36
   3.800000      2.6751549E-36
   3.810000      2.1001526E-36
   3.820000      1.3900999E-36
   3.830000      6.0142596E-37
   3.840000     -1.9291936E-37
   3.850000     -1.4517843E-36
   3.860000     -2.6685765E-36
   3.870000     -2.6392851E-36
   3.880000     -2.3312130E-36
   3.890000     -2.6816503E-36
   3.900000     -3.2682287E-36
   3.910000     -3.9709895E-36
   3.920000     -4.8313571E-36
   3.930000     -5.7860606E-36
   3.940000     -6.4994585E-36
   3.950000     -6.9585119E-36
   3.960000     -7.1911125E-36
   3.970000     -7.2202531E-36
   3.980000     -7.2003614E-36
   3.990000     -7.1985498E-36
   4.000000     -7.6756488E-36
   4.010000     -8.6666083E-36
   4.020000     -9.8297106E-36
   4.030000     -1.1237354E-35
   4.040000     -1.2668635E-35
   4.050000     -1.3953571E-35
   4.060000     -1.6279348E-35
   4.070000     -1.9538425E-35
   4.080000     -2.1896903E-35
   4.090000     -2.3457782E-35
   4.100000     -2.5200435E-35
   4.110000     -2.7082830E-35
   4.120000     -2.8965685E-35
   4.130000     -3.0850181E-35
   4.140000     -3.2109707E-35
   4.150000     -3.2660620E-35
   4.160000     -3.3707573E-35
   4.170000     -3.5977267E-35
   4.180000     -3.8864725E-35
   4.190000     -4.1129904E-35
   4.200000     -4.2907601E-35
   4.210000     -4.5138943E-35
   4.220000     -4.7703802E-35
   4.230000     -5.0202982E-35
   4.240000     -5.2431967E-35
   4.250000     -5.4166510E-35
   4.260000     -5.5400756E-35
   4.270000     -5.5708147E-35
   4.280000     -5.6220922E-35
   4.290000     -5.7502279E-35
   4.300000     -5.8649666E-35
   4.310000     -5.9871532E-35
   4.320000     -6.0883697E-35
   4.330000     -6.1798969E-35
   4.340000     -6.3158554E-35
   4.350000     -6.5217133E-35
   4.360000     -6.8153997E-35
   4.370000     -6.7672205E-35
   4.380000     -6.2801176E-35
   4.390000     -6.0373091E-35
   4.400000     -6.2449515E-35
   4.410000     -6.6232776E-35
   4.420000     -6.9130421E-35
   4.430000     -7.0629079E-35
   4.440000     -6.9650107E-35
   4.450000     -6.6443710E-35
   4.460000     -6.1920806E-35
   4.470000     -5.6028423E-35
   4.480000     -5.1495836E-35
   4.490000     -4.8558288E-35
   4.500000     -4.5604130E-35
   4.510000     -4.2474545E-35
   4.520000     -3.9195418E-35
   4.530000     -3.5999052E-35
   4.540000     -3.2253834E-35
   4.550000     -2.9980691E-35
   4.560000     -2.7586528E-35
   4.570000     -2.2082555E-35
   4.580000     -1.6627373E-35
   4.590000     -1.2406122E-35
   4.600000     -7.8183461E-36
   4.610000     -1.0538868E-36
   4.620000      7.0408596E-36
   4.630000      1.6819363E-35
   4.640000      2.7602527E-35
   4.650000      3.7474915E-35
   4.660000      5.5685033E-35
   4.670000      8.4978909E-35
   4.680000      1.1784408E-34
   4.690000      1.5062207E-34
   4.700000      1.8592926E-34
   4.710000      2.2574572E-34
   4.720000      2.5515549E-34
   4.730000      2.7613051E-34
   4.740000      3.0130042E-34
   4.750000      3.3143653E-34
   4.760000      3.6865087E-34
   4.770000      4.0631150E-34
   4.780000      4.2880404E-34
   4.790000      4.2929605E-34
   4.800000      4.1866774E-34
   4.810000      4.0972287E-34
   4.820000      4.1386236E-34
   4.830000      4.3052453E-34
   4.840000      4.5849597E-34
   4.850000      4.9887925E-34
   4.860000      5.4289408E-34
   4.870000      5.9978070E-34
   4.880000      6.7079176E-34
   4.890000      7.4577898E-34
   4.900000      8.1000818E-34
   4.910000      8.5768825E-34
   4.920000      9.0341112E-34
   4.930000      9.5047691E-34
   4.940000      9.9889791E-34
   4.950000      1.0446920E-33
   4.960000      1.0788768E-33
   4.970000      1.0994371E-33
   4.980000      1.1108628E-33
   4.990000      1.1178505E-33
   5.000000      1.1255149E-33
   5.010000      1.1407516E-33
   5.020000      1.1706328E-33
   5.030000      1.2166952E-33
   5.040000      1.2822491E-33
   5.050000      1.3611913E-33
   5.060000      1.4418950E-33
   5.070000      1.5238259E-33
   5.080000      1.6040432E-33
   5.090000      1.6779888E-33
   5.100000      1.7399820E-33
   5.110000      1.7830317E-33
   5.120000      1.8050933E-33
   5.130000      1.8073756E-33
   5.140000      1.7965111E-33
   5.150000      1.7759519E-33
   5.160000      1.7431477E-33
   5.170000      1.7001992E-33
   5.180000      1.6573120E-33
   5.190000      1.6296010E-33
   5.200000      1.6287275E-33
   5.210000      1.6474781E-33
   5.220000      1.6726421E-33
   5.230000      1.6973332E-33
   5.240000      1.7124664E-33
   5.250000      1.7062762E-33
   5.260000      1.6634856E-33
   5.270000      1.5834465E-33
   5.280000      1.4746222E-33
   5.290000      1.3487309E-33
   5.300000      1.2158353E-33
   5.310000      1.0720500E-33
   5.320000      9.1346224E-34
   5.330000      7.4168362E-34
   5.340000      5.6335305E-34
   5.350000      3.9709320E-34
   5.360000      2.4440918E-34
   5.370000      9.1857772E-35
   5.380000     -7.0297053E-35
   5.390000     -2.5040484E-34
   5.400000     -4.5795120E-34
   5.410000     -6.9759772E-34
   5.420000     -9.7040760E-34
   5.430000     -1.2911316E-33
   5.440000     -1.6624499E-33
   5.450000     -2.0791639E-33
   5.460000     -2.5374372E-33
   5.470000     -3.0317779E-33
   5.480000     -3.5567741E-33
   5.490000     -4.1031402E-33
   5.500000     -4.6583096E-33
   5.510000     -5.2149080E-33
   5.520000     -5.7713536E-33
   5.530000     -6.3250030E-33
   5.540000     -6.8773384E-33
   5.550000     -7.4328308E-33
   5.560000     -7.9989437E-33
   5.570000     -8.5843539E-33
   5.580000     -9.1971207E-33
   5.590000     -9.8457460E-33
   5.600000     -1.0538033E-32
   5.610000     -1.1277398E-32
   5.620000     -1.2063715E-32
   5.630000     -1.2895383E-32
   5.640000     -1.3769960E-32
   5.650000     -1.4680752E-32
   5.660000     -1.5621666E-32
   5.670000     -1.6581775E-32
   5.680000     -1.7554952E-32
   5.690000     -1.8542830E-32
   5.700000     -1.9537789E-32
   5.710000     -2.0537880E-32
   5.720000     -2.1547737E-32
   5.730000     -2.2570597E-32
   5.740000     -2.3609804E-32
   5.750000     -2.4667914E-32
   5.760000     -2.5745651E-32
   5.770000     -2.6840342E-32
   5.780000     -2.7946364E-32
   5.790000     -2.9055326E-32
   5.800000     -3.0155871E-32
   5.810000     -3.1234851E-32
   5.820000     -3.2278243E-32
   5.830000     -3.3272708E-32
   5.840000     -3.4207059E-32
   5.850000     -3.5073407E-32
   5.860000     -3.5867327E-32
   5.870000     -3.6588408E-32
   5.880000     -3.7240675E-32
   5.890000     -3.7831129E-32
   5.900000     -3.8368294E-32
   5.910000     -3.8860879E-32
   5.920000     -3.9316680E-32
   5.930000     -3.9740508E-32
   5.940000     -4.0132273E-32
   5.950000     -4.0486829E-32
   5.960000     -4.0793648E-32
   5.970000     -4.1036384E-32
   5.980000     -4.1192781E-32
   5.990000     -4.1237794E-32
   6.000000     -4.1145461E-32
   6.010000     -4.0888575E-32
   6.020000     -4.0441584E-32
   6.030000     -3.9781506E-32
   6.040000     -3.8888556E-32
   6.050000     -3.7748433E-32
   6.060000     -3.6351925E-32
   6.070000     -3.4690472E-32
   6.080000     -3.2758841E-32
   6.090000     -3.0556993E-32
   6.100000     -2.8084629E-32
   6.110000     -2.5343126E-32
   6.120000     -2.2328570E-32
   6.130000     -1.9036060E-32
   6.140000     -1.5464447E-32
   6.150000     -1.1609220E-32
   6.160000     -7.4656917E-33
   6.170000     -3.0278628E-33
   6.180000      1.7098891E-33
   6.190000      6.7522151E-33
   6.200000      1.2103821E-32
   6.210000      1.7769017E-32
   6.220000      2.3752403E-32
   6.230000      3.0060121E-32
   6.240000      3.6701270E-32
   6.250000      4.3688317E-32
   6.260000      5.1038337E-32
   6.270000      5.8773066E-32
   6.280000      6.6918942E-32
   6.290000      7.5506487E-32
   6.300000      8.4568925E-32
   6.310000      9.4140106E-32
   6.320000      1.0425207E-31
   6.330000      1.1493251E-31
   6.340000      1.2620212E-31
   6.350000      1.3807207E-31
   6.360000      1.5054240E-31
   6.370000      1.6360092E-31
   6.380000      1.7722295E-31
   6.390000      1.9137200E-31
   6.400000      2.0600193E-31
   6.410000      2.2105919E-31
   6.420000      2.3648537E-31
   6.430000      2.5222103E-31
   6.440000      2.6820907E-31
   6.450000      2.8439758E-31
   6.460000      3.0074242E-31
   6.470000      3.1720941E-31
   6.480000      3.3377450E-31
   6.490000      3.5042420E-31
   6.500000      3.6715475E-31
   6.510000      3.8397032E-31
   6.520000      4.0088053E-31
   6.530000      4.1789812E-31
   6.540000      4.3503570E-31
   6.550000      4.5230314E-31
   6.560000      4.6970436E-31
   6.570000      4.8723503E-31
   6.580000      5.0488018E-31
   6.590000      5.2261238E-31
   6.600000      5.4038985E-31
   6.610000      5.5815561E-31
   6.620000      5.7583636E-31
   6.630000      5.9334206E-31
   6.640000      6.1056578E-31
   6.650000      6.2738405E-31
   6.660000      6.4365778E-31
   6.670000      6.5923421E-31
   6.680000      6.7394876E-31
   6.690000      6.8762846E-31
   6.700000      7.0009547E-31
   6.710000      7.1117159E-31
   6.720000      7.2068327E-31
   6.730000      7.2846617E-31
   6.740000      7.3437030E-31
   6.750000      7.3826368E-31
   6.760000      7.4003595E-31
   6.770000      7.3959998E-31
   6.780000      7.3689230E-31
   6.790000      7.3187049E-31
   6.800000      7.2451021E-31
   6.810000      7.1480105E-31
   6.820000      7.0273812E-31
   6.830000      6.8831420E-31
   6.840000      6.7151121E-31
   6.850000      6.5229141E-31
   6.860000      6.3058934E-31
   6.870000      6.0630499E-31
   6.880000      5.7929880E-31
   6.890000      5.4938896E-31
   6.900000      5.1635118E-31
   6.910000      4.7992096E-31
   6.920000      4.3979917E-31
   6.930000      3.9565983E-31
   6.940000      3.4715917E-31
   6.950000      2.9394710E-31
   6.960000      2.3567877E-31
   6.970000      1.7202698E-31
   6.980000      1.0269395E-31
   6.990000      2.7421441E-32
   7.000000     -5.4000259E-32
   7.010000     -1.4172550E-31
   7.020000     -2.3584886E-31
   7.030000     -3.3640401E-31
   7.040000     -4.4336511E-31
   7.050000     -5.5665084E-31
   7.060000     -6.7613161E-31