  -2.600000      0.0000000E+00
  -2.590000      0.0000000E+00
  -2.580000      0.0000000E+00
  -2.570000      0.0000000E+00
  -2.560000      0.0000000E+00
  -2.550000      0.0000000E+00
  -2.540000      0.0000000E+00
  -2.530000      0.0000000E+00
  -2.520000      0.0000000E+00
  -2.510000      0.0000000E+00
  -2.500000      0.0000000E+00
  -2.490000      0.0000000E+00
  -2.480000      0.0000000E+00
  -2.470000      0.0000000E+00
  -2.460000      0.0000000E+00
  -2.450000      0.0000000E+00
  -2.440000      0.0000000E+00
  -2.430000      0.0000000E+00
  -2.420000      0.0000000E+00
  -2.410000      0.0000000E+00
  -2.400000      0.0000000E+00
  -2.390000      0.0000000E+00
  -2.380000      0.0000000E+00
  -2.370000      0.0000000E+00
  -2.360000      0.0000000E+00
  -2.350000      0.0000000E+00
  -2.340000      0.0000000E+00
  -2.330000      0.0000000E+00
  -2.320000      0.0000000E+00
  -2.310000      0.0000000E+00
  -2.300000      0.0000000E+00
  -2.290000      0.0000000E+00
  -2.280000      0.0000000E+00
  -2.270000      0.0000000E+00
  -2.260000      0.0000000E+00
  -2.250000      0.0000000E+00
  -2.240000      0.0000000E+00
  -2.230000      0.0000000E+00
  -2.220000      0.0000000E+00
  -2.210000      0.0000000E+00
  -2.200000      0.0000000E+00
  -2.190000      0.0000000E+00
  -2.180000      0.0000000E+00
  -2.170000      0.0000000E+00
  -2.160000      0.0000000E+00
  -2.150000      0.0000000E+00
  -2.140000      0.0000000E+00
  -2.130000      0.0000000E+00
  -2.120000      0.0000000E+00
  -2.110000      0.0000000E+00
  -2.100000      0.0000000E+00
  -2.090000      0.0000000E+00
  -2.080000      0.0000000E+00
  -2.070000      0.0000000E+00
  -2.060000      0.0000000E+00
  -2.050000      0.0000000E+00
  -2.040000      0.0000000E+00
  -2.030000      0.0000000E+00
  -2.020000      0.0000000E+00
  -2.010000      0.0000000E+00
  -2.000000      0.0000000E+00
  -1.990000      0.0000000E+00
  -1.980000      0.0000000E+00
  -1.970000      0.0000000E+00
  -1.960000      0.0000000E+00
  -1.950000      0.0000000E+00
  -1.940000      0.0000000E+00
  -1.930000      0.0000000E+00
  -1.920000      0.0000000E+00
  -1.910000      0.0000000E+00
  -1.900000      0.0000000E+00
  -1.890000      0.0000000E+00
  -1.880000      0.0000000E+00
  -1.870000      0.0000000E+00
  -1.860000      0.0000000E+00
  -1.850000      0.0000000E+00
  -1.840000      0.0000000E+00
  -1.830000      0.0000000E+00
  -1.820000      0.0000000E+00
  -1.810000      0.0000000E+00
  -1.800000      0.0000000E+00
  -1.790000      0.0000000E+00
  -1.780000      0.0000000E+00
  -1.770000      0.0000000E+00
  -1.760000      0.0000000E+00
  -1.750000      0.0000000E+00
  -1.740000      0.0000000E+00
  -1.730000      0.0000000E+00
  -1.720000      0.0000000E+00
  -1.710000      0.0000000E+00
  -1.700000      0.0000000E+00
  -1.690000      0.0000000E+00
  -1.680000      0.0000000E+00
  -1.670000      0.0000000E+00
  -1.660000      0.0000000E+00
  -1.650000      0.0000000E+00
  -1.640000      0.0000000E+00
  -1.630000      0.0000000E+00
  -1.620000      0.0000000E+00
  -1.610000      0.0000000E+00
  -1.600000      0.0000000E+00
  -1.590000      0.0000000E+00
  -1.580000      0.0000000E+00
  -1.570000      0.0000000E+00
  -1.560000      0.0000000E+00
  -1.550000      0.0000000E+00
  -1.540000      0.0000000E+00
  -1.530000      0.0000000E+00
  -1.520000      0.0000000E+00
  -1.510000      0.0000000E+00
  -1.500000      0.0000000E+00
  -1.490000      0.0000000E+00
  -1.480000      0.0000000E+00
  -1.470000      0.0000000E+00
  -1.460000      0.0000000E+00
  -1.450000      0.0000000E+00
  -1.440000      0.0000000E+00
  -1.430000      0.0000000E+00
  -1.420000      0.0000000E+00
  -1.410000      0.0000000E+00
  -1.400000      0.0000000E+00
  -1.390000      0.0000000E+00
  -1.380000      0.0000000E+00
  -1.370000      0.0000000E+00
  -1.360000      0.0000000E+00
  -1.350000      0.0000000E+00
  -1.340000      0.0000000E+00
  -1.330000      0.0000000E+00
  -1.320000      0.0000000E+00
  -1.310000      0.0000000E+00
  -1.300000      0.0000000E+00
  -1.290000      0.0000000E+00
  -1.280000      0.0000000E+00
  -1.270000      0.0000000E+00
  -1.260000      0.0000000E+00
  -1.250000      0.0000000E+00
  -1.240000      0.0000000E+00
  -1.230000      0.0000000E+00
  -1.220000      0.0000000E+00
  -1.210000      0.0000000E+00
  -1.200000      0.0000000E+00
  -1.190000      0.0000000E+00
  -1.180000      0.0000000E+00
  -1.170000      0.0000000E+00
  -1.160000      0.0000000E+00
  -1.150000      0.0000000E+00
  -1.140000      0.0000000E+00
  -1.130000      0.0000000E+00
  -1.120000      0.0000000E+00
  -1.110000      0.0000000E+00
  -1.100000      0.0000000E+00
  -1.090000      0.0000000E+00
  -1.080000      0.0000000E+00
  -1.070000      0.0000000E+00
  -1.060000      0.0000000E+00
  -1.050000      0.0000000E+00
  -1.040000      0.0000000E+00
  -1.030000      0.0000000E+00
  -1.020000      0.0000000E+00
  -1.010000      0.0000000E+00
  -1.000000      0.0000000E+00
 -0.9900000      0.0000000E+00
 -0.9800000      0.0000000E+00
 -0.9700000      0.0000000E+00
 -0.9600000      0.0000000E+00
 -0.9500000      0.0000000E+00
 -0.9400000      0.0000000E+00
 -0.9300000      0.0000000E+00
 -0.9200000      0.0000000E+00
 -0.9100000      0.0000000E+00
 -0.9000000      0.0000000E+00
 -0.8900000      0.0000000E+00
 -0.8800000      0.0000000E+00
 -0.8700000      0.0000000E+00
 -0.8600000      0.0000000E+00
 -0.8500000      0.0000000E+00
 -0.8400000      0.0000000E+00
 -0.8300000      0.0000000E+00
 -0.8200000      0.0000000E+00
 -0.8100000      0.0000000E+00
 -0.8000000      0.0000000E+00
 -0.7900000      0.0000000E+00
 -0.7800000      0.0000000E+00
 -0.7700000      0.0000000E+00
 -0.7600000      0.0000000E+00
 -0.7500000      0.0000000E+00
 -0.7400000      0.0000000E+00
 -0.7300000      0.0000000E+00
 -0.7200000      0.0000000E+00
 -0.7100000      0.0000000E+00
 -0.7000000      0.0000000E+00
 -0.6900000      0.0000000E+00
 -0.6800000      0.0000000E+00
 -0.6700000      0.0000000E+00
 -0.6600000      0.0000000E+00
 -0.6500000      0.0000000E+00
 -0.6400000      0.0000000E+00
 -0.6300000      0.0000000E+00
 -0.6200000      0.0000000E+00
 -0.6100000      0.0000000E+00
 -0.6000000      0.0000000E+00
 -0.5900000      0.0000000E+00
 -0.5800000      0.0000000E+00
 -0.5700000      0.0000000E+00
 -0.5600000      0.0000000E+00
 -0.5500000      0.0000000E+00
 -0.5400000      0.0000000E+00
 -0.5300000      0.0000000E+00
 -0.5200000      0.0000000E+00
 -0.5100000      0.0000000E+00
 -0.5000000      0.0000000E+00
 -0.4900000      0.0000000E+00
 -0.4800000      0.0000000E+00
 -0.4700000      0.0000000E+00
 -0.4600000      0.0000000E+00
 -0.4500000      0.0000000E+00
 -0.4400000      0.0000000E+00
 -0.4300000      0.0000000E+00
 -0.4200000      0.0000000E+00
 -0.4100000      0.0000000E+00
 -0.4000000      0.0000000E+00
 -0.3900000      0.0000000E+00
 -0.3800000      0.0000000E+00
 -0.3700000      0.0000000E+00
 -0.3600000      0.0000000E+00
 -0.3500000      0.0000000E+00
 -0.3400000      0.0000000E+00
 -0.3300000      0.0000000E+00
 -0.3200000      0.0000000E+00
 -0.3100000      0.0000000E+00
 -0.3000000      0.0000000E+00
 -0.2900000      0.0000000E+00
 -0.2800000      0.0000000E+00
 -0.2700000      0.0000000E+00
 -0.2600000      0.0000000E+00
 -0.2500000      0.0000000E+00
 -0.2400000      0.0000000E+00
 -0.2300000      0.0000000E+00
 -0.2200000      0.0000000E+00
 -0.2100000      0.0000000E+00
 -0.2000000      0.0000000E+00
 -0.1900000      0.0000000E+00
 -0.1800000      0.0000000E+00
 -0.1700000      0.0000000E+00
 -0.1600000      0.0000000E+00
 -0.1500000      0.0000000E+00
 -0.1400000      0.0000000E+00
 -0.1300000      0.0000000E+00
 -0.1200000      0.0000000E+00
 -0.1100000      0.0000000E+00
 -0.1000000      0.0000000E+00
 -9.0000004E-02  0.0000000E+00
 -7.9999998E-02  0.0000000E+00
 -7.0000000E-02  0.0000000E+00
 -5.9999999E-02  0.0000000E+00
 -5.0000001E-02  0.0000000E+00
 -3.9999999E-02  0.0000000E+00
 -2.9999999E-02  0.0000000E+00
 -2.0000000E-02  0.0000000E+00
 -9.9999998E-03  0.0000000E+00
 -3.4694470E-17  0.0000000E+00
  9.9999998E-03  0.0000000E+00
  2.0000000E-02  0.0000000E+00
  2.9999999E-02  0.0000000E+00
  3.9999999E-02  0.0000000E+00
  5.0000001E-02  0.0000000E+00
  5.9999999E-02  0.0000000E+00
  7.0000000E-02  0.0000000E+00
  7.9999998E-02  0.0000000E+00
  9.0000004E-02  0.0000000E+00
  0.1000000      0.0000000E+00
  0.1100000      0.0000000E+00
  0.1200000      0.0000000E+00
  0.1300000      0.0000000E+00
  0.1400000      0.0000000E+00
  0.1500000      0.0000000E+00
  0.1600000      0.0000000E+00
  0.1700000      0.0000000E+00
  0.1800000      0.0000000E+00
  0.1900000      0.0000000E+00
  0.2000000      0.0000000E+00
  0.2100000      0.0000000E+00
  0.2200000      0.0000000E+00
  0.2300000      0.0000000E+00
  0.2400000      0.0000000E+00
  0.2500000      0.0000000E+00
  0.2600000      0.0000000E+00
  0.2700000      0.0000000E+00
  0.2800000      0.0000000E+00
  0.2900000      0.0000000E+00
  0.3000000      0.0000000E+00
  0.3100000      0.0000000E+00
  0.3200000      0.0000000E+00
  0.3300000      0.0000000E+00
  0.3400000      0.0000000E+00
  0.3500000      0.0000000E+00
  0.3600000      0.0000000E+00
  0.3700000      0.0000000E+00
  0.3800000      0.0000000E+00
  0.3900000      0.0000000E+00
  0.4000000      0.0000000E+00
  0.4100000      0.0000000E+00
  0.4200000      0.0000000E+00
  0.4300000      0.0000000E+00
  0.4400000      0.0000000E+00
  0.4500000      0.0000000E+00
  0.4600000      0.0000000E+00
  0.4700000      0.0000000E+00
  0.4800000      0.0000000E+00
  0.4900000      0.0000000E+00
  0.5000000      0.0000000E+00
  0.5100000      0.0000000E+00
  0.5200000      0.0000000E+00
  0.5300000      0.0000000E+00
  0.5400000      0.0000000E+00
  0.5500000      0.0000000E+00
  0.5600000      0.0000000E+00
  0.5700000      0.0000000E+00
  0.5800000      0.0000000E+00
  0.5900000      0.0000000E+00
  0.6000000      0.0000000E+00
  0.6100000      0.0000000E+00
  0.6200000      0.0000000E+00
  0.6300000      0.0000000E+00
  0.6400000      0.0000000E+00
  0.6500000      0.0000000E+00
  0.6600000      0.0000000E+00
  0.6700000      0.0000000E+00
  0.6800000      0.0000000E+00
  0.6900000      0.0000000E+00
  0.7000000      0.0000000E+00
  0.7100000      0.0000000E+00
  0.7200000      0.0000000E+00
  0.7300000      0.0000000E+00
  0.7400000      0.0000000E+00
  0.7500000      0.0000000E+00
  0.7600000      0.0000000E+00
  0.7700000      0.0000000E+00
  0.7800000      0.0000000E+00
  0.7900000      0.0000000E+00
  0.8000000      0.0000000E+00
  0.8100000      0.0000000E+00
  0.8200000      0.0000000E+00
  0.8300000      0.0000000E+00
  0.8400000      0.0000000E+00
  0.8500000      0.0000000E+00
  0.8600000      0.0000000E+00
  0.8700000      0.0000000E+00
  0.8800000      0.0000000E+00
  0.8900000      0.0000000E+00
  0.9000000      0.0000000E+00
  0.9100000      0.0000000E+00
  0.9200000      0.0000000E+00
  0.9300000      0.0000000E+00
  0.9400000      0.0000000E+00
  0.9500000      0.0000000E+00
  0.9600000      0.0000000E+00
  0.9700000      0.0000000E+00
  0.9800000      0.0000000E+00
  0.9900000      0.0000000E+00
   1.000000      0.0000000E+00
   1.010000      0.0000000E+00
   1.020000      0.0000000E+00
   1.030000      0.0000000E+00
   1.040000      0.0000000E+00
   1.050000      0.0000000E+00
   1.060000      0.0000000E+00
   1.070000      0.0000000E+00
   1.080000      0.0000000E+00
   1.090000      0.0000000E+00
   1.100000      0.0000000E+00
   1.110000      0.0000000E+00
   1.120000      0.0000000E+00
   1.130000      0.0000000E+00
   1.140000      0.0000000E+00
   1.150000      0.0000000E+00
   1.160000      0.0000000E+00
   1.170000      0.0000000E+00
   1.180000      0.0000000E+00
   1.190000      0.0000000E+00
   1.200000      0.0000000E+00
   1.210000      0.0000000E+00
   1.220000      0.0000000E+00
   1.230000      0.0000000E+00
   1.240000      0.0000000E+00
   1.250000      0.0000000E+00
   1.260000      0.0000000E+00
   1.270000      0.0000000E+00
   1.280000      0.0000000E+00
   1.290000      0.0000000E+00
   1.300000      0.0000000E+00
   1.310000      0.0000000E+00
   1.320000      0.0000000E+00
   1.330000      0.0000000E+00
   1.340000      0.0000000E+00
   1.350000      0.0000000E+00
   1.360000      0.0000000E+00
   1.370000      0.0000000E+00
   1.380000      0.0000000E+00
   1.390000      0.0000000E+00
   1.400000      0.0000000E+00
   1.410000      0.0000000E+00
   1.420000      0.0000000E+00
   1.430000      0.0000000E+00
   1.440000      0.0000000E+00
   1.450000      0.0000000E+00
   1.460000      0.0000000E+00
   1.470000      0.0000000E+00
   1.480000      0.0000000E+00
   1.490000      0.0000000E+00
   1.500000      0.0000000E+00
   1.510000      0.0000000E+00
   1.520000      0.0000000E+00
   1.530000      0.0000000E+00
   1.540000      0.0000000E+00
   1.550000      0.0000000E+00
   1.560000      0.0000000E+00
   1.570000      0.0000000E+00
   1.580000      0.0000000E+00
   1.590000      0.0000000E+00
   1.600000      0.0000000E+00
   1.610000      0.0000000E+00
   1.620000      0.0000000E+00
   1.630000      0.0000000E+00
   1.640000      0.0000000E+00
   1.650000      0.0000000E+00
   1.660000      0.0000000E+00
   1.670000      0.0000000E+00
   1.680000      0.0000000E+00
   1.690000      0.0000000E+00
   1.700000      0.0000000E+00
   1.710000      0.0000000E+00
   1.720000      0.0000000E+00
   1.730000      0.0000000E+00
   1.740000      0.0000000E+00
   1.750000      0.0000000E+00
   1.760000      0.0000000E+00
   1.770000      0.0000000E+00
   1.780000      0.0000000E+00
   1.790000      0.0000000E+00
   1.800000      0.0000000E+00
   1.810000      0.0000000E+00
   1.820000      0.0000000E+00
   1.830000      0.0000000E+00
   1.840000      0.0000000E+00
   1.850000      0.0000000E+00
   1.860000      0.0000000E+00
   1.870000      0.0000000E+00
   1.880000      0.0000000E+00
   1.890000      0.0000000E+00
   1.900000      0.0000000E+00
   1.910000      0.0000000E+00
   1.920000      0.0000000E+00
   1.930000      0.0000000E+00
   1.940000      0.0000000E+00
   1.950000      0.0000000E+00
   1.960000      0.0000000E+00
   1.970000      0.0000000E+00
   1.980000      0.0000000E+00
   1.990000      0.0000000E+00
   2.000000      0.0000000E+00
   2.010000      0.0000000E+00
   2.020000      0.0000000E+00
   2.030000      0.0000000E+00
   2.040000      0.0000000E+00
   2.050000      0.0000000E+00
   2.060000      0.0000000E+00
   2.070000      0.0000000E+00
   2.080000      0.0000000E+00
   2.090000      0.0000000E+00
   2.100000      0.0000000E+00
   2.110000      0.0000000E+00
   2.120000      0.0000000E+00
   2.130000      0.0000000E+00
   2.140000      0.0000000E+00
   2.150000      0.0000000E+00
   2.160000      0.0000000E+00
   2.170000      0.0000000E+00
   2.180000      0.0000000E+00
   2.190000      0.0000000E+00
   2.200000      0.0000000E+00
   2.210000      0.0000000E+00
   2.220000      0.0000000E+00
   2.230000      0.0000000E+00
   2.240000      0.0000000E+00
   2.250000      0.0000000E+00
   2.260000      0.0000000E+00
   2.270000      0.0000000E+00
   2.280000      0.0000000E+00
   2.290000      0.0000000E+00
   2.300000      0.0000000E+00
   2.310000      0.0000000E+00
   2.320000      0.0000000E+00
   2.330000      0.0000000E+00
   2.340000      0.0000000E+00
   2.350000      0.0000000E+00
   2.360000      0.0000000E+00
   2.370000      0.0000000E+00
   2.380000      0.0000000E+00
   2.390000      0.0000000E+00
   2.400000      0.0000000E+00
   2.410000      0.0000000E+00
   2.420000      0.0000000E+00
   2.430000      0.0000000E+00
   2.440000      0.0000000E+00
   2.450000      0.0000000E+00
   2.460000      0.0000000E+00
   2.470000      0.0000000E+00
   2.480000      0.0000000E+00
   2.490000      0.0000000E+00
   2.500000      0.0000000E+00
   2.510000      0.0000000E+00
   2.520000      0.0000000E+00
   2.530000      0.0000000E+00
   2.540000      0.0000000E+00
   2.550000      0.0000000E+00
   2.560000      0.0000000E+00
   2.570000      0.0000000E+00
   2.580000      0.0000000E+00
   2.590000      0.0000000E+00
   2.600000      0.0000000E+00
   2.610000      0.0000000E+00
   2.620000      0.0000000E+00
   2.630000      0.0000000E+00
   2.640000      0.0000000E+00
   2.650000      0.0000000E+00
   2.660000      0.0000000E+00
   2.670000      0.0000000E+00
   2.680000      0.0000000E+00
   2.690000      0.0000000E+00
   2.700000      0.0000000E+00
   2.710000      0.0000000E+00
   2.720000      0.0000000E+00
   2.730000      0.0000000E+00
   2.740000      0.0000000E+00
   2.750000      0.0000000E+00
   2.760000      0.0000000E+00
   2.770000      0.0000000E+00
   2.780000      0.0000000E+00
   2.790000      0.0000000E+00
   2.800000      0.0000000E+00
   2.810000      0.0000000E+00
   2.820000      0.0000000E+00
   2.830000      0.0000000E+00
   2.840000      0.0000000E+00
   2.850000      0.0000000E+00
   2.860000      0.0000000E+00
   2.870000      0.0000000E+00
   2.880000      0.0000000E+00
   2.890000      0.0000000E+00
   2.900000      0.0000000E+00
   2.910000      0.0000000E+00
   2.920000      0.0000000E+00
   2.930000      0.0000000E+00
   2.940000      0.0000000E+00
   2.950000      0.0000000E+00
   2.960000      0.0000000E+00
   2.970000      0.0000000E+00
   2.980000      0.0000000E+00
   2.990000      0.0000000E+00
   3.000000      0.0000000E+00
   3.010000      0.0000000E+00
   3.020000      0.0000000E+00
   3.030000      0.0000000E+00
   3.040000      0.0000000E+00
   3.050000      0.0000000E+00
   3.060000      0.0000000E+00
   3.070000      0.0000000E+00
   3.080000      0.0000000E+00
   3.090000      0.0000000E+00
   3.100000      0.0000000E+00
   3.110000      0.0000000E+00
   3.120000      0.0000000E+00
   3.130000      0.0000000E+00
   3.140000      0.0000000E+00
   3.150000      0.0000000E+00
   3.160000      1.1855317E-38
   3.170000      1.2820574E-38
   3.180000      1.4053081E-38
   3.190000      1.5596229E-38
   3.200000      1.7326429E-38
   3.210000      1.8392323E-38
   3.220000      2.0154799E-38
   3.230000      2.3542983E-38
   3.240000      2.6361591E-38
   3.250000      2.6309558E-38
   3.260000      2.3857448E-38
   3.270000      2.1060253E-38
   3.280000      1.9147562E-38
   3.290000      1.8140428E-38
   3.300000      1.2372955E-38
   3.310000      0.0000000E+00
   3.320000     -2.3075347E-38
   3.330000     -4.8174511E-38
   3.340000     -7.5886791E-38
   3.350000     -1.0703798E-37
   3.360000     -1.3852266E-37
   3.370000     -1.6952020E-37
   3.380000     -1.9650960E-37
   3.390000     -2.1776707E-37
   3.400000     -2.3882386E-37
   3.410000     -2.6098292E-37
   3.420000     -2.8271239E-37
   3.430000     -3.0390110E-37
   3.440000     -3.2265128E-37
   3.450000     -3.3985932E-37
   3.460000     -3.6130656E-37
   3.470000     -3.8948828E-37
   3.480000     -4.2680045E-37
   3.490000     -4.7110009E-37
   3.500000     -5.2003276E-37
   3.510000     -5.7463734E-37
   3.520000     -6.3709817E-37
   3.530000     -7.0680468E-37
   3.540000     -7.8244883E-37
   3.550000     -8.6455156E-37
   3.560000     -9.5306797E-37
   3.570000     -1.0499791E-36
   3.580000     -1.1548858E-36
   3.590000     -1.2659271E-36
   3.600000     -1.3817454E-36
   3.610000     -1.4900084E-36
   3.620000     -1.5953336E-36
   3.630000     -1.7111916E-36
   3.640000     -1.8240347E-36
   3.650000     -1.9234211E-36
   3.660000     -2.0174895E-36
   3.670000     -2.1116563E-36
   3.680000     -2.2012154E-36
   3.690000     -2.2875840E-36
   3.700000     -2.3720623E-36
   3.710000     -2.4509387E-36
   3.720000     -2.5162524E-36
   3.730000     -2.5833596E-36
   3.740000     -2.6615902E-36
   3.750000     -2.7430628E-36
   3.760000     -2.8359364E-36
   3.770000     -2.9398210E-36
   3.780000     -3.0572851E-36
   3.790000     -3.1396737E-36
   3.800000     -3.1589743E-36
   3.810000     -3.1323280E-36
   3.820000     -3.0808933E-36
   3.830000     -2.9942768E-36
   3.840000     -2.6681577E-36
   3.850000     -2.1366192E-36
   3.860000     -1.6218355E-36
   3.870000     -1.2948144E-36
   3.880000     -8.4925619E-37
   3.890000     -1.1036275E-37
   3.900000      6.1309983E-37
   3.910000      1.3317733E-36
   3.920000      2.0810444E-36
   3.930000      3.0385438E-36
   3.940000      4.2469304E-36
   3.950000      5.4420581E-36
   3.960000      6.6133625E-36
   3.970000      7.6295746E-36
   3.980000      8.5244793E-36
   3.990000      9.3136152E-36
   4.000000      9.8445693E-36
   4.010000      1.0254583E-35
   4.020000      1.0584693E-35
   4.030000      1.0903984E-35
   4.040000      1.1286967E-35
   4.050000      1.1741234E-35
   4.060000      1.2172205E-35
   4.070000      1.2613577E-35
   4.080000      1.3215986E-35
   4.090000      1.3998192E-35
   4.100000      1.5036635E-35
   4.110000      1.6352000E-35
   4.120000      1.7544840E-35
   4.130000      1.8629107E-35
   4.140000      1.9856009E-35
   4.150000      2.0852802E-35
   4.160000      2.1846062E-35
   4.170000      2.3094373E-35
   4.180000      2.4387011E-35
   4.190000      2.5754433E-35
   4.200000      2.7182627E-35
   4.210000      2.8425365E-35
   4.220000      2.9648206E-35
   4.230000      3.1188201E-35
   4.240000      3.3136936E-35
   4.250000      3.5458182E-35
   4.260000      3.7940561E-35
   4.270000      4.0657046E-35
   4.280000      4.3196892E-35
   4.290000      4.5328621E-35
   4.300000      4.7297433E-35
   4.310000      4.8798501E-35
   4.320000      4.9834038E-35
   4.330000      5.0707733E-35
   4.340000      5.0967518E-35
   4.350000      5.0125220E-35
   4.360000      4.8549960E-35
   4.370000      4.6565484E-35
   4.380000      4.3619261E-35
   4.390000      3.9827666E-35
   4.400000      3.5729848E-35
   4.410000      3.1920730E-35
   4.420000      2.8643905E-35
   4.430000      2.5622462E-35
   4.440000      2.2732069E-35
   4.450000      1.9761314E-35
   4.460000      1.6703040E-35
   4.470000      1.3984025E-35
   4.480000      1.1527025E-35
   4.490000      8.7031230E-36
   4.500000      5.9149589E-36
   4.510000      3.2636366E-36
   4.520000      3.6914042E-37
   4.530000     -2.5830651E-36
   4.540000     -5.6862717E-36
   4.550000     -9.3799936E-36
   4.560000     -1.3894620E-35
   4.570000     -1.9105998E-35
   4.580000     -2.5044630E-35
   4.590000     -3.1879705E-35
   4.600000     -3.9420361E-35
   4.610000     -4.7582482E-35
   4.620000     -5.6585411E-35
   4.630000     -6.6823094E-35
   4.640000     -7.8299346E-35
   4.650000     -9.0718059E-35
   4.660000     -1.0412321E-34
   4.670000     -1.1866974E-34
   4.680000     -1.3425220E-34
   4.690000     -1.5102374E-34
   4.700000     -1.6896545E-34
   4.710000     -1.8765284E-34
   4.720000     -2.0698754E-34
   4.730000     -2.2693281E-34
   4.740000     -2.4724290E-34
   4.750000     -2.6727461E-34
   4.760000     -2.8698737E-34
   4.770000     -3.0658093E-34
   4.780000     -3.2595972E-34
   4.790000     -3.4513341E-34
   4.800000     -3.6344589E-34
   4.810000     -3.8102508E-34
   4.820000     -3.9828095E-34
   4.830000     -4.1501641E-34
   4.840000     -4.3150226E-34
   4.850000     -4.4399781E-34
   4.860000     -4.5216864E-34
   4.870000     -4.6065842E-34
   4.880000     -4.6714398E-34
   4.890000     -4.7219264E-34
   4.900000     -4.8527965E-34
   4.910000     -5.0232253E-34
   4.920000     -5.1646157E-34
   4.930000     -5.3026807E-34
   4.940000     -5.4284109E-34
   4.950000     -5.5496705E-34
   4.960000     -5.6975123E-34
   4.970000     -5.9169895E-34
   4.980000     -6.1802630E-34
   4.990000     -6.4692831E-34
   5.000000     -6.8134940E-34
   5.010000     -7.1297576E-34
   5.020000     -7.3834784E-34
   5.030000     -7.6018131E-34
   5.040000     -7.7569329E-34
   5.050000     -7.8422297E-34
   5.060000     -7.8688969E-34
   5.070000     -7.8291487E-34
   5.080000     -7.6931582E-34
   5.090000     -7.4622301E-34
   5.100000     -7.1682192E-34
   5.110000     -6.8224296E-34
   5.120000     -6.4487781E-34
   5.130000     -6.0128478E-34
   5.140000     -5.4891146E-34
   5.150000     -4.9127683E-34
   5.160000     -4.2980408E-34
   5.170000     -3.6764506E-34
   5.180000     -3.0984654E-34
   5.190000     -2.5598984E-34
   5.200000     -2.0643274E-34
   5.210000     -1.5739437E-34
   5.220000     -1.0295179E-34
   5.230000     -4.5081643E-35
   5.240000      1.6681896E-35
   5.250000      8.1003970E-35
   5.260000      1.4781429E-34
   5.270000      2.2055298E-34
   5.280000      2.9761014E-34
   5.290000      3.8135831E-34
   5.300000      4.7816860E-34
   5.310000      5.8932890E-34
   5.320000      7.1592588E-34
   5.330000      8.6148932E-34
   5.340000      1.0283833E-33
   5.350000      1.2149866E-33
   5.360000      1.4161777E-33
   5.370000      1.6287725E-33
   5.380000      1.8537090E-33
   5.390000      2.0876519E-33
   5.400000      2.3304570E-33
   5.410000      2.5844294E-33
   5.420000      2.8499657E-33
   5.430000      3.1239802E-33
   5.440000      3.4020647E-33
   5.450000      3.6835522E-33
   5.460000      3.9638349E-33
   5.470000      4.2381075E-33
   5.480000      4.5128477E-33
   5.490000      4.7952643E-33
   5.500000      5.0758948E-33
   5.510000      5.3522028E-33
   5.520000      5.6349827E-33
   5.530000      5.9228782E-33
   5.540000      6.2113195E-33
   5.550000      6.5035276E-33
   5.560000      6.8058052E-33
   5.570000      7.1213439E-33
   5.580000      7.4500790E-33
   5.590000      7.7933490E-33
   5.600000      8.1518799E-33
   5.610000      8.5253183E-33
   5.620000      8.9132285E-33
   5.630000      9.3135865E-33
   5.640000      9.7254826E-33
   5.650000      1.0144636E-32
   5.660000      1.0562943E-32
   5.670000      1.0974524E-32
   5.680000      1.1373804E-32
   5.690000      1.1760704E-32
   5.700000      1.2131868E-32
   5.710000      1.2478024E-32
   5.720000      1.2792306E-32
   5.730000      1.3069433E-32
   5.740000      1.3302840E-32
   5.750000      1.3491276E-32
   5.760000      1.3636933E-32
   5.770000      1.3738265E-32
   5.780000      1.3796645E-32
   5.790000      1.3806853E-32
   5.800000      1.3768395E-32
   5.810000      1.3688031E-32
   5.820000      1.3567371E-32
   5.830000      1.3409259E-32
   5.840000      1.3216032E-32
   5.850000      1.2990976E-32
   5.860000      1.2735272E-32
   5.870000      1.2447167E-32
   5.880000      1.2124107E-32
   5.890000      1.1763533E-32
   5.900000      1.1356819E-32
   5.910000      1.0897036E-32
   5.920000      1.0378509E-32
   5.930000      9.7890401E-33
   5.940000      9.1155370E-33
   5.950000      8.3441629E-33
   5.960000      7.4621704E-33
   5.970000      6.4566540E-33
   5.980000      5.3152387E-33
   5.990000      4.0270850E-33
   6.000000      2.5829799E-33
   6.010000      9.7564957E-34
   6.020000     -7.9883014E-34
   6.030000     -2.7422999E-33
   6.040000     -4.8540900E-33
   6.050000     -7.1305700E-33
   6.060000     -9.5645002E-33
   6.070000     -1.2146749E-32
   6.080000     -1.4868013E-32
   6.090000     -1.7717515E-32
   6.100000     -2.0684263E-32
   6.110000     -2.3756235E-32
   6.120000     -2.6928989E-32
   6.130000     -3.0195332E-32
   6.140000     -3.3547192E-32
   6.150000     -3.6986827E-32
   6.160000     -4.0518423E-32
   6.170000     -4.4147501E-32
   6.180000     -4.7884056E-32
   6.190000     -5.1742734E-32
   6.200000     -5.5739203E-32
   6.210000     -5.9891296E-32
   6.220000     -6.4217298E-32
   6.230000     -6.8734893E-32
   6.240000     -7.3460386E-32
   6.250000     -7.8406067E-32
   6.260000     -8.3580070E-32
   6.270000     -8.8985922E-32
   6.280000     -9.4619478E-32
   6.290000     -1.0047333E-31
   6.300000     -1.0652911E-31
   6.310000     -1.1275977E-31
   6.320000     -1.1913652E-31
   6.330000     -1.2562071E-31
   6.340000     -1.3217163E-31
   6.350000     -1.3874641E-31
   6.360000     -1.4529723E-31
   6.370000     -1.5177777E-31
   6.380000     -1.5814392E-31
   6.390000     -1.6435552E-31
   6.400000     -1.7037769E-31
   6.410000     -1.7618205E-31
   6.420000     -1.8174804E-31
   6.430000     -1.8706332E-31
   6.440000     -1.9212360E-31
   6.450000     -1.9693192E-31
   6.460000     -2.0149755E-31
   6.470000     -2.0583433E-31
   6.480000     -2.0995838E-31
   6.490000     -2.1388566E-31
   6.500000     -2.1762926E-31
   6.510000     -2.2119649E-31
   6.520000     -2.2458605E-31
   6.530000     -2.2778560E-31
   6.540000     -2.3076964E-31
   6.550000     -2.3349787E-31
   6.560000     -2.3591457E-31
   6.570000     -2.3794829E-31
   6.580000     -2.3951231E-31
   6.590000     -2.4050676E-31
   6.600000     -2.4082122E-31
   6.610000     -2.4033734E-31
   6.620000     -2.3893284E-31
   6.630000     -2.3648567E-31
   6.640000     -2.3287838E-31
   6.650000     -2.2800229E-31
   6.660000     -2.2176171E-31
   6.670000     -2.1407725E-31
   6.680000     -2.0488850E-31
   6.690000     -1.9415748E-31
   6.700000     -1.8186296E-31
   6.710000     -1.6800668E-31
   6.720000     -1.5261235E-31
   6.730000     -1.3571505E-31
   6.740000     -1.1736224E-31
   6.750000     -9.7608290E-32
   6.760000     -7.6505022E-32
   6.770000     -5.4099159E-32
   6.780000     -3.0427236E-32
   6.790000     -5.5054539E-33
   6.800000      2.0672651E-32
   6.810000      4.8140661E-32
   6.820000      7.6961802E-32
   6.830000      1.0722963E-31
   6.840000      1.3906705E-31
   6.850000      1.7262319E-31
   6.860000      2.0806859E-31
   6.870000      2.4558854E-31
   6.880000      2.8537495E-31
   6.890000      3.2761714E-31
   6.900000      3.7249190E-31
   6.910000      4.2015361E-31
   6.920000      4.7072460E-31
   6.930000      5.2428656E-31
   6.940000      5.8087373E-31
   6.950000      6.4046763E-31
   6.960000      7.0299476E-31
   6.970000      7.6832662E-31
   6.980000      8.3628279E-31
   6.990000      9.0663669E-31
   7.000000      9.7912454E-31
   7.010000      1.0534557E-30
   7.020000      1.1293250E-30
   7.030000      1.2064269E-30
   7.040000      1.2844690E-30
   7.050000      1.3631861E-30
   7.060000      1.4423520E-30