  -2.600000      0.0000000E+00
  -2.590000      0.0000000E+00
  -2.580000      0.0000000E+00
  -2.570000      0.0000000E+00
  -2.560000      0.0000000E+00
  -2.550000      0.0000000E+00
  -2.540000      0.0000000E+00
  -2.530000      0.0000000E+00
  -2.520000      0.0000000E+00
  -2.510000      0.0000000E+00
  -2.500000      0.0000000E+00
  -2.490000      0.0000000E+00
  -2.480000      0.0000000E+00
  -2.470000      0.0000000E+00
  -2.460000      0.0000000E+00
  -2.450000      0.0000000E+00
  -2.440000      0.0000000E+00
  -2.430000      0.0000000E+00
  -2.420000      0.0000000E+00
  -2.410000      0.0000000E+00
  -2.400000      0.0000000E+00
  -2.390000      0.0000000E+00
  -2.380000      0.0000000E+00
  -2.370000      0.0000000E+00
  -2.360000      0.0000000E+00
  -2.350000      0.0000000E+00
  -2.340000      0.0000000E+00
  -2.330000      0.0000000E+00
  -2.320000      0.0000000E+00
  -2.310000      0.0000000E+00
  -2.300000      0.0000000E+00
  -2.290000      0.0000000E+00
  -2.280000      0.0000000E+00
  -2.270000      0.0000000E+00
  -2.260000      0.0000000E+00
  -2.250000      0.0000000E+00
  -2.240000      0.0000000E+00
  -2.230000      0.0000000E+00
  -2.220000      0.0000000E+00
  -2.210000      0.0000000E+00
  -2.200000      0.0000000E+00
  -2.190000      0.0000000E+00
  -2.180000      0.0000000E+00
  -2.170000      0.0000000E+00
  -2.160000      0.0000000E+00
  -2.150000      0.0000000E+00
  -2.140000      0.0000000E+00
  -2.130000      0.0000000E+00
  -2.120000      0.0000000E+00
  -2.110000      0.0000000E+00
  -2.100000      0.0000000E+00
  -2.090000      0.0000000E+00
  -2.080000      0.0000000E+00
  -2.070000      0.0000000E+00
  -2.060000      0.0000000E+00
  -2.050000      0.0000000E+00
  -2.040000      0.0000000E+00
  -2.030000      0.0000000E+00
  -2.020000      0.0000000E+00
  -2.010000      0.0000000E+00
  -2.000000      0.0000000E+00
  -1.990000      0.0000000E+00
  -1.980000      0.0000000E+00
  -1.970000      0.0000000E+00
  -1.960000      0.0000000E+00
  -1.950000      0.0000000E+00
  -1.940000      0.0000000E+00
  -1.930000      0.0000000E+00
  -1.920000      0.0000000E+00
  -1.910000      0.0000000E+00
  -1.900000      0.0000000E+00
  -1.890000      0.0000000E+00
  -1.880000      0.0000000E+00
  -1.870000      0.0000000E+00
  -1.860000      0.0000000E+00
  -1.850000      0.0000000E+00
  -1.840000      0.0000000E+00
  -1.830000      0.0000000E+00
  -1.820000      0.0000000E+00
  -1.810000      0.0000000E+00
  -1.800000      0.0000000E+00
  -1.790000      0.0000000E+00
  -1.780000      0.0000000E+00
  -1.770000      0.0000000E+00
  -1.760000      0.0000000E+00
  -1.750000      0.0000000E+00
  -1.740000      0.0000000E+00
  -1.730000      0.0000000E+00
  -1.720000      0.0000000E+00
  -1.710000      0.0000000E+00
  -1.700000      0.0000000E+00
  -1.690000      0.0000000E+00
  -1.680000      0.0000000E+00
  -1.670000      0.0000000E+00
  -1.660000      0.0000000E+00
  -1.650000      0.0000000E+00
  -1.640000      0.0000000E+00
  -1.630000      0.0000000E+00
  -1.620000      0.0000000E+00
  -1.610000      0.0000000E+00
  -1.600000      0.0000000E+00
  -1.590000      0.0000000E+00
  -1.580000      0.0000000E+00
  -1.570000      0.0000000E+00
  -1.560000      0.0000000E+00
  -1.550000      0.0000000E+00
  -1.540000      0.0000000E+00
  -1.530000      0.0000000E+00
  -1.520000      0.0000000E+00
  -1.510000      0.0000000E+00
  -1.500000      0.0000000E+00
  -1.490000      0.0000000E+00
  -1.480000      0.0000000E+00
  -1.470000      0.0000000E+00
  -1.460000      0.0000000E+00
  -1.450000      0.0000000E+00
  -1.440000      0.0000000E+00
  -1.430000      0.0000000E+00
  -1.420000      0.0000000E+00
  -1.410000      0.0000000E+00
  -1.400000      0.0000000E+00
  -1.390000      0.0000000E+00
  -1.380000      0.0000000E+00
  -1.370000      0.0000000E+00
  -1.360000      0.0000000E+00
  -1.350000      0.0000000E+00
  -1.340000      0.0000000E+00
  -1.330000      0.0000000E+00
  -1.320000      0.0000000E+00
  -1.310000      0.0000000E+00
  -1.300000      0.0000000E+00
  -1.290000      0.0000000E+00
  -1.280000      0.0000000E+00
  -1.270000      0.0000000E+00
  -1.260000      0.0000000E+00
  -1.250000      0.0000000E+00
  -1.240000      0.0000000E+00
  -1.230000      0.0000000E+00
  -1.220000      0.0000000E+00
  -1.210000      0.0000000E+00
  -1.200000      0.0000000E+00
  -1.190000      0.0000000E+00
  -1.180000      0.0000000E+00
  -1.170000      0.0000000E+00
  -1.160000      0.0000000E+00
  -1.150000      0.0000000E+00
  -1.140000      0.0000000E+00
  -1.130000      0.0000000E+00
  -1.120000      0.0000000E+00
  -1.110000      0.0000000E+00
  -1.100000      0.0000000E+00
  -1.090000      0.0000000E+00
  -1.080000      0.0000000E+00
  -1.070000      0.0000000E+00
  -1.060000      0.0000000E+00
  -1.050000      0.0000000E+00
  -1.040000      0.0000000E+00
  -1.030000      0.0000000E+00
  -1.020000      0.0000000E+00
  -1.010000      0.0000000E+00
  -1.000000      0.0000000E+00
 -0.9900000      0.0000000E+00
 -0.9800000      0.0000000E+00
 -0.9700000      0.0000000E+00
 -0.9600000      0.0000000E+00
 -0.9500000      0.0000000E+00
 -0.9400000      0.0000000E+00
 -0.9300000      0.0000000E+00
 -0.9200000      0.0000000E+00
 -0.9100000      0.0000000E+00
 -0.9000000      0.0000000E+00
 -0.8900000      0.0000000E+00
 -0.8800000      0.0000000E+00
 -0.8700000      0.0000000E+00
 -0.8600000      0.0000000E+00
 -0.8500000      0.0000000E+00
 -0.8400000      0.0000000E+00
 -0.8300000      0.0000000E+00
 -0.8200000      0.0000000E+00
 -0.8100000      0.0000000E+00
 -0.8000000      0.0000000E+00
 -0.7900000      0.0000000E+00
 -0.7800000      0.0000000E+00
 -0.7700000      0.0000000E+00
 -0.7600000      0.0000000E+00
 -0.7500000      0.0000000E+00
 -0.7400000      0.0000000E+00
 -0.7300000      0.0000000E+00
 -0.7200000     -1.1832166E-38
 -0.7100000     -1.1975661E-38
 -0.7000000      0.0000000E+00
 -0.6900000     -1.2371742E-38
 -0.6800000     -1.6938386E-38
 -0.6700000     -2.2324253E-38
 -0.6600000     -2.8631291E-38
 -0.6500000     -3.3589402E-38
 -0.6400000     -3.7803148E-38
 -0.6300000     -4.2467042E-38
 -0.6200000     -4.7201382E-38
 -0.6100000     -5.2151649E-38
 -0.6000000     -5.6891002E-38
 -0.5900000     -5.3074645E-38
 -0.5800000     -4.1535257E-38
 -0.5700000     -2.9985184E-38
 -0.5600000     -1.8196690E-38
 -0.5500000      0.0000000E+00
 -0.5400000      3.5445654E-38
 -0.5300000      7.1479237E-38
 -0.5200000      1.0941711E-37
 -0.5100000      1.4325055E-37
 -0.5000000      1.7871042E-37
 -0.4900000      2.2677767E-37
 -0.4800000      2.8514529E-37
 -0.4700000      3.5199043E-37
 -0.4600000      4.2059989E-37
 -0.4500000      4.8899110E-37
 -0.4400000      5.5486052E-37
 -0.4300000      6.1458202E-37
 -0.4200000      6.7366628E-37
 -0.4100000      7.3310093E-37
 -0.4000000      7.8971226E-37
 -0.3900000      8.4074312E-37
 -0.3800000      8.8748075E-37
 -0.3700000      9.3237790E-37
 -0.3600000      9.6936662E-37
 -0.3500000      9.9498020E-37
 -0.3400000      1.0047158E-36
 -0.3300000      1.0022776E-36
 -0.3200000      1.0188142E-36
 -0.3100000      1.0561145E-36
 -0.3000000      1.0978794E-36
 -0.2900000      1.1388386E-36
 -0.2800000      1.1634105E-36
 -0.2700000      1.1683301E-36
 -0.2600000      1.1710425E-36
 -0.2500000      1.1978331E-36
 -0.2400000      1.2299725E-36
 -0.2300000      1.2314828E-36
 -0.2200000      1.1886626E-36
 -0.2100000      1.1040955E-36
 -0.2000000      9.9869075E-37
 -0.1900000      8.7923851E-37
 -0.1800000      7.5139686E-37
 -0.1700000      6.3690863E-37
 -0.1600000      6.2132668E-37
 -0.1500000      6.2425676E-37
 -0.1400000      4.5404232E-37
 -0.1300000      1.8193173E-37
 -0.1200000     -5.7727690E-38
 -0.1100000     -2.0450953E-37
 -0.1000000     -2.0929415E-37
 -9.0000004E-02 -1.4091382E-37
 -7.9999998E-02 -7.6440680E-38
 -7.0000000E-02  2.5426054E-37
 -5.9999999E-02  9.1592096E-37
 -5.0000001E-02  1.5651303E-36
 -3.9999999E-02  2.0115936E-36
 -2.9999999E-02  2.1842325E-36
 -2.0000000E-02  2.2160886E-36
 -9.9999998E-03  2.3295372E-36
 -3.4694470E-17  2.6901501E-36
  9.9999998E-03  3.3288965E-36
  2.0000000E-02  4.0760295E-36
  2.9999999E-02  4.8827262E-36
  3.9999999E-02  5.6115172E-36
  5.0000001E-02  6.0992530E-36
  5.9999999E-02  6.5066855E-36
  7.0000000E-02  7.0585903E-36
  7.9999998E-02  7.6426806E-36
  9.0000004E-02  8.1825980E-36
  0.1000000      8.7905073E-36
  0.1100000      9.4320457E-36
  0.1200000      1.0090838E-35
  0.1300000      1.0852869E-35
  0.1400000      1.1757012E-35
  0.1500000      1.2636165E-35
  0.1600000      1.3565397E-35
  0.1700000      1.4639271E-35
  0.1800000      1.5987616E-35
  0.1900000      1.7655932E-35
  0.2000000      1.9189621E-35
  0.2100000      2.0407726E-35
  0.2200000      2.1368348E-35
  0.2300000      2.2050809E-35
  0.2400000      2.2447917E-35
  0.2500000      2.2349236E-35
  0.2600000      2.1586266E-35
  0.2700000      2.0118012E-35
  0.2800000      1.7957885E-35
  0.2900000      1.5507142E-35
  0.3000000      1.3044701E-35
  0.3100000      9.9093542E-36
  0.3200000      5.6824411E-36
  0.3300000      4.1213076E-37
  0.3400000     -5.3196723E-36
  0.3500000     -1.1140894E-35
  0.3600000     -1.7334026E-35
  0.3700000     -2.4094589E-35
  0.3800000     -3.0649374E-35
  0.3900000     -3.7011223E-35
  0.4000000     -4.3753395E-35
  0.4100000     -5.1464187E-35
  0.4200000     -6.0928088E-35
  0.4300000     -7.1507256E-35
  0.4400000     -8.2648801E-35
  0.4500000     -9.4212514E-35
  0.4600000     -1.0664228E-34
  0.4700000     -1.2232916E-34
  0.4800000     -1.4147401E-34
  0.4900000     -1.6456945E-34
  0.5000000     -1.8921501E-34
  0.5100000     -2.1121200E-34
  0.5200000     -2.3195823E-34
  0.5300000     -2.5476767E-34
  0.5400000     -2.8006846E-34
  0.5500000     -3.1453315E-34
  0.5600000     -3.6180286E-34
  0.5700000     -4.1454015E-34
  0.5800000     -4.7009465E-34
  0.5900000     -5.2613754E-34
  0.6000000     -5.8033421E-34
  0.6100000     -6.3329331E-34
  0.6200000     -6.8621214E-34
  0.6300000     -7.3818763E-34
  0.6400000     -7.8484222E-34
  0.6500000     -8.2582381E-34
  0.6600000     -8.6354836E-34
  0.6700000     -8.9885847E-34
  0.6800000     -9.3401209E-34
  0.6900000     -9.6943809E-34
  0.7000000     -1.0063710E-33
  0.7100000     -1.0436598E-33
  0.7200000     -1.0804090E-33
  0.7300000     -1.1207685E-33
  0.7400000     -1.1657609E-33
  0.7500000     -1.2153274E-33
  0.7600000     -1.2726231E-33
  0.7700000     -1.3375716E-33
  0.7800000     -1.4099089E-33
  0.7900000     -1.4909180E-33
  0.8000000     -1.5820336E-33
  0.8100000     -1.6815842E-33
  0.8200000     -1.7815194E-33
  0.8300000     -1.8786066E-33
  0.8400000     -1.9731659E-33
  0.8500000     -2.0606717E-33
  0.8600000     -2.1368258E-33
  0.8700000     -2.2022157E-33
  0.8800000     -2.2531077E-33
  0.8900000     -2.2882851E-33
  0.9000000     -2.3087591E-33
  0.9100000     -2.3118890E-33
  0.9200000     -2.2950096E-33
  0.9300000     -2.2621898E-33
  0.9400000     -2.2175661E-33
  0.9500000     -2.1568615E-33
  0.9600000     -2.0785493E-33
  0.9700000     -1.9851311E-33
  0.9800000     -1.8812981E-33
  0.9900000     -1.7710453E-33
   1.000000     -1.6675533E-33
   1.010000     -1.5763061E-33
   1.020000     -1.4950411E-33
   1.030000     -1.4265648E-33
   1.040000     -1.3741500E-33
   1.050000     -1.3412712E-33
   1.060000     -1.3275533E-33
   1.070000     -1.3303571E-33
   1.080000     -1.3441635E-33
   1.090000     -1.3595751E-33
   1.100000     -1.3651002E-33
   1.110000     -1.3506425E-33
   1.120000     -1.3060956E-33
   1.130000     -1.2187125E-33
   1.140000     -1.0749972E-33
   1.150000     -8.6349069E-34
   1.160000     -5.7401304E-34
   1.170000     -1.9795926E-34
   1.180000      2.6912693E-34
   1.190000      8.2080160E-34
   1.200000      1.4491096E-33
   1.210000      2.1526819E-33
   1.220000      2.9192050E-33
   1.230000      3.7273732E-33
   1.240000      4.5594318E-33
   1.250000      5.3929447E-33
   1.260000      6.2039815E-33
   1.270000      6.9709247E-33
   1.280000      7.6731173E-33
   1.290000      8.2927593E-33
   1.300000      8.8190847E-33
   1.310000      9.2472952E-33
   1.320000      9.5789492E-33
   1.330000      9.8254121E-33
   1.340000      1.0007107E-32
   1.350000      1.0154102E-32
   1.360000      1.0302852E-32
   1.370000      1.0494864E-32
   1.380000      1.0778069E-32
   1.390000      1.1203617E-32
   1.400000      1.1821341E-32
   1.410000      1.2679364E-32
   1.420000      1.3819235E-32
   1.430000      1.5270043E-32
   1.440000      1.7049128E-32
   1.450000      1.9161512E-32
   1.460000      2.1594836E-32
   1.470000      2.4320580E-32
   1.480000      2.7295813E-32
   1.490000      3.0462422E-32
   1.500000      3.3751243E-32
   1.510000      3.7085571E-32
   1.520000      4.0384855E-32
   1.530000      4.3570277E-32
   1.540000      4.6571058E-32
   1.550000      4.9330273E-32
   1.560000      5.1809673E-32
   1.570000      5.3994640E-32
   1.580000      5.5899217E-32
   1.590000      5.7568278E-32
   1.600000      5.9077795E-32
   1.610000      6.0534509E-32
   1.620000      6.2072602E-32
   1.630000      6.3849039E-32
   1.640000      6.6039837E-32
   1.650000      6.8828086E-32
   1.660000      7.2392255E-32
   1.670000      7.6899618E-32
   1.680000      8.2494642E-32
   1.690000      8.9287177E-32
   1.700000      9.7345638E-32
   1.710000      1.0668887E-31
   1.720000      1.1727882E-31
   1.730000      1.2902092E-31
   1.740000      1.4176476E-31
   1.750000      1.5530895E-31
   1.760000      1.6941053E-31
   1.770000      1.8379670E-31
   1.780000      1.9817951E-31
   1.790000      2.1227401E-31
   1.800000      2.2581681E-31
   1.810000      2.3858468E-31
   1.820000      2.5041382E-31
   1.830000      2.6121553E-31
   1.840000      2.7098967E-31
   1.850000      2.7983313E-31
   1.860000      2.8794282E-31
   1.870000      2.9561283E-31
   1.880000      3.0322488E-31
   1.890000      3.1123218E-31
   1.900000      3.2013785E-31
   1.910000      3.3046501E-31
   1.920000      3.4272633E-31
   1.930000      3.5739114E-31
   1.940000      3.7484799E-31
   1.950000      3.9537151E-31
   1.960000      4.1909247E-31
   1.970000      4.4597311E-31
   1.980000      4.7579084E-31
   1.990000      5.0813137E-31
   2.000000      5.4239242E-31
   2.010000      5.7779911E-31
   2.020000      6.1343102E-31
   2.030000      6.4826007E-31
   2.040000      6.8119771E-31
   2.050000      7.1114973E-31
   2.060000      7.3707558E-31
   2.070000      7.5804871E-31
   2.080000      7.7331462E-31
   2.090000      7.8234222E-31
   2.100000      7.8486554E-31
   2.110000      7.8091108E-31
   2.120000      7.7080884E-31
   2.130000      7.5518445E-31
   2.140000      7.3493101E-31
   2.150000      7.1116035E-31
   2.160000      6.8513585E-31
   2.170000      6.5818914E-31
   2.180000      6.3162274E-31
   2.190000      6.0660549E-31
   2.200000      5.8406600E-31
   2.210000      5.6459055E-31
   2.220000      5.4833135E-31
   2.230000      5.3493311E-31
   2.240000      5.2348332E-31
   2.250000      5.1249095E-31
   2.260000      4.9989877E-31
   2.270000      4.8312996E-31
   2.280000      4.5917005E-31
   2.290000      4.2468133E-31
   2.300000      3.7614653E-31
   2.310000      3.1003424E-31
   2.320000      2.2297868E-31
   2.330000      1.1196318E-31
   2.340000     -2.5503114E-32
   2.350000     -1.9122707E-31
   2.360000     -3.8620340E-31
   2.370000     -6.1052642E-31
   2.380000     -8.6335048E-31
   2.390000     -1.1429068E-30
   2.400000     -1.4465783E-30
   2.410000     -1.7710344E-30
   2.420000     -2.1124201E-30
   2.430000     -2.4665957E-30
   2.440000     -2.8294121E-30
   2.450000     -3.1970102E-30
   2.460000     -3.5661260E-30
   2.470000     -3.9343864E-30
   2.480000     -4.3005685E-30
   2.490000     -4.6648134E-30
   2.500000     -5.0287690E-30
   2.510000     -5.3956481E-30
   2.520000     -5.7701978E-30
   2.530000     -6.1585620E-30
   2.540000     -6.5680485E-30
   2.550000     -7.0068002E-30
   2.560000     -7.4833814E-30
   2.570000     -8.0063029E-30
   2.580000     -8.5835071E-30
   2.590000     -9.2218333E-30
   2.600000     -9.9265145E-30
   2.610000     -1.0700711E-29
   2.620000     -1.1545137E-29
   2.630000     -1.2457799E-29
   2.640000     -1.3433864E-29
   2.650000     -1.4465691E-29
   2.660000     -1.5543028E-29
   2.670000     -1.6653367E-29
   2.680000     -1.7782469E-29
   2.690000     -1.8915012E-29
   2.700000     -2.0035353E-29
   2.710000     -2.1128362E-29
   2.720000     -2.2180270E-29
   2.730000     -2.3179483E-29
   2.740000     -2.4117327E-29
   2.750000     -2.4988634E-29
   2.760000     -2.5792168E-29
   2.770000     -2.6530807E-29
   2.780000     -2.7211470E-29
   2.790000     -2.7844782E-29
   2.800000     -2.8444442E-29
   2.810000     -2.9026364E-29
   2.820000     -2.9607562E-29
   2.830000     -3.0204865E-29
   2.840000     -3.0833537E-29
   2.850000     -3.1505831E-29
   2.860000     -3.2229619E-29
   2.870000     -3.3007147E-29
   2.880000     -3.3833988E-29
   2.890000     -3.4698339E-29
   2.900000     -3.5580659E-29
   2.910000     -3.6453734E-29
   2.920000     -3.7283193E-29
   2.930000     -3.8028465E-29
   2.940000     -3.8644164E-29
   2.950000     -3.9081855E-29
   2.960000     -3.9292110E-29
   2.970000     -3.9226745E-29
   2.980000     -3.8841132E-29
   2.990000     -3.8096456E-29
   3.000000     -3.6961725E-29
   3.010000     -3.5415456E-29
   3.020000     -3.3446879E-29
   3.030000     -3.1056550E-29
   3.040000     -2.8256272E-29
   3.050000     -2.5068344E-29
   3.060000     -2.1524044E-29
   3.070000     -1.7661443E-29
   3.080000     -1.3522634E-29
   3.090000     -9.1504806E-30
   3.100000     -4.5850528E-30
   3.110000      1.4003823E-31
   3.120000      5.0011864E-30
   3.130000      9.9880156E-30
   3.140000      1.5106035E-29
   3.150000      2.0378496E-29
   3.160000      2.5847346E-29
   3.170000      3.1573055E-29
   3.180000      3.7633324E-29
   3.190000      4.4120608E-29
   3.200000      5.1138526E-29
   3.210000      5.8797311E-29
   3.220000      6.7208473E-29
   3.230000      7.6478973E-29
   3.240000      8.6705161E-29
   3.250000      9.7966874E-29
   3.260000      1.1032209E-28
   3.270000      1.2380241E-28
   3.280000      1.3840970E-28
   3.290000      1.5411430E-28
   3.300000      1.7085488E-28
   3.310000      1.8854012E-28
   3.320000      2.0705220E-28
   3.330000      2.2625209E-28
   3.340000      2.4598634E-28
   3.350000      2.6609508E-28
   3.360000      2.8642088E-28
   3.370000      3.0681790E-28
   3.380000      3.2716083E-28
   3.390000      3.4735305E-28
   3.400000      3.6733329E-28
   3.410000      3.8708077E-28
   3.420000      4.0661745E-28
   3.430000      4.2600819E-28
   3.440000      4.4535763E-28
   3.450000      4.6480446E-28
   3.460000      4.8451265E-28
   3.470000      5.0466048E-28
   3.480000      5.2542768E-28
   3.490000      5.4698072E-28
   3.500000      5.6945824E-28
   3.510000      5.9295642E-28
   3.520000      6.1751544E-28
   3.530000      6.4310826E-28
   3.540000      6.6963222E-28
   3.550000      6.9690425E-28
   3.560000      7.2466022E-28
   3.570000      7.5255886E-28
   3.580000      7.8018969E-28
   3.590000      8.0708622E-28
   3.600000      8.3274187E-28
   3.610000      8.5662985E-28
   3.620000      8.7822502E-28
   3.630000      8.9702623E-28
   3.640000      9.1257899E-28
   3.650000      9.2449539E-28
   3.660000      9.3247220E-28
   3.670000      9.3630326E-28
   3.680000      9.3588746E-28
   3.690000      9.3122969E-28
   3.700000      9.2243512E-28
   3.710000      9.0969693E-28
   3.720000      8.9327693E-28
   3.730000      8.7348039E-28
   3.740000      8.5062606E-28
   3.750000      8.2501311E-28
   3.760000      7.9688616E-28
   3.770000      7.6640163E-28
   3.780000      7.3359562E-28
   3.790000      6.9835761E-28
   3.800000      6.6041019E-28
   3.810000      6.1929804E-28
   3.820000      5.7438545E-28
   3.830000      5.2486555E-28
   3.840000      4.6977972E-28
   3.850000      4.0804726E-28
   3.860000      3.3850482E-28
   3.870000      2.5995304E-28
   3.880000      1.7120837E-28
   3.890000      7.1157641E-29
   3.900000     -4.1187688E-29
   3.910000     -1.6664111E-28
   3.920000     -3.0579776E-28
   3.930000     -4.5900096E-28
   3.940000     -6.2632089E-28
   3.950000     -8.0754883E-28
   3.960000     -1.0022065E-27
   3.970000     -1.2095711E-27
   3.980000     -1.4287168E-27
   3.990000     -1.6585708E-27
   4.000000     -1.8979787E-27
   4.010000     -2.1457806E-27
   4.020000     -2.4008885E-27
   4.030000     -2.6623659E-27
   4.040000     -2.9294995E-27
   4.050000     -3.2018620E-27
   4.060000     -3.4793592E-27
   4.070000     -3.7622579E-27
   4.080000     -4.0511929E-27
   4.090000     -4.3471482E-27
   4.100000     -4.6514163E-27
   4.110000     -4.9655312E-27
   4.120000     -5.2911801E-27
   4.130000     -5.6300991E-27
   4.140000     -5.9839552E-27
   4.150000     -6.3542207E-27
   4.160000     -6.7420490E-27
   4.170000     -7.1481599E-27
   4.180000     -7.5727342E-27
   4.190000     -8.0153376E-27
   4.200000     -8.4748683E-27
   4.210000     -8.9495345E-27
   4.220000     -9.4368772E-27
   4.230000     -9.9338180E-27
   4.240000     -1.0436754E-26
   4.250000     -1.0941669E-26
   4.260000     -1.1444298E-26
   4.270000     -1.1940280E-26
   4.280000     -1.2425347E-26
   4.290000     -1.2895498E-26
   4.300000     -1.3347168E-26
   4.310000     -1.3777379E-26
   4.320000     -1.4183848E-26
   4.330000     -1.4565070E-26
   4.340000     -1.4920333E-26
   4.350000     -1.5249700E-26
   4.360000     -1.5553924E-26
   4.370000     -1.5834320E-26
   4.380000     -1.6092574E-26
   4.390000     -1.6330524E-26
   4.400000     -1.6549912E-26
   4.410000     -1.6752108E-26
   4.420000     -1.6937851E-26
   4.430000     -1.7106983E-26
   4.440000     -1.7258235E-26
   4.450000     -1.7389047E-26
   4.460000     -1.7495457E-26
   4.470000     -1.7572052E-26
   4.480000     -1.7612002E-26
   4.490000     -1.7607174E-26
   4.500000     -1.7548334E-26
   4.510000     -1.7425404E-26
   4.520000     -1.7227798E-26
   4.530000     -1.6944789E-26
   4.540000     -1.6565922E-26
   4.550000     -1.6081409E-26
   4.560000     -1.5482515E-26
   4.570000     -1.4761913E-26
   4.580000     -1.3913941E-26
   4.590000     -1.2934817E-26
   4.600000     -1.1822711E-26
   4.610000     -1.0577731E-26
   4.620000     -9.2017774E-27
   4.630000     -7.6982879E-27
   4.640000     -6.0718797E-27
   4.650000     -4.3278916E-27
   4.660000     -2.4718706E-27
   4.670000     -5.0901515E-28
   4.680000      1.5563997E-27
   4.690000      3.7215534E-27
   4.700000      5.9855580E-27
   4.710000      8.3498315E-27
   4.720000      1.0818359E-26
   4.730000      1.3397804E-26
   4.740000      1.6097437E-26
   4.750000      1.8928910E-26
   4.760000      2.1905858E-26
   4.770000      2.5043335E-26
   4.780000      2.8357121E-26
   4.790000      3.1862918E-26
   4.800000      3.5575504E-26
   4.810000      3.9507827E-26
   4.820000      4.3670200E-26
   4.830000      4.8069507E-26
   4.840000      5.2708604E-26
   4.850000      5.7585854E-26
   4.860000      6.2694899E-26
   4.870000      6.8024653E-26
   4.880000      7.3559566E-26
   4.890000      7.9280083E-26
   4.900000      8.5163383E-26
   4.910000      9.1184315E-26
   4.920000      9.7316439E-26
   4.930000      1.0353320E-25
   4.940000      1.0980913E-25
   4.950000      1.1612098E-25
   4.960000      1.2244876E-25
   4.970000      1.2877661E-25
   4.980000      1.3509335E-25
   4.990000      1.4139285E-25
   5.000000      1.4767387E-25
   5.010000      1.5393978E-25
   5.020000      1.6019777E-25
   5.030000      1.6645770E-25
   5.040000      1.7273083E-25
   5.050000      1.7902821E-25
   5.060000      1.8535889E-25
   5.070000      1.9172822E-25
   5.080000      1.9813604E-25
   5.090000      2.0457519E-25
   5.100000      2.1103018E-25
   5.110000      2.1747628E-25
   5.120000      2.2387890E-25
   5.130000      2.3019370E-25
   5.140000      2.3636694E-25
   5.150000      2.4233649E-25
   5.160000      2.4803345E-25
   5.170000      2.5338375E-25
   5.180000      2.5831063E-25
   5.190000      2.6273698E-25
   5.200000      2.6658788E-25
   5.210000      2.6979302E-25
   5.220000      2.7228900E-25
   5.230000      2.7402131E-25
   5.240000      2.7494561E-25
   5.250000      2.7502866E-25
   5.260000      2.7424850E-25
   5.270000      2.7259387E-25
   5.280000      2.7006291E-25
   5.290000      2.6666117E-25
   5.300000      2.6239925E-25
   5.310000      2.5728960E-25
   5.320000      2.5134324E-25
   5.330000      2.4456636E-25
   5.340000      2.3695693E-25
   5.350000      2.2850152E-25
   5.360000      2.1917282E-25
   5.370000      2.0892767E-25
   5.380000      1.9770590E-25
   5.390000      1.8543042E-25
   5.400000      1.7200796E-25
   5.410000      1.5733105E-25
   5.420000      1.4128090E-25
   5.430000      1.2373126E-25
   5.440000      1.0455283E-25
   5.450000      8.3618245E-26
   5.460000      6.0807260E-26
   5.470000      3.6011901E-26
   5.480000      9.1411507E-27
   5.490000     -1.9874836E-26
   5.500000     -5.1081579E-26
   5.510000     -8.4498306E-26
   5.520000     -1.2011711E-25
   5.530000     -1.5790365E-25
   5.540000     -1.9779928E-25
   5.550000     -2.3972452E-25
   5.560000     -2.8358381E-25
   5.570000     -3.2927099E-25
   5.580000     -3.7667595E-25
   5.590000     -4.2569124E-25
   5.600000     -4.7621866E-25
   5.610000     -5.2817546E-25
   5.620000     -5.8149955E-25
   5.630000     -6.3615370E-25
   5.640000     -6.9212802E-25
   5.650000     -7.4944019E-25
   5.660000     -8.0813435E-25
   5.670000     -8.6827780E-25
   5.680000     -9.2995578E-25
   5.690000     -9.9326384E-25
   5.700000     -1.0583003E-24
   5.710000     -1.1251558E-24
   5.720000     -1.1939039E-24
   5.730000     -1.2645915E-24
   5.740000     -1.3372286E-24
   5.750000     -1.4117807E-24
   5.760000     -1.4881621E-24
   5.770000     -1.5662321E-24
   5.780000     -1.6457925E-24
   5.790000     -1.7265889E-24
   5.800000     -1.8083149E-24
   5.810000     -1.8906180E-24
   5.820000     -1.9731082E-24
   5.830000     -2.0553708E-24
   5.840000     -2.1369765E-24
   5.850000     -2.2174965E-24
   5.860000     -2.2965147E-24
   5.870000     -2.3736405E-24
   5.880000     -2.4485203E-24
   5.890000     -2.5208466E-24
   5.900000     -2.5903626E-24
   5.910000     -2.6568666E-24
   5.920000     -2.7202093E-24
   5.930000     -2.7802890E-24
   5.940000     -2.8370440E-24
   5.950000     -2.8904392E-24
   5.960000     -2.9404520E-24
   5.970000     -2.9870549E-24
   5.980000     -3.0301978E-24
   5.990000     -3.0697891E-24
   6.000000     -3.1056793E-24
   6.010000     -3.1376451E-24
   6.020000     -3.1653775E-24
   6.030000     -3.1884736E-24
   6.040000     -3.2064324E-24
   6.050000     -3.2186580E-24
   6.060000     -3.2244652E-24
   6.070000     -3.2230924E-24
   6.080000     -3.2137182E-24
   6.090000     -3.1954832E-24
   6.100000     -3.1675134E-24
   6.110000     -3.1289462E-24
   6.120000     -3.0789574E-24
   6.130000     -3.0167865E-24
   6.140000     -2.9417591E-24
   6.150000     -2.8533056E-24
   6.160000     -2.7509751E-24
   6.170000     -2.6344432E-24
   6.180000     -2.5035118E-24
   6.190000     -2.3581032E-24
   6.200000     -2.1982463E-24
   6.210000     -2.0240565E-24
   6.220000     -1.8357107E-24
   6.230000     -1.6334158E-24
   6.240000     -1.4173774E-24
   6.250000     -1.1877664E-24
   6.260000     -9.4468785E-25
   6.270000     -6.8815157E-25
   6.280000     -4.1805018E-25
   6.290000     -1.3414243E-25
   6.300000      1.6395520E-25
   6.310000      4.7676534E-25
   6.320000      8.0493833E-25
   6.330000      1.1492322E-24
   6.340000      1.5104822E-24
   6.350000      1.8895609E-24
   6.360000      2.2873365E-24
   6.370000      2.7046236E-24
   6.380000      3.1421330E-24
   6.390000      3.6004270E-24
   6.400000      4.0798715E-24
   6.410000      4.5806009E-24
   6.420000      5.1024928E-24
   6.430000      5.6451478E-24
   6.440000      6.2078896E-24
   6.450000      6.7897684E-24
   6.460000      7.3895891E-24
   6.470000      8.0059419E-24
   6.480000      8.6372523E-24
   6.490000      9.2818289E-24
   6.500000      9.9379301E-24
   6.510000      1.0603820E-23
   6.520000      1.1277832E-23
   6.530000      1.1958421E-23
   6.540000      1.2644211E-23
   6.550000      1.3334031E-23
   6.560000      1.4026933E-23
   6.570000      1.4722194E-23
   6.580000      1.5419307E-23
   6.590000      1.6117940E-23
   6.600000      1.6817896E-23
   6.610000      1.7519048E-23
   6.620000      1.8221261E-23
   6.630000      1.8924311E-23
   6.640000      1.9627795E-23
   6.650000      2.0331058E-23
   6.660000      2.1033106E-23
   6.670000      2.1732542E-23
   6.680000      2.2427516E-23
   6.690000      2.3115701E-23
   6.700000      2.3794274E-23
   6.710000      2.4459939E-23
   6.720000      2.5108963E-23
   6.730000      2.5737242E-23
   6.740000      2.6340383E-23
   6.750000      2.6913795E-23
   6.760000      2.7452808E-23
   6.770000      2.7952794E-23
   6.780000      2.8409273E-23
   6.790000      2.8818026E-23
   6.800000      2.9175178E-23
   6.810000      2.9477290E-23
   6.820000      2.9721392E-23
   6.830000      2.9905016E-23
   6.840000      3.0026179E-23
   6.850000      3.0083334E-23
   6.860000      3.0075303E-23
   6.870000      3.0001188E-23
   6.880000      2.9860241E-23
   6.890000      2.9651723E-23
   6.900000      2.9374773E-23
   6.910000      2.9028254E-23
   6.920000      2.8610622E-23
   6.930000      2.8119815E-23
   6.940000      2.7553157E-23
   6.950000      2.6907310E-23
   6.960000      2.6178262E-23
   6.970000      2.5361334E-23
   6.980000      2.4451260E-23
   6.990000      2.3442288E-23
   7.000000      2.2328334E-23
   7.010000      2.1103148E-23
   7.020000      1.9760513E-23
   7.030000      1.8294457E-23
   7.040000      1.6699464E-23
   7.050000      1.4970676E-23
   7.060000      1.3104062E-23