  -2.600000      0.0000000E+00
  -2.590000      0.0000000E+00
  -2.580000      0.0000000E+00
  -2.570000      0.0000000E+00
  -2.560000      0.0000000E+00
  -2.550000     -2.0653976E-30
  -2.540000     -2.5573674E-29
  -2.530000     -1.6704336E-28
  -2.520000     -7.6650972E-28
  -2.510000     -2.7735826E-27
  -2.500000     -8.4192551E-27
  -2.490000     -2.2270089E-26
  -2.480000     -5.2648398E-26
  -2.470000     -1.1323812E-25
  -2.460000     -2.2447873E-25
  -2.450000     -4.1412693E-25
  -2.440000     -7.1621717E-25
  -2.430000     -1.1676728E-24
  -2.420000     -1.8021038E-24
  -2.410000     -2.6409306E-24
  -2.400000     -3.6828839E-24
  -2.390000     -4.8940477E-24
  -2.380000     -6.2017042E-24
  -2.370000     -7.4960064E-24
  -2.360000     -8.6435505E-24
  -2.350000     -9.5158658E-24
  -2.340000     -1.0033442E-23
  -2.330000     -1.0222015E-23
  -2.320000     -1.0272719E-23
  -2.310000     -1.0591931E-23
  -2.300000     -1.1821136E-23
  -2.290000     -1.4803210E-23
  -2.280000     -2.0470761E-23
  -2.270000     -2.9635914E-23
  -2.260000     -4.2670625E-23
  -2.250000     -5.9082697E-23
  -2.240000     -7.7015171E-23
  -2.230000     -9.2723986E-23
  -2.220000     -1.0011858E-22
  -2.210000     -9.0477726E-23
  -2.200000     -5.2474425E-23
  -2.190000      2.7347716E-23
  -2.180000      1.6351287E-22
  -2.170000      3.6986492E-22
  -2.160000      6.5708958E-22
  -2.150000      1.0295489E-21
  -2.140000      1.4815803E-21
  -2.130000      1.9935402E-21
  -2.120000      2.5280071E-21
  -2.110000      3.0266926E-21
  -2.100000      3.4087047E-21
  -2.090000      3.5708805E-21
  -2.080000      3.3908993E-21
  -2.070000      2.7337972E-21
  -2.060000      1.4623439E-21
  -2.050000     -5.4855232E-22
  -2.040000     -3.3936139E-21
  -2.030000     -7.1158067E-21
  -2.020000     -1.1682996E-20
  -2.010000     -1.6964402E-20
  -2.000000     -2.2709126E-20
  -1.990000     -2.8529521E-20
  -1.980000     -3.3892423E-20
  -1.970000     -3.8121436E-20
  -1.960000     -4.0413279E-20
  -1.950000     -3.9870768E-20
  -1.940000     -3.5554077E-20
  -1.930000     -2.6550964E-20
  -1.920000     -1.2064881E-20
  -1.910000      8.4816733E-21
  -1.900000      3.5333369E-20
  -1.890000      6.8284613E-20
  -1.880000      1.0656724E-19
  -1.870000      1.4875393E-19
  -1.860000      1.9268904E-19
  -1.850000      2.3545921E-19
  -1.840000      2.7341618E-19
  -1.830000      3.0226208E-19
  -1.820000      3.1720632E-19
  -1.810000      3.1319845E-19
  -1.800000      2.8523760E-19
  -1.790000      2.2875238E-19
  -1.780000      1.4003982E-19
  -1.770000      1.6743677E-20
  -1.760000     -1.4165336E-19
  -1.750000     -3.3335648E-19
  -1.740000     -5.5384224E-19
  -1.730000     -7.9554075E-19
  -1.720000     -1.0476593E-18
  -1.710000     -1.2961903E-18
  -1.700000     -1.5241402E-18
  -1.690000     -1.7120111E-18
  -1.680000     -1.8385514E-18
  -1.670000     -1.8817838E-18
  -1.660000     -1.8202949E-18
  -1.650000     -1.6347564E-18
  -1.640000     -1.3096281E-18
  -1.630000     -8.3496681E-19
  -1.620000     -2.0825707E-19
  -1.610000      5.6384461E-19
  -1.600000      1.4639657E-18
  -1.590000      2.4627942E-18
  -1.580000      3.5182928E-18
  -1.570000      4.5754544E-18
  -1.560000      5.5666889E-18
  -1.550000      6.4128980E-18
  -1.540000      7.0252598E-18
  -1.530000      7.3077064E-18
  -1.520000      7.1600208E-18
  -1.510000      6.4814531E-18
  -1.500000      5.1746682E-18
  -1.490000      3.1498390E-18
  -1.480000      3.2862909E-19
  -1.470000     -3.3522051E-18
  -1.460000     -7.9378725E-18
  -1.450000     -1.3453536E-17
  -1.440000     -1.9903486E-17
  -1.430000     -2.7271711E-17
  -1.420000     -3.5524006E-17
  -1.410000     -4.4611660E-17
  -1.400000     -5.4476735E-17
  -1.390000     -6.5058774E-17
  -1.380000     -7.6302660E-17
  -1.370000     -8.8167368E-17
  -1.360000     -1.0063504E-16
  -1.350000     -1.1372001E-16
  -1.340000     -1.2747699E-16
  -1.330000     -1.4200802E-16
  -1.320000     -1.5746754E-16
  -1.310000     -1.7406485E-16
  -1.300000     -1.9206387E-16
  -1.290000     -2.1177952E-16
  -1.280000     -2.3357084E-16
  -1.270000     -2.5783079E-16
  -1.260000     -2.8497301E-16
  -1.250000     -3.1541606E-16
  -1.240000     -3.4956600E-16
  -1.230000     -3.8779773E-16
  -1.220000     -4.3043702E-16
  -1.210000     -4.7774342E-16
  -1.200000     -5.2989624E-16
  -1.190000     -5.8698414E-16
  -1.180000     -6.4899977E-16
  -1.170000     -7.1584020E-16
  -1.160000     -7.8731416E-16
  -1.150000     -8.6315590E-16
  -1.140000     -9.4304604E-16
  -1.130000     -1.0266388E-15
  -1.120000     -1.1135945E-15
  -1.110000     -1.2036161E-15
  -1.100000     -1.2964885E-15
  -1.090000     -1.3921173E-15
  -1.080000     -1.4905657E-15
  -1.070000     -1.5920881E-15
  -1.060000     -1.6971546E-15
  -1.050000     -1.8064691E-15
  -1.040000     -1.9209740E-15
  -1.030000     -2.0418456E-15
  -1.020000     -2.1704741E-15
  -1.010000     -2.3084318E-15
  -1.000000     -2.4574304E-15
 -0.9900000     -2.6192654E-15
 -0.9800000     -2.7957549E-15
 -0.9700000     -2.9886723E-15
 -0.9600000     -3.1996790E-15
 -0.9500000     -3.4302592E-15
 -0.9400000     -3.6816622E-15
 -0.9300000     -3.9548570E-15
 -0.9200000     -4.2505032E-15
 -0.9100000     -4.5689398E-15
 -0.9000000     -4.9101958E-15
 -0.8900000     -5.2740252E-15
 -0.8800000     -5.6599618E-15
 -0.8700000     -6.0673999E-15
 -0.8600000     -6.4956903E-15
 -0.8500000     -6.9442539E-15
 -0.8400000     -7.4127038E-15
 -0.8300000     -7.9009692E-15
 -0.8200000     -8.4094134E-15
 -0.8100000     -8.9389445E-15
 -0.8000000     -9.4911024E-15
 -0.7900000     -1.0068122E-14
 -0.7800000     -1.0672959E-14
 -0.7700000     -1.1309287E-14
 -0.7600000     -1.1981445E-14
 -0.7500000     -1.2694352E-14
 -0.7400000     -1.3453391E-14
 -0.7300000     -1.4264236E-14
 -0.7200000     -1.5132681E-14
 -0.7100000     -1.6064429E-14
 -0.7000000     -1.7064898E-14
 -0.6900000     -1.8139014E-14
 -0.6800000     -1.9291025E-14
 -0.6700000     -2.0524360E-14
 -0.6600000     -2.1841526E-14
 -0.6500000     -2.3244051E-14
 -0.6400000     -2.4732500E-14
 -0.6300000     -2.6306553E-14
 -0.6200000     -2.7965145E-14
 -0.6100000     -2.9706679E-14
 -0.6000000     -3.1529277E-14
 -0.5900000     -3.3431106E-14
 -0.5800000     -3.5410714E-14
 -0.5700000     -3.7467371E-14
 -0.5600000     -3.9601430E-14
 -0.5500000     -4.1814618E-14
 -0.5400000     -4.4110322E-14
 -0.5300000     -4.6493760E-14
 -0.5200000     -4.8972111E-14
 -0.5100000     -5.1554498E-14
 -0.5000000     -5.4251905E-14
 -0.4900000     -5.7076963E-14
 -0.4800000     -6.0043631E-14
 -0.4700000     -6.3166777E-14
 -0.4600000     -6.6461735E-14
 -0.4500000     -6.9943719E-14
 -0.4400000     -7.3627302E-14
 -0.4300000     -7.7525856E-14
 -0.4200000     -8.1651028E-14
 -0.4100000     -8.6012327E-14
 -0.4000000     -9.0616791E-14
 -0.3900000     -9.5468812E-14
 -0.3800000     -1.0057006E-13
 -0.3700000     -1.0591967E-13
 -0.3600000     -1.1151452E-13
 -0.3500000     -1.1734964E-13
 -0.3400000     -1.2341893E-13
 -0.3300000     -1.2971579E-13
 -0.3200000     -1.3623399E-13
 -0.3100000     -1.4296850E-13
 -0.3000000     -1.4991631E-13
 -0.2900000     -1.5707720E-13
 -0.2800000     -1.6445450E-13
 -0.2700000     -1.7205538E-13
 -0.2600000     -1.7989131E-13
 -0.2500000     -1.8797805E-13
 -0.2400000     -1.9633537E-13
 -0.2300000     -2.0498661E-13
 -0.2200000     -2.1395795E-13
 -0.2100000     -2.2327736E-13
 -0.2000000     -2.3297347E-13
 -0.1900000     -2.4307439E-13
 -0.1800000     -2.5360608E-13
 -0.1700000     -2.6459116E-13
 -0.1600000     -2.7604760E-13
 -0.1500000     -2.8798757E-13
 -0.1400000     -3.0041662E-13
 -0.1300000     -3.1333313E-13
 -0.1200000     -3.2672801E-13
 -0.1100000     -3.4058498E-13
 -0.1000000     -3.5488116E-13
 -9.0000004E-02 -3.6958791E-13
 -7.9999998E-02 -3.8467230E-13
 -7.0000000E-02 -4.0009871E-13
 -5.9999999E-02 -4.1583046E-13
 -5.0000001E-02 -4.3183198E-13
 -3.9999999E-02 -4.4807064E-13
 -2.9999999E-02 -4.6451851E-13
 -2.0000000E-02 -4.8115391E-13
 -9.9999998E-03 -4.9796257E-13
 -3.4694470E-17 -5.1493852E-13
  9.9999998E-03 -5.3208420E-13
  2.0000000E-02 -5.4940996E-13
  2.9999999E-02 -5.6693349E-13
  3.9999999E-02 -5.8467792E-13
  5.0000001E-02 -6.0266977E-13
  5.9999999E-02 -6.2093662E-13
  7.0000000E-02 -6.3950429E-13
  7.9999998E-02 -6.5839380E-13
  9.0000004E-02 -6.7761833E-13
  0.1000000     -6.9718049E-13
  0.1100000     -7.1706990E-13
  0.1200000     -7.3726089E-13
  0.1300000     -7.5771171E-13
  0.1400000     -7.7836365E-13
  0.1500000     -7.9914151E-13
  0.1600000     -8.1995473E-13
  0.1700000     -8.4069926E-13
  0.1800000     -8.6126082E-13
  0.1900000     -8.8151784E-13
  0.2000000     -9.0134562E-13
  0.2100000     -9.2062068E-13
  0.2200000     -9.3922483E-13
  0.2300000     -9.5704900E-13
  0.2400000     -9.7399758E-13
  0.2500000     -9.8999032E-13
  0.2600000     -1.0049648E-12
  0.2700000     -1.0188770E-12
  0.2800000     -1.0317013E-12
  0.2900000     -1.0434287E-12
  0.3000000     -1.0540636E-12
  0.3100000     -1.0636211E-12
  0.3200000     -1.0721209E-12
  0.3300000     -1.0795828E-12
  0.3400000     -1.0860201E-12
  0.3500000     -1.0914343E-12
  0.3600000     -1.0958095E-12
  0.3700000     -1.0991069E-12
  0.3800000     -1.1012610E-12
  0.3900000     -1.1021776E-12
  0.4000000     -1.1017322E-12
  0.4100000     -1.0997710E-12
  0.4200000     -1.0961128E-12
  0.4300000     -1.0905536E-12
  0.4400000     -1.0828725E-12
  0.4500000     -1.0728382E-12
  0.4600000     -1.0602173E-12
  0.4700000     -1.0447839E-12
  0.4800000     -1.0263274E-12
  0.4900000     -1.0046615E-12
  0.5000000     -9.7963217E-13
  0.5100000     -9.5112329E-13
  0.5200000     -9.1906181E-13
  0.5300000     -8.8342024E-13
  0.5400000     -8.4421619E-13
  0.5500000     -8.0151060E-13
  0.5600000     -7.5540312E-13
  0.5700000     -7.0602508E-13
  0.5800000     -6.5353099E-13
  0.5900000     -5.9808804E-13
  0.6000000     -5.3986552E-13
  0.6100000     -4.7902372E-13
  0.6200000     -4.1570285E-13
  0.6300000     -3.5001366E-13
  0.6400000     -2.8203020E-13
  0.6500000     -2.1178414E-13
  0.6600000     -1.3926264E-13
  0.6700000     -6.4409300E-14
  0.6800000      1.2871512E-14
  0.6900000      9.2707275E-14
  0.7000000      1.7524636E-13
  0.7100000      2.6064486E-13
  0.7200000      3.4905163E-13
  0.7300000      4.4059160E-13
  0.7400000      5.3534835E-13
  0.7500000      6.3334846E-13
  0.7600000      7.3454697E-13
  0.7700000      8.3881459E-13
  0.7800000      9.4592910E-13
  0.7900000      1.0555699E-12
  0.8000000      1.1673177E-12
  0.8100000      1.2806580E-12
  0.8200000      1.3949899E-12
  0.8300000      1.5096381E-12
  0.8400000      1.6238703E-12
  0.8500000      1.7369158E-12
  0.8600000      1.8479862E-12
  0.8700000      1.9562969E-12
  0.8800000      2.0610883E-12
  0.8900000      2.1616448E-12
  0.9000000      2.2573100E-12
  0.9100000      2.3474998E-12
  0.9200000      2.4317076E-12
  0.9300000      2.5095052E-12
  0.9400000      2.5805382E-12
  0.9500000      2.6445150E-12
  0.9600000      2.7011893E-12
  0.9700000      2.7503390E-12
  0.9800000      2.7917410E-12
  0.9900000      2.8251442E-12
   1.000000      2.8502415E-12
   1.010000      2.8666414E-12
   1.020000      2.8738448E-12
   1.030000      2.8712245E-12
   1.040000      2.8580101E-12
   1.050000      2.8332814E-12
   1.060000      2.7959688E-12
   1.070000      2.7448621E-12
   1.080000      2.6786271E-12
   1.090000      2.5958296E-12
   1.100000      2.4949693E-12
   1.110000      2.3745140E-12
   1.120000      2.2329406E-12
   1.130000      2.0687781E-12
   1.140000      1.8806482E-12
   1.150000      1.6673036E-12
   1.160000      1.4276615E-12
   1.170000      1.1608285E-12
   1.180000      8.6611892E-13
   1.190000      5.4306207E-13
   1.200000      1.9139963E-13
   1.210000     -1.8892764E-13
   1.220000     -5.9780344E-13
   1.230000     -1.0349668E-12
   1.240000     -1.5000502E-12
   1.250000     -1.9926231E-12
   1.260000     -2.5122361E-12
   1.270000     -3.0584623E-12
   1.280000     -3.6309376E-12
   1.290000     -4.2293929E-12
   1.300000     -4.8536752E-12
   1.310000     -5.5037585E-12
   1.320000     -6.1797442E-12
   1.330000     -6.8818410E-12
   1.340000     -7.6103342E-12
   1.350000     -8.3655470E-12
   1.360000     -9.1477789E-12
   1.370000     -9.9572477E-12
   1.380000     -1.0794012E-11
   1.390000     -1.1657904E-11
   1.400000     -1.2548454E-11
   1.410000     -1.3464824E-11
   1.420000     -1.4405745E-11
   1.430000     -1.5369471E-11
   1.440000     -1.6353753E-11
   1.450000     -1.7355815E-11
   1.460000     -1.8372356E-11
   1.470000     -1.9399576E-11
   1.480000     -2.0433212E-11
   1.490000     -2.1468587E-11
   1.500000     -2.2500678E-11
   1.510000     -2.3524191E-11
   1.520000     -2.4533637E-11
   1.530000     -2.5523413E-11
   1.540000     -2.6487859E-11
   1.550000     -2.7421338E-11
   1.560000     -2.8318278E-11
   1.570000     -2.9173195E-11
   1.580000     -2.9980709E-11
   1.590000     -3.0735529E-11
   1.600000     -3.1432416E-11
   1.610000     -3.2066131E-11
   1.620000     -3.2631356E-11
   1.630000     -3.3122602E-11
   1.640000     -3.3534116E-11
   1.650000     -3.3859769E-11
   1.660000     -3.4092961E-11
   1.670000     -3.4226524E-11
   1.680000     -3.4252639E-11
   1.690000     -3.4162773E-11
   1.700000     -3.3947650E-11
   1.710000     -3.3597253E-11
   1.720000     -3.3100817E-11
   1.730000     -3.2446910E-11
   1.740000     -3.1623502E-11
   1.750000     -3.0618060E-11
   1.760000     -2.9417701E-11
   1.770000     -2.8009336E-11
   1.780000     -2.6379810E-11
   1.790000     -2.4516061E-11
   1.800000     -2.2405293E-11
   1.810000     -2.0035088E-11
   1.820000     -1.7393528E-11
   1.830000     -1.4469280E-11
   1.840000     -1.1251659E-11
   1.850000     -7.7306503E-12
   1.860000     -3.8968885E-12
   1.870000      2.5838636E-13
   1.880000      4.7433923E-12
   1.890000      9.5659175E-12
   1.900000      1.4733428E-11
   1.910000      2.0253193E-11
   1.920000      2.6132416E-11
   1.930000      3.2378333E-11
   1.940000      3.8998322E-11
   1.950000      4.5999940E-11
   1.960000      5.3390955E-11
   1.970000      6.1179346E-11
   1.980000      6.9373222E-11
   1.990000      7.7980726E-11
   2.000000      8.7009844E-11
   2.010000      9.6468215E-11
   2.020000      1.0636294E-10
   2.030000      1.1670026E-10
   2.040000      1.2748530E-10
   2.050000      1.3872187E-10
   2.060000      1.5041202E-10
   2.070000      1.6255597E-10
   2.080000      1.7515184E-10
   2.090000      1.8819546E-10
   2.100000      2.0168023E-10
   2.110000      2.1559712E-10
   2.120000      2.2993463E-10
   2.130000      2.4467883E-10
   2.140000      2.5981345E-10
   2.150000      2.7532004E-10
   2.160000      2.9117816E-10
   2.170000      3.0736555E-10
   2.180000      3.2385830E-10
   2.190000      3.4063108E-10
   2.200000      3.5765726E-10
   2.210000      3.7490913E-10
   2.220000      3.9235781E-10
   2.230000      4.0997347E-10
   2.240000      4.2772502E-10
   2.250000      4.4558018E-10
   2.260000      4.6350532E-10
   2.270000      4.8146509E-10
   2.280000      4.9942234E-10
   2.290000      5.1733745E-10
   2.300000      5.3516830E-10
   2.310000      5.5286981E-10
   2.320000      5.7039357E-10
   2.330000      5.8768773E-10
   2.340000      6.0469657E-10
   2.350000      6.2136035E-10
   2.360000      6.3761546E-10
   2.370000      6.5339423E-10
   2.380000      6.6862482E-10
   2.390000      6.8323192E-10
   2.400000      6.9713652E-10
   2.410000      7.1025669E-10
   2.420000      7.2250772E-10
   2.430000      7.3380257E-10
   2.440000      7.4405254E-10
   2.450000      7.5316742E-10
   2.460000      7.6105616E-10
   2.470000      7.6762730E-10
   2.480000      7.7278911E-10
   2.490000      7.7644985E-10
   2.500000      7.7851825E-10
   2.510000      7.7890311E-10
   2.520000      7.7751361E-10
   2.530000      7.7425899E-10
   2.540000      7.6904855E-10
   2.550000      7.6179135E-10
   2.560000      7.5239587E-10
   2.570000      7.4077006E-10
   2.580000      7.2682071E-10
   2.590000      7.1045347E-10
   2.600000      6.9157280E-10
   2.610000      6.7008166E-10
   2.620000      6.4588218E-10
   2.630000      6.1887540E-10
   2.640000      5.8896182E-10
   2.650000      5.5604193E-10
   2.660000      5.2001703E-10
   2.670000      4.8078957E-10
   2.680000      4.3826429E-10
   2.690000      3.9234896E-10
   2.700000      3.4295572E-10
   2.710000      2.9000150E-10
   2.720000      2.3340915E-10
   2.730000      1.7310824E-10
   2.740000      1.0903561E-10
   2.750000      4.1136254E-11
   2.760000     -3.0636285E-11
   2.770000     -1.0631976E-10
   2.780000     -1.8594286E-10
   2.790000     -2.6952524E-10
   2.800000     -3.5707759E-10
   2.810000     -4.4860163E-10
   2.820000     -5.4409072E-10
   2.830000     -6.4352979E-10
   2.840000     -7.4689566E-10
   2.850000     -8.5415708E-10
   2.860000     -9.6527530E-10
   2.870000     -1.0802040E-09
   2.880000     -1.1988884E-09
   2.890000     -1.3212657E-09
   2.900000     -1.4472640E-09
   2.910000     -1.5768027E-09
   2.920000     -1.7097908E-09
   2.930000     -1.8461258E-09
   2.940000     -1.9856938E-09
   2.950000     -2.1283668E-09
   2.960000     -2.2740037E-09
   2.970000     -2.4224462E-09
   2.980000     -2.5735210E-09
   2.990000     -2.7270364E-09
   3.000000     -2.8827833E-09
   3.010000     -3.0405334E-09
   3.020000     -3.2000393E-09
   3.030000     -3.3610352E-09
   3.040000     -3.5232361E-09
   3.050000     -3.6863379E-09
   3.060000     -3.8500185E-09
   3.070000     -4.0139390E-09
   3.080000     -4.1777435E-09
   3.090000     -4.3410622E-09
   3.100000     -4.5035096E-09
   3.110000     -4.6646860E-09
   3.120000     -4.8241811E-09
   3.130000     -4.9815725E-09
   3.140000     -5.1364264E-09
   3.150000     -5.2882982E-09
   3.160000     -5.4367342E-09
   3.170000     -5.5812692E-09
   3.180000     -5.7214296E-09
   3.190000     -5.8567298E-09
   3.200000     -5.9866734E-09
   3.210000     -6.1107532E-09
   3.220000     -6.2284502E-09
   3.230000     -6.3392331E-09
   3.240000     -6.4425576E-09
   3.250000     -6.5378676E-09
   3.260000     -6.6245924E-09
   3.270000     -6.7021504E-09
   3.280000     -6.7699486E-09
   3.290000     -6.8273809E-09
   3.300000     -6.8738348E-09
   3.310000     -6.9086887E-09
   3.320000     -6.9313155E-09
   3.330000     -6.9410859E-09
   3.340000     -6.9373698E-09
   3.350000     -6.9195378E-09
   3.360000     -6.8869652E-09
   3.370000     -6.8390351E-09
   3.380000     -6.7751404E-09
   3.390000     -6.6946853E-09
   3.400000     -6.5970887E-09
   3.410000     -6.4817858E-09
   3.420000     -6.3482304E-09
   3.430000     -6.1958967E-09
   3.440000     -6.0242780E-09
   3.450000     -5.8328893E-09
   3.460000     -5.6212670E-09
   3.470000     -5.3889719E-09
   3.480000     -5.1355871E-09
   3.490000     -4.8607194E-09
   3.500000     -4.5639981E-09
   3.510000     -4.2450776E-09
   3.520000     -3.9036370E-09
   3.530000     -3.5393812E-09
   3.540000     -3.1520444E-09
   3.550000     -2.7413891E-09
   3.560000     -2.3072106E-09
   3.570000     -1.8493389E-09
   3.580000     -1.3676416E-09
   3.590000     -8.6202623E-10
   3.600000     -3.3244540E-10
   3.610000      2.2109965E-10
   3.620000      7.9855633E-10
   3.630000      1.3998162E-09
   3.640000      2.0247135E-09
   3.650000      2.6730225E-09
   3.660000      3.3444505E-09
   3.670000      4.0386374E-09
   3.680000      4.7551558E-09
   3.690000      5.4935092E-09
   3.700000      6.2531300E-09
   3.710000      7.0333797E-09
   3.720000      7.8335498E-09
   3.730000      8.6528624E-09
   3.740000      9.4904706E-09
   3.750000      1.0345462E-08
   3.760000      1.1216855E-08
   3.770000      1.2103603E-08
   3.780000      1.3004592E-08
   3.790000      1.3918648E-08
   3.800000      1.4844534E-08
   3.810000      1.5780943E-08
   3.820000      1.6726512E-08
   3.830000      1.7679810E-08
   3.840000      1.8639337E-08
   3.850000      1.9603533E-08
   3.860000      2.0570763E-08
   3.870000      2.1539323E-08
   3.880000      2.2507441E-08
   3.890000      2.3473266E-08
   3.900000      2.4434879E-08
   3.910000      2.5390285E-08
   3.920000      2.6337412E-08
   3.930000      2.7274117E-08
   3.940000      2.8198185E-08
   3.950000      2.9107328E-08
   3.960000      2.9999196E-08
   3.970000      3.0871377E-08
   3.980000      3.1721399E-08
   3.990000      3.2546737E-08
   4.000000      3.3344822E-08
   4.010000      3.4113040E-08
   4.020000      3.4848739E-08
   4.030000      3.5549249E-08
   4.040000      3.6211869E-08
   4.050000      3.6833885E-08
   4.060000      3.7412573E-08
   4.070000      3.7945199E-08
   4.080000      3.8429022E-08
   4.090000      3.8861323E-08
   4.100000      3.9239371E-08
   4.110000      3.9560451E-08
   4.120000      3.9821863E-08
   4.130000      4.0020922E-08
   4.140000      4.0154955E-08
   4.150000      4.0221327E-08
   4.160000      4.0217412E-08
   4.170000      4.0140623E-08
   4.180000      3.9988393E-08
   4.190000      3.9758206E-08
   4.200000      3.9447581E-08
   4.210000      3.9054104E-08
   4.220000      3.8575401E-08
   4.230000      3.8009173E-08
   4.240000      3.7353193E-08
   4.250000      3.6605325E-08
   4.260000      3.5763524E-08
   4.270000      3.4825856E-08
   4.280000      3.3790503E-08
   4.290000      3.2655777E-08
   4.300000      3.1420122E-08
   4.310000      3.0082134E-08
   4.320000      2.8640569E-08
   4.330000      2.7094339E-08
   4.340000      2.5442533E-08
   4.350000      2.3684423E-08
   4.360000      2.1819465E-08
   4.370000      1.9847297E-08
   4.380000      1.7767750E-08
   4.390000      1.5580857E-08
   4.400000      1.3286848E-08
   4.410000      1.0886155E-08
   4.420000      8.3794092E-09
   4.430000      5.7674425E-09
   4.440000      3.0512968E-09
   4.450000      2.3223183E-10
   4.460000     -2.6882860E-09
   4.470000     -5.7085678E-09
   4.480000     -8.8267003E-09
   4.490000     -1.2040543E-08
   4.500000     -1.5347707E-08
   4.510000     -1.8745560E-08
   4.520000     -2.2231230E-08
   4.530000     -2.5801590E-08
   4.540000     -2.9453245E-08
   4.550000     -3.3182534E-08
   4.560000     -3.6985512E-08
   4.570000     -4.0857962E-08
   4.580000     -4.4795385E-08
   4.590000     -4.8793002E-08
   4.600000     -5.2845742E-08
   4.610000     -5.6948259E-08
   4.620000     -6.1094930E-08
   4.630000     -6.5279835E-08
   4.640000     -6.9496814E-08
   4.650000     -7.3739436E-08
   4.660000     -7.8001008E-08
   4.670000     -8.2274610E-08
   4.680000     -8.6553072E-08
   4.690000     -9.0829019E-08
   4.700000     -9.5094833E-08
   4.710000     -9.9342692E-08
   4.720000     -1.0356460E-07
   4.730000     -1.0775238E-07
   4.740000     -1.1189768E-07
   4.750000     -1.1599194E-07
   4.760000     -1.2002646E-07
   4.770000     -1.2399239E-07
   4.780000     -1.2788075E-07
   4.790000     -1.3168237E-07
   4.800000     -1.3538799E-07
   4.810000     -1.3898818E-07
   4.820000     -1.4247343E-07
   4.830000     -1.4583411E-07
   4.840000     -1.4906048E-07
   4.850000     -1.5214273E-07
   4.860000     -1.5507095E-07
   4.870000     -1.5783523E-07
   4.880000     -1.6042559E-07
   4.890000     -1.6283202E-07
   4.900000     -1.6504454E-07
   4.910000     -1.6705320E-07
   4.920000     -1.6884809E-07
   4.930000     -1.7041938E-07
   4.940000     -1.7175734E-07
   4.950000     -1.7285237E-07
   4.960000     -1.7369503E-07
   4.970000     -1.7427604E-07
   4.980000     -1.7458635E-07
   4.990000     -1.7461714E-07
   5.000000     -1.7435984E-07
   5.010000     -1.7380613E-07
   5.020000     -1.7294795E-07
   5.030000     -1.7177761E-07
   5.040000     -1.7028772E-07
   5.050000     -1.6847119E-07
   5.060000     -1.6632131E-07
   5.070000     -1.6383179E-07
   5.080000     -1.6099663E-07
   5.090000     -1.5781029E-07
   5.100000     -1.5426762E-07
   5.110000     -1.5036396E-07
   5.120000     -1.4609502E-07
   5.130000     -1.4145704E-07
   5.140000     -1.3644672E-07
   5.150000     -1.3106130E-07
   5.160000     -1.2529860E-07
   5.170000     -1.1915694E-07
   5.180000     -1.1263527E-07
   5.190000     -1.0573314E-07
   5.200000     -9.8450755E-08
   5.210000     -9.0789001E-08
   5.220000     -8.2749402E-08
   5.230000     -7.4334217E-08
   5.240000     -6.5546431E-08
   5.250000     -5.6389759E-08
   5.260000     -4.6868674E-08
   5.270000     -3.6988421E-08
   5.280000     -2.6755020E-08
   5.290000     -1.6175287E-08
   5.300000     -5.2568141E-09
   5.310000      5.9920420E-09
   5.320000      1.7562133E-08
   5.330000      2.9443560E-08
   5.340000      4.1625587E-08
   5.350000      5.4096720E-08
   5.360000      6.6844741E-08
   5.370000      7.9856655E-08
   5.380000      9.3118693E-08
   5.390000      1.0661634E-07
   5.400000      1.2033433E-07
   5.410000      1.3425667E-07
   5.420000      1.4836660E-07
   5.430000      1.6264663E-07
   5.440000      1.7707855E-07
   5.450000      1.9164341E-07
   5.460000      2.0632157E-07
   5.470000      2.2109265E-07
   5.480000      2.3593552E-07
   5.490000      2.5082844E-07
   5.500000      2.6574889E-07
   5.510000      2.8067382E-07
   5.520000      2.9557935E-07
   5.530000      3.1044115E-07
   5.540000      3.2523425E-07
   5.550000      3.3993311E-07
   5.560000      3.5451168E-07
   5.570000      3.6894332E-07
   5.580000      3.8320104E-07
   5.590000      3.9725748E-07
   5.600000      4.1108484E-07
   5.610000      4.2465496E-07
   5.620000      4.3793955E-07
   5.630000      4.5091005E-07
   5.640000      4.6353767E-07
   5.650000      4.7579360E-07
   5.660000      4.8764883E-07
   5.670000      4.9907447E-07
   5.680000      5.1004145E-07
   5.690000      5.2052093E-07
   5.700000      5.3048410E-07
   5.710000      5.3990232E-07
   5.720000      5.4874704E-07
   5.730000      5.5698990E-07
   5.740000      5.6460283E-07
   5.750000      5.7155808E-07
   5.760000      5.7782813E-07
   5.770000      5.8338600E-07
   5.780000      5.8820501E-07
   5.790000      5.9225908E-07
   5.800000      5.9552264E-07
   5.810000      5.9797071E-07
   5.820000      5.9957893E-07
   5.830000      6.0032380E-07
   5.840000      6.0018255E-07
   5.850000      5.9913327E-07
   5.860000      5.9715489E-07
   5.870000      5.9422752E-07
   5.880000      5.9033226E-07
   5.890000      5.8545135E-07
   5.900000      5.7956811E-07
   5.910000      5.7266709E-07
   5.920000      5.6473419E-07
   5.930000      5.5575663E-07
   5.940000      5.4572308E-07
   5.950000      5.3462355E-07
   5.960000      5.2244957E-07
   5.970000      5.0919419E-07
   5.980000      4.9485203E-07
   5.990000      4.7941921E-07
   6.000000      4.6289350E-07
   6.010000      4.4527422E-07
   6.020000      4.2656242E-07
   6.030000      4.0676079E-07
   6.040000      3.8587376E-07
   6.050000      3.6390745E-07
   6.060000      3.4086978E-07
   6.070000      3.1677035E-07
   6.080000      2.9162069E-07
   6.090000      2.6543415E-07
   6.100000      2.3822592E-07
   6.110000      2.1001320E-07
   6.120000      1.8081506E-07
   6.130000      1.5065251E-07
   6.140000      1.1954845E-07
   6.150000      8.7527788E-08
   6.160000      5.4617516E-08
   6.170000      2.0846636E-08
   6.180000     -1.3753935E-08
   6.190000     -4.9151382E-08
   6.200000     -8.5310781E-08
   6.210000     -1.2219516E-07
   6.220000     -1.5976579E-07
   6.230000     -1.9798190E-07
   6.240000     -2.3680094E-07
   6.250000     -2.7617858E-07
   6.260000     -3.1606876E-07
   6.270000     -3.5642364E-07
   6.280000     -3.9719362E-07
   6.290000     -4.3832762E-07
   6.300000     -4.7977295E-07
   6.310000     -5.2147539E-07
   6.320000     -5.6337933E-07
   6.330000     -6.0542777E-07
   6.340000     -6.4756233E-07
   6.350000     -6.8972338E-07
   6.360000     -7.3184998E-07
   6.370000     -7.7388006E-07
   6.380000     -8.1575064E-07
   6.390000     -8.5739754E-07
   6.400000     -8.9875567E-07
   6.410000     -9.3975899E-07
   6.420000     -9.8034047E-07
   6.430000     -1.0204328E-06
   6.440000     -1.0599676E-06
   6.450000     -1.0988759E-06
   6.460000     -1.1370884E-06
   6.470000     -1.1745354E-06
   6.480000     -1.2111469E-06
   6.490000     -1.2468528E-06
   6.500000     -1.2815827E-06
   6.510000     -1.3152668E-06
   6.520000     -1.3478351E-06
   6.530000     -1.3792179E-06
   6.540000     -1.4093459E-06
   6.550000     -1.4381508E-06
   6.560000     -1.4655647E-06
   6.570000     -1.4915205E-06
   6.580000     -1.5159519E-06
   6.590000     -1.5387943E-06
   6.600000     -1.5599836E-06
   6.610000     -1.5794574E-06
   6.620000     -1.5971546E-06
   6.630000     -1.6130156E-06
   6.640000     -1.6269822E-06
   6.650000     -1.6389984E-06
   6.660000     -1.6490094E-06
   6.670000     -1.6569628E-06
   6.680000     -1.6628077E-06
   6.690000     -1.6664958E-06
   6.700000     -1.6679808E-06
   6.710000     -1.6672186E-06
   6.720000     -1.6641677E-06
   6.730000     -1.6587892E-06
   6.740000     -1.6510463E-06
   6.750000     -1.6409055E-06
   6.760000     -1.6283356E-06
   6.770000     -1.6133088E-06
   6.780000     -1.5958002E-06
   6.790000     -1.5757881E-06
   6.800000     -1.5532540E-06
   6.810000     -1.5281827E-06
   6.820000     -1.5005622E-06
   6.830000     -1.4703845E-06
   6.840000     -1.4376449E-06
   6.850000     -1.4023421E-06
   6.860000     -1.3644791E-06
   6.870000     -1.3240623E-06
   6.880000     -1.2811020E-06
   6.890000     -1.2356126E-06
   6.900000     -1.1876122E-06
   6.910000     -1.1371228E-06
   6.920000     -1.0841705E-06
   6.930000     -1.0287852E-06
   6.940000     -9.7100019E-07
   6.950000     -9.1085354E-07
   6.960000     -8.4838706E-07
   6.970000     -7.8364587E-07
   6.980000     -7.1667898E-07
   6.990000     -6.4753965E-07
   7.000000     -5.7628483E-07
   7.010000     -5.0297496E-07
   7.020000     -4.2767468E-07
   7.030000     -3.5045244E-07
   7.040000     -2.7138029E-07
   7.050000     -1.9053387E-07
   7.060000     -1.0799251E-07