  -2.600000      0.0000000E+00
  -2.590000      0.0000000E+00
  -2.580000      0.0000000E+00
  -2.570000      0.0000000E+00
  -2.560000      0.0000000E+00
  -2.550000      0.0000000E+00
  -2.540000      0.0000000E+00
  -2.530000      0.0000000E+00
  -2.520000      0.0000000E+00
  -2.510000      0.0000000E+00
  -2.500000      0.0000000E+00
  -2.490000      0.0000000E+00
  -2.480000      0.0000000E+00
  -2.470000      0.0000000E+00
  -2.460000      0.0000000E+00
  -2.450000      0.0000000E+00
  -2.440000      0.0000000E+00
  -2.430000      0.0000000E+00
  -2.420000      0.0000000E+00
  -2.410000      0.0000000E+00
  -2.400000      0.0000000E+00
  -2.390000      0.0000000E+00
  -2.380000      0.0000000E+00
  -2.370000      0.0000000E+00
  -2.360000      0.0000000E+00
  -2.350000      0.0000000E+00
  -2.340000      0.0000000E+00
  -2.330000      0.0000000E+00
  -2.320000      0.0000000E+00
  -2.310000      0.0000000E+00
  -2.300000      0.0000000E+00
  -2.290000      0.0000000E+00
  -2.280000      0.0000000E+00
  -2.270000      0.0000000E+00
  -2.260000      0.0000000E+00
  -2.250000      0.0000000E+00
  -2.240000      0.0000000E+00
  -2.230000      0.0000000E+00
  -2.220000      0.0000000E+00
  -2.210000      0.0000000E+00
  -2.200000      0.0000000E+00
  -2.190000      0.0000000E+00
  -2.180000      0.0000000E+00
  -2.170000      0.0000000E+00
  -2.160000      0.0000000E+00
  -2.150000      0.0000000E+00
  -2.140000      0.0000000E+00
  -2.130000      0.0000000E+00
  -2.120000      0.0000000E+00
  -2.110000      0.0000000E+00
  -2.100000      0.0000000E+00
  -2.090000      0.0000000E+00
  -2.080000      0.0000000E+00
  -2.070000      0.0000000E+00
  -2.060000      0.0000000E+00
  -2.050000      0.0000000E+00
  -2.040000      0.0000000E+00
  -2.030000      0.0000000E+00
  -2.020000      0.0000000E+00
  -2.010000      0.0000000E+00
  -2.000000      0.0000000E+00
  -1.990000      0.0000000E+00
  -1.980000      0.0000000E+00
  -1.970000      0.0000000E+00
  -1.960000      0.0000000E+00
  -1.950000      0.0000000E+00
  -1.940000      0.0000000E+00
  -1.930000      0.0000000E+00
  -1.920000      0.0000000E+00
  -1.910000      0.0000000E+00
  -1.900000      0.0000000E+00
  -1.890000      0.0000000E+00
  -1.880000      0.0000000E+00
  -1.870000      0.0000000E+00
  -1.860000      0.0000000E+00
  -1.850000      0.0000000E+00
  -1.840000      0.0000000E+00
  -1.830000      0.0000000E+00
  -1.820000      0.0000000E+00
  -1.810000      0.0000000E+00
  -1.800000      0.0000000E+00
  -1.790000      0.0000000E+00
  -1.780000      0.0000000E+00
  -1.770000      0.0000000E+00
  -1.760000      0.0000000E+00
  -1.750000      0.0000000E+00
  -1.740000      0.0000000E+00
  -1.730000      0.0000000E+00
  -1.720000      0.0000000E+00
  -1.710000      0.0000000E+00
  -1.700000      0.0000000E+00
  -1.690000      0.0000000E+00
  -1.680000      0.0000000E+00
  -1.670000      0.0000000E+00
  -1.660000      0.0000000E+00
  -1.650000      0.0000000E+00
  -1.640000      0.0000000E+00
  -1.630000      0.0000000E+00
  -1.620000      0.0000000E+00
  -1.610000      0.0000000E+00
  -1.600000      0.0000000E+00
  -1.590000      0.0000000E+00
  -1.580000      0.0000000E+00
  -1.570000      0.0000000E+00
  -1.560000      0.0000000E+00
  -1.550000      0.0000000E+00
  -1.540000      0.0000000E+00
  -1.530000      0.0000000E+00
  -1.520000      0.0000000E+00
  -1.510000      0.0000000E+00
  -1.500000      0.0000000E+00
  -1.490000      0.0000000E+00
  -1.480000      0.0000000E+00
  -1.470000      0.0000000E+00
  -1.460000      0.0000000E+00
  -1.450000      0.0000000E+00
  -1.440000      0.0000000E+00
  -1.430000      0.0000000E+00
  -1.420000      0.0000000E+00
  -1.410000      0.0000000E+00
  -1.400000      0.0000000E+00
  -1.390000      0.0000000E+00
  -1.380000      0.0000000E+00
  -1.370000      0.0000000E+00
  -1.360000      0.0000000E+00
  -1.350000      0.0000000E+00
  -1.340000      0.0000000E+00
  -1.330000      0.0000000E+00
  -1.320000      0.0000000E+00
  -1.310000      0.0000000E+00
  -1.300000      0.0000000E+00
  -1.290000      0.0000000E+00
  -1.280000      0.0000000E+00
  -1.270000      0.0000000E+00
  -1.260000      0.0000000E+00
  -1.250000      0.0000000E+00
  -1.240000      0.0000000E+00
  -1.230000      0.0000000E+00
  -1.220000      0.0000000E+00
  -1.210000      0.0000000E+00
  -1.200000      0.0000000E+00
  -1.190000      0.0000000E+00
  -1.180000      0.0000000E+00
  -1.170000      0.0000000E+00
  -1.160000      0.0000000E+00
  -1.150000      0.0000000E+00
  -1.140000      0.0000000E+00
  -1.130000      0.0000000E+00
  -1.120000      0.0000000E+00
  -1.110000      0.0000000E+00
  -1.100000      0.0000000E+00
  -1.090000      0.0000000E+00
  -1.080000      0.0000000E+00
  -1.070000      0.0000000E+00
  -1.060000      0.0000000E+00
  -1.050000      0.0000000E+00
  -1.040000      0.0000000E+00
  -1.030000      0.0000000E+00
  -1.020000      0.0000000E+00
  -1.010000     -1.1857713E-38
  -1.000000     -1.4091270E-38
 -0.9900000     -1.6838378E-38
 -0.9800000     -2.0770002E-38
 -0.9700000     -2.5860027E-38
 -0.9600000     -3.1615768E-38
 -0.9500000     -3.8114553E-38
 -0.9400000     -4.5281721E-38
 -0.9300000     -5.3005308E-38
 -0.9200000     -5.9817603E-38
 -0.9100000     -6.5247371E-38
 -0.9000000     -7.0088387E-38
 -0.8900000     -7.4629653E-38
 -0.8800000     -8.0422447E-38
 -0.8700000     -8.8351212E-38
 -0.8600000     -9.8263880E-38
 -0.8500000     -1.0612687E-37
 -0.8400000     -1.1166775E-37
 -0.8300000     -1.2000426E-37
 -0.8200000     -1.4402275E-37
 -0.8100000     -1.9988240E-37
 -0.8000000     -2.7703128E-37
 -0.7900000     -3.6178486E-37
 -0.7800000     -4.5584782E-37
 -0.7700000     -5.5188546E-37
 -0.7600000     -6.2222208E-37
 -0.7500000     -6.6699950E-37
 -0.7400000     -7.0831673E-37
 -0.7300000     -7.4902304E-37
 -0.7200000     -7.9092308E-37
 -0.7100000     -8.3513137E-37
 -0.7000000     -8.4414668E-37
 -0.6900000     -8.1460193E-37
 -0.6800000     -7.8763458E-37
 -0.6700000     -7.6397779E-37
 -0.6600000     -7.4860270E-37
 -0.6500000     -7.3802803E-37
 -0.6400000     -7.2246061E-37
 -0.6300000     -7.0064847E-37
 -0.6200000     -6.2362799E-37
 -0.6100000     -4.8360590E-37
 -0.6000000     -3.2733505E-37
 -0.5900000     -2.1790597E-37
 -0.5800000     -1.4447015E-37
 -0.5700000     -1.1055308E-37
 -0.5600000     -1.0391285E-37
 -0.5500000     -9.6640672E-38
 -0.5400000     -1.0405316E-37
 -0.5300000      0.0000000E+00
 -0.5200000      2.4145913E-37
 -0.5100000      5.4805299E-37
 -0.5000000      1.0028036E-36
 -0.4900000      1.6392885E-36
 -0.4800000      2.3222257E-36
 -0.4700000      3.0499831E-36
 -0.4600000      4.1799977E-36
 -0.4500000      5.6944773E-36
 -0.4400000      7.3553043E-36
 -0.4300000      8.6738762E-36
 -0.4200000      9.5594144E-36
 -0.4100000      1.0458751E-35
 -0.4000000      1.1468383E-35
 -0.3900000      1.2434097E-35
 -0.3800000      1.3620055E-35
 -0.3700000      1.5219673E-35
 -0.3600000      1.7143173E-35
 -0.3500000      1.9492929E-35
 -0.3400000      2.2192290E-35
 -0.3300000      2.5316219E-35
 -0.3200000      2.9304285E-35
 -0.3100000      3.4281393E-35
 -0.3000000      3.9808716E-35
 -0.2900000      4.4670091E-35
 -0.2800000      4.9417605E-35
 -0.2700000      5.5217240E-35
 -0.2600000      6.1616119E-35
 -0.2500000      6.8609203E-35
 -0.2400000      7.5887154E-35
 -0.2300000      8.3428634E-35
 -0.2200000      9.0169428E-35
 -0.2100000      9.5931910E-35
 -0.2000000      1.0187143E-34
 -0.1900000      1.0815751E-34
 -0.1800000      1.1502260E-34
 -0.1700000      1.2379993E-34
 -0.1600000      1.3432812E-34
 -0.1500000      1.4529177E-34
 -0.1400000      1.5675008E-34
 -0.1300000      1.6869041E-34
 -0.1200000      1.8116885E-34
 -0.1100000      1.9442553E-34
 -0.1000000      2.0894091E-34
 -9.0000004E-02  2.2474215E-34
 -7.9999998E-02  2.4424667E-34
 -7.0000000E-02  2.6735937E-34
 -5.9999999E-02  2.9056923E-34
 -5.0000001E-02  3.1388558E-34
 -3.9999999E-02  3.3869794E-34
 -2.9999999E-02  3.6241914E-34
 -2.0000000E-02  3.8454714E-34
 -9.9999998E-03  4.0758356E-34
 -3.4694470E-17  4.3601478E-34
  9.9999998E-03  4.6752629E-34
  2.0000000E-02  4.9696352E-34
  2.9999999E-02  5.2767083E-34
  3.9999999E-02  5.5960593E-34
  5.0000001E-02  5.9057782E-34
  5.9999999E-02  6.2016272E-34
  7.0000000E-02  6.4594709E-34
  7.9999998E-02  6.7240683E-34
  9.0000004E-02  7.0576029E-34
  0.1000000      7.4286587E-34
  0.1100000      7.8107752E-34
  0.1200000      8.1915242E-34
  0.1300000      8.5129062E-34
  0.1400000      8.7881409E-34
  0.1500000      9.0722652E-34
  0.1600000      9.3664336E-34
  0.1700000      9.6781233E-34
  0.1800000      9.9387368E-34
  0.1900000      1.0153259E-33
  0.2000000      1.0367561E-33
  0.2100000      1.0565895E-33
  0.2200000      1.0755598E-33
  0.2300000      1.0938124E-33
  0.2400000      1.1123483E-33
  0.2500000      1.1294576E-33
  0.2600000      1.1425372E-33
  0.2700000      1.1551686E-33
  0.2800000      1.1669348E-33
  0.2900000      1.1722657E-33
  0.3000000      1.1699303E-33
  0.3100000      1.1591177E-33
  0.3200000      1.1389145E-33
  0.3300000      1.1091035E-33
  0.3400000      1.0675686E-33
  0.3500000      1.0141101E-33
  0.3600000      9.5052732E-34
  0.3700000      8.7783292E-34
  0.3800000      7.9740917E-34
  0.3900000      7.1057481E-34
  0.4000000      6.1947189E-34
  0.4100000      5.2604369E-34
  0.4200000      4.3280848E-34
  0.4300000      3.4156289E-34
  0.4400000      2.5090183E-34
  0.4500000      1.6245862E-34
  0.4600000      7.9453942E-35
  0.4700000     -4.5542003E-37
  0.4800000     -8.1769115E-35
  0.4900000     -1.6524511E-34
  0.5000000     -2.5359468E-34
  0.5100000     -3.5309867E-34
  0.5200000     -4.6896678E-34
  0.5300000     -6.0669206E-34
  0.5400000     -7.6773318E-34
  0.5500000     -9.5653888E-34
  0.5600000     -1.1805189E-33
  0.5700000     -1.4419766E-33
  0.5800000     -1.7417103E-33
  0.5900000     -2.0795531E-33
  0.6000000     -2.4536461E-33
  0.6100000     -2.8597048E-33
  0.6200000     -3.2913710E-33
  0.6300000     -3.7410482E-33
  0.6400000     -4.1994859E-33
  0.6500000     -4.6573472E-33
  0.6600000     -5.1058211E-33
  0.6700000     -5.5365927E-33
  0.6800000     -5.9419976E-33
  0.6900000     -6.3172521E-33
  0.7000000     -6.6616764E-33
  0.7100000     -6.9773723E-33
  0.7200000     -7.2713921E-33
  0.7300000     -7.5569402E-33
  0.7400000     -7.8502694E-33
  0.7500000     -8.1715952E-33
  0.7600000     -8.5462958E-33
  0.7700000     -9.0018439E-33
  0.7800000     -9.5680024E-33
  0.7900000     -1.0275242E-32
  0.8000000     -1.1152546E-32
  0.8100000     -1.2226130E-32
  0.8200000     -1.3518251E-32
  0.8300000     -1.5045478E-32
  0.8400000     -1.6816923E-32
  0.8500000     -1.8835334E-32
  0.8600000     -2.1095980E-32
  0.8700000     -2.3585703E-32
  0.8800000     -2.6285867E-32
  0.8900000     -2.9173337E-32
  0.9000000     -3.2220970E-32
  0.9100000     -3.5402302E-32
  0.9200000     -3.8694570E-32
  0.9300000     -4.2081084E-32
  0.9400000     -4.5555187E-32
  0.9500000     -4.9123262E-32
  0.9600000     -5.2808725E-32
  0.9700000     -5.6652586E-32
  0.9800000     -6.0714953E-32
  0.9900000     -6.5076860E-32
   1.000000     -6.9838106E-32
   1.010000     -7.5115517E-32
   1.020000     -8.1039245E-32
   1.030000     -8.7748202E-32
   1.040000     -9.5384637E-32
   1.050000     -1.0408763E-31
   1.060000     -1.1398651E-31
   1.070000     -1.2519411E-31
   1.080000     -1.3780066E-31
   1.090000     -1.5186847E-31
   1.100000     -1.6742781E-31
   1.110000     -1.8447501E-31
   1.120000     -2.0297261E-31
   1.130000     -2.2285189E-31
   1.140000     -2.4401767E-31
   1.150000     -2.6635588E-31
   1.160000     -2.8974311E-31
   1.170000     -3.1405805E-31
   1.180000     -3.3919397E-31
   1.190000     -3.6507203E-31
   1.200000     -3.9165398E-31
   1.210000     -4.1895380E-31
   1.220000     -4.4704708E-31
   1.230000     -4.7607742E-31
   1.240000     -5.0625885E-31
   1.250000     -5.3787438E-31
   1.260000     -5.7126910E-31
   1.270000     -6.0683843E-31
   1.280000     -6.4501242E-31
   1.290000     -6.8623512E-31
   1.300000     -7.3094120E-31
   1.310000     -7.7953011E-31
   1.320000     -8.3234018E-31
   1.330000     -8.8962315E-31
   1.340000     -9.5152243E-31
   1.350000     -1.0180550E-30
   1.360000     -1.0891000E-30
   1.370000     -1.1643952E-30
   1.380000     -1.2435416E-30
   1.390000     -1.3260177E-30
   1.400000     -1.4112028E-30
   1.410000     -1.4984095E-30
   1.420000     -1.5869225E-30
   1.430000     -1.6760443E-30
   1.440000     -1.7651432E-30
   1.450000     -1.8537016E-30
   1.460000     -1.9413615E-30
   1.470000     -2.0279642E-30
   1.480000     -2.1135789E-30
   1.490000     -2.1985201E-30
   1.500000     -2.2833498E-30
   1.510000     -2.3688617E-30
   1.520000     -2.4560489E-30
   1.530000     -2.5460544E-30
   1.540000     -2.6401052E-30
   1.550000     -2.7394332E-30
   1.560000     -2.8451870E-30
   1.570000     -2.9583394E-30
   1.580000     -3.0795962E-30
   1.590000     -3.2093114E-30
   1.600000     -3.3474171E-30
   1.610000     -3.4933717E-30
   1.620000     -3.6461348E-30
   1.630000     -3.8041698E-30
   1.640000     -3.9654796E-30
   1.650000     -4.1276726E-30
   1.660000     -4.2880650E-30
   1.670000     -4.4438076E-30
   1.680000     -4.5920376E-30
   1.690000     -4.7300444E-30
   1.700000     -4.8554402E-30
   1.710000     -4.9663286E-30
   1.720000     -5.0614541E-30
   1.730000     -5.1403262E-30
   1.740000     -5.2033007E-30
   1.750000     -5.2516167E-30
   1.760000     -5.2873766E-30
   1.770000     -5.3134658E-30
   1.780000     -5.3334127E-30
   1.790000     -5.3511937E-30
   1.800000     -5.3709838E-30
   1.810000     -5.3968714E-30
   1.820000     -5.4325500E-30
   1.830000     -5.4810018E-30
   1.840000     -5.5441967E-30
   1.850000     -5.6228247E-30
   1.860000     -5.7160890E-30
   1.870000     -5.8215701E-30
   1.880000     -5.9351771E-30
   1.890000     -6.0512106E-30
   1.900000     -6.1625301E-30
   1.910000     -6.2608296E-30
   1.920000     -6.3370129E-30
   1.930000     -6.3816554E-30
   1.940000     -6.3855328E-30
   1.950000     -6.3401757E-30
   1.960000     -6.2384384E-30
   1.970000     -6.0750191E-30
   1.980000     -5.8469206E-30
   1.990000     -5.5537903E-30
   2.000000     -5.1981184E-30
   2.010000     -4.7852705E-30
   2.020000     -4.3233275E-30
   2.030000     -3.8227264E-30
   2.040000     -3.2957190E-30
   2.050000     -2.7556322E-30
   2.060000     -2.2160051E-30
   2.070000     -1.6896099E-30
   2.080000     -1.1874222E-30
   2.090000     -7.1760714E-31
   2.100000     -2.8457905E-31
   2.110000      1.1179599E-31
   2.120000      4.7678770E-31
   2.130000      8.2112446E-31
   2.140000      1.1610057E-30
   2.150000      1.5177792E-30
   2.160000      1.9172661E-30
   2.170000      2.3887493E-30
   2.180000      2.9636705E-30
   2.190000      3.6740845E-30
   2.200000      4.5509499E-30
   2.210000      5.6223500E-30
   2.220000      6.9117699E-30
   2.230000      8.4365324E-30
   2.240000      1.0206518E-29
   2.250000      1.2223283E-29
   2.260000      1.4479644E-29
   2.270000      1.6959841E-29
   2.280000      1.9640303E-29
   2.290000      2.2491007E-29
   2.300000      2.5477438E-29
   2.310000      2.8563043E-29
   2.320000      3.1712053E-29
   2.330000      3.4892602E-29
   2.340000      3.8079893E-29
   2.350000      4.1259227E-29
   2.360000      4.4428739E-29
   2.370000      4.7601573E-29
   2.380000      5.0807332E-29
   2.390000      5.4092680E-29
   2.400000      5.7520907E-29
   2.410000      6.1170502E-29
   2.420000      6.5132646E-29
   2.430000      6.9507672E-29
   2.440000      7.4400780E-29
   2.450000      7.9917023E-29
   2.460000      8.6156007E-29
   2.470000      9.3206445E-29
   2.480000      1.0114105E-28
   2.490000      1.1001203E-28
   2.500000      1.1984761E-28
   2.510000      1.3064977E-28
   2.520000      1.4239359E-28
   2.530000      1.5502830E-28
   2.540000      1.6848009E-28
   2.550000      1.8265675E-28
   2.560000      1.9745391E-28
   2.570000      2.1276268E-28
   2.580000      2.2847817E-28
   2.590000      2.4450872E-28
   2.600000      2.6078478E-28
   2.610000      2.7726759E-28
   2.620000      2.9395630E-28
   2.630000      3.1089343E-28
   2.640000      3.2816794E-28
   2.650000      3.4591580E-28
   2.660000      3.6431709E-28
   2.670000      3.8359062E-28
   2.680000      4.0398504E-28
   2.690000      4.2576745E-28
   2.700000      4.4920982E-28
   2.710000      4.7457369E-28
   2.720000      5.0209441E-28
   2.730000      5.3196511E-28
   2.740000      5.6432217E-28
   2.750000      5.9923317E-28
   2.760000      6.3668740E-28
   2.770000      6.7659089E-28
   2.780000      7.1876572E-28
   2.790000      7.6295460E-28
   2.800000      8.0883049E-28
   2.810000      8.5601105E-28
   2.820000      9.0407783E-28
   2.830000      9.5259837E-28
   2.840000      1.0011509E-27
   2.850000      1.0493505E-27
   2.860000      1.0968736E-27
   2.870000      1.1434806E-27
   2.880000      1.1890345E-27
   2.890000      1.2335135E-27
   2.900000      1.2770174E-27
   2.910000      1.3197651E-27
   2.920000      1.3620842E-27
   2.930000      1.4043921E-27
   2.940000      1.4471685E-27
   2.950000      1.4909216E-27
   2.960000      1.5361475E-27
   2.970000      1.5832875E-27
   2.980000      1.6326832E-27
   2.990000      1.6845339E-27
   3.000000      1.7388586E-27
   3.010000      1.7954638E-27
   3.020000      1.8539227E-27
   3.030000      1.9135655E-27
   3.040000      1.9734817E-27
   3.050000      2.0325394E-27
   3.060000      2.0894156E-27
   3.070000      2.1426419E-27
   3.080000      2.1906602E-27
   3.090000      2.2318872E-27
   3.100000      2.2647844E-27
   3.110000      2.2879291E-27
   3.120000      2.3000817E-27
   3.130000      2.3002446E-27
   3.140000      2.2877107E-27
   3.150000      2.2620927E-27
   3.160000      2.2233353E-27
   3.170000      2.1717031E-27
   3.180000      2.1077468E-27
   3.190000      2.0322478E-27
   3.200000      1.9461401E-27
   3.210000      1.8504150E-27
   3.220000      1.7460136E-27
   3.230000      1.6337115E-27
   3.240000      1.5140039E-27
   3.250000      1.3869973E-27
   3.260000      1.2523149E-27
   3.270000      1.1090254E-27
   3.280000      9.5559819E-28
   3.290000      7.8989205E-28
   3.300000      6.0917987E-28
   3.310000      4.1021172E-28
   3.320000      1.8931413E-28
   3.330000     -5.7477598E-29
   3.340000     -3.3425744E-28
   3.350000     -6.4506891E-28
   3.360000     -9.9371485E-28
   3.370000     -1.3835664E-27
   3.380000     -1.8173855E-27
   3.390000     -2.2971716E-27
   3.400000     -2.8240458E-27
   3.410000     -3.3981778E-27
   3.420000     -4.0187695E-27
   3.430000     -4.6840931E-27
   3.440000     -5.3915931E-27
   3.450000     -6.1380435E-27
   3.460000     -6.9197554E-27
   3.470000     -7.7328283E-27
   3.480000     -8.5734320E-27
   3.490000     -9.4380998E-27
   3.500000     -1.0324011E-26
   3.510000     -1.1229263E-26
   3.520000     -1.2153087E-26
   3.530000     -1.3096008E-26
   3.540000     -1.4059928E-26
   3.550000     -1.5048132E-26
   3.560000     -1.6065179E-26
   3.570000     -1.7116715E-26
   3.580000     -1.8209185E-26
   3.590000     -1.9349471E-26
   3.600000     -2.0544459E-26
   3.610000     -2.1800559E-26
   3.620000     -2.3123230E-26
   3.630000     -2.4516477E-26
   3.640000     -2.5982431E-26
   3.650000     -2.7520975E-26
   3.660000     -2.9129481E-26
   3.670000     -3.0802658E-26
   3.680000     -3.2532550E-26
   3.690000     -3.4308679E-26
   3.700000     -3.6118342E-26
   3.710000     -3.7947045E-26
   3.720000     -3.9779063E-26
   3.730000     -4.1598112E-26
   3.740000     -4.3388040E-26
   3.750000     -4.5133589E-26
   3.760000     -4.6821107E-26
   3.770000     -4.8439200E-26
   3.780000     -4.9979244E-26
   3.790000     -5.1435752E-26
   3.800000     -5.2806552E-26
   3.810000     -5.4092716E-26
   3.820000     -5.5298293E-26
   3.830000     -5.6429778E-26
   3.840000     -5.7495375E-26
   3.850000     -5.8504057E-26
   3.860000     -5.9464514E-26
   3.870000     -6.0383980E-26
   3.880000     -6.1267067E-26
   3.890000     -6.2114630E-26
   3.900000     -6.2922751E-26
   3.910000     -6.3681949E-26
   3.920000     -6.4376640E-26
   3.930000     -6.4984895E-26
   3.940000     -6.5478549E-26
   3.950000     -6.5823737E-26
   3.960000     -6.5981707E-26
   3.970000     -6.5910031E-26
   3.980000     -6.5564085E-26
   3.990000     -6.4898755E-26
   4.000000     -6.3870265E-26
   4.010000     -6.2438020E-26
   4.020000     -6.0566374E-26
   4.030000     -5.8226199E-26
   4.040000     -5.5396112E-26
   4.050000     -5.2063347E-26
   4.060000     -4.8224053E-26
   4.070000     -4.3883146E-26
   4.080000     -3.9053542E-26
   4.090000     -3.3754844E-26
   4.100000     -2.8011529E-26
   4.110000     -2.1850717E-26
   4.120000     -1.5299614E-26
   4.130000     -8.3828266E-27
   4.140000     -1.1196100E-27
   4.150000      6.4786658E-27
   4.160000      1.4410717E-26
   4.170000      2.2687051E-26
   4.180000      3.1331019E-26
   4.190000      4.0379066E-26
   4.200000      4.9880122E-26
   4.210000      5.9894209E-26
   4.220000      7.0490108E-26
   4.230000      8.1742266E-26
   4.240000      9.3727109E-26
   4.250000      1.0651882E-25
   4.260000      1.2018497E-25
   4.270000      1.3478210E-25
   4.280000      1.5035161E-25
   4.290000      1.6691620E-25
   4.300000      1.8447702E-25
   4.310000      2.0301197E-25
   4.320000      2.2247512E-25
   4.330000      2.4279738E-25
   4.340000      2.6388849E-25
   4.350000      2.8564047E-25
   4.360000      3.0793193E-25
   4.370000      3.3063347E-25
   4.380000      3.5361380E-25
   4.390000      3.7674604E-25
   4.400000      3.9991392E-25
   4.410000      4.2301769E-25
   4.420000      4.4597896E-25
   4.430000      4.6874455E-25
   4.440000      4.9128832E-25
   4.450000      5.1361161E-25
   4.460000      5.3574162E-25
   4.470000      5.5772767E-25
   4.480000      5.7963552E-25
   4.490000      6.0154046E-25
   4.500000      6.2351822E-25
   4.510000      6.4563586E-25
   4.520000      6.6794164E-25
   4.530000      6.9045524E-25
   4.540000      7.1315890E-25
   4.550000      7.3598982E-25
   4.560000      7.5883464E-25
   4.570000      7.8152618E-25
   4.580000      8.0384320E-25
   4.590000      8.2551281E-25
   4.600000      8.4621632E-25
   4.610000      8.6559765E-25
   4.620000      8.8327395E-25
   4.630000      8.9884951E-25
   4.640000      9.1192922E-25
   4.650000      9.2213383E-25
   4.660000      9.2911446E-25
   4.670000      9.3256602E-25
   4.680000      9.3223825E-25
   4.690000      9.2794389E-25
   4.700000      9.1956342E-25
   4.710000      9.0704538E-25
   4.720000      8.9040239E-25
   4.730000      8.6970288E-25
   4.740000      8.4505857E-25
   4.750000      8.1660820E-25
   4.760000      7.8449875E-25
   4.770000      7.4886452E-25
   4.780000      7.0980600E-25
   4.790000      6.6736878E-25
   4.800000      6.2152566E-25
   4.810000      5.7216096E-25
   4.820000      5.1906032E-25
   4.830000      4.6190572E-25
   4.840000      4.0027636E-25
   4.850000      3.3365730E-25
   4.860000      2.6145372E-25
   4.870000      1.8301151E-25
   4.880000      9.7643570E-26
   4.890000      4.6601407E-27
   4.900000     -9.6598341E-26
   4.910000     -2.0672773E-25
   4.920000     -3.2622754E-25
   4.930000     -4.5547172E-25
   4.940000     -5.9468467E-25
   4.950000     -7.4392325E-25
   4.960000     -9.0306814E-25
   4.970000     -1.0718238E-24
   4.980000     -1.2497282E-24
   4.990000     -1.4361726E-24
   5.000000     -1.6304294E-24
   5.010000     -1.8316877E-24
   5.020000     -2.0390964E-24
   5.030000     -2.2518080E-24
   5.040000     -2.4690254E-24
   5.050000     -2.6900455E-24
   5.060000     -2.9142983E-24
   5.070000     -3.1413778E-24
   5.080000     -3.3710630E-24
   5.090000     -3.6033273E-24
   5.100000     -3.8383305E-24
   5.110000     -4.0764040E-24
   5.120000     -4.3180128E-24
   5.130000     -4.5637126E-24
   5.140000     -4.8140899E-24
   5.150000     -5.0696998E-24
   5.160000     -5.3309918E-24
   5.170000     -5.5982437E-24
   5.180000     -5.8714901E-24
   5.190000     -6.1504653E-24
   5.200000     -6.4345530E-24
   5.210000     -6.7227578E-24
   5.220000     -7.0136874E-24
   5.230000     -7.3055604E-24
   5.240000     -7.5962335E-24
   5.250000     -7.8832472E-24
   5.260000     -8.1638931E-24
   5.270000     -8.4352960E-24
   5.280000     -8.6945086E-24
   5.290000     -8.9386082E-24
   5.300000     -9.1648006E-24
   5.310000     -9.3705158E-24
   5.320000     -9.5534913E-24
   5.330000     -9.7118386E-24
   5.340000     -9.8440895E-24
   5.350000     -9.9492139E-24
   5.360000     -1.0026608E-23
   5.370000     -1.0076057E-23
   5.380000     -1.0097663E-23
   5.390000     -1.0091748E-23
   5.400000     -1.0058740E-23
   5.410000     -9.9990407E-24
   5.420000     -9.9128790E-24
   5.430000     -9.8001729E-24
   5.440000     -9.6603977E-24
   5.450000     -9.4924706E-24
   5.460000     -9.2946621E-24
   5.470000     -9.0645459E-24
   5.480000     -8.7989750E-24
   5.490000     -8.4941166E-24
   5.500000     -8.1455174E-24
   5.510000     -7.7482202E-24
   5.520000     -7.2969137E-24
   5.530000     -6.7861136E-24
   5.540000     -6.2103710E-24
   5.550000     -5.5644852E-24
   5.560000     -4.8437247E-24
   5.570000     -4.0440303E-24
   5.580000     -3.1621896E-24
   5.590000     -2.1959803E-24
   5.600000     -1.1442609E-24
   5.610000     -7.0078381E-27
   5.620000      1.2147064E-24
   5.630000      2.5187997E-24
   5.640000      3.9023257E-24
   5.650000      5.3616655E-24
   5.660000      6.8927731E-24
   5.670000      8.4914431E-24
   5.680000      1.0153595E-23
   5.690000      1.1875563E-23
   5.700000      1.3654349E-23
   5.710000      1.5487851E-23
   5.720000      1.7375024E-23
   5.730000      1.9315982E-23
   5.740000      2.1312010E-23
   5.750000      2.3365501E-23
   5.760000      2.5479797E-23
   5.770000      2.7658940E-23
   5.780000      2.9907361E-23
   5.790000      3.2229496E-23
   5.800000      3.4629372E-23
   5.810000      3.7110169E-23
   5.820000      3.9673787E-23
   5.830000      4.2320444E-23
   5.840000      4.5048325E-23
   5.850000      4.7853328E-23
   5.860000      5.0728893E-23
   5.870000      5.3665968E-23
   5.880000      5.6653068E-23
   5.890000      5.9676476E-23
   5.900000      6.2720576E-23
   5.910000      6.5768261E-23
   5.920000      6.8801476E-23
   5.930000      7.1801747E-23
   5.940000      7.4750793E-23
   5.950000      7.7631101E-23
   5.960000      8.0426496E-23
   5.970000      8.3122564E-23
   5.980000      8.5707011E-23
   5.990000      8.8169873E-23
   6.000000      9.0503538E-23
   6.010000      9.2702623E-23
   6.020000      9.4763690E-23
   6.030000      9.6684755E-23
   6.040000      9.8464697E-23
   6.050000      1.0010250E-22
   6.060000      1.0159651E-22
   6.070000      1.0294353E-22
   6.080000      1.0413808E-22
   6.090000      1.0517160E-22
   6.100000      1.0603192E-22
   6.110000      1.0670269E-22
   6.120000      1.0716325E-22
   6.130000      1.0738856E-22
   6.140000      1.0734942E-22
   6.150000      1.0701300E-22
   6.160000      1.0634355E-22
   6.170000      1.0530326E-22
   6.180000      1.0385342E-22
   6.190000      1.0195557E-22
   6.200000      9.9572725E-23
   6.210000      9.6670613E-23
   6.220000      9.3218740E-23
   6.230000      8.9191365E-23
   6.240000      8.4568193E-23
   6.250000      7.9334795E-23
   6.260000      7.3482728E-23
   6.270000      6.7009297E-23
   6.280000      5.9916977E-23
   6.290000      5.2212548E-23
   6.300000      4.3905934E-23
   6.310000      3.5008836E-23
   6.320000      2.5533208E-23
   6.330000      1.5489715E-23
   6.340000      4.8862112E-24
   6.350000     -6.2736061E-24
   6.360000     -1.7991297E-23
   6.370000     -3.0274472E-23
   6.380000     -4.3137152E-23
   6.390000     -5.6599703E-23
   6.400000     -7.0688286E-23
   6.410000     -8.5433813E-23
   6.420000     -1.0087050E-22
   6.430000     -1.1703397E-22
   6.440000     -1.3395921E-22
   6.450000     -1.5167817E-22
   6.460000     -1.7021735E-22
   6.470000     -1.8959555E-22
   6.480000     -2.0982168E-22
   6.490000     -2.3089310E-22
   6.500000     -2.5279423E-22
   6.510000     -2.7549585E-22
   6.520000     -2.9895496E-22
   6.530000     -3.2311538E-22
   6.540000     -3.4790891E-22
   6.550000     -3.7325710E-22
   6.560000     -3.9907360E-22
   6.570000     -4.2526691E-22
   6.580000     -4.5174331E-22
   6.590000     -4.7840998E-22
   6.600000     -5.0517779E-22
   6.610000     -5.3196412E-22
   6.620000     -5.5869492E-22
   6.630000     -5.8530632E-22
   6.640000     -6.1174535E-22
   6.650000     -6.3796996E-22
   6.660000     -6.6394770E-22
   6.670000     -6.8965431E-22
   6.680000     -7.1507083E-22
   6.690000     -7.4018003E-22
   6.700000     -7.6496299E-22
   6.710000     -7.8939440E-22
   6.720000     -8.1343863E-22
   6.730000     -8.3704529E-22
   6.740000     -8.6014586E-22
   6.750000     -8.8265059E-22
   6.760000     -9.0444647E-22
   6.770000     -9.2539599E-22
   6.780000     -9.4533779E-22
   6.790000     -9.6408799E-22
   6.800000     -9.8144263E-22
   6.810000     -9.9718178E-22
   6.820000     -1.0110739E-21
   6.830000     -1.0228821E-21
   6.840000     -1.0323697E-21
   6.850000     -1.0393060E-21
   6.860000     -1.0434728E-21
   6.870000     -1.0446693E-21
   6.880000     -1.0427168E-21
   6.890000     -1.0374613E-21
   6.900000     -1.0287758E-21
   6.910000     -1.0165601E-21
   6.920000     -1.0007395E-21
   6.930000     -9.8126128E-22
   6.940000     -9.5809033E-22
   6.950000     -9.3120322E-22
   6.960000     -9.0058118E-22
   6.970000     -8.6620270E-22
   6.980000     -8.2803632E-22
   6.990000     -7.8603317E-22
   7.000000     -7.4012086E-22
   7.010000     -6.9019846E-22
   7.020000     -6.3613365E-22
   7.030000     -5.7776087E-22
   7.040000     -5.1488277E-22
   7.050000     -4.4727343E-22
   7.060000     -3.7468396E-22