  -2.600000      0.0000000E+00
  -2.590000      0.0000000E+00
  -2.580000      0.0000000E+00
  -2.570000      0.0000000E+00
  -2.560000      0.0000000E+00
  -2.550000      0.0000000E+00
  -2.540000      0.0000000E+00
  -2.530000      0.0000000E+00
  -2.520000      0.0000000E+00
  -2.510000      0.0000000E+00
  -2.500000      0.0000000E+00
  -2.490000      0.0000000E+00
  -2.480000      0.0000000E+00
  -2.470000      0.0000000E+00
  -2.460000      0.0000000E+00
  -2.450000      0.0000000E+00
  -2.440000      0.0000000E+00
  -2.430000      0.0000000E+00
  -2.420000      0.0000000E+00
  -2.410000      0.0000000E+00
  -2.400000      0.0000000E+00
  -2.390000      0.0000000E+00
  -2.380000      0.0000000E+00
  -2.370000      0.0000000E+00
  -2.360000      0.0000000E+00
  -2.350000      0.0000000E+00
  -2.340000      0.0000000E+00
  -2.330000      0.0000000E+00
  -2.320000      0.0000000E+00
  -2.310000      0.0000000E+00
  -2.300000      0.0000000E+00
  -2.290000      0.0000000E+00
  -2.280000      0.0000000E+00
  -2.270000      0.0000000E+00
  -2.260000      0.0000000E+00
  -2.250000      0.0000000E+00
  -2.240000      0.0000000E+00
  -2.230000      0.0000000E+00
  -2.220000      0.0000000E+00
  -2.210000      0.0000000E+00
  -2.200000      0.0000000E+00
  -2.190000      0.0000000E+00
  -2.180000      0.0000000E+00
  -2.170000      0.0000000E+00
  -2.160000      0.0000000E+00
  -2.150000      0.0000000E+00
  -2.140000      0.0000000E+00
  -2.130000      0.0000000E+00
  -2.120000      0.0000000E+00
  -2.110000      0.0000000E+00
  -2.100000      0.0000000E+00
  -2.090000      0.0000000E+00
  -2.080000      0.0000000E+00
  -2.070000      0.0000000E+00
  -2.060000      0.0000000E+00
  -2.050000      0.0000000E+00
  -2.040000      0.0000000E+00
  -2.030000      0.0000000E+00
  -2.020000      0.0000000E+00
  -2.010000      0.0000000E+00
  -2.000000      0.0000000E+00
  -1.990000      0.0000000E+00
  -1.980000      0.0000000E+00
  -1.970000      0.0000000E+00
  -1.960000      0.0000000E+00
  -1.950000      0.0000000E+00
  -1.940000      0.0000000E+00
  -1.930000      0.0000000E+00
  -1.920000      0.0000000E+00
  -1.910000      0.0000000E+00
  -1.900000      0.0000000E+00
  -1.890000      0.0000000E+00
  -1.880000      0.0000000E+00
  -1.870000      0.0000000E+00
  -1.860000      0.0000000E+00
  -1.850000      0.0000000E+00
  -1.840000      0.0000000E+00
  -1.830000      0.0000000E+00
  -1.820000      0.0000000E+00
  -1.810000      0.0000000E+00
  -1.800000      0.0000000E+00
  -1.790000      0.0000000E+00
  -1.780000      0.0000000E+00
  -1.770000      0.0000000E+00
  -1.760000      0.0000000E+00
  -1.750000      0.0000000E+00
  -1.740000      0.0000000E+00
  -1.730000      0.0000000E+00
  -1.720000      0.0000000E+00
  -1.710000      0.0000000E+00
  -1.700000      0.0000000E+00
  -1.690000      0.0000000E+00
  -1.680000      0.0000000E+00
  -1.670000      0.0000000E+00
  -1.660000      0.0000000E+00
  -1.650000      0.0000000E+00
  -1.640000      0.0000000E+00
  -1.630000      0.0000000E+00
  -1.620000      0.0000000E+00
  -1.610000      0.0000000E+00
  -1.600000      0.0000000E+00
  -1.590000      0.0000000E+00
  -1.580000      0.0000000E+00
  -1.570000      0.0000000E+00
  -1.560000      0.0000000E+00
  -1.550000      0.0000000E+00
  -1.540000      0.0000000E+00
  -1.530000      0.0000000E+00
  -1.520000      0.0000000E+00
  -1.510000      0.0000000E+00
  -1.500000      0.0000000E+00
  -1.490000      0.0000000E+00
  -1.480000      0.0000000E+00
  -1.470000      0.0000000E+00
  -1.460000      0.0000000E+00
  -1.450000      0.0000000E+00
  -1.440000      0.0000000E+00
  -1.430000      0.0000000E+00
  -1.420000      0.0000000E+00
  -1.410000      0.0000000E+00
  -1.400000      0.0000000E+00
  -1.390000      0.0000000E+00
  -1.380000      0.0000000E+00
  -1.370000      0.0000000E+00
  -1.360000      0.0000000E+00
  -1.350000      0.0000000E+00
  -1.340000      0.0000000E+00
  -1.330000      0.0000000E+00
  -1.320000      0.0000000E+00
  -1.310000      0.0000000E+00
  -1.300000      0.0000000E+00
  -1.290000      0.0000000E+00
  -1.280000      0.0000000E+00
  -1.270000      0.0000000E+00
  -1.260000     -1.3382100E-38
  -1.250000     -1.6370190E-38
  -1.240000     -1.9637452E-38
  -1.230000     -2.2913063E-38
  -1.220000     -2.5999487E-38
  -1.210000     -2.8904494E-38
  -1.200000     -3.1545187E-38
  -1.190000     -3.3854880E-38
  -1.180000     -3.5789449E-38
  -1.170000     -3.7335950E-38
  -1.160000     -3.8511477E-38
  -1.150000     -4.0841850E-38
  -1.140000     -4.4948817E-38
  -1.130000     -4.9901522E-38
  -1.120000     -5.5855443E-38
  -1.110000     -6.2458821E-38
  -1.100000     -6.2502390E-38
  -1.090000     -5.6173891E-38
  -1.080000     -4.9971133E-38
  -1.070000     -4.3469828E-38
  -1.060000     -3.4227533E-38
  -1.050000     -5.6035476E-38
  -1.040000     -1.2192497E-37
  -1.030000     -2.1135439E-37
  -1.020000     -3.2417166E-37
  -1.010000     -4.5724454E-37
  -1.000000     -6.1363214E-37
 -0.9900000     -8.0214745E-37
 -0.9800000     -1.0240146E-36
 -0.9700000     -1.1891809E-36
 -0.9600000     -1.2687098E-36
 -0.9500000     -1.3271329E-36
 -0.9400000     -1.3695386E-36
 -0.9300000     -1.2491218E-36
 -0.9200000     -9.2168364E-37
 -0.9100000     -4.9586186E-37
 -0.9000000     -5.0110635E-38
 -0.8900000      3.3120658E-37
 -0.8800000      5.6379336E-37
 -0.8700000      6.3029468E-37
 -0.8600000      6.0571693E-37
 -0.8500000      4.2567389E-37
 -0.8400000      2.9371900E-38
 -0.8300000     -4.9781736E-37
 -0.8200000     -1.0461634E-36
 -0.8100000     -1.5506230E-36
 -0.8000000     -1.9927470E-36
 -0.7900000     -1.5324241E-36
 -0.7800000     -7.9813588E-38
 -0.7700000      1.5080284E-36
 -0.7600000      2.9497847E-36
 -0.7500000      3.9754298E-36
 -0.7400000      4.4206444E-36
 -0.7300000      3.4011287E-36
 -0.7200000      1.1732025E-36
 -0.7100000     -1.4754539E-36
 -0.7000000     -4.6001523E-36
 -0.6900000     -6.6698377E-36
 -0.6800000     -7.1254387E-36
 -0.6700000     -6.3900092E-36
 -0.6600000     -3.9265475E-36
 -0.6500000     -6.7677223E-38
 -0.6400000      4.3154088E-36
 -0.6300000      8.8065470E-36
 -0.6200000      1.3193227E-35
 -0.6100000      1.7551432E-35
 -0.6000000      2.1692483E-35
 -0.5900000      2.4477383E-35
 -0.5800000      2.5735018E-35
 -0.5700000      2.6803923E-35
 -0.5600000      2.7074269E-35
 -0.5500000      2.6569447E-35
 -0.5400000      2.7322498E-35
 -0.5300000      3.1289883E-35
 -0.5200000      3.8435124E-35
 -0.5100000      4.7536903E-35
 -0.5000000      5.8429870E-35
 -0.4900000      7.3390302E-35
 -0.4800000      9.2448171E-35
 -0.4700000      1.1311851E-34
 -0.4600000      1.3517385E-34
 -0.4500000      1.5539024E-34
 -0.4400000      1.7453657E-34
 -0.4300000      1.9675865E-34
 -0.4200000      2.2322801E-34
 -0.4100000      2.5566809E-34
 -0.4000000      2.9427259E-34
 -0.3900000      3.3840299E-34
 -0.3800000      3.8853202E-34
 -0.3700000      4.4282149E-34
 -0.3600000      4.9272522E-34
 -0.3500000      5.4272170E-34
 -0.3400000      6.0603396E-34
 -0.3300000      6.7688519E-34
 -0.3200000      7.5139045E-34
 -0.3100000      8.2514873E-34
 -0.3000000      8.9429415E-34
 -0.2900000      9.5363660E-34
 -0.2800000      1.0049704E-33
 -0.2700000      1.0591505E-33
 -0.2600000      1.1235270E-33
 -0.2500000      1.2060713E-33
 -0.2400000      1.3085541E-33
 -0.2300000      1.4232772E-33
 -0.2200000      1.5280835E-33
 -0.2100000      1.6200211E-33
 -0.2000000      1.7041301E-33
 -0.1900000      1.7825163E-33
 -0.1800000      1.8625647E-33
 -0.1700000      1.9352169E-33
 -0.1600000      1.9959126E-33
 -0.1500000      2.0516753E-33
 -0.1400000      2.0962684E-33
 -0.1300000      2.1267902E-33
 -0.1200000      2.1518928E-33
 -0.1100000      2.1759220E-33
 -0.1000000      2.1949405E-33
 -9.0000004E-02  2.1989440E-33
 -7.9999998E-02  2.1769006E-33
 -7.0000000E-02  2.1209667E-33
 -5.9999999E-02  2.0288307E-33
 -5.0000001E-02  1.8946144E-33
 -3.9999999E-02  1.7103480E-33
 -2.9999999E-02  1.4723662E-33
 -2.0000000E-02  1.1812492E-33
 -9.9999998E-03  8.4069657E-34
 -3.4694470E-17  4.5429188E-34
  9.9999998E-03  1.9882412E-35
  2.0000000E-02 -4.5973322E-34
  2.9999999E-02 -9.7213989E-34
  3.9999999E-02 -1.5067949E-33
  5.0000001E-02 -2.0584223E-33
  5.9999999E-02 -2.6263029E-33
  7.0000000E-02 -3.2106975E-33
  7.9999998E-02 -3.8153681E-33
  9.0000004E-02 -4.4472952E-33
  0.1000000     -5.1148511E-33
  0.1100000     -5.8246068E-33
  0.1200000     -6.5878054E-33
  0.1300000     -7.4070661E-33
  0.1400000     -8.2810646E-33
  0.1500000     -9.2179497E-33
  0.1600000     -1.0220629E-32
  0.1700000     -1.1281229E-32
  0.1800000     -1.2400321E-32
  0.1900000     -1.3593151E-32
  0.2000000     -1.4853260E-32
  0.2100000     -1.6162007E-32
  0.2200000     -1.7498662E-32
  0.2300000     -1.8843974E-32
  0.2400000     -2.0187775E-32
  0.2500000     -2.1505775E-32
  0.2600000     -2.2765091E-32
  0.2700000     -2.3936519E-32
  0.2800000     -2.4984927E-32
  0.2900000     -2.5870762E-32
  0.3000000     -2.6555455E-32
  0.3100000     -2.7000641E-32
  0.3200000     -2.7171032E-32
  0.3300000     -2.7036064E-32
  0.3400000     -2.6572041E-32
  0.3500000     -2.5763771E-32
  0.3600000     -2.4605634E-32
  0.3700000     -2.3102287E-32
  0.3800000     -2.1267827E-32
  0.3900000     -1.9124026E-32
  0.4000000     -1.6698667E-32
  0.4100000     -1.4022310E-32
  0.4200000     -1.1124444E-32
  0.4300000     -8.0297020E-33
  0.4400000     -4.7538942E-33
  0.4500000     -1.3004083E-33
  0.4600000      2.3427797E-33
  0.4700000      6.2048550E-33
  0.4800000      1.0332794E-32
  0.4900000      1.4791121E-32
  0.5000000      1.9659554E-32
  0.5100000      2.5029822E-32
  0.5200000      3.1001254E-32
  0.5300000      3.7674329E-32
  0.5400000      4.5144102E-32
  0.5500000      5.3492939E-32
  0.5600000      6.2782742E-32
  0.5700000      7.3047723E-32
  0.5800000      8.4287365E-32
  0.5900000      9.6460314E-32
  0.6000000      1.0948047E-31
  0.6100000      1.2321415E-31
  0.6200000      1.3747999E-31
  0.6300000      1.5205128E-31
  0.6400000      1.6666084E-31
  0.6500000      1.8100914E-31
  0.6600000      1.9477458E-31
  0.6700000      2.0762599E-31
  0.6800000      2.1923675E-31
  0.6900000      2.2929990E-31
  0.7000000      2.3754305E-31
  0.7100000      2.4374082E-31
  0.7200000      2.4772659E-31
  0.7300000      2.4939958E-31
  0.7400000      2.4872699E-31
  0.7500000      2.4574156E-31
  0.7600000      2.4053184E-31
  0.7700000      2.3322706E-31
  0.7800000      2.2397597E-31
  0.7900000      2.1292105E-31
  0.8000000      2.0016788E-31
  0.8100000      1.8575577E-31
  0.8200000      1.6962023E-31
  0.8300000      1.5156669E-31
  0.8400000      1.3125108E-31
  0.8500000      1.0815481E-31
  0.8600000      8.1578056E-32
  0.8700000      5.0641137E-32
  0.8800000      1.4297796E-32
  0.8900000     -2.8639171E-32
  0.9000000     -7.9460826E-32
  0.9100000     -1.3951326E-31
  0.9200000     -2.1014336E-31
  0.9300000     -2.9263544E-31
  0.9400000     -3.8814598E-31
  0.9500000     -4.9764243E-31
  0.9600000     -6.2184686E-31
  0.9700000     -7.6119047E-31
  0.9800000     -9.1578204E-31
  0.9900000     -1.0853954E-30
   1.000000     -1.2694780E-30
   1.010000     -1.4671817E-30
   1.020000     -1.6774175E-30
   1.030000     -1.8989302E-30
   1.040000     -2.1303943E-30
   1.050000     -2.3705224E-30
   1.060000     -2.6181840E-30
   1.070000     -2.8725219E-30
   1.080000     -3.1330652E-30
   1.090000     -3.3998257E-30
   1.100000     -3.6733687E-30
   1.110000     -3.9548524E-30
   1.120000     -4.2460319E-30
   1.130000     -4.5492150E-30
   1.140000     -4.8671782E-30
   1.150000     -5.2030340E-30
   1.160000     -5.5600612E-30
   1.170000     -5.9415003E-30
   1.180000     -6.3503274E-30
   1.190000     -6.7890174E-30
   1.200000     -7.2593137E-30
   1.210000     -7.7620198E-30
   1.220000     -8.2968234E-30
   1.230000     -8.8621832E-30
   1.240000     -9.4552741E-30
   1.250000     -1.0072021E-29
   1.260000     -1.0707209E-29
   1.270000     -1.1354683E-29
   1.280000     -1.2007623E-29
   1.290000     -1.2658900E-29
   1.300000     -1.3301479E-29
   1.310000     -1.3928856E-29
   1.320000     -1.4535508E-29
   1.330000     -1.5117301E-29
   1.340000     -1.5671879E-29
   1.350000     -1.6198929E-29
   1.360000     -1.6700367E-29
   1.370000     -1.7180374E-29
   1.380000     -1.7645278E-29
   1.390000     -1.8103296E-29
   1.400000     -1.8564102E-29
   1.410000     -1.9038258E-29
   1.420000     -1.9536540E-29
   1.430000     -2.0069167E-29
   1.440000     -2.0644991E-29
   1.450000     -2.1270715E-29
   1.460000     -2.1950150E-29
   1.470000     -2.2683625E-29
   1.480000     -2.3467578E-29
   1.490000     -2.4294353E-29
   1.500000     -2.5152269E-29
   1.510000     -2.6025970E-29
   1.520000     -2.6897092E-29
   1.530000     -2.7745172E-29
   1.540000     -2.8548827E-29
   1.550000     -2.9287105E-29
   1.560000     -2.9940973E-29
   1.570000     -3.0494829E-29
   1.580000     -3.0937919E-29
   1.590000     -3.1265637E-29
   1.600000     -3.1480499E-29
   1.610000     -3.1592768E-29
   1.620000     -3.1620667E-29
   1.630000     -3.1590003E-29
   1.640000     -3.1533353E-29
   1.650000     -3.1488675E-29
   1.660000     -3.1497414E-29
   1.670000     -3.1602265E-29
   1.680000     -3.1844581E-29
   1.690000     -3.2261659E-29
   1.700000     -3.2884008E-29
   1.710000     -3.3732862E-29
   1.720000     -3.4818036E-29
   1.730000     -3.6136374E-29
   1.740000     -3.7670865E-29
   1.750000     -3.9390627E-29
   1.760000     -4.1251812E-29
   1.770000     -4.3199433E-29
   1.780000     -4.5170114E-29
   1.790000     -4.7095617E-29
   1.800000     -4.8907014E-29
   1.810000     -5.0539242E-29
   1.820000     -5.1935819E-29
   1.830000     -5.3053321E-29
   1.840000     -5.3865438E-29
   1.850000     -5.4366125E-29
   1.860000     -5.4571598E-29
   1.870000     -5.4521012E-29
   1.880000     -5.4275492E-29
   1.890000     -5.3915506E-29
   1.900000     -5.3536609E-29
   1.910000     -5.3243585E-29
   1.920000     -5.3143292E-29
   1.930000     -5.3336481E-29
   1.940000     -5.3909150E-29
   1.950000     -5.4923778E-29
   1.960000     -5.6411174E-29
   1.970000     -5.8363369E-29
   1.980000     -6.0728200E-29
   1.990000     -6.3406049E-29
   2.000000     -6.6249173E-29
   2.010000     -6.9063860E-29
   2.020000     -7.1615374E-29
   2.030000     -7.3635927E-29
   2.040000     -7.4834975E-29
   2.050000     -7.4911651E-29
   2.060000     -7.3568610E-29
   2.070000     -7.0526333E-29
   2.080000     -6.5537187E-29
   2.090000     -5.8398084E-29
   2.100000     -4.8960645E-29
   2.110000     -3.7138270E-29
   2.120000     -2.2909077E-29
   2.130000     -6.3142539E-30
   2.140000      1.2548627E-29
   2.150000      3.3537232E-29
   2.160000      5.6480658E-29
   2.170000      8.1199855E-29
   2.180000      1.0753101E-28
   2.190000      1.3535073E-28
   2.200000      1.6460134E-28
   2.210000      1.9531486E-28
   2.220000      2.2763404E-28
   2.230000      2.6182839E-28
   2.240000      2.9830428E-28
   2.250000      3.3760719E-28
   2.260000      3.8041577E-28
   2.270000      4.2752766E-28
   2.280000      4.7983601E-28
   2.290000      5.3829930E-28
   2.300000      6.0390355E-28
   2.310000      6.7762131E-28
   2.320000      7.6036759E-28
   2.330000      8.5295672E-28
   2.340000      9.5606234E-28
   2.350000      1.0701834E-27
   2.360000      1.1956196E-27
   2.370000      1.3324571E-27
   2.380000      1.4805686E-27
   2.390000      1.6396262E-27
   2.400000      1.8091292E-27
   2.410000      1.9884452E-27
   2.420000      2.1768626E-27
   2.430000      2.3736532E-27
   2.440000      2.5781398E-27
   2.450000      2.7897648E-27
   2.460000      3.0081562E-27
   2.470000      3.2331869E-27
   2.480000      3.4650188E-27
   2.490000      3.7041303E-27
   2.500000      3.9513257E-27
   2.510000      4.2077186E-27
   2.520000      4.4746914E-27
   2.530000      4.7538326E-27
   2.540000      5.0468524E-27
   2.550000      5.3554742E-27
   2.560000      5.6813196E-27
   2.570000      6.0257814E-27
   2.580000      6.3898970E-27
   2.590000      6.7742313E-27
   2.600000      7.1787760E-27
   2.610000      7.6028673E-27
   2.620000      8.0451417E-27
   2.630000      8.5035184E-27
   2.640000      8.9752272E-27
   2.650000      9.4568738E-27
   2.660000      9.9445400E-27
   2.670000      1.0433923E-26
   2.680000      1.0920496E-26
   2.690000      1.1399693E-26
   2.700000      1.1867097E-26
   2.710000      1.2318625E-26
   2.720000      1.2750688E-26
   2.730000      1.3160331E-26
   2.740000      1.3545323E-26
   2.750000      1.3904185E-26
   2.760000      1.4236180E-26
   2.770000      1.4541212E-26
   2.780000      1.4819683E-26
   2.790000      1.5072278E-26
   2.800000      1.5299700E-26
   2.810000      1.5502368E-26
   2.820000      1.5680094E-26
   2.830000      1.5831750E-26
   2.840000      1.5954960E-26
   2.850000      1.6045833E-26
   2.860000      1.6098748E-26
   2.870000      1.6106224E-26
   2.880000      1.6058871E-26
   2.890000      1.5945461E-26
   2.900000      1.5753090E-26
   2.910000      1.5467452E-26
   2.920000      1.5073201E-26
   2.930000      1.4554410E-26
   2.940000      1.3895053E-26
   2.950000      1.3079548E-26
   2.960000      1.2093270E-26
   2.970000      1.0923035E-26
   2.980000      9.5575075E-27
   2.990000      7.9875125E-27
   3.000000      6.2062141E-27
   3.010000      4.2091307E-27
   3.020000      1.9939950E-27
   3.030000     -4.3954902E-28
   3.040000     -3.0904156E-27
   3.050000     -5.9566694E-27
   3.060000     -9.0362422E-27
   3.070000     -1.2327703E-26
   3.080000     -1.5831030E-26
   3.090000     -1.9548385E-26
   3.100000     -2.3484787E-26
   3.110000     -2.7648616E-26
   3.120000     -3.2051946E-26
   3.130000     -3.6710647E-26
   3.140000     -4.1644248E-26
   3.150000     -4.6875483E-26
   3.160000     -5.2429606E-26
   3.170000     -5.8333417E-26
   3.180000     -6.4614124E-26
   3.190000     -7.1298013E-26
   3.200000     -7.8409039E-26
   3.210000     -8.5967442E-26
   3.220000     -9.3988358E-26
   3.230000     -1.0248074E-25
   3.240000     -1.1144635E-25
   3.250000     -1.2087917E-25
   3.260000     -1.3076518E-25
   3.270000     -1.4108260E-25
   3.280000     -1.5180230E-25
   3.290000     -1.6288900E-25
   3.300000     -1.7430254E-25
   3.310000     -1.8599946E-25
   3.320000     -1.9793488E-25
   3.330000     -2.1006449E-25
   3.340000     -2.2234641E-25
   3.350000     -2.3474282E-25
   3.360000     -2.4722134E-25
   3.370000     -2.5975609E-25
   3.380000     -2.7232790E-25
   3.390000     -2.8492421E-25
   3.400000     -2.9753819E-25
   3.410000     -3.1016717E-25
   3.420000     -3.2281044E-25
   3.430000     -3.3546665E-25
   3.440000     -3.4813065E-25
   3.450000     -3.6079019E-25
   3.460000     -3.7342259E-25
   3.470000     -3.8599139E-25
   3.480000     -3.9844346E-25
   3.490000     -4.1070670E-25
   3.500000     -4.2268858E-25
   3.510000     -4.3427537E-25
   3.520000     -4.4533249E-25
   3.530000     -4.5570582E-25
   3.540000     -4.6522416E-25
   3.550000     -4.7370249E-25
   3.560000     -4.8094591E-25
   3.570000     -4.8675454E-25
   3.580000     -4.9092831E-25
   3.590000     -4.9327177E-25
   3.600000     -4.9359890E-25
   3.610000     -4.9173714E-25
   3.620000     -4.8753024E-25
   3.630000     -4.8084006E-25
   3.640000     -4.7154698E-25
   3.650000     -4.5954890E-25
   3.660000     -4.4475850E-25
   3.670000     -4.2709906E-25
   3.680000     -4.0649911E-25
   3.690000     -3.8288604E-25
   3.700000     -3.5617861E-25
   3.710000     -3.2627997E-25
   3.720000     -2.9307043E-25
   3.730000     -2.5640112E-25
   3.740000     -2.1608895E-25
   3.750000     -1.7191346E-25
   3.760000     -1.2361497E-25
   3.770000     -7.0895854E-26
   3.780000     -1.3423889E-26
   3.790000      4.9161935E-26
   3.800000      1.1724299E-25
   3.810000      1.9121142E-25
   3.820000      2.7145798E-25
   3.830000      3.5835962E-25
   3.840000      4.5226742E-25
   3.850000      5.5349360E-25
   3.860000      6.6230109E-25
   3.870000      7.7889493E-25
   3.880000      9.0341524E-25
   3.890000      1.0359350E-24
   3.900000      1.1764597E-24
   3.910000      1.3249307E-24
   3.920000      1.4812338E-24
   3.930000      1.6452089E-24
   3.940000      1.8166634E-24
   3.950000      1.9953874E-24
   3.960000      2.1811692E-24
   3.970000      2.3738105E-24
   3.980000      2.5731408E-24
   3.990000      2.7790288E-24
   4.000000      2.9913911E-24
   4.010000      3.2101961E-24
   4.020000      3.4354612E-24
   4.030000      3.6672463E-24
   4.040000      3.9056428E-24
   4.050000      4.1507553E-24
   4.060000      4.4026789E-24
   4.070000      4.6614710E-24
   4.080000      4.9271270E-24
   4.090000      5.1995495E-24
   4.100000      5.4785195E-24
   4.110000      5.7636706E-24
   4.120000      6.0544704E-24
   4.130000      6.3502021E-24
   4.140000      6.6499570E-24
   4.150000      6.9526319E-24
   4.160000      7.2569374E-24
   4.170000      7.5614124E-24
   4.180000      7.8644478E-24
   4.190000      8.1643120E-24
   4.200000      8.4591921E-24
   4.210000      8.7472242E-24
   4.220000      9.0265307E-24
   4.230000      9.2952624E-24
   4.240000      9.5516241E-24
   4.250000      9.7938975E-24
   4.260000      1.0020458E-23
   4.270000      1.0229785E-23
   4.280000      1.0420443E-23
   4.290000      1.0591068E-23
   4.300000      1.0740338E-23
   4.310000      1.0866933E-23
   4.320000      1.0969479E-23
   4.330000      1.1046502E-23
   4.340000      1.1096359E-23
   4.350000      1.1117191E-23
   4.360000      1.1106867E-23
   4.370000      1.1062940E-23
   4.380000      1.0982626E-23
   4.390000      1.0862775E-23
   4.400000      1.0699873E-23
   4.410000      1.0490071E-23
   4.420000      1.0229211E-23
   4.430000      9.9128829E-24
   4.440000      9.5365000E-24
   4.450000      9.0953730E-24
   4.460000      8.5848064E-24
   4.470000      8.0001887E-24
   4.480000      7.3370785E-24
   4.490000      6.5912922E-24
   4.500000      5.7589745E-24
   4.510000      4.8366529E-24
   4.520000      3.8212604E-24
   4.530000      2.7101488E-24
   4.540000      1.5010712E-24
   4.550000      1.9213459E-25
   4.560000     -1.2182660E-24
   4.570000     -2.7315338E-24
   4.580000     -4.3489740E-24
   4.590000     -6.0718955E-24
   4.600000     -7.9017223E-24
   4.610000     -9.8401018E-24
   4.620000     -1.1888983E-23
   4.630000     -1.4050662E-23
   4.640000     -1.6327829E-23
   4.650000     -1.8723565E-23
   4.660000     -2.1241295E-23
   4.670000     -2.3884706E-23
   4.680000     -2.6657636E-23
   4.690000     -2.9563916E-23
   4.700000     -3.2607190E-23
   4.710000     -3.5790714E-23
   4.720000     -3.9117154E-23
   4.730000     -4.2588382E-23
   4.740000     -4.6205256E-23
   4.750000     -4.9967491E-23
   4.760000     -5.3873501E-23
   4.770000     -5.7920313E-23
   4.780000     -6.2103542E-23
   4.790000     -6.6417380E-23
   4.800000     -7.0854691E-23
   4.810000     -7.5407119E-23
   4.820000     -8.0065236E-23
   4.830000     -8.4818779E-23
   4.840000     -8.9656863E-23
   4.850000     -9.4568191E-23
   4.860000     -9.9541290E-23
   4.870000     -1.0456472E-22
   4.880000     -1.0962722E-22
   4.890000     -1.1471781E-22
   4.900000     -1.1982576E-22
   4.910000     -1.2494066E-22
   4.920000     -1.3005219E-22
   4.930000     -1.3514997E-22
   4.940000     -1.4022338E-22
   4.950000     -1.4526107E-22
   4.960000     -1.5025070E-22
   4.970000     -1.5517849E-22
   4.980000     -1.6002889E-22
   4.990000     -1.6478416E-22
   5.000000     -1.6942409E-22
   5.010000     -1.7392577E-22
   5.020000     -1.7826325E-22
   5.030000     -1.8240766E-22
   5.040000     -1.8632719E-22
   5.050000     -1.8998724E-22
   5.060000     -1.9335070E-22
   5.070000     -1.9637844E-22
   5.080000     -1.9902957E-22
   5.090000     -2.0126211E-22
   5.100000     -2.0303354E-22
   5.110000     -2.0430128E-22
   5.120000     -2.0502332E-22
   5.130000     -2.0515855E-22
   5.140000     -2.0466719E-22
   5.150000     -2.0351099E-22
   5.160000     -2.0165328E-22
   5.170000     -1.9905891E-22
   5.180000     -1.9569406E-22
   5.190000     -1.9152580E-22
   5.200000     -1.8652158E-22
   5.210000     -1.8064873E-22
   5.220000     -1.7387378E-22
   5.230000     -1.6616169E-22
   5.240000     -1.5747543E-22
   5.250000     -1.4777538E-22
   5.260000     -1.3701882E-22
   5.270000     -1.2515959E-22
   5.280000     -1.1214825E-22
   5.290000     -9.7932304E-23
   5.300000     -8.2456450E-23
   5.310000     -6.5663135E-23
   5.320000     -4.7493500E-23
   5.330000     -2.7888464E-23
   5.340000     -6.7899159E-24
   5.350000      1.5858154E-23
   5.360000      4.0108304E-23
   5.370000      6.6008302E-23
   5.380000      9.3600158E-23
   5.390000      1.2291936E-22
   5.400000      1.5399393E-22
   5.410000      1.8684409E-22
   5.420000      2.2148218E-22
   5.430000      2.5791286E-22
   5.440000      2.9613349E-22
   5.450000      3.3613507E-22
   5.460000      3.7790302E-22
   5.470000      4.2141836E-22
   5.480000      4.6665891E-22
   5.490000      5.1360045E-22
   5.500000      5.6221776E-22
   5.510000      6.1248569E-22
   5.520000      6.6437911E-22
   5.530000      7.1787367E-22
   5.540000      7.7294566E-22
   5.550000      8.2957113E-22
   5.560000      8.8772454E-22
   5.570000      9.4737767E-22
   5.580000      1.0084975E-21
   5.590000      1.0710444E-21
   5.600000      1.1349691E-21
   5.610000      1.2002112E-21
   5.620000      1.2666955E-21
   5.630000      1.3343313E-21
   5.640000      1.4030094E-21
   5.650000      1.4726014E-21
   5.660000      1.5429590E-21
   5.670000      1.6139140E-21
   5.680000      1.6852775E-21
   5.690000      1.7568416E-21
   5.700000      1.8283816E-21
   5.710000      1.8996574E-21
   5.720000      1.9704157E-21
   5.730000      2.0403932E-21
   5.740000      2.1093196E-21
   5.750000      2.1769195E-21
   5.760000      2.2429144E-21
   5.770000      2.3070261E-21
   5.780000      2.3689762E-21
   5.790000      2.4284870E-21
   5.800000      2.4852815E-21
   5.810000      2.5390824E-21
   5.820000      2.5896103E-21
   5.830000      2.6365808E-21
   5.840000      2.6797019E-21
   5.850000      2.7186688E-21
   5.860000      2.7531628E-21
   5.870000      2.7828454E-21
   5.880000      2.8073561E-21
   5.890000      2.8263099E-21
   5.900000      2.8392944E-21
   5.910000      2.8458697E-21
   5.920000      2.8455677E-21
   5.930000      2.8378943E-21
   5.940000      2.8223328E-21
   5.950000      2.7983447E-21
   5.960000      2.7653785E-21
   5.970000      2.7228720E-21
   5.980000      2.6702606E-21
   5.990000      2.6069837E-21
   6.000000      2.5324896E-21
   6.010000      2.4462421E-21
   6.020000      2.3477254E-21
   6.030000      2.2364496E-21
   6.040000      2.1119533E-21
   6.050000      1.9738040E-21
   6.060000      1.8215987E-21
   6.070000      1.6549634E-21
   6.080000      1.4735480E-21
   6.090000      1.2770235E-21
   6.100000      1.0650760E-21
   6.110000      8.3740127E-22
   6.120000      5.9370187E-22
   6.130000      3.3368039E-22
   6.140000      5.7033186E-23
   6.150000     -2.3654889E-22
   6.160000     -5.4738248E-22
   6.170000     -8.7579262E-22
   6.180000     -1.2221105E-21
   6.190000     -1.5866663E-21
   6.200000     -1.9697810E-21
   6.210000     -2.3717599E-21
   6.220000     -2.7928794E-21
   6.230000     -3.2333745E-21
   6.240000     -3.6934277E-21
   6.250000     -4.1731553E-21
   6.260000     -4.6725975E-21
   6.270000     -5.1917054E-21
   6.280000     -5.7303304E-21
   6.290000     -6.2882210E-21
   6.300000     -6.8650159E-21
   6.310000     -7.4602474E-21
   6.320000     -8.0733361E-21
   6.330000     -8.7036025E-21
   6.340000     -9.3502727E-21
   6.350000     -1.0012484E-20
   6.360000     -1.0689298E-20
   6.370000     -1.1379709E-20
   6.380000     -1.2082660E-20
   6.390000     -1.2797046E-20
   6.400000     -1.3521722E-20
   6.410000     -1.4255516E-20
   6.420000     -1.4997224E-20
   6.430000     -1.5745609E-20
   6.440000     -1.6499395E-20
   6.450000     -1.7257261E-20
   6.460000     -1.8017829E-20
   6.470000     -1.8779645E-20
   6.480000     -1.9541158E-20
   6.490000     -2.0300707E-20
   6.500000     -2.1056496E-20
   6.510000     -2.1806580E-20
   6.520000     -2.2548842E-20
   6.530000     -2.3280997E-20
   6.540000     -2.4000561E-20
   6.550000     -2.4704864E-20
   6.560000     -2.5391033E-20
   6.570000     -2.6056016E-20
   6.580000     -2.6696587E-20
   6.590000     -2.7309368E-20
   6.600000     -2.7890844E-20
   6.610000     -2.8437387E-20
   6.620000     -2.8945299E-20
   6.630000     -2.9410820E-20
   6.640000     -2.9830162E-20
   6.650000     -3.0199534E-20
   6.660000     -3.0515155E-20
   6.670000     -3.0773274E-20
   6.680000     -3.0970182E-20
   6.690000     -3.1102204E-20
   6.700000     -3.1165697E-20
   6.710000     -3.1157047E-20
   6.720000     -3.1072642E-20
   6.730000     -3.0908861E-20
   6.740000     -3.0662028E-20
   6.750000     -3.0328425E-20
   6.760000     -2.9904243E-20
   6.770000     -2.9385565E-20
   6.780000     -2.8768359E-20
   6.790000     -2.8048460E-20
   6.800000     -2.7221577E-20
   6.810000     -2.6283292E-20
   6.820000     -2.5229093E-20
   6.830000     -2.4054396E-20
   6.840000     -2.2754585E-20
   6.850000     -2.1325051E-20
   6.860000     -1.9761254E-20
   6.870000     -1.8058771E-20
   6.880000     -1.6213356E-20
   6.890000     -1.4220996E-20
   6.900000     -1.2077974E-20
   6.910000     -9.7809107E-21
   6.920000     -7.3268145E-21
   6.930000     -4.7131035E-21
   6.940000     -1.9376314E-21
   6.950000      1.0013264E-21
   6.960000      4.1050861E-21
   6.970000      7.3745405E-21
   6.980000      1.0810216E-20
   6.990000      1.4412296E-20
   7.000000      1.8180651E-20
   7.010000      2.2114876E-20
   7.020000      2.6214320E-20
   7.030000      3.0478135E-20
   7.040000      3.4905280E-20
   7.050000      3.9494501E-20
   7.060000      4.4244353E-20