  -2.600000      0.0000000E+00
  -2.590000      0.0000000E+00
  -2.580000      0.0000000E+00
  -2.570000      0.0000000E+00
  -2.560000      0.0000000E+00
  -2.550000      0.0000000E+00
  -2.540000      0.0000000E+00
  -2.530000      0.0000000E+00
  -2.520000      0.0000000E+00
  -2.510000      0.0000000E+00
  -2.500000      0.0000000E+00
  -2.490000      0.0000000E+00
  -2.480000      0.0000000E+00
  -2.470000      0.0000000E+00
  -2.460000      0.0000000E+00
  -2.450000      0.0000000E+00
  -2.440000      0.0000000E+00
  -2.430000      0.0000000E+00
  -2.420000      0.0000000E+00
  -2.410000      0.0000000E+00
  -2.400000      0.0000000E+00
  -2.390000      0.0000000E+00
  -2.380000      0.0000000E+00
  -2.370000      0.0000000E+00
  -2.360000      0.0000000E+00
  -2.350000      0.0000000E+00
  -2.340000      0.0000000E+00
  -2.330000      0.0000000E+00
  -2.320000      0.0000000E+00
  -2.310000      0.0000000E+00
  -2.300000      0.0000000E+00
  -2.290000      0.0000000E+00
  -2.280000      0.0000000E+00
  -2.270000      0.0000000E+00
  -2.260000      0.0000000E+00
  -2.250000      0.0000000E+00
  -2.240000      0.0000000E+00
  -2.230000      0.0000000E+00
  -2.220000      0.0000000E+00
  -2.210000      0.0000000E+00
  -2.200000      0.0000000E+00
  -2.190000      0.0000000E+00
  -2.180000      0.0000000E+00
  -2.170000      0.0000000E+00
  -2.160000      0.0000000E+00
  -2.150000      0.0000000E+00
  -2.140000      0.0000000E+00
  -2.130000      0.0000000E+00
  -2.120000      0.0000000E+00
  -2.110000      0.0000000E+00
  -2.100000      0.0000000E+00
  -2.090000      0.0000000E+00
  -2.080000      0.0000000E+00
  -2.070000      0.0000000E+00
  -2.060000      0.0000000E+00
  -2.050000      0.0000000E+00
  -2.040000      0.0000000E+00
  -2.030000      0.0000000E+00
  -2.020000      0.0000000E+00
  -2.010000      0.0000000E+00
  -2.000000      0.0000000E+00
  -1.990000      0.0000000E+00
  -1.980000      0.0000000E+00
  -1.970000      0.0000000E+00
  -1.960000      0.0000000E+00
  -1.950000      0.0000000E+00
  -1.940000      0.0000000E+00
  -1.930000      0.0000000E+00
  -1.920000      0.0000000E+00
  -1.910000      0.0000000E+00
  -1.900000      0.0000000E+00
  -1.890000      0.0000000E+00
  -1.880000      0.0000000E+00
  -1.870000      0.0000000E+00
  -1.860000      0.0000000E+00
  -1.850000      0.0000000E+00
  -1.840000      0.0000000E+00
  -1.830000      0.0000000E+00
  -1.820000      0.0000000E+00
  -1.810000      0.0000000E+00
  -1.800000      0.0000000E+00
  -1.790000      0.0000000E+00
  -1.780000      0.0000000E+00
  -1.770000      0.0000000E+00
  -1.760000      0.0000000E+00
  -1.750000      0.0000000E+00
  -1.740000      0.0000000E+00
  -1.730000      0.0000000E+00
  -1.720000      0.0000000E+00
  -1.710000      0.0000000E+00
  -1.700000      0.0000000E+00
  -1.690000      0.0000000E+00
  -1.680000      0.0000000E+00
  -1.670000      0.0000000E+00
  -1.660000      0.0000000E+00
  -1.650000      0.0000000E+00
  -1.640000      0.0000000E+00
  -1.630000      0.0000000E+00
  -1.620000      0.0000000E+00
  -1.610000      0.0000000E+00
  -1.600000      0.0000000E+00
  -1.590000      0.0000000E+00
  -1.580000      0.0000000E+00
  -1.570000      0.0000000E+00
  -1.560000      0.0000000E+00
  -1.550000      0.0000000E+00
  -1.540000      0.0000000E+00
  -1.530000      0.0000000E+00
  -1.520000      0.0000000E+00
  -1.510000      0.0000000E+00
  -1.500000      0.0000000E+00
  -1.490000      0.0000000E+00
  -1.480000      0.0000000E+00
  -1.470000      0.0000000E+00
  -1.460000      0.0000000E+00
  -1.450000      0.0000000E+00
  -1.440000      0.0000000E+00
  -1.430000      0.0000000E+00
  -1.420000      0.0000000E+00
  -1.410000      0.0000000E+00
  -1.400000      0.0000000E+00
  -1.390000      0.0000000E+00
  -1.380000      0.0000000E+00
  -1.370000      0.0000000E+00
  -1.360000      0.0000000E+00
  -1.350000      0.0000000E+00
  -1.340000      0.0000000E+00
  -1.330000      0.0000000E+00
  -1.320000      0.0000000E+00
  -1.310000      0.0000000E+00
  -1.300000      0.0000000E+00
  -1.290000      0.0000000E+00
  -1.280000      0.0000000E+00
  -1.270000      0.0000000E+00
  -1.260000      0.0000000E+00
  -1.250000      0.0000000E+00
  -1.240000      0.0000000E+00
  -1.230000      0.0000000E+00
  -1.220000      0.0000000E+00
  -1.210000      0.0000000E+00
  -1.200000      0.0000000E+00
  -1.190000      0.0000000E+00
  -1.180000      0.0000000E+00
  -1.170000      0.0000000E+00
  -1.160000      0.0000000E+00
  -1.150000      0.0000000E+00
  -1.140000      0.0000000E+00
  -1.130000      0.0000000E+00
  -1.120000      0.0000000E+00
  -1.110000      0.0000000E+00
  -1.100000      0.0000000E+00
  -1.090000      0.0000000E+00
  -1.080000      0.0000000E+00
  -1.070000      0.0000000E+00
  -1.060000      0.0000000E+00
  -1.050000      0.0000000E+00
  -1.040000      0.0000000E+00
  -1.030000      0.0000000E+00
  -1.020000      0.0000000E+00
  -1.010000      0.0000000E+00
  -1.000000      0.0000000E+00
 -0.9900000      0.0000000E+00
 -0.9800000      0.0000000E+00
 -0.9700000      0.0000000E+00
 -0.9600000      0.0000000E+00
 -0.9500000      0.0000000E+00
 -0.9400000      0.0000000E+00
 -0.9300000      0.0000000E+00
 -0.9200000      0.0000000E+00
 -0.9100000      0.0000000E+00
 -0.9000000      0.0000000E+00
 -0.8900000      0.0000000E+00
 -0.8800000      0.0000000E+00
 -0.8700000      0.0000000E+00
 -0.8600000      0.0000000E+00
 -0.8500000      0.0000000E+00
 -0.8400000      0.0000000E+00
 -0.8300000      0.0000000E+00
 -0.8200000      0.0000000E+00
 -0.8100000      0.0000000E+00
 -0.8000000      0.0000000E+00
 -0.7900000      0.0000000E+00
 -0.7800000      0.0000000E+00
 -0.7700000      0.0000000E+00
 -0.7600000      0.0000000E+00
 -0.7500000      0.0000000E+00
 -0.7400000      0.0000000E+00
 -0.7300000      0.0000000E+00
 -0.7200000      0.0000000E+00
 -0.7100000      0.0000000E+00
 -0.7000000      0.0000000E+00
 -0.6900000      0.0000000E+00
 -0.6800000      0.0000000E+00
 -0.6700000      0.0000000E+00
 -0.6600000      0.0000000E+00
 -0.6500000      0.0000000E+00
 -0.6400000      0.0000000E+00
 -0.6300000      0.0000000E+00
 -0.6200000      0.0000000E+00
 -0.6100000      0.0000000E+00
 -0.6000000      0.0000000E+00
 -0.5900000      0.0000000E+00
 -0.5800000      0.0000000E+00
 -0.5700000      0.0000000E+00
 -0.5600000      0.0000000E+00
 -0.5500000      0.0000000E+00
 -0.5400000      0.0000000E+00
 -0.5300000      0.0000000E+00
 -0.5200000      0.0000000E+00
 -0.5100000      0.0000000E+00
 -0.5000000      0.0000000E+00
 -0.4900000      0.0000000E+00
 -0.4800000      0.0000000E+00
 -0.4700000      0.0000000E+00
 -0.4600000      0.0000000E+00
 -0.4500000      0.0000000E+00
 -0.4400000      0.0000000E+00
 -0.4300000      0.0000000E+00
 -0.4200000      0.0000000E+00
 -0.4100000      0.0000000E+00
 -0.4000000      0.0000000E+00
 -0.3900000      0.0000000E+00
 -0.3800000      0.0000000E+00
 -0.3700000      0.0000000E+00
 -0.3600000      0.0000000E+00
 -0.3500000      0.0000000E+00
 -0.3400000      0.0000000E+00
 -0.3300000      0.0000000E+00
 -0.3200000      0.0000000E+00
 -0.3100000      0.0000000E+00
 -0.3000000      0.0000000E+00
 -0.2900000      0.0000000E+00
 -0.2800000      0.0000000E+00
 -0.2700000      0.0000000E+00
 -0.2600000      0.0000000E+00
 -0.2500000      0.0000000E+00
 -0.2400000      0.0000000E+00
 -0.2300000      0.0000000E+00
 -0.2200000      0.0000000E+00
 -0.2100000      0.0000000E+00
 -0.2000000      0.0000000E+00
 -0.1900000      0.0000000E+00
 -0.1800000      0.0000000E+00
 -0.1700000      0.0000000E+00
 -0.1600000      0.0000000E+00
 -0.1500000      0.0000000E+00
 -0.1400000      0.0000000E+00
 -0.1300000      0.0000000E+00
 -0.1200000      0.0000000E+00
 -0.1100000      0.0000000E+00
 -0.1000000      0.0000000E+00
 -9.0000004E-02  0.0000000E+00
 -7.9999998E-02  0.0000000E+00
 -7.0000000E-02  0.0000000E+00
 -5.9999999E-02  0.0000000E+00
 -5.0000001E-02 -1.3369513E-38
 -3.9999999E-02 -1.5952715E-38
 -2.9999999E-02 -1.8588654E-38
 -2.0000000E-02 -2.1550817E-38
 -9.9999998E-03 -2.4877689E-38
 -3.4694470E-17 -2.8574611E-38
  9.9999998E-03 -3.2879198E-38
  2.0000000E-02 -3.7833341E-38
  2.9999999E-02 -4.3375201E-38
  3.9999999E-02 -4.9401174E-38
  5.0000001E-02 -5.5664272E-38
  5.9999999E-02 -6.2006818E-38
  7.0000000E-02 -6.8371667E-38
  7.9999998E-02 -7.5162102E-38
  9.0000004E-02 -8.2409808E-38
  0.1000000     -8.9342468E-38
  0.1100000     -9.5926604E-38
  0.1200000     -1.0169574E-37
  0.1300000     -1.0701639E-37
  0.1400000     -1.1225289E-37
  0.1500000     -1.1712548E-37
  0.1600000     -1.2195558E-37
  0.1700000     -1.2638420E-37
  0.1800000     -1.3033047E-37
  0.1900000     -1.3340352E-37
  0.2000000     -1.3596032E-37
  0.2100000     -1.3667403E-37
  0.2200000     -1.3535692E-37
  0.2300000     -1.2259847E-37
  0.2400000     -8.4674340E-38
  0.2500000     -3.0427122E-38
  0.2600000      2.7601499E-38
  0.2700000      9.0266658E-38
  0.2800000      1.5867802E-37
  0.2900000      2.3225675E-37
  0.3000000      3.1124608E-37
  0.3100000      3.9452332E-37
  0.3200000      4.7820680E-37
  0.3300000      5.3574972E-37
  0.3400000      5.6389308E-37
  0.3500000      5.8452621E-37
  0.3600000      5.8803887E-37
  0.3700000      5.7822027E-37
  0.3800000      5.5707098E-37
  0.3900000      5.1995370E-37
  0.4000000      4.7893184E-37
  0.4100000      4.3823894E-37
  0.4200000      3.8821604E-37
  0.4300000      3.3783407E-37
  0.4400000      3.1106353E-37
  0.4500000      3.0502904E-37
  0.4600000      2.9731482E-37
  0.4700000      2.7369301E-37
  0.4800000      2.6577744E-37
  0.4900000      2.7359763E-37
  0.5000000      2.6434025E-37
  0.5100000      2.7961561E-37
  0.5200000      3.3375322E-37
  0.5300000      3.9258441E-37
  0.5400000      4.5164688E-37
  0.5500000      5.0588368E-37
  0.5600000      5.4394169E-37
  0.5700000      5.4160997E-37
  0.5800000      4.9779780E-37
  0.5900000      4.3029737E-37
  0.6000000      3.1323857E-37
  0.6100000      1.2428698E-37
  0.6200000     -1.2429905E-37
  0.6300000     -4.0816058E-37
  0.6400000     -7.1904162E-37
  0.6500000     -1.0663778E-36
  0.6600000     -1.4286849E-36
  0.6700000     -1.7914648E-36
  0.6800000     -2.2385964E-36
  0.6900000     -2.7930708E-36
  0.7000000     -3.3085355E-36
  0.7100000     -3.7608957E-36
  0.7200000     -4.2361253E-36
  0.7300000     -4.7162693E-36
  0.7400000     -5.1820281E-36
  0.7500000     -5.6640780E-36
  0.7600000     -6.1361343E-36
  0.7700000     -6.6020495E-36
  0.7800000     -7.1162551E-36
  0.7900000     -7.6415226E-36
  0.8000000     -8.1416408E-36
  0.8100000     -8.6797824E-36
  0.8200000     -8.9890923E-36
  0.8300000     -8.5524790E-36
  0.8400000     -7.4205728E-36
  0.8500000     -6.2601668E-36
  0.8600000     -5.3338074E-36
  0.8700000     -4.4885876E-36
  0.8800000     -3.8828324E-36
  0.8900000     -2.8323818E-36
  0.9000000     -1.2154826E-36
  0.9100000      2.8958084E-37
  0.9200000      1.2565363E-36
  0.9300000      1.3712570E-36
  0.9400000      1.3088309E-36
  0.9500000      1.2149943E-36
  0.9600000      9.1081270E-37
  0.9700000      5.5540557E-37
  0.9800000      2.9175754E-37
  0.9900000      2.3615529E-37
   1.000000      3.8798869E-37
   1.010000      8.7265380E-37
   1.020000      1.7322847E-36
   1.030000      3.0612947E-36
   1.040000      4.8804432E-36
   1.050000      6.9600458E-36
   1.060000      9.3717227E-36
   1.070000      1.1900481E-35
   1.080000      1.3730179E-35
   1.090000      1.4952360E-35
   1.100000      1.6530315E-35
   1.110000      1.8805927E-35
   1.120000      2.1451439E-35
   1.130000      2.4265831E-35
   1.140000      2.7368806E-35
   1.150000      3.0811478E-35
   1.160000      3.4217180E-35
   1.170000      3.7403226E-35
   1.180000      4.0057461E-35
   1.190000      4.2265008E-35
   1.200000      4.4721642E-35
   1.210000      4.7831583E-35
   1.220000      5.1269789E-35
   1.230000      5.4267896E-35
   1.240000      5.6517659E-35
   1.250000      5.7962702E-35
   1.260000      5.7782940E-35
   1.270000      5.6252553E-35
   1.280000      5.5084802E-35
   1.290000      5.4608807E-35
   1.300000      5.5479161E-35
   1.310000      5.6471369E-35
   1.320000      5.6149554E-35
   1.330000      5.5609688E-35
   1.340000      5.5191974E-35
   1.350000      5.5273564E-35
   1.360000      5.6340979E-35
   1.370000      5.7153614E-35
   1.380000      5.7562081E-35
   1.390000      5.8957608E-35
   1.400000      6.0781759E-35
   1.410000      6.2857666E-35
   1.420000      6.6704942E-35
   1.430000      7.1944238E-35
   1.440000      7.5427305E-35
   1.450000      7.6057676E-35
   1.460000      7.4952430E-35
   1.470000      7.2282175E-35
   1.480000      6.7378808E-35
   1.490000      6.0983608E-35
   1.500000      5.3238765E-35
   1.510000      4.2987576E-35
   1.520000      3.0681467E-35
   1.530000      1.8047117E-35
   1.540000      4.9342530E-36
   1.550000     -9.2857754E-36
   1.560000     -2.4579578E-35
   1.570000     -4.0314004E-35
   1.580000     -5.0946700E-35
   1.590000     -5.6104279E-35
   1.600000     -6.1871284E-35
   1.610000     -6.9314069E-35
   1.620000     -7.6509179E-35
   1.630000     -8.1625048E-35
   1.640000     -8.3881917E-35
   1.650000     -8.4690207E-35
   1.660000     -8.7044794E-35
   1.670000     -9.1756719E-35
   1.680000     -9.6514411E-35
   1.690000     -1.0209527E-34
   1.700000     -1.1001651E-34
   1.710000     -1.2064189E-34
   1.720000     -1.3546801E-34
   1.730000     -1.5636401E-34
   1.740000     -1.8076508E-34
   1.750000     -2.0794892E-34
   1.760000     -2.3938362E-34
   1.770000     -2.7331917E-34
   1.780000     -3.1048732E-34
   1.790000     -3.5021724E-34
   1.800000     -3.9210667E-34
   1.810000     -4.3561451E-34
   1.820000     -4.7698787E-34
   1.830000     -5.1435835E-34
   1.840000     -5.4608692E-34
   1.850000     -5.6944983E-34
   1.860000     -5.8358413E-34
   1.870000     -5.8978964E-34
   1.880000     -5.8780434E-34
   1.890000     -5.7776939E-34
   1.900000     -5.6113261E-34
   1.910000     -5.3536072E-34
   1.920000     -5.0249886E-34
   1.930000     -4.7070458E-34
   1.940000     -4.4622583E-34
   1.950000     -4.2721478E-34
   1.960000     -4.1511839E-34
   1.970000     -4.1965387E-34
   1.980000     -4.4133720E-34
   1.990000     -4.8071290E-34
   2.000000     -5.4014797E-34
   2.010000     -6.2206605E-34
   2.020000     -7.2158625E-34
   2.030000     -8.2971047E-34
   2.040000     -9.4584206E-34
   2.050000     -1.0645769E-33
   2.060000     -1.1752302E-33
   2.070000     -1.2701332E-33
   2.080000     -1.3475290E-33
   2.090000     -1.4068636E-33
   2.100000     -1.4443272E-33
   2.110000     -1.4569354E-33
   2.120000     -1.4447591E-33
   2.130000     -1.4093475E-33
   2.140000     -1.3547097E-33
   2.150000     -1.2884201E-33
   2.160000     -1.2194656E-33
   2.170000     -1.1562758E-33
   2.180000     -1.1091913E-33
   2.190000     -1.0896157E-33
   2.200000     -1.1109626E-33
   2.210000     -1.1846349E-33
   2.220000     -1.3175983E-33
   2.230000     -1.5165414E-33
   2.240000     -1.7863679E-33
   2.250000     -2.1271110E-33
   2.260000     -2.5333081E-33
   2.270000     -2.9971482E-33
   2.280000     -3.5113379E-33
   2.290000     -4.0660897E-33
   2.300000     -4.6488686E-33
   2.310000     -5.2421303E-33
   2.320000     -5.8271393E-33
   2.330000     -6.3884694E-33
   2.340000     -6.9128707E-33
   2.350000     -7.3895652E-33
   2.360000     -7.8110454E-33
   2.370000     -8.1755897E-33
   2.380000     -8.4874086E-33
   2.390000     -8.7571581E-33
   2.400000     -9.0012157E-33
   2.410000     -9.2418343E-33
   2.420000     -9.5060582E-33
   2.430000     -9.8245981E-33
   2.440000     -1.0230175E-32
   2.450000     -1.0755218E-32
   2.460000     -1.1430374E-32
   2.470000     -1.2282067E-32
   2.480000     -1.3331380E-32
   2.490000     -1.4586407E-32
   2.500000     -1.6046707E-32
   2.510000     -1.7703446E-32
   2.520000     -1.9535561E-32
   2.530000     -2.1510719E-32
   2.540000     -2.3584427E-32
   2.550000     -2.5707130E-32
   2.560000     -2.7818547E-32
   2.570000     -2.9854888E-32
   2.580000     -3.1755674E-32
   2.590000     -3.3464323E-32
   2.600000     -3.4932354E-32
   2.610000     -3.6120684E-32
   2.620000     -3.7005173E-32
   2.630000     -3.7579029E-32
   2.640000     -3.7853769E-32
   2.650000     -3.7859199E-32
   2.660000     -3.7642947E-32
   2.670000     -3.7268217E-32
   2.680000     -3.6809407E-32
   2.690000     -3.6348022E-32
   2.700000     -3.5966912E-32
   2.710000     -3.5743509E-32
   2.720000     -3.5744150E-32
   2.730000     -3.6016239E-32
   2.740000     -3.6581561E-32
   2.750000     -3.7432804E-32
   2.760000     -3.8528676E-32
   2.770000     -3.9792203E-32
   2.780000     -4.1111307E-32
   2.790000     -4.2340313E-32
   2.800000     -4.3303437E-32
   2.810000     -4.3808470E-32
   2.820000     -4.3649473E-32
   2.830000     -4.2613616E-32
   2.840000     -4.0500050E-32
   2.850000     -3.7128277E-32
   2.860000     -3.2349734E-32
   2.870000     -2.6057745E-32
   2.880000     -1.8195603E-32
   2.890000     -8.7618623E-33
   2.900000      2.1874539E-33
   2.910000      1.4540392E-32
   2.920000      2.8134617E-32
   2.930000      4.2766662E-32
   2.940000      5.8204926E-32
   2.950000      7.4207889E-32
   2.960000      9.0535934E-32
   2.970000      1.0697505E-31
   2.980000      1.2336079E-31
   2.990000      1.3959019E-31
   3.000000      1.5563978E-31
   3.010000      1.7157744E-31
   3.020000      1.8756932E-31
   3.030000      2.0388103E-31
   3.040000      2.2087214E-31
   3.050000      2.3898418E-31
   3.060000      2.5872177E-31
   3.070000      2.8062826E-31
   3.080000      3.0525625E-31
   3.090000      3.3313508E-31
   3.100000      3.6473648E-31
   3.110000      4.0044113E-31
   3.120000      4.4050790E-31
   3.130000      4.8504809E-31
   3.140000      5.3400687E-31
   3.150000      5.8715374E-31
   3.160000      6.4408340E-31
   3.170000      7.0422696E-31
   3.180000      7.6687531E-31
   3.190000      8.3121274E-31
   3.200000      8.9635949E-31
   3.210000      9.6142178E-31
   3.220000      1.0255466E-30
   3.230000      1.0879763E-30
   3.240000      1.1481026E-30
   3.250000      1.2055150E-30
   3.260000      1.2600357E-30
   3.270000      1.3117454E-30
   3.280000      1.3609909E-30
   3.290000      1.4083758E-30
   3.300000      1.4547321E-30
   3.310000      1.5010737E-30
   3.320000      1.5485322E-30
   3.330000      1.5982794E-30
   3.340000      1.6514375E-30
   3.350000      1.7089854E-30
   3.360000      1.7716648E-30
   3.370000      1.8398905E-30
   3.380000      1.9136762E-30
   3.390000      1.9925754E-30
   3.400000      2.0756477E-30
   3.410000      2.1614522E-30
   3.420000      2.2480703E-30
   3.430000      2.3331609E-30
   3.440000      2.4140449E-30
   3.450000      2.4878159E-30
   3.460000      2.5514742E-30
   3.470000      2.6020745E-30
   3.480000      2.6368795E-30
   3.490000      2.6535119E-30
   3.500000      2.6500913E-30
   3.510000      2.6253481E-30
   3.520000      2.5787047E-30
   3.530000      2.5103165E-30
   3.540000      2.4210647E-30
   3.550000      2.3124998E-30
   3.560000      2.1867355E-30
   3.570000      2.0462942E-30
   3.580000      1.8939110E-30
   3.590000      1.7323070E-30
   3.600000      1.5639443E-30
   3.610000      1.3907733E-30
   3.620000      1.2139938E-30
   3.630000      1.0338448E-30
   3.640000      8.4943582E-31
   3.650000      6.5863790E-31
   3.660000      4.5804609E-31
   3.670000      2.4302088E-31
   3.680000      7.8106067E-33
   3.690000     -2.5424335E-31
   3.700000     -5.5042659E-31
   3.710000     -8.8831121E-31
   3.720000     -1.2753683E-30
   3.730000     -1.7185539E-30
   3.740000     -2.2238995E-30
   3.750000     -2.7961270E-30
   3.760000     -3.4383161E-30
   3.770000     -4.1516519E-30
   3.780000     -4.9352715E-30
   3.790000     -5.7862308E-30
   3.800000     -6.6996001E-30
   3.810000     -7.6686874E-30
   3.820000     -8.6853949E-30
   3.830000     -9.7406833E-30
   3.840000     -1.0825133E-29
   3.850000     -1.1929559E-29
   3.860000     -1.3045663E-29
   3.870000     -1.4166650E-29
   3.880000     -1.5287815E-29
   3.890000     -1.6406999E-29
   3.900000     -1.7524927E-29
   3.910000     -1.8645367E-29
   3.920000     -1.9775085E-29
   3.930000     -2.0923605E-29
   3.940000     -2.2102748E-29
   3.950000     -2.3325974E-29
   3.960000     -2.4607547E-29
   3.970000     -2.5961584E-29
   3.980000     -2.7401015E-29
   3.990000     -2.8936517E-29
   4.000000     -3.0575498E-29
   4.010000     -3.2321209E-29
   4.020000     -3.4172007E-29
   4.030000     -3.6120879E-29
   4.040000     -3.8155254E-29
   4.050000     -4.0257121E-29
   4.060000     -4.2403494E-29
   4.070000     -4.4567196E-29
   4.080000     -4.6717954E-29
   4.090000     -4.8823738E-29
   4.100000     -5.0852284E-29
   4.110000     -5.2772731E-29
   4.120000     -5.4557220E-29
   4.130000     -5.6182434E-29
   4.140000     -5.7630866E-29
   4.150000     -5.8891838E-29
   4.160000     -5.9962053E-29
   4.170000     -6.0845736E-29
   4.180000     -6.1554214E-29
   4.190000     -6.2104999E-29
   4.200000     -6.2520350E-29
   4.210000     -6.2825430E-29
   4.220000     -6.3046009E-29
   4.230000     -6.3206036E-29
   4.240000     -6.3325016E-29
   4.250000     -6.3415529E-29
   4.260000     -6.3480878E-29
   4.270000     -6.3513239E-29
   4.280000     -6.3492241E-29
   4.290000     -6.3384310E-29
   4.300000     -6.3142751E-29
   4.310000     -6.2708598E-29
   4.320000     -6.2012350E-29
   4.330000     -6.0976435E-29
   4.340000     -5.9518367E-29
   4.350000     -5.7554388E-29
   4.360000     -5.5003446E-29
   4.370000     -5.1791278E-29
   4.380000     -4.7854273E-29
   4.390000     -4.3142970E-29
   4.400000     -3.7624826E-29
   4.410000     -3.1286145E-29
   4.420000     -2.4132865E-29
   4.430000     -1.6190140E-29
   4.440000     -7.5007087E-30
   4.450000      1.8780143E-30
   4.460000      1.1877989E-29
   4.470000      2.2425519E-29
   4.480000      3.3446975E-29
   4.490000      4.4874845E-29
   4.500000      5.6653715E-29
   4.510000      6.8745985E-29
   4.520000      8.1136732E-29
   4.530000      9.3837325E-29
   4.540000      1.0688766E-28
   4.550000      1.2035662E-28
   4.560000      1.3434057E-28
   4.570000      1.4895986E-28
   4.580000      1.6435358E-28
   4.590000      1.8067255E-28
   4.600000      1.9807089E-28
   4.610000      2.1669680E-28
   4.620000      2.3668280E-28
   4.630000      2.5813627E-28
   4.640000      2.8113062E-28
   4.650000      3.0569805E-28
   4.660000      3.3182398E-28
   4.670000      3.5944435E-28
   4.680000      3.8844500E-28
   4.690000      4.1866477E-28
   4.700000      4.4990089E-28
   4.710000      4.8191760E-28
   4.720000      5.1445701E-28
   4.730000      5.4725174E-28
   4.740000      5.8003897E-28
   4.750000      6.1257462E-28
   4.760000      6.4464708E-28
   4.770000      6.7608938E-28
   4.780000      7.0678899E-28
   4.790000      7.3669440E-28
   4.800000      7.6581797E-28
   4.810000      7.9423435E-28
   4.820000      8.2207424E-28
   4.830000      8.4951431E-28
   4.840000      8.7676227E-28
   4.850000      9.0403893E-28
   4.860000      9.3155797E-28
   4.870000      9.5950379E-28
   4.880000      9.8800967E-28
   4.890000      1.0171370E-27
   4.900000      1.0468575E-27
   4.910000      1.0770394E-27
   4.920000      1.1074382E-27
   4.930000      1.1376943E-27
   4.940000      1.1673372E-27
   4.950000      1.1957958E-27
   4.960000      1.2224164E-27
   4.970000      1.2464855E-27
   4.980000      1.2672585E-27
   4.990000      1.2839905E-27
   5.000000      1.2959696E-27
   5.010000      1.3025496E-27
   5.020000      1.3031795E-27
   5.030000      1.2974299E-27
   5.040000      1.2850106E-27
   5.050000      1.2657826E-27
   5.060000      1.2397582E-27
   5.070000      1.2070930E-27
   5.080000      1.1680670E-27
   5.090000      1.1230565E-27
   5.100000      1.0724972E-27
   5.110000      1.0168415E-27
   5.120000      9.5651099E-28
   5.130000      8.9184828E-28
   5.140000      8.2307004E-28
   5.150000      7.5022535E-28
   5.160000      6.7316167E-28
   5.170000      5.9150123E-28
   5.180000      5.0463082E-28
   5.190000      4.1170595E-28
   5.200000      3.1166997E-28
   5.210000      2.0328843E-28
   5.220000      8.5196400E-29
   5.230000     -4.4040767E-29
   5.240000     -1.8585946E-28
   5.250000     -3.4162439E-28
   5.260000     -5.1255428E-28
   5.270000     -6.9965048E-28
   5.280000     -9.0363564E-28
   5.290000     -1.1249040E-27
   5.300000     -1.3634896E-27
   5.310000     -1.6190530E-27
   5.320000     -1.8908903E-27
   5.330000     -2.1779629E-27
   5.340000     -2.4789524E-27
   5.350000     -2.7923317E-27
   5.360000     -3.1164528E-27
   5.370000     -3.4496471E-27
   5.380000     -3.7903291E-27
   5.390000     -4.1371021E-27
   5.400000     -4.4888520E-27
   5.410000     -4.8448305E-27
   5.420000     -5.2047140E-27
   5.430000     -5.5686412E-27
   5.440000     -5.9372137E-27
   5.450000     -6.3114700E-27
   5.460000     -6.6928238E-27
   5.470000     -7.0829733E-27
   5.480000     -7.4837778E-27
   5.490000     -7.8971209E-27
   5.500000     -8.3247551E-27
   5.510000     -8.7681373E-27
   5.520000     -9.2282759E-27
   5.530000     -9.7055899E-27
   5.540000     -1.0199789E-26
   5.550000     -1.0709789E-26
   5.560000     -1.1233672E-26
   5.570000     -1.1768680E-26
   5.580000     -1.2311271E-26
   5.590000     -1.2857209E-26
   5.600000     -1.3401713E-26
   5.610000     -1.3939627E-26
   5.620000     -1.4465631E-26
   5.630000     -1.4974469E-26
   5.640000     -1.5461175E-26
   5.650000     -1.5921284E-26
   5.660000     -1.6351037E-26
   5.670000     -1.6747531E-26
   5.680000     -1.7108811E-26
   5.690000     -1.7433929E-26
   5.700000     -1.7722914E-26
   5.710000     -1.7976672E-26
   5.720000     -1.8196826E-26
   5.730000     -1.8385500E-26
   5.740000     -1.8545037E-26
   5.750000     -1.8677690E-26
   5.760000     -1.8785299E-26
   5.770000     -1.8868954E-26
   5.780000     -1.8928691E-26
   5.790000     -1.8963233E-26
   5.800000     -1.8969789E-26
   5.810000     -1.8943926E-26
   5.820000     -1.8879543E-26
   5.830000     -1.8768942E-26
   5.840000     -1.8602998E-26
   5.850000     -1.8371426E-26
   5.860000     -1.8063129E-26
   5.870000     -1.7666632E-26
   5.880000     -1.7170545E-26
   5.890000     -1.6564041E-26
   5.900000     -1.5837358E-26
   5.910000     -1.4982220E-26
   5.920000     -1.3992225E-26
   5.930000     -1.2863102E-26
   5.940000     -1.1592886E-26
   5.950000     -1.0181938E-26
   5.960000     -8.6328084E-27
   5.970000     -6.9499871E-27
   5.980000     -5.1395101E-27
   5.990000     -3.2084398E-27
   6.000000     -1.1642584E-27
   6.010000      9.8577549E-28
   6.020000      3.2353031E-27
   6.030000      5.5795142E-27
   6.040000      8.0157251E-27
   6.050000      1.0543830E-26
   6.060000      1.3166622E-26
   6.070000      1.5889925E-26
   6.080000      1.8722530E-26
   6.090000      2.1675927E-26
   6.100000      2.4763828E-26
   6.110000      2.8001502E-26
   6.120000      3.1404966E-26
   6.130000      3.4990052E-26
   6.140000      3.8771398E-26
   6.150000      4.2761456E-26
   6.160000      4.6969549E-26
   6.170000      5.1401015E-26
   6.180000      5.6056573E-26
   6.190000      6.0931881E-26
   6.200000      6.6017353E-26
   6.210000      7.1298302E-26
   6.220000      7.6755346E-26
   6.230000      8.2365053E-26
   6.240000      8.8100960E-26
   6.250000      9.3934654E-26
   6.260000      9.9837133E-26
   6.270000      1.0578013E-25
   6.280000      1.1173749E-25
   6.290000      1.1768636E-25
   6.300000      1.2360834E-25
   6.310000      1.2949016E-25
   6.320000      1.3532426E-25
   6.330000      1.4110873E-25
   6.340000      1.4684710E-25
   6.350000      1.5254751E-25
   6.360000      1.5822159E-25
   6.370000      1.6388298E-25
   6.380000      1.6954560E-25
   6.390000      1.7522170E-25
   6.400000      1.8091990E-25
   6.410000      1.8664325E-25
   6.420000      1.9238752E-25
   6.430000      1.9813972E-25
   6.440000      2.0387711E-25
   6.450000      2.0956664E-25
   6.460000      2.1516504E-25
   6.470000      2.2061930E-25
   6.480000      2.2586801E-25
   6.490000      2.3084299E-25
   6.500000      2.3547148E-25
   6.510000      2.3967875E-25
   6.520000      2.4339076E-25
   6.530000      2.4653698E-25
   6.540000      2.4905303E-25
   6.550000      2.5088306E-25
   6.560000      2.5198162E-25
   6.570000      2.5231504E-25
   6.580000      2.5186184E-25
   6.590000      2.5061280E-25
   6.600000      2.4856965E-25
   6.610000      2.4574348E-25
   6.620000      2.4215205E-25
   6.630000      2.3781679E-25
   6.640000      2.3275918E-25
   6.650000      2.2699697E-25
   6.660000      2.2054056E-25
   6.670000      2.1338932E-25
   6.680000      2.0552880E-25
   6.690000      1.9692827E-25
   6.700000      1.8753939E-25
   6.710000      1.7729588E-25
   6.720000      1.6611427E-25
   6.730000      1.5389585E-25
   6.740000      1.4052973E-25
   6.750000      1.2589670E-25
   6.760000      1.0987414E-25
   6.770000      9.2341321E-26
   6.780000      7.3184833E-26
   6.790000      5.2304005E-26
   6.800000      2.9615986E-26
   6.810000      5.0599792E-27
   6.820000     -2.1399639E-26
   6.830000     -4.9771438E-26
   6.840000     -8.0036453E-26
   6.850000     -1.1214931E-25
   6.860000     -1.4604112E-25
   6.870000     -1.8162358E-25
   6.880000     -2.1879434E-25
   6.890000     -2.5744352E-25
   6.900000     -2.9746084E-25
   6.910000     -3.3874269E-25
   6.920000     -3.8119918E-25
   6.930000     -4.2476038E-25
   6.940000     -4.6938111E-25
   6.950000     -5.1504487E-25
   6.960000     -5.6176511E-25
   6.970000     -6.0958482E-25
   6.980000     -6.5857392E-25
   6.990000     -7.0882421E-25
   7.000000     -7.6044283E-25
   7.010000     -8.1354367E-25
   7.020000     -8.6823786E-25
   7.030000     -9.2462337E-25
   7.040000     -9.8277426E-25
   7.050000     -1.0427312E-24
   7.060000     -1.1044928E-24