  -2.600000      0.0000000E+00
  -2.590000      0.0000000E+00
  -2.580000      0.0000000E+00
  -2.570000      0.0000000E+00
  -2.560000      0.0000000E+00
  -2.550000      0.0000000E+00
  -2.540000      0.0000000E+00
  -2.530000      0.0000000E+00
  -2.520000      0.0000000E+00
  -2.510000      0.0000000E+00
  -2.500000      0.0000000E+00
  -2.490000      0.0000000E+00
  -2.480000      0.0000000E+00
  -2.470000      0.0000000E+00
  -2.460000      0.0000000E+00
  -2.450000      0.0000000E+00
  -2.440000      0.0000000E+00
  -2.430000      0.0000000E+00
  -2.420000      0.0000000E+00
  -2.410000      0.0000000E+00
  -2.400000      0.0000000E+00
  -2.390000      0.0000000E+00
  -2.380000      0.0000000E+00
  -2.370000      0.0000000E+00
  -2.360000      0.0000000E+00
  -2.350000      0.0000000E+00
  -2.340000      0.0000000E+00
  -2.330000      0.0000000E+00
  -2.320000      0.0000000E+00
  -2.310000      0.0000000E+00
  -2.300000      0.0000000E+00
  -2.290000      0.0000000E+00
  -2.280000      0.0000000E+00
  -2.270000      0.0000000E+00
  -2.260000      0.0000000E+00
  -2.250000      0.0000000E+00
  -2.240000      0.0000000E+00
  -2.230000      0.0000000E+00
  -2.220000      0.0000000E+00
  -2.210000      0.0000000E+00
  -2.200000      0.0000000E+00
  -2.190000      0.0000000E+00
  -2.180000      0.0000000E+00
  -2.170000      0.0000000E+00
  -2.160000      0.0000000E+00
  -2.150000      0.0000000E+00
  -2.140000      0.0000000E+00
  -2.130000      0.0000000E+00
  -2.120000      0.0000000E+00
  -2.110000      0.0000000E+00
  -2.100000      0.0000000E+00
  -2.090000      0.0000000E+00
  -2.080000      0.0000000E+00
  -2.070000      0.0000000E+00
  -2.060000      0.0000000E+00
  -2.050000      0.0000000E+00
  -2.040000      0.0000000E+00
  -2.030000      0.0000000E+00
  -2.020000      0.0000000E+00
  -2.010000      0.0000000E+00
  -2.000000      0.0000000E+00
  -1.990000      0.0000000E+00
  -1.980000      0.0000000E+00
  -1.970000      0.0000000E+00
  -1.960000      0.0000000E+00
  -1.950000      0.0000000E+00
  -1.940000      0.0000000E+00
  -1.930000      0.0000000E+00
  -1.920000      0.0000000E+00
  -1.910000      0.0000000E+00
  -1.900000      0.0000000E+00
  -1.890000      0.0000000E+00
  -1.880000      0.0000000E+00
  -1.870000      0.0000000E+00
  -1.860000      0.0000000E+00
  -1.850000      0.0000000E+00
  -1.840000      0.0000000E+00
  -1.830000      0.0000000E+00
  -1.820000      0.0000000E+00
  -1.810000      0.0000000E+00
  -1.800000      0.0000000E+00
  -1.790000      0.0000000E+00
  -1.780000      0.0000000E+00
  -1.770000      0.0000000E+00
  -1.760000      0.0000000E+00
  -1.750000      0.0000000E+00
  -1.740000      0.0000000E+00
  -1.730000      0.0000000E+00
  -1.720000      0.0000000E+00
  -1.710000      0.0000000E+00
  -1.700000      0.0000000E+00
  -1.690000      0.0000000E+00
  -1.680000      0.0000000E+00
  -1.670000      0.0000000E+00
  -1.660000      0.0000000E+00
  -1.650000      0.0000000E+00
  -1.640000      0.0000000E+00
  -1.630000      0.0000000E+00
  -1.620000      0.0000000E+00
  -1.610000      0.0000000E+00
  -1.600000      0.0000000E+00
  -1.590000      0.0000000E+00
  -1.580000      0.0000000E+00
  -1.570000      0.0000000E+00
  -1.560000      0.0000000E+00
  -1.550000      0.0000000E+00
  -1.540000      0.0000000E+00
  -1.530000      0.0000000E+00
  -1.520000      0.0000000E+00
  -1.510000      0.0000000E+00
  -1.500000      0.0000000E+00
  -1.490000      0.0000000E+00
  -1.480000      0.0000000E+00
  -1.470000      0.0000000E+00
  -1.460000      0.0000000E+00
  -1.450000      0.0000000E+00
  -1.440000      0.0000000E+00
  -1.430000      0.0000000E+00
  -1.420000      0.0000000E+00
  -1.410000      0.0000000E+00
  -1.400000      0.0000000E+00
  -1.390000      0.0000000E+00
  -1.380000      0.0000000E+00
  -1.370000      0.0000000E+00
  -1.360000      0.0000000E+00
  -1.350000      0.0000000E+00
  -1.340000      0.0000000E+00
  -1.330000      0.0000000E+00
  -1.320000      0.0000000E+00
  -1.310000      0.0000000E+00
  -1.300000      0.0000000E+00
  -1.290000      0.0000000E+00
  -1.280000      0.0000000E+00
  -1.270000      0.0000000E+00
  -1.260000      0.0000000E+00
  -1.250000      0.0000000E+00
  -1.240000      0.0000000E+00
  -1.230000      0.0000000E+00
  -1.220000      0.0000000E+00
  -1.210000      0.0000000E+00
  -1.200000      0.0000000E+00
  -1.190000      0.0000000E+00
  -1.180000      0.0000000E+00
  -1.170000      0.0000000E+00
  -1.160000      0.0000000E+00
  -1.150000      0.0000000E+00
  -1.140000      0.0000000E+00
  -1.130000      0.0000000E+00
  -1.120000      0.0000000E+00
  -1.110000      0.0000000E+00
  -1.100000      0.0000000E+00
  -1.090000      0.0000000E+00
  -1.080000      0.0000000E+00
  -1.070000      0.0000000E+00
  -1.060000      0.0000000E+00
  -1.050000      0.0000000E+00
  -1.040000      0.0000000E+00
  -1.030000      0.0000000E+00
  -1.020000      0.0000000E+00
  -1.010000      0.0000000E+00
  -1.000000      0.0000000E+00
 -0.9900000      0.0000000E+00
 -0.9800000      0.0000000E+00
 -0.9700000      0.0000000E+00
 -0.9600000      0.0000000E+00
 -0.9500000      0.0000000E+00
 -0.9400000      0.0000000E+00
 -0.9300000      0.0000000E+00
 -0.9200000      0.0000000E+00
 -0.9100000      0.0000000E+00
 -0.9000000      0.0000000E+00
 -0.8900000      0.0000000E+00
 -0.8800000      0.0000000E+00
 -0.8700000      0.0000000E+00
 -0.8600000      0.0000000E+00
 -0.8500000      0.0000000E+00
 -0.8400000      0.0000000E+00
 -0.8300000      0.0000000E+00
 -0.8200000      0.0000000E+00
 -0.8100000      0.0000000E+00
 -0.8000000      0.0000000E+00
 -0.7900000      0.0000000E+00
 -0.7800000      0.0000000E+00
 -0.7700000      0.0000000E+00
 -0.7600000      0.0000000E+00
 -0.7500000      0.0000000E+00
 -0.7400000      0.0000000E+00
 -0.7300000      0.0000000E+00
 -0.7200000      0.0000000E+00
 -0.7100000      0.0000000E+00
 -0.7000000      0.0000000E+00
 -0.6900000      0.0000000E+00
 -0.6800000      0.0000000E+00
 -0.6700000      0.0000000E+00
 -0.6600000      0.0000000E+00
 -0.6500000      0.0000000E+00
 -0.6400000      0.0000000E+00
 -0.6300000      0.0000000E+00
 -0.6200000      0.0000000E+00
 -0.6100000      0.0000000E+00
 -0.6000000      0.0000000E+00
 -0.5900000      0.0000000E+00
 -0.5800000      0.0000000E+00
 -0.5700000      0.0000000E+00
 -0.5600000      0.0000000E+00
 -0.5500000      0.0000000E+00
 -0.5400000      0.0000000E+00
 -0.5300000      0.0000000E+00
 -0.5200000      0.0000000E+00
 -0.5100000      0.0000000E+00
 -0.5000000      0.0000000E+00
 -0.4900000      0.0000000E+00
 -0.4800000      0.0000000E+00
 -0.4700000      0.0000000E+00
 -0.4600000      0.0000000E+00
 -0.4500000      0.0000000E+00
 -0.4400000      0.0000000E+00
 -0.4300000      0.0000000E+00
 -0.4200000      0.0000000E+00
 -0.4100000      0.0000000E+00
 -0.4000000      0.0000000E+00
 -0.3900000      0.0000000E+00
 -0.3800000      0.0000000E+00
 -0.3700000      0.0000000E+00
 -0.3600000      0.0000000E+00
 -0.3500000      0.0000000E+00
 -0.3400000      0.0000000E+00
 -0.3300000      0.0000000E+00
 -0.3200000      0.0000000E+00
 -0.3100000      0.0000000E+00
 -0.3000000      0.0000000E+00
 -0.2900000      0.0000000E+00
 -0.2800000      0.0000000E+00
 -0.2700000      0.0000000E+00
 -0.2600000      0.0000000E+00
 -0.2500000      0.0000000E+00
 -0.2400000      0.0000000E+00
 -0.2300000      0.0000000E+00
 -0.2200000      0.0000000E+00
 -0.2100000      0.0000000E+00
 -0.2000000      0.0000000E+00
 -0.1900000      0.0000000E+00
 -0.1800000      0.0000000E+00
 -0.1700000      0.0000000E+00
 -0.1600000      0.0000000E+00
 -0.1500000      0.0000000E+00
 -0.1400000      0.0000000E+00
 -0.1300000      0.0000000E+00
 -0.1200000      0.0000000E+00
 -0.1100000      0.0000000E+00
 -0.1000000      0.0000000E+00
 -9.0000004E-02  0.0000000E+00
 -7.9999998E-02  0.0000000E+00
 -7.0000000E-02  0.0000000E+00
 -5.9999999E-02  0.0000000E+00
 -5.0000001E-02  0.0000000E+00
 -3.9999999E-02  0.0000000E+00
 -2.9999999E-02  0.0000000E+00
 -2.0000000E-02  0.0000000E+00
 -9.9999998E-03  0.0000000E+00
 -3.4694470E-17  0.0000000E+00
  9.9999998E-03  0.0000000E+00
  2.0000000E-02  0.0000000E+00
  2.9999999E-02  0.0000000E+00
  3.9999999E-02  1.2573302E-38
  5.0000001E-02  1.4161131E-38
  5.9999999E-02  1.4775260E-38
  7.0000000E-02  1.5118611E-38
  7.9999998E-02  1.7311966E-38
  9.0000004E-02  2.1229529E-38
  0.1000000      2.5844910E-38
  0.1100000      3.0906187E-38
  0.1200000      3.7411255E-38
  0.1300000      4.5309876E-38
  0.1400000      5.3963970E-38
  0.1500000      6.3570931E-38
  0.1600000      7.3096683E-38
  0.1700000      8.2582268E-38
  0.1800000      9.3916295E-38
  0.1900000      1.0784625E-37
  0.2000000      1.2322309E-37
  0.2100000      1.3949153E-37
  0.2200000      1.5689330E-37
  0.2300000      1.7740915E-37
  0.2400000      2.0105884E-37
  0.2500000      2.2570696E-37
  0.2600000      2.5146169E-37
  0.2700000      2.7848336E-37
  0.2800000      3.0652749E-37
  0.2900000      3.3464386E-37
  0.3000000      3.6183109E-37
  0.3100000      3.8385475E-37
  0.3200000      4.0352889E-37
  0.3300000      4.2475522E-37
  0.3400000      4.4449770E-37
  0.3500000      5.0005898E-37
  0.3600000      5.8825290E-37
  0.3700000      6.6903863E-37
  0.3800000      7.0802513E-37
  0.3900000      7.1398264E-37
  0.4000000      7.2987023E-37
  0.4100000      7.5168555E-37
  0.4200000      7.7427448E-37
  0.4300000      7.7585802E-37
  0.4400000      7.5729272E-37
  0.4500000      7.2102568E-37
  0.4600000      5.9802728E-37
  0.4700000      4.0284604E-37
  0.4800000      2.0453442E-37
  0.4900000      1.6261522E-38
  0.5000000     -1.6180793E-37
  0.5100000     -3.5002180E-37
  0.5200000     -5.5475137E-37
  0.5300000     -7.2576507E-37
  0.5400000     -8.7532528E-37
  0.5500000     -1.0507606E-36
  0.5600000     -1.2273341E-36
  0.5700000     -1.4107849E-36
  0.5800000     -1.6161713E-36
  0.5900000     -1.8411639E-36
  0.6000000     -2.1060475E-36
  0.6100000     -2.4261415E-36
  0.6200000     -2.7884752E-36
  0.6300000     -3.1309677E-36
  0.6400000     -3.4468301E-36
  0.6500000     -3.8409931E-36
  0.6600000     -4.3214577E-36
  0.6700000     -4.8466176E-36
  0.6800000     -5.4111541E-36
  0.6900000     -6.0293626E-36
  0.7000000     -6.5810285E-36
  0.7100000     -7.0314508E-36
  0.7200000     -7.5110229E-36
  0.7300000     -8.1232672E-36
  0.7400000     -8.8200604E-36
  0.7500000     -9.4816146E-36
  0.7600000     -1.0018007E-35
  0.7700000     -1.0695305E-35
  0.7800000     -1.1153101E-35
  0.7900000     -1.1156982E-35
  0.8000000     -1.1405057E-35
  0.8100000     -1.1877393E-35
  0.8200000     -1.2358337E-35
  0.8300000     -1.3113077E-35
  0.8400000     -1.4370763E-35
  0.8500000     -1.6107127E-35
  0.8600000     -1.7720477E-35
  0.8700000     -1.8623471E-35
  0.8800000     -1.9147388E-35
  0.8900000     -1.9630901E-35
  0.9000000     -1.9734817E-35
  0.9100000     -1.9336759E-35
  0.9200000     -1.8686410E-35
  0.9300000     -1.7646577E-35
  0.9400000     -1.6206785E-35
  0.9500000     -1.4313647E-35
  0.9600000     -1.2269099E-35
  0.9700000     -1.0241455E-35
  0.9800000     -7.8945875E-36
  0.9900000     -5.3096052E-36
   1.000000     -2.5099529E-36
   1.010000      2.1301656E-37
   1.020000      2.7553494E-36
   1.030000      5.3143860E-36
   1.040000      8.1787366E-36
   1.050000      1.1448605E-35
   1.060000      1.4802184E-35
   1.070000      1.8128697E-35
   1.080000      2.1541263E-35
   1.090000      2.5098710E-35
   1.100000      2.8659990E-35
   1.110000      3.2304008E-35
   1.120000      3.5794147E-35
   1.130000      3.9060185E-35
   1.140000      4.1311004E-35
   1.150000      4.1988828E-35
   1.160000      3.8683688E-35
   1.170000      3.1990037E-35
   1.180000      2.6049236E-35
   1.190000      2.4972304E-35
   1.200000      2.8517926E-35
   1.210000      3.2951646E-35
   1.220000      3.8580026E-35
   1.230000      4.5477770E-35
   1.240000      5.3442886E-35
   1.250000      6.2441749E-35
   1.260000      7.2330532E-35
   1.270000      8.2634004E-35
   1.280000      9.2791079E-35
   1.290000      1.0199355E-34
   1.300000      1.1064853E-34
   1.310000      1.1900735E-34
   1.320000      1.2644492E-34
   1.330000      1.3277711E-34
   1.340000      1.3773112E-34
   1.350000      1.4413285E-34
   1.360000      1.5608153E-34
   1.370000      1.7137288E-34
   1.380000      1.8654819E-34
   1.390000      2.0143701E-34
   1.400000      2.1541549E-34
   1.410000      2.2436146E-34
   1.420000      2.2278029E-34
   1.430000      2.1556128E-34
   1.440000      2.0493656E-34
   1.450000      1.8915783E-34
   1.460000      1.7193344E-34
   1.470000      1.5327895E-34
   1.480000      1.3392525E-34
   1.490000      1.1762663E-34
   1.500000      1.0448457E-34
   1.510000      9.2914667E-35
   1.520000      8.3493820E-35
   1.530000      7.9174894E-35
   1.540000      7.8173319E-35
   1.550000      7.5282280E-35
   1.560000      7.5355174E-35
   1.570000      7.7735332E-35
   1.580000      7.5864207E-35
   1.590000      7.6124676E-35
   1.600000      8.2379740E-35
   1.610000      8.7054621E-35
   1.620000      8.6292105E-35
   1.630000      8.2719451E-35
   1.640000      7.7524157E-35
   1.650000      7.0157475E-35
   1.660000      5.4005677E-35
   1.670000      3.1801746E-35
   1.680000      1.4612688E-35
   1.690000     -4.8890320E-36
   1.700000     -2.5390405E-35
   1.710000     -3.4593559E-35
   1.720000     -3.1633359E-35
   1.730000     -1.7013763E-35
   1.740000      9.9308100E-36
   1.750000      5.1510283E-35
   1.760000      1.0809802E-34
   1.770000      1.7446947E-34
   1.780000      2.4628489E-34
   1.790000      3.2032097E-34
   1.800000      3.9247419E-34
   1.810000      4.5591163E-34
   1.820000      5.0450817E-34
   1.830000      5.4273350E-34
   1.840000      5.7329208E-34
   1.850000      5.9354388E-34
   1.860000      6.0465032E-34
   1.870000      6.1077750E-34
   1.880000      6.1463023E-34
   1.890000      6.1857699E-34
   1.900000      6.2115344E-34
   1.910000      6.2623006E-34
   1.920000      6.4555785E-34
   1.930000      6.8605942E-34
   1.940000      7.5659509E-34
   1.950000      8.6084500E-34
   1.960000      1.0084043E-33
   1.970000      1.1969563E-33
   1.980000      1.4165308E-33
   1.990000      1.6724616E-33
   2.000000      1.9633004E-33
   2.010000      2.2817490E-33
   2.020000      2.6178628E-33
   2.030000      2.9594080E-33
   2.040000      3.2950323E-33
   2.050000      3.6144486E-33
   2.060000      3.9050135E-33
   2.070000      4.1484599E-33
   2.080000      4.3309352E-33
   2.090000      4.4471975E-33
   2.100000      4.4924158E-33
   2.110000      4.4682377E-33
   2.120000      4.3750820E-33
   2.130000      4.2143140E-33
   2.140000      4.0012869E-33
   2.150000      3.7530320E-33
   2.160000      3.4851354E-33
   2.170000      3.2192617E-33
   2.180000      2.9765616E-33
   2.190000      2.7731346E-33
   2.200000      2.6266662E-33
   2.210000      2.5512538E-33
   2.220000      2.5549768E-33
   2.230000      2.6368570E-33
   2.240000      2.7876817E-33
   2.250000      2.9922866E-33
   2.260000      3.2242102E-33
   2.270000      3.4491579E-33
   2.280000      3.6264295E-33
   2.290000      3.7099494E-33
   2.300000      3.6513426E-33
   2.310000      3.4016922E-33
   2.320000      2.9141140E-33
   2.330000      2.1473147E-33
   2.340000      1.0692669E-33
   2.350000     -3.4127248E-34
   2.360000     -2.0936985E-33
   2.370000     -4.1803477E-33
   2.380000     -6.5783750E-33
   2.390000     -9.2496197E-33
   2.400000     -1.2141303E-32
   2.410000     -1.5189922E-32
   2.420000     -1.8322852E-32
   2.430000     -2.1463512E-32
   2.440000     -2.4535886E-32
   2.450000     -2.7470404E-32
   2.460000     -3.0209097E-32
   2.470000     -3.2710443E-32
   2.480000     -3.4954350E-32
   2.490000     -3.6944715E-32
   2.500000     -3.8712905E-32
   2.510000     -4.0318278E-32
   2.520000     -4.1846059E-32
   2.530000     -4.3404650E-32
   2.540000     -4.5120775E-32
   2.550000     -4.7132395E-32
   2.560000     -4.9580271E-32
   2.570000     -5.2598946E-32
   2.580000     -5.6307796E-32
   2.590000     -6.0797038E-32
   2.600000     -6.6121610E-32
   2.610000     -7.2295677E-32
   2.620000     -7.9282539E-32
   2.630000     -8.6993224E-32
   2.640000     -9.5285760E-32
   2.650000     -1.0396833E-31
   2.660000     -1.1280575E-31
   2.670000     -1.2152942E-31
   2.680000     -1.2985007E-31
   2.690000     -1.3747297E-31
   2.700000     -1.4411509E-31
   2.710000     -1.4952247E-31
   2.720000     -1.5348721E-31
   2.730000     -1.5586311E-31
   2.740000     -1.5657868E-31
   2.750000     -1.5564495E-31
   2.760000     -1.5315997E-31
   2.770000     -1.4930819E-31
   2.780000     -1.4435161E-31
   2.790000     -1.3861630E-31
   2.800000     -1.3247322E-31
   2.810000     -1.2631378E-31
   2.820000     -1.2052170E-31
   2.830000     -1.1544173E-31
   2.840000     -1.1135088E-31
   2.850000     -1.0842750E-31
   2.860000     -1.0672372E-31
   2.870000     -1.0614713E-31
   2.880000     -1.0644733E-31
   2.890000     -1.0721201E-31
   2.900000     -1.0787312E-31
   2.910000     -1.0772383E-31
   2.920000     -1.0594580E-31
   2.930000     -1.0164627E-31
   2.940000     -9.3903197E-32
   2.950000     -8.1816558E-32
   2.960000     -6.4562452E-32
   2.970000     -4.1447267E-32
   2.980000     -1.1958189E-32
   2.990000      2.4193621E-32
   3.000000      6.7042081E-32
   3.010000      1.1634305E-31
   3.020000      1.7157503E-31
   3.030000      2.3195762E-31
   3.040000      2.9648090E-31
   3.050000      3.6395825E-31
   3.060000      4.3309397E-31
   3.070000      5.0256324E-31
   3.080000      5.7110133E-31
   3.090000      6.3759566E-31
   3.100000      7.0117603E-31
   3.110000      7.6129632E-31
   3.120000      8.1780120E-31
   3.130000      8.7097323E-31
   3.140000      9.2155334E-31
   3.150000      9.7073358E-31
   3.160000      1.0201183E-30
   3.170000      1.0716530E-30
   3.180000      1.1275252E-30
   3.190000      1.1900378E-30
   3.200000      1.2614634E-30
   3.210000      1.3438868E-30
   3.220000      1.4390433E-30
   3.230000      1.5481646E-30
   3.240000      1.6718432E-30
   3.250000      1.8099235E-30
   3.260000      1.9614316E-30
   3.270000      2.1245488E-30
   3.280000      2.2966376E-30
   3.290000      2.4743193E-30
   3.300000      2.6536053E-30
   3.310000      2.8300764E-30
   3.320000      2.9991032E-30
   3.330000      3.1560959E-30
   3.340000      3.2967700E-30
   3.350000      3.4174130E-30
   3.360000      3.5151314E-30
   3.370000      3.5880635E-30
   3.380000      3.6355403E-30
   3.390000      3.6581772E-30
   3.400000      3.6578871E-30
   3.410000      3.6378078E-30
   3.420000      3.6021386E-30
   3.430000      3.5558885E-30
   3.440000      3.5045500E-30
   3.450000      3.4537104E-30
   3.460000      3.4086143E-30
   3.470000      3.3737162E-30
   3.480000      3.3522360E-30
   3.490000      3.3457586E-30
   3.500000      3.3538998E-30
   3.510000      3.3740701E-30
   3.520000      3.4013548E-30
   3.530000      3.4285371E-30
   3.540000      3.4462658E-30
   3.550000      3.4433728E-30
   3.560000      3.4073297E-30
   3.570000      3.3248322E-30
   3.580000      3.1824759E-30
   3.590000      2.9674947E-30
   3.600000      2.6685132E-30
   3.610000      2.2762713E-30
   3.620000      1.7842671E-30
   3.630000      1.1892756E-30
   3.640000      4.9169161E-31
   3.650000     -3.0433041E-31
   3.660000     -1.1909704E-30
   3.670000     -2.1570842E-30
   3.680000     -3.1887833E-30
   3.690000     -4.2702403E-30
   3.700000     -5.3846835E-30
   3.710000     -6.5155293E-30
   3.720000     -7.6475910E-30
   3.730000     -8.7682888E-30
   3.740000     -9.8687863E-30
   3.750000     -1.0944968E-29
   3.760000     -1.1998178E-29
   3.770000     -1.3035664E-29
   3.780000     -1.4070664E-29
   3.790000     -1.5122101E-29
   3.800000     -1.6213863E-29
   3.810000     -1.7373712E-29
   3.820000     -1.8631825E-29
   3.830000     -2.0019058E-29
   3.840000     -2.1564996E-29
   3.850000     -2.3295925E-29
   3.860000     -2.5232842E-29
   3.870000     -2.7389610E-29
   3.880000     -2.9771422E-29
   3.890000     -3.2373676E-29
   3.900000     -3.5181353E-29
   3.910000     -3.8169025E-29
   3.920000     -4.1301474E-29
   3.930000     -4.4534981E-29
   3.940000     -4.7819225E-29
   3.950000     -5.1099724E-29
   3.960000     -5.4320698E-29
   3.970000     -5.7428228E-29
   3.980000     -6.0373456E-29
   3.990000     -6.3115679E-29
   4.000000     -6.5625154E-29
   4.010000     -6.7885329E-29
   4.020000     -6.9894339E-29
   4.030000     -7.1665671E-29
   4.040000     -7.3227805E-29
   4.050000     -7.4622792E-29
   4.060000     -7.5903842E-29
   4.070000     -7.7131917E-29
   4.080000     -7.8371530E-29
   4.090000     -7.9685887E-29
   4.100000     -8.1131737E-29
   4.110000     -8.2754170E-29
   4.120000     -8.4581679E-29
   4.130000     -8.6621877E-29
   4.140000     -8.8858171E-29
   4.150000     -9.1247684E-29
   4.160000     -9.3720602E-29
   4.170000     -9.6181212E-29
   4.180000     -9.8510582E-29
   4.190000     -1.0057087E-28
   4.200000     -1.0221115E-28
   4.210000     -1.0327441E-28
   4.220000     -1.0360546E-28
   4.230000     -1.0305924E-28
   4.240000     -1.0150903E-28
   4.250000     -9.8854024E-29
   4.260000     -9.5025817E-29
   4.270000     -8.9993205E-29
   4.280000     -8.3764904E-29
   4.290000     -7.6389863E-29
   4.300000     -6.7954976E-29
   4.310000     -5.8580150E-29
   4.320000     -4.8410834E-29
   4.330000     -3.7608380E-29
   4.340000     -2.6338609E-29
   4.350000     -1.4759199E-29
   4.360000     -3.0067246E-30
   4.370000      8.8159526E-30
   4.380000      2.0651077E-29
   4.390000      3.2495202E-29
   4.400000      4.4405697E-29
   4.410000      5.6503691E-29
   4.420000      6.8973106E-29
   4.430000      8.2055618E-29
   4.440000      9.6041312E-29
   4.450000      1.1125568E-28
   4.460000      1.2804306E-28
   4.470000      1.4674765E-28
   4.480000      1.6769313E-28
   4.490000      1.9116178E-28
   4.500000      2.1737483E-28
   4.510000      2.4647481E-28
   4.520000      2.7851183E-28
   4.530000      3.1343424E-28
   4.540000      3.5108521E-28
   4.550000      3.9120539E-28
   4.560000      4.3344209E-28
   4.570000      4.7736499E-28
   4.580000      5.2248727E-28
   4.590000      5.6829200E-28
   4.600000      6.1426187E-28
   4.610000      6.5991041E-28
   4.620000      7.0481342E-28
   4.630000      7.4863829E-28
   4.640000      7.9116875E-28
   4.650000      8.3232404E-28
   4.660000      8.7216980E-28
   4.670000      9.1091960E-28
   4.680000      9.4892764E-28
   4.690000      9.8667057E-28
   4.700000      1.0247194E-27
   4.710000      1.0637039E-27
   4.720000      1.1042688E-27
   4.730000      1.1470260E-27
   4.740000      1.1925053E-27
   4.750000      1.2411050E-27
   4.760000      1.2930476E-27
   4.770000      1.3483432E-27
   4.780000      1.4067618E-27
   4.790000      1.4678204E-27
   4.800000      1.5307819E-27
   4.810000      1.5946722E-27
   4.820000      1.6583106E-27
   4.830000      1.7203560E-27
   4.840000      1.7793646E-27
   4.850000      1.8338587E-27
   4.860000      1.8824012E-27
   4.870000      1.9236704E-27
   4.880000      1.9565337E-27
   4.890000      1.9801123E-27
   4.900000      1.9938344E-27
   4.910000      1.9974694E-27
   4.920000      1.9911448E-27
   4.930000      1.9753385E-27
   4.940000      1.9508480E-27
   4.950000      1.9187362E-27
   4.960000      1.8802561E-27
   4.970000      1.8367580E-27
   4.980000      1.7895812E-27
   4.990000      1.7399417E-27
   5.000000      1.6888164E-27
   5.010000      1.6368359E-27
   5.020000      1.5841915E-27
   5.030000      1.5305619E-27
   5.040000      1.4750695E-27
   5.050000      1.4162669E-27
   5.060000      1.3521599E-27
   5.070000      1.2802656E-27
   5.080000      1.1977065E-27
   5.090000      1.1013347E-27
   5.100000      9.8788371E-28
   5.110000      8.5413655E-28
   5.120000      6.9710214E-28
   5.130000      5.1419089E-28
   5.140000      3.0337663E-28
   5.150000      6.3333063E-29
   5.160000     -2.0646337E-28
   5.170000     -5.0567424E-28
   5.180000     -8.3308998E-28
   5.190000     -1.1866738E-27
   5.200000     -1.5636598E-27
   5.210000     -1.9607038E-27
   5.220000     -2.3740769E-27
   5.230000     -2.7998965E-27
   5.240000     -3.2343786E-27
   5.250000     -3.6740993E-27
   5.260000     -4.1162469E-27
   5.270000     -4.5588511E-27
   5.280000     -5.0009675E-27
   5.290000     -5.4428094E-27
   5.300000     -5.8858087E-27
   5.310000     -6.3326013E-27
   5.320000     -6.7869301E-27
   5.330000     -7.2534651E-27
   5.340000     -7.7375576E-27
   5.350000     -8.2449169E-27
   5.360000     -8.7812475E-27
   5.370000     -9.3518551E-27
   5.380000     -9.9612517E-27
   5.390000     -1.0612771E-26
   5.400000     -1.1308235E-26
   5.410000     -1.2047685E-26
   5.420000     -1.2829206E-26
   5.430000     -1.3648854E-26
   5.440000     -1.4500707E-26
   5.450000     -1.5377022E-26
   5.460000     -1.6268527E-26
   5.470000     -1.7164820E-26
   5.480000     -1.8054841E-26
   5.490000     -1.8927432E-26
   5.500000     -1.9771917E-26
   5.510000     -2.0578677E-26
   5.520000     -2.1339691E-26
   5.530000     -2.2049004E-26
   5.540000     -2.2703092E-26
   5.550000     -2.3301059E-26
   5.560000     -2.3844703E-26
   5.570000     -2.4338390E-26
   5.580000     -2.4788746E-26
   5.590000     -2.5204192E-26
   5.600000     -2.5594304E-26
   5.610000     -2.5969067E-26
   5.620000     -2.6338044E-26
   5.630000     -2.6709511E-26
   5.640000     -2.7089594E-26
   5.650000     -2.7481501E-26
   5.660000     -2.7884874E-26
   5.670000     -2.8295319E-26
   5.680000     -2.8704140E-26
   5.690000     -2.9098336E-26
   5.700000     -2.9460864E-26
   5.710000     -2.9771158E-26
   5.720000     -3.0005890E-26
   5.730000     -3.0139978E-26
   5.740000     -3.0147715E-26
   5.750000     -3.0004038E-26
   5.760000     -2.9685810E-26
   5.770000     -2.9173081E-26
   5.780000     -2.8450176E-26
   5.790000     -2.7506618E-26
   5.800000     -2.6337773E-26
   5.810000     -2.4945119E-26
   5.820000     -2.3336208E-26
   5.830000     -2.1524193E-26
   5.840000     -1.9527004E-26
   5.850000     -1.7366152E-26
   5.860000     -1.5065240E-26
   5.870000     -1.2648271E-26
   5.880000     -1.0137803E-26
   5.890000     -7.5531298E-27
   5.900000     -4.9085352E-27
   5.910000     -2.2117805E-27
   5.920000      5.3708529E-28
   5.930000      3.3464828E-27
   5.940000      6.2335446E-27
   5.950000      9.2238293E-27
   5.960000      1.2350430E-26
   5.970000      1.5652578E-26
   5.980000      1.9173728E-26
   5.990000      2.2959236E-26
   6.000000      2.7053757E-26
   6.010000      3.1498507E-26
   6.020000      3.6328539E-26
   6.030000      4.1570209E-26
   6.040000      4.7239028E-26
   6.050000      5.3338023E-26
   6.060000      5.9856750E-26
   6.070000      6.6771024E-26
   6.080000      7.4043551E-26
   6.090000      8.1625262E-26
   6.100000      8.9457511E-26
   6.110000      9.7474932E-26
   6.120000      1.0560880E-25
   6.130000      1.1379086E-25
   6.140000      1.2195713E-25
   6.150000      1.3005179E-25
   6.160000      1.3803054E-25
   6.170000      1.4586355E-25
   6.180000      1.5353740E-25
   6.190000      1.6105626E-25
   6.200000      1.6844178E-25
   6.210000      1.7573193E-25
   6.220000      1.8297855E-25
   6.230000      1.9024388E-25
   6.240000      1.9759614E-25
   6.250000      2.0510444E-25
   6.260000      2.1283317E-25
   6.270000      2.2083633E-25
   6.280000      2.2915214E-25
   6.290000      2.3779813E-25
   6.300000      2.4676735E-25
   6.310000      2.5602557E-25
   6.320000      2.6551027E-25
   6.330000      2.7513089E-25
   6.340000      2.8477117E-25
   6.350000      2.9429282E-25
   6.360000      3.0354091E-25
   6.370000      3.1235051E-25
   6.380000      3.2055410E-25
   6.390000      3.2798975E-25
   6.400000      3.3450915E-25
   6.410000      3.3998517E-25
   6.420000      3.4431856E-25
   6.430000      3.4744304E-25
   6.440000      3.4932871E-25
   6.450000      3.4998314E-25
   6.460000      3.4945027E-25
   6.470000      3.4780668E-25
   6.480000      3.4515566E-25
   6.490000      3.4161930E-25
   6.500000      3.3732871E-25
   6.510000      3.3241312E-25
   6.520000      3.2698861E-25
   6.530000      3.2114670E-25
   6.540000      3.1494414E-25
   6.550000      3.0839405E-25
   6.560000      3.0145937E-25
   6.570000      2.9404914E-25
   6.580000      2.8601789E-25
   6.590000      2.7716850E-25
   6.600000      2.6725846E-25
   6.610000      2.5600935E-25
   6.620000      2.4311924E-25
   6.630000      2.2827714E-25
   6.640000      2.1117915E-25
   6.650000      1.9154482E-25
   6.660000      1.6913334E-25
   6.670000      1.4375815E-25
   6.680000      1.1529891E-25
   6.690000      8.3710357E-26
   6.700000      4.9026932E-26
   6.710000      1.1362800E-26
   6.720000     -2.9092897E-26
   6.730000     -7.2085672E-26
   6.740000     -1.1730959E-25
   6.750000     -1.6442508E-25
   6.760000     -2.1307951E-25
   6.770000     -2.6292976E-25
   6.780000     -3.1366478E-25
   6.790000     -3.6502726E-25
   6.800000     -4.1683292E-25
   6.810000     -4.6898575E-25
   6.820000     -5.2148843E-25
   6.830000     -5.7444649E-25
   6.840000     -6.2806620E-25
   6.850000     -6.8264547E-25
   6.860000     -7.3855806E-25
   6.870000     -7.9623178E-25
   6.880000     -8.5612185E-25
   6.890000     -9.1868029E-25
   6.900000     -9.8432368E-25
   6.910000     -1.0534007E-24
   6.920000     -1.1261617E-24
   6.930000     -1.2027326E-24
   6.940000     -1.2830942E-24
   6.950000     -1.3670688E-24
   6.960000     -1.4543164E-24
   6.970000     -1.5443391E-24
   6.980000     -1.6364956E-24
   6.990000     -1.7300252E-24
   7.000000     -1.8240799E-24
   7.010000     -1.9177613E-24
   7.020000     -2.0101655E-24
   7.030000     -2.1004264E-24
   7.040000     -2.1877612E-24
   7.050000     -2.2715104E-24
   7.060000     -2.3511723E-24