  -2.600000      0.0000000E+00
  -2.590000      0.0000000E+00
  -2.580000      0.0000000E+00
  -2.570000      0.0000000E+00
  -2.560000      0.0000000E+00
  -2.550000      0.0000000E+00
  -2.540000      0.0000000E+00
  -2.530000      0.0000000E+00
  -2.520000      0.0000000E+00
  -2.510000      0.0000000E+00
  -2.500000      0.0000000E+00
  -2.490000      0.0000000E+00
  -2.480000      0.0000000E+00
  -2.470000      0.0000000E+00
  -2.460000      0.0000000E+00
  -2.450000      0.0000000E+00
  -2.440000      0.0000000E+00
  -2.430000      0.0000000E+00
  -2.420000      0.0000000E+00
  -2.410000      0.0000000E+00
  -2.400000      0.0000000E+00
  -2.390000      0.0000000E+00
  -2.380000      0.0000000E+00
  -2.370000      0.0000000E+00
  -2.360000      0.0000000E+00
  -2.350000      0.0000000E+00
  -2.340000      0.0000000E+00
  -2.330000      0.0000000E+00
  -2.320000      0.0000000E+00
  -2.310000      0.0000000E+00
  -2.300000      0.0000000E+00
  -2.290000      0.0000000E+00
  -2.280000      0.0000000E+00
  -2.270000      0.0000000E+00
  -2.260000      0.0000000E+00
  -2.250000      0.0000000E+00
  -2.240000      0.0000000E+00
  -2.230000      0.0000000E+00
  -2.220000      0.0000000E+00
  -2.210000      0.0000000E+00
  -2.200000      0.0000000E+00
  -2.190000      0.0000000E+00
  -2.180000      0.0000000E+00
  -2.170000      0.0000000E+00
  -2.160000      0.0000000E+00
  -2.150000      0.0000000E+00
  -2.140000      0.0000000E+00
  -2.130000      0.0000000E+00
  -2.120000      0.0000000E+00
  -2.110000      0.0000000E+00
  -2.100000      0.0000000E+00
  -2.090000      0.0000000E+00
  -2.080000      0.0000000E+00
  -2.070000      0.0000000E+00
  -2.060000      0.0000000E+00
  -2.050000      0.0000000E+00
  -2.040000      0.0000000E+00
  -2.030000      0.0000000E+00
  -2.020000      0.0000000E+00
  -2.010000      0.0000000E+00
  -2.000000      0.0000000E+00
  -1.990000      0.0000000E+00
  -1.980000      0.0000000E+00
  -1.970000      0.0000000E+00
  -1.960000      0.0000000E+00
  -1.950000      0.0000000E+00
  -1.940000      0.0000000E+00
  -1.930000      0.0000000E+00
  -1.920000      0.0000000E+00
  -1.910000      0.0000000E+00
  -1.900000      0.0000000E+00
  -1.890000      0.0000000E+00
  -1.880000      0.0000000E+00
  -1.870000      0.0000000E+00
  -1.860000      0.0000000E+00
  -1.850000      0.0000000E+00
  -1.840000      0.0000000E+00
  -1.830000      0.0000000E+00
  -1.820000      0.0000000E+00
  -1.810000      0.0000000E+00
  -1.800000      0.0000000E+00
  -1.790000      0.0000000E+00
  -1.780000      0.0000000E+00
  -1.770000      0.0000000E+00
  -1.760000      0.0000000E+00
  -1.750000      0.0000000E+00
  -1.740000      0.0000000E+00
  -1.730000      0.0000000E+00
  -1.720000      0.0000000E+00
  -1.710000      0.0000000E+00
  -1.700000      0.0000000E+00
  -1.690000      0.0000000E+00
  -1.680000      0.0000000E+00
  -1.670000      0.0000000E+00
  -1.660000      0.0000000E+00
  -1.650000      0.0000000E+00
  -1.640000      0.0000000E+00
  -1.630000      0.0000000E+00
  -1.620000      0.0000000E+00
  -1.610000      0.0000000E+00
  -1.600000      0.0000000E+00
  -1.590000      0.0000000E+00
  -1.580000      0.0000000E+00
  -1.570000      0.0000000E+00
  -1.560000      0.0000000E+00
  -1.550000      0.0000000E+00
  -1.540000      0.0000000E+00
  -1.530000      0.0000000E+00
  -1.520000      0.0000000E+00
  -1.510000      0.0000000E+00
  -1.500000      0.0000000E+00
  -1.490000      0.0000000E+00
  -1.480000      0.0000000E+00
  -1.470000      0.0000000E+00
  -1.460000      0.0000000E+00
  -1.450000      0.0000000E+00
  -1.440000      0.0000000E+00
  -1.430000      0.0000000E+00
  -1.420000      0.0000000E+00
  -1.410000      0.0000000E+00
  -1.400000      0.0000000E+00
  -1.390000      0.0000000E+00
  -1.380000      0.0000000E+00
  -1.370000      0.0000000E+00
  -1.360000      0.0000000E+00
  -1.350000      0.0000000E+00
  -1.340000      0.0000000E+00
  -1.330000      0.0000000E+00
  -1.320000      0.0000000E+00
  -1.310000      0.0000000E+00
  -1.300000      0.0000000E+00
  -1.290000      0.0000000E+00
  -1.280000      0.0000000E+00
  -1.270000      0.0000000E+00
  -1.260000      0.0000000E+00
  -1.250000      0.0000000E+00
  -1.240000      0.0000000E+00
  -1.230000      0.0000000E+00
  -1.220000      0.0000000E+00
  -1.210000      0.0000000E+00
  -1.200000      0.0000000E+00
  -1.190000      0.0000000E+00
  -1.180000      0.0000000E+00
  -1.170000      0.0000000E+00
  -1.160000      0.0000000E+00
  -1.150000      0.0000000E+00
  -1.140000      0.0000000E+00
  -1.130000      0.0000000E+00
  -1.120000      0.0000000E+00
  -1.110000      0.0000000E+00
  -1.100000      0.0000000E+00
  -1.090000      0.0000000E+00
  -1.080000      0.0000000E+00
  -1.070000      0.0000000E+00
  -1.060000      0.0000000E+00
  -1.050000      0.0000000E+00
  -1.040000      0.0000000E+00
  -1.030000      0.0000000E+00
  -1.020000      0.0000000E+00
  -1.010000      0.0000000E+00
  -1.000000      0.0000000E+00
 -0.9900000      0.0000000E+00
 -0.9800000      0.0000000E+00
 -0.9700000      0.0000000E+00
 -0.9600000      0.0000000E+00
 -0.9500000      0.0000000E+00
 -0.9400000      0.0000000E+00
 -0.9300000      0.0000000E+00
 -0.9200000      0.0000000E+00
 -0.9100000      0.0000000E+00
 -0.9000000      0.0000000E+00
 -0.8900000      0.0000000E+00
 -0.8800000      0.0000000E+00
 -0.8700000      0.0000000E+00
 -0.8600000      0.0000000E+00
 -0.8500000      0.0000000E+00
 -0.8400000      0.0000000E+00
 -0.8300000      0.0000000E+00
 -0.8200000      0.0000000E+00
 -0.8100000      0.0000000E+00
 -0.8000000      0.0000000E+00
 -0.7900000      0.0000000E+00
 -0.7800000      0.0000000E+00
 -0.7700000      0.0000000E+00
 -0.7600000      0.0000000E+00
 -0.7500000      0.0000000E+00
 -0.7400000      0.0000000E+00
 -0.7300000      0.0000000E+00
 -0.7200000      0.0000000E+00
 -0.7100000      0.0000000E+00
 -0.7000000      0.0000000E+00
 -0.6900000      0.0000000E+00
 -0.6800000      0.0000000E+00
 -0.6700000      0.0000000E+00
 -0.6600000      0.0000000E+00
 -0.6500000      0.0000000E+00
 -0.6400000      0.0000000E+00
 -0.6300000      0.0000000E+00
 -0.6200000      0.0000000E+00
 -0.6100000      0.0000000E+00
 -0.6000000      0.0000000E+00
 -0.5900000      0.0000000E+00
 -0.5800000      0.0000000E+00
 -0.5700000      0.0000000E+00
 -0.5600000      0.0000000E+00
 -0.5500000      0.0000000E+00
 -0.5400000      0.0000000E+00
 -0.5300000      0.0000000E+00
 -0.5200000      0.0000000E+00
 -0.5100000      0.0000000E+00
 -0.5000000      0.0000000E+00
 -0.4900000      0.0000000E+00
 -0.4800000      0.0000000E+00
 -0.4700000      0.0000000E+00
 -0.4600000      0.0000000E+00
 -0.4500000      0.0000000E+00
 -0.4400000      0.0000000E+00
 -0.4300000      0.0000000E+00
 -0.4200000      0.0000000E+00
 -0.4100000      0.0000000E+00
 -0.4000000      0.0000000E+00
 -0.3900000      0.0000000E+00
 -0.3800000      0.0000000E+00
 -0.3700000      0.0000000E+00
 -0.3600000      0.0000000E+00
 -0.3500000      0.0000000E+00
 -0.3400000      0.0000000E+00
 -0.3300000      0.0000000E+00
 -0.3200000      0.0000000E+00
 -0.3100000      0.0000000E+00
 -0.3000000      0.0000000E+00
 -0.2900000      0.0000000E+00
 -0.2800000      0.0000000E+00
 -0.2700000      0.0000000E+00
 -0.2600000      0.0000000E+00
 -0.2500000      0.0000000E+00
 -0.2400000      0.0000000E+00
 -0.2300000      0.0000000E+00
 -0.2200000      0.0000000E+00
 -0.2100000      0.0000000E+00
 -0.2000000      0.0000000E+00
 -0.1900000      0.0000000E+00
 -0.1800000      0.0000000E+00
 -0.1700000      0.0000000E+00
 -0.1600000      0.0000000E+00
 -0.1500000      0.0000000E+00
 -0.1400000      0.0000000E+00
 -0.1300000      0.0000000E+00
 -0.1200000      0.0000000E+00
 -0.1100000      0.0000000E+00
 -0.1000000      0.0000000E+00
 -9.0000004E-02  0.0000000E+00
 -7.9999998E-02  0.0000000E+00
 -7.0000000E-02  0.0000000E+00
 -5.9999999E-02  0.0000000E+00
 -5.0000001E-02  0.0000000E+00
 -3.9999999E-02  0.0000000E+00
 -2.9999999E-02  0.0000000E+00
 -2.0000000E-02  0.0000000E+00
 -9.9999998E-03  0.0000000E+00
 -3.4694470E-17  0.0000000E+00
  9.9999998E-03  0.0000000E+00
  2.0000000E-02  0.0000000E+00
  2.9999999E-02  0.0000000E+00
  3.9999999E-02  0.0000000E+00
  5.0000001E-02  0.0000000E+00
  5.9999999E-02  0.0000000E+00
  7.0000000E-02  0.0000000E+00
  7.9999998E-02  0.0000000E+00
  9.0000004E-02  0.0000000E+00
  0.1000000      0.0000000E+00
  0.1100000      0.0000000E+00
  0.1200000      0.0000000E+00
  0.1300000      0.0000000E+00
  0.1400000      0.0000000E+00
  0.1500000      0.0000000E+00
  0.1600000      0.0000000E+00
  0.1700000      0.0000000E+00
  0.1800000      0.0000000E+00
  0.1900000      0.0000000E+00
  0.2000000      0.0000000E+00
  0.2100000      0.0000000E+00
  0.2200000      0.0000000E+00
  0.2300000      0.0000000E+00
  0.2400000      0.0000000E+00
  0.2500000      0.0000000E+00
  0.2600000      0.0000000E+00
  0.2700000      0.0000000E+00
  0.2800000      0.0000000E+00
  0.2900000      0.0000000E+00
  0.3000000      0.0000000E+00
  0.3100000      0.0000000E+00
  0.3200000      0.0000000E+00
  0.3300000      0.0000000E+00
  0.3400000      0.0000000E+00
  0.3500000      0.0000000E+00
  0.3600000      0.0000000E+00
  0.3700000      0.0000000E+00
  0.3800000      0.0000000E+00
  0.3900000      0.0000000E+00
  0.4000000      0.0000000E+00
  0.4100000      0.0000000E+00
  0.4200000      0.0000000E+00
  0.4300000      0.0000000E+00
  0.4400000      0.0000000E+00
  0.4500000      0.0000000E+00
  0.4600000      0.0000000E+00
  0.4700000      0.0000000E+00
  0.4800000      0.0000000E+00
  0.4900000      0.0000000E+00
  0.5000000      0.0000000E+00
  0.5100000      0.0000000E+00
  0.5200000      0.0000000E+00
  0.5300000      0.0000000E+00
  0.5400000      0.0000000E+00
  0.5500000      0.0000000E+00
  0.5600000      0.0000000E+00
  0.5700000      0.0000000E+00
  0.5800000      0.0000000E+00
  0.5900000      0.0000000E+00
  0.6000000      0.0000000E+00
  0.6100000      0.0000000E+00
  0.6200000      0.0000000E+00
  0.6300000      0.0000000E+00
  0.6400000      0.0000000E+00
  0.6500000      0.0000000E+00
  0.6600000      0.0000000E+00
  0.6700000      0.0000000E+00
  0.6800000      0.0000000E+00
  0.6900000      0.0000000E+00
  0.7000000      0.0000000E+00
  0.7100000      0.0000000E+00
  0.7200000      0.0000000E+00
  0.7300000      0.0000000E+00
  0.7400000      0.0000000E+00
  0.7500000      0.0000000E+00
  0.7600000      0.0000000E+00
  0.7700000      0.0000000E+00
  0.7800000      0.0000000E+00
  0.7900000      0.0000000E+00
  0.8000000      0.0000000E+00
  0.8100000      0.0000000E+00
  0.8200000      0.0000000E+00
  0.8300000      0.0000000E+00
  0.8400000      0.0000000E+00
  0.8500000      0.0000000E+00
  0.8600000      0.0000000E+00
  0.8700000      0.0000000E+00
  0.8800000      0.0000000E+00
  0.8900000      0.0000000E+00
  0.9000000      0.0000000E+00
  0.9100000      0.0000000E+00
  0.9200000      0.0000000E+00
  0.9300000      0.0000000E+00
  0.9400000      0.0000000E+00
  0.9500000      0.0000000E+00
  0.9600000      0.0000000E+00
  0.9700000      0.0000000E+00
  0.9800000      0.0000000E+00
  0.9900000      0.0000000E+00
   1.000000      0.0000000E+00
   1.010000      0.0000000E+00
   1.020000      0.0000000E+00
   1.030000      0.0000000E+00
   1.040000      0.0000000E+00
   1.050000      0.0000000E+00
   1.060000      0.0000000E+00
   1.070000      0.0000000E+00
   1.080000      0.0000000E+00
   1.090000      0.0000000E+00
   1.100000      0.0000000E+00
   1.110000      0.0000000E+00
   1.120000      0.0000000E+00
   1.130000      0.0000000E+00
   1.140000      0.0000000E+00
   1.150000      0.0000000E+00
   1.160000      0.0000000E+00
   1.170000      0.0000000E+00
   1.180000      0.0000000E+00
   1.190000      0.0000000E+00
   1.200000      0.0000000E+00
   1.210000      0.0000000E+00
   1.220000      0.0000000E+00
   1.230000      0.0000000E+00
   1.240000      0.0000000E+00
   1.250000      0.0000000E+00
   1.260000      0.0000000E+00
   1.270000      0.0000000E+00
   1.280000      0.0000000E+00
   1.290000      0.0000000E+00
   1.300000      0.0000000E+00
   1.310000      0.0000000E+00
   1.320000      0.0000000E+00
   1.330000      0.0000000E+00
   1.340000      0.0000000E+00
   1.350000      0.0000000E+00
   1.360000      0.0000000E+00
   1.370000      0.0000000E+00
   1.380000      0.0000000E+00
   1.390000      0.0000000E+00
   1.400000      0.0000000E+00
   1.410000      0.0000000E+00
   1.420000      0.0000000E+00
   1.430000      0.0000000E+00
   1.440000      0.0000000E+00
   1.450000      0.0000000E+00
   1.460000      0.0000000E+00
   1.470000      0.0000000E+00
   1.480000      0.0000000E+00
   1.490000      0.0000000E+00
   1.500000      0.0000000E+00
   1.510000      0.0000000E+00
   1.520000      0.0000000E+00
   1.530000      0.0000000E+00
   1.540000      0.0000000E+00
   1.550000      0.0000000E+00
   1.560000      0.0000000E+00
   1.570000      0.0000000E+00
   1.580000      0.0000000E+00
   1.590000      0.0000000E+00
   1.600000      0.0000000E+00
   1.610000      0.0000000E+00
   1.620000      0.0000000E+00
   1.630000      0.0000000E+00
   1.640000      0.0000000E+00
   1.650000      0.0000000E+00
   1.660000      0.0000000E+00
   1.670000      0.0000000E+00
   1.680000      0.0000000E+00
   1.690000      0.0000000E+00
   1.700000      0.0000000E+00
   1.710000      0.0000000E+00
   1.720000      0.0000000E+00
   1.730000      0.0000000E+00
   1.740000      0.0000000E+00
   1.750000      0.0000000E+00
   1.760000      0.0000000E+00
   1.770000      0.0000000E+00
   1.780000      0.0000000E+00
   1.790000      0.0000000E+00
   1.800000      0.0000000E+00
   1.810000      0.0000000E+00
   1.820000      0.0000000E+00
   1.830000      0.0000000E+00
   1.840000      0.0000000E+00
   1.850000      0.0000000E+00
   1.860000      0.0000000E+00
   1.870000      0.0000000E+00
   1.880000      0.0000000E+00
   1.890000      0.0000000E+00
   1.900000      0.0000000E+00
   1.910000      0.0000000E+00
   1.920000      0.0000000E+00
   1.930000      0.0000000E+00
   1.940000      0.0000000E+00
   1.950000      0.0000000E+00
   1.960000      0.0000000E+00
   1.970000      0.0000000E+00
   1.980000      0.0000000E+00
   1.990000      0.0000000E+00
   2.000000      0.0000000E+00
   2.010000      0.0000000E+00
   2.020000      0.0000000E+00
   2.030000      0.0000000E+00
   2.040000      0.0000000E+00
   2.050000      0.0000000E+00
   2.060000      0.0000000E+00
   2.070000      0.0000000E+00
   2.080000      0.0000000E+00
   2.090000      0.0000000E+00
   2.100000      0.0000000E+00
   2.110000      0.0000000E+00
   2.120000      0.0000000E+00
   2.130000      0.0000000E+00
   2.140000      0.0000000E+00
   2.150000      0.0000000E+00
   2.160000      0.0000000E+00
   2.170000      0.0000000E+00
   2.180000      0.0000000E+00
   2.190000      0.0000000E+00
   2.200000      0.0000000E+00
   2.210000      0.0000000E+00
   2.220000      0.0000000E+00
   2.230000      0.0000000E+00
   2.240000      0.0000000E+00
   2.250000      0.0000000E+00
   2.260000      0.0000000E+00
   2.270000      0.0000000E+00
   2.280000      0.0000000E+00
   2.290000      0.0000000E+00
   2.300000      0.0000000E+00
   2.310000      0.0000000E+00
   2.320000      0.0000000E+00
   2.330000      0.0000000E+00
   2.340000     -1.3080676E-38
   2.350000     -1.4422640E-38
   2.360000     -1.5318392E-38
   2.370000     -1.5835680E-38
   2.380000     -1.6447119E-38
   2.390000     -1.7140616E-38
   2.400000     -1.7838276E-38
   2.410000     -1.8469604E-38
   2.420000     -1.9042549E-38
   2.430000     -1.9513674E-38
   2.440000     -1.9855623E-38
   2.450000     -1.9667972E-38
   2.460000     -1.8934800E-38
   2.470000     -1.8633116E-38
   2.480000     -1.8773238E-38
   2.490000     -1.8914802E-38
   2.500000     -1.9031107E-38
   2.510000     -1.9071023E-38
   2.520000     -1.7470725E-38
   2.530000     -1.4122838E-38
   2.540000      0.0000000E+00
   2.550000      0.0000000E+00
   2.560000      0.0000000E+00
   2.570000      0.0000000E+00
   2.580000      0.0000000E+00
   2.590000      1.3050671E-38
   2.600000      1.7889731E-38
   2.610000      2.2223023E-38
   2.620000      2.6596160E-38
   2.630000      3.1177736E-38
   2.640000      3.5913119E-38
   2.650000      4.0864624E-38
   2.660000      4.5811432E-38
   2.670000      5.0682516E-38
   2.680000      5.5715610E-38
   2.690000      6.3255207E-38
   2.700000      7.3356775E-38
   2.710000      8.3799599E-38
   2.720000      9.5923084E-38
   2.730000      1.0840798E-37
   2.740000      1.1979920E-37
   2.750000      1.3328734E-37
   2.760000      1.4325612E-37
   2.770000      1.4747772E-37
   2.780000      1.5163827E-37
   2.790000      1.5373380E-37
   2.800000      1.5439434E-37
   2.810000      1.5581839E-37
   2.820000      1.7292165E-37
   2.830000      1.9918958E-37
   2.840000      2.1915902E-37
   2.850000      2.3971067E-37
   2.860000      2.6097677E-37
   2.870000      2.7848818E-37
   2.880000      2.9236496E-37
   2.890000      3.0744289E-37
   2.900000      3.2490017E-37
   2.910000      3.4241486E-37
   2.920000      3.5905293E-37
   2.930000      3.7592845E-37
   2.940000      3.9249778E-37
   2.950000      4.0842613E-37
   2.960000      4.4190519E-37
   2.970000      4.8903133E-37
   2.980000      5.3030748E-37
   2.990000      5.6955294E-37
   3.000000      6.0649502E-37
   3.010000      6.3870144E-37
   3.020000      6.6551659E-37
   3.030000      6.7750090E-37
   3.040000      6.7766413E-37
   3.050000      6.9018712E-37
   3.060000      7.1646727E-37
   3.070000      7.4768385E-37
   3.080000      7.8627059E-37
   3.090000      8.3412038E-37
   3.100000      8.9267367E-37
   3.110000      9.6225888E-37
   3.120000      1.0442729E-36
   3.130000      1.1404219E-36
   3.140000      1.2457820E-36
   3.150000      1.3554561E-36
   3.160000      1.4599628E-36
   3.170000      1.5593804E-36
   3.180000      1.6631037E-36
   3.190000      1.7707799E-36
   3.200000      1.8865153E-36
   3.210000      2.0115199E-36
   3.220000      2.1437908E-36
   3.230000      2.3349959E-36
   3.240000      2.6037419E-36
   3.250000      2.9659197E-36
   3.260000      3.4091628E-36
   3.270000      3.8866906E-36
   3.280000      4.4106892E-36
   3.290000      4.6193369E-36
   3.300000      4.5389780E-36
   3.310000      4.4650551E-36
   3.320000      4.3220464E-36
   3.330000      4.1577524E-36
   3.340000      3.9740523E-36
   3.350000      3.8286337E-36
   3.360000      3.6901490E-36
   3.370000      3.5167176E-36
   3.380000      3.4940052E-36
   3.390000      3.6524645E-36
   3.400000      3.9274225E-36
   3.410000      4.3167178E-36
   3.420000      4.7902435E-36
   3.430000      5.1935954E-36
   3.440000      5.5288021E-36
   3.450000      5.8628534E-36
   3.460000      6.1152819E-36
   3.470000      6.3608292E-36
   3.480000      6.6665482E-36
   3.490000      6.9554002E-36
   3.500000      7.1131090E-36
   3.510000      7.1354932E-36
   3.520000      7.0716446E-36
   3.530000      6.9009339E-36
   3.540000      6.4618002E-36
   3.550000      5.8086672E-36
   3.560000      5.2386472E-36
   3.570000      4.7150715E-36
   3.580000      4.1219168E-36
   3.590000      3.4803788E-36
   3.600000      2.7725927E-36
   3.610000      2.0741840E-36
   3.620000      1.4455964E-36
   3.630000      9.2886053E-37
   3.640000      5.1371395E-37
   3.650000      7.7484891E-37
   3.660000      1.9181834E-36
   3.670000      2.9879106E-36
   3.680000      3.7262827E-36
   3.690000      4.2917536E-36
   3.700000      4.5044113E-36
   3.710000      4.3694812E-36
   3.720000      3.9169321E-36
   3.730000      3.0983926E-36
   3.740000      1.7971656E-36
   3.750000     -4.9164338E-38
   3.760000     -3.4113500E-36
   3.770000     -8.2607995E-36
   3.780000     -1.3451863E-35
   3.790000     -1.8871247E-35
   3.800000     -2.4596421E-35
   3.810000     -3.0687399E-35
   3.820000     -3.6632680E-35
   3.830000     -4.2243083E-35
   3.840000     -4.6690294E-35
   3.850000     -4.9984224E-35
   3.860000     -5.2933928E-35
   3.870000     -5.6187120E-35
   3.880000     -5.9876818E-35
   3.890000     -6.4684286E-35
   3.900000     -6.7564614E-35
   3.910000     -6.7244579E-35
   3.920000     -7.0023096E-35
   3.930000     -7.6273805E-35
   3.940000     -8.2835302E-35
   3.950000     -8.9503466E-35
   3.960000     -9.5693637E-35
   3.970000     -1.0502019E-34
   3.980000     -1.1879507E-34
   3.990000     -1.3325716E-34
   4.000000     -1.4705062E-34
   4.010000     -1.6191677E-34
   4.020000     -1.8180253E-34
   4.030000     -2.0566252E-34
   4.040000     -2.3012664E-34
   4.050000     -2.5071051E-34
   4.060000     -2.6852731E-34
   4.070000     -2.8254901E-34
   4.080000     -2.9184742E-34
   4.090000     -3.0278021E-34
   4.100000     -3.1457067E-34
   4.110000     -3.2212533E-34
   4.120000     -3.2634637E-34
   4.130000     -3.3013534E-34
   4.140000     -3.3125495E-34
   4.150000     -3.3002741E-34
   4.160000     -3.2892938E-34
   4.170000     -3.2826304E-34
   4.180000     -3.3062742E-34
   4.190000     -3.3617088E-34
   4.200000     -3.4172112E-34
   4.210000     -3.4657915E-34
   4.220000     -3.5038073E-34
   4.230000     -3.5621442E-34
   4.240000     -3.6518346E-34
   4.250000     -3.7923094E-34
   4.260000     -4.0121358E-34
   4.270000     -4.2681424E-34
   4.280000     -4.5118844E-34
   4.290000     -4.6964687E-34
   4.300000     -4.8272865E-34
   4.310000     -4.9291789E-34
   4.320000     -4.9649089E-34
   4.330000     -4.9051648E-34
   4.340000     -4.7912544E-34
   4.350000     -4.6629221E-34
   4.360000     -4.4973918E-34
   4.370000     -4.2376438E-34
   4.380000     -3.8756788E-34
   4.390000     -3.4398289E-34
   4.400000     -2.9315594E-34
   4.410000     -2.3428663E-34
   4.420000     -1.6654077E-34
   4.430000     -8.6422884E-35
   4.440000      5.8198561E-36
   4.450000      1.0029203E-34
   4.460000      1.9182119E-34
   4.470000      2.8402026E-34
   4.480000      3.8278063E-34
   4.490000      4.8913055E-34
   4.500000      5.9273242E-34
   4.510000      6.9653376E-34
   4.520000      8.0760493E-34
   4.530000      9.2072606E-34
   4.540000      1.0373118E-33
   4.550000      1.1589673E-33
   4.560000      1.2868107E-33
   4.570000      1.4230770E-33
   4.580000      1.5681580E-33
   4.590000      1.7224267E-33
   4.600000      1.8876276E-33
   4.610000      2.0685642E-33
   4.620000      2.2661525E-33
   4.630000      2.4775466E-33
   4.640000      2.7029819E-33
   4.650000      2.9466763E-33
   4.660000      3.2106611E-33
   4.670000      3.4935170E-33
   4.680000      3.7936931E-33
   4.690000      4.1092729E-33
   4.700000      4.4390065E-33
   4.710000      4.7799832E-33
   4.720000      5.1313337E-33
   4.730000      5.4922461E-33
   4.740000      5.8577334E-33
   4.750000      6.2252227E-33
   4.760000      6.5952073E-33
   4.770000      6.9657716E-33
   4.780000      7.3302461E-33
   4.790000      7.6846577E-33
   4.800000      8.0298313E-33
   4.810000      8.3658339E-33
   4.820000      8.6923120E-33
   4.830000      9.0087279E-33
   4.840000      9.3158243E-33
   4.850000      9.6138739E-33
   4.860000      9.9032820E-33
   4.870000      1.0185197E-32
   4.880000      1.0463716E-32
   4.890000      1.0741897E-32
   4.900000      1.1016292E-32
   4.910000      1.1283631E-32
   4.920000      1.1548461E-32
   4.930000      1.1813483E-32
   4.940000      1.2072812E-32
   4.950000      1.2321635E-32
   4.960000      1.2554723E-32
   4.970000      1.2766136E-32
   4.980000      1.2949202E-32
   4.990000      1.3094922E-32
   5.000000      1.3192976E-32
   5.010000      1.3232462E-32
   5.020000      1.3203277E-32
   5.030000      1.3095701E-32
   5.040000      1.2898673E-32
   5.050000      1.2606266E-32
   5.060000      1.2215582E-32
   5.070000      1.1716922E-32
   5.080000      1.1104944E-32
   5.090000      1.0378955E-32
   5.100000      9.5376658E-33
   5.110000      8.5830513E-33
   5.120000      7.5167199E-33
   5.130000      6.3426112E-33
   5.140000      5.0655163E-33
   5.150000      3.6899873E-33
   5.160000      2.2155268E-33
   5.170000      6.4071256E-34
   5.180000     -1.0285487E-33
   5.190000     -2.7939394E-33
   5.200000     -4.6642720E-33
   5.210000     -6.6453414E-33
   5.220000     -8.7465544E-33
   5.230000     -1.0982042E-32
   5.240000     -1.3366073E-32
   5.250000     -1.5918805E-32
   5.260000     -1.8660738E-32
   5.270000     -2.1609772E-32
   5.280000     -2.4785830E-32
   5.290000     -2.8205987E-32
   5.300000     -3.1884758E-32
   5.310000     -3.5834528E-32
   5.320000     -4.0064897E-32
   5.330000     -4.4574534E-32
   5.340000     -4.9359319E-32
   5.350000     -5.4414162E-32
   5.360000     -5.9723247E-32
   5.370000     -6.5268554E-32
   5.380000     -7.1028570E-32
   5.390000     -7.6976254E-32
   5.400000     -8.3082477E-32
   5.410000     -8.9319374E-32
   5.420000     -9.5662682E-32
   5.430000     -1.0208652E-31
   5.440000     -1.0856874E-31
   5.450000     -1.1509638E-31
   5.460000     -1.2165950E-31
   5.470000     -1.2825400E-31
   5.480000     -1.3488450E-31
   5.490000     -1.4156099E-31
   5.500000     -1.4829636E-31
   5.510000     -1.5510738E-31
   5.520000     -1.6201209E-31
   5.530000     -1.6902735E-31
   5.540000     -1.7616646E-31
   5.550000     -1.8343628E-31
   5.560000     -1.9083540E-31
   5.570000     -1.9835191E-31
   5.580000     -2.0595966E-31
   5.590000     -2.1362146E-31
   5.600000     -2.2128470E-31
   5.610000     -2.2887968E-31
   5.620000     -2.3632540E-31
   5.630000     -2.4352886E-31
   5.640000     -2.5038766E-31
   5.650000     -2.5679297E-31
   5.660000     -2.6263405E-31
   5.670000     -2.6780152E-31
   5.680000     -2.7219058E-31
   5.690000     -2.7570597E-31
   5.700000     -2.7826422E-31
   5.710000     -2.7979676E-31
   5.720000     -2.8025217E-31
   5.730000     -2.7959580E-31
   5.740000     -2.7780912E-31
   5.750000     -2.7488837E-31
   5.760000     -2.7084156E-31
   5.770000     -2.6568389E-31
   5.780000     -2.5943259E-31
   5.790000     -2.5210134E-31
   5.800000     -2.4369432E-31
   5.810000     -2.3419997E-31
   5.820000     -2.2358547E-31
   5.830000     -2.1179197E-31
   5.840000     -1.9873213E-31
   5.850000     -1.8428759E-31
   5.860000     -1.6830797E-31
   5.870000     -1.5061403E-31
   5.880000     -1.3100116E-31
   5.890000     -1.0924528E-31
   5.900000     -8.5110358E-32
   5.910000     -5.8357070E-32
   5.920000     -2.8752742E-32
   5.930000      3.9185868E-33
   5.940000      3.9846296E-32
   5.950000      7.9184344E-32
   5.960000      1.2204366E-31
   5.970000      1.6848636E-31
   5.980000      2.1852306E-31
   5.990000      2.7211364E-31
   6.000000      3.2916912E-31
   6.010000      3.8955753E-31
   6.020000      4.5311339E-31
   6.030000      5.1964895E-31
   6.040000      5.8896724E-31
   6.050000      6.6087614E-31
   6.060000      7.3520288E-31
   6.070000      8.1180778E-31
   6.080000      8.9059609E-31
   6.090000      9.7152774E-31
   6.100000      1.0546224E-30
   6.110000      1.1399618E-30
   6.120000      1.2276863E-30
   6.130000      1.3179876E-30
   6.140000      1.4110959E-30
   6.150000      1.5072631E-30
   6.160000      1.6067428E-30
   6.170000      1.7097671E-30
   6.180000      1.8165226E-30
   6.190000      1.9271263E-30
   6.200000      2.0416033E-30
   6.210000      2.1598663E-30
   6.220000      2.2817026E-30
   6.230000      2.4067630E-30
   6.240000      2.5345607E-30
   6.250000      2.6644754E-30
   6.260000      2.7957653E-30
   6.270000      2.9275871E-30
   6.280000      3.0590207E-30
   6.290000      3.1891011E-30
   6.300000      3.3168505E-30
   6.310000      3.4413152E-30
   6.320000      3.5616004E-30
   6.330000      3.6769008E-30
   6.340000      3.7865280E-30
   6.350000      3.8899279E-30
   6.360000      3.9866904E-30
   6.370000      4.0765497E-30
   6.380000      4.1593703E-30
   6.390000      4.2351252E-30
   6.400000      4.3038602E-30
   6.410000      4.3656532E-30
   6.420000      4.4205629E-30
   6.430000      4.4685754E-30
   6.440000      4.5095499E-30
   6.450000      4.5431649E-30
   6.460000      4.5688735E-30
   6.470000      4.5858656E-30
   6.480000      4.5930446E-30
   6.490000      4.5890163E-30
   6.500000      4.5720986E-30
   6.510000      4.5403460E-30
   6.520000      4.4915906E-30
   6.530000      4.4235022E-30
   6.540000      4.3336576E-30
   6.550000      4.2196226E-30
   6.560000      4.0790365E-30
   6.570000      3.9097006E-30
   6.580000      3.7096593E-30
   6.590000      3.4772680E-30
   6.600000      3.2112538E-30
   6.610000      2.9107450E-30
   6.620000      2.5752873E-30
   6.630000      2.2048302E-30
   6.640000      1.7996858E-30
   6.650000      1.3604660E-30
   6.660000      8.8799580E-31
   6.670000      3.8320782E-31
   6.680000     -1.5297397E-31
   6.690000     -7.1975623E-31
   6.700000     -1.3165971E-30
   6.710000     -1.9433147E-30
   6.720000     -2.6001749E-30
   6.730000     -3.2879551E-30
   6.740000     -4.0079791E-30
   6.750000     -4.7621097E-30
   6.760000     -5.5527039E-30
   6.770000     -6.3825258E-30
   6.780000     -7.2546260E-30
   6.790000     -8.1721857E-30
   6.800000     -9.1383382E-30
   6.810000     -1.0155968E-29
   6.820000     -1.1227513E-29
   6.830000     -1.2354772E-29
   6.840000     -1.3538726E-29
   6.850000     -1.4779398E-29
   6.860000     -1.6075743E-29
   6.870000     -1.7425610E-29
   6.880000     -1.8825738E-29
   6.890000     -2.0271826E-29
   6.900000     -2.1758652E-29
   6.910000     -2.3280257E-29
   6.920000     -2.4830166E-29
   6.930000     -2.6401644E-29
   6.940000     -2.7987975E-29
   6.950000     -2.9582741E-29
   6.960000     -3.1180081E-29
   6.970000     -3.2774928E-29
   6.980000     -3.4363179E-29
   6.990000     -3.5941795E-29
   7.000000     -3.7508852E-29
   7.010000     -3.9063478E-29
   7.020000     -4.0605696E-29
   7.030000     -4.2136209E-29
   7.040000     -4.3656086E-29
   7.050000     -4.5166391E-29
   7.060000     -4.6667777E-29