  -2.600000      0.0000000E+00
  -2.590000      0.0000000E+00
  -2.580000      0.0000000E+00
  -2.570000      0.0000000E+00
  -2.560000      0.0000000E+00
  -2.550000      0.0000000E+00
  -2.540000      0.0000000E+00
  -2.530000      0.0000000E+00
  -2.520000      0.0000000E+00
  -2.510000      0.0000000E+00
  -2.500000      0.0000000E+00
  -2.490000      0.0000000E+00
  -2.480000      0.0000000E+00
  -2.470000      0.0000000E+00
  -2.460000      0.0000000E+00
  -2.450000      0.0000000E+00
  -2.440000      0.0000000E+00
  -2.430000      0.0000000E+00
  -2.420000      0.0000000E+00
  -2.410000      0.0000000E+00
  -2.400000      0.0000000E+00
  -2.390000      0.0000000E+00
  -2.380000      0.0000000E+00
  -2.370000      0.0000000E+00
  -2.360000      0.0000000E+00
  -2.350000      0.0000000E+00
  -2.340000      0.0000000E+00
  -2.330000      0.0000000E+00
  -2.320000      0.0000000E+00
  -2.310000      0.0000000E+00
  -2.300000      0.0000000E+00
  -2.290000      0.0000000E+00
  -2.280000      0.0000000E+00
  -2.270000      0.0000000E+00
  -2.260000      0.0000000E+00
  -2.250000      0.0000000E+00
  -2.240000      0.0000000E+00
  -2.230000      0.0000000E+00
  -2.220000      0.0000000E+00
  -2.210000      0.0000000E+00
  -2.200000      0.0000000E+00
  -2.190000      0.0000000E+00
  -2.180000      0.0000000E+00
  -2.170000      0.0000000E+00
  -2.160000      0.0000000E+00
  -2.150000      0.0000000E+00
  -2.140000      0.0000000E+00
  -2.130000      0.0000000E+00
  -2.120000      0.0000000E+00
  -2.110000      0.0000000E+00
  -2.100000      0.0000000E+00
  -2.090000      0.0000000E+00
  -2.080000      0.0000000E+00
  -2.070000      0.0000000E+00
  -2.060000      0.0000000E+00
  -2.050000      0.0000000E+00
  -2.040000      0.0000000E+00
  -2.030000      0.0000000E+00
  -2.020000      0.0000000E+00
  -2.010000      0.0000000E+00
  -2.000000      0.0000000E+00
  -1.990000      0.0000000E+00
  -1.980000      0.0000000E+00
  -1.970000      0.0000000E+00
  -1.960000      0.0000000E+00
  -1.950000      0.0000000E+00
  -1.940000      0.0000000E+00
  -1.930000      0.0000000E+00
  -1.920000      0.0000000E+00
  -1.910000      0.0000000E+00
  -1.900000      0.0000000E+00
  -1.890000      0.0000000E+00
  -1.880000      0.0000000E+00
  -1.870000      0.0000000E+00
  -1.860000      0.0000000E+00
  -1.850000      0.0000000E+00
  -1.840000      0.0000000E+00
  -1.830000      0.0000000E+00
  -1.820000      0.0000000E+00
  -1.810000      0.0000000E+00
  -1.800000      0.0000000E+00
  -1.790000      0.0000000E+00
  -1.780000      0.0000000E+00
  -1.770000      0.0000000E+00
  -1.760000      0.0000000E+00
  -1.750000      0.0000000E+00
  -1.740000      0.0000000E+00
  -1.730000      0.0000000E+00
  -1.720000      0.0000000E+00
  -1.710000      0.0000000E+00
  -1.700000      0.0000000E+00
  -1.690000      0.0000000E+00
  -1.680000      0.0000000E+00
  -1.670000      0.0000000E+00
  -1.660000      0.0000000E+00
  -1.650000      0.0000000E+00
  -1.640000      0.0000000E+00
  -1.630000      0.0000000E+00
  -1.620000      0.0000000E+00
  -1.610000      0.0000000E+00
  -1.600000      0.0000000E+00
  -1.590000      0.0000000E+00
  -1.580000      0.0000000E+00
  -1.570000      0.0000000E+00
  -1.560000      0.0000000E+00
  -1.550000      0.0000000E+00
  -1.540000      0.0000000E+00
  -1.530000      0.0000000E+00
  -1.520000      0.0000000E+00
  -1.510000      0.0000000E+00
  -1.500000      0.0000000E+00
  -1.490000      0.0000000E+00
  -1.480000      0.0000000E+00
  -1.470000      0.0000000E+00
  -1.460000      0.0000000E+00
  -1.450000      0.0000000E+00
  -1.440000      0.0000000E+00
  -1.430000      0.0000000E+00
  -1.420000      0.0000000E+00
  -1.410000      0.0000000E+00
  -1.400000      0.0000000E+00
  -1.390000      0.0000000E+00
  -1.380000      0.0000000E+00
  -1.370000      0.0000000E+00
  -1.360000      0.0000000E+00
  -1.350000      0.0000000E+00
  -1.340000      0.0000000E+00
  -1.330000      0.0000000E+00
  -1.320000      0.0000000E+00
  -1.310000      0.0000000E+00
  -1.300000      0.0000000E+00
  -1.290000      0.0000000E+00
  -1.280000      0.0000000E+00
  -1.270000      0.0000000E+00
  -1.260000      0.0000000E+00
  -1.250000      0.0000000E+00
  -1.240000      0.0000000E+00
  -1.230000      0.0000000E+00
  -1.220000      0.0000000E+00
  -1.210000      0.0000000E+00
  -1.200000      0.0000000E+00
  -1.190000      0.0000000E+00
  -1.180000      0.0000000E+00
  -1.170000      0.0000000E+00
  -1.160000      0.0000000E+00
  -1.150000      0.0000000E+00
  -1.140000      0.0000000E+00
  -1.130000      0.0000000E+00
  -1.120000      0.0000000E+00
  -1.110000      0.0000000E+00
  -1.100000      0.0000000E+00
  -1.090000      0.0000000E+00
  -1.080000      0.0000000E+00
  -1.070000      0.0000000E+00
  -1.060000      0.0000000E+00
  -1.050000      0.0000000E+00
  -1.040000      0.0000000E+00
  -1.030000      0.0000000E+00
  -1.020000      0.0000000E+00
  -1.010000      0.0000000E+00
  -1.000000      0.0000000E+00
 -0.9900000      0.0000000E+00
 -0.9800000      0.0000000E+00
 -0.9700000      0.0000000E+00
 -0.9600000      0.0000000E+00
 -0.9500000      0.0000000E+00
 -0.9400000      0.0000000E+00
 -0.9300000      0.0000000E+00
 -0.9200000      0.0000000E+00
 -0.9100000      0.0000000E+00
 -0.9000000      0.0000000E+00
 -0.8900000      0.0000000E+00
 -0.8800000      0.0000000E+00
 -0.8700000      0.0000000E+00
 -0.8600000      0.0000000E+00
 -0.8500000      0.0000000E+00
 -0.8400000      0.0000000E+00
 -0.8300000      0.0000000E+00
 -0.8200000      0.0000000E+00
 -0.8100000      0.0000000E+00
 -0.8000000      0.0000000E+00
 -0.7900000      0.0000000E+00
 -0.7800000      0.0000000E+00
 -0.7700000      0.0000000E+00
 -0.7600000      0.0000000E+00
 -0.7500000      0.0000000E+00
 -0.7400000      0.0000000E+00
 -0.7300000      0.0000000E+00
 -0.7200000      0.0000000E+00
 -0.7100000      0.0000000E+00
 -0.7000000      0.0000000E+00
 -0.6900000      0.0000000E+00
 -0.6800000      0.0000000E+00
 -0.6700000      0.0000000E+00
 -0.6600000      0.0000000E+00
 -0.6500000      0.0000000E+00
 -0.6400000      0.0000000E+00
 -0.6300000      0.0000000E+00
 -0.6200000      0.0000000E+00
 -0.6100000      0.0000000E+00
 -0.6000000      0.0000000E+00
 -0.5900000      0.0000000E+00
 -0.5800000      0.0000000E+00
 -0.5700000      0.0000000E+00
 -0.5600000      0.0000000E+00
 -0.5500000      0.0000000E+00
 -0.5400000      0.0000000E+00
 -0.5300000      0.0000000E+00
 -0.5200000      0.0000000E+00
 -0.5100000      0.0000000E+00
 -0.5000000      0.0000000E+00
 -0.4900000      0.0000000E+00
 -0.4800000      0.0000000E+00
 -0.4700000      0.0000000E+00
 -0.4600000      0.0000000E+00
 -0.4500000      0.0000000E+00
 -0.4400000      0.0000000E+00
 -0.4300000      0.0000000E+00
 -0.4200000      0.0000000E+00
 -0.4100000      0.0000000E+00
 -0.4000000      0.0000000E+00
 -0.3900000      0.0000000E+00
 -0.3800000      0.0000000E+00
 -0.3700000      0.0000000E+00
 -0.3600000      0.0000000E+00
 -0.3500000      0.0000000E+00
 -0.3400000      0.0000000E+00
 -0.3300000      0.0000000E+00
 -0.3200000      0.0000000E+00
 -0.3100000      0.0000000E+00
 -0.3000000      0.0000000E+00
 -0.2900000      0.0000000E+00
 -0.2800000      0.0000000E+00
 -0.2700000      0.0000000E+00
 -0.2600000      0.0000000E+00
 -0.2500000      0.0000000E+00
 -0.2400000      0.0000000E+00
 -0.2300000      0.0000000E+00
 -0.2200000      0.0000000E+00
 -0.2100000      0.0000000E+00
 -0.2000000      0.0000000E+00
 -0.1900000      0.0000000E+00
 -0.1800000      0.0000000E+00
 -0.1700000      0.0000000E+00
 -0.1600000      0.0000000E+00
 -0.1500000      0.0000000E+00
 -0.1400000      0.0000000E+00
 -0.1300000      0.0000000E+00
 -0.1200000      0.0000000E+00
 -0.1100000      0.0000000E+00
 -0.1000000      0.0000000E+00
 -9.0000004E-02  0.0000000E+00
 -7.9999998E-02  0.0000000E+00
 -7.0000000E-02  0.0000000E+00
 -5.9999999E-02  0.0000000E+00
 -5.0000001E-02  0.0000000E+00
 -3.9999999E-02  0.0000000E+00
 -2.9999999E-02  0.0000000E+00
 -2.0000000E-02  0.0000000E+00
 -9.9999998E-03 -1.3270385E-38
 -3.4694470E-17 -1.5242417E-38
  9.9999998E-03 -1.7538593E-38
  2.0000000E-02 -2.0181257E-38
  2.9999999E-02 -2.3137423E-38
  3.9999999E-02 -2.6351830E-38
  5.0000001E-02 -2.9692724E-38
  5.9999999E-02 -3.3069043E-38
  7.0000000E-02 -3.6449822E-38
  7.9999998E-02 -4.0056730E-38
  9.0000004E-02 -4.3906826E-38
  0.1000000     -4.7588320E-38
  0.1100000     -5.1083512E-38
  0.1200000     -5.4143712E-38
  0.1300000     -5.6964587E-38
  0.1400000     -5.9740577E-38
  0.1500000     -6.2322553E-38
  0.1600000     -6.4882030E-38
  0.1700000     -6.7227647E-38
  0.1800000     -6.9316344E-38
  0.1900000     -7.0935202E-38
  0.2000000     -7.2273824E-38
  0.2100000     -7.2307275E-38
  0.2200000     -7.0927904E-38
  0.2300000     -6.1083037E-38
  0.2400000     -3.5080605E-38
  0.2500000      0.0000000E+00
  0.2600000      3.8144900E-38
  0.2700000      7.9324328E-38
  0.2800000      1.2487629E-37
  0.2900000      1.7401850E-37
  0.3000000      2.2687186E-37
  0.3100000      2.8282391E-37
  0.3200000      3.3818179E-37
  0.3300000      3.7863972E-37
  0.3400000      4.0359171E-37
  0.3500000      4.2491051E-37
  0.3600000      4.3747901E-37
  0.3700000      4.4367535E-37
  0.3800000      4.4657301E-37
  0.3900000      4.4297358E-37
  0.4000000      4.3769927E-37
  0.4100000      4.3326610E-37
  0.4200000      4.2437887E-37
  0.4300000      4.1668841E-37
  0.4400000      4.2317873E-37
  0.4500000      4.3979790E-37
  0.4600000      4.5602893E-37
  0.4700000      4.6517037E-37
  0.4800000      4.8147709E-37
  0.4900000      5.0331439E-37
  0.5000000      5.1498858E-37
  0.5100000      5.3964762E-37
  0.5200000      5.8272613E-37
  0.5300000      6.2560717E-37
  0.5400000      6.6756532E-37
  0.5500000      7.0622815E-37
  0.5600000      7.2711763E-37
  0.5700000      7.1455271E-37
  0.5800000      6.7336158E-37
  0.5900000      6.1509003E-37
  0.6000000      5.2606305E-37
  0.6100000      3.9244339E-37
  0.6200000      2.2056987E-37
  0.6300000      2.5674717E-38
  0.6400000     -1.8858094E-37
  0.6500000     -4.2925566E-37
  0.6600000     -6.8113105E-37
  0.6700000     -9.3172671E-37
  0.6800000     -1.3527246E-36
  0.6900000     -1.9606412E-36
  0.7000000     -2.4316868E-36
  0.7100000     -2.7531792E-36
  0.7200000     -3.1006279E-36
  0.7300000     -3.4617128E-36
  0.7400000     -3.8229054E-36
  0.7500000     -4.2108082E-36
  0.7600000     -4.6065488E-36
  0.7700000     -5.0089225E-36
  0.7800000     -5.4469398E-36
  0.7900000     -5.8929654E-36
  0.8000000     -6.3281114E-36
  0.8100000     -6.7788960E-36
  0.8200000     -7.0438019E-36
  0.8300000     -6.7634841E-36
  0.8400000     -6.0374743E-36
  0.8500000     -5.3723041E-36
  0.8600000     -4.8940549E-36
  0.8700000     -4.4705469E-36
  0.8800000     -4.0829115E-36
  0.8900000     -3.1893736E-36
  0.9000000     -1.8343791E-36
  0.9100000     -5.3748993E-37
  0.9200000      4.3699235E-37
  0.9300000      8.9945667E-37
  0.9400000      1.2904267E-36
  0.9500000      1.7889418E-36
  0.9600000      2.4225590E-36
  0.9700000      3.2430669E-36
  0.9800000      4.1911618E-36
  0.9900000      5.1394085E-36
   1.000000      6.1040737E-36
   1.010000      7.3866009E-36
   1.020000      9.0454061E-36
   1.030000      1.1093760E-35
   1.040000      1.3640903E-35
   1.050000      1.6387416E-35
   1.060000      1.9336954E-35
   1.070000      2.2580799E-35
   1.080000      2.5481466E-35
   1.090000      2.8084428E-35
   1.100000      3.0988846E-35
   1.110000      3.4393777E-35
   1.120000      3.8212058E-35
   1.130000      4.2300801E-35
   1.140000      4.6344548E-35
   1.150000      5.0432921E-35
   1.160000      5.4713832E-35
   1.170000      5.9012187E-35
   1.180000      6.3075190E-35
   1.190000      6.7044401E-35
   1.200000      7.1378296E-35
   1.210000      7.6325284E-35
   1.220000      8.1429128E-35
   1.230000      8.5535030E-35
   1.240000      8.8483931E-35
   1.250000      9.0705943E-35
   1.260000      8.8958663E-35
   1.270000      8.3300873E-35
   1.280000      7.8362425E-35
   1.290000      7.4403047E-35
   1.300000      7.3958276E-35
   1.310000      7.6016396E-35
   1.320000      7.6212459E-35
   1.330000      7.5503385E-35
   1.340000      7.4078265E-35
   1.350000      7.2373947E-35
   1.360000      7.1157483E-35
   1.370000      6.6491471E-35
   1.380000      5.8308836E-35
   1.390000      4.9942261E-35
   1.400000      4.1004058E-35
   1.410000      3.1364368E-35
   1.420000      2.8219564E-35
   1.430000      3.1818414E-35
   1.440000      3.0489887E-35
   1.450000      2.3965479E-35
   1.460000      1.6403676E-35
   1.470000      7.5885407E-36
   1.480000     -2.7260824E-36
   1.490000     -1.3475147E-35
   1.500000     -2.5230368E-35
   1.510000     -4.0255217E-35
   1.520000     -5.8186798E-35
   1.530000     -7.7143125E-35
   1.540000     -9.7089302E-35
   1.550000     -1.1872643E-34
   1.560000     -1.4281245E-34
   1.570000     -1.6850132E-34
   1.580000     -1.8906077E-34
   1.590000     -2.0422368E-34
   1.600000     -2.1808800E-34
   1.610000     -2.3182569E-34
   1.620000     -2.4601350E-34
   1.630000     -2.5837625E-34
   1.640000     -2.6424606E-34
   1.650000     -2.6521490E-34
   1.660000     -2.7240328E-34
   1.670000     -2.8669001E-34
   1.680000     -2.9527598E-34
   1.690000     -2.9877207E-34
   1.700000     -3.0391265E-34
   1.710000     -3.1035801E-34
   1.720000     -3.1994690E-34
   1.730000     -3.3699331E-34
   1.740000     -3.5724185E-34
   1.750000     -3.7780421E-34
   1.760000     -4.0237856E-34
   1.770000     -4.2987401E-34
   1.780000     -4.6381830E-34
   1.790000     -5.0506304E-34
   1.800000     -5.5581501E-34
   1.810000     -6.1472978E-34
   1.820000     -6.7315230E-34
   1.830000     -7.2995811E-34
   1.840000     -7.8163983E-34
   1.850000     -8.2337814E-34
   1.860000     -8.5553223E-34
   1.870000     -8.7233904E-34
   1.880000     -8.7031921E-34
   1.890000     -8.5749438E-34
   1.900000     -8.3297118E-34
   1.910000     -7.9238247E-34
   1.920000     -7.4228510E-34
   1.930000     -6.9119100E-34
   1.940000     -6.4435655E-34
   1.950000     -6.0369097E-34
   1.960000     -5.7398535E-34
   1.970000     -5.6331567E-34
   1.980000     -5.7016476E-34
   1.990000     -6.0023901E-34
   2.000000     -6.6009100E-34
   2.010000     -7.4468352E-34
   2.020000     -8.5052774E-34
   2.030000     -9.7263121E-34
   2.040000     -1.1065852E-33
   2.050000     -1.2465359E-33
   2.060000     -1.3853932E-33
   2.070000     -1.5107366E-33
   2.080000     -1.6156038E-33
   2.090000     -1.7001564E-33
   2.100000     -1.7573859E-33
   2.110000     -1.7880011E-33
   2.120000     -1.7920799E-33
   2.130000     -1.7666185E-33
   2.140000     -1.7172016E-33
   2.150000     -1.6502638E-33
   2.160000     -1.5748111E-33
   2.170000     -1.5020809E-33
   2.180000     -1.4441782E-33
   2.190000     -1.4140223E-33
   2.200000     -1.4250822E-33
   2.210000     -1.4896724E-33
   2.220000     -1.6181124E-33
   2.230000     -1.8185311E-33
   2.240000     -2.0958017E-33
   2.250000     -2.4501567E-33
   2.260000     -2.8786231E-33
   2.270000     -3.3740078E-33
   2.280000     -3.9242784E-33
   2.290000     -4.5139152E-33
   2.300000     -5.1238047E-33
   2.310000     -5.7324947E-33
   2.320000     -6.3176261E-33
   2.330000     -6.8554096E-33
   2.340000     -7.3286092E-33
   2.350000     -7.7231867E-33
   2.360000     -8.0252601E-33
   2.370000     -8.2292884E-33
   2.380000     -8.3366794E-33
   2.390000     -8.3562095E-33
   2.400000     -8.3040146E-33
   2.410000     -8.2032204E-33
   2.420000     -8.0828938E-33
   2.430000     -7.9765021E-33
   2.440000     -7.9199365E-33
   2.450000     -7.9490947E-33
   2.460000     -8.0973789E-33
   2.470000     -8.3930598E-33
   2.480000     -8.8563948E-33
   2.490000     -9.4976263E-33
   2.500000     -1.0313344E-32
   2.510000     -1.1287593E-32
   2.520000     -1.2391171E-32
   2.530000     -1.3579149E-32
   2.540000     -1.4797790E-32
   2.550000     -1.5975916E-32
   2.560000     -1.7033711E-32
   2.570000     -1.7894402E-32
   2.580000     -1.8478510E-32
   2.590000     -1.8709784E-32
   2.600000     -1.8524717E-32
   2.610000     -1.7873766E-32
   2.620000     -1.6722346E-32
   2.630000     -1.5058562E-32
   2.640000     -1.2893543E-32
   2.650000     -1.0261872E-32
   2.660000     -7.2205688E-33
   2.670000     -3.8463876E-33
   2.680000     -2.3139023E-34
   2.690000      3.5228291E-33
   2.700000      7.3122904E-33
   2.710000      1.1038096E-32
   2.720000      1.4615096E-32
   2.730000      1.7980513E-32
   2.740000      2.1101080E-32
   2.750000      2.3979479E-32
   2.760000      2.6659125E-32
   2.770000      2.9226466E-32
   2.780000      3.1810758E-32
   2.790000      3.4581189E-32
   2.800000      3.7740971E-32
   2.810000      4.1517814E-32
   2.820000      4.6153755E-32
   2.830000      5.1892310E-32
   2.840000      5.8963032E-32
   2.850000      6.7567274E-32
   2.860000      7.7863753E-32
   2.870000      8.9955728E-32
   2.880000      1.0388065E-31
   2.890000      1.1960306E-31
   2.900000      1.3701175E-31
   2.910000      1.5592140E-31
   2.920000      1.7607934E-31
   2.930000      1.9717720E-31
   2.940000      2.1886713E-31
   2.950000      2.4078234E-31
   2.960000      2.6255934E-31
   2.970000      2.8386331E-31
   2.980000      3.0441361E-31
   2.990000      3.2400633E-31
   3.000000      3.4253487E-31
   3.010000      3.6000518E-31
   3.020000      3.7654491E-31
   3.030000      3.9240479E-31
   3.040000      4.0795193E-31
   3.050000      4.2365428E-31
   3.060000      4.4005689E-31
   3.070000      4.5775043E-31
   3.080000      4.7733341E-31
   3.090000      4.9937031E-31
   3.100000      5.2434750E-31
   3.110000      5.5263003E-31
   3.120000      5.8442184E-31
   3.130000      6.1973275E-31
   3.140000      6.5835414E-31
   3.150000      6.9984702E-31
   3.160000      7.4354264E-31
   3.170000      7.8855805E-31
   3.180000      8.3382601E-31
   3.190000      8.7813895E-31
   3.200000      9.2020538E-31
   3.210000      9.5871504E-31
   3.220000      9.9241073E-31
   3.230000      1.0201620E-30
   3.240000      1.0410353E-30
   3.250000      1.0543568E-30
   3.260000      1.0597625E-30
   3.270000      1.0572311E-30
   3.280000      1.0470958E-30
   3.290000      1.0300342E-30
   3.300000      1.0070316E-30
   3.310000      9.7932184E-31
   3.320000      9.4830402E-31
   3.330000      9.1544143E-31
   3.340000      8.8214560E-31
   3.350000      8.4965334E-31
   3.360000      8.1890334E-31
   3.370000      7.9042046E-31
   3.380000      7.6421681E-31
   3.390000      7.3971612E-31
   3.400000      7.1570989E-31
   3.410000      6.9034964E-31
   3.420000      6.6117927E-31
   3.430000      6.2520966E-31
   3.440000      5.7903281E-31
   3.450000      5.1897206E-31
   3.460000      4.4126219E-31
   3.470000      3.4224929E-31
   3.480000      2.1859973E-31
   3.490000      6.7504703E-32
   3.500000     -1.1313195E-31
   3.510000     -3.2453786E-31
   3.520000     -5.6695978E-31
   3.530000     -8.3960559E-31
   3.540000     -1.1406497E-30
   3.550000     -1.4673052E-30
   3.560000     -1.8159637E-30
   3.570000     -2.1824006E-30
   3.580000     -2.5620355E-30
   3.590000     -2.9502358E-30
   3.600000     -3.3426474E-30
   3.610000     -3.7355318E-30
   3.620000     -4.1260901E-30
   3.630000     -4.5127465E-30
   3.640000     -4.8953754E-30
   3.650000     -5.2754498E-30
   3.660000     -5.6560914E-30
   3.670000     -6.0420158E-30
   3.680000     -6.4393633E-30
   3.690000     -6.8554214E-30
   3.700000     -7.2982416E-30
   3.710000     -7.7761739E-30
   3.720000     -8.2973373E-30
   3.730000     -8.8690503E-30
   3.740000     -9.4972721E-30
   3.750000     -1.0186073E-29
   3.760000     -1.0937175E-29
   3.770000     -1.1749604E-29
   3.780000     -1.2619482E-29
   3.790000     -1.3539977E-29
   3.800000     -1.4501431E-29
   3.810000     -1.5491679E-29
   3.820000     -1.6496536E-29
   3.830000     -1.7500444E-29
   3.840000     -1.8487245E-29
   3.850000     -1.9441056E-29
   3.860000     -2.0347155E-29
   3.870000     -2.1192874E-29
   3.880000     -2.1968395E-29
   3.890000     -2.2667422E-29
   3.900000     -2.3287650E-29
   3.910000     -2.3831001E-29
   3.920000     -2.4303591E-29
   3.930000     -2.4715406E-29
   3.940000     -2.5079661E-29
   3.950000     -2.5411929E-29
   3.960000     -2.5728968E-29
   3.970000     -2.6047420E-29
   3.980000     -2.6382366E-29
   3.990000     -2.6745844E-29
   4.000000     -2.7145453E-29
   4.010000     -2.7583105E-29
   4.020000     -2.8054022E-29
   4.030000     -2.8546079E-29
   4.040000     -2.9039539E-29
   4.050000     -2.9507266E-29
   4.060000     -2.9915377E-29
   4.070000     -3.0224389E-29
   4.080000     -3.0390783E-29
   4.090000     -3.0368936E-29
   4.100000     -3.0113305E-29
   4.110000     -2.9580779E-29
   4.120000     -2.8733006E-29
   4.130000     -2.7538595E-29
   4.140000     -2.5975017E-29
   4.150000     -2.4030037E-29
   4.160000     -2.1702614E-29
   4.170000     -1.9003115E-29
   4.180000     -1.5952791E-29
   4.190000     -1.2582521E-29
   4.200000     -8.9308095E-30
   4.210000     -5.0411615E-30
   4.220000     -9.5891403E-31
   4.230000      3.2722776E-30
   4.240000      7.6140978E-30
   4.250000      1.2037179E-29
   4.260000      1.6524359E-29
   4.270000      2.1073404E-29
   4.280000      2.5698953E-29
   4.290000      3.0433503E-29
   4.300000      3.5327264E-29
   4.310000      4.0446867E-29
   4.320000      4.5872889E-29
   4.330000      5.1696227E-29
   4.340000      5.8013518E-29
   4.350000      6.4921822E-29
   4.360000      7.2512791E-29
   4.370000      8.0866759E-29
   4.380000      9.0047011E-29
   4.390000      1.0009470E-28
   4.400000      1.1102469E-28
   4.410000      1.2282280E-28
   4.420000      1.3544454E-28
   4.430000      1.4881566E-28
   4.440000      1.6283452E-28
   4.450000      1.7737635E-28
   4.460000      1.9229912E-28
   4.470000      2.0745085E-28
   4.480000      2.2267797E-28
   4.490000      2.3783432E-28
   4.500000      2.5278996E-28
   4.510000      2.6743969E-28
   4.520000      2.8171023E-28
   4.530000      2.9556573E-28
   4.540000      3.0901127E-28
   4.550000      3.2209349E-28
   4.560000      3.3489861E-28
   4.570000      3.4754754E-28
   4.580000      3.6018804E-28
   4.590000      3.7298472E-28
   4.600000      3.8610651E-28
   4.610000      3.9971318E-28
   4.620000      4.1394104E-28
   4.630000      4.2888890E-28
   4.640000      4.4460512E-28
   4.650000      4.6107683E-28
   4.660000      4.7822203E-28
   4.670000      4.9588526E-28
   4.680000      5.1383724E-28
   4.690000      5.3177935E-28
   4.700000      5.4935206E-28
   4.710000      5.6614800E-28
   4.720000      5.8172858E-28
   4.730000      5.9564324E-28
   4.740000      6.0745082E-28
   4.750000      6.1674151E-28
   4.760000      6.2315774E-28
   4.770000      6.2641324E-28
   4.780000      6.2630813E-28
   4.790000      6.2273982E-28
   4.800000      6.1570757E-28
   4.810000      6.0531073E-28
   4.820000      5.9174039E-28
   4.830000      5.7526410E-28
   4.840000      5.5620428E-28
   4.850000      5.3491163E-28
   4.860000      5.1173461E-28
   4.870000      4.8698660E-28
   4.880000      4.6091298E-28
   4.890000      4.3365991E-28
   4.900000      4.0524749E-28
   4.910000      3.7554919E-28
   4.920000      3.4427832E-28
   4.930000      3.1098436E-28
   4.940000      2.7505963E-28
   4.950000      2.3575602E-28
   4.960000      1.9221208E-28
   4.970000      1.4348956E-28
   4.980000      8.8616846E-29
   4.990000      2.6637847E-29
   5.000000     -4.3336466E-29
   5.010000     -1.2207704E-28
   5.020000     -2.1018973E-28
   5.030000     -3.0807515E-28
   5.040000     -4.1589846E-28
   5.050000     -5.3357220E-28
   5.060000     -6.6075320E-28
   5.070000     -7.9685491E-28
   5.080000     -9.4107582E-28
   5.090000     -1.0924422E-27
   5.100000     -1.2498647E-27
   5.110000     -1.4122048E-27
   5.120000     -1.5783475E-27
   5.130000     -1.7472776E-27
   5.140000     -1.9181515E-27
   5.150000     -2.0903633E-27
   5.160000     -2.2635988E-27
   5.170000     -2.4378724E-27
   5.180000     -2.6135439E-27
   5.190000     -2.7913136E-27
   5.200000     -2.9721923E-27
   5.210000     -3.1574487E-27
   5.220000     -3.3485366E-27
   5.230000     -3.5469990E-27
   5.240000     -3.7543639E-27
   5.250000     -3.9720271E-27
   5.260000     -4.2011365E-27
   5.270000     -4.4424802E-27
   5.280000     -4.6963906E-27
   5.290000     -4.9626650E-27
   5.300000     -5.2405155E-27
   5.310000     -5.5285495E-27
   5.320000     -5.8247825E-27
   5.330000     -6.1266886E-27
   5.340000     -6.4312864E-27
   5.350000     -6.7352536E-27
   5.360000     -7.0350693E-27
   5.370000     -7.3271758E-27
   5.380000     -7.6081467E-27
   5.390000     -7.8748571E-27
   5.400000     -8.1246410E-27
   5.410000     -8.3554221E-27
   5.420000     -8.5658223E-27
   5.430000     -8.7552174E-27
   5.440000     -8.9237502E-27
   5.450000     -9.0722910E-27
   5.460000     -9.2023460E-27
   5.470000     -9.3159157E-27
   5.480000     -9.4153060E-27
   5.490000     -9.5029089E-27
   5.500000     -9.5809553E-27
   5.510000     -9.6512648E-27
   5.520000     -9.7149923E-27
   5.530000     -9.7724074E-27
   5.540000     -9.8227042E-27
   5.550000     -9.8638713E-27
   5.560000     -9.8926216E-27
   5.570000     -9.9043960E-27
   5.580000     -9.8934482E-27
   5.590000     -9.8530052E-27
   5.600000     -9.7754989E-27
   5.610000     -9.6528626E-27
   5.620000     -9.4768773E-27
   5.630000     -9.2395403E-27
   5.640000     -8.9334492E-27
   5.650000     -8.5521651E-27
   5.660000     -8.0905405E-27
   5.670000     -7.5449785E-27
   5.680000     -6.9136116E-27
   5.690000     -6.1963888E-27
   5.700000     -5.3950448E-27
   5.710000     -4.5129531E-27
   5.720000     -3.5548753E-27
   5.730000     -2.5266042E-27
   5.740000     -1.4345188E-27
   5.750000     -2.8508176E-28
   5.760000      9.1569678E-28
   5.770000      2.1627964E-27
   5.780000      3.4526916E-27
   5.790000      4.7837846E-27
   5.800000      6.1567327E-27
   5.810000      7.5746578E-27
   5.820000      9.0431971E-27
   5.830000      1.0570386E-26
   5.840000      1.2166379E-26
   5.850000      1.3843010E-26
   5.860000      1.5613201E-26
   5.870000      1.7490260E-26
   5.880000      1.9487097E-26
   5.890000      2.1615411E-26
   5.900000      2.3884876E-26
   5.910000      2.6302404E-26
   5.920000      2.8871517E-26
   5.930000      3.1591873E-26
   5.940000      3.4458997E-26
   5.950000      3.7464228E-26
   5.960000      4.0594936E-26
   5.970000      4.3834942E-26
   5.980000      4.7165186E-26
   5.990000      5.0564594E-26
   6.000000      5.4011112E-26
   6.010000      5.7482784E-26
   6.020000      6.0958955E-26
   6.030000      6.4421315E-26
   6.040000      6.7854962E-26
   6.050000      7.1249159E-26
   6.060000      7.4597929E-26
   6.070000      7.7900310E-26
   6.080000      8.1160272E-26
   6.090000      8.4386312E-26
   6.100000      8.7590665E-26
   6.110000      9.0788245E-26
   6.120000      9.3995254E-26
   6.130000      9.7227649E-26
   6.140000      1.0049946E-25
   6.150000      1.0382112E-25
   6.160000      1.0719783E-25
   6.170000      1.1062818E-25
   6.180000      1.1410305E-25
   6.190000      1.1760485E-25
   6.200000      1.2110729E-25
   6.210000      1.2457556E-25
   6.220000      1.2796706E-25
   6.230000      1.3123264E-25
   6.240000      1.3431825E-25
   6.250000      1.3716694E-25
   6.260000      1.3972119E-25
   6.270000      1.4192532E-25
   6.280000      1.4372784E-25
   6.290000      1.4508376E-25
   6.300000      1.4595643E-25
   6.310000      1.4631907E-25
   6.320000      1.4615561E-25
   6.330000      1.4546095E-25
   6.340000      1.4424044E-25
   6.350000      1.4250876E-25
   6.360000      1.4028792E-25
   6.370000      1.3760487E-25
   6.380000      1.3448848E-25
   6.390000      1.3096632E-25
   6.400000      1.2706122E-25
   6.410000      1.2278795E-25
   6.420000      1.1815025E-25
   6.430000      1.1313834E-25
   6.440000      1.0772717E-25
   6.450000      1.0187538E-25
   6.460000      9.5525558E-26
   6.470000      8.8605165E-26
   6.480000      8.1028729E-26
   6.490000      7.2700903E-26
   6.500000      6.3520337E-26
   6.510000      5.3384214E-26
   6.520000      4.2193165E-26
   6.530000      2.9856213E-26
   6.540000      1.6295683E-26
   6.550000      1.4513664E-27
   6.560000     -1.4715946E-26
   6.570000     -3.2222013E-26
   6.580000     -5.1057996E-26
   6.590000     -7.1190672E-26
   6.600000     -9.2564113E-26
   6.610000     -1.1510289E-25
   6.620000     -1.3871642E-25
   6.630000     -1.6330446E-25
   6.640000     -1.8876344E-25
   6.650000     -2.1499312E-25
   6.660000     -2.4190333E-25
   6.670000     -2.6942043E-25
   6.680000     -2.9749251E-25
   6.690000     -3.2609382E-25
   6.700000     -3.5522734E-25
   6.710000     -3.8492562E-25
   6.720000     -4.1524938E-25
   6.730000     -4.4628450E-25
   6.740000     -4.7813643E-25
   6.750000     -5.1092337E-25
   6.760000     -5.4476777E-25
   6.770000     -5.7978668E-25
   6.780000     -6.1608227E-25
   6.790000     -6.5373174E-25
   6.800000     -6.9277844E-25
   6.810000     -7.3322417E-25
   6.820000     -7.7502345E-25
   6.830000     -8.1808026E-25
   6.840000     -8.6224696E-25
   6.850000     -9.0732651E-25
   6.860000     -9.5307788E-25
   6.870000     -9.9922329E-25
   6.880000     -1.0454585E-24
   6.890000     -1.0914649E-24
   6.900000     -1.1369222E-24
   6.910000     -1.1815226E-24
   6.920000     -1.2249833E-24
   6.930000     -1.2670590E-24
   6.940000     -1.3075510E-24
   6.950000     -1.3463150E-24
   6.960000     -1.3832639E-24
   6.970000     -1.4183685E-24
   6.980000     -1.4516518E-24
   6.990000     -1.4831825E-24
   7.000000     -1.5130617E-24
   7.010000     -1.5414091E-24
   7.020000     -1.5683446E-24
   7.030000     -1.5939708E-24
   7.040000     -1.6183532E-24
   7.050000     -1.6415024E-24
   7.060000     -1.6633590E-24