  -2.600000      0.0000000E+00
  -2.590000      0.0000000E+00
  -2.580000      0.0000000E+00
  -2.570000      0.0000000E+00
  -2.560000      0.0000000E+00
  -2.550000      0.0000000E+00
  -2.540000      0.0000000E+00
  -2.530000      0.0000000E+00
  -2.520000      0.0000000E+00
  -2.510000      0.0000000E+00
  -2.500000      0.0000000E+00
  -2.490000      0.0000000E+00
  -2.480000      0.0000000E+00
  -2.470000      0.0000000E+00
  -2.460000      0.0000000E+00
  -2.450000      0.0000000E+00
  -2.440000      0.0000000E+00
  -2.430000      0.0000000E+00
  -2.420000      0.0000000E+00
  -2.410000      0.0000000E+00
  -2.400000      0.0000000E+00
  -2.390000      0.0000000E+00
  -2.380000      0.0000000E+00
  -2.370000      0.0000000E+00
  -2.360000      0.0000000E+00
  -2.350000      0.0000000E+00
  -2.340000      0.0000000E+00
  -2.330000      0.0000000E+00
  -2.320000      0.0000000E+00
  -2.310000      0.0000000E+00
  -2.300000      0.0000000E+00
  -2.290000      0.0000000E+00
  -2.280000      0.0000000E+00
  -2.270000      0.0000000E+00
  -2.260000      0.0000000E+00
  -2.250000      0.0000000E+00
  -2.240000      0.0000000E+00
  -2.230000      0.0000000E+00
  -2.220000      0.0000000E+00
  -2.210000      0.0000000E+00
  -2.200000      0.0000000E+00
  -2.190000      0.0000000E+00
  -2.180000      0.0000000E+00
  -2.170000      0.0000000E+00
  -2.160000      0.0000000E+00
  -2.150000      0.0000000E+00
  -2.140000      0.0000000E+00
  -2.130000      0.0000000E+00
  -2.120000      0.0000000E+00
  -2.110000      0.0000000E+00
  -2.100000      0.0000000E+00
  -2.090000      0.0000000E+00
  -2.080000      0.0000000E+00
  -2.070000      0.0000000E+00
  -2.060000      0.0000000E+00
  -2.050000      0.0000000E+00
  -2.040000      0.0000000E+00
  -2.030000      0.0000000E+00
  -2.020000      0.0000000E+00
  -2.010000      0.0000000E+00
  -2.000000      0.0000000E+00
  -1.990000      0.0000000E+00
  -1.980000      0.0000000E+00
  -1.970000      0.0000000E+00
  -1.960000      0.0000000E+00
  -1.950000      0.0000000E+00
  -1.940000      0.0000000E+00
  -1.930000      0.0000000E+00
  -1.920000      0.0000000E+00
  -1.910000      0.0000000E+00
  -1.900000      0.0000000E+00
  -1.890000      0.0000000E+00
  -1.880000      0.0000000E+00
  -1.870000      0.0000000E+00
  -1.860000      0.0000000E+00
  -1.850000      0.0000000E+00
  -1.840000      0.0000000E+00
  -1.830000      0.0000000E+00
  -1.820000      0.0000000E+00
  -1.810000      0.0000000E+00
  -1.800000      0.0000000E+00
  -1.790000      0.0000000E+00
  -1.780000      0.0000000E+00
  -1.770000      0.0000000E+00
  -1.760000      0.0000000E+00
  -1.750000      0.0000000E+00
  -1.740000      0.0000000E+00
  -1.730000      0.0000000E+00
  -1.720000      0.0000000E+00
  -1.710000      0.0000000E+00
  -1.700000      0.0000000E+00
  -1.690000      0.0000000E+00
  -1.680000      0.0000000E+00
  -1.670000      0.0000000E+00
  -1.660000      0.0000000E+00
  -1.650000      0.0000000E+00
  -1.640000      0.0000000E+00
  -1.630000      0.0000000E+00
  -1.620000      0.0000000E+00
  -1.610000      0.0000000E+00
  -1.600000      0.0000000E+00
  -1.590000      0.0000000E+00
  -1.580000      0.0000000E+00
  -1.570000      0.0000000E+00
  -1.560000      0.0000000E+00
  -1.550000      0.0000000E+00
  -1.540000      0.0000000E+00
  -1.530000      0.0000000E+00
  -1.520000      0.0000000E+00
  -1.510000      0.0000000E+00
  -1.500000      0.0000000E+00
  -1.490000      0.0000000E+00
  -1.480000      0.0000000E+00
  -1.470000      0.0000000E+00
  -1.460000      0.0000000E+00
  -1.450000      0.0000000E+00
  -1.440000      0.0000000E+00
  -1.430000      0.0000000E+00
  -1.420000      0.0000000E+00
  -1.410000      0.0000000E+00
  -1.400000      0.0000000E+00
  -1.390000      0.0000000E+00
  -1.380000      0.0000000E+00
  -1.370000      0.0000000E+00
  -1.360000      0.0000000E+00
  -1.350000      0.0000000E+00
  -1.340000      0.0000000E+00
  -1.330000      0.0000000E+00
  -1.320000      0.0000000E+00
  -1.310000      0.0000000E+00
  -1.300000      0.0000000E+00
  -1.290000      0.0000000E+00
  -1.280000      0.0000000E+00
  -1.270000      0.0000000E+00
  -1.260000      0.0000000E+00
  -1.250000      0.0000000E+00
  -1.240000      0.0000000E+00
  -1.230000      0.0000000E+00
  -1.220000      1.4400906E-38
  -1.210000      2.0103932E-38
  -1.200000      2.6677483E-38
  -1.190000      3.4185343E-38
  -1.180000      4.2755682E-38
  -1.170000      5.3396198E-38
  -1.160000      6.6503854E-38
  -1.150000      8.1626734E-38
  -1.140000      9.8778571E-38
  -1.130000      1.1782278E-37
  -1.120000      1.3817468E-37
  -1.110000      1.5959424E-37
  -1.100000      1.7334398E-37
  -1.090000      1.7806699E-37
  -1.080000      2.0820573E-37
  -1.070000      2.6883936E-37
  -1.060000      3.5592752E-37
  -1.050000      4.7008187E-37
  -1.040000      6.0114372E-37
  -1.030000      7.5796382E-37
  -1.020000      9.5092876E-37
  -1.010000      1.1471441E-36
  -1.000000      1.3328382E-36
 -0.9900000      1.5376075E-36
 -0.9800000      1.7628919E-36
 -0.9700000      1.9550613E-36
 -0.9600000      2.1071502E-36
 -0.9500000      2.2609456E-36
 -0.9400000      2.4098108E-36
 -0.9300000      2.5433281E-36
 -0.9200000      2.6508668E-36
 -0.9100000      2.7921702E-36
 -0.9000000      2.9338835E-36
 -0.8900000      3.0157245E-36
 -0.8800000      3.0904481E-36
 -0.8700000      3.1516095E-36
 -0.8600000      3.3110000E-36
 -0.8500000      3.6069934E-36
 -0.8400000      4.0149288E-36
 -0.8300000      4.5333717E-36
 -0.8200000      4.8406558E-36
 -0.8100000      4.9796804E-36
 -0.8000000      5.2090173E-36
 -0.7900000      5.4413285E-36
 -0.7800000      5.6543065E-36
 -0.7700000      5.9335147E-36
 -0.7600000      6.2656460E-36
 -0.7500000      6.7564867E-36
 -0.7400000      7.6339763E-36
 -0.7300000      8.8364064E-36
 -0.7200000      9.9521926E-36
 -0.7100000      1.0804573E-35
 -0.7000000      1.1563574E-35
 -0.6900000      1.2302893E-35
 -0.6800000      1.2748634E-35
 -0.6700000      1.2868961E-35
 -0.6600000      1.2642955E-35
 -0.6500000      1.1851052E-35
 -0.6400000      1.0467543E-35
 -0.6300000      8.4502934E-36
 -0.6200000      5.5822630E-36
 -0.6100000      2.1037064E-36
 -0.6000000     -1.7728254E-36
 -0.5900000     -6.4378068E-36
 -0.5800000     -1.2132565E-35
 -0.5700000     -1.8956977E-35
 -0.5600000     -2.6771413E-35
 -0.5500000     -3.6299421E-35
 -0.5400000     -4.7877885E-35
 -0.5300000     -6.0711654E-35
 -0.5200000     -7.4739785E-35
 -0.5100000     -8.9186369E-35
 -0.5000000     -1.0382169E-34
 -0.4900000     -1.1988822E-34
 -0.4800000     -1.3846380E-34
 -0.4700000     -1.6061376E-34
 -0.4600000     -1.8695757E-34
 -0.4500000     -2.1888435E-34
 -0.4400000     -2.5707400E-34
 -0.4300000     -3.0102523E-34
 -0.4200000     -3.5140453E-34
 -0.4100000     -4.0932628E-34
 -0.4000000     -4.7584544E-34
 -0.3900000     -5.5142486E-34
 -0.3800000     -6.3513571E-34
 -0.3700000     -7.3053920E-34
 -0.3600000     -8.4055064E-34
 -0.3500000     -9.6264621E-34
 -0.3400000     -1.0937868E-33
 -0.3300000     -1.2325962E-33
 -0.3200000     -1.3770850E-33
 -0.3100000     -1.5275682E-33
 -0.3000000     -1.6904272E-33
 -0.2900000     -1.8662413E-33
 -0.2800000     -2.0539602E-33
 -0.2700000     -2.2526325E-33
 -0.2600000     -2.4593777E-33
 -0.2500000     -2.6734116E-33
 -0.2400000     -2.8966929E-33
 -0.2300000     -3.1206484E-33
 -0.2200000     -3.3415491E-33
 -0.2100000     -3.5668808E-33
 -0.2000000     -3.7971234E-33
 -0.1900000     -4.0345920E-33
 -0.1800000     -4.2798688E-33
 -0.1700000     -4.5323488E-33
 -0.1600000     -4.7932321E-33
 -0.1500000     -5.0631539E-33
 -0.1400000     -5.3406466E-33
 -0.1300000     -5.6235686E-33
 -0.1200000     -5.9114244E-33
 -0.1100000     -6.2009024E-33
 -0.1000000     -6.4856821E-33
 -9.0000004E-02 -6.7595789E-33
 -7.9999998E-02 -7.0161790E-33
 -7.0000000E-02 -7.2477698E-33
 -5.9999999E-02 -7.4448818E-33
 -5.0000001E-02 -7.5977850E-33
 -3.9999999E-02 -7.6980003E-33
 -2.9999999E-02 -7.7334943E-33
 -2.0000000E-02 -7.6921331E-33
 -9.9999998E-03 -7.5672875E-33
 -3.4694470E-17 -7.3541336E-33
  9.9999998E-03 -7.0474508E-33
  2.0000000E-02 -6.6426818E-33
  2.9999999E-02 -6.1404225E-33
  3.9999999E-02 -5.5407922E-33
  5.0000001E-02 -4.8434871E-33
  5.9999999E-02 -4.0580636E-33
  7.0000000E-02 -3.1984529E-33
  7.9999998E-02 -2.2680126E-33
  9.0000004E-02 -1.2750652E-33
  0.1000000     -2.2762112E-34
  0.1100000      8.7574118E-34
  0.1200000      2.0276243E-33
  0.1300000      3.2234417E-33
  0.1400000      4.4541634E-33
  0.1500000      5.7129565E-33
  0.1600000      7.0134959E-33
  0.1700000      8.3728317E-33
  0.1800000      9.8005945E-33
  0.1900000      1.1304586E-32
  0.2000000      1.2898767E-32
  0.2100000      1.4594432E-32
  0.2200000      1.6400478E-32
  0.2300000      1.8322519E-32
  0.2400000      2.0357612E-32
  0.2500000      2.2496223E-32
  0.2600000      2.4717540E-32
  0.2700000      2.6990197E-32
  0.2800000      2.9267837E-32
  0.2900000      3.1497974E-32
  0.3000000      3.3616955E-32
  0.3100000      3.5545004E-32
  0.3200000      3.7195753E-32
  0.3300000      3.8476111E-32
  0.3400000      3.9291545E-32
  0.3500000      3.9549028E-32
  0.3600000      3.9161318E-32
  0.3700000      3.8051919E-32
  0.3800000      3.6154574E-32
  0.3900000      3.3420480E-32
  0.4000000      2.9824281E-32
  0.4100000      2.5360218E-32
  0.4200000      2.0044295E-32
  0.4300000      1.3912577E-32
  0.4400000      7.0198884E-33
  0.4500000     -5.6679403E-34
  0.4600000     -8.7726827E-33
  0.4700000     -1.7520576E-32
  0.4800000     -2.6741151E-32
  0.4900000     -3.6378338E-32
  0.5000000     -4.6398402E-32
  0.5100000     -5.6797019E-32
  0.5200000     -6.7603573E-32
  0.5300000     -7.8883841E-32
  0.5400000     -9.0741846E-32
  0.5500000     -1.0331680E-31
  0.5600000     -1.1677601E-31
  0.5700000     -1.3130673E-31
  0.5800000     -1.4710324E-31
  0.5900000     -1.6435137E-31
  0.6000000     -1.8321067E-31
  0.6100000     -2.0379574E-31
  0.6200000     -2.2615679E-31
  0.6300000     -2.5026160E-31
  0.6400000     -2.7597946E-31
  0.6500000     -3.0306908E-31
  0.6600000     -3.3117104E-31
  0.6700000     -3.5980631E-31
  0.6800000     -3.8838122E-31
  0.6900000     -4.1619906E-31
  0.7000000     -4.4247972E-31
  0.7100000     -4.6638486E-31
  0.7200000     -4.8704789E-31
  0.7300000     -5.0360872E-31
  0.7400000     -5.1524983E-31
  0.7500000     -5.2123145E-31
  0.7600000     -5.2092399E-31
  0.7700000     -5.1383449E-31
  0.7800000     -4.9962422E-31
  0.7900000     -4.7811615E-31
  0.8000000     -4.4928965E-31
  0.8100000     -4.1326121E-31
  0.8200000     -3.7025197E-31
  0.8300000     -3.2054121E-31
  0.8400000     -2.6440851E-31
  0.8500000     -2.0206684E-31
  0.8600000     -1.3359047E-31
  0.8700000     -5.8841497E-32
  0.8800000      2.2598776E-32
  0.8900000      1.1148975E-31
  0.9000000      2.0897656E-31
  0.9100000      3.1661503E-31
  0.9200000      4.3637298E-31
  0.9300000      5.7060461E-31
  0.9400000      7.2199676E-31
  0.9500000      8.9348611E-31
  0.9600000      1.0881517E-30
  0.9700000      1.3090855E-30
  0.9800000      1.5592461E-30
  0.9900000      1.8413070E-30
   1.000000      2.1575050E-30
   1.010000      2.5095014E-30
   1.020000      2.8982669E-30
   1.030000      3.3239978E-30
   1.040000      3.7860762E-30
   1.050000      4.2830764E-30
   1.060000      4.8128286E-30
   1.070000      5.3725362E-30
   1.080000      5.9589461E-30
   1.090000      6.5685654E-30
   1.100000      7.1979149E-30
   1.110000      7.8438094E-30
   1.120000      8.5036352E-30
   1.130000      9.1756253E-30
   1.140000      9.8590942E-30
   1.150000      1.0554619E-29
   1.160000      1.1264155E-29
   1.170000      1.1991053E-29
   1.180000      1.2739989E-29
   1.190000      1.3516771E-29
   1.200000      1.4328061E-29
   1.210000      1.5180988E-29
   1.220000      1.6082674E-29
   1.230000      1.7039721E-29
   1.240000      1.8057644E-29
   1.250000      1.9140333E-29
   1.260000      2.0289541E-29
   1.270000      2.1504463E-29
   1.280000      2.2781436E-29
   1.290000      2.4113783E-29
   1.300000      2.5491859E-29
   1.310000      2.6903264E-29
   1.320000      2.8333297E-29
   1.330000      2.9765578E-29
   1.340000      3.1182855E-29
   1.350000      3.2567948E-29
   1.360000      3.3904790E-29
   1.370000      3.5179491E-29
   1.380000      3.6381361E-29
   1.390000      3.7503838E-29
   1.400000      3.8545207E-29
   1.410000      3.9509081E-29
   1.420000      4.0404581E-29
   1.430000      4.1246140E-29
   1.440000      4.2052948E-29
   1.450000      4.2848026E-29
   1.460000      4.3656935E-29
   1.470000      4.4506201E-29
   1.480000      4.5421523E-29
   1.490000      4.6425856E-29
   1.500000      4.7537500E-29
   1.510000      4.8768314E-29
   1.520000      5.0122215E-29
   1.530000      5.1594074E-29
   1.540000      5.3169130E-29
   1.550000      5.4823010E-29
   1.560000      5.6522427E-29
   1.570000      5.8226580E-29
   1.580000      5.9889265E-29
   1.590000      6.1461492E-29
   1.600000      6.2894703E-29
   1.610000      6.4144240E-29
   1.620000      6.5172958E-29
   1.630000      6.5954735E-29
   1.640000      6.6477595E-29
   1.650000      6.6746256E-29
   1.660000      6.6783800E-29
   1.670000      6.6632355E-29
   1.680000      6.6352566E-29
   1.690000      6.6021781E-29
   1.700000      6.5731002E-29
   1.710000      6.5580593E-29
   1.720000      6.5674969E-29
   1.730000      6.6116525E-29
   1.740000      6.6999082E-29
   1.750000      6.8401304E-29
   1.760000      7.0380450E-29
   1.770000      7.2966931E-29
   1.780000      7.6160189E-29
   1.790000      7.9926123E-29
   1.800000      8.4196559E-29
   1.810000      8.8870840E-29
   1.820000      9.3819757E-29
   1.830000      9.8891592E-29
   1.840000      1.0392025E-28
   1.850000      1.0873503E-28
   1.860000      1.1317140E-28
   1.870000      1.1708242E-28
   1.880000      1.2034980E-28
   1.890000      1.2289393E-28
   1.900000      1.2468207E-28
   1.910000      1.2573401E-28
   1.920000      1.2612439E-28
   1.930000      1.2598134E-28
   1.940000      1.2548115E-28
   1.950000      1.2483872E-28
   1.960000      1.2429437E-28
   1.970000      1.2409700E-28
   1.980000      1.2448483E-28
   1.990000      1.2566462E-28
   2.000000      1.2779022E-28
   2.010000      1.3094241E-28
   2.020000      1.3511083E-28
   2.030000      1.4017983E-28
   2.040000      1.4591929E-28
   2.050000      1.5198142E-28
   2.060000      1.5790432E-28
   2.070000      1.6312280E-28
   2.080000      1.6698606E-28
   2.090000      1.6878176E-28
   2.100000      1.6776559E-28
   2.110000      1.6319458E-28
   2.120000      1.5436241E-28
   2.130000      1.4063434E-28
   2.140000      1.2147968E-28
   2.150000      9.6498816E-29
   2.160000      6.5443154E-29
   2.170000      2.8225316E-29
   2.180000     -1.5081476E-29
   2.190000     -6.4256113E-29
   2.200000     -1.1895480E-28
   2.210000     -1.7874752E-28
   2.220000     -2.4316536E-28
   2.230000     -3.1175574E-28
   2.240000     -3.8414288E-28
   2.250000     -4.6009012E-28
   2.260000     -5.3955991E-28
   2.270000     -6.2276726E-28
   2.280000     -7.1022220E-28
   2.290000     -8.0275832E-28
   2.300000     -9.0154360E-28
   2.310000     -1.0080703E-27
   2.320000     -1.1241246E-27
   2.330000     -1.2517347E-27
   2.340000     -1.3930991E-27
   2.350000     -1.5504981E-27
   2.360000     -1.7261933E-27
   2.370000     -1.9223184E-27
   2.380000     -2.1407715E-27
   2.390000     -2.3831122E-27
   2.400000     -2.6504719E-27
   2.410000     -2.9434856E-27
   2.420000     -3.2622488E-27
   2.430000     -3.6063057E-27
   2.440000     -3.9746734E-27
   2.450000     -4.3658983E-27
   2.460000     -4.7781509E-27
   2.470000     -5.2093497E-27
   2.480000     -5.6573087E-27
   2.490000     -6.1199036E-27
   2.500000     -6.5952462E-27
   2.510000     -7.0818516E-27
   2.520000     -7.5787901E-27
   2.530000     -8.0858150E-27
   2.540000     -8.6034426E-27
   2.550000     -9.1329932E-27
   2.560000     -9.6765669E-27
   2.570000     -1.0236970E-26
   2.580000     -1.0817569E-26
   2.590000     -1.1422094E-26
   2.600000     -1.2054400E-26
   2.610000     -1.2718168E-26
   2.620000     -1.3416607E-26
   2.630000     -1.4152140E-26
   2.640000     -1.4926099E-26
   2.650000     -1.5738458E-26
   2.660000     -1.6587620E-26
   2.670000     -1.7470283E-26
   2.680000     -1.8381367E-26
   2.690000     -1.9314064E-26
   2.700000     -2.0259973E-26
   2.710000     -2.1209334E-26
   2.720000     -2.2151359E-26
   2.730000     -2.3074625E-26
   2.740000     -2.3967537E-26
   2.750000     -2.4818809E-26
   2.760000     -2.5617941E-26
   2.770000     -2.6355661E-26
   2.780000     -2.7024313E-26
   2.790000     -2.7618122E-26
   2.800000     -2.8133344E-26
   2.810000     -2.8568274E-26
   2.820000     -2.8923095E-26
   2.830000     -2.9199535E-26
   2.840000     -2.9400408E-26
   2.850000     -2.9528990E-26
   2.860000     -2.9588281E-26
   2.870000     -2.9580226E-26
   2.880000     -2.9504880E-26
   2.890000     -2.9359597E-26
   2.900000     -2.9138346E-26
   2.910000     -2.8831094E-26
   2.920000     -2.8423423E-26
   2.930000     -2.7896353E-26
   2.940000     -2.7226412E-26
   2.950000     -2.6385998E-26
   2.960000     -2.5343987E-26
   2.970000     -2.4066601E-26
   2.980000     -2.2518498E-26
   2.990000     -2.0664010E-26
   3.000000     -1.8468494E-26
   3.010000     -1.5899693E-26
   3.020000     -1.2929033E-26
   3.030000     -9.5327377E-27
   3.040000     -5.6927465E-27
   3.050000     -1.3972867E-27
   3.060000      3.3589139E-27
   3.070000      8.5748356E-27
   3.080000      1.4243800E-26
   3.090000      2.0354530E-26
   3.100000      2.6892570E-26
   3.110000      3.3842031E-26
   3.120000      4.1187525E-26
   3.130000      4.8916232E-26
   3.140000      5.7019902E-26
   3.150000      6.5496699E-26
   3.160000      7.4352760E-26
   3.170000      8.3603226E-26
   3.180000      9.3272787E-26
   3.190000      1.0339557E-25
   3.200000      1.1401434E-25
   3.210000      1.2517894E-25
   3.220000      1.3694422E-25
   3.230000      1.4936714E-25
   3.240000      1.6250366E-25
   3.250000      1.7640516E-25
   3.260000      1.9111494E-25
   3.270000      2.0666457E-25
   3.280000      2.2307083E-25
   3.290000      2.4033313E-25
   3.300000      2.5843170E-25
   3.310000      2.7732649E-25
   3.320000      2.9695764E-25
   3.330000      3.1724640E-25
   3.340000      3.3809760E-25
   3.350000      3.5940288E-25
   3.360000      3.8104496E-25
   3.370000      4.0290237E-25
   3.380000      4.2485450E-25
   3.390000      4.4678695E-25
   3.400000      4.6859630E-25
   3.410000      4.9019412E-25
   3.420000      5.1151043E-25
   3.430000      5.3249536E-25
   3.440000      5.5311944E-25
   3.450000      5.7337246E-25
   3.460000      5.9326013E-25
   3.470000      6.1279953E-25
   3.480000      6.3201268E-25
   3.490000      6.5091906E-25
   3.500000      6.6952750E-25
   3.510000      6.8782720E-25
   3.520000      7.0577941E-25
   3.530000      7.2330962E-25
   3.540000      7.4030085E-25
   3.550000      7.5658905E-25
   3.560000      7.7196040E-25
   3.570000      7.8615141E-25
   3.580000      7.9885143E-25
   3.590000      8.0970813E-25
   3.600000      8.1833561E-25
   3.610000      8.2432430E-25
   3.620000      8.2725338E-25
   3.630000      8.2670335E-25
   3.640000      8.2226995E-25
   3.650000      8.1357690E-25
   3.660000      8.0028765E-25
   3.670000      7.8211486E-25
   3.680000      7.5882685E-25
   3.690000      7.3025086E-25
   3.700000      6.9627196E-25
   3.710000      6.5682783E-25
   3.720000      6.1189983E-25
   3.730000      5.6150039E-25
   3.740000      5.0565629E-25
   3.750000      4.4439084E-25
   3.760000      3.7770451E-25
   3.770000      3.0555514E-25
   3.780000      2.2783977E-25
   3.790000      1.4437937E-25
   3.800000      5.4907012E-26
   3.810000     -4.0938772E-26
   3.820000     -1.4361451E-25
   3.830000     -2.5366633E-25
   3.840000     -3.7171809E-25
   3.850000     -4.9845246E-25
   3.860000     -6.3458698E-25
   3.870000     -7.8084499E-25
   3.880000     -9.3792406E-25
   3.890000     -1.1064626E-24
   3.900000     -1.2870069E-24
   3.910000     -1.4799813E-24
   3.920000     -1.6856611E-24
   3.930000     -1.9041544E-24
   3.940000     -2.1353901E-24
   3.950000     -2.3791150E-24
   3.960000     -2.6349017E-24
   3.970000     -2.9021660E-24
   3.980000     -3.1801912E-24
   3.990000     -3.4681643E-24
   4.000000     -3.7652146E-24
   4.010000     -4.0704588E-24
   4.020000     -4.3830461E-24
   4.030000     -4.7022007E-24
   4.040000     -5.0272603E-24
   4.050000     -5.3577062E-24
   4.060000     -5.6931827E-24
   4.070000     -6.0335048E-24
   4.080000     -6.3786484E-24
   4.090000     -6.7287303E-24
   4.100000     -7.0839694E-24
   4.110000     -7.4446350E-24
   4.120000     -7.8109875E-24
   4.130000     -8.1832076E-24
   4.140000     -8.5613181E-24
   4.150000     -8.9451147E-24
   4.160000     -9.3340910E-24
   4.170000     -9.7273783E-24
   4.180000     -1.0123702E-23
   4.190000     -1.0521345E-23
   4.200000     -1.0918139E-23
   4.210000     -1.1311484E-23
   4.220000     -1.1698369E-23
   4.230000     -1.2075443E-23
   4.240000     -1.2439081E-23
   4.250000     -1.2785483E-23
   4.260000     -1.3110773E-23
   4.270000     -1.3411109E-23
   4.280000     -1.3682788E-23
   4.290000     -1.3922349E-23
   4.300000     -1.4126648E-23
   4.310000     -1.4292924E-23
   4.320000     -1.4418837E-23
   4.330000     -1.4502463E-23
   4.340000     -1.4542271E-23
   4.350000     -1.4537061E-23
   4.360000     -1.4485864E-23
   4.370000     -1.4387832E-23
   4.380000     -1.4242092E-23
   4.390000     -1.4047587E-23
   4.400000     -1.3802934E-23
   4.410000     -1.3506260E-23
   4.420000     -1.3155078E-23
   4.430000     -1.2746176E-23
   4.440000     -1.2275551E-23
   4.450000     -1.1738380E-23
   4.460000     -1.1129047E-23
   4.470000     -1.0441211E-23
   4.480000     -9.6679369E-24
   4.490000     -8.8018504E-24
   4.500000     -7.8353617E-24
   4.510000     -6.7608914E-24
   4.520000     -5.5711266E-24
   4.530000     -4.2592781E-24
   4.540000     -2.8193149E-24
   4.550000     -1.2461878E-24
   4.560000      4.6400646E-25
   4.570000      2.3139101E-24
   4.580000      4.3048451E-24
   4.590000      6.4368360E-24
   4.600000      8.7087104E-24
   4.610000      1.1118255E-23
   4.620000      1.3662438E-23
   4.630000      1.6337696E-23
   4.640000      1.9140236E-23
   4.650000      2.2066364E-23
   4.660000      2.5112802E-23
   4.670000      2.8276994E-23
   4.680000      3.1557342E-23
   4.690000      3.4953373E-23
   4.700000      3.8465814E-23
   4.710000      4.2096612E-23
   4.720000      4.5848779E-23
   4.730000      4.9726160E-23
   4.740000      5.3733128E-23
   4.750000      5.7874124E-23
   4.760000      6.2153196E-23
   4.770000      6.6573461E-23
   4.780000      7.1136536E-23
   4.790000      7.5842021E-23
   4.800000      8.0687035E-23
   4.810000      8.5665776E-23
   4.820000      9.0769277E-23
   4.830000      9.5985206E-23
   4.840000      1.0129791E-22
   4.850000      1.0668851E-22
   4.860000      1.1213529E-22
   4.870000      1.1761407E-22
   4.880000      1.2309885E-22
   4.890000      1.2856243E-22
   4.900000      1.3397714E-22
   4.910000      1.3931559E-22
   4.920000      1.4455133E-22
   4.930000      1.4965949E-22
   4.940000      1.5461725E-22
   4.950000      1.5940415E-22
   4.960000      1.6400212E-22
   4.970000      1.6839551E-22
   4.980000      1.7257066E-22
   4.990000      1.7651534E-22
   5.000000      1.8021809E-22
   5.010000      1.8366723E-22
   5.020000      1.8684992E-22
   5.030000      1.8975104E-22
   5.040000      1.9235214E-22
   5.050000      1.9463050E-22
   5.060000      1.9655829E-22
   5.070000      1.9810196E-22
   5.080000      1.9922196E-22
   5.090000      1.9987265E-22
   5.100000      2.0000262E-22
   5.110000      1.9955534E-22
   5.120000      1.9847010E-22
   5.130000      1.9668317E-22
   5.140000      1.9412939E-22
   5.150000      1.9074364E-22
   5.160000      1.8646252E-22
   5.170000      1.8122601E-22
   5.180000      1.7497893E-22
   5.190000      1.6767212E-22
   5.200000      1.5926348E-22
   5.210000      1.4971850E-22
   5.220000      1.3901034E-22
   5.230000      1.2711953E-22
   5.240000      1.1403310E-22
   5.250000      9.9743428E-23
   5.260000      8.4246590E-23
   5.270000      6.7540586E-23
   5.280000      4.9623314E-23
   5.290000      3.0490493E-23
   5.300000      1.0133810E-23
   5.310000     -1.1460795E-23
   5.320000     -3.4314411E-23
   5.330000     -5.8455906E-23
   5.340000     -8.3922172E-23
   5.350000     -1.1075765E-22
   5.360000     -1.3901322E-22
   5.370000     -1.6874438E-22
   5.380000     -2.0000888E-22
   5.390000     -2.3286379E-22
   5.400000     -2.6736243E-22
   5.410000     -3.0355085E-22
   5.420000     -3.4146436E-22
   5.430000     -3.8112445E-22
   5.440000     -4.2253591E-22
   5.450000     -4.6568471E-22
   5.460000     -5.1053634E-22
   5.470000     -5.5703531E-22
   5.480000     -6.0510534E-22
   5.490000     -6.5465070E-22
   5.500000     -7.0555851E-22
   5.510000     -7.5770123E-22
   5.520000     -8.1094073E-22
   5.530000     -8.6513197E-22
   5.540000     -9.2012726E-22
   5.550000     -9.7578050E-22
   5.560000     -1.0319510E-21
   5.570000     -1.0885065E-21
   5.580000     -1.1453249E-21
   5.590000     -1.2022965E-21
   5.600000     -1.2593230E-21
   5.610000     -1.3163167E-21
   5.620000     -1.3731972E-21
   5.630000     -1.4298879E-21
   5.640000     -1.4863115E-21
   5.650000     -1.5423836E-21
   5.660000     -1.5980063E-21
   5.670000     -1.6530628E-21
   5.680000     -1.7074104E-21
   5.690000     -1.7608757E-21
   5.700000     -1.8132496E-21
   5.710000     -1.8642852E-21
   5.720000     -1.9136953E-21
   5.730000     -1.9611540E-21
   5.740000     -2.0062983E-21
   5.750000     -2.0487327E-21
   5.760000     -2.0880347E-21
   5.770000     -2.1237622E-21
   5.780000     -2.1554620E-21
   5.790000     -2.1826790E-21
   5.800000     -2.2049652E-21
   5.810000     -2.2218883E-21
   5.820000     -2.2330395E-21
   5.830000     -2.2380395E-21
   5.840000     -2.2365429E-21
   5.850000     -2.2282404E-21
   5.860000     -2.2128580E-21
   5.870000     -2.1901537E-21
   5.880000     -2.1599136E-21
   5.890000     -2.1219416E-21
   5.900000     -2.0760523E-21
   5.910000     -2.0220594E-21
   5.920000     -1.9597654E-21
   5.930000     -1.8889499E-21
   5.940000     -1.8093596E-21
   5.950000     -1.7207009E-21
   5.960000     -1.6226331E-21
   5.970000     -1.5147655E-21
   5.980000     -1.3966585E-21
   5.990000     -1.2678276E-21
   6.000000     -1.1277508E-21
   6.010000     -9.7587986E-22
   6.020000     -8.1165401E-22
   6.030000     -6.3451675E-22
   6.040000     -4.4393406E-22
   6.050000     -2.3941325E-22
   6.060000     -2.0520404E-23
   6.070000      2.1310253E-22
   6.080000      4.6172344E-22
   6.090000      7.2550939E-22
   6.100000      1.0045198E-21
   6.110000      1.2987043E-21
   6.120000      1.6079057E-21
   6.130000      1.9318688E-21
   6.140000      2.2702499E-21
   6.150000      2.6226351E-21
   6.160000      2.9885585E-21
   6.170000      3.3675238E-21
   6.180000      3.7590233E-21
   6.190000      4.1625594E-21
   6.200000      4.5776615E-21
   6.210000      5.0039003E-21
   6.220000      5.4408948E-21
   6.230000      5.8883167E-21
   6.240000      6.3458857E-21
   6.250000      6.8133575E-21
   6.260000      7.2905114E-21
   6.270000      7.7771214E-21
   6.280000      8.2729298E-21
   6.290000      8.7776206E-21
   6.300000      9.2907804E-21
   6.310000      9.8118662E-21
   6.320000      1.0340177E-20
   6.330000      1.0874826E-20
   6.340000      1.1414718E-20
   6.350000      1.1958538E-20
   6.360000      1.2504744E-20
   6.370000      1.3051571E-20
   6.380000      1.3597046E-20
   6.390000      1.4139013E-20
   6.400000      1.4675157E-20
   6.410000      1.5203047E-20
   6.420000      1.5720173E-20
   6.430000      1.6223997E-20
   6.440000      1.6711990E-20
   6.450000      1.7181667E-20
   6.460000      1.7630634E-20
   6.470000      1.8056605E-20
   6.480000      1.8457417E-20
   6.490000      1.8831043E-20
   6.500000      1.9175573E-20
   6.510000      1.9489206E-20
   6.520000      1.9770206E-20
   6.530000      2.0016871E-20
   6.540000      2.0227480E-20
   6.550000      2.0400237E-20
   6.560000      2.0533226E-20
   6.570000      2.0624345E-20
   6.580000      2.0671274E-20
   6.590000      2.0671428E-20
   6.600000      2.0621941E-20
   6.610000      2.0519647E-20
   6.620000      2.0361096E-20
   6.630000      2.0142578E-20
   6.640000      1.9860156E-20
   6.650000      1.9509735E-20
   6.660000      1.9087131E-20
   6.670000      1.8588149E-20
   6.680000      1.8008669E-20
   6.690000      1.7344740E-20
   6.700000      1.6592657E-20
   6.710000      1.5749044E-20
   6.720000      1.4810913E-20
   6.730000      1.3775719E-20
   6.740000      1.2641371E-20
   6.750000      1.1406246E-20
   6.760000      1.0069173E-20
   6.770000      8.6293848E-21
   6.780000      7.0864636E-21
   6.790000      5.4402667E-21
   6.800000      3.6908403E-21
   6.810000      1.8383154E-21
   6.820000     -1.1717513E-22
   6.830000     -2.1755785E-21
   6.840000     -4.3369980E-21
   6.850000     -6.6017394E-21
   6.860000     -8.9703456E-21
   6.870000     -1.1443591E-20
   6.880000     -1.4022440E-20
   6.890000     -1.6708000E-20
   6.900000     -1.9501419E-20
   6.910000     -2.2403773E-20
   6.920000     -2.5415922E-20
   6.930000     -2.8538368E-20
   6.940000     -3.1771090E-20
   6.950000     -3.5113390E-20
   6.960000     -3.8563768E-20
   6.970000     -4.2119778E-20
   6.980000     -4.5777946E-20
   6.990000     -4.9533704E-20
   7.000000     -5.3381390E-20
   7.010000     -5.7314246E-20
   7.020000     -6.1324502E-20
   7.030000     -6.5403452E-20
   7.040000     -6.9541630E-20
   7.050000     -7.3728922E-20
   7.060000     -7.7954768E-20