  -2.600000      0.0000000E+00
  -2.590000      0.0000000E+00
  -2.580000      0.0000000E+00
  -2.570000      0.0000000E+00
  -2.560000      0.0000000E+00
  -2.550000      0.0000000E+00
  -2.540000      0.0000000E+00
  -2.530000      0.0000000E+00
  -2.520000      0.0000000E+00
  -2.510000      0.0000000E+00
  -2.500000      0.0000000E+00
  -2.490000      0.0000000E+00
  -2.480000      0.0000000E+00
  -2.470000      0.0000000E+00
  -2.460000      0.0000000E+00
  -2.450000      0.0000000E+00
  -2.440000      0.0000000E+00
  -2.430000      0.0000000E+00
  -2.420000      0.0000000E+00
  -2.410000      0.0000000E+00
  -2.400000      0.0000000E+00
  -2.390000      0.0000000E+00
  -2.380000      0.0000000E+00
  -2.370000      0.0000000E+00
  -2.360000      0.0000000E+00
  -2.350000      0.0000000E+00
  -2.340000      0.0000000E+00
  -2.330000      0.0000000E+00
  -2.320000      0.0000000E+00
  -2.310000      0.0000000E+00
  -2.300000      0.0000000E+00
  -2.290000      0.0000000E+00
  -2.280000      0.0000000E+00
  -2.270000      0.0000000E+00
  -2.260000      0.0000000E+00
  -2.250000      0.0000000E+00
  -2.240000      0.0000000E+00
  -2.230000      0.0000000E+00
  -2.220000      0.0000000E+00
  -2.210000      0.0000000E+00
  -2.200000      0.0000000E+00
  -2.190000      0.0000000E+00
  -2.180000      0.0000000E+00
  -2.170000      0.0000000E+00
  -2.160000      0.0000000E+00
  -2.150000      0.0000000E+00
  -2.140000      0.0000000E+00
  -2.130000      0.0000000E+00
  -2.120000      0.0000000E+00
  -2.110000      0.0000000E+00
  -2.100000      0.0000000E+00
  -2.090000      0.0000000E+00
  -2.080000      0.0000000E+00
  -2.070000      0.0000000E+00
  -2.060000      0.0000000E+00
  -2.050000      0.0000000E+00
  -2.040000      0.0000000E+00
  -2.030000      0.0000000E+00
  -2.020000      0.0000000E+00
  -2.010000      0.0000000E+00
  -2.000000      0.0000000E+00
  -1.990000      0.0000000E+00
  -1.980000      0.0000000E+00
  -1.970000      0.0000000E+00
  -1.960000      0.0000000E+00
  -1.950000      0.0000000E+00
  -1.940000      0.0000000E+00
  -1.930000      0.0000000E+00
  -1.920000      0.0000000E+00
  -1.910000      0.0000000E+00
  -1.900000      0.0000000E+00
  -1.890000      0.0000000E+00
  -1.880000      0.0000000E+00
  -1.870000      0.0000000E+00
  -1.860000      0.0000000E+00
  -1.850000      0.0000000E+00
  -1.840000      0.0000000E+00
  -1.830000      0.0000000E+00
  -1.820000      0.0000000E+00
  -1.810000      0.0000000E+00
  -1.800000      0.0000000E+00
  -1.790000      0.0000000E+00
  -1.780000      0.0000000E+00
  -1.770000      0.0000000E+00
  -1.760000      0.0000000E+00
  -1.750000      0.0000000E+00
  -1.740000      0.0000000E+00
  -1.730000      0.0000000E+00
  -1.720000      0.0000000E+00
  -1.710000      0.0000000E+00
  -1.700000      0.0000000E+00
  -1.690000      0.0000000E+00
  -1.680000      0.0000000E+00
  -1.670000      0.0000000E+00
  -1.660000      0.0000000E+00
  -1.650000      0.0000000E+00
  -1.640000      0.0000000E+00
  -1.630000      0.0000000E+00
  -1.620000      0.0000000E+00
  -1.610000      0.0000000E+00
  -1.600000      0.0000000E+00
  -1.590000      0.0000000E+00
  -1.580000      0.0000000E+00
  -1.570000      0.0000000E+00
  -1.560000      0.0000000E+00
  -1.550000      0.0000000E+00
  -1.540000      0.0000000E+00
  -1.530000      0.0000000E+00
  -1.520000      0.0000000E+00
  -1.510000      0.0000000E+00
  -1.500000      0.0000000E+00
  -1.490000      0.0000000E+00
  -1.480000      0.0000000E+00
  -1.470000      0.0000000E+00
  -1.460000      0.0000000E+00
  -1.450000      0.0000000E+00
  -1.440000      0.0000000E+00
  -1.430000      0.0000000E+00
  -1.420000      0.0000000E+00
  -1.410000      0.0000000E+00
  -1.400000      0.0000000E+00
  -1.390000      0.0000000E+00
  -1.380000      0.0000000E+00
  -1.370000      0.0000000E+00
  -1.360000      0.0000000E+00
  -1.350000      0.0000000E+00
  -1.340000      0.0000000E+00
  -1.330000      0.0000000E+00
  -1.320000      0.0000000E+00
  -1.310000      0.0000000E+00
  -1.300000      0.0000000E+00
  -1.290000      0.0000000E+00
  -1.280000      0.0000000E+00
  -1.270000      0.0000000E+00
  -1.260000      0.0000000E+00
  -1.250000      0.0000000E+00
  -1.240000      0.0000000E+00
  -1.230000      0.0000000E+00
  -1.220000      0.0000000E+00
  -1.210000      0.0000000E+00
  -1.200000      0.0000000E+00
  -1.190000      0.0000000E+00
  -1.180000      0.0000000E+00
  -1.170000      0.0000000E+00
  -1.160000      0.0000000E+00
  -1.150000      0.0000000E+00
  -1.140000      0.0000000E+00
  -1.130000      0.0000000E+00
  -1.120000      0.0000000E+00
  -1.110000      0.0000000E+00
  -1.100000      0.0000000E+00
  -1.090000      0.0000000E+00
  -1.080000      0.0000000E+00
  -1.070000      0.0000000E+00
  -1.060000      0.0000000E+00
  -1.050000      0.0000000E+00
  -1.040000      0.0000000E+00
  -1.030000      0.0000000E+00
  -1.020000      0.0000000E+00
  -1.010000      0.0000000E+00
  -1.000000      0.0000000E+00
 -0.9900000      0.0000000E+00
 -0.9800000      0.0000000E+00
 -0.9700000      0.0000000E+00
 -0.9600000      0.0000000E+00
 -0.9500000      0.0000000E+00
 -0.9400000      0.0000000E+00
 -0.9300000      0.0000000E+00
 -0.9200000      0.0000000E+00
 -0.9100000      0.0000000E+00
 -0.9000000      0.0000000E+00
 -0.8900000      0.0000000E+00
 -0.8800000      0.0000000E+00
 -0.8700000      0.0000000E+00
 -0.8600000      0.0000000E+00
 -0.8500000      0.0000000E+00
 -0.8400000      0.0000000E+00
 -0.8300000      0.0000000E+00
 -0.8200000      0.0000000E+00
 -0.8100000      0.0000000E+00
 -0.8000000      0.0000000E+00
 -0.7900000      0.0000000E+00
 -0.7800000      0.0000000E+00
 -0.7700000      0.0000000E+00
 -0.7600000      0.0000000E+00
 -0.7500000      0.0000000E+00
 -0.7400000      0.0000000E+00
 -0.7300000      0.0000000E+00
 -0.7200000      0.0000000E+00
 -0.7100000      0.0000000E+00
 -0.7000000      0.0000000E+00
 -0.6900000      0.0000000E+00
 -0.6800000      0.0000000E+00
 -0.6700000      0.0000000E+00
 -0.6600000      0.0000000E+00
 -0.6500000      0.0000000E+00
 -0.6400000      0.0000000E+00
 -0.6300000      0.0000000E+00
 -0.6200000      0.0000000E+00
 -0.6100000      0.0000000E+00
 -0.6000000      0.0000000E+00
 -0.5900000      0.0000000E+00
 -0.5800000      0.0000000E+00
 -0.5700000      0.0000000E+00
 -0.5600000      0.0000000E+00
 -0.5500000      0.0000000E+00
 -0.5400000      0.0000000E+00
 -0.5300000      0.0000000E+00
 -0.5200000      0.0000000E+00
 -0.5100000      0.0000000E+00
 -0.5000000      0.0000000E+00
 -0.4900000      0.0000000E+00
 -0.4800000      0.0000000E+00
 -0.4700000      0.0000000E+00
 -0.4600000      0.0000000E+00
 -0.4500000      0.0000000E+00
 -0.4400000      0.0000000E+00
 -0.4300000      0.0000000E+00
 -0.4200000      0.0000000E+00
 -0.4100000      0.0000000E+00
 -0.4000000      0.0000000E+00
 -0.3900000      0.0000000E+00
 -0.3800000      0.0000000E+00
 -0.3700000      0.0000000E+00
 -0.3600000      0.0000000E+00
 -0.3500000      0.0000000E+00
 -0.3400000      0.0000000E+00
 -0.3300000      0.0000000E+00
 -0.3200000      0.0000000E+00
 -0.3100000      0.0000000E+00
 -0.3000000      0.0000000E+00
 -0.2900000      0.0000000E+00
 -0.2800000      0.0000000E+00
 -0.2700000      0.0000000E+00
 -0.2600000      0.0000000E+00
 -0.2500000      0.0000000E+00
 -0.2400000      0.0000000E+00
 -0.2300000      0.0000000E+00
 -0.2200000      0.0000000E+00
 -0.2100000      0.0000000E+00
 -0.2000000      0.0000000E+00
 -0.1900000      0.0000000E+00
 -0.1800000      0.0000000E+00
 -0.1700000      0.0000000E+00
 -0.1600000      0.0000000E+00
 -0.1500000      0.0000000E+00
 -0.1400000      0.0000000E+00
 -0.1300000      0.0000000E+00
 -0.1200000      0.0000000E+00
 -0.1100000      0.0000000E+00
 -0.1000000      0.0000000E+00
 -9.0000004E-02  0.0000000E+00
 -7.9999998E-02  0.0000000E+00
 -7.0000000E-02  0.0000000E+00
 -5.9999999E-02  0.0000000E+00
 -5.0000001E-02  0.0000000E+00
 -3.9999999E-02  0.0000000E+00
 -2.9999999E-02  0.0000000E+00
 -2.0000000E-02  0.0000000E+00
 -9.9999998E-03  0.0000000E+00
 -3.4694470E-17  0.0000000E+00
  9.9999998E-03  0.0000000E+00
  2.0000000E-02  0.0000000E+00
  2.9999999E-02  0.0000000E+00
  3.9999999E-02  0.0000000E+00
  5.0000001E-02  1.2768357E-38
  5.9999999E-02  1.2990862E-38
  7.0000000E-02  1.3391998E-38
  7.9999998E-02  1.6746516E-38
  9.0000004E-02  2.2561589E-38
  0.1000000      2.9337966E-38
  0.1100000      3.6655106E-38
  0.1200000      4.6024474E-38
  0.1300000      5.7434095E-38
  0.1400000      7.0300560E-38
  0.1500000      8.5049675E-38
  0.1600000      1.0035745E-37
  0.1700000      1.1620468E-37
  0.1800000      1.3476529E-37
  0.1900000      1.5671686E-37
  0.2000000      1.8020688E-37
  0.2100000      2.0467291E-37
  0.2200000      2.3073032E-37
  0.2300000      2.6221317E-37
  0.2400000      2.9930305E-37
  0.2500000      3.3816760E-37
  0.2600000      3.7910877E-37
  0.2700000      4.2244140E-37
  0.2800000      4.6774876E-37
  0.2900000      5.1336607E-37
  0.3000000      5.5758249E-37
  0.3100000      5.9458457E-37
  0.3200000      6.2336433E-37
  0.3300000      6.4942310E-37
  0.3400000      6.7345709E-37
  0.3500000      7.6428172E-37
  0.3600000      9.1790637E-37
  0.3700000      1.0680027E-36
  0.3800000      1.1509799E-36
  0.3900000      1.1760572E-36
  0.4000000      1.2203618E-36
  0.4100000      1.2711001E-36
  0.4200000      1.3192006E-36
  0.4300000      1.3540886E-36
  0.4400000      1.3827463E-36
  0.4500000      1.3942230E-36
  0.4600000      1.2617464E-36
  0.4700000      1.0028074E-36
  0.4800000      7.3577120E-37
  0.4900000      4.6121028E-37
  0.5000000      1.8287621E-37
  0.5100000     -9.5861707E-38
  0.5200000     -3.6638096E-37
  0.5300000     -5.4592436E-37
  0.5400000     -6.4868778E-37
  0.5500000     -7.6105268E-37
  0.5600000     -8.6565080E-37
  0.5700000     -9.7875249E-37
  0.5800000     -1.1265218E-36
  0.5900000     -1.3083812E-36
  0.6000000     -1.4378826E-36
  0.6100000     -1.5221127E-36
  0.6200000     -1.6631254E-36
  0.6300000     -1.9024837E-36
  0.6400000     -2.2221552E-36
  0.6500000     -2.6734057E-36
  0.6600000     -3.2762141E-36
  0.6700000     -3.9235787E-36
  0.6800000     -4.5982826E-36
  0.6900000     -5.3756446E-36
  0.7000000     -6.1080011E-36
  0.7100000     -6.7215992E-36
  0.7200000     -7.3844176E-36
  0.7300000     -8.1963998E-36
  0.7400000     -9.0736089E-36
  0.7500000     -9.8929236E-36
  0.7600000     -1.0698550E-35
  0.7700000     -1.1843800E-35
  0.7800000     -1.2716434E-35
  0.7900000     -1.3008489E-35
  0.8000000     -1.3575413E-35
  0.8100000     -1.4576021E-35
  0.8200000     -1.5847552E-35
  0.8300000     -1.7342039E-35
  0.8400000     -1.9153108E-35
  0.8500000     -2.1337379E-35
  0.8600000     -2.3604254E-35
  0.8700000     -2.5570604E-35
  0.8800000     -2.7375088E-35
  0.8900000     -2.9099727E-35
  0.9000000     -3.0581421E-35
  0.9100000     -3.1772823E-35
  0.9200000     -3.2705232E-35
  0.9300000     -3.3191076E-35
  0.9400000     -3.3375421E-35
  0.9500000     -3.3058534E-35
  0.9600000     -3.2390305E-35
  0.9700000     -3.1767603E-35
  0.9800000     -3.0591549E-35
  0.9900000     -2.8940875E-35
   1.000000     -2.7061806E-35
   1.010000     -2.5054804E-35
   1.020000     -2.3334953E-35
   1.030000     -2.1983007E-35
   1.040000     -2.0758420E-35
   1.050000     -1.9591464E-35
   1.060000     -1.8594259E-35
   1.070000     -1.7869892E-35
   1.080000     -1.7368186E-35
   1.090000     -1.7035815E-35
   1.100000     -1.6884312E-35
   1.110000     -1.6810120E-35
   1.120000     -1.6963768E-35
   1.130000     -1.7260454E-35
   1.140000     -1.7761580E-35
   1.150000     -1.8394026E-35
   1.160000     -1.9982021E-35
   1.170000     -2.2604637E-35
   1.180000     -2.4756009E-35
   1.190000     -2.4602328E-35
   1.200000     -2.1938593E-35
   1.210000     -1.8177808E-35
   1.220000     -1.2991686E-35
   1.230000     -6.6352818E-36
   1.240000      7.2712158E-37
   1.250000      9.2103885E-36
   1.260000      1.8633432E-35
   1.270000      2.8742329E-35
   1.280000      3.8129716E-35
   1.290000      4.5923847E-35
   1.300000      5.3815911E-35
   1.310000      6.2324969E-35
   1.320000      6.9361450E-35
   1.330000      7.3782136E-35
   1.340000      7.5832828E-35
   1.350000      7.6478345E-35
   1.360000      7.8215661E-35
   1.370000      8.1148984E-35
   1.380000      8.3466378E-35
   1.390000      8.6117124E-35
   1.400000      8.8988137E-35
   1.410000      9.0297085E-35
   1.420000      8.9140980E-35
   1.430000      9.0822338E-35
   1.440000      9.6425124E-35
   1.450000      9.9767799E-35
   1.460000      1.0201591E-34
   1.470000      1.0528115E-34
   1.480000      1.0897975E-34
   1.490000      1.1501053E-34
   1.500000      1.2359724E-34
   1.510000      1.3322577E-34
   1.520000      1.4349598E-34
   1.530000      1.5490267E-34
   1.540000      1.6680435E-34
   1.550000      1.7625141E-34
   1.560000      1.8341218E-34
   1.570000      1.8812175E-34
   1.580000      1.8834408E-34
   1.590000      1.8513819E-34
   1.600000      1.8007747E-34
   1.610000      1.7170717E-34
   1.620000      1.5861626E-34
   1.630000      1.4197677E-34
   1.640000      1.2339870E-34
   1.650000      1.0426780E-34
   1.660000      8.3748393E-35
   1.670000      6.3534614E-35
   1.680000      4.8596876E-35
   1.690000      3.8669238E-35
   1.700000      3.5464719E-35
   1.710000      4.3872704E-35
   1.720000      6.4399297E-35
   1.730000      9.7003860E-35
   1.740000      1.4163957E-34
   1.750000      1.9506105E-34
   1.760000      2.5454740E-34
   1.770000      3.1950251E-34
   1.780000      3.8788292E-34
   1.790000      4.5917055E-34
   1.800000      5.3008895E-34
   1.810000      5.9408525E-34
   1.820000      6.4773261E-34
   1.830000      6.8731628E-34
   1.840000      7.1414097E-34
   1.850000      7.3277044E-34
   1.860000      7.4291491E-34
   1.870000      7.4927305E-34
   1.880000      7.5632813E-34
   1.890000      7.6505434E-34
   1.900000      7.7873020E-34
   1.910000      8.0375978E-34
   1.920000      8.4878507E-34
   1.930000      9.2011012E-34
   1.940000      1.0239597E-33
   1.950000      1.1607640E-33
   1.960000      1.3368300E-33
   1.970000      1.5584232E-33
   1.980000      1.8226343E-33
   1.990000      2.1295550E-33
   2.000000      2.4762400E-33
   2.010000      2.8549935E-33
   2.020000      3.2563710E-33
   2.030000      3.6648215E-33
   2.040000      4.0676792E-33
   2.050000      4.4603986E-33
   2.060000      4.8411420E-33
   2.070000      5.2004094E-33
   2.080000      5.5227862E-33
   2.090000      5.8018959E-33
   2.100000      6.0377857E-33
   2.110000      6.2319149E-33
   2.120000      6.3835684E-33
   2.130000      6.4942544E-33
   2.140000      6.5756507E-33
   2.150000      6.6454171E-33
   2.160000      6.7220005E-33
   2.170000      6.8252449E-33
   2.180000      6.9735233E-33
   2.190000      7.1854921E-33
   2.200000      7.4761235E-33
   2.210000      7.8538480E-33
   2.220000      8.3246556E-33
   2.230000      8.8905613E-33
   2.240000      9.5457738E-33
   2.250000      1.0271235E-32
   2.260000      1.1042696E-32
   2.270000      1.1831456E-32
   2.280000      1.2598372E-32
   2.290000      1.3304301E-32
   2.300000      1.3908149E-32
   2.310000      1.4365553E-32
   2.320000      1.4635137E-32
   2.330000      1.4678931E-32
   2.340000      1.4470031E-32
   2.350000      1.3990726E-32
   2.360000      1.3223464E-32
   2.370000      1.2174522E-32
   2.380000      1.0866714E-32
   2.390000      9.3257110E-33
   2.400000      7.5899400E-33
   2.410000      5.7087993E-33
   2.420000      3.7400131E-33
   2.430000      1.7409011E-33
   2.440000     -2.3259477E-34
   2.450000     -2.1292648E-33
   2.460000     -3.9097210E-33
   2.470000     -5.5496870E-33
   2.480000     -7.0441036E-33
   2.490000     -8.4048390E-33
   2.500000     -9.6682331E-33
   2.510000     -1.0898168E-32
   2.520000     -1.2178827E-32
   2.530000     -1.3614487E-32
   2.540000     -1.5323916E-32
   2.550000     -1.7435648E-32
   2.560000     -2.0081537E-32
   2.570000     -2.3388342E-32
   2.580000     -2.7469584E-32
   2.590000     -3.2417692E-32
   2.600000     -3.8294062E-32
   2.610000     -4.5124998E-32
   2.620000     -5.2899062E-32
   2.630000     -6.1562038E-32
   2.640000     -7.1016498E-32
   2.650000     -8.1125103E-32
   2.660000     -9.1716048E-32
   2.670000     -1.0259141E-31
   2.680000     -1.1353737E-31
   2.690000     -1.2433559E-31
   2.700000     -1.3478076E-31
   2.710000     -1.4469206E-31
   2.720000     -1.5392485E-31
   2.730000     -1.6238500E-31
   2.740000     -1.7004099E-31
   2.750000     -1.7692503E-31
   2.760000     -1.8313822E-31
   2.770000     -1.8885485E-31
   2.780000     -1.9430875E-31
   2.790000     -1.9978295E-31
   2.800000     -2.0559462E-31
   2.810000     -2.1207479E-31
   2.820000     -2.1954574E-31
   2.830000     -2.2829560E-31
   2.840000     -2.3855417E-31
   2.850000     -2.5046973E-31
   2.860000     -2.6408724E-31
   2.870000     -2.7933190E-31
   2.880000     -2.9599970E-31
   2.890000     -3.1375477E-31
   2.900000     -3.3213431E-31
   2.910000     -3.5056218E-31
   2.920000     -3.6837087E-31
   2.930000     -3.8483080E-31
   2.940000     -3.9918613E-31
   2.950000     -4.1069497E-31
   2.960000     -4.1867183E-31
   2.970000     -4.2252966E-31
   2.980000     -4.2181886E-31
   2.990000     -4.1626023E-31
   3.000000     -4.0576889E-31
   3.010000     -3.9046887E-31
   3.020000     -3.7069261E-31
   3.030000     -3.4696651E-31
   3.040000     -3.1998428E-31
   3.050000     -2.9056502E-31
   3.060000     -2.5959925E-31
   3.070000     -2.2798539E-31
   3.080000     -1.9655985E-31
   3.090000     -1.6602480E-31
   3.100000     -1.3687803E-31
   3.110000     -1.0934988E-31
   3.120000     -8.3352071E-32
   3.130000     -5.8442452E-32
   3.140000     -3.3810097E-32
   3.150000     -8.2824531E-33
   3.160000      1.9643092E-32
   3.170000      5.1743263E-32
   3.180000      8.9990646E-32
   3.190000      1.3645553E-31
   3.200000      1.9319323E-31
   3.210000      2.6212243E-31
   3.220000      3.4490175E-31
   3.230000      4.4281258E-31
   3.240000      5.5665601E-31
   3.250000      6.8667236E-31
   3.260000      8.3248867E-31
   3.270000      9.9310183E-31
   3.280000      1.1669008E-30
   3.290000      1.3517285E-30
   3.300000      1.5449840E-30
   3.310000      1.7437603E-30
   3.320000      1.9450134E-30
   3.330000      2.1457517E-30
   3.340000      2.3432376E-30
   3.350000      2.5351857E-30
   3.360000      2.7199476E-30
   3.370000      2.8966684E-30
   3.380000      3.0654024E-30
   3.390000      3.2271755E-30
   3.400000      3.3839891E-30
   3.410000      3.5387563E-30
   3.420000      3.6951731E-30
   3.430000      3.8575196E-30
   3.440000      4.0304120E-30
   3.450000      4.2185013E-30
   3.460000      4.4261444E-30
   3.470000      4.6570641E-30
   3.480000      4.9140166E-30
   3.490000      5.1984923E-30
   3.500000      5.5104677E-30
   3.510000      5.8482334E-30
   3.520000      6.2083078E-30
   3.530000      6.5854594E-30
   3.540000      6.9728354E-30
   3.550000      7.3622012E-30
   3.560000      7.7442847E-30
   3.570000      8.1092040E-30
   3.580000      8.4469715E-30
   3.590000      8.7480327E-30
   3.600000      9.0038158E-30
   3.610000      9.2072557E-30
   3.620000      9.3532532E-30
   3.630000      9.4390406E-30
   3.640000      9.4644125E-30
   3.650000      9.4318093E-30
   3.660000      9.3462266E-30
   3.670000      9.2149368E-30
   3.680000      9.0470476E-30
   3.690000      8.8528891E-30
   3.700000      8.6432689E-30
   3.710000      8.4286345E-30
   3.720000      8.2181778E-30
   3.730000      8.0189554E-30
   3.740000      7.8350547E-30
   3.750000      7.6668939E-30
   3.760000      7.5106957E-30
   3.770000      7.3581809E-30
   3.780000      7.1965216E-30
   3.790000      7.0085855E-30
   3.800000      6.7734700E-30
   3.810000      6.4673171E-30
   3.820000      6.0643772E-30
   3.830000      5.5382711E-30
   3.840000      4.8633974E-30
   3.850000      4.0163911E-30
   3.860000      2.9775454E-30
   3.870000      1.7321084E-30
   3.880000      2.7136318E-31
   3.890000     -1.4065964E-30
   3.900000     -3.2964751E-30
   3.910000     -5.3858078E-30
   3.920000     -7.6554609E-30
   3.930000     -1.0080591E-29
   3.940000     -1.2632035E-29
   3.950000     -1.5278082E-29
   3.960000     -1.7986531E-29
   3.970000     -2.0726936E-29
   3.980000     -2.3472888E-29
   3.990000     -2.6204167E-29
   4.000000     -2.8908699E-29
   4.010000     -3.1584087E-29
   4.020000     -3.4238584E-29
   4.030000     -3.6891498E-29
   4.040000     -3.9572832E-29
   4.050000     -4.2322205E-29
   4.060000     -4.5187044E-29
   4.070000     -4.8220107E-29
   4.080000     -5.1476436E-29
   4.090000     -5.5009922E-29
   4.100000     -5.8869588E-29
   4.110000     -6.3095957E-29
   4.120000     -6.7717569E-29
   4.130000     -7.2748037E-29
   4.140000     -7.8183710E-29
   4.150000     -8.4002299E-29
   4.160000     -9.0162525E-29
   4.170000     -9.6604845E-29
   4.180000     -1.0325345E-28
   4.190000     -1.1001930E-28
   4.200000     -1.1680422E-28
   4.210000     -1.2350579E-28
   4.220000     -1.3002282E-28
   4.230000     -1.3626099E-28
   4.240000     -1.4213855E-28
   4.250000     -1.4759140E-28
   4.260000     -1.5257733E-28
   4.270000     -1.5707920E-28
   4.280000     -1.6110650E-28
   4.290000     -1.6469535E-28
   4.300000     -1.6790663E-28
   4.310000     -1.7082229E-28
   4.320000     -1.7353995E-28
   4.330000     -1.7616605E-28
   4.340000     -1.7880775E-28
   4.350000     -1.8156420E-28
   4.360000     -1.8451752E-28
   4.370000     -1.8772411E-28
   4.380000     -1.9120691E-28
   4.390000     -1.9494926E-28
   4.400000     -1.9889046E-28
   4.410000     -2.0292407E-28
   4.420000     -2.0689861E-28
   4.430000     -2.1062143E-28
   4.440000     -2.1386508E-28
   4.450000     -2.1637635E-28
   4.460000     -2.1788772E-28
   4.470000     -2.1813013E-28
   4.480000     -2.1684690E-28
   4.490000     -2.1380764E-28
   4.500000     -2.0882141E-28
   4.510000     -2.0174818E-28
   4.520000     -1.9250781E-28
   4.530000     -1.8108577E-28
   4.540000     -1.6753492E-28
   4.550000     -1.5197321E-28
   4.560000     -1.3457681E-28
   4.570000     -1.1556913E-28
   4.580000     -9.5206192E-29
   4.590000     -7.3758398E-29
   4.600000     -5.1490580E-29
   4.610000     -2.8640811E-29
   4.620000     -5.3996109E-30
   4.630000      1.8109366E-29
   4.640000      4.1845655E-29
   4.650000      6.5863915E-29
   4.660000      9.0320619E-29
   4.670000      1.1547441E-28
   4.680000      1.4168005E-28
   4.690000      1.6937566E-28
   4.700000      1.9906343E-28
   4.710000      2.3128493E-28
   4.720000      2.6659168E-28
   4.730000      3.0551316E-28
   4.740000      3.4852379E-28
   4.750000      3.9601058E-28
   4.760000      4.4824397E-28
   4.770000      5.0535405E-28
   4.780000      5.6731358E-28
   4.790000      6.3392928E-28
   4.800000      7.0484317E-28
   4.810000      7.7954379E-28
   4.820000      8.5738742E-28
   4.830000      9.3762898E-28
   4.840000      1.0194605E-27
   4.850000      1.1020563E-27
   4.860000      1.1846211E-27
   4.870000      1.2664390E-27
   4.880000      1.3469202E-27
   4.890000      1.4256421E-27
   4.900000      1.5023815E-27
   4.910000      1.5771355E-27
   4.920000      1.6501295E-27
   4.930000      1.7218103E-27
   4.940000      1.7928218E-27
   4.950000      1.8639691E-27
   4.960000      1.9361663E-27
   4.970000      2.0103739E-27
   4.980000      2.0875284E-27
   4.990000      2.1684665E-27
   5.000000      2.2538515E-27
   5.010000      2.3441029E-27
   5.020000      2.4393374E-27
   5.030000      2.5393225E-27
   5.040000      2.6434502E-27
   5.050000      2.7507295E-27
   5.060000      2.8598037E-27
   5.070000      2.9689891E-27
   5.080000      3.0763374E-27
   5.090000      3.1797161E-27
   5.100000      3.2769070E-27
   5.110000      3.3657136E-27
   5.120000      3.4440720E-27
   5.130000      3.5101618E-27
   5.140000      3.5625062E-27
   5.150000      3.6000569E-27
   5.160000      3.6222524E-27
   5.170000      3.6290525E-27
   5.180000      3.6209378E-27
   5.190000      3.5988759E-27
   5.200000      3.5642538E-27
   5.210000      3.5187769E-27
   5.220000      3.4643420E-27
   5.230000      3.4028875E-27
   5.240000      3.3362314E-27
   5.250000      3.2659057E-27
   5.260000      3.1929964E-27
   5.270000      3.1180032E-27
   5.280000      3.0407252E-27
   5.290000      2.9601830E-27
   5.300000      2.8745854E-27
   5.310000      2.7813468E-27
   5.320000      2.6771528E-27
   5.330000      2.5580804E-27
   5.340000      2.4197586E-27
   5.350000      2.2575728E-27
   5.360000      2.0668972E-27
   5.370000      1.8433424E-27
   5.380000      1.5830025E-27
   5.390000      1.2826900E-27
   5.400000      9.4014193E-28
   5.410000      5.5417835E-28
   5.420000      1.2480603E-28
   5.430000     -3.4674729E-28
   5.440000     -8.5806910E-28
   5.450000     -1.4056765E-27
   5.460000     -1.9852018E-27
   5.470000     -2.5916430E-27
   5.480000     -3.2196699E-27
   5.490000     -3.8639651E-27
   5.500000     -4.5195813E-27
   5.510000     -5.1822969E-27
   5.520000     -5.8489379E-27
   5.530000     -6.5176574E-27
   5.540000     -7.1881399E-27
   5.550000     -7.8617123E-27
   5.560000     -8.5413637E-27
   5.570000     -9.2316424E-27
   5.580000     -9.9384556E-27
   5.590000     -1.0668754E-26
   5.600000     -1.1430133E-26
   5.610000     -1.2230357E-26
   5.620000     -1.3076839E-26
   5.630000     -1.3976105E-26
   5.640000     -1.4933266E-26
   5.650000     -1.5951561E-26
   5.660000     -1.7031955E-26
   5.670000     -1.8172870E-26
   5.680000     -1.9370036E-26
   5.690000     -2.0616515E-26
   5.700000     -2.1902856E-26
   5.710000     -2.3217443E-26
   5.720000     -2.4546965E-26
   5.730000     -2.5877029E-26
   5.740000     -2.7192855E-26
   5.750000     -2.8480030E-26
   5.760000     -2.9725290E-26
   5.770000     -3.0917237E-26
   5.780000     -3.2047000E-26
   5.790000     -3.3108726E-26
   5.800000     -3.4099961E-26
   5.810000     -3.5021751E-26
   5.820000     -3.5878568E-26
   5.830000     -3.6678005E-26
   5.840000     -3.7430205E-26
   5.850000     -3.8147129E-26
   5.860000     -3.8841619E-26
   5.870000     -3.9526350E-26
   5.880000     -4.0212730E-26
   5.890000     -4.0909778E-26
   5.900000     -4.1623118E-26
   5.910000     -4.2354068E-26
   5.920000     -4.3098959E-26
   5.930000     -4.3848732E-26
   5.940000     -4.4588822E-26
   5.950000     -4.5299370E-26
   5.960000     -4.5955785E-26
   5.970000     -4.6529642E-26
   5.980000     -4.6989822E-26
   5.990000     -4.7303924E-26
   6.000000     -4.7439811E-26
   6.010000     -4.7367239E-26
   6.020000     -4.7059423E-26
   6.030000     -4.6494528E-26
   6.040000     -4.5656881E-26
   6.050000     -4.4537854E-26
   6.060000     -4.3136412E-26
   6.070000     -4.1459152E-26
   6.080000     -3.9519882E-26
   6.090000     -3.7338746E-26
   6.100000     -3.4940874E-26
   6.110000     -3.2354646E-26
   6.120000     -2.9609660E-26
   6.130000     -2.6734508E-26
   6.140000     -2.3754491E-26
   6.150000     -2.0689477E-26
   6.160000     -1.7551893E-26
   6.170000     -1.4345134E-26
   6.180000     -1.1062486E-26
   6.190000     -7.6866075E-27
   6.200000     -4.1896707E-27
   6.210000     -5.3418055E-28
   6.220000      3.3254824E-27
   6.230000      7.4409313E-27
   6.240000      1.1867108E-26
   6.250000      1.6659237E-26
   6.260000      2.1869575E-26
   6.270000      2.7544071E-26
   6.280000      3.3719262E-26
   6.290000      4.0419532E-26
   6.300000      4.7654930E-26
   6.310000      5.5419734E-26
   6.320000      6.3691878E-26
   6.330000      7.2433350E-26
   6.340000      8.1591526E-26
   6.350000      9.1101515E-26
   6.360000      1.0088927E-25
   6.370000      1.1087544E-25
   6.380000      1.2097972E-25
   6.390000      1.3112547E-25
   6.400000      1.4124416E-25
   6.410000      1.5127968E-25
   6.420000      1.6119193E-25
   6.430000      1.7095953E-25
   6.440000      1.8058145E-25
   6.450000      1.9007735E-25
   6.460000      1.9948673E-25
   6.470000      2.0886641E-25
   6.480000      2.1828691E-25
   6.490000      2.2782771E-25
   6.500000      2.3757148E-25
   6.510000      2.4759768E-25
   6.520000      2.5797618E-25
   6.530000      2.6876069E-25
   6.540000      2.7998308E-25
   6.550000      2.9164846E-25
   6.560000      3.0373164E-25
   6.570000      3.1617520E-25
   6.580000      3.2888955E-25
   6.590000      3.4175456E-25
   6.600000      3.5462362E-25
   6.610000      3.6732889E-25
   6.620000      3.7968864E-25
   6.630000      3.9151532E-25
   6.640000      4.0262479E-25
   6.650000      4.1284525E-25
   6.660000      4.2202619E-25
   6.670000      4.3004624E-25
   6.680000      4.3681955E-25
   6.690000      4.4230026E-25
   6.700000      4.4648443E-25
   6.710000      4.4940982E-25
   6.720000      4.5115226E-25
   6.730000      4.5182018E-25
   6.740000      4.5154600E-25
   6.750000      4.5047621E-25
   6.760000      4.4875916E-25
   6.770000      4.4653299E-25
   6.780000      4.4391264E-25
   6.790000      4.4097823E-25
   6.800000      4.3776436E-25
   6.810000      4.3425259E-25
   6.820000      4.3036568E-25
   6.830000      4.2596635E-25
   6.840000      4.2085877E-25
   6.850000      4.1479455E-25
   6.860000      4.0748189E-25
   6.870000      3.9859820E-25
   6.880000      3.8780530E-25
   6.890000      3.7476642E-25
   6.900000      3.5916401E-25
   6.910000      3.4071758E-25
   6.920000      3.1920017E-25
   6.930000      2.9445205E-25
   6.940000      2.6639162E-25
   6.950000      2.3502168E-25
   6.960000      2.0043098E-25
   6.970000      1.6279089E-25
   6.980000      1.2234647E-25
   6.990000      7.9402708E-26
   7.000000      3.4306806E-26
   7.010000     -1.2573019E-26
   7.020000     -6.0871293E-26
   7.030000     -1.1024954E-25
   7.040000     -1.6041966E-25
   7.050000     -2.1116564E-25
   7.060000     -2.6236101E-25