  -2.600000      0.0000000E+00
  -2.590000      0.0000000E+00
  -2.580000      0.0000000E+00
  -2.570000      0.0000000E+00
  -2.560000      0.0000000E+00
  -2.550000      0.0000000E+00
  -2.540000      0.0000000E+00
  -2.530000      0.0000000E+00
  -2.520000      0.0000000E+00
  -2.510000      0.0000000E+00
  -2.500000      0.0000000E+00
  -2.490000      0.0000000E+00
  -2.480000      0.0000000E+00
  -2.470000      0.0000000E+00
  -2.460000      0.0000000E+00
  -2.450000      0.0000000E+00
  -2.440000      0.0000000E+00
  -2.430000      0.0000000E+00
  -2.420000      0.0000000E+00
  -2.410000      0.0000000E+00
  -2.400000      0.0000000E+00
  -2.390000      0.0000000E+00
  -2.380000      0.0000000E+00
  -2.370000      0.0000000E+00
  -2.360000      0.0000000E+00
  -2.350000      0.0000000E+00
  -2.340000      0.0000000E+00
  -2.330000      0.0000000E+00
  -2.320000      0.0000000E+00
  -2.310000      0.0000000E+00
  -2.300000      0.0000000E+00
  -2.290000      0.0000000E+00
  -2.280000      0.0000000E+00
  -2.270000      0.0000000E+00
  -2.260000      0.0000000E+00
  -2.250000      0.0000000E+00
  -2.240000      0.0000000E+00
  -2.230000      0.0000000E+00
  -2.220000      0.0000000E+00
  -2.210000      0.0000000E+00
  -2.200000      0.0000000E+00
  -2.190000      0.0000000E+00
  -2.180000      0.0000000E+00
  -2.170000      0.0000000E+00
  -2.160000      0.0000000E+00
  -2.150000      0.0000000E+00
  -2.140000      0.0000000E+00
  -2.130000      0.0000000E+00
  -2.120000      0.0000000E+00
  -2.110000      0.0000000E+00
  -2.100000      0.0000000E+00
  -2.090000      0.0000000E+00
  -2.080000      0.0000000E+00
  -2.070000      0.0000000E+00
  -2.060000      0.0000000E+00
  -2.050000      0.0000000E+00
  -2.040000      0.0000000E+00
  -2.030000      0.0000000E+00
  -2.020000      0.0000000E+00
  -2.010000      0.0000000E+00
  -2.000000      0.0000000E+00
  -1.990000      0.0000000E+00
  -1.980000      0.0000000E+00
  -1.970000      0.0000000E+00
  -1.960000      0.0000000E+00
  -1.950000      0.0000000E+00
  -1.940000      0.0000000E+00
  -1.930000      0.0000000E+00
  -1.920000      0.0000000E+00
  -1.910000      0.0000000E+00
  -1.900000      0.0000000E+00
  -1.890000      0.0000000E+00
  -1.880000      0.0000000E+00
  -1.870000      0.0000000E+00
  -1.860000      0.0000000E+00
  -1.850000      0.0000000E+00
  -1.840000      0.0000000E+00
  -1.830000      0.0000000E+00
  -1.820000      0.0000000E+00
  -1.810000      0.0000000E+00
  -1.800000      0.0000000E+00
  -1.790000      0.0000000E+00
  -1.780000      0.0000000E+00
  -1.770000      0.0000000E+00
  -1.760000      0.0000000E+00
  -1.750000      0.0000000E+00
  -1.740000      0.0000000E+00
  -1.730000      0.0000000E+00
  -1.720000      0.0000000E+00
  -1.710000      0.0000000E+00
  -1.700000      0.0000000E+00
  -1.690000      0.0000000E+00
  -1.680000      0.0000000E+00
  -1.670000      0.0000000E+00
  -1.660000      0.0000000E+00
  -1.650000      0.0000000E+00
  -1.640000      0.0000000E+00
  -1.630000      0.0000000E+00
  -1.620000      0.0000000E+00
  -1.610000      0.0000000E+00
  -1.600000      0.0000000E+00
  -1.590000      0.0000000E+00
  -1.580000      0.0000000E+00
  -1.570000      0.0000000E+00
  -1.560000      0.0000000E+00
  -1.550000      0.0000000E+00
  -1.540000      0.0000000E+00
  -1.530000      0.0000000E+00
  -1.520000      0.0000000E+00
  -1.510000      0.0000000E+00
  -1.500000      0.0000000E+00
  -1.490000      0.0000000E+00
  -1.480000      0.0000000E+00
  -1.470000      0.0000000E+00
  -1.460000      0.0000000E+00
  -1.450000      0.0000000E+00
  -1.440000      0.0000000E+00
  -1.430000      0.0000000E+00
  -1.420000      0.0000000E+00
  -1.410000      0.0000000E+00
  -1.400000      0.0000000E+00
  -1.390000      0.0000000E+00
  -1.380000      0.0000000E+00
  -1.370000      0.0000000E+00
  -1.360000      0.0000000E+00
  -1.350000      0.0000000E+00
  -1.340000      0.0000000E+00
  -1.330000      0.0000000E+00
  -1.320000      0.0000000E+00
  -1.310000      0.0000000E+00
  -1.300000      0.0000000E+00
  -1.290000      0.0000000E+00
  -1.280000      0.0000000E+00
  -1.270000      0.0000000E+00
  -1.260000      0.0000000E+00
  -1.250000      0.0000000E+00
  -1.240000      0.0000000E+00
  -1.230000      0.0000000E+00
  -1.220000      0.0000000E+00
  -1.210000      0.0000000E+00
  -1.200000      0.0000000E+00
  -1.190000      0.0000000E+00
  -1.180000      0.0000000E+00
  -1.170000      0.0000000E+00
  -1.160000      0.0000000E+00
  -1.150000      0.0000000E+00
  -1.140000      0.0000000E+00
  -1.130000      0.0000000E+00
  -1.120000      0.0000000E+00
  -1.110000      0.0000000E+00
  -1.100000     -1.5824353E-38
  -1.090000     -2.4560152E-38
  -1.080000     -3.6770428E-38
  -1.070000     -5.4615720E-38
  -1.060000     -8.1285496E-38
  -1.050000     -1.2334384E-37
  -1.040000     -1.8316082E-37
  -1.030000     -2.5515549E-37
  -1.020000     -3.3863949E-37
  -1.010000     -4.4232024E-37
  -1.000000     -5.8623736E-37
 -0.9900000     -7.7692910E-37
 -0.9800000     -1.0049437E-36
 -0.9700000     -1.2679440E-36
 -0.9600000     -1.5607439E-36
 -0.9500000     -1.8390761E-36
 -0.9400000     -2.1072808E-36
 -0.9300000     -2.4276733E-36
 -0.9200000     -2.8100783E-36
 -0.9100000     -3.2230783E-36
 -0.9000000     -3.6024220E-36
 -0.8900000     -3.9206414E-36
 -0.8800000     -4.1990561E-36
 -0.8700000     -4.4466632E-36
 -0.8600000     -4.6758420E-36
 -0.8500000     -4.8706071E-36
 -0.8400000     -5.0156118E-36
 -0.8300000     -5.1185185E-36
 -0.8200000     -5.1937967E-36
 -0.8100000     -5.2265511E-36
 -0.8000000     -5.1850375E-36
 -0.7900000     -5.1050233E-36
 -0.7800000     -4.9452554E-36
 -0.7700000     -4.7069132E-36
 -0.7600000     -4.1945095E-36
 -0.7500000     -3.3150311E-36
 -0.7400000     -2.2018540E-36
 -0.7300000     -8.3328050E-37
 -0.7200000      7.5708555E-37
 -0.7100000      2.5706493E-36
 -0.7000000      4.5175215E-36
 -0.6900000      6.9118264E-36
 -0.6800000      1.0217105E-35
 -0.6700000      1.3881318E-35
 -0.6600000      1.7652669E-35
 -0.6500000      2.1898511E-35
 -0.6400000      2.6673020E-35
 -0.6300000      3.2079476E-35
 -0.6200000      3.8086522E-35
 -0.6100000      4.4657455E-35
 -0.6000000      5.2016033E-35
 -0.5900000      6.0218240E-35
 -0.5800000      6.9021711E-35
 -0.5700000      7.8154286E-35
 -0.5600000      8.6815131E-35
 -0.5500000      9.4741148E-35
 -0.5400000      1.0185230E-34
 -0.5300000      1.0851664E-34
 -0.5200000      1.1532384E-34
 -0.5100000      1.2153340E-34
 -0.5000000      1.2717052E-34
 -0.4900000      1.3297588E-34
 -0.4800000      1.3892808E-34
 -0.4700000      1.4519097E-34
 -0.4600000      1.5153713E-34
 -0.4500000      1.5783420E-34
 -0.4400000      1.6400433E-34
 -0.4300000      1.6976877E-34
 -0.4200000      1.7609469E-34
 -0.4100000      1.8347508E-34
 -0.4000000      1.9143861E-34
 -0.3900000      1.9991573E-34
 -0.3800000      2.0869674E-34
 -0.3700000      2.1768746E-34
 -0.3600000      2.2733581E-34
 -0.3500000      2.3771108E-34
 -0.3400000      2.4860711E-34
 -0.3300000      2.6001611E-34
 -0.3200000      2.7175039E-34
 -0.3100000      2.8419475E-34
 -0.3000000      2.9774930E-34
 -0.2900000      3.1240383E-34
 -0.2800000      3.2836856E-34
 -0.2700000      3.4541996E-34
 -0.2600000      3.6352571E-34
 -0.2500000      3.8243345E-34
 -0.2400000      4.0316462E-34
 -0.2300000      4.2807698E-34
 -0.2200000      4.5804997E-34
 -0.2100000      4.9401528E-34
 -0.2000000      5.3876984E-34
 -0.1900000      5.9587393E-34
 -0.1800000      6.6772965E-34
 -0.1700000      7.5539191E-34
 -0.1600000      8.6233310E-34
 -0.1500000      9.9415065E-34
 -0.1400000      1.1543407E-33
 -0.1300000      1.3358591E-33
 -0.1200000      1.5429100E-33
 -0.1100000      1.7846796E-33
 -0.1000000      2.0563698E-33
 -9.0000004E-02  2.3618986E-33
 -7.9999998E-02  2.7061876E-33
 -7.0000000E-02  3.0883374E-33
 -5.9999999E-02  3.5081406E-33
 -5.0000001E-02  3.9656092E-33
 -3.9999999E-02  4.4595137E-33
 -2.9999999E-02  4.9875520E-33
 -2.0000000E-02  5.5471413E-33
 -9.9999998E-03  6.1370609E-33
 -3.4694470E-17  6.7587399E-33
  9.9999998E-03  7.4118107E-33
  2.0000000E-02  8.0945011E-33
  2.9999999E-02  8.8108731E-33
  3.9999999E-02  9.5629345E-33
  5.0000001E-02  1.0350782E-32
  5.9999999E-02  1.1177110E-32
  7.0000000E-02  1.2044126E-32
  7.9999998E-02  1.2955899E-32
  9.0000004E-02  1.3916782E-32
  0.1000000      1.4928866E-32
  0.1100000      1.5992157E-32
  0.1200000      1.7105485E-32
  0.1300000      1.8263845E-32
  0.1400000      1.9459636E-32
  0.1500000      2.0682156E-32
  0.1600000      2.1915980E-32
  0.1700000      2.3141371E-32
  0.1800000      2.4334380E-32
  0.1900000      2.5467520E-32
  0.2000000      2.6509887E-32
  0.2100000      2.7426085E-32
  0.2200000      2.8177637E-32
  0.2300000      2.8727031E-32
  0.2400000      2.9036920E-32
  0.2500000      2.9069969E-32
  0.2600000      2.8791383E-32
  0.2700000      2.8169661E-32
  0.2800000      2.7177294E-32
  0.2900000      2.5795812E-32
  0.3000000      2.4005530E-32
  0.3100000      2.1790317E-32
  0.3200000      1.9145108E-32
  0.3300000      1.6063916E-32
  0.3400000      1.2542617E-32
  0.3500000      8.5763899E-33
  0.3600000      4.1547414E-33
  0.3700000     -7.3580496E-34
  0.3800000     -6.1205959E-33
  0.3900000     -1.2034978E-32
  0.4000000     -1.8523511E-32
  0.4100000     -2.5647782E-32
  0.4200000     -3.3481999E-32
  0.4300000     -4.2114554E-32
  0.4400000     -5.1644833E-32
  0.4500000     -6.2180918E-32
  0.4600000     -7.3838149E-32
  0.4700000     -8.6732311E-32
  0.4800000     -1.0097318E-31
  0.4900000     -1.1665886E-31
  0.5000000     -1.3387291E-31
  0.5100000     -1.5267322E-31
  0.5200000     -1.7309009E-31
  0.5300000     -1.9512154E-31
  0.5400000     -2.1872654E-31
  0.5500000     -2.4382877E-31
  0.5600000     -2.7031574E-31
  0.5700000     -2.9804057E-31
  0.5800000     -3.2682984E-31
  0.5900000     -3.5649097E-31
  0.6000000     -3.8681593E-31
  0.6100000     -4.1759893E-31
  0.6200000     -4.4864477E-31
  0.6300000     -4.7977952E-31
  0.6400000     -5.1086477E-31
  0.6500000     -5.4180256E-31
  0.6600000     -5.7254310E-31
  0.6700000     -6.0308780E-31
  0.6800000     -6.3348801E-31
  0.6900000     -6.6383984E-31
  0.7000000     -6.9427395E-31
  0.7100000     -7.2494128E-31
  0.7200000     -7.5599446E-31
  0.7300000     -7.8756645E-31
  0.7400000     -8.1974669E-31
  0.7500000     -8.5255681E-31
  0.7600000     -8.8592749E-31
  0.7700000     -9.1967772E-31
  0.7800000     -9.5349914E-31
  0.7900000     -9.8694854E-31
  0.8000000     -1.0194384E-30
  0.8100000     -1.0502493E-30
  0.8200000     -1.0785495E-30
  0.8300000     -1.1034150E-30
  0.8400000     -1.1238658E-30
  0.8500000     -1.1389089E-30
  0.8600000     -1.1475848E-30
  0.8700000     -1.1490187E-30
  0.8800000     -1.1424733E-30
  0.8900000     -1.1273958E-30
  0.9000000     -1.1034588E-30
  0.9100000     -1.0705914E-30
  0.9200000     -1.0289957E-30
  0.9300000     -9.7914843E-31
  0.9400000     -9.2178534E-31
  0.9500000     -8.5786515E-31
  0.9600000     -7.8851616E-31
  0.9700000     -7.1496858E-31
  0.9800000     -6.3847183E-31
  0.9900000     -5.6020459E-31
   1.000000     -4.8118109E-31
   1.010000     -4.0215956E-31
   1.020000     -3.2356862E-31
   1.030000     -2.4544078E-31
   1.040000     -1.6737011E-31
   1.050000     -8.8507942E-32
   1.060000     -7.5859213E-33
   1.070000      7.7024338E-32
   1.080000      1.6721606E-31
   1.090000      2.6501772E-31
   1.100000      3.7243531E-31
   1.110000      4.9127341E-31
   1.120000      6.2294463E-31
   1.130000      7.6828021E-31
   1.140000      9.2735342E-31
   1.150000      1.0993298E-30
   1.160000      1.2823559E-30
   1.170000      1.4735019E-30
   1.180000      1.6687653E-30
   1.190000      1.8631394E-30
   1.200000      2.0507556E-30
   1.210000      2.2250927E-30
   1.220000      2.3792438E-30
   1.230000      2.5062395E-30
   1.240000      2.5993996E-30
   1.250000      2.6526990E-30
   1.260000      2.6611230E-30
   1.270000      2.6209866E-30
   1.280000      2.5301931E-30
   1.290000      2.3884080E-30
   1.300000      2.1971291E-30
   1.310000      1.9596352E-30
   1.320000      1.6808065E-30
   1.330000      1.3668159E-30
   1.340000      1.0247016E-30
   1.350000      6.6183210E-31
   1.360000      2.8529862E-31
   1.370000     -9.8736177E-32
   1.380000     -4.8569038E-31
   1.390000     -8.7317046E-31
   1.400000     -1.2614859E-30
   1.410000     -1.6540257E-30
   1.420000     -2.0574548E-30
   1.430000     -2.4816995E-30
   1.440000     -2.9396943E-30
   1.450000     -3.4468861E-30
   1.460000     -4.0205018E-30
   1.470000     -4.6786026E-30
   1.480000     -5.4389657E-30
   1.490000     -6.3178469E-30
   1.500000     -7.3287066E-30
   1.510000     -8.4809679E-30
   1.520000     -9.7788882E-30
   1.530000     -1.1220658E-29
   1.540000     -1.2797776E-29
   1.550000     -1.4494799E-29
   1.560000     -1.6289491E-29
   1.570000     -1.8153424E-29
   1.580000     -2.0053032E-29
   1.590000     -2.1951071E-29
   1.600000     -2.3808454E-29
   1.610000     -2.5586358E-29
   1.620000     -2.7248475E-29
   1.630000     -2.8763297E-29
   1.640000     -3.0106269E-29
   1.650000     -3.1261641E-29
   1.660000     -3.2223889E-29
   1.670000     -3.2998553E-29
   1.680000     -3.3602350E-29
   1.690000     -3.4062581E-29
   1.700000     -3.4415688E-29
   1.710000     -3.4705026E-29
   1.720000     -3.4977960E-29
   1.730000     -3.5282405E-29
   1.740000     -3.5662926E-29
   1.750000     -3.6156747E-29
   1.760000     -3.6789812E-29
   1.770000     -3.7573256E-29
   1.780000     -3.8500555E-29
   1.790000     -3.9545604E-29
   1.800000     -4.0661954E-29
   1.810000     -4.1783411E-29
   1.820000     -4.2826041E-29
   1.830000     -4.3691656E-29
   1.840000     -4.4272646E-29
   1.850000     -4.4458019E-29
   1.860000     -4.4140319E-29
   1.870000     -4.3223119E-29
   1.880000     -4.1628600E-29
   1.890000     -3.9304751E-29
   1.900000     -3.6231665E-29
   1.910000     -3.2426512E-29
   1.920000     -2.7946634E-29
   1.930000     -2.2890524E-29
   1.940000     -1.7396320E-29
   1.950000     -1.1637730E-29
   1.960000     -5.8175923E-30
   1.970000     -1.5906904E-31
   1.980000      5.1050192E-30
   1.990000      9.7440943E-30
   2.000000      1.3542402E-29
   2.010000      1.6311297E-29
   2.020000      1.7900512E-29
   2.030000      1.8207475E-29
   2.040000      1.7183884E-29
   2.050000      1.4838743E-29
   2.060000      1.1237345E-29
   2.070000      6.4959691E-30
   2.080000      7.7217091E-31
   2.090000     -5.7491134E-30
   2.100000     -1.2873200E-29
   2.110000     -2.0415933E-29
   2.120000     -2.8225827E-29
   2.130000     -3.6206532E-29
   2.140000     -4.4338064E-29
   2.150000     -5.2695664E-29
   2.160000     -6.1464562E-29
   2.170000     -7.0949014E-29
   2.180000     -8.1575188E-29
   2.190000     -9.3886268E-29
   2.200000     -1.0852994E-28
   2.210000     -1.2623848E-28
   2.220000     -1.4780143E-28
   2.230000     -1.7403255E-28
   2.240000     -2.0573284E-28
   2.250000     -2.4365077E-28
   2.260000     -2.8844309E-28
   2.270000     -3.4063839E-28
   2.280000     -4.0060566E-28
   2.290000     -4.6853090E-28
   2.300000     -5.4440358E-28
   2.310000     -6.2801436E-28
   2.320000     -7.1896611E-28
   2.330000     -8.1669714E-28
   2.340000     -9.2051709E-28
   2.350000     -1.0296539E-27
   2.360000     -1.1433082E-27
   2.370000     -1.2607145E-27
   2.380000     -1.3812030E-27
   2.390000     -1.5042591E-27
   2.400000     -1.6295759E-27
   2.410000     -1.7570956E-27
   2.420000     -1.8870356E-27
   2.430000     -2.0198957E-27
   2.440000     -2.1564439E-27
   2.450000     -2.2976814E-27
   2.460000     -2.4447836E-27
   2.470000     -2.5990222E-27
   2.480000     -2.7616689E-27
   2.490000     -2.9338879E-27
   2.500000     -3.1166184E-27
   2.510000     -3.3104594E-27
   2.520000     -3.5155609E-27
   2.530000     -3.7315270E-27
   2.540000     -3.9573427E-27
   2.550000     -4.1913297E-27
   2.560000     -4.4311295E-27
   2.570000     -4.6737262E-27
   2.580000     -4.9155067E-27
   2.590000     -5.1523529E-27
   2.600000     -5.3797691E-27
   2.610000     -5.5930331E-27
   2.620000     -5.7873656E-27
   2.630000     -5.9581073E-27
   2.640000     -6.1008881E-27
   2.650000     -6.2117858E-27
   2.660000     -6.2874487E-27
   2.670000     -6.3251846E-27
   2.680000     -6.3229990E-27
   2.690000     -6.2795724E-27
   2.700000     -6.1941855E-27
   2.710000     -6.0665761E-27
   2.720000     -5.8967480E-27
   2.730000     -5.6847224E-27
   2.740000     -5.4302619E-27
   2.750000     -5.1325682E-27
   2.760000     -4.7899765E-27
   2.770000     -4.3996687E-27
   2.780000     -3.9574228E-27
   2.790000     -3.4574183E-27
   2.800000     -2.8921158E-27
   2.810000     -2.2522245E-27
   2.820000     -1.5267680E-27
   2.830000     -7.0325178E-28
   2.840000      2.3207420E-28
   2.850000      1.2938523E-27
   2.860000      2.4971872E-27
   2.870000      3.8571604E-27
   2.880000      5.3883194E-27
   2.890000      7.1041709E-27
   2.900000      9.0166979E-27
   2.910000      1.1135973E-26
   2.920000      1.3469838E-26
   2.930000      1.6023733E-26
   2.940000      1.8800652E-26
   2.950000      2.1801276E-26
   2.960000      2.5024253E-26
   2.970000      2.8466622E-26
   2.980000      3.2124370E-26
   2.990000      3.5993119E-26
   3.000000      4.0068834E-26
   3.010000      4.4348574E-26
   3.020000      4.8831193E-26
   3.030000      5.3517982E-26
   3.040000      5.8413129E-26
   3.050000      6.3524041E-26
   3.060000      6.8861394E-26
   3.070000      7.4438936E-26
   3.080000      8.0273087E-26
   3.090000      8.6382198E-26
   3.100000      9.2785610E-26
   3.110000      9.9502502E-26
   3.120000      1.0655055E-25
   3.130000      1.1394462E-25
   3.140000      1.2169528E-25
   3.150000      1.2980751E-25
   3.160000      1.3827956E-25
   3.170000      1.4710206E-25
   3.180000      1.5625733E-25
   3.190000      1.6571924E-25
   3.200000      1.7545333E-25
   3.210000      1.8541740E-25
   3.220000      1.9556254E-25
   3.230000      2.0583437E-25
   3.240000      2.1617478E-25
   3.250000      2.2652370E-25
   3.260000      2.3682090E-25
   3.270000      2.4700800E-25
   3.280000      2.5703009E-25
   3.290000      2.6683701E-25
   3.300000      2.7638437E-25
   3.310000      2.8563386E-25
   3.320000      2.9455307E-25
   3.330000      3.0311458E-25
   3.340000      3.1129437E-25
   3.350000      3.1906986E-25
   3.360000      3.2641699E-25
   3.370000      3.3330734E-25
   3.380000      3.3970478E-25
   3.390000      3.4556202E-25
   3.400000      3.5081766E-25
   3.410000      3.5539323E-25
   3.420000      3.5919093E-25
   3.430000      3.6209233E-25
   3.440000      3.6395777E-25
   3.450000      3.6462670E-25
   3.460000      3.6391941E-25
   3.470000      3.6163948E-25
   3.480000      3.5757731E-25
   3.490000      3.5151447E-25
   3.500000      3.4322842E-25
   3.510000      3.3249777E-25
   3.520000      3.1910738E-25
   3.530000      3.0285322E-25
   3.540000      2.8354649E-25
   3.550000      2.6101687E-25
   3.560000      2.3511440E-25
   3.570000      2.0571004E-25
   3.580000      1.7269475E-25
   3.590000      1.3597673E-25
   3.600000      9.5477462E-26
   3.610000      5.1126319E-26
   3.620000      2.8540597E-27
   3.630000     -4.9414148E-26
   3.640000     -1.0576588E-25
   3.650000     -1.6630858E-25
   3.660000     -2.3117564E-25
   3.670000     -3.0053125E-25
   3.680000     -3.7457349E-25
   3.690000     -4.5353512E-25
   3.700000     -5.3768217E-25
   3.710000     -6.2731013E-25
   3.720000     -7.2273691E-25
   3.730000     -8.2429427E-25
   3.740000     -9.3231684E-25
   3.750000     -1.0471294E-24
   3.760000     -1.1690339E-24
   3.770000     -1.2982954E-24
   3.780000     -1.4351299E-24
   3.790000     -1.5796919E-24
   3.800000     -1.7320654E-24
   3.810000     -1.8922576E-24
   3.820000     -2.0601947E-24
   3.830000     -2.2357227E-24
   3.840000     -2.4186112E-24
   3.850000     -2.6085617E-24
   3.860000     -2.8052176E-24
   3.870000     -3.0081787E-24
   3.880000     -3.2170160E-24
   3.890000     -3.4312890E-24
   3.900000     -3.6505603E-24
   3.910000     -3.8744122E-24
   3.920000     -4.1024565E-24
   3.930000     -4.3343434E-24
   3.940000     -4.5697667E-24
   3.950000     -4.8084587E-24
   3.960000     -5.0501838E-24
   3.970000     -5.2947267E-24
   3.980000     -5.5418713E-24
   3.990000     -5.7913774E-24
   4.000000     -6.0429538E-24
   4.010000     -6.2962278E-24
   4.020000     -6.5507148E-24
   4.030000     -6.8057886E-24
   4.040000     -7.0606561E-24
   4.050000     -7.3143325E-24
   4.060000     -7.5656289E-24
   4.070000     -7.8131403E-24
   4.080000     -8.0552520E-24
   4.090000     -8.2901408E-24
   4.100000     -8.5158016E-24
   4.110000     -8.7300665E-24
   4.120000     -8.9306438E-24
   4.130000     -9.1151513E-24
   4.140000     -9.2811623E-24
   4.150000     -9.4262441E-24
   4.160000     -9.5479985E-24
   4.170000     -9.6440951E-24
   4.180000     -9.7123032E-24
   4.190000     -9.7505038E-24
   4.200000     -9.7566995E-24
   4.210000     -9.7290050E-24
   4.220000     -9.6656279E-24
   4.230000     -9.5648391E-24
   4.240000     -9.4249299E-24
   4.250000     -9.2441592E-24
   4.260000     -9.0206947E-24
   4.270000     -8.7525577E-24
   4.280000     -8.4375608E-24
   4.290000     -8.0732593E-24
   4.300000     -7.6569025E-24
   4.310000     -7.1854082E-24
   4.320000     -6.6553512E-24
   4.330000     -6.0629672E-24
   4.340000     -5.4041824E-24
   4.350000     -4.6746548E-24
   4.360000     -3.8698436E-24
   4.370000     -2.9850929E-24
   4.380000     -2.0157270E-24
   4.390000     -9.5715373E-25
   4.400000      1.9502773E-25
   4.410000      1.4449231E-24
   4.420000      2.7962443E-24
   4.430000      4.2522320E-24
   4.440000      5.8155907E-24
   4.450000      7.4884538E-24
   4.460000      9.2723760E-24
   4.470000      1.1168346E-23
   4.480000      1.3176839E-23
   4.490000      1.5297884E-23
   4.500000      1.7531159E-23
   4.510000      1.9876103E-23
   4.520000      2.2332021E-23
   4.530000      2.4898214E-23
   4.540000      2.7574074E-23
   4.550000      3.0359189E-23
   4.560000      3.3253387E-23
   4.570000      3.6256770E-23
   4.580000      3.9369710E-23
   4.590000      4.2592790E-23
   4.600000      4.5926712E-23
   4.610000      4.9372153E-23
   4.620000      5.2929594E-23
   4.630000      5.6599104E-23
   4.640000      6.0380133E-23
   4.650000      6.4271243E-23
   4.660000      6.8269897E-23
   4.670000      7.2372264E-23
   4.680000      7.6572974E-23
   4.690000      8.0865040E-23
   4.700000      8.5239696E-23
   4.710000      8.9686417E-23
   4.720000      9.4192927E-23
   4.730000      9.8745279E-23
   4.740000      1.0332802E-22
   4.750000      1.0792438E-22
   4.760000      1.1251652E-22
   4.770000      1.1708582E-22
   4.780000      1.2161311E-22
   4.790000      1.2607897E-22
   4.800000      1.3046396E-22
   4.810000      1.3474883E-22
   4.820000      1.3891458E-22
   4.830000      1.4294259E-22
   4.840000      1.4681454E-22
   4.850000      1.5051224E-22
   4.860000      1.5401753E-22
   4.870000      1.5731194E-22
   4.880000      1.6037628E-22
   4.890000      1.6319028E-22
   4.900000      1.6573217E-22
   4.910000      1.6797822E-22
   4.920000      1.6990239E-22
   4.930000      1.7147592E-22
   4.940000      1.7266720E-22
   4.950000      1.7344147E-22
   4.960000      1.7376093E-22
   4.970000      1.7358470E-22
   4.980000      1.7286925E-22
   4.990000      1.7156861E-22
   5.000000      1.6963498E-22
   5.010000      1.6701928E-22
   5.020000      1.6367183E-22
   5.030000      1.5954303E-22
   5.040000      1.5458410E-22
   5.050000      1.4874771E-22
   5.060000      1.4198858E-22
   5.070000      1.3426384E-22
   5.080000      1.2553348E-22
   5.090000      1.1576040E-22
   5.100000      1.0491039E-22
   5.110000      9.2951878E-23
   5.120000      7.9855582E-23
   5.130000      6.5593980E-23
   5.140000      5.0140624E-23
   5.150000      3.3469443E-23
   5.160000      1.5554024E-23
   5.170000     -3.6330733E-24
   5.180000     -2.4120918E-23
   5.190000     -4.5940621E-23
   5.200000     -6.9125559E-23
   5.210000     -9.3711400E-23
   5.220000     -1.1973581E-22
   5.230000     -1.4723787E-22
   5.240000     -1.7625726E-22
   5.250000     -2.0683317E-22
   5.260000     -2.3900299E-22
   5.270000     -2.7280085E-22
   5.280000     -3.0825604E-22
   5.290000     -3.4539153E-22
   5.300000     -3.8422239E-22
   5.310000     -4.2475452E-22
   5.320000     -4.6698329E-22
   5.330000     -5.1089308E-22
   5.340000     -5.5645642E-22
   5.350000     -6.0363404E-22
   5.360000     -6.5237520E-22
   5.370000     -7.0261804E-22
   5.380000     -7.5429087E-22
   5.390000     -8.0731323E-22
   5.400000     -8.6159726E-22
   5.410000     -9.1704916E-22
   5.420000     -9.7357088E-22
   5.430000     -1.0310612E-21
   5.440000     -1.0894174E-21
   5.450000     -1.1485348E-21
   5.460000     -1.2083085E-21
   5.470000     -1.2686320E-21
   5.480000     -1.3293973E-21
   5.490000     -1.3904930E-21
   5.500000     -1.4518033E-21
   5.510000     -1.5132050E-21
   5.520000     -1.5745657E-21
   5.530000     -1.6357405E-21
   5.540000     -1.6965694E-21
   5.550000     -1.7568751E-21
   5.560000     -1.8164595E-21
   5.570000     -1.8751027E-21
   5.580000     -1.9325619E-21
   5.590000     -1.9885691E-21
   5.600000     -2.0428324E-21
   5.610000     -2.0950368E-21
   5.620000     -2.1448456E-21
   5.630000     -2.1919026E-21
   5.640000     -2.2358349E-21
   5.650000     -2.2762567E-21
   5.660000     -2.3127730E-21
   5.670000     -2.3449835E-21
   5.680000     -2.3724859E-21
   5.690000     -2.3948795E-21
   5.700000     -2.4117685E-21
   5.710000     -2.4227621E-21
   5.720000     -2.4274780E-21
   5.730000     -2.4255407E-21
   5.740000     -2.4165813E-21
   5.750000     -2.4002356E-21
   5.760000     -2.3761409E-21
   5.770000     -2.3439334E-21
   5.780000     -2.3032436E-21
   5.790000     -2.2536922E-21
   5.800000     -2.1948862E-21
   5.810000     -2.1264156E-21
   5.820000     -2.0478502E-21
   5.830000     -1.9587376E-21
   5.840000     -1.8586035E-21
   5.850000     -1.7469521E-21
   5.860000     -1.6232681E-21
   5.870000     -1.4870213E-21
   5.880000     -1.3376720E-21
   5.890000     -1.1746781E-21
   5.900000     -9.9750237E-22
   5.910000     -8.0562161E-22
   5.920000     -5.9853530E-22
   5.930000     -3.7577426E-22
   5.940000     -1.3690897E-22
   5.950000      1.1844369E-22
   5.960000      3.9061348E-22
   5.970000      6.7987279E-22
   5.980000      9.8643530E-22
   5.990000      1.3104552E-21
   6.000000      1.6520280E-21
   6.010000      2.0111945E-21
   6.020000      2.3879466E-21
   6.030000      2.7822325E-21
   6.040000      3.1939635E-21
   6.050000      3.6230216E-21
   6.060000      4.0692657E-21
   6.070000      4.5325366E-21
   6.080000      5.0126608E-21
   6.090000      5.5094522E-21
   6.100000      6.0227113E-21
   6.110000      6.5522216E-21
   6.120000      7.0977420E-21
   6.130000      7.6589978E-21
   6.140000      8.2356711E-21
   6.150000      8.8273815E-21
   6.160000      9.4336766E-21
   6.170000      1.0054013E-20
   6.180000      1.0687742E-20
   6.190000      1.1334094E-20
   6.200000      1.1992163E-20
   6.210000      1.2660898E-20
   6.220000      1.3339094E-20
   6.230000      1.4025390E-20
   6.240000      1.4718272E-20
   6.250000      1.5416068E-20
   6.260000      1.6116962E-20
   6.270000      1.6819004E-20
   6.280000      1.7520125E-20
   6.290000      1.8218151E-20
   6.300000      1.8910822E-20
   6.310000      1.9595809E-20
   6.320000      2.0270727E-20
   6.330000      2.0933150E-20
   6.340000      2.1580619E-20
   6.350000      2.2210648E-20
   6.360000      2.2820727E-20
   6.370000      2.3408316E-20
   6.380000      2.3970836E-20
   6.390000      2.4505655E-20
   6.400000      2.5010072E-20
   6.410000      2.5481296E-20
   6.420000      2.5916428E-20
   6.430000      2.6312428E-20
   6.440000      2.6666101E-20
   6.450000      2.6974085E-20
   6.460000      2.7232828E-20
   6.470000      2.7438586E-20
   6.480000      2.7587417E-20
   6.490000      2.7675195E-20
   6.500000      2.7697619E-20
   6.510000      2.7650234E-20
   6.520000      2.7528461E-20
   6.530000      2.7327637E-20
   6.540000      2.7043043E-20
   6.550000      2.6669954E-20
   6.560000      2.6203679E-20
   6.570000      2.5639602E-20
   6.580000      2.4973221E-20
   6.590000      2.4200185E-20
   6.600000      2.3316304E-20
   6.610000      2.2317583E-20
   6.620000      2.1200227E-20
   6.630000      1.9960634E-20
   6.640000      1.8595393E-20
   6.650000      1.7101260E-20
   6.660000      1.5475137E-20
   6.670000      1.3714049E-20
   6.680000      1.1815108E-20
   6.690000      9.7754864E-21
   6.700000      7.5924033E-21
   6.710000      5.2630913E-21
   6.720000      2.7847910E-21
   6.730000      1.5476516E-22
   6.740000     -2.6296948E-21
   6.750000     -5.5712379E-21
   6.760000     -8.6724120E-21
   6.770000     -1.1935601E-20
   6.780000     -1.5362964E-20
   6.790000     -1.8956364E-20
   6.800000     -2.2717284E-20
   6.810000     -2.6646741E-20
   6.820000     -3.0745205E-20
   6.830000     -3.5012539E-20
   6.840000     -3.9447904E-20
   6.850000     -4.4049733E-20
   6.860000     -4.8815666E-20
   6.870000     -5.3742558E-20
   6.880000     -5.8826442E-20
   6.890000     -6.4062554E-20
   6.900000     -6.9445367E-20
   6.910000     -7.4968646E-20
   6.920000     -8.0625469E-20
   6.930000     -8.6408308E-20
   6.940000     -9.2309085E-20
   6.950000     -9.8319224E-20
   6.960000     -1.0442970E-19
   6.970000     -1.1063110E-19
   6.980000     -1.1691363E-19
   6.990000     -1.2326705E-19
   7.000000     -1.2968080E-19
   7.010000     -1.3614377E-19
   7.020000     -1.4264441E-19
   7.030000     -1.4917052E-19
   7.040000     -1.5570922E-19
   7.050000     -1.6224676E-19
   7.060000     -1.6876855E-19