  -2.600000      0.0000000E+00
  -2.590000      0.0000000E+00
  -2.580000      0.0000000E+00
  -2.570000      0.0000000E+00
  -2.560000      0.0000000E+00
  -2.550000      0.0000000E+00
  -2.540000      0.0000000E+00
  -2.530000      0.0000000E+00
  -2.520000      0.0000000E+00
  -2.510000      0.0000000E+00
  -2.500000      0.0000000E+00
  -2.490000      0.0000000E+00
  -2.480000      0.0000000E+00
  -2.470000      0.0000000E+00
  -2.460000      0.0000000E+00
  -2.450000      0.0000000E+00
  -2.440000      0.0000000E+00
  -2.430000      0.0000000E+00
  -2.420000      0.0000000E+00
  -2.410000      0.0000000E+00
  -2.400000      0.0000000E+00
  -2.390000      0.0000000E+00
  -2.380000      0.0000000E+00
  -2.370000      0.0000000E+00
  -2.360000      0.0000000E+00
  -2.350000      0.0000000E+00
  -2.340000      0.0000000E+00
  -2.330000      0.0000000E+00
  -2.320000      0.0000000E+00
  -2.310000      0.0000000E+00
  -2.300000      0.0000000E+00
  -2.290000      0.0000000E+00
  -2.280000      0.0000000E+00
  -2.270000      0.0000000E+00
  -2.260000      0.0000000E+00
  -2.250000      0.0000000E+00
  -2.240000      0.0000000E+00
  -2.230000      0.0000000E+00
  -2.220000      0.0000000E+00
  -2.210000      0.0000000E+00
  -2.200000      0.0000000E+00
  -2.190000      0.0000000E+00
  -2.180000      0.0000000E+00
  -2.170000      0.0000000E+00
  -2.160000      0.0000000E+00
  -2.150000      0.0000000E+00
  -2.140000      0.0000000E+00
  -2.130000      0.0000000E+00
  -2.120000      0.0000000E+00
  -2.110000      0.0000000E+00
  -2.100000      0.0000000E+00
  -2.090000      0.0000000E+00
  -2.080000      0.0000000E+00
  -2.070000      0.0000000E+00
  -2.060000      0.0000000E+00
  -2.050000      0.0000000E+00
  -2.040000      0.0000000E+00
  -2.030000      0.0000000E+00
  -2.020000      0.0000000E+00
  -2.010000      0.0000000E+00
  -2.000000      0.0000000E+00
  -1.990000      0.0000000E+00
  -1.980000      0.0000000E+00
  -1.970000      0.0000000E+00
  -1.960000      0.0000000E+00
  -1.950000      0.0000000E+00
  -1.940000      0.0000000E+00
  -1.930000      0.0000000E+00
  -1.920000      0.0000000E+00
  -1.910000      0.0000000E+00
  -1.900000      0.0000000E+00
  -1.890000      0.0000000E+00
  -1.880000      0.0000000E+00
  -1.870000      0.0000000E+00
  -1.860000      0.0000000E+00
  -1.850000      0.0000000E+00
  -1.840000      0.0000000E+00
  -1.830000      0.0000000E+00
  -1.820000      0.0000000E+00
  -1.810000      0.0000000E+00
  -1.800000      0.0000000E+00
  -1.790000      0.0000000E+00
  -1.780000      0.0000000E+00
  -1.770000      0.0000000E+00
  -1.760000      0.0000000E+00
  -1.750000      0.0000000E+00
  -1.740000      0.0000000E+00
  -1.730000      0.0000000E+00
  -1.720000      0.0000000E+00
  -1.710000      0.0000000E+00
  -1.700000      0.0000000E+00
  -1.690000      0.0000000E+00
  -1.680000      0.0000000E+00
  -1.670000      0.0000000E+00
  -1.660000      0.0000000E+00
  -1.650000      0.0000000E+00
  -1.640000      0.0000000E+00
  -1.630000      0.0000000E+00
  -1.620000      0.0000000E+00
  -1.610000      0.0000000E+00
  -1.600000      0.0000000E+00
  -1.590000      0.0000000E+00
  -1.580000      0.0000000E+00
  -1.570000      0.0000000E+00
  -1.560000      0.0000000E+00
  -1.550000      0.0000000E+00
  -1.540000      0.0000000E+00
  -1.530000      0.0000000E+00
  -1.520000      0.0000000E+00
  -1.510000      0.0000000E+00
  -1.500000      0.0000000E+00
  -1.490000      0.0000000E+00
  -1.480000      0.0000000E+00
  -1.470000      0.0000000E+00
  -1.460000      0.0000000E+00
  -1.450000      0.0000000E+00
  -1.440000      0.0000000E+00
  -1.430000      0.0000000E+00
  -1.420000      0.0000000E+00
  -1.410000      0.0000000E+00
  -1.400000      0.0000000E+00
  -1.390000      0.0000000E+00
  -1.380000      0.0000000E+00
  -1.370000      0.0000000E+00
  -1.360000      0.0000000E+00
  -1.350000      0.0000000E+00
  -1.340000      0.0000000E+00
  -1.330000      0.0000000E+00
  -1.320000      0.0000000E+00
  -1.310000      0.0000000E+00
  -1.300000      0.0000000E+00
  -1.290000      0.0000000E+00
  -1.280000      0.0000000E+00
  -1.270000      0.0000000E+00
  -1.260000      0.0000000E+00
  -1.250000      0.0000000E+00
  -1.240000      0.0000000E+00
  -1.230000      0.0000000E+00
  -1.220000      0.0000000E+00
  -1.210000      0.0000000E+00
  -1.200000      0.0000000E+00
  -1.190000      0.0000000E+00
  -1.180000      0.0000000E+00
  -1.170000      0.0000000E+00
  -1.160000      0.0000000E+00
  -1.150000      0.0000000E+00
  -1.140000      0.0000000E+00
  -1.130000      0.0000000E+00
  -1.120000      0.0000000E+00
  -1.110000      0.0000000E+00
  -1.100000      0.0000000E+00
  -1.090000      0.0000000E+00
  -1.080000      0.0000000E+00
  -1.070000      0.0000000E+00
  -1.060000      0.0000000E+00
  -1.050000      0.0000000E+00
  -1.040000      0.0000000E+00
  -1.030000      0.0000000E+00
  -1.020000      0.0000000E+00
  -1.010000      0.0000000E+00
  -1.000000      0.0000000E+00
 -0.9900000      0.0000000E+00
 -0.9800000      0.0000000E+00
 -0.9700000      0.0000000E+00
 -0.9600000      0.0000000E+00
 -0.9500000      0.0000000E+00
 -0.9400000      0.0000000E+00
 -0.9300000      0.0000000E+00
 -0.9200000      0.0000000E+00
 -0.9100000      0.0000000E+00
 -0.9000000      0.0000000E+00
 -0.8900000      0.0000000E+00
 -0.8800000      0.0000000E+00
 -0.8700000      0.0000000E+00
 -0.8600000      0.0000000E+00
 -0.8500000      0.0000000E+00
 -0.8400000      0.0000000E+00
 -0.8300000      0.0000000E+00
 -0.8200000      0.0000000E+00
 -0.8100000      0.0000000E+00
 -0.8000000      0.0000000E+00
 -0.7900000      0.0000000E+00
 -0.7800000      0.0000000E+00
 -0.7700000      0.0000000E+00
 -0.7600000      0.0000000E+00
 -0.7500000      0.0000000E+00
 -0.7400000      0.0000000E+00
 -0.7300000      0.0000000E+00
 -0.7200000      0.0000000E+00
 -0.7100000      0.0000000E+00
 -0.7000000      0.0000000E+00
 -0.6900000      0.0000000E+00
 -0.6800000      0.0000000E+00
 -0.6700000      0.0000000E+00
 -0.6600000      0.0000000E+00
 -0.6500000      0.0000000E+00
 -0.6400000      0.0000000E+00
 -0.6300000      0.0000000E+00
 -0.6200000      0.0000000E+00
 -0.6100000      0.0000000E+00
 -0.6000000      0.0000000E+00
 -0.5900000      0.0000000E+00
 -0.5800000      0.0000000E+00
 -0.5700000      0.0000000E+00
 -0.5600000      0.0000000E+00
 -0.5500000      0.0000000E+00
 -0.5400000      0.0000000E+00
 -0.5300000      0.0000000E+00
 -0.5200000      0.0000000E+00
 -0.5100000      0.0000000E+00
 -0.5000000      0.0000000E+00
 -0.4900000      0.0000000E+00
 -0.4800000      0.0000000E+00
 -0.4700000      0.0000000E+00
 -0.4600000      0.0000000E+00
 -0.4500000      0.0000000E+00
 -0.4400000      0.0000000E+00
 -0.4300000      0.0000000E+00
 -0.4200000      0.0000000E+00
 -0.4100000      0.0000000E+00
 -0.4000000      0.0000000E+00
 -0.3900000      0.0000000E+00
 -0.3800000      0.0000000E+00
 -0.3700000      0.0000000E+00
 -0.3600000      0.0000000E+00
 -0.3500000      0.0000000E+00
 -0.3400000      0.0000000E+00
 -0.3300000      0.0000000E+00
 -0.3200000      0.0000000E+00
 -0.3100000      0.0000000E+00
 -0.3000000      0.0000000E+00
 -0.2900000      0.0000000E+00
 -0.2800000      0.0000000E+00
 -0.2700000      0.0000000E+00
 -0.2600000      0.0000000E+00
 -0.2500000      0.0000000E+00
 -0.2400000      0.0000000E+00
 -0.2300000      0.0000000E+00
 -0.2200000      0.0000000E+00
 -0.2100000      0.0000000E+00
 -0.2000000      0.0000000E+00
 -0.1900000      0.0000000E+00
 -0.1800000      0.0000000E+00
 -0.1700000      0.0000000E+00
 -0.1600000      0.0000000E+00
 -0.1500000      0.0000000E+00
 -0.1400000      0.0000000E+00
 -0.1300000      0.0000000E+00
 -0.1200000      0.0000000E+00
 -0.1100000      0.0000000E+00
 -0.1000000      0.0000000E+00
 -9.0000004E-02  0.0000000E+00
 -7.9999998E-02  0.0000000E+00
 -7.0000000E-02  0.0000000E+00
 -5.9999999E-02  0.0000000E+00
 -5.0000001E-02  0.0000000E+00
 -3.9999999E-02  0.0000000E+00
 -2.9999999E-02  0.0000000E+00
 -2.0000000E-02  0.0000000E+00
 -9.9999998E-03 -1.2664767E-38
 -3.4694470E-17 -1.6557363E-38
  9.9999998E-03 -2.0597522E-38
  2.0000000E-02 -2.4769077E-38
  2.9999999E-02 -2.8944781E-38
  3.9999999E-02 -3.3020474E-38
  5.0000001E-02 -3.6923887E-38
  5.9999999E-02 -4.0665875E-38
  7.0000000E-02 -4.4291547E-38
  7.9999998E-02 -4.7854925E-38
  9.0000004E-02 -5.1471727E-38
  0.1000000     -5.5277004E-38
  0.1100000     -5.9555969E-38
  0.1200000     -6.4475317E-38
  0.1300000     -7.0273044E-38
  0.1400000     -7.7000521E-38
  0.1500000     -8.4305524E-38
  0.1600000     -9.2181522E-38
  0.1700000     -1.0055983E-37
  0.1800000     -1.0959723E-37
  0.1900000     -1.1955021E-37
  0.2000000     -1.2976208E-37
  0.2100000     -1.4009327E-37
  0.2200000     -1.5079293E-37
  0.2300000     -1.5761133E-37
  0.2400000     -1.5986245E-37
  0.2500000     -1.6131657E-37
  0.2600000     -1.6217057E-37
  0.2700000     -1.5896270E-37
  0.2800000     -1.5001020E-37
  0.2900000     -1.3759051E-37
  0.3000000     -1.2366031E-37
  0.3100000     -1.1053547E-37
  0.3200000     -1.2668534E-37
  0.3300000     -1.7762753E-37
  0.3400000     -2.3755332E-37
  0.3500000     -3.0121771E-37
  0.3600000     -3.7437117E-37
  0.3700000     -4.2844927E-37
  0.3800000     -4.4253884E-37
  0.3900000     -4.4661718E-37
  0.4000000     -4.7063741E-37
  0.4100000     -5.0862318E-37
  0.4200000     -5.4522290E-37
  0.4300000     -4.8677364E-37
  0.4400000     -3.1389745E-37
  0.4500000     -8.9425397E-38
  0.4600000      1.7275136E-37
  0.4700000      4.1708996E-37
  0.4800000      6.2036972E-37
  0.4900000      7.2270231E-37
  0.5000000      7.4073435E-37
  0.5100000      6.6068913E-37
  0.5200000      4.7595329E-37
  0.5300000      2.6315896E-37
  0.5400000      1.4390690E-37
  0.5500000      1.4964729E-37
  0.5600000      3.1257485E-37
  0.5700000      6.3568750E-37
  0.5800000      9.5521660E-37
  0.5900000      1.2249560E-36
  0.6000000      1.9856707E-36
  0.6100000      3.2016878E-36
  0.6200000      4.3525957E-36
  0.6300000      4.8647081E-36
  0.6400000      4.7550207E-36
  0.6500000      4.6697761E-36
  0.6600000      4.5843128E-36
  0.6700000      4.7771982E-36
  0.6800000      5.2816212E-36
  0.6900000      5.9307758E-36
  0.7000000      6.6408830E-36
  0.7100000      7.1285582E-36
  0.7200000      7.4152492E-36
  0.7300000      7.6485824E-36
  0.7400000      7.9074545E-36
  0.7500000      8.0934013E-36
  0.7600000      8.1848034E-36
  0.7700000      8.3919298E-36
  0.7800000      8.5715184E-36
  0.7900000      8.7332945E-36
  0.8000000      9.0035750E-36
  0.8100000      8.6913149E-36
  0.8200000      7.6207204E-36
  0.8300000      6.6944202E-36
  0.8400000      6.2683437E-36
  0.8500000      6.6691597E-36
  0.8600000      7.3462786E-36
  0.8700000      7.0410497E-36
  0.8800000      5.9840070E-36
  0.8900000      5.4653169E-36
  0.9000000      5.3472007E-36
  0.9100000      4.9374486E-36
  0.9200000      4.5537911E-36
  0.9300000      3.6188269E-36
  0.9400000      2.1695670E-36
  0.9500000     -1.9442115E-37
  0.9600000     -3.4858688E-36
  0.9700000     -6.6946692E-36
  0.9800000     -8.5033284E-36
  0.9900000     -1.0447524E-35
   1.000000     -1.3982723E-35
   1.010000     -1.7914538E-35
   1.020000     -2.2074108E-35
   1.030000     -2.5900296E-35
   1.040000     -2.8582728E-35
   1.050000     -3.0849446E-35
   1.060000     -3.3828340E-35
   1.070000     -3.6940163E-35
   1.080000     -3.9695296E-35
   1.090000     -4.1996338E-35
   1.100000     -4.3881132E-35
   1.110000     -4.5394814E-35
   1.120000     -4.6793110E-35
   1.130000     -4.7378162E-35
   1.140000     -4.9404306E-35
   1.150000     -5.5107784E-35
   1.160000     -6.2938080E-35
   1.170000     -7.1752388E-35
   1.180000     -8.0939921E-35
   1.190000     -8.8570130E-35
   1.200000     -9.4367033E-35
   1.210000     -1.0048747E-34
   1.220000     -1.0716836E-34
   1.230000     -1.1385753E-34
   1.240000     -1.2046458E-34
   1.250000     -1.2502110E-34
   1.260000     -1.2725722E-34
   1.270000     -1.2852584E-34
   1.280000     -1.3121448E-34
   1.290000     -1.3552193E-34
   1.300000     -1.3868148E-34
   1.310000     -1.4016955E-34
   1.320000     -1.4047082E-34
   1.330000     -1.3839375E-34
   1.340000     -1.3123118E-34
   1.350000     -1.2318500E-34
   1.360000     -1.1695804E-34
   1.370000     -1.1122406E-34
   1.380000     -1.0866704E-34
   1.390000     -1.0941318E-34
   1.400000     -1.1230562E-34
   1.410000     -1.2043294E-34
   1.420000     -1.3312669E-34
   1.430000     -1.4654071E-34
   1.440000     -1.4890718E-34
   1.450000     -1.3815599E-34
   1.460000     -1.3255824E-34
   1.470000     -1.2956066E-34
   1.480000     -1.2386566E-34
   1.490000     -1.1880415E-34
   1.500000     -1.1142463E-34
   1.510000     -1.0335647E-34
   1.520000     -8.5446977E-35
   1.530000     -5.8794014E-35
   1.540000     -3.8460293E-35
   1.550000     -3.4240325E-35
   1.560000     -3.7865092E-35
   1.570000     -3.1387823E-35
   1.580000     -1.6667273E-35
   1.590000      5.5836085E-37
   1.600000      2.0593932E-35
   1.610000      4.4066422E-35
   1.620000      6.9702814E-35
   1.630000      9.4803350E-35
   1.640000      1.2394892E-34
   1.650000      1.5856939E-34
   1.660000      1.8803758E-34
   1.670000      2.0865367E-34
   1.680000      2.0691564E-34
   1.690000      1.8230982E-34
   1.700000      1.5227135E-34
   1.710000      1.1857323E-34
   1.720000      8.2687257E-35
   1.730000      4.5580241E-35
   1.740000      1.8221940E-35
   1.750000      5.3279364E-36
   1.760000      9.8601288E-37
   1.770000      6.3182082E-36
   1.780000      2.3546895E-35
   1.790000      5.2365248E-35
   1.800000      8.8025637E-35
   1.810000      1.2897129E-34
   1.820000      1.7198658E-34
   1.830000      2.1545569E-34
   1.840000      2.5642057E-34
   1.850000      2.9067822E-34
   1.860000      3.0382952E-34
   1.870000      2.8899811E-34
   1.880000      2.5642874E-34
   1.890000      2.0893827E-34
   1.900000      1.5347413E-34
   1.910000      1.0036953E-34
   1.920000      6.2075050E-35
   1.930000      3.0159942E-35
   1.940000     -1.3645614E-35
   1.950000     -7.0307063E-35
   1.960000     -1.3523696E-34
   1.970000     -1.8558552E-34
   1.980000     -2.2196605E-34
   1.990000     -2.7245000E-34
   2.000000     -3.3434478E-34
   2.010000     -3.9729376E-34
   2.020000     -4.5851066E-34
   2.030000     -5.1055912E-34
   2.040000     -5.4732170E-34
   2.050000     -5.4820837E-34
   2.060000     -5.0728247E-34
   2.070000     -4.1769112E-34
   2.080000     -2.7579217E-34
   2.090000     -9.3112285E-35
   2.100000      1.2913275E-34
   2.110000      3.7120729E-34
   2.120000      6.1691629E-34
   2.130000      8.5594172E-34
   2.140000      1.0716445E-33
   2.150000      1.2505781E-33
   2.160000      1.3862965E-33
   2.170000      1.4769889E-33
   2.180000      1.5244977E-33
   2.190000      1.5365015E-33
   2.200000      1.5282923E-33
   2.210000      1.5210466E-33
   2.220000      1.5368015E-33
   2.230000      1.5937689E-33
   2.240000      1.7140162E-33
   2.250000      1.9183223E-33
   2.260000      2.2170130E-33
   2.270000      2.6218676E-33
   2.280000      3.1424718E-33
   2.290000      3.7814180E-33
   2.300000      4.5432526E-33
   2.310000      5.4283616E-33
   2.320000      6.4317431E-33
   2.330000      7.5486023E-33
   2.340000      8.7704618E-33
   2.350000      1.0086010E-32
   2.360000      1.1481762E-32
   2.370000      1.2938731E-32
   2.380000      1.4430015E-32
   2.390000      1.5925052E-32
   2.400000      1.7392294E-32
   2.410000      1.8801779E-32
   2.420000      2.0130670E-32
   2.430000      2.1348905E-32
   2.440000      2.2440725E-32
   2.450000      2.3412609E-32
   2.460000      2.4273772E-32
   2.470000      2.5054537E-32
   2.480000      2.5799776E-32
   2.490000      2.6561597E-32
   2.500000      2.7399745E-32
   2.510000      2.8376016E-32
   2.520000      2.9549360E-32
   2.530000      3.0970368E-32
   2.540000      3.2673853E-32
   2.550000      3.4681324E-32
   2.560000      3.6996372E-32
   2.570000      3.9588601E-32
   2.580000      4.2411677E-32
   2.590000      4.5400398E-32
   2.600000      4.8467231E-32
   2.610000      5.1506853E-32
   2.620000      5.4400803E-32
   2.630000      5.7030719E-32
   2.640000      5.9275901E-32
   2.650000      6.1021399E-32
   2.660000      6.2163668E-32
   2.670000      6.2615422E-32
   2.680000      6.2310346E-32
   2.690000      6.1207197E-32
   2.700000      5.9292934E-32
   2.710000      5.6583796E-32
   2.720000      5.3124816E-32
   2.730000      4.8989385E-32
   2.740000      4.4277663E-32
   2.750000      3.9108156E-32
   2.760000      3.3609670E-32
   2.770000      2.7912701E-32
   2.780000      2.2138072E-32
   2.790000      1.6385779E-32
   2.800000      1.0721655E-32
   2.810000      5.1661897E-33
   2.820000     -3.1515488E-34
   2.830000     -5.8189773E-33
   2.840000     -1.1507359E-32
   2.850000     -1.7606881E-32
   2.860000     -2.4403129E-32
   2.870000     -3.2230674E-32
   2.880000     -4.1457270E-32
   2.890000     -5.2466039E-32
   2.900000     -6.5634885E-32
   2.910000     -8.1312906E-32
   2.920000     -9.9798154E-32
   2.930000     -1.2131675E-31
   2.940000     -1.4600547E-31
   2.950000     -1.7389807E-31
   2.960000     -2.0491845E-31
   2.970000     -2.3888027E-31
   2.980000     -2.7549276E-31
   2.990000     -3.1437419E-31
   3.000000     -3.5507187E-31
   3.010000     -3.9708792E-31
   3.020000     -4.3990944E-31
   3.030000     -4.8304152E-31
   3.040000     -5.2604172E-31
   3.050000     -5.6855305E-31
   3.060000     -6.1033444E-31
   3.070000     -6.5128537E-31
   3.080000     -6.9146353E-31
   3.090000     -7.3109335E-31
   3.100000     -7.7056391E-31
   3.110000     -8.1041571E-31
   3.120000     -8.5131586E-31
   3.130000     -8.9402157E-31
   3.140000     -9.3933387E-31
   3.150000     -9.8804325E-31
   3.160000     -1.0408701E-30
   3.170000     -1.0984024E-30
   3.180000     -1.1610354E-30
   3.190000     -1.2289173E-30
   3.200000     -1.3019058E-30
   3.210000     -1.3795366E-30
   3.220000     -1.4610101E-30
   3.230000     -1.5451973E-30
   3.240000     -1.6306665E-30
   3.250000     -1.7157309E-30
   3.260000     -1.7985148E-30
   3.270000     -1.8770377E-30
   3.280000     -1.9493078E-30
   3.290000     -2.0134260E-30
   3.300000     -2.0676861E-30
   3.310000     -2.1106723E-30
   3.320000     -2.1413403E-30
   3.330000     -2.1590803E-30
   3.340000     -2.1637537E-30
   3.350000     -2.1556990E-30
   3.360000     -2.1357060E-30
   3.370000     -2.1049534E-30
   3.380000     -2.0649164E-30
   3.390000     -2.0172444E-30
   3.400000     -1.9636129E-30
   3.410000     -1.9055621E-30
   3.420000     -1.8443271E-30
   3.430000     -1.7806712E-30
   3.440000     -1.7147348E-30
   3.450000     -1.6459091E-30
   3.460000     -1.5727450E-30
   3.470000     -1.4929080E-30
   3.480000     -1.4031825E-30
   3.490000     -1.2995324E-30
   3.500000     -1.1772183E-30
   3.510000     -1.0309656E-30
   3.520000     -8.5518248E-31
   3.530000     -6.4421214E-31
   3.540000     -3.9260952E-31
   3.550000     -9.5426778E-32
   3.560000      2.5151150E-31
   3.570000      6.5136154E-31
   3.580000      1.1060618E-30
   3.590000      1.6161958E-30
   3.600000      2.1809310E-30
   3.610000      2.7980444E-30
   3.620000      3.4640453E-30
   3.630000      4.1743832E-30
   3.640000      4.9237415E-30
   3.650000      5.7064018E-30
   3.660000      6.5166616E-30
   3.670000      7.3492870E-30
   3.680000      8.1999552E-30
   3.690000      9.0656727E-30
   3.700000      9.9451449E-30
   3.710000      1.0839043E-29
   3.720000      1.1750168E-29
   3.730000      1.2683475E-29
   3.740000      1.3645960E-29
   3.750000      1.4646389E-29
   3.760000      1.5694885E-29
   3.770000      1.6802371E-29
   3.780000      1.7979936E-29
   3.790000      1.9238090E-29
   3.800000      2.0586012E-29
   3.810000      2.2030795E-29
   3.820000      2.3576763E-29
   3.830000      2.5224886E-29
   3.840000      2.6972351E-29
   3.850000      2.8812327E-29
   3.860000      3.0733945E-29
   3.870000      3.2722519E-29
   3.880000      3.4760029E-29
   3.890000      3.6825776E-29
   3.900000      3.8897300E-29
   3.910000      4.0951397E-29
   3.920000      4.2965288E-29
   3.930000      4.4917775E-29
   3.940000      4.6790384E-29
   3.950000      4.8568366E-29
   3.960000      5.0241524E-29
   3.970000      5.1804735E-29
   3.980000      5.3258204E-29
   3.990000      5.4607264E-29
   4.000000      5.5861899E-29
   4.010000      5.7035832E-29
   4.020000      5.8145203E-29
   4.030000      5.9207077E-29
   4.040000      6.0237630E-29
   4.050000      6.1250242E-29
   4.060000      6.2253597E-29
   4.070000      6.3249875E-29
   4.080000      6.4233182E-29
   4.090000      6.5188371E-29
   4.100000      6.6090236E-29
   4.110000      6.6903340E-29
   4.120000      6.7582404E-29
   4.130000      6.8073282E-29
   4.140000      6.8314589E-29
   4.150000      6.8239839E-29
   4.160000      6.7780005E-29
   4.170000      6.6866410E-29
   4.180000      6.5433759E-29
   4.190000      6.3423118E-29
   4.200000      6.0784702E-29
   4.210000      5.7480204E-29
   4.220000      5.3484513E-29
   4.230000      4.8786694E-29
   4.240000      4.3390061E-29
   4.250000      3.7311315E-29
   4.260000      3.0578727E-29
   4.270000      2.3229467E-29
   4.280000      1.5306065E-29
   4.290000      6.8522842E-30
   4.300000     -2.0913698E-30
   4.310000     -1.1492331E-29
   4.320000     -2.1330500E-29
   4.330000     -3.1602166E-29
   4.340000     -4.2323210E-29
   4.350000     -5.3531343E-29
   4.360000     -6.5287009E-29
   4.370000     -7.7672809E-29
   4.380000     -9.0791473E-29
   4.390000     -1.0476238E-28
   4.400000     -1.1971661E-28
   4.410000     -1.3579086E-28
   4.420000     -1.5312043E-28
   4.430000     -1.7183173E-28
   4.440000     -1.9203479E-28
   4.450000     -2.1381604E-28
   4.460000     -2.3723208E-28
   4.470000     -2.6230460E-28
   4.480000     -2.8901725E-28
   4.490000     -3.1731439E-28
   4.500000     -3.4710222E-28
   4.510000     -3.7825209E-28
   4.520000     -4.1060624E-28
   4.530000     -4.4398530E-28
   4.540000     -4.7819781E-28
   4.550000     -5.1305055E-28
   4.560000     -5.4835973E-28
   4.570000     -5.8396189E-28
   4.580000     -6.1972415E-28
   4.590000     -6.5555237E-28
   4.600000     -6.9139782E-28
   4.610000     -7.2726018E-28
   4.620000     -7.6318802E-28
   4.630000     -7.9927489E-28
   4.640000     -8.3565272E-28
   4.650000     -8.7248103E-28
   4.660000     -9.0993362E-28
   4.670000     -9.4818298E-28
   4.680000     -9.8738268E-28
   4.690000     -1.0276495E-27
   4.700000     -1.0690463E-27
   4.710000     -1.1115663E-27
   4.720000     -1.1551195E-27
   4.730000     -1.1995253E-27
   4.740000     -1.2445062E-27
   4.750000     -1.2896893E-27
   4.760000     -1.3346126E-27
   4.770000     -1.3787368E-27
   4.780000     -1.4214612E-27
   4.790000     -1.4621452E-27
   4.800000     -1.5001325E-27
   4.810000     -1.5347777E-27
   4.820000     -1.5654726E-27
   4.830000     -1.5916713E-27
   4.840000     -1.6129130E-27
   4.850000     -1.6288385E-27
   4.860000     -1.6392025E-27
   4.870000     -1.6438779E-27
   4.880000     -1.6428506E-27
   4.890000     -1.6362083E-27
   4.900000     -1.6241207E-27
   4.910000     -1.6068111E-27
   4.920000     -1.5845229E-27
   4.930000     -1.5574823E-27
   4.940000     -1.5258577E-27
   4.950000     -1.4897205E-27
   4.960000     -1.4490088E-27
   4.970000     -1.4034957E-27
   4.980000     -1.3527663E-27
   4.990000     -1.2962040E-27
   5.000000     -1.2329888E-27
   5.010000     -1.1621079E-27
   5.020000     -1.0823793E-27
   5.030000     -9.9248707E-28
   5.040000     -8.9102802E-28
   5.050000     -7.7656582E-28
   5.060000     -6.4769058E-28
   5.070000     -5.0308271E-28
   5.080000     -3.4157287E-28
   5.090000     -1.6219853E-28
   5.100000      3.5750201E-29
   5.110000      2.5269616E-28
   5.120000      4.8875759E-28
   5.130000      7.4374811E-28
   5.140000      1.0171938E-27
   5.150000      1.3083703E-27
   5.160000      1.6163565E-27
   5.170000      1.9401052E-27
   5.180000      2.2785219E-27
   5.190000      2.6305520E-27
   5.200000      2.9952683E-27
   5.210000      3.3719555E-27
   5.220000      3.7601860E-27
   5.230000      4.1598766E-27
   5.240000      4.5713257E-27
   5.250000      4.9952290E-27
   5.260000      5.4326616E-27
   5.270000      5.8850391E-27
   5.280000      6.3540462E-27
   5.290000      6.8415410E-27
   5.300000      7.3494427E-27
   5.310000      7.8795957E-27
   5.320000      8.4336334E-27
   5.330000      9.0128422E-27
   5.340000      9.6180256E-27
   5.350000      1.0249398E-26
   5.360000      1.0906491E-26
   5.370000      1.1588103E-26
   5.380000      1.2292280E-26
   5.390000      1.3016342E-26
   5.400000      1.3756945E-26
   5.410000      1.4510192E-26
   5.420000      1.5271766E-26
   5.430000      1.6037108E-26
   5.440000      1.6801599E-26
   5.450000      1.7560759E-26
   5.460000      1.8310440E-26
   5.470000      1.9047005E-26
   5.480000      1.9767468E-26
   5.490000      2.0469603E-26
   5.500000      2.1152000E-26
   5.510000      2.1814061E-26
   5.520000      2.2455939E-26
   5.530000      2.3078426E-26
   5.540000      2.3682763E-26
   5.550000      2.4270404E-26
   5.560000      2.4842769E-26
   5.570000      2.5400934E-26
   5.580000      2.5945349E-26
   5.590000      2.6475549E-26
   5.600000      2.6989896E-26
   5.610000      2.7485387E-26
   5.620000      2.7957508E-26
   5.630000      2.8400164E-26
   5.640000      2.8805715E-26
   5.650000      2.9165097E-26
   5.660000      2.9468007E-26
   5.670000      2.9703214E-26
   5.680000      2.9858888E-26
   5.690000      2.9923029E-26
   5.700000      2.9883881E-26
   5.710000      2.9730377E-26
   5.720000      2.9452541E-26
   5.730000      2.9041853E-26
   5.740000      2.8491527E-26
   5.750000      2.7796697E-26
   5.760000      2.6954483E-26
   5.770000      2.5963921E-26
   5.780000      2.4825776E-26
   5.790000      2.3542236E-26
   5.800000      2.2116478E-26
   5.810000      2.0552142E-26
   5.820000      1.8852760E-26
   5.830000      1.7021130E-26
   5.840000      1.5058738E-26
   5.850000      1.2965205E-26
   5.860000      1.0737832E-26
   5.870000      8.3712648E-27
   5.880000      5.8573026E-27
   5.890000      3.1848976E-27
   5.900000      3.4034461E-28
   5.910000     -2.6923353E-27
   5.920000     -5.9308678E-27
   5.930000     -9.3940083E-27
   5.940000     -1.3100698E-26
   5.950000     -1.7069166E-26
   5.960000     -2.1315992E-26
   5.970000     -2.5855209E-26
   5.980000     -3.0697456E-26
   5.990000     -3.5849312E-26
   6.000000     -4.1312809E-26
   6.010000     -4.7085175E-26
   6.020000     -5.3158816E-26
   6.030000     -5.9521583E-26
   6.040000     -6.6157358E-26
   6.050000     -7.3046782E-26
   6.060000     -8.0168335E-26
   6.070000     -8.7499379E-26
   6.080000     -9.5017483E-26
   6.090000     -1.0270163E-25
   6.100000     -1.1053348E-25
   6.110000     -1.1849832E-25
   6.120000     -1.2658595E-25
   6.130000     -1.3479110E-25
   6.140000     -1.4311372E-25
   6.150000     -1.5155868E-25
   6.160000     -1.6013521E-25
   6.170000     -1.6885598E-25
   6.180000     -1.7773565E-25
   6.190000     -1.8678933E-25
   6.200000     -1.9603086E-25
   6.210000     -2.0547080E-25
   6.220000     -2.1511470E-25
   6.230000     -2.2496124E-25
   6.240000     -2.3500070E-25
   6.250000     -2.4521394E-25
   6.260000     -2.5557166E-25
   6.270000     -2.6603419E-25
   6.280000     -2.7655195E-25
   6.290000     -2.8706619E-25
   6.300000     -2.9751053E-25
   6.310000     -3.0781293E-25
   6.320000     -3.1789800E-25
   6.330000     -3.2768944E-25
   6.340000     -3.3711273E-25
   6.350000     -3.4609773E-25
   6.360000     -3.5458097E-25
   6.370000     -3.6250774E-25
   6.380000     -3.6983325E-25
   6.390000     -3.7652356E-25
   6.400000     -3.8255551E-25
   6.410000     -3.8791611E-25
   6.420000     -3.9260074E-25
   6.430000     -3.9661109E-25
   6.440000     -3.9995231E-25
   6.450000     -4.0262945E-25
   6.460000     -4.0464403E-25
   6.470000     -4.0599030E-25
   6.480000     -4.0665166E-25
   6.490000     -4.0659772E-25
   6.500000     -4.0578157E-25
   6.510000     -4.0413837E-25
   6.520000     -4.0158451E-25
   6.530000     -3.9801817E-25
   6.540000     -3.9332085E-25
   6.550000     -3.8735997E-25
   6.560000     -3.7999230E-25
   6.570000     -3.7106885E-25
   6.580000     -3.6043955E-25
   6.590000     -3.4795861E-25
   6.600000     -3.3349028E-25
   6.610000     -3.1691358E-25
   6.620000     -2.9812693E-25
   6.630000     -2.7705148E-25
   6.640000     -2.5363357E-25
   6.650000     -2.2784559E-25
   6.660000     -1.9968500E-25
   6.670000     -1.6917254E-25
   6.680000     -1.3634823E-25
   6.690000     -1.0126639E-25
   6.700000     -6.3989697E-26
   6.710000     -2.4582296E-26
   6.720000      1.6897353E-26
   6.730000      6.0403437E-26
   6.740000      1.0590905E-25
   6.750000      1.5341146E-25
   6.760000      2.0293617E-25
   6.770000      2.5453894E-25
   6.780000      3.0830563E-25
   6.790000      3.6435020E-25
   6.800000      4.2281017E-25
   6.810000      4.8384019E-25
   6.820000      5.4760397E-25
   6.830000      6.1426469E-25
   6.840000      6.8397480E-25
   6.850000      7.5686495E-25
   6.860000      8.3303406E-25
   6.870000      9.1254010E-25
   6.880000      9.9539169E-25
   6.890000      1.0815433E-24
   6.900000      1.1708919E-24
   6.910000      1.2632776E-24
   6.920000      1.3584860E-24
   6.930000      1.4562548E-24
   6.940000      1.5562824E-24
   6.950000      1.6582391E-24
   6.960000      1.7617792E-24
   6.970000      1.8665557E-24
   6.980000      1.9722345E-24
   6.990000      2.0785061E-24
   7.000000      2.1850986E-24
   7.010000      2.2917863E-24
   7.020000      2.3983945E-24
   7.030000      2.5048030E-24
   7.040000      2.6109438E-24
   7.050000      2.7167946E-24
   7.060000      2.8223690E-24