  -2.600000      0.0000000E+00
  -2.590000      0.0000000E+00
  -2.580000      0.0000000E+00
  -2.570000      0.0000000E+00
  -2.560000      0.0000000E+00
  -2.550000      0.0000000E+00
  -2.540000      0.0000000E+00
  -2.530000      0.0000000E+00
  -2.520000      0.0000000E+00
  -2.510000      0.0000000E+00
  -2.500000      0.0000000E+00
  -2.490000      0.0000000E+00
  -2.480000      0.0000000E+00
  -2.470000      0.0000000E+00
  -2.460000      0.0000000E+00
  -2.450000      0.0000000E+00
  -2.440000      0.0000000E+00
  -2.430000      0.0000000E+00
  -2.420000      0.0000000E+00
  -2.410000      0.0000000E+00
  -2.400000      0.0000000E+00
  -2.390000      0.0000000E+00
  -2.380000      0.0000000E+00
  -2.370000      0.0000000E+00
  -2.360000      0.0000000E+00
  -2.350000      0.0000000E+00
  -2.340000      0.0000000E+00
  -2.330000      0.0000000E+00
  -2.320000      0.0000000E+00
  -2.310000      0.0000000E+00
  -2.300000      0.0000000E+00
  -2.290000      0.0000000E+00
  -2.280000      0.0000000E+00
  -2.270000      0.0000000E+00
  -2.260000      0.0000000E+00
  -2.250000      0.0000000E+00
  -2.240000      0.0000000E+00
  -2.230000      0.0000000E+00
  -2.220000      0.0000000E+00
  -2.210000      0.0000000E+00
  -2.200000      0.0000000E+00
  -2.190000      0.0000000E+00
  -2.180000      0.0000000E+00
  -2.170000      0.0000000E+00
  -2.160000      0.0000000E+00
  -2.150000      0.0000000E+00
  -2.140000      0.0000000E+00
  -2.130000      0.0000000E+00
  -2.120000      0.0000000E+00
  -2.110000      0.0000000E+00
  -2.100000      0.0000000E+00
  -2.090000      0.0000000E+00
  -2.080000      0.0000000E+00
  -2.070000      0.0000000E+00
  -2.060000      0.0000000E+00
  -2.050000      0.0000000E+00
  -2.040000      0.0000000E+00
  -2.030000      0.0000000E+00
  -2.020000      0.0000000E+00
  -2.010000      0.0000000E+00
  -2.000000      0.0000000E+00
  -1.990000      0.0000000E+00
  -1.980000      0.0000000E+00
  -1.970000      0.0000000E+00
  -1.960000      0.0000000E+00
  -1.950000      0.0000000E+00
  -1.940000      0.0000000E+00
  -1.930000      0.0000000E+00
  -1.920000      0.0000000E+00
  -1.910000      0.0000000E+00
  -1.900000      0.0000000E+00
  -1.890000      0.0000000E+00
  -1.880000      0.0000000E+00
  -1.870000      0.0000000E+00
  -1.860000      0.0000000E+00
  -1.850000      0.0000000E+00
  -1.840000      0.0000000E+00
  -1.830000      0.0000000E+00
  -1.820000      0.0000000E+00
  -1.810000      0.0000000E+00
  -1.800000      0.0000000E+00
  -1.790000      0.0000000E+00
  -1.780000      0.0000000E+00
  -1.770000      0.0000000E+00
  -1.760000      0.0000000E+00
  -1.750000      0.0000000E+00
  -1.740000      0.0000000E+00
  -1.730000      0.0000000E+00
  -1.720000      0.0000000E+00
  -1.710000      0.0000000E+00
  -1.700000      0.0000000E+00
  -1.690000      0.0000000E+00
  -1.680000      0.0000000E+00
  -1.670000      0.0000000E+00
  -1.660000      0.0000000E+00
  -1.650000      0.0000000E+00
  -1.640000      0.0000000E+00
  -1.630000      0.0000000E+00
  -1.620000      0.0000000E+00
  -1.610000      0.0000000E+00
  -1.600000      0.0000000E+00
  -1.590000      0.0000000E+00
  -1.580000      0.0000000E+00
  -1.570000      0.0000000E+00
  -1.560000      0.0000000E+00
  -1.550000      0.0000000E+00
  -1.540000      0.0000000E+00
  -1.530000      0.0000000E+00
  -1.520000      0.0000000E+00
  -1.510000      0.0000000E+00
  -1.500000      0.0000000E+00
  -1.490000      0.0000000E+00
  -1.480000      0.0000000E+00
  -1.470000      0.0000000E+00
  -1.460000      0.0000000E+00
  -1.450000      0.0000000E+00
  -1.440000      0.0000000E+00
  -1.430000      0.0000000E+00
  -1.420000      0.0000000E+00
  -1.410000      0.0000000E+00
  -1.400000      0.0000000E+00
  -1.390000      0.0000000E+00
  -1.380000      0.0000000E+00
  -1.370000      0.0000000E+00
  -1.360000      0.0000000E+00
  -1.350000      0.0000000E+00
  -1.340000      0.0000000E+00
  -1.330000      0.0000000E+00
  -1.320000      0.0000000E+00
  -1.310000      0.0000000E+00
  -1.300000      0.0000000E+00
  -1.290000      0.0000000E+00
  -1.280000      0.0000000E+00
  -1.270000      0.0000000E+00
  -1.260000      0.0000000E+00
  -1.250000      0.0000000E+00
  -1.240000      0.0000000E+00
  -1.230000      0.0000000E+00
  -1.220000      0.0000000E+00
  -1.210000      0.0000000E+00
  -1.200000      0.0000000E+00
  -1.190000      0.0000000E+00
  -1.180000      0.0000000E+00
  -1.170000      0.0000000E+00
  -1.160000      0.0000000E+00
  -1.150000      0.0000000E+00
  -1.140000      0.0000000E+00
  -1.130000      0.0000000E+00
  -1.120000      0.0000000E+00
  -1.110000      0.0000000E+00
  -1.100000      0.0000000E+00
  -1.090000      0.0000000E+00
  -1.080000      0.0000000E+00
  -1.070000      0.0000000E+00
  -1.060000      0.0000000E+00
  -1.050000      0.0000000E+00
  -1.040000      0.0000000E+00
  -1.030000      0.0000000E+00
  -1.020000      0.0000000E+00
  -1.010000      0.0000000E+00
  -1.000000      0.0000000E+00
 -0.9900000      0.0000000E+00
 -0.9800000      0.0000000E+00
 -0.9700000      0.0000000E+00
 -0.9600000      0.0000000E+00
 -0.9500000      0.0000000E+00
 -0.9400000      0.0000000E+00
 -0.9300000      0.0000000E+00
 -0.9200000      0.0000000E+00
 -0.9100000      0.0000000E+00
 -0.9000000      0.0000000E+00
 -0.8900000      0.0000000E+00
 -0.8800000      0.0000000E+00
 -0.8700000      0.0000000E+00
 -0.8600000      0.0000000E+00
 -0.8500000      0.0000000E+00
 -0.8400000      0.0000000E+00
 -0.8300000      0.0000000E+00
 -0.8200000      0.0000000E+00
 -0.8100000      0.0000000E+00
 -0.8000000      0.0000000E+00
 -0.7900000      0.0000000E+00
 -0.7800000      0.0000000E+00
 -0.7700000      0.0000000E+00
 -0.7600000      0.0000000E+00
 -0.7500000      0.0000000E+00
 -0.7400000      0.0000000E+00
 -0.7300000      0.0000000E+00
 -0.7200000      0.0000000E+00
 -0.7100000      0.0000000E+00
 -0.7000000      0.0000000E+00
 -0.6900000      0.0000000E+00
 -0.6800000      0.0000000E+00
 -0.6700000      0.0000000E+00
 -0.6600000      0.0000000E+00
 -0.6500000      0.0000000E+00
 -0.6400000      0.0000000E+00
 -0.6300000      0.0000000E+00
 -0.6200000      0.0000000E+00
 -0.6100000      0.0000000E+00
 -0.6000000      0.0000000E+00
 -0.5900000      0.0000000E+00
 -0.5800000      0.0000000E+00
 -0.5700000      0.0000000E+00
 -0.5600000      0.0000000E+00
 -0.5500000      0.0000000E+00
 -0.5400000      0.0000000E+00
 -0.5300000      0.0000000E+00
 -0.5200000      0.0000000E+00
 -0.5100000      0.0000000E+00
 -0.5000000      0.0000000E+00
 -0.4900000      0.0000000E+00
 -0.4800000      0.0000000E+00
 -0.4700000      0.0000000E+00
 -0.4600000      0.0000000E+00
 -0.4500000      0.0000000E+00
 -0.4400000      0.0000000E+00
 -0.4300000      0.0000000E+00
 -0.4200000      0.0000000E+00
 -0.4100000      0.0000000E+00
 -0.4000000      0.0000000E+00
 -0.3900000      0.0000000E+00
 -0.3800000      0.0000000E+00
 -0.3700000      0.0000000E+00
 -0.3600000      0.0000000E+00
 -0.3500000      0.0000000E+00
 -0.3400000      0.0000000E+00
 -0.3300000      0.0000000E+00
 -0.3200000      0.0000000E+00
 -0.3100000      0.0000000E+00
 -0.3000000      0.0000000E+00
 -0.2900000      0.0000000E+00
 -0.2800000      0.0000000E+00
 -0.2700000      0.0000000E+00
 -0.2600000      0.0000000E+00
 -0.2500000      0.0000000E+00
 -0.2400000      0.0000000E+00
 -0.2300000      0.0000000E+00
 -0.2200000      0.0000000E+00
 -0.2100000      0.0000000E+00
 -0.2000000      0.0000000E+00
 -0.1900000      0.0000000E+00
 -0.1800000      0.0000000E+00
 -0.1700000      0.0000000E+00
 -0.1600000      0.0000000E+00
 -0.1500000      0.0000000E+00
 -0.1400000      0.0000000E+00
 -0.1300000      0.0000000E+00
 -0.1200000      0.0000000E+00
 -0.1100000      0.0000000E+00
 -0.1000000      0.0000000E+00
 -9.0000004E-02  0.0000000E+00
 -7.9999998E-02  0.0000000E+00
 -7.0000000E-02  0.0000000E+00
 -5.9999999E-02  0.0000000E+00
 -5.0000001E-02  0.0000000E+00
 -3.9999999E-02  0.0000000E+00
 -2.9999999E-02  0.0000000E+00
 -2.0000000E-02  0.0000000E+00
 -9.9999998E-03  0.0000000E+00
 -3.4694470E-17  0.0000000E+00
  9.9999998E-03  0.0000000E+00
  2.0000000E-02  0.0000000E+00
  2.9999999E-02  0.0000000E+00
  3.9999999E-02  0.0000000E+00
  5.0000001E-02  0.0000000E+00
  5.9999999E-02  0.0000000E+00
  7.0000000E-02  0.0000000E+00
  7.9999998E-02  0.0000000E+00
  9.0000004E-02  0.0000000E+00
  0.1000000      0.0000000E+00
  0.1100000      0.0000000E+00
  0.1200000      0.0000000E+00
  0.1300000      0.0000000E+00
  0.1400000      0.0000000E+00
  0.1500000      0.0000000E+00
  0.1600000      0.0000000E+00
  0.1700000      0.0000000E+00
  0.1800000      0.0000000E+00
  0.1900000      0.0000000E+00
  0.2000000      0.0000000E+00
  0.2100000      0.0000000E+00
  0.2200000      0.0000000E+00
  0.2300000      0.0000000E+00
  0.2400000      0.0000000E+00
  0.2500000      0.0000000E+00
  0.2600000      0.0000000E+00
  0.2700000      0.0000000E+00
  0.2800000      0.0000000E+00
  0.2900000      0.0000000E+00
  0.3000000      0.0000000E+00
  0.3100000      0.0000000E+00
  0.3200000      0.0000000E+00
  0.3300000      0.0000000E+00
  0.3400000      0.0000000E+00
  0.3500000      0.0000000E+00
  0.3600000      0.0000000E+00
  0.3700000      0.0000000E+00
  0.3800000      0.0000000E+00
  0.3900000      0.0000000E+00
  0.4000000      0.0000000E+00
  0.4100000      0.0000000E+00
  0.4200000      0.0000000E+00
  0.4300000      0.0000000E+00
  0.4400000      0.0000000E+00
  0.4500000      0.0000000E+00
  0.4600000      0.0000000E+00
  0.4700000      0.0000000E+00
  0.4800000      0.0000000E+00
  0.4900000      0.0000000E+00
  0.5000000      0.0000000E+00
  0.5100000      0.0000000E+00
  0.5200000      0.0000000E+00
  0.5300000      0.0000000E+00
  0.5400000      0.0000000E+00
  0.5500000      0.0000000E+00
  0.5600000      0.0000000E+00
  0.5700000      0.0000000E+00
  0.5800000      1.2416386E-38
  0.5900000      1.3983874E-38
  0.6000000      1.5656615E-38
  0.6100000      1.7458678E-38
  0.6200000      1.9382316E-38
  0.6300000      2.1446727E-38
  0.6400000      2.3641870E-38
  0.6500000      2.5962221E-38
  0.6600000      2.8161892E-38
  0.6700000      3.0234805E-38
  0.6800000      3.2681744E-38
  0.6900000      3.5543711E-38
  0.7000000      3.8621994E-38
  0.7100000      4.1873466E-38
  0.7200000      4.5333606E-38
  0.7300000      4.9068624E-38
  0.7400000      5.3044164E-38
  0.7500000      5.6686934E-38
  0.7600000      6.0237858E-38
  0.7700000      6.4259108E-38
  0.7800000      6.8554279E-38
  0.7900000      7.3065294E-38
  0.8000000      7.7831928E-38
  0.8100000      8.2916999E-38
  0.8200000      8.8270475E-38
  0.8300000      9.3913768E-38
  0.8400000      9.9867201E-38
  0.8500000      1.0569101E-37
  0.8600000      1.1138826E-37
  0.8700000      1.1693883E-37
  0.8800000      1.2273202E-37
  0.8900000      1.2918360E-37
  0.9000000      1.3585149E-37
  0.9100000      1.4286816E-37
  0.9200000      1.5027457E-37
  0.9300000      1.5805945E-37
  0.9400000      1.6691884E-37
  0.9500000      1.7632722E-37
  0.9600000      1.8715982E-37
  0.9700000      1.9987875E-37
  0.9800000      2.1318727E-37
  0.9900000      2.2735308E-37
   1.000000      2.4245315E-37
   1.010000      2.5940819E-37
   1.020000      2.7725576E-37
   1.030000      2.9427375E-37
   1.040000      3.0541367E-37
   1.050000      3.1071540E-37
   1.060000      3.1415042E-37
   1.070000      3.1582664E-37
   1.080000      3.1713075E-37
   1.090000      3.1866509E-37
   1.100000      3.2368291E-37
   1.110000      3.3231201E-37
   1.120000      3.4425572E-37
   1.130000      3.5772477E-37
   1.140000      3.6941665E-37
   1.150000      3.8097122E-37
   1.160000      3.9203358E-37
   1.170000      4.1159140E-37
   1.180000      4.4292296E-37
   1.190000      4.7647749E-37
   1.200000      5.0913128E-37
   1.210000      5.3985739E-37
   1.220000      5.7100007E-37
   1.230000      6.0376597E-37
   1.240000      6.3162607E-37
   1.250000      6.5135451E-37
   1.260000      6.6824292E-37
   1.270000      6.7373027E-37
   1.280000      5.4825724E-37
   1.290000      3.0079737E-37
   1.300000      5.4479469E-38
   1.310000     -6.3428385E-38
   1.320000     -5.1162029E-38
   1.330000     -2.4085162E-38
   1.340000      0.0000000E+00
   1.350000      3.6107358E-38
   1.360000      6.1294544E-38
   1.370000      8.3826369E-38
   1.380000      1.0855374E-37
   1.390000      1.2891557E-37
   1.400000      1.3808125E-37
   1.410000      1.3497151E-37
   1.420000      1.2142516E-37
   1.430000      1.1615903E-37
   1.440000      1.1106463E-37
   1.450000      9.9256336E-38
   1.460000      9.1452566E-38
   1.470000      8.5897376E-38
   1.480000      8.3428479E-38
   1.490000      8.7360365E-38
   1.500000      1.0490015E-37
   1.510000      1.2851747E-37
   1.520000      1.5486400E-37
   1.530000      1.8067636E-37
   1.540000      7.1625095E-38
   1.550000     -2.0591837E-37
   1.560000     -5.3309985E-37
   1.570000     -8.6333483E-37
   1.580000     -1.1773880E-36
   1.590000     -1.4575282E-36
   1.600000     -1.6050102E-36
   1.610000     -1.6295689E-36
   1.620000     -1.6334957E-36
   1.630000     -1.6395662E-36
   1.640000     -1.7104487E-36
   1.650000     -1.8523472E-36
   1.660000     -2.0043610E-36
   1.670000     -2.1008399E-36
   1.680000     -2.1611235E-36
   1.690000     -2.2490436E-36
   1.700000     -2.4097275E-36
   1.710000     -2.7182478E-36
   1.720000     -3.1191786E-36
   1.730000     -3.5642952E-36
   1.740000     -4.0440360E-36
   1.750000     -4.5257200E-36
   1.760000     -5.0047755E-36
   1.770000     -5.3956708E-36
   1.780000     -5.6626599E-36
   1.790000     -5.8857947E-36
   1.800000     -6.0742975E-36
   1.810000     -6.2738546E-36
   1.820000     -6.3596677E-36
   1.830000     -6.3458651E-36
   1.840000     -6.4061343E-36
   1.850000     -6.5181384E-36
   1.860000     -6.7724323E-36
   1.870000     -7.1668005E-36
   1.880000     -7.6938832E-36
   1.890000     -8.3041214E-36
   1.900000     -8.9293590E-36
   1.910000     -9.6184359E-36
   1.920000     -1.0431181E-35
   1.930000     -1.1325999E-35
   1.940000     -1.2304913E-35
   1.950000     -1.3402158E-35
   1.960000     -1.4597025E-35
   1.970000     -1.5796182E-35
   1.980000     -1.7192784E-35
   1.990000     -1.8881830E-35
   2.000000     -2.0849390E-35
   2.010000     -2.3205470E-35
   2.020000     -2.5717862E-35
   2.030000     -2.8390883E-35
   2.040000     -3.1426382E-35
   2.050000     -3.4799773E-35
   2.060000     -3.8240852E-35
   2.070000     -4.1891683E-35
   2.080000     -4.5955498E-35
   2.090000     -4.9705555E-35
   2.100000     -5.3364321E-35
   2.110000     -5.7510120E-35
   2.120000     -6.1886104E-35
   2.130000     -6.6463007E-35
   2.140000     -7.1225430E-35
   2.150000     -7.6469208E-35
   2.160000     -8.1754100E-35
   2.170000     -8.6885408E-35
   2.180000     -9.2249307E-35
   2.190000     -9.7597668E-35
   2.200000     -1.0315305E-34
   2.210000     -1.0940829E-34
   2.220000     -1.1707182E-34
   2.230000     -1.2606591E-34
   2.240000     -1.3511316E-34
   2.250000     -1.4644619E-34
   2.260000     -1.5962003E-34
   2.270000     -1.7258238E-34
   2.280000     -1.8647563E-34
   2.290000     -2.0107657E-34
   2.300000     -2.1681038E-34
   2.310000     -2.3186810E-34
   2.320000     -2.4543558E-34
   2.330000     -2.5765006E-34
   2.340000     -2.6841902E-34
   2.350000     -2.7902193E-34
   2.360000     -2.8957608E-34
   2.370000     -3.0017481E-34
   2.380000     -3.1125942E-34
   2.390000     -3.2278241E-34
   2.400000     -3.3414228E-34
   2.410000     -3.4565007E-34
   2.420000     -3.5664650E-34
   2.430000     -3.7061339E-34
   2.440000     -3.8592843E-34
   2.450000     -3.9949901E-34
   2.460000     -4.1623543E-34
   2.470000     -4.3597547E-34
   2.480000     -4.5599432E-34
   2.490000     -4.7690825E-34
   2.500000     -4.9749391E-34
   2.510000     -5.1402834E-34
   2.520000     -5.2809483E-34
   2.530000     -5.3955682E-34
   2.540000     -5.4810363E-34
   2.550000     -5.5642163E-34
   2.560000     -5.6500820E-34
   2.570000     -5.7453448E-34
   2.580000     -5.8458009E-34
   2.590000     -5.9416666E-34
   2.600000     -6.0907248E-34
   2.610000     -6.2470926E-34
   2.620000     -6.3442495E-34
   2.630000     -6.4251341E-34
   2.640000     -6.4931952E-34
   2.650000     -6.5452026E-34
   2.660000     -6.5810478E-34
   2.670000     -6.5980503E-34
   2.680000     -6.5707375E-34
   2.690000     -6.5378971E-34
   2.700000     -6.5253992E-34
   2.710000     -6.5045911E-34
   2.720000     -6.4886999E-34
   2.730000     -6.4791674E-34
   2.740000     -6.4658765E-34
   2.750000     -6.4443911E-34
   2.760000     -6.4128543E-34
   2.770000     -6.3577393E-34
   2.780000     -6.2775972E-34
   2.790000     -6.1870432E-34
   2.800000     -6.0835240E-34
   2.810000     -5.9655076E-34
   2.820000     -5.8570035E-34
   2.830000     -5.7546092E-34
   2.840000     -5.6345494E-34
   2.850000     -5.4910032E-34
   2.860000     -5.3227073E-34
   2.870000     -5.1302449E-34
   2.880000     -4.9117986E-34
   2.890000     -4.6684166E-34
   2.900000     -4.3942256E-34
   2.910000     -4.0889479E-34
   2.920000     -3.7568538E-34
   2.930000     -3.4054806E-34
   2.940000     -3.0436515E-34
   2.950000     -2.6783186E-34
   2.960000     -2.3103538E-34
   2.970000     -1.9429188E-34
   2.980000     -1.5819366E-34
   2.990000     -1.2257628E-34
   3.000000     -8.7452297E-35
   3.010000     -5.2983221E-35
   3.020000     -1.8773570E-35
   3.030000      1.5719948E-35
   3.040000      5.0836526E-35
   3.050000      8.7075691E-35
   3.060000      1.2570052E-34
   3.070000      1.6663121E-34
   3.080000      2.1007237E-34
   3.090000      2.5811094E-34
   3.100000      3.1149608E-34
   3.110000      3.7104135E-34
   3.120000      4.3847606E-34
   3.130000      5.1549776E-34
   3.140000      6.0348980E-34
   3.150000      7.0363081E-34
   3.160000      8.1748946E-34
   3.170000      9.4776978E-34
   3.180000      1.0957260E-33
   3.190000      1.2607071E-33
   3.200000      1.4439345E-33
   3.210000      1.6472307E-33
   3.220000      1.8724707E-33
   3.230000      2.1209726E-33
   3.240000      2.3927764E-33
   3.250000      2.6882873E-33
   3.260000      3.0080507E-33
   3.270000      3.3550783E-33
   3.280000      3.7331001E-33
   3.290000      4.1438424E-33
   3.300000      4.5899752E-33
   3.310000      5.0753115E-33
   3.320000      5.6044176E-33
   3.330000      6.1815883E-33
   3.340000      6.8118987E-33
   3.350000      7.5015377E-33
   3.360000      8.2564549E-33
   3.370000      9.0831484E-33
   3.380000      9.9882181E-33
   3.390000      1.0978437E-32
   3.400000      1.2060612E-32
   3.410000      1.3241305E-32
   3.420000      1.4526652E-32
   3.430000      1.5922462E-32
   3.440000      1.7434042E-32
   3.450000      1.9066123E-32
   3.460000      2.0822876E-32
   3.470000      2.2707890E-32
   3.480000      2.4724246E-32
   3.490000      2.6874452E-32
   3.500000      2.9160662E-32
   3.510000      3.1584851E-32
   3.520000      3.4148705E-32
   3.530000      3.6854907E-32
   3.540000      3.9705357E-32
   3.550000      4.2702077E-32
   3.560000      4.5848556E-32
   3.570000      4.9148224E-32
   3.580000      5.2604941E-32
   3.590000      5.6222890E-32
   3.600000      6.0006671E-32
   3.610000      6.3960799E-32
   3.620000      6.8089182E-32
   3.630000      7.2395476E-32
   3.640000      7.6882232E-32
   3.650000      8.1549973E-32
   3.660000      8.6397354E-32
   3.670000      9.1420388E-32
   3.680000      9.6612388E-32
   3.690000      1.0196276E-31
   3.700000      1.0745716E-31
   3.710000      1.1307687E-31
   3.720000      1.1880070E-31
   3.730000      1.2460328E-31
   3.740000      1.3045318E-31
   3.750000      1.3631600E-31
   3.760000      1.4215385E-31
   3.770000      1.4792555E-31
   3.780000      1.5358699E-31
   3.790000      1.5909168E-31
   3.800000      1.6439115E-31
   3.810000      1.6943503E-31
   3.820000      1.7417153E-31
   3.830000      1.7854764E-31
   3.840000      1.8250884E-31
   3.850000      1.8599952E-31
   3.860000      1.8896193E-31
   3.870000      1.9133534E-31
   3.880000      1.9305563E-31
   3.890000      1.9405483E-31
   3.900000      1.9425901E-31
   3.910000      1.9358763E-31
   3.920000      1.9195273E-31
   3.930000      1.8925712E-31
   3.940000      1.8539386E-31
   3.950000      1.8024546E-31
   3.960000      1.7368323E-31
   3.970000      1.6556717E-31
   3.980000      1.5574595E-31
   3.990000      1.4405766E-31
   4.000000      1.3033051E-31
   4.010000      1.1438412E-31
   4.020000      9.6030994E-32
   4.030000      7.5077425E-32
   4.040000      5.1328384E-32
   4.050000      2.4587570E-32
   4.060000     -5.3426262E-33
   4.070000     -3.8656252E-32
   4.080000     -7.5543180E-32
   4.090000     -1.1618802E-31
   4.100000     -1.6076919E-31
   4.110000     -2.0945859E-31
   4.120000     -2.6242180E-31
   4.130000     -3.1981870E-31
   4.140000     -3.8180466E-31
   4.150000     -4.4853197E-31
   4.160000     -5.2015164E-31
   4.170000     -5.9681503E-31
   4.180000     -6.7867580E-31
   4.190000     -7.6589099E-31
   4.200000     -8.5862245E-31
   4.210000     -9.5703672E-31
   4.220000     -1.0613048E-30
   4.230000     -1.1716005E-30
   4.240000     -1.2880980E-30
   4.250000     -1.4109683E-30
   4.260000     -1.5403744E-30
   4.270000     -1.6764654E-30
   4.280000     -1.8193707E-30
   4.290000     -1.9691932E-30
   4.300000     -2.1259998E-30
   4.310000     -2.2898160E-30
   4.320000     -2.4606174E-30
   4.330000     -2.6383235E-30
   4.340000     -2.8227915E-30
   4.350000     -3.0138114E-30
   4.360000     -3.2111026E-30
   4.370000     -3.4143119E-30
   4.380000     -3.6230139E-30
   4.390000     -3.8367090E-30
   4.400000     -4.0548292E-30
   4.410000     -4.2767392E-30
   4.420000     -4.5017413E-30
   4.430000     -4.7290788E-30
   4.440000     -4.9579403E-30
   4.450000     -5.1874615E-30
   4.460000     -5.4167303E-30
   4.470000     -5.6447841E-30
   4.480000     -5.8706091E-30
   4.490000     -6.0931357E-30
   4.500000     -6.3112318E-30
   4.510000     -6.5236935E-30
   4.520000     -6.7292308E-30
   4.530000     -6.9264573E-30
   4.540000     -7.1138721E-30
   4.550000     -7.2898404E-30
   4.560000     -7.4525830E-30
   4.570000     -7.6001529E-30
   4.580000     -7.7304240E-30
   4.590000     -7.8410785E-30
   4.600000     -7.9295952E-30
   4.610000     -7.9932465E-30
   4.620000     -8.0290966E-30
   4.630000     -8.0340032E-30
   4.640000     -8.0046283E-30
   4.650000     -7.9374502E-30
   4.660000     -7.8287818E-30
   4.670000     -7.6747872E-30
   4.680000     -7.4715075E-30
   4.690000     -7.2148826E-30
   4.700000     -6.9007763E-30
   4.710000     -6.5249965E-30
   4.720000     -6.0833142E-30
   4.730000     -5.5714795E-30
   4.740000     -4.9852313E-30
   4.750000     -4.3203006E-30
   4.760000     -3.5724086E-30
   4.770000     -2.7372580E-30
   4.780000     -1.8105224E-30
   4.790000     -7.8782802E-31
   4.800000      3.3526792E-31
   4.810000      1.5632980E-30
   4.820000      2.9009043E-30
   4.830000      4.3528552E-30
   4.840000      5.9240559E-30
   4.850000      7.6195536E-30
   4.860000      9.4445280E-30
   4.870000      1.1404277E-29
   4.880000      1.3504175E-29
   4.890000      1.5749646E-29
   4.900000      1.8146083E-29
   4.910000      2.0698801E-29
   4.920000      2.3412938E-29
   4.930000      2.6293373E-29
   4.940000      2.9344633E-29
   4.950000      3.2570798E-29
   4.960000      3.5975399E-29
   4.970000      3.9561336E-29
   4.980000      4.3330791E-29
   4.990000      4.7285155E-29
   5.000000      5.1424990E-29
   5.010000      5.5749972E-29
   5.020000      6.0258869E-29
   5.030000      6.4949538E-29
   5.040000      6.9818927E-29
   5.050000      7.4863106E-29
   5.060000      8.0077272E-29
   5.070000      8.5455793E-29
   5.080000      9.0992221E-29
   5.090000      9.6679300E-29
   5.100000      1.0250902E-28
   5.110000      1.0847250E-28
   5.120000      1.1456008E-28
   5.130000      1.2076112E-28
   5.140000      1.2706395E-28
   5.150000      1.3345581E-28
   5.160000      1.3992257E-28
   5.170000      1.4644862E-28
   5.180000      1.5301666E-28
   5.190000      1.5960748E-28
   5.200000      1.6619969E-28
   5.210000      1.7276958E-28
   5.220000      1.7929084E-28
   5.230000      1.8573442E-28
   5.240000      1.9206837E-28
   5.250000      1.9825768E-28
   5.260000      2.0426430E-28
   5.270000      2.1004700E-28
   5.280000      2.1556151E-28
   5.290000      2.2076063E-28
   5.300000      2.2559417E-28
   5.310000      2.3000926E-28
   5.320000      2.3395053E-28
   5.330000      2.3736022E-28
   5.340000      2.4017849E-28
   5.350000      2.4234345E-28
   5.360000      2.4379148E-28
   5.370000      2.4445728E-28
   5.380000      2.4427393E-28
   5.390000      2.4317290E-28
   5.400000      2.4108401E-28
   5.410000      2.3793528E-28
   5.420000      2.3365283E-28
   5.430000      2.2816061E-28
   5.440000      2.2138013E-28
   5.450000      2.1323032E-28
   5.460000      2.0362708E-28
   5.470000      1.9248317E-28
   5.480000      1.7970811E-28
   5.490000      1.6520798E-28
   5.500000      1.4888549E-28
   5.510000      1.3064007E-28
   5.520000      1.1036811E-28
   5.530000      8.7963456E-29
   5.540000      6.3317836E-29
   5.550000      3.6321525E-29
   5.560000      6.8641723E-30
   5.570000     -2.5164372E-29
   5.580000     -5.9873142E-29
   5.590000     -9.7369036E-29
   5.600000     -1.3775577E-28
   5.610000     -1.8113309E-28
   5.620000     -2.2759583E-28
   5.630000     -2.7723311E-28
   5.640000     -3.3012767E-28
   5.650000     -3.8635539E-28
   5.660000     -4.4598505E-28
   5.670000     -5.0907769E-28
   5.680000     -5.7568704E-28
   5.690000     -6.4585916E-28
   5.700000     -7.1963268E-28
   5.710000     -7.9703889E-28
   5.720000     -8.7810166E-28
   5.730000     -9.6283767E-28
   5.740000     -1.0512562E-27
   5.750000     -1.1433587E-27
   5.760000     -1.2391386E-27
   5.770000     -1.3385799E-27
   5.780000     -1.4416564E-27
   5.790000     -1.5483306E-27
   5.800000     -1.6585514E-27
   5.810000     -1.7722519E-27
   5.820000     -1.8893486E-27
   5.830000     -2.0097377E-27
   5.840000     -2.1332927E-27
   5.850000     -2.2598629E-27
   5.860000     -2.3892696E-27
   5.870000     -2.5213046E-27
   5.880000     -2.6557287E-27
   5.890000     -2.7922693E-27
   5.900000     -2.9306185E-27
   5.910000     -3.0704338E-27
   5.920000     -3.2113368E-27
   5.930000     -3.3529123E-27
   5.940000     -3.4947100E-27
   5.950000     -3.6362451E-27
   5.960000     -3.7769982E-27
   5.970000     -3.9164163E-27
   5.980000     -4.0539154E-27
   5.990000     -4.1888803E-27
   6.000000     -4.3206659E-27
   6.010000     -4.4485973E-27
   6.020000     -4.5719697E-27
   6.030000     -4.6900481E-27
   6.040000     -4.8020656E-27
   6.050000     -4.9072229E-27
   6.060000     -5.0046869E-27
   6.070000     -5.0935847E-27
   6.080000     -5.1730047E-27
   6.090000     -5.2419900E-27
   6.100000     -5.2995379E-27
   6.110000     -5.3445958E-27
   6.120000     -5.3760590E-27
   6.130000     -5.3927683E-27
   6.140000     -5.3935090E-27
   6.150000     -5.3770115E-27
   6.160000     -5.3419511E-27
   6.170000     -5.2869500E-27
   6.180000     -5.2105823E-27
   6.190000     -5.1113769E-27
   6.200000     -4.9878234E-27
   6.210000     -4.8383794E-27
   6.220000     -4.6614754E-27
   6.230000     -4.4555241E-27
   6.240000     -4.2189287E-27
   6.250000     -3.9500881E-27
   6.260000     -3.6474074E-27
   6.270000     -3.3093012E-27
   6.280000     -2.9342024E-27
   6.290000     -2.5205641E-27
   6.300000     -2.0668655E-27
   6.310000     -1.5716126E-27
   6.320000     -1.0333409E-27
   6.330000     -4.5061445E-28
   6.340000      1.7797340E-28
   6.350000      8.5380018E-28
   6.360000      1.5782144E-27
   6.370000      2.3525361E-27
   6.380000      3.1780542E-27
   6.390000      4.0560250E-27
   6.400000      4.9876671E-27
   6.410000      5.9741523E-27
   6.420000      7.0165988E-27
   6.430000      8.1160583E-27
   6.440000      9.2734983E-27
   6.450000      1.0489792E-26
   6.460000      1.1765692E-26
   6.470000      1.3101812E-26
   6.480000      1.4498607E-26
   6.490000      1.5956347E-26
   6.500000      1.7475090E-26
   6.510000      1.9054675E-26
   6.520000      2.0694684E-26
   6.530000      2.2394430E-26
   6.540000      2.4152943E-26
   6.550000      2.5968956E-26
   6.560000      2.7840892E-26
   6.570000      2.9766856E-26
   6.580000      3.1744635E-26
   6.590000      3.3771699E-26
   6.600000      3.5845192E-26
   6.610000      3.7961947E-26
   6.620000      4.0118464E-26
   6.630000      4.2310946E-26
   6.640000      4.4535263E-26
   6.650000      4.6786971E-26
   6.660000      4.9061306E-26
   6.670000      5.1353166E-26
   6.680000      5.3657099E-26
   6.690000      5.5967284E-26
   6.700000      5.8277506E-26
   6.710000      6.0581146E-26
   6.720000      6.2871111E-26
   6.730000      6.5139850E-26
   6.740000      6.7379285E-26
   6.750000      6.9580786E-26
   6.760000      7.1735159E-26
   6.770000      7.3832586E-26
   6.780000      7.5862621E-26
   6.790000      7.7814183E-26
   6.800000      7.9675518E-26
   6.810000      8.1434241E-26
   6.820000      8.3077321E-26
   6.830000      8.4591077E-26
   6.840000      8.5961236E-26
   6.850000      8.7172945E-26
   6.860000      8.8210846E-26
   6.870000      8.9059068E-26
   6.880000      8.9701330E-26
   6.890000      9.0120937E-26
   6.900000      9.0300834E-26
   6.910000      9.0223673E-26
   6.920000      8.9871835E-26
   6.930000      8.9227453E-26
   6.940000      8.8272426E-26
   6.950000      8.6988438E-26
   6.960000      8.5356981E-26
   6.970000      8.3359357E-26
   6.980000      8.0976615E-26
   6.990000      7.8189631E-26
   7.000000      7.4979029E-26
   7.010000      7.1325222E-26
   7.020000      6.7208355E-26
   7.030000      6.2608383E-26
   7.040000      5.7505063E-26
   7.050000      5.1877995E-26
   7.060000      4.5706696E-26