  -2.600000      0.0000000E+00
  -2.590000      0.0000000E+00
  -2.580000      0.0000000E+00
  -2.570000      0.0000000E+00
  -2.560000      0.0000000E+00
  -2.550000      0.0000000E+00
  -2.540000      0.0000000E+00
  -2.530000      0.0000000E+00
  -2.520000      0.0000000E+00
  -2.510000      0.0000000E+00
  -2.500000      0.0000000E+00
  -2.490000      0.0000000E+00
  -2.480000      0.0000000E+00
  -2.470000      0.0000000E+00
  -2.460000      0.0000000E+00
  -2.450000      0.0000000E+00
  -2.440000      0.0000000E+00
  -2.430000      0.0000000E+00
  -2.420000      0.0000000E+00
  -2.410000      0.0000000E+00
  -2.400000      0.0000000E+00
  -2.390000      0.0000000E+00
  -2.380000      0.0000000E+00
  -2.370000      0.0000000E+00
  -2.360000      0.0000000E+00
  -2.350000      0.0000000E+00
  -2.340000      0.0000000E+00
  -2.330000      0.0000000E+00
  -2.320000      0.0000000E+00
  -2.310000      0.0000000E+00
  -2.300000      0.0000000E+00
  -2.290000      0.0000000E+00
  -2.280000      0.0000000E+00
  -2.270000      0.0000000E+00
  -2.260000      0.0000000E+00
  -2.250000      0.0000000E+00
  -2.240000      0.0000000E+00
  -2.230000      0.0000000E+00
  -2.220000      0.0000000E+00
  -2.210000      0.0000000E+00
  -2.200000      0.0000000E+00
  -2.190000      0.0000000E+00
  -2.180000      0.0000000E+00
  -2.170000      0.0000000E+00
  -2.160000      0.0000000E+00
  -2.150000      0.0000000E+00
  -2.140000      0.0000000E+00
  -2.130000      0.0000000E+00
  -2.120000      0.0000000E+00
  -2.110000      0.0000000E+00
  -2.100000      0.0000000E+00
  -2.090000      0.0000000E+00
  -2.080000      0.0000000E+00
  -2.070000      0.0000000E+00
  -2.060000      0.0000000E+00
  -2.050000      0.0000000E+00
  -2.040000      0.0000000E+00
  -2.030000      0.0000000E+00
  -2.020000      0.0000000E+00
  -2.010000      0.0000000E+00
  -2.000000      0.0000000E+00
  -1.990000      0.0000000E+00
  -1.980000      0.0000000E+00
  -1.970000      0.0000000E+00
  -1.960000      0.0000000E+00
  -1.950000      0.0000000E+00
  -1.940000      0.0000000E+00
  -1.930000      0.0000000E+00
  -1.920000      0.0000000E+00
  -1.910000      0.0000000E+00
  -1.900000      0.0000000E+00
  -1.890000      0.0000000E+00
  -1.880000      0.0000000E+00
  -1.870000      0.0000000E+00
  -1.860000      0.0000000E+00
  -1.850000      0.0000000E+00
  -1.840000      0.0000000E+00
  -1.830000      0.0000000E+00
  -1.820000      0.0000000E+00
  -1.810000      0.0000000E+00
  -1.800000      0.0000000E+00
  -1.790000      0.0000000E+00
  -1.780000      0.0000000E+00
  -1.770000      0.0000000E+00
  -1.760000      0.0000000E+00
  -1.750000      0.0000000E+00
  -1.740000      0.0000000E+00
  -1.730000      0.0000000E+00
  -1.720000      0.0000000E+00
  -1.710000      0.0000000E+00
  -1.700000      0.0000000E+00
  -1.690000      0.0000000E+00
  -1.680000      0.0000000E+00
  -1.670000      0.0000000E+00
  -1.660000      0.0000000E+00
  -1.650000      0.0000000E+00
  -1.640000      0.0000000E+00
  -1.630000      0.0000000E+00
  -1.620000      0.0000000E+00
  -1.610000      0.0000000E+00
  -1.600000      0.0000000E+00
  -1.590000      0.0000000E+00
  -1.580000      0.0000000E+00
  -1.570000      0.0000000E+00
  -1.560000      0.0000000E+00
  -1.550000      0.0000000E+00
  -1.540000      0.0000000E+00
  -1.530000      0.0000000E+00
  -1.520000      0.0000000E+00
  -1.510000      0.0000000E+00
  -1.500000      0.0000000E+00
  -1.490000      0.0000000E+00
  -1.480000      0.0000000E+00
  -1.470000      0.0000000E+00
  -1.460000      0.0000000E+00
  -1.450000      0.0000000E+00
  -1.440000      0.0000000E+00
  -1.430000      0.0000000E+00
  -1.420000      0.0000000E+00
  -1.410000      0.0000000E+00
  -1.400000      0.0000000E+00
  -1.390000      0.0000000E+00
  -1.380000      0.0000000E+00
  -1.370000      0.0000000E+00
  -1.360000      0.0000000E+00
  -1.350000      0.0000000E+00
  -1.340000      0.0000000E+00
  -1.330000      0.0000000E+00
  -1.320000      0.0000000E+00
  -1.310000      0.0000000E+00
  -1.300000      0.0000000E+00
  -1.290000      0.0000000E+00
  -1.280000      0.0000000E+00
  -1.270000      0.0000000E+00
  -1.260000      0.0000000E+00
  -1.250000      0.0000000E+00
  -1.240000      0.0000000E+00
  -1.230000      0.0000000E+00
  -1.220000      0.0000000E+00
  -1.210000      0.0000000E+00
  -1.200000      0.0000000E+00
  -1.190000      0.0000000E+00
  -1.180000      0.0000000E+00
  -1.170000      0.0000000E+00
  -1.160000      0.0000000E+00
  -1.150000      0.0000000E+00
  -1.140000      0.0000000E+00
  -1.130000      0.0000000E+00
  -1.120000      0.0000000E+00
  -1.110000      0.0000000E+00
  -1.100000      0.0000000E+00
  -1.090000      0.0000000E+00
  -1.080000      0.0000000E+00
  -1.070000      0.0000000E+00
  -1.060000      0.0000000E+00
  -1.050000      0.0000000E+00
  -1.040000      0.0000000E+00
  -1.030000      0.0000000E+00
  -1.020000      0.0000000E+00
  -1.010000      0.0000000E+00
  -1.000000      0.0000000E+00
 -0.9900000      0.0000000E+00
 -0.9800000      0.0000000E+00
 -0.9700000      0.0000000E+00
 -0.9600000      0.0000000E+00
 -0.9500000      0.0000000E+00
 -0.9400000      0.0000000E+00
 -0.9300000      0.0000000E+00
 -0.9200000      0.0000000E+00
 -0.9100000      0.0000000E+00
 -0.9000000      0.0000000E+00
 -0.8900000      0.0000000E+00
 -0.8800000      0.0000000E+00
 -0.8700000      0.0000000E+00
 -0.8600000      0.0000000E+00
 -0.8500000      0.0000000E+00
 -0.8400000      0.0000000E+00
 -0.8300000      0.0000000E+00
 -0.8200000      0.0000000E+00
 -0.8100000      0.0000000E+00
 -0.8000000      0.0000000E+00
 -0.7900000      0.0000000E+00
 -0.7800000      0.0000000E+00
 -0.7700000      0.0000000E+00
 -0.7600000      0.0000000E+00
 -0.7500000      0.0000000E+00
 -0.7400000      0.0000000E+00
 -0.7300000      0.0000000E+00
 -0.7200000      0.0000000E+00
 -0.7100000      0.0000000E+00
 -0.7000000      0.0000000E+00
 -0.6900000      0.0000000E+00
 -0.6800000      0.0000000E+00
 -0.6700000      0.0000000E+00
 -0.6600000      0.0000000E+00
 -0.6500000      0.0000000E+00
 -0.6400000      0.0000000E+00
 -0.6300000      0.0000000E+00
 -0.6200000      0.0000000E+00
 -0.6100000      0.0000000E+00
 -0.6000000      0.0000000E+00
 -0.5900000      0.0000000E+00
 -0.5800000      0.0000000E+00
 -0.5700000      0.0000000E+00
 -0.5600000      0.0000000E+00
 -0.5500000      0.0000000E+00
 -0.5400000      0.0000000E+00
 -0.5300000      0.0000000E+00
 -0.5200000      0.0000000E+00
 -0.5100000      0.0000000E+00
 -0.5000000      0.0000000E+00
 -0.4900000      0.0000000E+00
 -0.4800000      0.0000000E+00
 -0.4700000      0.0000000E+00
 -0.4600000      0.0000000E+00
 -0.4500000      0.0000000E+00
 -0.4400000      0.0000000E+00
 -0.4300000      0.0000000E+00
 -0.4200000      0.0000000E+00
 -0.4100000      0.0000000E+00
 -0.4000000      0.0000000E+00
 -0.3900000      0.0000000E+00
 -0.3800000      0.0000000E+00
 -0.3700000      0.0000000E+00
 -0.3600000      0.0000000E+00
 -0.3500000      0.0000000E+00
 -0.3400000      0.0000000E+00
 -0.3300000      0.0000000E+00
 -0.3200000      0.0000000E+00
 -0.3100000      0.0000000E+00
 -0.3000000      0.0000000E+00
 -0.2900000      0.0000000E+00
 -0.2800000      0.0000000E+00
 -0.2700000      0.0000000E+00
 -0.2600000      0.0000000E+00
 -0.2500000      0.0000000E+00
 -0.2400000      0.0000000E+00
 -0.2300000      0.0000000E+00
 -0.2200000      0.0000000E+00
 -0.2100000      0.0000000E+00
 -0.2000000      0.0000000E+00
 -0.1900000      0.0000000E+00
 -0.1800000      0.0000000E+00
 -0.1700000      0.0000000E+00
 -0.1600000      0.0000000E+00
 -0.1500000      0.0000000E+00
 -0.1400000      0.0000000E+00
 -0.1300000      0.0000000E+00
 -0.1200000      0.0000000E+00
 -0.1100000      0.0000000E+00
 -0.1000000      0.0000000E+00
 -9.0000004E-02  0.0000000E+00
 -7.9999998E-02  0.0000000E+00
 -7.0000000E-02  0.0000000E+00
 -5.9999999E-02  0.0000000E+00
 -5.0000001E-02  0.0000000E+00
 -3.9999999E-02  0.0000000E+00
 -2.9999999E-02  0.0000000E+00
 -2.0000000E-02  0.0000000E+00
 -9.9999998E-03  0.0000000E+00
 -3.4694470E-17  0.0000000E+00
  9.9999998E-03  0.0000000E+00
  2.0000000E-02  0.0000000E+00
  2.9999999E-02  0.0000000E+00
  3.9999999E-02  0.0000000E+00
  5.0000001E-02  0.0000000E+00
  5.9999999E-02  0.0000000E+00
  7.0000000E-02  0.0000000E+00
  7.9999998E-02  0.0000000E+00
  9.0000004E-02  0.0000000E+00
  0.1000000      0.0000000E+00
  0.1100000      0.0000000E+00
  0.1200000      0.0000000E+00
  0.1300000      0.0000000E+00
  0.1400000      0.0000000E+00
  0.1500000      0.0000000E+00
  0.1600000      0.0000000E+00
  0.1700000      0.0000000E+00
  0.1800000      0.0000000E+00
  0.1900000      0.0000000E+00
  0.2000000      0.0000000E+00
  0.2100000      0.0000000E+00
  0.2200000      0.0000000E+00
  0.2300000      0.0000000E+00
  0.2400000      0.0000000E+00
  0.2500000      0.0000000E+00
  0.2600000      0.0000000E+00
  0.2700000      0.0000000E+00
  0.2800000      0.0000000E+00
  0.2900000      0.0000000E+00
  0.3000000      0.0000000E+00
  0.3100000      0.0000000E+00
  0.3200000      0.0000000E+00
  0.3300000      0.0000000E+00
  0.3400000      0.0000000E+00
  0.3500000      0.0000000E+00
  0.3600000      0.0000000E+00
  0.3700000      0.0000000E+00
  0.3800000      0.0000000E+00
  0.3900000      0.0000000E+00
  0.4000000      0.0000000E+00
  0.4100000      0.0000000E+00
  0.4200000      0.0000000E+00
  0.4300000      0.0000000E+00
  0.4400000      0.0000000E+00
  0.4500000      0.0000000E+00
  0.4600000      0.0000000E+00
  0.4700000      0.0000000E+00
  0.4800000      0.0000000E+00
  0.4900000      0.0000000E+00
  0.5000000      0.0000000E+00
  0.5100000      0.0000000E+00
  0.5200000      0.0000000E+00
  0.5300000      0.0000000E+00
  0.5400000      0.0000000E+00
  0.5500000      0.0000000E+00
  0.5600000      0.0000000E+00
  0.5700000      0.0000000E+00
  0.5800000      0.0000000E+00
  0.5900000      0.0000000E+00
  0.6000000      0.0000000E+00
  0.6100000      0.0000000E+00
  0.6200000      0.0000000E+00
  0.6300000      0.0000000E+00
  0.6400000      0.0000000E+00
  0.6500000      0.0000000E+00
  0.6600000      0.0000000E+00
  0.6700000      0.0000000E+00
  0.6800000      0.0000000E+00
  0.6900000      0.0000000E+00
  0.7000000      0.0000000E+00
  0.7100000      0.0000000E+00
  0.7200000      0.0000000E+00
  0.7300000      0.0000000E+00
  0.7400000      0.0000000E+00
  0.7500000      0.0000000E+00
  0.7600000      0.0000000E+00
  0.7700000      0.0000000E+00
  0.7800000      0.0000000E+00
  0.7900000      0.0000000E+00
  0.8000000      0.0000000E+00
  0.8100000      0.0000000E+00
  0.8200000      0.0000000E+00
  0.8300000      0.0000000E+00
  0.8400000      0.0000000E+00
  0.8500000      0.0000000E+00
  0.8600000      0.0000000E+00
  0.8700000      0.0000000E+00
  0.8800000      0.0000000E+00
  0.8900000      0.0000000E+00
  0.9000000      0.0000000E+00
  0.9100000      0.0000000E+00
  0.9200000      1.4291327E-38
  0.9300000      1.9697283E-38
  0.9400000      2.5643633E-38
  0.9500000      3.0234107E-38
  0.9600000      3.0886496E-38
  0.9700000      2.9384811E-38
  0.9800000      2.9766962E-38
  0.9900000      3.2560411E-38
   1.000000      3.6463588E-38
   1.010000      4.3107279E-38
   1.020000      5.2482618E-38
   1.030000      6.2816130E-38
   1.040000      7.3048837E-38
   1.050000      8.2544630E-38
   1.060000      8.7722259E-38
   1.070000      8.8814157E-38
   1.080000      8.9136926E-38
   1.090000      8.9921266E-38
   1.100000      9.7875945E-38
   1.110000      6.7060758E-38
   1.120000     -1.7849792E-38
   1.130000     -1.1687475E-37
   1.140000     -1.9981225E-37
   1.150000     -3.2964645E-37
   1.160000     -5.3415148E-37
   1.170000     -7.5076953E-37
   1.180000     -9.8152110E-37
   1.190000     -8.6578371E-37
   1.200000     -3.6603124E-37
   1.210000      1.5447146E-37
   1.220000      6.3983324E-37
   1.230000      1.0246690E-36
   1.240000      1.0123433E-36
   1.250000      6.7194450E-37
   1.260000      3.1426887E-37
   1.270000     -8.9812643E-38
   1.280000     -5.6753745E-37
   1.290000     -1.1053630E-36
   1.300000     -1.6784531E-36
   1.310000     -2.2926963E-36
   1.320000     -2.6214136E-36
   1.330000     -2.4948393E-36
   1.340000     -2.1598186E-36
   1.350000     -1.7250459E-36
   1.360000     -1.2299583E-36
   1.370000     -7.4792146E-37
   1.380000     -3.4925180E-37
   1.390000     -8.6985849E-38
   1.400000     -1.3327772E-38
   1.410000     -1.0061973E-37
   1.420000     -3.3970129E-37
   1.430000     -7.0621909E-37
   1.440000     -1.1695595E-36
   1.450000     -1.2888242E-36
   1.460000     -1.0033357E-36
   1.470000     -7.3048752E-37
   1.480000     -4.7537743E-37
   1.490000     -2.8801874E-37
   1.500000     -1.5599534E-37
   1.510000     -1.5361736E-38
   1.520000      2.2874715E-37
   1.530000      6.0380238E-37
   1.540000      1.0364140E-36
   1.550000      1.4766584E-36
   1.560000      1.8522500E-36
   1.570000      2.1565193E-36
   1.580000      2.3765864E-36
   1.590000      2.5113410E-36
   1.600000      2.5989424E-36
   1.610000      2.6817961E-36
   1.620000      2.7957417E-36
   1.630000      2.0553096E-36
   1.640000      1.3849261E-36
   1.650000      1.2709360E-36
   1.660000      8.6664153E-37
   1.670000      1.2339876E-36
   1.680000      2.3849447E-36
   1.690000      3.2655346E-36
   1.700000      3.8121930E-36
   1.710000      4.4788745E-36
   1.720000      5.2633362E-36
   1.730000      5.9544977E-36
   1.740000      6.8479914E-36
   1.750000      8.0124117E-36
   1.760000      9.0151477E-36
   1.770000      9.8430289E-36
   1.780000      1.0154921E-35
   1.790000      1.0411452E-35
   1.800000      1.1200650E-35
   1.810000      1.2272194E-35
   1.820000      1.3536070E-35
   1.830000      1.1819385E-35
   1.840000      9.3211945E-36
   1.850000      9.4951310E-36
   1.860000      1.0094933E-35
   1.870000      1.1170920E-35
   1.880000      1.3005762E-35
   1.890000      1.6503327E-35
   1.900000      1.5266993E-35
   1.910000      1.8691732E-35
   1.920000      2.7173977E-35
   1.930000      2.9597229E-35
   1.940000      2.9972385E-35
   1.950000      2.8383118E-35
   1.960000      2.6453091E-35
   1.970000      2.7524088E-35
   1.980000      3.0881715E-35
   1.990000      3.0622532E-35
   2.000000      2.7683348E-35
   2.010000      2.5243500E-35
   2.020000      2.3611453E-35
   2.030000      2.3135485E-35
   2.040000      2.3354001E-35
   2.050000      2.9374335E-35
   2.060000      4.1782307E-35
   2.070000      5.4483693E-35
   2.080000      6.4213617E-35
   2.090000      7.0375458E-35
   2.100000      6.6947164E-35
   2.110000      6.1254069E-35
   2.120000      6.2080554E-35
   2.130000      6.4133261E-35
   2.140000      6.4406592E-35
   2.150000      6.7554840E-35
   2.160000      7.6817936E-35
   2.170000      8.5295747E-35
   2.180000      8.4303074E-35
   2.190000      7.5563228E-35
   2.200000      6.5738001E-35
   2.210000      5.9078969E-35
   2.220000      6.2227342E-35
   2.230000      6.8959182E-35
   2.240000      7.0276275E-35
   2.250000      6.7928954E-35
   2.260000      6.9084871E-35
   2.270000      7.4805235E-35
   2.280000      8.8137545E-35
   2.290000      1.0798989E-34
   2.300000      1.3423082E-34
   2.310000      1.6128810E-34
   2.320000      1.7611286E-34
   2.330000      1.7289523E-34
   2.340000      1.5089489E-34
   2.350000      1.2137149E-34
   2.360000      9.3848524E-35
   2.370000      7.2088018E-35
   2.380000      7.1453825E-35
   2.390000      8.8986736E-35
   2.400000      1.0795349E-34
   2.410000      1.2958166E-34
   2.420000      1.5581019E-34
   2.430000      1.8230276E-34
   2.440000      1.9716039E-34
   2.450000      1.9892266E-34
   2.460000      1.8664077E-34
   2.470000      1.6147612E-34
   2.480000      1.3162205E-34
   2.490000      1.0139686E-34
   2.500000      8.4633607E-35
   2.510000      8.9506393E-35
   2.520000      1.0778214E-34
   2.530000      1.3395293E-34
   2.540000      1.6526998E-34
   2.550000      1.9560637E-34
   2.560000      2.1881873E-34
   2.570000      2.3349313E-34
   2.580000      2.3141705E-34
   2.590000      2.0630208E-34
   2.600000      1.7101246E-34
   2.610000      1.3837840E-34
   2.620000      1.1095088E-34
   2.630000      9.5221758E-35
   2.640000      9.2701304E-35
   2.650000      9.6494334E-35
   2.660000      1.1343950E-34
   2.670000      1.4036528E-34
   2.680000      1.6578857E-34
   2.690000      1.8217675E-34
   2.700000      1.8886996E-34
   2.710000      1.8921639E-34
   2.720000      1.7515808E-34
   2.730000      1.4991951E-34
   2.740000      1.2315638E-34
   2.750000      9.3888421E-35
   2.760000      7.1961170E-35
   2.770000      5.8870869E-35
   2.780000      4.4894523E-35
   2.790000      2.6342748E-35
   2.800000      6.4497769E-36
   2.810000     -1.0322782E-35
   2.820000     -2.6773296E-35
   2.830000     -4.4838253E-35
   2.840000     -5.6998699E-35
   2.850000     -7.0915382E-35
   2.860000     -9.5945875E-35
   2.870000     -1.2439934E-34
   2.880000     -1.5635925E-34
   2.890000     -1.8562845E-34
   2.900000     -2.1335822E-34
   2.910000     -2.5515462E-34
   2.920000     -3.1125949E-34
   2.930000     -3.7323913E-34
   2.940000     -4.4055058E-34
   2.950000     -5.1167111E-34
   2.960000     -5.8697038E-34
   2.970000     -6.6537742E-34
   2.980000     -7.4366263E-34
   2.990000     -8.2281133E-34
   3.000000     -9.0407913E-34
   3.010000     -9.9637629E-34
   3.020000     -1.0850620E-33
   3.030000     -1.1617639E-33
   3.040000     -1.2441745E-33
   3.050000     -1.3435447E-33
   3.060000     -1.4607898E-33
   3.070000     -1.5880861E-33
   3.080000     -1.7256630E-33
   3.090000     -1.8731591E-33
   3.100000     -2.0289372E-33
   3.110000     -2.1894449E-33
   3.120000     -2.3547303E-33
   3.130000     -2.5263326E-33
   3.140000     -2.6996570E-33
   3.150000     -2.8737533E-33
   3.160000     -3.0582346E-33
   3.170000     -3.2545041E-33
   3.180000     -3.4465322E-33
   3.190000     -3.6289953E-33
   3.200000     -3.8064101E-33
   3.210000     -3.9783427E-33
   3.220000     -4.1447134E-33
   3.230000     -4.3057157E-33
   3.240000     -4.4606447E-33
   3.250000     -4.6094825E-33
   3.260000     -4.7516608E-33
   3.270000     -4.8849413E-33
   3.280000     -5.0068466E-33
   3.290000     -5.1140613E-33
   3.300000     -5.2028662E-33
   3.310000     -5.2690866E-33
   3.320000     -5.3079826E-33
   3.330000     -5.3157823E-33
   3.340000     -5.2884444E-33
   3.350000     -5.2217321E-33
   3.360000     -5.1117591E-33
   3.370000     -4.9547814E-33
   3.380000     -4.7484458E-33
   3.390000     -4.4897878E-33
   3.400000     -4.1757126E-33
   3.410000     -3.8001356E-33
   3.420000     -3.3557443E-33
   3.430000     -2.8361070E-33
   3.440000     -2.2321514E-33
   3.450000     -1.5334270E-33
   3.460000     -7.2895945E-34
   3.470000      1.9267847E-34
   3.480000      1.2438194E-33
   3.490000      2.4367871E-33
   3.500000      3.7831438E-33
   3.510000      5.2937014E-33
   3.520000      6.9783450E-33
   3.530000      8.8453805E-33
   3.540000      1.0902492E-32
   3.550000      1.3156359E-32
   3.560000      1.5612346E-32
   3.570000      1.8273387E-32
   3.580000      2.1150667E-32
   3.590000      2.4256526E-32
   3.600000      2.7597422E-32
   3.610000      3.1184187E-32
   3.620000      3.5029949E-32
   3.630000      3.9149316E-32
   3.640000      4.3557206E-32
   3.650000      4.8269463E-32
   3.660000      5.3302115E-32
   3.670000      5.8671186E-32
   3.680000      6.4391218E-32
   3.690000      7.0477322E-32
   3.700000      7.6943111E-32
   3.710000      8.3799188E-32
   3.720000      9.1055808E-32
   3.730000      9.8721342E-32
   3.740000      1.0680245E-31
   3.750000      1.1530426E-31
   3.760000      1.2423036E-31
   3.770000      1.3358221E-31
   3.780000      1.4335958E-31
   3.790000      1.5355974E-31
   3.800000      1.6417649E-31
   3.810000      1.7520051E-31
   3.820000      1.8661870E-31
   3.830000      1.9841404E-31
   3.840000      2.1056553E-31
   3.850000      2.2304803E-31
   3.860000      2.3583290E-31
   3.870000      2.4888822E-31
   3.880000      2.6217951E-31
   3.890000      2.7566981E-31
   3.900000      2.8932066E-31
   3.910000      3.0309205E-31
   3.920000      3.1694224E-31
   3.930000      3.3082732E-31
   3.940000      3.4470067E-31
   3.950000      3.5851155E-31
   3.960000      3.7220374E-31
   3.970000      3.8571383E-31
   3.980000      3.9896955E-31
   3.990000      4.1188805E-31
   4.000000      4.2437406E-31
   4.010000      4.3631905E-31
   4.020000      4.4760037E-31
   4.030000      4.5808051E-31
   4.040000      4.6760733E-31
   4.050000      4.7601451E-31
   4.060000      4.8312230E-31
   4.070000      4.8873848E-31
   4.080000      4.9265965E-31
   4.090000      4.9467238E-31
   4.100000      4.9455427E-31
   4.110000      4.9207491E-31
   4.120000      4.8699800E-31
   4.130000      4.7907813E-31
   4.140000      4.6806375E-31
   4.150000      4.5369939E-31
   4.160000      4.3572200E-31
   4.170000      4.1386194E-31
   4.180000      3.8784230E-31
   4.190000      3.5737824E-31
   4.200000      3.2217557E-31
   4.210000      2.8192998E-31
   4.220000      2.3632595E-31
   4.230000      1.8503527E-31
   4.240000      1.2771510E-31
   4.250000      6.4006455E-32
   4.260000     -6.4671181E-33
   4.270000     -8.4100737E-32
   4.280000     -1.6930966E-31
   4.290000     -2.6252960E-31
   4.300000     -3.6421562E-31
   4.310000     -4.7484104E-31
   4.320000     -5.9489493E-31
   4.330000     -7.2487856E-31
   4.340000     -8.6530105E-31
   4.350000     -1.0166739E-30
   4.360000     -1.1795047E-30
   4.370000     -1.3542905E-30
   4.380000     -1.5415115E-30
   4.390000     -1.7416248E-30
   4.400000     -1.9550587E-30
   4.410000     -2.1822084E-30
   4.420000     -2.4234330E-30
   4.430000     -2.6790519E-30
   4.440000     -2.9493452E-30
   4.450000     -3.2345542E-30
   4.460000     -3.5348838E-30
   4.470000     -3.8505031E-30
   4.480000     -4.1815509E-30
   4.490000     -4.5281366E-30
   4.500000     -4.8903431E-30
   4.510000     -5.2682283E-30
   4.520000     -5.6618259E-30
   4.530000     -6.0711428E-30
   4.540000     -6.4961564E-30
   4.550000     -6.9368085E-30
   4.560000     -7.3930011E-30
   4.570000     -7.8645808E-30
   4.580000     -8.3513318E-30
   4.590000     -8.8529590E-30
   4.600000     -9.3690767E-30
   4.610000     -9.8991874E-30
   4.620000     -1.0442671E-29
   4.630000     -1.0998764E-29
   4.640000     -1.1566545E-29
   4.650000     -1.2144917E-29
   4.660000     -1.2732601E-29
   4.670000     -1.3328112E-29
   4.680000     -1.3929762E-29
   4.690000     -1.4535648E-29
   4.700000     -1.5143650E-29
   4.710000     -1.5751444E-29
   4.720000     -1.6356487E-29
   4.730000     -1.6956039E-29
   4.740000     -1.7547166E-29
   4.750000     -1.8126749E-29
   4.760000     -1.8691498E-29
   4.770000     -1.9237955E-29
   4.780000     -1.9762512E-29
   4.790000     -2.0261404E-29
   4.800000     -2.0730713E-29
   4.810000     -2.1166361E-29
   4.820000     -2.1564100E-29
   4.830000     -2.1919495E-29
   4.840000     -2.2227901E-29
   4.850000     -2.2484436E-29
   4.860000     -2.2683952E-29
   4.870000     -2.2821009E-29
   4.880000     -2.2889835E-29
   4.890000     -2.2884295E-29
   4.900000     -2.2797877E-29
   4.910000     -2.2623666E-29
   4.920000     -2.2354323E-29
   4.930000     -2.1982093E-29
   4.940000     -2.1498814E-29
   4.950000     -2.0895929E-29
   4.960000     -2.0164511E-29
   4.970000     -1.9295308E-29
   4.980000     -1.8278774E-29
   4.990000     -1.7105132E-29
   5.000000     -1.5764426E-29
   5.010000     -1.4246578E-29
   5.020000     -1.2541430E-29
   5.030000     -1.0638826E-29
   5.040000     -8.5286603E-30
   5.050000     -6.2009159E-30
   5.060000     -3.6456872E-30
   5.070000     -8.5320051E-31
   5.080000      2.1861487E-30
   5.090000      5.4818083E-30
   5.100000      9.0430927E-30
   5.110000      1.2879196E-29
   5.120000      1.6999212E-29
   5.130000      2.1412154E-29
   5.140000      2.6126979E-29
   5.150000      3.1152618E-29
   5.160000      3.6497961E-29
   5.170000      4.2171874E-29
   5.180000      4.8183156E-29
   5.190000      5.4540494E-29
   5.200000      6.1252390E-29
   5.210000      6.8327053E-29
   5.220000      7.5772271E-29
   5.230000      8.3595218E-29
   5.240000      9.1802358E-29
   5.250000      1.0039922E-28
   5.260000      1.0939016E-28
   5.270000      1.1877824E-28
   5.280000      1.2856495E-28
   5.290000      1.3875011E-28
   5.300000      1.4933155E-28
   5.310000      1.6030516E-28
   5.320000      1.7166465E-28
   5.330000      1.8340146E-28
   5.340000      1.9550475E-28
   5.350000      2.0796134E-28
   5.360000      2.2075582E-28
   5.370000      2.3387039E-28
   5.380000      2.4728512E-28
   5.390000      2.6097788E-28
   5.400000      2.7492441E-28
   5.410000      2.8909829E-28
   5.420000      3.0347112E-28
   5.430000      3.1801230E-28
   5.440000      3.3268911E-28
   5.450000      3.4746643E-28
   5.460000      3.6230686E-28
   5.470000      3.7717012E-28
   5.480000      3.9201305E-28
   5.490000      4.0678924E-28
   5.500000      4.2144865E-28
   5.510000      4.3593723E-28
   5.520000      4.5019648E-28
   5.530000      4.6416327E-28
   5.540000      4.7776939E-28
   5.550000      4.9094111E-28
   5.560000      5.0359924E-28
   5.570000      5.1565855E-28
   5.580000      5.2702813E-28
   5.590000      5.3761126E-28
   5.600000      5.4730548E-28
   5.610000      5.5600288E-28
   5.620000      5.6359018E-28
   5.630000      5.6994936E-28
   5.640000      5.7495798E-28
   5.650000      5.7848965E-28
   5.660000      5.8041423E-28
   5.670000      5.8059864E-28
   5.680000      5.7890695E-28
   5.690000      5.7520084E-28
   5.700000      5.6933965E-28
   5.710000      5.6118064E-28
   5.720000      5.5057922E-28
   5.730000      5.3738838E-28
   5.740000      5.2145901E-28
   5.750000      5.0263936E-28
   5.760000      4.8077471E-28
   5.770000      4.5570704E-28
   5.780000      4.2727483E-28
   5.790000      3.9531258E-28
   5.800000      3.5965114E-28
   5.810000      3.2011731E-28
   5.820000      2.7653393E-28
   5.830000      2.2872019E-28
   5.840000      1.7649255E-28
   5.850000      1.1966542E-28
   5.860000      5.8051898E-29
   5.870000     -8.5342635E-30
   5.880000     -8.0277527E-29
   5.890000     -1.5735902E-28
   5.900000     -2.3995493E-28
   5.910000     -3.2823443E-28
   5.920000     -4.2235778E-28
   5.930000     -5.2247513E-28
   5.940000     -6.2872479E-28
   5.950000     -7.4123078E-28
   5.960000     -8.6010240E-28
   5.970000     -9.8543374E-28
   5.980000     -1.1173022E-27
   5.990000     -1.2557681E-27
   6.000000     -1.4008749E-27
   6.010000     -1.5526485E-27
   6.020000     -1.7110980E-27
   6.030000     -1.8762151E-27
   6.040000     -2.0479748E-27
   6.050000     -2.2263342E-27
   6.060000     -2.4112341E-27
   6.070000     -2.6025968E-27
   6.080000     -2.8003266E-27
   6.090000     -3.0043074E-27
   6.100000     -3.2144012E-27
   6.110000     -3.4304460E-27
   6.120000     -3.6522534E-27
   6.130000     -3.8796041E-27
   6.140000     -4.1122464E-27
   6.150000     -4.3498907E-27
   6.160000     -4.5922066E-27
   6.170000     -4.8388193E-27
   6.180000     -5.0893042E-27
   6.190000     -5.3431856E-27
   6.200000     -5.5999325E-27
   6.210000     -5.8589558E-27
   6.220000     -6.1196066E-27
   6.230000     -6.3811760E-27
   6.240000     -6.6428945E-27
   6.250000     -6.9039304E-27
   6.260000     -7.1633955E-27
   6.270000     -7.4203415E-27
   6.280000     -7.6737639E-27
   6.290000     -7.9226063E-27
   6.300000     -8.1657604E-27
   6.310000     -8.4020674E-27
   6.320000     -8.6303232E-27
   6.330000     -8.8492752E-27
   6.340000     -9.0576270E-27
   6.350000     -9.2540371E-27
   6.360000     -9.4371160E-27
   6.370000     -9.6054292E-27
   6.380000     -9.7574876E-27
   6.390000     -9.8917518E-27
   6.400000     -1.0006619E-26
   6.410000     -1.0100428E-26
   6.420000     -1.0171454E-26
   6.430000     -1.0217901E-26
   6.440000     -1.0237900E-26
   6.450000     -1.0229510E-26
   6.460000     -1.0190710E-26
   6.470000     -1.0119411E-26
   6.480000     -1.0013451E-26
   6.490000     -9.8705967E-27
   6.500000     -9.6885608E-27
   6.510000     -9.4649958E-27
   6.520000     -9.1975126E-27
   6.530000     -8.8836878E-27
   6.540000     -8.5210798E-27
   6.550000     -8.1072352E-27
   6.560000     -7.6397080E-27
   6.570000     -7.1160723E-27
   6.580000     -6.5339307E-27
   6.590000     -5.8909259E-27
   6.600000     -5.1847529E-27
   6.610000     -4.4131629E-27
   6.620000     -3.5739740E-27
   6.630000     -2.6650751E-27
   6.640000     -1.6844245E-27
   6.650000     -6.3004954E-28
   6.660000      4.9995052E-28
   6.670000      1.7074031E-27
   6.680000      2.9940630E-27
   6.690000      4.3616062E-27
   6.700000      5.8116288E-27
   6.710000      7.3456493E-27
   6.720000      8.9650914E-27
   6.730000      1.0671274E-26
   6.740000      1.2465400E-26
   6.750000      1.4348539E-26
   6.760000      1.6321605E-26
   6.770000      1.8385336E-26
   6.780000      2.0540266E-26
   6.790000      2.2786696E-26
   6.800000      2.5124651E-26
   6.810000      2.7553854E-26
   6.820000      3.0073704E-26
   6.830000      3.2683222E-26
   6.840000      3.5381040E-26
   6.850000      3.8165365E-26
   6.860000      4.1033959E-26
   6.870000      4.3984129E-26
   6.880000      4.7012708E-26
   6.890000      5.0116044E-26
   6.900000      5.3289995E-26
   6.910000      5.6529951E-26
   6.920000      5.9830816E-26
   6.930000      6.3187019E-26
   6.940000      6.6592556E-26
   6.950000      7.0040926E-26
   6.960000      7.3525189E-26
   6.970000      7.7037956E-26
   6.980000      8.0571375E-26
   6.990000      8.4117095E-26
   7.000000      8.7666303E-26
   7.010000      9.1209639E-26
   7.020000      9.4737227E-26
   7.030000      9.8238630E-26
   7.040000      1.0170277E-25
   7.050000      1.0511793E-25
   7.060000      1.0847170E-25