  -2.600000      0.0000000E+00
  -2.590000      0.0000000E+00
  -2.580000      0.0000000E+00
  -2.570000      0.0000000E+00
  -2.560000      0.0000000E+00
  -2.550000      0.0000000E+00
  -2.540000      0.0000000E+00
  -2.530000      0.0000000E+00
  -2.520000      0.0000000E+00
  -2.510000      0.0000000E+00
  -2.500000      0.0000000E+00
  -2.490000      0.0000000E+00
  -2.480000      0.0000000E+00
  -2.470000      0.0000000E+00
  -2.460000      0.0000000E+00
  -2.450000      0.0000000E+00
  -2.440000      0.0000000E+00
  -2.430000      0.0000000E+00
  -2.420000      0.0000000E+00
  -2.410000      0.0000000E+00
  -2.400000      0.0000000E+00
  -2.390000      0.0000000E+00
  -2.380000      0.0000000E+00
  -2.370000      0.0000000E+00
  -2.360000      0.0000000E+00
  -2.350000      0.0000000E+00
  -2.340000      0.0000000E+00
  -2.330000      0.0000000E+00
  -2.320000      0.0000000E+00
  -2.310000      0.0000000E+00
  -2.300000      0.0000000E+00
  -2.290000      0.0000000E+00
  -2.280000      0.0000000E+00
  -2.270000      0.0000000E+00
  -2.260000      0.0000000E+00
  -2.250000      0.0000000E+00
  -2.240000      0.0000000E+00
  -2.230000      0.0000000E+00
  -2.220000      0.0000000E+00
  -2.210000      0.0000000E+00
  -2.200000      0.0000000E+00
  -2.190000      0.0000000E+00
  -2.180000      0.0000000E+00
  -2.170000      0.0000000E+00
  -2.160000      0.0000000E+00
  -2.150000      0.0000000E+00
  -2.140000      0.0000000E+00
  -2.130000      0.0000000E+00
  -2.120000      0.0000000E+00
  -2.110000      0.0000000E+00
  -2.100000      0.0000000E+00
  -2.090000      0.0000000E+00
  -2.080000      0.0000000E+00
  -2.070000      0.0000000E+00
  -2.060000      0.0000000E+00
  -2.050000      0.0000000E+00
  -2.040000      0.0000000E+00
  -2.030000      0.0000000E+00
  -2.020000      0.0000000E+00
  -2.010000      0.0000000E+00
  -2.000000      0.0000000E+00
  -1.990000      0.0000000E+00
  -1.980000      0.0000000E+00
  -1.970000      0.0000000E+00
  -1.960000      0.0000000E+00
  -1.950000      0.0000000E+00
  -1.940000      0.0000000E+00
  -1.930000      0.0000000E+00
  -1.920000      0.0000000E+00
  -1.910000      0.0000000E+00
  -1.900000      0.0000000E+00
  -1.890000      0.0000000E+00
  -1.880000      0.0000000E+00
  -1.870000      0.0000000E+00
  -1.860000      0.0000000E+00
  -1.850000      0.0000000E+00
  -1.840000      0.0000000E+00
  -1.830000      0.0000000E+00
  -1.820000      0.0000000E+00
  -1.810000      0.0000000E+00
  -1.800000      0.0000000E+00
  -1.790000      0.0000000E+00
  -1.780000      0.0000000E+00
  -1.770000      0.0000000E+00
  -1.760000      0.0000000E+00
  -1.750000      0.0000000E+00
  -1.740000      0.0000000E+00
  -1.730000      0.0000000E+00
  -1.720000      0.0000000E+00
  -1.710000      0.0000000E+00
  -1.700000      0.0000000E+00
  -1.690000      0.0000000E+00
  -1.680000      0.0000000E+00
  -1.670000      0.0000000E+00
  -1.660000      0.0000000E+00
  -1.650000      0.0000000E+00
  -1.640000      0.0000000E+00
  -1.630000      0.0000000E+00
  -1.620000      0.0000000E+00
  -1.610000      0.0000000E+00
  -1.600000      0.0000000E+00
  -1.590000      0.0000000E+00
  -1.580000      0.0000000E+00
  -1.570000      0.0000000E+00
  -1.560000      0.0000000E+00
  -1.550000      0.0000000E+00
  -1.540000      0.0000000E+00
  -1.530000      0.0000000E+00
  -1.520000      0.0000000E+00
  -1.510000      0.0000000E+00
  -1.500000      0.0000000E+00
  -1.490000      0.0000000E+00
  -1.480000      0.0000000E+00
  -1.470000      0.0000000E+00
  -1.460000      0.0000000E+00
  -1.450000      0.0000000E+00
  -1.440000      0.0000000E+00
  -1.430000      0.0000000E+00
  -1.420000      0.0000000E+00
  -1.410000      0.0000000E+00
  -1.400000      0.0000000E+00
  -1.390000      0.0000000E+00
  -1.380000      0.0000000E+00
  -1.370000      0.0000000E+00
  -1.360000      0.0000000E+00
  -1.350000      0.0000000E+00
  -1.340000      0.0000000E+00
  -1.330000      0.0000000E+00
  -1.320000      0.0000000E+00
  -1.310000      0.0000000E+00
  -1.300000      0.0000000E+00
  -1.290000      0.0000000E+00
  -1.280000      0.0000000E+00
  -1.270000      0.0000000E+00
  -1.260000      0.0000000E+00
  -1.250000      0.0000000E+00
  -1.240000      0.0000000E+00
  -1.230000      0.0000000E+00
  -1.220000      0.0000000E+00
  -1.210000      0.0000000E+00
  -1.200000      0.0000000E+00
  -1.190000      0.0000000E+00
  -1.180000      0.0000000E+00
  -1.170000      0.0000000E+00
  -1.160000      0.0000000E+00
  -1.150000      0.0000000E+00
  -1.140000      0.0000000E+00
  -1.130000      0.0000000E+00
  -1.120000      0.0000000E+00
  -1.110000      0.0000000E+00
  -1.100000      0.0000000E+00
  -1.090000      0.0000000E+00
  -1.080000      0.0000000E+00
  -1.070000      0.0000000E+00
  -1.060000      0.0000000E+00
  -1.050000      0.0000000E+00
  -1.040000      0.0000000E+00
  -1.030000      0.0000000E+00
  -1.020000      0.0000000E+00
  -1.010000      0.0000000E+00
  -1.000000      0.0000000E+00
 -0.9900000      0.0000000E+00
 -0.9800000      0.0000000E+00
 -0.9700000      0.0000000E+00
 -0.9600000      0.0000000E+00
 -0.9500000      0.0000000E+00
 -0.9400000      0.0000000E+00
 -0.9300000      0.0000000E+00
 -0.9200000      0.0000000E+00
 -0.9100000      0.0000000E+00
 -0.9000000      0.0000000E+00
 -0.8900000      0.0000000E+00
 -0.8800000      0.0000000E+00
 -0.8700000      0.0000000E+00
 -0.8600000      0.0000000E+00
 -0.8500000      0.0000000E+00
 -0.8400000      0.0000000E+00
 -0.8300000      0.0000000E+00
 -0.8200000      0.0000000E+00
 -0.8100000      0.0000000E+00
 -0.8000000      0.0000000E+00
 -0.7900000      0.0000000E+00
 -0.7800000      0.0000000E+00
 -0.7700000      0.0000000E+00
 -0.7600000      0.0000000E+00
 -0.7500000      0.0000000E+00
 -0.7400000      0.0000000E+00
 -0.7300000      0.0000000E+00
 -0.7200000      0.0000000E+00
 -0.7100000      0.0000000E+00
 -0.7000000      0.0000000E+00
 -0.6900000      0.0000000E+00
 -0.6800000      0.0000000E+00
 -0.6700000      0.0000000E+00
 -0.6600000      0.0000000E+00
 -0.6500000      0.0000000E+00
 -0.6400000      0.0000000E+00
 -0.6300000      0.0000000E+00
 -0.6200000      0.0000000E+00
 -0.6100000      0.0000000E+00
 -0.6000000      0.0000000E+00
 -0.5900000      0.0000000E+00
 -0.5800000      0.0000000E+00
 -0.5700000      0.0000000E+00
 -0.5600000      0.0000000E+00
 -0.5500000      0.0000000E+00
 -0.5400000      0.0000000E+00
 -0.5300000      0.0000000E+00
 -0.5200000      0.0000000E+00
 -0.5100000      0.0000000E+00
 -0.5000000      0.0000000E+00
 -0.4900000      0.0000000E+00
 -0.4800000      0.0000000E+00
 -0.4700000      0.0000000E+00
 -0.4600000      0.0000000E+00
 -0.4500000      0.0000000E+00
 -0.4400000      0.0000000E+00
 -0.4300000      0.0000000E+00
 -0.4200000      0.0000000E+00
 -0.4100000      0.0000000E+00
 -0.4000000      0.0000000E+00
 -0.3900000      0.0000000E+00
 -0.3800000      0.0000000E+00
 -0.3700000      0.0000000E+00
 -0.3600000      0.0000000E+00
 -0.3500000      0.0000000E+00
 -0.3400000      0.0000000E+00
 -0.3300000      0.0000000E+00
 -0.3200000      0.0000000E+00
 -0.3100000      0.0000000E+00
 -0.3000000      0.0000000E+00
 -0.2900000      0.0000000E+00
 -0.2800000      0.0000000E+00
 -0.2700000      0.0000000E+00
 -0.2600000      0.0000000E+00
 -0.2500000      0.0000000E+00
 -0.2400000      0.0000000E+00
 -0.2300000      0.0000000E+00
 -0.2200000      0.0000000E+00
 -0.2100000      0.0000000E+00
 -0.2000000      0.0000000E+00
 -0.1900000      0.0000000E+00
 -0.1800000      0.0000000E+00
 -0.1700000      0.0000000E+00
 -0.1600000      0.0000000E+00
 -0.1500000      0.0000000E+00
 -0.1400000      0.0000000E+00
 -0.1300000      0.0000000E+00
 -0.1200000      0.0000000E+00
 -0.1100000      0.0000000E+00
 -0.1000000      0.0000000E+00
 -9.0000004E-02  0.0000000E+00
 -7.9999998E-02  0.0000000E+00
 -7.0000000E-02  0.0000000E+00
 -5.9999999E-02  0.0000000E+00
 -5.0000001E-02  0.0000000E+00
 -3.9999999E-02  0.0000000E+00
 -2.9999999E-02  0.0000000E+00
 -2.0000000E-02  0.0000000E+00
 -9.9999998E-03  0.0000000E+00
 -3.4694470E-17  0.0000000E+00
  9.9999998E-03  0.0000000E+00
  2.0000000E-02  0.0000000E+00
  2.9999999E-02  0.0000000E+00
  3.9999999E-02  0.0000000E+00
  5.0000001E-02  0.0000000E+00
  5.9999999E-02  0.0000000E+00
  7.0000000E-02  0.0000000E+00
  7.9999998E-02  0.0000000E+00
  9.0000004E-02  0.0000000E+00
  0.1000000      0.0000000E+00
  0.1100000      0.0000000E+00
  0.1200000      0.0000000E+00
  0.1300000      0.0000000E+00
  0.1400000      0.0000000E+00
  0.1500000      0.0000000E+00
  0.1600000      0.0000000E+00
  0.1700000      0.0000000E+00
  0.1800000      0.0000000E+00
  0.1900000      0.0000000E+00
  0.2000000      0.0000000E+00
  0.2100000      0.0000000E+00
  0.2200000      0.0000000E+00
  0.2300000      0.0000000E+00
  0.2400000      0.0000000E+00
  0.2500000      0.0000000E+00
  0.2600000      0.0000000E+00
  0.2700000      0.0000000E+00
  0.2800000      0.0000000E+00
  0.2900000      0.0000000E+00
  0.3000000      0.0000000E+00
  0.3100000      0.0000000E+00
  0.3200000      0.0000000E+00
  0.3300000      0.0000000E+00
  0.3400000      0.0000000E+00
  0.3500000      0.0000000E+00
  0.3600000      0.0000000E+00
  0.3700000      0.0000000E+00
  0.3800000      0.0000000E+00
  0.3900000      0.0000000E+00
  0.4000000      0.0000000E+00
  0.4100000      0.0000000E+00
  0.4200000      0.0000000E+00
  0.4300000      0.0000000E+00
  0.4400000      0.0000000E+00
  0.4500000      0.0000000E+00
  0.4600000      0.0000000E+00
  0.4700000      0.0000000E+00
  0.4800000      0.0000000E+00
  0.4900000      0.0000000E+00
  0.5000000      0.0000000E+00
  0.5100000      0.0000000E+00
  0.5200000      0.0000000E+00
  0.5300000      0.0000000E+00
  0.5400000      0.0000000E+00
  0.5500000      0.0000000E+00
  0.5600000      0.0000000E+00
  0.5700000      0.0000000E+00
  0.5800000      0.0000000E+00
  0.5900000      0.0000000E+00
  0.6000000      0.0000000E+00
  0.6100000      0.0000000E+00
  0.6200000      0.0000000E+00
  0.6300000      0.0000000E+00
  0.6400000      0.0000000E+00
  0.6500000      0.0000000E+00
  0.6600000      0.0000000E+00
  0.6700000      0.0000000E+00
  0.6800000      0.0000000E+00
  0.6900000      0.0000000E+00
  0.7000000      0.0000000E+00
  0.7100000      0.0000000E+00
  0.7200000      0.0000000E+00
  0.7300000      0.0000000E+00
  0.7400000      0.0000000E+00
  0.7500000      0.0000000E+00
  0.7600000      0.0000000E+00
  0.7700000      0.0000000E+00
  0.7800000      0.0000000E+00
  0.7900000      0.0000000E+00
  0.8000000      0.0000000E+00
  0.8100000      0.0000000E+00
  0.8200000      0.0000000E+00
  0.8300000      0.0000000E+00
  0.8400000      0.0000000E+00
  0.8500000      0.0000000E+00
  0.8600000      0.0000000E+00
  0.8700000      0.0000000E+00
  0.8800000      0.0000000E+00
  0.8900000      0.0000000E+00
  0.9000000      0.0000000E+00
  0.9100000      0.0000000E+00
  0.9200000      0.0000000E+00
  0.9300000      0.0000000E+00
  0.9400000      0.0000000E+00
  0.9500000      0.0000000E+00
  0.9600000      0.0000000E+00
  0.9700000      0.0000000E+00
  0.9800000      0.0000000E+00
  0.9900000      0.0000000E+00
   1.000000      0.0000000E+00
   1.010000      0.0000000E+00
   1.020000      0.0000000E+00
   1.030000      0.0000000E+00
   1.040000      0.0000000E+00
   1.050000      0.0000000E+00
   1.060000      0.0000000E+00
   1.070000      0.0000000E+00
   1.080000      0.0000000E+00
   1.090000      0.0000000E+00
   1.100000      0.0000000E+00
   1.110000      0.0000000E+00
   1.120000      0.0000000E+00
   1.130000      0.0000000E+00
   1.140000      0.0000000E+00
   1.150000      0.0000000E+00
   1.160000      0.0000000E+00
   1.170000      0.0000000E+00
   1.180000      0.0000000E+00
   1.190000      0.0000000E+00
   1.200000      0.0000000E+00
   1.210000      0.0000000E+00
   1.220000      0.0000000E+00
   1.230000      0.0000000E+00
   1.240000      0.0000000E+00
   1.250000      0.0000000E+00
   1.260000      0.0000000E+00
   1.270000      0.0000000E+00
   1.280000      0.0000000E+00
   1.290000      0.0000000E+00
   1.300000      0.0000000E+00
   1.310000      0.0000000E+00
   1.320000      0.0000000E+00
   1.330000      0.0000000E+00
   1.340000      0.0000000E+00
   1.350000      0.0000000E+00
   1.360000      0.0000000E+00
   1.370000      0.0000000E+00
   1.380000      0.0000000E+00
   1.390000      1.2006440E-38
   1.400000      1.2738785E-38
   1.410000      1.3605629E-38
   1.420000      1.4578069E-38
   1.430000      1.4386743E-38
   1.440000      1.2747562E-38
   1.450000      0.0000000E+00
   1.460000      0.0000000E+00
   1.470000      0.0000000E+00
   1.480000      0.0000000E+00
   1.490000      0.0000000E+00
   1.500000      0.0000000E+00
   1.510000     -1.3237580E-38
   1.520000     -1.9071483E-38
   1.530000     -2.4913175E-38
   1.540000     -3.0572406E-38
   1.550000     -3.5874250E-38
   1.560000     -4.0665093E-38
   1.570000     -4.4856937E-38
   1.580000     -4.8441918E-38
   1.590000     -5.1179282E-38
   1.600000     -5.2173968E-38
   1.610000     -5.1677847E-38
   1.620000     -5.0846143E-38
   1.630000     -5.0190335E-38
   1.640000     -5.1094391E-38
   1.650000     -5.3652641E-38
   1.660000     -5.6889304E-38
   1.670000     -5.9747746E-38
   1.680000     -6.2050903E-38
   1.690000     -6.5031162E-38
   1.700000     -6.8942578E-38
   1.710000     -7.3494584E-38
   1.720000     -7.8398972E-38
   1.730000     -8.3569876E-38
   1.740000     -8.8894541E-38
   1.750000     -9.4233163E-38
   1.760000     -9.9082081E-38
   1.770000     -1.0357750E-37
   1.780000     -1.0787720E-37
   1.790000     -1.1126031E-37
   1.800000     -1.1355158E-37
   1.810000     -1.1563060E-37
   1.820000     -1.1649071E-37
   1.830000     -1.1551060E-37
   1.840000     -1.1410396E-37
   1.850000     -1.1216686E-37
   1.860000     -1.0830426E-37
   1.870000     -1.0268425E-37
   1.880000     -9.6532671E-38
   1.890000     -9.1090964E-38
   1.900000     -8.6638030E-38
   1.910000     -8.4149161E-38
   1.920000     -8.4017719E-38
   1.930000     -8.4414802E-38
   1.940000     -8.4956942E-38
   1.950000     -8.5541222E-38
   1.960000     -8.5118417E-38
   1.970000     -8.4036721E-38
   1.980000     -8.1336615E-38
   1.990000     -7.4934923E-38
   2.000000     -8.6643215E-38
   2.010000     -1.4381403E-37
   2.020000     -2.2679072E-37
   2.030000     -3.1123384E-37
   2.040000     -3.9685145E-37
   2.050000     -4.8267221E-37
   2.060000     -5.6801384E-37
   2.070000     -6.5341431E-37
   2.080000     -5.8287640E-37
   2.090000     -3.2944661E-37
   2.100000     -3.9357970E-38
   2.110000      2.5127041E-37
   2.120000      5.2148921E-37
   2.130000      6.2066258E-37
   2.140000      5.5822112E-37
   2.150000      4.9056666E-37
   2.160000      4.1919505E-37
   2.170000      3.5642352E-37
   2.180000      3.1624750E-37
   2.190000      3.0153557E-37
   2.200000      3.1765710E-37
   2.210000      3.5781970E-37
   2.220000      4.7008608E-37
   2.230000      6.5489610E-37
   2.240000      8.3427194E-37
   2.250000      1.0060795E-36
   2.260000      1.1729541E-36
   2.270000      1.3345154E-36
   2.280000      1.3641282E-36
   2.290000      1.2315936E-36
   2.300000      1.0684805E-36
   2.310000      9.6236255E-37
   2.320000      9.5509221E-37
   2.330000      1.1285290E-36
   2.340000      1.4627306E-36
   2.350000      1.8343939E-36
   2.360000      2.2068048E-36
   2.370000      2.5885722E-36
   2.380000      3.0249701E-36
   2.390000      3.3809310E-36
   2.400000      3.3023345E-36
   2.410000      2.7985535E-36
   2.420000      2.1697991E-36
   2.430000      1.5208681E-36
   2.440000      9.3921687E-37
   2.450000      5.7025731E-37
   2.460000      3.4531176E-37
   2.470000      1.2391524E-37
   2.480000     -1.2742291E-37
   2.490000     -4.2808834E-37
   2.500000     -5.0941549E-38
   2.510000      1.0066337E-36
   2.520000      2.0124368E-36
   2.530000      2.2246819E-36
   2.540000      1.6741345E-36
   2.550000      1.0516557E-36
   2.560000      3.9369474E-37
   2.570000     -1.8298159E-37
   2.580000     -6.5285052E-37
   2.590000     -9.8759112E-37
   2.600000     -8.6586712E-37
   2.610000      5.7445856E-37
   2.620000      2.3961181E-36
   2.630000      3.8642328E-36
   2.640000      5.5922113E-36
   2.650000      7.4460256E-36
   2.660000      9.2232843E-36
   2.670000      1.0608219E-35
   2.680000      9.4852228E-36
   2.690000      5.6294506E-36
   2.700000      1.0362537E-36
   2.710000     -3.2786524E-36
   2.720000     -6.1273396E-36
   2.730000     -7.2468674E-36
   2.740000     -7.3344670E-36
   2.750000     -6.0523423E-36
   2.760000     -3.5109715E-36
   2.770000     -6.2443079E-37
   2.780000      3.1222515E-36
   2.790000      7.0865026E-36
   2.800000      9.8981137E-36
   2.810000      1.1953244E-35
   2.820000      1.3255490E-35
   2.830000      1.2983834E-35
   2.840000      1.1657393E-35
   2.850000      9.9776282E-36
   2.860000      8.6547501E-36
   2.870000      8.4669386E-36
   2.880000      1.0034308E-35
   2.890000      1.2908537E-35
   2.900000      1.5502361E-35
   2.910000      1.7386384E-35
   2.920000      1.9358330E-35
   2.930000      2.3879447E-35
   2.940000      3.1076833E-35
   2.950000      3.7909061E-35
   2.960000      4.3344985E-35
   2.970000      4.7993081E-35
   2.980000      4.5156730E-35
   2.990000      3.3660539E-35
   3.000000      2.0528308E-35
   3.010000      7.7018033E-36
   3.020000     -4.1230055E-36
   3.030000     -7.4297915E-36
   3.040000     -1.8485346E-36
   3.050000      9.5325503E-36
   3.060000      2.6874059E-35
   3.070000      4.4598434E-35
   3.080000      6.2400813E-35
   3.090000      7.3036139E-35
   3.100000      7.4332506E-35
   3.110000      7.2907213E-35
   3.120000      6.9414617E-35
   3.130000      6.5064169E-35
   3.140000      6.1364255E-35
   3.150000      5.8912901E-35
   3.160000      5.6938013E-35
   3.170000      6.0192422E-35
   3.180000      6.7704801E-35
   3.190000      7.0728416E-35
   3.200000      7.0666215E-35
   3.210000      7.0332800E-35
   3.220000      6.9684740E-35
   3.230000      6.2908337E-35
   3.240000      4.5770619E-35
   3.250000      2.6906167E-35
   3.260000      9.1191069E-36
   3.270000     -1.0106038E-35
   3.280000     -2.5972640E-35
   3.290000     -3.8854014E-35
   3.300000     -6.1474991E-35
   3.310000     -9.4550096E-35
   3.320000     -1.3211596E-34
   3.330000     -1.7022010E-34
   3.340000     -2.0587647E-34
   3.350000     -2.3850156E-34
   3.360000     -2.6699729E-34
   3.370000     -2.7701195E-34
   3.380000     -2.5771421E-34
   3.390000     -2.2824225E-34
   3.400000     -2.0526356E-34
   3.410000     -1.9727766E-34
   3.420000     -2.0766352E-34
   3.430000     -2.3303009E-34
   3.440000     -2.8102589E-34
   3.450000     -3.5159477E-34
   3.460000     -4.3306498E-34
   3.470000     -5.2610003E-34
   3.480000     -6.2955437E-34
   3.490000     -7.3935362E-34
   3.500000     -8.4409219E-34
   3.510000     -9.2770565E-34
   3.520000     -9.8584193E-34
   3.530000     -1.0311901E-33
   3.540000     -1.0768578E-33
   3.550000     -1.1260397E-33
   3.560000     -1.1782520E-33
   3.570000     -1.2284506E-33
   3.580000     -1.2783110E-33
   3.590000     -1.3387643E-33
   3.600000     -1.4144966E-33
   3.610000     -1.5034309E-33
   3.620000     -1.6021152E-33
   3.630000     -1.7017228E-33
   3.640000     -1.7961287E-33
   3.650000     -1.8804183E-33
   3.660000     -1.9470914E-33
   3.670000     -1.9957800E-33
   3.680000     -2.0352785E-33
   3.690000     -2.0775902E-33
   3.700000     -2.1307777E-33
   3.710000     -2.1976818E-33
   3.720000     -2.2877324E-33
   3.730000     -2.4038852E-33
   3.740000     -2.5302841E-33
   3.750000     -2.6654421E-33
   3.760000     -2.8170272E-33
   3.770000     -2.9797773E-33
   3.780000     -3.1453007E-33
   3.790000     -3.3071924E-33
   3.800000     -3.4542210E-33
   3.810000     -3.5811810E-33
   3.820000     -3.6826875E-33
   3.830000     -3.7481133E-33
   3.840000     -3.7788081E-33
   3.850000     -3.7691572E-33
   3.860000     -3.7155172E-33
   3.870000     -3.6249289E-33
   3.880000     -3.5006567E-33
   3.890000     -3.3501031E-33
   3.900000     -3.1814229E-33
   3.910000     -2.9986205E-33
   3.920000     -2.7953028E-33
   3.930000     -2.5732798E-33
   3.940000     -2.3513588E-33
   3.950000     -2.1183957E-33
   3.960000     -1.8796526E-33
   3.970000     -1.6529895E-33
   3.980000     -1.4323513E-33
   3.990000     -1.2087891E-33
   4.000000     -9.7407275E-34
   4.010000     -7.2809294E-34
   4.020000     -4.6265685E-34
   4.030000     -1.6719193E-34
   4.040000      1.7018500E-34
   4.050000      5.6224515E-34
   4.060000      1.0182500E-33
   4.070000      1.5524072E-33
   4.080000      2.1772510E-33
   4.090000      2.9015807E-33
   4.100000      3.7307281E-33
   4.110000      4.6737626E-33
   4.120000      5.7416360E-33
   4.130000      6.9353748E-33
   4.140000      8.2505113E-33
   4.150000      9.6772756E-33
   4.160000      1.1203180E-32
   4.170000      1.2813414E-32
   4.180000      1.4490541E-32
   4.190000      1.6216080E-32
   4.200000      1.7971282E-32
   4.210000      1.9736634E-32
   4.220000      2.1499543E-32
   4.230000      2.3250929E-32
   4.240000      2.4981988E-32
   4.250000      2.6691230E-32
   4.260000      2.8382875E-32
   4.270000      3.0066833E-32
   4.280000      3.1758822E-32
   4.290000      3.3479590E-32
   4.300000      3.5253913E-32
   4.310000      3.7109308E-32
   4.320000      3.9073911E-32
   4.330000      4.1175513E-32
   4.340000      4.3438813E-32
   4.350000      4.5884111E-32
   4.360000      4.8525876E-32
   4.370000      5.1369720E-32
   4.380000      5.4412652E-32
   4.390000      5.7641365E-32
   4.400000      6.1030897E-32
   4.410000      6.4546148E-32
   4.420000      6.8142303E-32
   4.430000      7.1766117E-32
   4.440000      7.5357816E-32
   4.450000      7.8853895E-32
   4.460000      8.2190483E-32
   4.470000      8.5305319E-32
   4.480000      8.8142328E-32
   4.490000      9.0653501E-32
   4.500000      9.2802046E-32
   4.510000      9.4561350E-32
   4.520000      9.5928714E-32
   4.530000      9.6917064E-32
   4.540000      9.7543221E-32
   4.550000      9.7842237E-32
   4.560000      9.7860539E-32
   4.570000      9.7651254E-32
   4.580000      9.7270048E-32
   4.590000      9.6770986E-32
   4.600000      9.6202605E-32
   4.610000      9.5601228E-32
   4.620000      9.4986473E-32
   4.630000      9.4357090E-32
   4.640000      9.3687405E-32
   4.650000      9.2925591E-32
   4.660000      9.1992166E-32
   4.670000      9.0780948E-32
   4.680000      8.9161799E-32
   4.690000      8.6984090E-32
   4.700000      8.4082423E-32
   4.710000      8.0283631E-32
   4.720000      7.5414528E-32
   4.730000      6.9309886E-32
   4.740000      6.1821340E-32
   4.750000      5.2825547E-32
   4.760000      4.2230804E-32
   4.770000      2.9982838E-32
   4.780000      1.6068736E-32
   4.790000      5.1841863E-34
   4.800000     -1.6596802E-32
   4.810000     -3.5167773E-32
   4.820000     -5.5053590E-32
   4.830000     -7.6090743E-32
   4.840000     -9.8103732E-32
   4.850000     -1.2091719E-31
   4.860000     -1.4436908E-31
   4.870000     -1.6832362E-31
   4.880000     -1.9268358E-31
   4.890000     -2.1740091E-31
   4.900000     -2.4248495E-31
   4.910000     -2.6800766E-31
   4.920000     -2.9410488E-31
   4.930000     -3.2097388E-31
   4.940000     -3.4886650E-31
   4.950000     -3.7807848E-31
   4.960000     -4.0893474E-31
   4.970000     -4.4177189E-31
   4.980000     -4.7691818E-31
   4.990000     -5.1467276E-31
   5.000000     -5.5528392E-31
   5.010000     -5.9892928E-31
   5.020000     -6.4569844E-31
   5.030000     -6.9557913E-31
   5.040000     -7.4844826E-31
   5.050000     -8.0406842E-31
   5.060000     -8.6209082E-31
   5.070000     -9.2206501E-31
   5.080000     -9.8345421E-31
   5.090000     -1.0456574E-30
   5.100000     -1.1080355E-30
   5.110000     -1.1699413E-30
   5.120000     -1.2307524E-30
   5.130000     -1.2899030E-30
   5.140000     -1.3469145E-30
   5.150000     -1.4014221E-30
   5.160000     -1.4531956E-30
   5.170000     -1.5021521E-30
   5.180000     -1.5483603E-30
   5.190000     -1.5920348E-30
   5.200000     -1.6335196E-30
   5.210000     -1.6732624E-30
   5.220000     -1.7117793E-30
   5.230000     -1.7496116E-30
   5.240000     -1.7872773E-30
   5.250000     -1.8252192E-30
   5.260000     -1.8637534E-30
   5.270000     -1.9030215E-30
   5.280000     -1.9429477E-30
   5.290000     -1.9832066E-30
   5.300000     -2.0232026E-30
   5.310000     -2.0620637E-30
   5.320000     -2.0986501E-30
   5.330000     -2.1315784E-30
   5.340000     -2.1592643E-30
   5.350000     -2.1799759E-30
   5.360000     -2.1919020E-30
   5.370000     -2.1932263E-30
   5.380000     -2.1822067E-30
   5.390000     -2.1572565E-30
   5.400000     -2.1170181E-30
   5.410000     -2.0604291E-30
   5.420000     -1.9867726E-30
   5.430000     -1.8957107E-30
   5.440000     -1.7872944E-30
   5.450000     -1.6619512E-30
   5.460000     -1.5204482E-30
   5.470000     -1.3638313E-30
   5.480000     -1.1933425E-30
   5.490000     -1.0103191E-30
   5.500000     -8.1608122E-31
   5.510000     -6.1181218E-31
   5.520000     -3.9843762E-31
   5.530000     -1.7651484E-31
   5.540000      5.3864249E-32
   5.550000      2.9314734E-31
   5.560000      5.4236698E-31
   5.570000      8.0315388E-31
   5.580000      1.0777101E-30
   5.590000      1.3687481E-30
   5.600000      1.6793910E-30
   5.610000      2.0130384E-30
   5.620000      2.3732057E-30
   5.630000      2.7633459E-30
   5.640000      3.1866531E-30
   5.650000      3.6458760E-30
   5.660000      4.1431365E-30
   5.670000      4.6797720E-30
   5.680000      5.2562179E-30
   5.690000      5.8719238E-30
   5.700000      6.5253268E-30
   5.710000      7.2138828E-30
   5.720000      7.9341490E-30
   5.730000      8.6819289E-30
   5.740000      9.4524627E-30
   5.750000      1.0240665E-29
   5.760000      1.1041380E-29
   5.770000      1.1849670E-29
   5.780000      1.2661085E-29
   5.790000      1.3471930E-29
   5.800000      1.4279481E-29
   5.810000      1.5082168E-29
   5.820000      1.5879664E-29
   5.830000      1.6672926E-29
   5.840000      1.7464128E-29
   5.850000      1.8256520E-29
   5.860000      1.9054198E-29
   5.870000      1.9861794E-29
   5.880000      2.0684113E-29
   5.890000      2.1525719E-29
   5.900000      2.2390496E-29
   5.910000      2.3281208E-29
   5.920000      2.4199110E-29
   5.930000      2.5143581E-29
   5.940000      2.6111854E-29
   5.950000      2.7098854E-29
   5.960000      2.8097130E-29
   5.970000      2.9096944E-29
   5.980000      3.0086465E-29
   5.990000      3.1052109E-29
   6.000000      3.1978995E-29
   6.010000      3.2851493E-29
   6.020000      3.3653814E-29
   6.030000      3.4370687E-29
   6.040000      3.4987981E-29
   6.050000      3.5493327E-29
   6.060000      3.5876626E-29
   6.070000      3.6130482E-29
   6.080000      3.6250431E-29
   6.090000      3.6235030E-29
   6.100000      3.6085734E-29
   6.110000      3.5806604E-29
   6.120000      3.5403792E-29
   6.130000      3.4884893E-29
   6.140000      3.4258105E-29
   6.150000      3.3531346E-29
   6.160000      3.2711279E-29
   6.170000      3.1802370E-29
   6.180000      3.0805993E-29
   6.190000      2.9719690E-29
   6.200000      2.8536576E-29
   6.210000      2.7244990E-29
   6.220000      2.5828391E-29
   6.230000      2.4265574E-29
   6.240000      2.2531157E-29
   6.250000      2.0596357E-29
   6.260000      1.8430015E-29
   6.270000      1.5999880E-29
   6.280000      1.3273989E-29
   6.290000      1.0222143E-29
   6.300000      6.8173775E-30
   6.310000      3.0373354E-30
   6.320000     -1.1345321E-30
   6.330000     -5.7080531E-30
   6.340000     -1.0685728E-29
   6.350000     -1.6062513E-29
   6.360000     -2.1826031E-29
   6.370000     -2.7957220E-29
   6.380000     -3.4431445E-29
   6.390000     -4.1219887E-29
   6.400000     -4.8291330E-29
   6.410000     -5.5614122E-29
   6.420000     -6.3158267E-29
   6.430000     -7.0897508E-29
   6.440000     -7.8811238E-29
   6.450000     -8.6886115E-29
   6.460000     -9.5117353E-29
   6.470000     -1.0350948E-28
   6.480000     -1.1207652E-28
   6.490000     -1.2084156E-28
   6.500000     -1.2983563E-28
   6.510000     -1.3909599E-28
   6.520000     -1.4866390E-28
   6.530000     -1.5858181E-28
   6.540000     -1.6889038E-28
   6.550000     -1.7962531E-28
   6.560000     -1.9081406E-28
   6.570000     -2.0247289E-28
   6.580000     -2.1460435E-28
   6.590000     -2.2719521E-28
   6.600000     -2.4021510E-28
   6.610000     -2.5361630E-28
   6.620000     -2.6733403E-28
   6.630000     -2.8128801E-28
   6.640000     -2.9538488E-28
   6.650000     -3.0952109E-28
   6.660000     -3.2358702E-28
   6.670000     -3.3747122E-28
   6.680000     -3.5106487E-28
   6.690000     -3.6426651E-28
   6.700000     -3.7698617E-28
   6.710000     -3.8914905E-28
   6.720000     -4.0069822E-28
   6.730000     -4.1159651E-28
   6.740000     -4.2182685E-28
   6.750000     -4.3139174E-28
   6.760000     -4.4031073E-28
   6.770000     -4.4861707E-28
   6.780000     -4.5635290E-28
   6.790000     -4.6356383E-28
   6.800000     -4.7029245E-28
   6.810000     -4.7657151E-28
   6.820000     -4.8241743E-28
   6.830000     -4.8782428E-28
   6.840000     -4.9275832E-28
   6.850000     -4.9715387E-28
   6.860000     -5.0091098E-28
   6.870000     -5.0389444E-28
   6.880000     -5.0593520E-28
   6.890000     -5.0683365E-28
   6.900000     -5.0636468E-28
   6.910000     -5.0428473E-28
   6.920000     -5.0034023E-28
   6.930000     -4.9427697E-28
   6.940000     -4.8584997E-28
   6.950000     -4.7483331E-28
   6.960000     -4.6102954E-28
   6.970000     -4.4427747E-28
   6.980000     -4.2445854E-28
   6.990000     -4.0150102E-28
   7.000000     -3.7538096E-28
   7.010000     -3.4612139E-28
   7.020000     -3.1378782E-28
   7.030000     -2.7848100E-28
   7.040000     -2.4032758E-28
   7.050000     -1.9946868E-28
   7.060000     -1.5604699E-28