  -2.600000      0.0000000E+00
  -2.590000      0.0000000E+00
  -2.580000      0.0000000E+00
  -2.570000      0.0000000E+00
  -2.560000      0.0000000E+00
  -2.550000      0.0000000E+00
  -2.540000      0.0000000E+00
  -2.530000      0.0000000E+00
  -2.520000      0.0000000E+00
  -2.510000      0.0000000E+00
  -2.500000      0.0000000E+00
  -2.490000      0.0000000E+00
  -2.480000      0.0000000E+00
  -2.470000      0.0000000E+00
  -2.460000      0.0000000E+00
  -2.450000      0.0000000E+00
  -2.440000      0.0000000E+00
  -2.430000      0.0000000E+00
  -2.420000      0.0000000E+00
  -2.410000      0.0000000E+00
  -2.400000      0.0000000E+00
  -2.390000      0.0000000E+00
  -2.380000      0.0000000E+00
  -2.370000      0.0000000E+00
  -2.360000      0.0000000E+00
  -2.350000      0.0000000E+00
  -2.340000      0.0000000E+00
  -2.330000      0.0000000E+00
  -2.320000      0.0000000E+00
  -2.310000      0.0000000E+00
  -2.300000      0.0000000E+00
  -2.290000      0.0000000E+00
  -2.280000      0.0000000E+00
  -2.270000      0.0000000E+00
  -2.260000      0.0000000E+00
  -2.250000      0.0000000E+00
  -2.240000      0.0000000E+00
  -2.230000      0.0000000E+00
  -2.220000      0.0000000E+00
  -2.210000      0.0000000E+00
  -2.200000      0.0000000E+00
  -2.190000      0.0000000E+00
  -2.180000      0.0000000E+00
  -2.170000      0.0000000E+00
  -2.160000      0.0000000E+00
  -2.150000      0.0000000E+00
  -2.140000      0.0000000E+00
  -2.130000      0.0000000E+00
  -2.120000      0.0000000E+00
  -2.110000      0.0000000E+00
  -2.100000      0.0000000E+00
  -2.090000      0.0000000E+00
  -2.080000      0.0000000E+00
  -2.070000      0.0000000E+00
  -2.060000      0.0000000E+00
  -2.050000      0.0000000E+00
  -2.040000      0.0000000E+00
  -2.030000      0.0000000E+00
  -2.020000      0.0000000E+00
  -2.010000      0.0000000E+00
  -2.000000      0.0000000E+00
  -1.990000      0.0000000E+00
  -1.980000      0.0000000E+00
  -1.970000      0.0000000E+00
  -1.960000      0.0000000E+00
  -1.950000      0.0000000E+00
  -1.940000      0.0000000E+00
  -1.930000      0.0000000E+00
  -1.920000      0.0000000E+00
  -1.910000      0.0000000E+00
  -1.900000      0.0000000E+00
  -1.890000      0.0000000E+00
  -1.880000      0.0000000E+00
  -1.870000      0.0000000E+00
  -1.860000      0.0000000E+00
  -1.850000      0.0000000E+00
  -1.840000      0.0000000E+00
  -1.830000      0.0000000E+00
  -1.820000      0.0000000E+00
  -1.810000      0.0000000E+00
  -1.800000      0.0000000E+00
  -1.790000      0.0000000E+00
  -1.780000      0.0000000E+00
  -1.770000      0.0000000E+00
  -1.760000      0.0000000E+00
  -1.750000      0.0000000E+00
  -1.740000      0.0000000E+00
  -1.730000      0.0000000E+00
  -1.720000      0.0000000E+00
  -1.710000      0.0000000E+00
  -1.700000      0.0000000E+00
  -1.690000      0.0000000E+00
  -1.680000      0.0000000E+00
  -1.670000      0.0000000E+00
  -1.660000      0.0000000E+00
  -1.650000      0.0000000E+00
  -1.640000      0.0000000E+00
  -1.630000      0.0000000E+00
  -1.620000      0.0000000E+00
  -1.610000      0.0000000E+00
  -1.600000      0.0000000E+00
  -1.590000      0.0000000E+00
  -1.580000      0.0000000E+00
  -1.570000      0.0000000E+00
  -1.560000      0.0000000E+00
  -1.550000      0.0000000E+00
  -1.540000      0.0000000E+00
  -1.530000      0.0000000E+00
  -1.520000      0.0000000E+00
  -1.510000      0.0000000E+00
  -1.500000      0.0000000E+00
  -1.490000      0.0000000E+00
  -1.480000      0.0000000E+00
  -1.470000      0.0000000E+00
  -1.460000      0.0000000E+00
  -1.450000      0.0000000E+00
  -1.440000      0.0000000E+00
  -1.430000      0.0000000E+00
  -1.420000      0.0000000E+00
  -1.410000      0.0000000E+00
  -1.400000      0.0000000E+00
  -1.390000      0.0000000E+00
  -1.380000      0.0000000E+00
  -1.370000      0.0000000E+00
  -1.360000      0.0000000E+00
  -1.350000      0.0000000E+00
  -1.340000      0.0000000E+00
  -1.330000      0.0000000E+00
  -1.320000      0.0000000E+00
  -1.310000      0.0000000E+00
  -1.300000      0.0000000E+00
  -1.290000      0.0000000E+00
  -1.280000      0.0000000E+00
  -1.270000      0.0000000E+00
  -1.260000      0.0000000E+00
  -1.250000      0.0000000E+00
  -1.240000      0.0000000E+00
  -1.230000      0.0000000E+00
  -1.220000      0.0000000E+00
  -1.210000      0.0000000E+00
  -1.200000      0.0000000E+00
  -1.190000      0.0000000E+00
  -1.180000      0.0000000E+00
  -1.170000      0.0000000E+00
  -1.160000      0.0000000E+00
  -1.150000      0.0000000E+00
  -1.140000      0.0000000E+00
  -1.130000      0.0000000E+00
  -1.120000      0.0000000E+00
  -1.110000      0.0000000E+00
  -1.100000      0.0000000E+00
  -1.090000      0.0000000E+00
  -1.080000      0.0000000E+00
  -1.070000      0.0000000E+00
  -1.060000      0.0000000E+00
  -1.050000      0.0000000E+00
  -1.040000      0.0000000E+00
  -1.030000      0.0000000E+00
  -1.020000      0.0000000E+00
  -1.010000      0.0000000E+00
  -1.000000      0.0000000E+00
 -0.9900000      0.0000000E+00
 -0.9800000      0.0000000E+00
 -0.9700000      0.0000000E+00
 -0.9600000      0.0000000E+00
 -0.9500000      0.0000000E+00
 -0.9400000      0.0000000E+00
 -0.9300000      0.0000000E+00
 -0.9200000      0.0000000E+00
 -0.9100000      0.0000000E+00
 -0.9000000      0.0000000E+00
 -0.8900000      0.0000000E+00
 -0.8800000      0.0000000E+00
 -0.8700000      0.0000000E+00
 -0.8600000      0.0000000E+00
 -0.8500000      0.0000000E+00
 -0.8400000      0.0000000E+00
 -0.8300000      0.0000000E+00
 -0.8200000      0.0000000E+00
 -0.8100000      0.0000000E+00
 -0.8000000      0.0000000E+00
 -0.7900000      0.0000000E+00
 -0.7800000      0.0000000E+00
 -0.7700000      0.0000000E+00
 -0.7600000      0.0000000E+00
 -0.7500000      0.0000000E+00
 -0.7400000      0.0000000E+00
 -0.7300000      0.0000000E+00
 -0.7200000      0.0000000E+00
 -0.7100000      0.0000000E+00
 -0.7000000      0.0000000E+00
 -0.6900000      0.0000000E+00
 -0.6800000      0.0000000E+00
 -0.6700000      0.0000000E+00
 -0.6600000      0.0000000E+00
 -0.6500000      0.0000000E+00
 -0.6400000      0.0000000E+00
 -0.6300000      0.0000000E+00
 -0.6200000      0.0000000E+00
 -0.6100000      0.0000000E+00
 -0.6000000      0.0000000E+00
 -0.5900000      0.0000000E+00
 -0.5800000      0.0000000E+00
 -0.5700000      0.0000000E+00
 -0.5600000      0.0000000E+00
 -0.5500000      0.0000000E+00
 -0.5400000      0.0000000E+00
 -0.5300000      0.0000000E+00
 -0.5200000      0.0000000E+00
 -0.5100000      0.0000000E+00
 -0.5000000      0.0000000E+00
 -0.4900000      0.0000000E+00
 -0.4800000      0.0000000E+00
 -0.4700000      0.0000000E+00
 -0.4600000      0.0000000E+00
 -0.4500000      0.0000000E+00
 -0.4400000      0.0000000E+00
 -0.4300000      0.0000000E+00
 -0.4200000      0.0000000E+00
 -0.4100000      0.0000000E+00
 -0.4000000      0.0000000E+00
 -0.3900000      0.0000000E+00
 -0.3800000      0.0000000E+00
 -0.3700000      0.0000000E+00
 -0.3600000      0.0000000E+00
 -0.3500000      0.0000000E+00
 -0.3400000      0.0000000E+00
 -0.3300000      0.0000000E+00
 -0.3200000      0.0000000E+00
 -0.3100000      0.0000000E+00
 -0.3000000      0.0000000E+00
 -0.2900000      0.0000000E+00
 -0.2800000      0.0000000E+00
 -0.2700000      0.0000000E+00
 -0.2600000      0.0000000E+00
 -0.2500000      0.0000000E+00
 -0.2400000      0.0000000E+00
 -0.2300000      0.0000000E+00
 -0.2200000      0.0000000E+00
 -0.2100000      0.0000000E+00
 -0.2000000      0.0000000E+00
 -0.1900000      0.0000000E+00
 -0.1800000      0.0000000E+00
 -0.1700000      0.0000000E+00
 -0.1600000      0.0000000E+00
 -0.1500000      0.0000000E+00
 -0.1400000      0.0000000E+00
 -0.1300000      0.0000000E+00
 -0.1200000      0.0000000E+00
 -0.1100000      0.0000000E+00
 -0.1000000      0.0000000E+00
 -9.0000004E-02  0.0000000E+00
 -7.9999998E-02  0.0000000E+00
 -7.0000000E-02  0.0000000E+00
 -5.9999999E-02  0.0000000E+00
 -5.0000001E-02  0.0000000E+00
 -3.9999999E-02  0.0000000E+00
 -2.9999999E-02  0.0000000E+00
 -2.0000000E-02  0.0000000E+00
 -9.9999998E-03  0.0000000E+00
 -3.4694470E-17  0.0000000E+00
  9.9999998E-03  0.0000000E+00
  2.0000000E-02  0.0000000E+00
  2.9999999E-02  0.0000000E+00
  3.9999999E-02  0.0000000E+00
  5.0000001E-02  0.0000000E+00
  5.9999999E-02  0.0000000E+00
  7.0000000E-02  0.0000000E+00
  7.9999998E-02  0.0000000E+00
  9.0000004E-02  0.0000000E+00
  0.1000000      0.0000000E+00
  0.1100000      0.0000000E+00
  0.1200000      0.0000000E+00
  0.1300000      0.0000000E+00
  0.1400000      0.0000000E+00
  0.1500000      0.0000000E+00
  0.1600000      0.0000000E+00
  0.1700000      0.0000000E+00
  0.1800000      0.0000000E+00
  0.1900000      0.0000000E+00
  0.2000000      0.0000000E+00
  0.2100000      0.0000000E+00
  0.2200000      0.0000000E+00
  0.2300000      0.0000000E+00
  0.2400000      0.0000000E+00
  0.2500000      0.0000000E+00
  0.2600000      0.0000000E+00
  0.2700000      0.0000000E+00
  0.2800000      0.0000000E+00
  0.2900000      0.0000000E+00
  0.3000000      0.0000000E+00
  0.3100000      0.0000000E+00
  0.3200000      0.0000000E+00
  0.3300000      0.0000000E+00
  0.3400000      0.0000000E+00
  0.3500000      0.0000000E+00
  0.3600000      0.0000000E+00
  0.3700000      0.0000000E+00
  0.3800000      0.0000000E+00
  0.3900000      0.0000000E+00
  0.4000000      0.0000000E+00
  0.4100000      0.0000000E+00
  0.4200000      0.0000000E+00
  0.4300000      0.0000000E+00
  0.4400000      0.0000000E+00
  0.4500000      0.0000000E+00
  0.4600000      0.0000000E+00
  0.4700000      0.0000000E+00
  0.4800000      0.0000000E+00
  0.4900000      0.0000000E+00
  0.5000000      0.0000000E+00
  0.5100000      0.0000000E+00
  0.5200000      0.0000000E+00
  0.5300000      0.0000000E+00
  0.5400000      0.0000000E+00
  0.5500000      0.0000000E+00
  0.5600000      0.0000000E+00
  0.5700000      0.0000000E+00
  0.5800000      0.0000000E+00
  0.5900000      0.0000000E+00
  0.6000000      0.0000000E+00
  0.6100000      0.0000000E+00
  0.6200000      0.0000000E+00
  0.6300000      0.0000000E+00
  0.6400000      0.0000000E+00
  0.6500000      0.0000000E+00
  0.6600000      0.0000000E+00
  0.6700000      0.0000000E+00
  0.6800000      0.0000000E+00
  0.6900000      0.0000000E+00
  0.7000000      0.0000000E+00
  0.7100000      0.0000000E+00
  0.7200000      0.0000000E+00
  0.7300000      0.0000000E+00
  0.7400000      0.0000000E+00
  0.7500000      0.0000000E+00
  0.7600000      0.0000000E+00
  0.7700000      0.0000000E+00
  0.7800000      0.0000000E+00
  0.7900000      0.0000000E+00
  0.8000000      0.0000000E+00
  0.8100000      0.0000000E+00
  0.8200000      0.0000000E+00
  0.8300000      0.0000000E+00
  0.8400000      0.0000000E+00
  0.8500000      0.0000000E+00
  0.8600000      0.0000000E+00
  0.8700000      0.0000000E+00
  0.8800000      0.0000000E+00
  0.8900000      0.0000000E+00
  0.9000000      0.0000000E+00
  0.9100000      0.0000000E+00
  0.9200000      0.0000000E+00
  0.9300000      0.0000000E+00
  0.9400000      0.0000000E+00
  0.9500000      0.0000000E+00
  0.9600000      0.0000000E+00
  0.9700000      0.0000000E+00
  0.9800000      0.0000000E+00
  0.9900000      0.0000000E+00
   1.000000      0.0000000E+00
   1.010000      0.0000000E+00
   1.020000      0.0000000E+00
   1.030000      0.0000000E+00
   1.040000      0.0000000E+00
   1.050000      0.0000000E+00
   1.060000      0.0000000E+00
   1.070000      0.0000000E+00
   1.080000      0.0000000E+00
   1.090000      0.0000000E+00
   1.100000      0.0000000E+00
   1.110000      0.0000000E+00
   1.120000      0.0000000E+00
   1.130000      0.0000000E+00
   1.140000      0.0000000E+00
   1.150000      0.0000000E+00
   1.160000      0.0000000E+00
   1.170000      0.0000000E+00
   1.180000      0.0000000E+00
   1.190000      0.0000000E+00
   1.200000      0.0000000E+00
   1.210000      0.0000000E+00
   1.220000      0.0000000E+00
   1.230000      0.0000000E+00
   1.240000      0.0000000E+00
   1.250000      0.0000000E+00
   1.260000      0.0000000E+00
   1.270000      0.0000000E+00
   1.280000      0.0000000E+00
   1.290000      0.0000000E+00
   1.300000      0.0000000E+00
   1.310000      0.0000000E+00
   1.320000      0.0000000E+00
   1.330000     -1.2601849E-38
   1.340000     -1.3986389E-38
   1.350000     -1.5435891E-38
   1.360000     -1.6950748E-38
   1.370000     -1.8531289E-38
   1.380000     -2.0177741E-38
   1.390000     -2.1889666E-38
   1.400000     -2.3383871E-38
   1.410000     -2.4636509E-38
   1.420000     -2.5914888E-38
   1.430000     -2.7236441E-38
   1.440000     -2.8618416E-38
   1.450000     -3.0371917E-38
   1.460000     -3.2486773E-38
   1.470000     -3.4648593E-38
   1.480000     -3.6854637E-38
   1.490000     -3.8861468E-38
   1.500000     -4.0643224E-38
   1.510000     -4.2410945E-38
   1.520000     -4.4153628E-38
   1.530000     -4.5858661E-38
   1.540000     -4.7512902E-38
   1.550000     -4.9102580E-38
   1.560000     -5.0613068E-38
   1.570000     -5.2028530E-38
   1.580000     -5.3331553E-38
   1.590000     -5.4503498E-38
   1.600000     -5.5525017E-38
   1.610000     -5.6377740E-38
   1.620000     -5.6968690E-38
   1.630000     -5.7319542E-38
   1.640000     -5.7533475E-38
   1.650000     -5.7605536E-38
   1.660000     -5.7294408E-38
   1.670000     -5.6623506E-38
   1.680000     -5.5950042E-38
   1.690000     -5.5151571E-38
   1.700000     -5.4064808E-38
   1.710000     -5.2657383E-38
   1.720000     -5.0932429E-38
   1.730000     -4.8943880E-38
   1.740000     -4.6623697E-38
   1.750000     -4.3813906E-38
   1.760000     -4.0484107E-38
   1.770000     -3.6393316E-38
   1.780000     -3.1296395E-38
   1.790000     -2.6191367E-38
   1.800000     -2.1499429E-38
   1.810000     -1.6780422E-38
   1.820000      0.0000000E+00
   1.830000      0.0000000E+00
   1.840000      0.0000000E+00
   1.850000      0.0000000E+00
   1.860000      1.6551784E-38
   1.870000      2.4493579E-38
   1.880000      3.3138789E-38
   1.890000      4.2726902E-38
   1.900000      5.2060800E-38
   1.910000      6.1127666E-38
   1.920000      7.1467163E-38
   1.930000      8.3572577E-38
   1.940000      9.7001478E-38
   1.950000      1.1623414E-37
   1.960000      1.4277511E-37
   1.970000      1.7133168E-37
   1.980000      2.0041169E-37
   1.990000      2.2899304E-37
   2.000000      2.5459194E-37
   2.010000      2.7906292E-37
   2.020000      3.0447579E-37
   2.030000      3.2989167E-37
   2.040000      3.5547335E-37
   2.050000      3.8305222E-37
   2.060000      4.1220771E-37
   2.070000      4.4149892E-37
   2.080000      4.7753050E-37
   2.090000      5.2074184E-37
   2.100000      5.6601857E-37
   2.110000      6.1132926E-37
   2.120000      6.5325158E-37
   2.130000      6.9047060E-37
   2.140000      7.2679957E-37
   2.150000      7.6722889E-37
   2.160000      8.1078887E-37
   2.170000      8.5584351E-37
   2.180000      9.0409293E-37
   2.190000      9.5847039E-37
   2.200000      1.0177606E-36
   2.210000      1.0835824E-36
   2.220000      1.1528603E-36
   2.230000      1.2209124E-36
   2.240000      1.2903184E-36
   2.250000      1.3673180E-36
   2.260000      1.4507560E-36
   2.270000      1.5339041E-36
   2.280000      1.6152725E-36
   2.290000      1.6969799E-36
   2.300000      1.7746220E-36
   2.310000      1.8140402E-36
   2.320000      1.8239035E-36
   2.330000      1.8407727E-36
   2.340000      1.8097824E-36
   2.350000      1.7561530E-36
   2.360000      1.6767617E-36
   2.370000      1.5979825E-36
   2.380000      1.5667042E-36
   2.390000      1.5305908E-36
   2.400000      1.5074411E-36
   2.410000      1.5122949E-36
   2.420000      1.5415329E-36
   2.430000      1.5554384E-36
   2.440000      1.5533655E-36
   2.450000      1.5633610E-36
   2.460000      1.6502286E-36
   2.470000      1.8165845E-36
   2.480000      1.9846860E-36
   2.490000      2.1515713E-36
   2.500000      2.3207917E-36
   2.510000      2.4345310E-36
   2.520000      2.4860780E-36
   2.530000      2.5168034E-36
   2.540000      2.4797835E-36
   2.550000      1.9337295E-36
   2.560000      9.1876894E-37
   2.570000      3.3194014E-37
   2.580000      1.8378335E-37
   2.590000      2.4745095E-38
   2.600000     -1.3970576E-37
   2.610000     -3.1263424E-37
   2.620000     -4.8081514E-37
   2.630000     -8.4216235E-37
   2.640000     -1.4219275E-36
   2.650000     -2.0057723E-36
   2.660000     -2.6249736E-36
   2.670000     -3.2574546E-36
   2.680000     -3.8932335E-36
   2.690000     -4.5796959E-36
   2.700000     -5.2858255E-36
   2.710000     -6.0404044E-36
   2.720000     -6.8804481E-36
   2.730000     -8.0163276E-36
   2.740000     -8.9979300E-36
   2.750000     -9.5927098E-36
   2.760000     -1.0274086E-35
   2.770000     -1.0835956E-35
   2.780000     -1.1277295E-35
   2.790000     -1.1869449E-35
   2.800000     -1.2627919E-35
   2.810000     -1.3348592E-35
   2.820000     -1.4137874E-35
   2.830000     -1.5176088E-35
   2.840000     -1.6379410E-35
   2.850000     -1.7771661E-35
   2.860000     -1.9338182E-35
   2.870000     -2.0785350E-35
   2.880000     -2.2138586E-35
   2.890000     -2.4135760E-35
   2.900000     -2.6669754E-35
   2.910000     -2.9387715E-35
   2.920000     -3.2388517E-35
   2.930000     -3.5636365E-35
   2.940000     -3.9348178E-35
   2.950000     -4.3003483E-35
   2.960000     -4.6794625E-35
   2.970000     -5.1601263E-35
   2.980000     -5.7227238E-35
   2.990000     -6.3151276E-35
   3.000000     -6.8420269E-35
   3.010000     -7.3513597E-35
   3.020000     -7.8368073E-35
   3.030000     -8.3017676E-35
   3.040000     -8.7053593E-35
   3.050000     -8.9844216E-35
   3.060000     -9.2555992E-35
   3.070000     -9.4985741E-35
   3.080000     -9.6573416E-35
   3.090000     -9.7514201E-35
   3.100000     -9.7829289E-35
   3.110000     -9.7166455E-35
   3.120000     -9.5522330E-35
   3.130000     -9.2937023E-35
   3.140000     -8.9710406E-35
   3.150000     -8.5987418E-35
   3.160000     -8.1196796E-35
   3.170000     -7.5562780E-35
   3.180000     -6.9372321E-35
   3.190000     -6.2381752E-35
   3.200000     -5.5204274E-35
   3.210000     -4.8628720E-35
   3.220000     -4.2555203E-35
   3.230000     -3.6415079E-35
   3.240000     -2.8382529E-35
   3.250000     -1.8649425E-35
   3.260000     -8.3201611E-36
   3.270000      1.2600972E-36
   3.280000      1.0093777E-35
   3.290000      2.0119877E-35
   3.300000      3.0935174E-35
   3.310000      4.2933737E-35
   3.320000      5.7131115E-35
   3.330000      7.4030373E-35
   3.340000      9.3967934E-35
   3.350000      1.1734066E-34
   3.360000      1.4452588E-34
   3.370000      1.7628366E-34
   3.380000      2.1284802E-34
   3.390000      2.5403436E-34
   3.400000      2.9977794E-34
   3.410000      3.5257902E-34
   3.420000      4.1219398E-34
   3.430000      4.7633015E-34
   3.440000      5.4535127E-34
   3.450000      6.1940838E-34
   3.460000      6.8977255E-34
   3.470000      7.5687322E-34
   3.480000      8.3062846E-34
   3.490000      9.0511687E-34
   3.500000      9.7453303E-34
   3.510000      1.0392541E-33
   3.520000      1.0986738E-33
   3.530000      1.1510437E-33
   3.540000      1.1972845E-33
   3.550000      1.2401442E-33
   3.560000      1.2832182E-33
   3.570000      1.3289410E-33
   3.580000      1.3759793E-33
   3.590000      1.4265549E-33
   3.600000      1.4830970E-33
   3.610000      1.5481475E-33
   3.620000      1.6222338E-33
   3.630000      1.7068474E-33
   3.640000      1.8048750E-33
   3.650000      1.9129286E-33
   3.660000      2.0274082E-33
   3.670000      2.1440426E-33
   3.680000      2.2616162E-33
   3.690000      2.3809355E-33
   3.700000      2.4973258E-33
   3.710000      2.6059266E-33
   3.720000      2.7088602E-33
   3.730000      2.8073239E-33
   3.740000      2.8933003E-33
   3.750000      2.9618553E-33
   3.760000      3.0124511E-33
   3.770000      3.0395990E-33
   3.780000      3.0392816E-33
   3.790000      3.0117614E-33
   3.800000      2.9552411E-33
   3.810000      2.8713035E-33
   3.820000      2.7626670E-33
   3.830000      2.6273423E-33
   3.840000      2.4702648E-33
   3.850000      2.2973544E-33
   3.860000      2.1102390E-33
   3.870000      1.9131183E-33
   3.880000      1.7103265E-33
   3.890000      1.5024362E-33
   3.900000      1.2893379E-33
   3.910000      1.0699340E-33
   3.920000      8.4669903E-34
   3.930000      6.2234455E-34
   3.940000      3.8368994E-34
   3.950000      1.2430485E-34
   3.960000     -1.5576930E-34
   3.970000     -4.6700058E-34
   3.980000     -8.2564473E-34
   3.990000     -1.2448088E-33
   4.000000     -1.7306537E-33
   4.010000     -2.2907071E-33
   4.020000     -2.9369177E-33
   4.030000     -3.6777864E-33
   4.040000     -4.5181305E-33
   4.050000     -5.4628444E-33
   4.060000     -6.5123732E-33
   4.070000     -7.6623078E-33
   4.080000     -8.9063049E-33
   4.090000     -1.0237251E-32
   4.100000     -1.1643742E-32
   4.110000     -1.3111573E-32
   4.120000     -1.4623909E-32
   4.130000     -1.6165968E-32
   4.140000     -1.7725085E-32
   4.150000     -1.9293746E-32
   4.160000     -2.0862317E-32
   4.170000     -2.2420573E-32
   4.180000     -2.3967126E-32
   4.190000     -2.5507190E-32
   4.200000     -2.7046623E-32
   4.210000     -2.8594194E-32
   4.220000     -3.0166797E-32
   4.230000     -3.1783716E-32
   4.240000     -3.3465155E-32
   4.250000     -3.5232357E-32
   4.260000     -3.7107236E-32
   4.270000     -3.9108456E-32
   4.280000     -4.1253451E-32
   4.290000     -4.3553135E-32
   4.300000     -4.6010847E-32
   4.310000     -4.8622710E-32
   4.320000     -5.1373488E-32
   4.330000     -5.4242499E-32
   4.340000     -5.7200190E-32
   4.350000     -6.0207210E-32
   4.360000     -6.3218327E-32
   4.370000     -6.6182160E-32
   4.380000     -6.9044430E-32
   4.390000     -7.1749836E-32
   4.400000     -7.4242272E-32
   4.410000     -7.6474218E-32
   4.420000     -7.8404456E-32
   4.430000     -7.9997192E-32
   4.440000     -8.1229963E-32
   4.450000     -8.2091200E-32
   4.460000     -8.2581887E-32
   4.470000     -8.2714689E-32
   4.480000     -8.2513750E-32
   4.490000     -8.2012754E-32
   4.500000     -8.1251339E-32
   4.510000     -8.0271600E-32
   4.520000     -7.9114226E-32
   4.530000     -7.7817032E-32
   4.540000     -7.6407168E-32
   4.550000     -7.4896769E-32
   4.560000     -7.3280571E-32
   4.570000     -7.1533627E-32
   4.580000     -6.9612100E-32
   4.590000     -6.7446657E-32
   4.600000     -6.4943806E-32
   4.610000     -6.1991123E-32
   4.620000     -5.8458680E-32
   4.630000     -5.4203843E-32
   4.640000     -4.9076783E-32
   4.650000     -4.2927108E-32
   4.660000     -3.5610893E-32
   4.670000     -2.6997682E-32
   4.680000     -1.6977325E-32
   4.690000     -5.4662673E-33
   4.700000      7.5878777E-33
   4.710000      2.2202842E-32
   4.720000      3.8359552E-32
   4.730000      5.6004800E-32
   4.740000      7.5051688E-32
   4.750000      9.5385054E-32
   4.760000      1.1687022E-31
   4.770000      1.3935956E-31
   4.780000      1.6270385E-31
   4.790000      1.8676364E-31
   4.800000      2.1141642E-31
   4.810000      2.3657071E-31
   4.820000      2.6217728E-31
   4.830000      2.8823239E-31
   4.840000      3.1478396E-31
   4.850000      3.4193337E-31
   4.860000      3.6983392E-31
   4.870000      3.9868546E-31
   4.880000      4.2872592E-31
   4.890000      4.6021902E-31
   4.900000      4.9343952E-31
   4.910000      5.2865648E-31
   4.920000      5.6611507E-31
   4.930000      6.0601774E-31
   4.940000      6.4850711E-31
   4.950000      6.9365000E-31
   4.960000      7.4142510E-31
   4.970000      7.9171425E-31
   4.980000      8.4429759E-31
   4.990000      8.9885699E-31
   5.000000      9.5498299E-31
   5.010000      1.0121868E-30
   5.020000      1.0699185E-30
   5.030000      1.1275901E-30
   5.040000      1.1846007E-30
   5.050000      1.2403642E-30
   5.060000      1.2943382E-30
   5.070000      1.3460498E-30
   5.080000      1.3951193E-30
   5.090000      1.4412795E-30
   5.100000      1.4843876E-30
   5.110000      1.5244303E-30
   5.120000      1.5615197E-30
   5.130000      1.5958810E-30
   5.140000      1.6278312E-30
   5.150000      1.6577489E-30
   5.160000      1.6860390E-30
   5.170000      1.7130902E-30
   5.180000      1.7392312E-30
   5.190000      1.7646845E-30
   5.200000      1.7895248E-30
   5.210000      1.8136416E-30
   5.220000      1.8367067E-30
   5.230000      1.8581558E-30
   5.240000      1.8771825E-30
   5.250000      1.8927406E-30
   5.260000      1.9035653E-30
   5.270000      1.9082069E-30
   5.280000      1.9050771E-30
   5.290000      1.8925057E-30
   5.300000      1.8688062E-30
   5.310000      1.8323467E-30
   5.320000      1.7816206E-30
   5.330000      1.7153145E-30
   5.340000      1.6323680E-30
   5.350000      1.5320235E-30
   5.360000      1.4138567E-30
   5.370000      1.2777916E-30
   5.380000      1.1240943E-30
   5.390000      9.5334397E-31
   5.400000      7.6638320E-31
   5.410000      5.6424843E-31
   5.420000      3.4808450E-31
   5.430000      1.1904584E-31
   5.440000     -1.2180954E-31
   5.450000     -3.7362606E-31
   5.460000     -6.3585207E-31
   5.470000     -9.0832771E-31
   5.480000     -1.1913575E-30
   5.490000     -1.4857496E-30
   5.500000     -1.7928363E-30
   5.510000     -2.1144597E-30
   5.520000     -2.4529165E-30
   5.530000     -2.8108756E-30
   5.540000     -3.1912644E-30
   5.550000     -3.5971282E-30
   5.560000     -4.0314694E-30
   5.570000     -4.4970746E-30
   5.580000     -4.9963430E-30
   5.590000     -5.5311203E-30
   5.600000     -6.1025528E-30
   5.610000     -6.7109698E-30
   5.620000     -7.3558013E-30
   5.630000     -8.0355440E-30
   5.640000     -8.7477762E-30
   5.650000     -9.4892231E-30
   5.660000     -1.0255872E-29
   5.670000     -1.1043137E-29
   5.680000     -1.1846065E-29
   5.690000     -1.2659565E-29
   5.700000     -1.3478663E-29
   5.710000     -1.4298752E-29
   5.720000     -1.5115833E-29
   5.730000     -1.5926720E-29
   5.740000     -1.6729220E-29
   5.750000     -1.7522234E-29
   5.760000     -1.8305793E-29
   5.770000     -1.9081031E-29
   5.780000     -1.9850065E-29
   5.790000     -2.0615809E-29
   5.800000     -2.1381700E-29
   5.810000     -2.2151381E-29
   5.820000     -2.2928327E-29
   5.830000     -2.3715451E-29
   5.840000     -2.4514705E-29
   5.850000     -2.5326692E-29
   5.860000     -2.6150352E-29
   5.870000     -2.6982670E-29
   5.880000     -2.7818511E-29
   5.890000     -2.8650555E-29
   5.900000     -2.9469310E-29
   5.910000     -3.0263311E-29
   5.920000     -3.1019377E-29
   5.930000     -3.1723021E-29
   5.940000     -3.2358927E-29
   5.950000     -3.2911507E-29
   5.960000     -3.3365499E-29
   5.970000     -3.3706567E-29
   5.980000     -3.3921880E-29
   5.990000     -3.4000617E-29
   6.000000     -3.3934374E-29
   6.010000     -3.3717442E-29
   6.020000     -3.3346917E-29
   6.030000     -3.2822661E-29
   6.040000     -3.2147045E-29
   6.050000     -3.1324546E-29
   6.060000     -3.0361169E-29
   6.070000     -2.9263732E-29
   6.080000     -2.8039033E-29
   6.090000     -2.6692986E-29
   6.100000     -2.5229733E-29
   6.110000     -2.3650803E-29
   6.120000     -2.1954368E-29
   6.130000     -2.0134669E-29
   6.140000     -1.8181638E-29
   6.150000     -1.6080745E-29
   6.160000     -1.3813126E-29
   6.170000     -1.1355988E-29
   6.180000     -8.6832718E-30
   6.190000     -5.7665769E-30
   6.200000     -2.5762847E-30
   6.210000      9.1714937E-31
   6.220000      4.7418013E-30
   6.230000      8.9228891E-30
   6.240000      1.3481449E-29
   6.250000      1.8433148E-29
   6.260000      2.3787308E-29
   6.270000      2.9546266E-29
   6.280000      3.5705068E-29
   6.290000      4.2251533E-29
   6.300000      4.9166768E-29
   6.310000      5.6426052E-29
   6.320000      6.4000103E-29
   6.330000      7.1856669E-29
   6.340000      7.9962294E-29
   6.350000      8.8284310E-29
   6.360000      9.6792767E-29
   6.370000      1.0546232E-28
   6.380000      1.1427387E-28
   6.390000      1.2321585E-28
   6.400000      1.3228509E-28
   6.410000      1.4148714E-28
   6.420000      1.5083602E-28
   6.430000      1.6035332E-28
   6.440000      1.7006682E-28
   6.450000      1.8000841E-28
   6.460000      1.9021156E-28
   6.470000      2.0070857E-28
   6.480000      2.1152753E-28
   6.490000      2.2268924E-28
   6.500000      2.3420420E-28
   6.510000      2.4607019E-28
   6.520000      2.5827002E-28
   6.530000      2.7077025E-28
   6.540000      2.8352031E-28
   6.550000      2.9645300E-28
   6.560000      3.0948541E-28
   6.570000      3.2252100E-28
   6.580000      3.3545244E-28
   6.590000      3.4816516E-28
   6.600000      3.6054128E-28
   6.610000      3.7246414E-28
   6.620000      3.8382260E-28
   6.630000      3.9451529E-28
   6.640000      4.0445444E-28
   6.650000      4.1356871E-28
   6.660000      4.2180528E-28
   6.670000      4.2913104E-28
   6.680000      4.3553187E-28
   6.690000      4.4101114E-28
   6.700000      4.4558676E-28
   6.710000      4.4928705E-28
   6.720000      4.5214547E-28
   6.730000      4.5419480E-28
   6.740000      4.5546072E-28
   6.750000      4.5595530E-28
   6.760000      4.5567112E-28
   6.770000      4.5457566E-28
   6.780000      4.5260687E-28
   6.790000      4.4967070E-28
   6.800000      4.4563934E-28
   6.810000      4.4035228E-28
   6.820000      4.3361865E-28
   6.830000      4.2522193E-28
   6.840000      4.1492620E-28
   6.850000      4.0248399E-28
   6.860000      3.8764523E-28
   6.870000      3.7016684E-28
   6.880000      3.4982264E-28
   6.890000      3.2641270E-28
   6.900000      2.9977169E-28
   6.910000      2.6977572E-28
   6.920000      2.3634723E-28
   6.930000      1.9945736E-28
   6.940000      1.5912559E-28
   6.950000      1.1541668E-28
   6.960000      6.8434737E-29
   6.970000      1.8314915E-29
   6.980000     -3.4787191E-29
   6.990000     -9.0708032E-29
   7.000000     -1.4928915E-28
   7.010000     -2.1039042E-28
   7.020000     -2.7390304E-28
   7.030000     -3.3976072E-28
   7.040000     -4.0794884E-28
   7.050000     -4.7851054E-28
   7.060000     -5.5154917E-28