  -2.600000      0.0000000E+00
  -2.590000      0.0000000E+00
  -2.580000      0.0000000E+00
  -2.570000      0.0000000E+00
  -2.560000      0.0000000E+00
  -2.550000      0.0000000E+00
  -2.540000      0.0000000E+00
  -2.530000      0.0000000E+00
  -2.520000      0.0000000E+00
  -2.510000      0.0000000E+00
  -2.500000      0.0000000E+00
  -2.490000      0.0000000E+00
  -2.480000      0.0000000E+00
  -2.470000      0.0000000E+00
  -2.460000      0.0000000E+00
  -2.450000      0.0000000E+00
  -2.440000      0.0000000E+00
  -2.430000      0.0000000E+00
  -2.420000      0.0000000E+00
  -2.410000      0.0000000E+00
  -2.400000      0.0000000E+00
  -2.390000      0.0000000E+00
  -2.380000      0.0000000E+00
  -2.370000      0.0000000E+00
  -2.360000      0.0000000E+00
  -2.350000      0.0000000E+00
  -2.340000      0.0000000E+00
  -2.330000      0.0000000E+00
  -2.320000      0.0000000E+00
  -2.310000      0.0000000E+00
  -2.300000      0.0000000E+00
  -2.290000      0.0000000E+00
  -2.280000      0.0000000E+00
  -2.270000      0.0000000E+00
  -2.260000      0.0000000E+00
  -2.250000      0.0000000E+00
  -2.240000      0.0000000E+00
  -2.230000      0.0000000E+00
  -2.220000      0.0000000E+00
  -2.210000      0.0000000E+00
  -2.200000      0.0000000E+00
  -2.190000      0.0000000E+00
  -2.180000      0.0000000E+00
  -2.170000      0.0000000E+00
  -2.160000      0.0000000E+00
  -2.150000      0.0000000E+00
  -2.140000      0.0000000E+00
  -2.130000      0.0000000E+00
  -2.120000      0.0000000E+00
  -2.110000      0.0000000E+00
  -2.100000      0.0000000E+00
  -2.090000      0.0000000E+00
  -2.080000      0.0000000E+00
  -2.070000      0.0000000E+00
  -2.060000      0.0000000E+00
  -2.050000      0.0000000E+00
  -2.040000      0.0000000E+00
  -2.030000      0.0000000E+00
  -2.020000      0.0000000E+00
  -2.010000      0.0000000E+00
  -2.000000      0.0000000E+00
  -1.990000      0.0000000E+00
  -1.980000      0.0000000E+00
  -1.970000      0.0000000E+00
  -1.960000      0.0000000E+00
  -1.950000      0.0000000E+00
  -1.940000      0.0000000E+00
  -1.930000      0.0000000E+00
  -1.920000      0.0000000E+00
  -1.910000      0.0000000E+00
  -1.900000      0.0000000E+00
  -1.890000      0.0000000E+00
  -1.880000      0.0000000E+00
  -1.870000      0.0000000E+00
  -1.860000      0.0000000E+00
  -1.850000      0.0000000E+00
  -1.840000      0.0000000E+00
  -1.830000      0.0000000E+00
  -1.820000      0.0000000E+00
  -1.810000      0.0000000E+00
  -1.800000      0.0000000E+00
  -1.790000      0.0000000E+00
  -1.780000      0.0000000E+00
  -1.770000      0.0000000E+00
  -1.760000      0.0000000E+00
  -1.750000      0.0000000E+00
  -1.740000      0.0000000E+00
  -1.730000      0.0000000E+00
  -1.720000      0.0000000E+00
  -1.710000      0.0000000E+00
  -1.700000      0.0000000E+00
  -1.690000      0.0000000E+00
  -1.680000      0.0000000E+00
  -1.670000      0.0000000E+00
  -1.660000      0.0000000E+00
  -1.650000      0.0000000E+00
  -1.640000      0.0000000E+00
  -1.630000      0.0000000E+00
  -1.620000      0.0000000E+00
  -1.610000      0.0000000E+00
  -1.600000      0.0000000E+00
  -1.590000      0.0000000E+00
  -1.580000      0.0000000E+00
  -1.570000      0.0000000E+00
  -1.560000      0.0000000E+00
  -1.550000      0.0000000E+00
  -1.540000      0.0000000E+00
  -1.530000      0.0000000E+00
  -1.520000      0.0000000E+00
  -1.510000      0.0000000E+00
  -1.500000      0.0000000E+00
  -1.490000      0.0000000E+00
  -1.480000      0.0000000E+00
  -1.470000      0.0000000E+00
  -1.460000      0.0000000E+00
  -1.450000      0.0000000E+00
  -1.440000      0.0000000E+00
  -1.430000      0.0000000E+00
  -1.420000      0.0000000E+00
  -1.410000      0.0000000E+00
  -1.400000      0.0000000E+00
  -1.390000      0.0000000E+00
  -1.380000      0.0000000E+00
  -1.370000      0.0000000E+00
  -1.360000      0.0000000E+00
  -1.350000      0.0000000E+00
  -1.340000      0.0000000E+00
  -1.330000      0.0000000E+00
  -1.320000      0.0000000E+00
  -1.310000      0.0000000E+00
  -1.300000      0.0000000E+00
  -1.290000      0.0000000E+00
  -1.280000      0.0000000E+00
  -1.270000      0.0000000E+00
  -1.260000      0.0000000E+00
  -1.250000      0.0000000E+00
  -1.240000      0.0000000E+00
  -1.230000      0.0000000E+00
  -1.220000      0.0000000E+00
  -1.210000      0.0000000E+00
  -1.200000      0.0000000E+00
  -1.190000      0.0000000E+00
  -1.180000      0.0000000E+00
  -1.170000      0.0000000E+00
  -1.160000      0.0000000E+00
  -1.150000      0.0000000E+00
  -1.140000      0.0000000E+00
  -1.130000      0.0000000E+00
  -1.120000      0.0000000E+00
  -1.110000      0.0000000E+00
  -1.100000      0.0000000E+00
  -1.090000      0.0000000E+00
  -1.080000      0.0000000E+00
  -1.070000      0.0000000E+00
  -1.060000      0.0000000E+00
  -1.050000      0.0000000E+00
  -1.040000      0.0000000E+00
  -1.030000      0.0000000E+00
  -1.020000      0.0000000E+00
  -1.010000      0.0000000E+00
  -1.000000      0.0000000E+00
 -0.9900000      0.0000000E+00
 -0.9800000      0.0000000E+00
 -0.9700000      0.0000000E+00
 -0.9600000      0.0000000E+00
 -0.9500000      0.0000000E+00
 -0.9400000      0.0000000E+00
 -0.9300000      0.0000000E+00
 -0.9200000      0.0000000E+00
 -0.9100000      0.0000000E+00
 -0.9000000      0.0000000E+00
 -0.8900000      0.0000000E+00
 -0.8800000      0.0000000E+00
 -0.8700000      0.0000000E+00
 -0.8600000      0.0000000E+00
 -0.8500000      0.0000000E+00
 -0.8400000      0.0000000E+00
 -0.8300000      0.0000000E+00
 -0.8200000      0.0000000E+00
 -0.8100000      0.0000000E+00
 -0.8000000      0.0000000E+00
 -0.7900000      0.0000000E+00
 -0.7800000      0.0000000E+00
 -0.7700000      0.0000000E+00
 -0.7600000      0.0000000E+00
 -0.7500000      0.0000000E+00
 -0.7400000      0.0000000E+00
 -0.7300000      0.0000000E+00
 -0.7200000      0.0000000E+00
 -0.7100000      0.0000000E+00
 -0.7000000      0.0000000E+00
 -0.6900000      0.0000000E+00
 -0.6800000      0.0000000E+00
 -0.6700000      0.0000000E+00
 -0.6600000      0.0000000E+00
 -0.6500000      0.0000000E+00
 -0.6400000      0.0000000E+00
 -0.6300000      0.0000000E+00
 -0.6200000      0.0000000E+00
 -0.6100000      0.0000000E+00
 -0.6000000      0.0000000E+00
 -0.5900000      0.0000000E+00
 -0.5800000      0.0000000E+00
 -0.5700000      0.0000000E+00
 -0.5600000      0.0000000E+00
 -0.5500000      0.0000000E+00
 -0.5400000      0.0000000E+00
 -0.5300000      0.0000000E+00
 -0.5200000      0.0000000E+00
 -0.5100000      0.0000000E+00
 -0.5000000      0.0000000E+00
 -0.4900000      0.0000000E+00
 -0.4800000      0.0000000E+00
 -0.4700000      0.0000000E+00
 -0.4600000      0.0000000E+00
 -0.4500000      0.0000000E+00
 -0.4400000      0.0000000E+00
 -0.4300000      0.0000000E+00
 -0.4200000      0.0000000E+00
 -0.4100000      0.0000000E+00
 -0.4000000      0.0000000E+00
 -0.3900000      0.0000000E+00
 -0.3800000      0.0000000E+00
 -0.3700000      0.0000000E+00
 -0.3600000      0.0000000E+00
 -0.3500000      0.0000000E+00
 -0.3400000      0.0000000E+00
 -0.3300000      0.0000000E+00
 -0.3200000      0.0000000E+00
 -0.3100000      0.0000000E+00
 -0.3000000      0.0000000E+00
 -0.2900000      0.0000000E+00
 -0.2800000      0.0000000E+00
 -0.2700000      0.0000000E+00
 -0.2600000      0.0000000E+00
 -0.2500000      0.0000000E+00
 -0.2400000      0.0000000E+00
 -0.2300000      0.0000000E+00
 -0.2200000      0.0000000E+00
 -0.2100000      0.0000000E+00
 -0.2000000      0.0000000E+00
 -0.1900000      0.0000000E+00
 -0.1800000      0.0000000E+00
 -0.1700000      0.0000000E+00
 -0.1600000      0.0000000E+00
 -0.1500000      0.0000000E+00
 -0.1400000      0.0000000E+00
 -0.1300000      0.0000000E+00
 -0.1200000      0.0000000E+00
 -0.1100000      0.0000000E+00
 -0.1000000      0.0000000E+00
 -9.0000004E-02  0.0000000E+00
 -7.9999998E-02  0.0000000E+00
 -7.0000000E-02  0.0000000E+00
 -5.9999999E-02  0.0000000E+00
 -5.0000001E-02  0.0000000E+00
 -3.9999999E-02  0.0000000E+00
 -2.9999999E-02  0.0000000E+00
 -2.0000000E-02  0.0000000E+00
 -9.9999998E-03  0.0000000E+00
 -3.4694470E-17  0.0000000E+00
  9.9999998E-03  0.0000000E+00
  2.0000000E-02  0.0000000E+00
  2.9999999E-02  0.0000000E+00
  3.9999999E-02  0.0000000E+00
  5.0000001E-02  0.0000000E+00
  5.9999999E-02  0.0000000E+00
  7.0000000E-02  0.0000000E+00
  7.9999998E-02  0.0000000E+00
  9.0000004E-02  0.0000000E+00
  0.1000000      0.0000000E+00
  0.1100000      0.0000000E+00
  0.1200000      0.0000000E+00
  0.1300000      0.0000000E+00
  0.1400000      0.0000000E+00
  0.1500000      0.0000000E+00
  0.1600000      0.0000000E+00
  0.1700000      0.0000000E+00
  0.1800000      0.0000000E+00
  0.1900000      0.0000000E+00
  0.2000000      0.0000000E+00
  0.2100000      0.0000000E+00
  0.2200000      0.0000000E+00
  0.2300000      0.0000000E+00
  0.2400000      0.0000000E+00
  0.2500000      0.0000000E+00
  0.2600000      0.0000000E+00
  0.2700000      0.0000000E+00
  0.2800000      0.0000000E+00
  0.2900000      0.0000000E+00
  0.3000000      0.0000000E+00
  0.3100000      0.0000000E+00
  0.3200000      0.0000000E+00
  0.3300000      0.0000000E+00
  0.3400000      0.0000000E+00
  0.3500000      0.0000000E+00
  0.3600000      0.0000000E+00
  0.3700000      0.0000000E+00
  0.3800000      0.0000000E+00
  0.3900000      0.0000000E+00
  0.4000000      0.0000000E+00
  0.4100000      0.0000000E+00
  0.4200000      0.0000000E+00
  0.4300000      0.0000000E+00
  0.4400000      0.0000000E+00
  0.4500000      0.0000000E+00
  0.4600000      0.0000000E+00
  0.4700000      0.0000000E+00
  0.4800000      0.0000000E+00
  0.4900000      0.0000000E+00
  0.5000000      0.0000000E+00
  0.5100000      0.0000000E+00
  0.5200000      0.0000000E+00
  0.5300000      0.0000000E+00
  0.5400000      0.0000000E+00
  0.5500000      0.0000000E+00
  0.5600000      0.0000000E+00
  0.5700000      0.0000000E+00
  0.5800000      0.0000000E+00
  0.5900000      0.0000000E+00
  0.6000000      0.0000000E+00
  0.6100000      0.0000000E+00
  0.6200000      0.0000000E+00
  0.6300000      0.0000000E+00
  0.6400000      0.0000000E+00
  0.6500000      0.0000000E+00
  0.6600000      0.0000000E+00
  0.6700000      0.0000000E+00
  0.6800000      0.0000000E+00
  0.6900000      0.0000000E+00
  0.7000000      0.0000000E+00
  0.7100000      0.0000000E+00
  0.7200000      0.0000000E+00
  0.7300000      0.0000000E+00
  0.7400000      0.0000000E+00
  0.7500000      0.0000000E+00
  0.7600000      0.0000000E+00
  0.7700000      0.0000000E+00
  0.7800000      0.0000000E+00
  0.7900000      0.0000000E+00
  0.8000000      0.0000000E+00
  0.8100000      0.0000000E+00
  0.8200000      0.0000000E+00
  0.8300000      0.0000000E+00
  0.8400000      0.0000000E+00
  0.8500000      0.0000000E+00
  0.8600000      0.0000000E+00
  0.8700000      0.0000000E+00
  0.8800000      0.0000000E+00
  0.8900000      0.0000000E+00
  0.9000000      0.0000000E+00
  0.9100000      0.0000000E+00
  0.9200000      0.0000000E+00
  0.9300000      0.0000000E+00
  0.9400000      0.0000000E+00
  0.9500000      0.0000000E+00
  0.9600000      0.0000000E+00
  0.9700000      0.0000000E+00
  0.9800000      0.0000000E+00
  0.9900000      0.0000000E+00
   1.000000      0.0000000E+00
   1.010000      0.0000000E+00
   1.020000      0.0000000E+00
   1.030000      0.0000000E+00
   1.040000      0.0000000E+00
   1.050000      0.0000000E+00
   1.060000      0.0000000E+00
   1.070000      0.0000000E+00
   1.080000      0.0000000E+00
   1.090000      0.0000000E+00
   1.100000      0.0000000E+00
   1.110000      0.0000000E+00
   1.120000      0.0000000E+00
   1.130000      0.0000000E+00
   1.140000      0.0000000E+00
   1.150000      0.0000000E+00
   1.160000      0.0000000E+00
   1.170000      0.0000000E+00
   1.180000      0.0000000E+00
   1.190000      0.0000000E+00
   1.200000      0.0000000E+00
   1.210000      0.0000000E+00
   1.220000      0.0000000E+00
   1.230000      0.0000000E+00
   1.240000      0.0000000E+00
   1.250000      0.0000000E+00
   1.260000      0.0000000E+00
   1.270000      0.0000000E+00
   1.280000      0.0000000E+00
   1.290000      0.0000000E+00
   1.300000      0.0000000E+00
   1.310000      0.0000000E+00
   1.320000      0.0000000E+00
   1.330000      0.0000000E+00
   1.340000      0.0000000E+00
   1.350000      0.0000000E+00
   1.360000      0.0000000E+00
   1.370000      0.0000000E+00
   1.380000      0.0000000E+00
   1.390000      0.0000000E+00
   1.400000      0.0000000E+00
   1.410000      0.0000000E+00
   1.420000      0.0000000E+00
   1.430000      0.0000000E+00
   1.440000      0.0000000E+00
   1.450000      0.0000000E+00
   1.460000      0.0000000E+00
   1.470000      0.0000000E+00
   1.480000      0.0000000E+00
   1.490000      0.0000000E+00
   1.500000      0.0000000E+00
   1.510000      0.0000000E+00
   1.520000      0.0000000E+00
   1.530000      0.0000000E+00
   1.540000      0.0000000E+00
   1.550000      0.0000000E+00
   1.560000      0.0000000E+00
   1.570000      0.0000000E+00
   1.580000      0.0000000E+00
   1.590000      0.0000000E+00
   1.600000      0.0000000E+00
   1.610000      0.0000000E+00
   1.620000      0.0000000E+00
   1.630000      0.0000000E+00
   1.640000      0.0000000E+00
   1.650000      0.0000000E+00
   1.660000      0.0000000E+00
   1.670000      0.0000000E+00
   1.680000      0.0000000E+00
   1.690000      0.0000000E+00
   1.700000      0.0000000E+00
   1.710000      0.0000000E+00
   1.720000      1.4241228E-38
   1.730000      2.0151283E-38
   1.740000      2.6327254E-38
   1.750000      3.2542169E-38
   1.760000      3.8737130E-38
   1.770000      4.5038842E-38
   1.780000      5.1111229E-38
   1.790000      5.5770838E-38
   1.800000      5.9271937E-38
   1.810000      6.2584624E-38
   1.820000      6.5795694E-38
   1.830000      6.8881549E-38
   1.840000      7.1454838E-38
   1.850000      7.3321064E-38
   1.860000      7.1065876E-38
   1.870000      6.6467723E-38
   1.880000      6.2872854E-38
   1.890000      5.8353919E-38
   1.900000      5.3637266E-38
   1.910000      4.8296979E-38
   1.920000      4.0345555E-38
   1.930000      2.8437892E-38
   1.940000      1.3518024E-38
   1.950000      0.0000000E+00
   1.960000     -2.0975527E-38
   1.970000     -3.7697748E-38
   1.980000     -5.3438203E-38
   1.990000     -6.6832329E-38
   2.000000     -8.7492435E-38
   2.010000     -1.1762100E-37
   2.020000     -1.5037158E-37
   2.030000     -1.8641596E-37
   2.040000     -2.2374201E-37
   2.050000     -2.5231388E-37
   2.060000     -2.7381435E-37
   2.070000     -2.9684604E-37
   2.080000     -3.3147325E-37
   2.090000     -3.7880887E-37
   2.100000     -4.3046364E-37
   2.110000     -4.8581130E-37
   2.120000     -5.3843299E-37
   2.130000     -5.8029433E-37
   2.140000     -6.0502306E-37
   2.150000     -6.3133527E-37
   2.160000     -6.7016563E-37
   2.170000     -7.0641716E-37
   2.180000     -7.4917770E-37
   2.190000     -8.5253205E-37
   2.200000     -1.0095342E-36
   2.210000     -1.1692816E-36
   2.220000     -1.3242775E-36
   2.230000     -1.4689645E-36
   2.240000     -1.5924142E-36
   2.250000     -1.7025438E-36
   2.260000     -1.8171843E-36
   2.270000     -1.9646061E-36
   2.280000     -2.1377165E-36
   2.290000     -2.3112562E-36
   2.300000     -2.4921004E-36
   2.310000     -2.6695508E-36
   2.320000     -2.8208932E-36
   2.330000     -2.9642177E-36
   2.340000     -3.1518387E-36
   2.350000     -3.3773401E-36
   2.360000     -3.4187084E-36
   2.370000     -3.2576594E-36
   2.380000     -3.0690121E-36
   2.390000     -2.8495166E-36
   2.400000     -2.6400232E-36
   2.410000     -2.4561077E-36
   2.420000     -2.2997226E-36
   2.430000     -2.2037836E-36
   2.440000     -2.1651999E-36
   2.450000     -2.1649420E-36
   2.460000     -2.1714541E-36
   2.470000     -2.1548105E-36
   2.480000     -2.1083697E-36
   2.490000     -2.0112175E-36
   2.500000     -1.8534213E-36
   2.510000     -1.6580018E-36
   2.520000     -1.4306491E-36
   2.530000     -1.0457210E-36
   2.540000     -5.1381202E-37
   2.550000      6.2405846E-38
   2.560000      4.6483828E-37
   2.570000      5.3523539E-37
   2.580000      4.6685745E-37
   2.590000      4.0047424E-37
   2.600000      3.4321853E-37
   2.610000      1.6516889E-37
   2.620000     -2.4116284E-37
   2.630000     -8.3142585E-37
   2.640000     -1.5937736E-36
   2.650000     -2.6407157E-36
   2.660000     -3.3162698E-36
   2.670000     -3.3343187E-36
   2.680000     -3.1254877E-36
   2.690000     -2.4358544E-36
   2.700000     -1.1025285E-36
   2.710000      7.0662675E-37
   2.720000      2.8483427E-36
   2.730000      4.4193558E-36
   2.740000      5.2540486E-36
   2.750000      5.9618585E-36
   2.760000      6.6889560E-36
   2.770000      7.4566297E-36
   2.780000      8.1143032E-36
   2.790000      8.6297586E-36
   2.800000      9.0123704E-36
   2.810000      9.1752335E-36
   2.820000      9.1530437E-36
   2.830000      9.0081682E-36
   2.840000      8.9564935E-36
   2.850000      8.9829400E-36
   2.860000      8.6451511E-36
   2.870000      7.8630162E-36
   2.880000      6.6754835E-36
   2.890000      4.5432351E-36
   2.900000      1.4158488E-36
   2.910000     -2.0576462E-36
   2.920000     -5.8038304E-36
   2.930000     -9.8022805E-36
   2.940000     -1.3838204E-35
   2.950000     -1.7658633E-35
   2.960000     -2.1120380E-35
   2.970000     -2.4138725E-35
   2.980000     -2.6688804E-35
   2.990000     -2.8897411E-35
   3.000000     -3.3559417E-35
   3.010000     -4.1120761E-35
   3.020000     -4.8078273E-35
   3.030000     -5.3932002E-35
   3.040000     -5.8419641E-35
   3.050000     -6.1739213E-35
   3.060000     -6.5162112E-35
   3.070000     -6.8780126E-35
   3.080000     -7.2600546E-35
   3.090000     -7.4403053E-35
   3.100000     -7.4585444E-35
   3.110000     -7.6327724E-35
   3.120000     -7.9834083E-35
   3.130000     -8.2142208E-35
   3.140000     -7.9701852E-35
   3.150000     -7.4415674E-35
   3.160000     -6.9545558E-35
   3.170000     -6.9057928E-35
   3.180000     -7.2912718E-35
   3.190000     -8.1390069E-35
   3.200000     -9.3494177E-35
   3.210000     -1.0401132E-34
   3.220000     -1.1281853E-34
   3.230000     -1.1910030E-34
   3.240000     -1.2050026E-34
   3.250000     -1.1719956E-34
   3.260000     -1.1082444E-34
   3.270000     -1.0144667E-34
   3.280000     -9.3089636E-35
   3.290000     -8.5529973E-35
   3.300000     -7.2261994E-35
   3.310000     -5.3653505E-35
   3.320000     -3.2511307E-35
   3.330000     -9.0523224E-36
   3.340000      2.2222649E-35
   3.350000      6.6249111E-35
   3.360000      1.1518655E-34
   3.370000      1.5870205E-34
   3.380000      1.9232099E-34
   3.390000      2.1857406E-34
   3.400000      2.4183891E-34
   3.410000      2.6115586E-34
   3.420000      2.7895457E-34
   3.430000      2.9869020E-34
   3.440000      3.2406586E-34
   3.450000      3.5763311E-34
   3.460000      3.9896388E-34
   3.470000      4.5105817E-34
   3.480000      5.1660116E-34
   3.490000      5.9597118E-34
   3.500000      6.8956932E-34
   3.510000      7.9711539E-34
   3.520000      9.1505210E-34
   3.530000      1.0433061E-33
   3.540000      1.1840704E-33
   3.550000      1.3330297E-33
   3.560000      1.4862119E-33
   3.570000      1.6434958E-33
   3.580000      1.8038297E-33
   3.590000      1.9650300E-33
   3.600000      2.1214317E-33
   3.610000      2.2696871E-33
   3.620000      2.4118984E-33
   3.630000      2.5471640E-33
   3.640000      2.6709697E-33
   3.650000      2.7801475E-33
   3.660000      2.8759119E-33
   3.670000      2.9602210E-33
   3.680000      3.0369400E-33
   3.690000      3.1114318E-33
   3.700000      3.1872317E-33
   3.710000      3.2671179E-33
   3.720000      3.3581049E-33
   3.730000      3.4664733E-33
   3.740000      3.5938040E-33
   3.750000      3.7433276E-33
   3.760000      3.9158251E-33
   3.770000      4.1093872E-33
   3.780000      4.3247962E-33
   3.790000      4.5619209E-33
   3.800000      4.8160158E-33
   3.810000      5.0780603E-33
   3.820000      5.3398884E-33
   3.830000      5.5932016E-33
   3.840000      5.8266977E-33
   3.850000      6.0291458E-33
   3.860000      6.1883614E-33
   3.870000      6.2945761E-33
   3.880000      6.3390333E-33
   3.890000      6.3127918E-33
   3.900000      6.2099346E-33
   3.910000      6.0279641E-33
   3.920000      5.7653241E-33
   3.930000      5.4239535E-33
   3.940000      5.0128402E-33
   3.950000      4.5364623E-33
   3.960000      4.0073245E-33
   3.970000      3.4426762E-33
   3.980000      2.8515392E-33
   3.990000      2.2478732E-33
   4.000000      1.6457676E-33
   4.010000      1.0536905E-33
   4.020000      4.7980571E-34
   4.030000     -7.4284166E-35
   4.040000     -6.0882186E-34
   4.050000     -1.1286853E-33
   4.060000     -1.6492985E-33
   4.070000     -2.1874765E-33
   4.080000     -2.7653398E-33
   4.090000     -3.4109037E-33
   4.100000     -4.1564533E-33
   4.110000     -5.0340285E-33
   4.120000     -6.0742745E-33
   4.130000     -7.3073570E-33
   4.140000     -8.7609925E-33
   4.150000     -1.0455570E-32
   4.160000     -1.2408937E-32
   4.170000     -1.4624892E-32
   4.180000     -1.7099101E-32
   4.190000     -1.9822942E-32
   4.200000     -2.2772977E-32
   4.210000     -2.5920018E-32
   4.220000     -2.9224779E-32
   4.230000     -3.2643090E-32
   4.240000     -3.6128886E-32
   4.250000     -3.9631860E-32
   4.260000     -4.3104675E-32
   4.270000     -4.6505974E-32
   4.280000     -4.9802675E-32
   4.290000     -5.2970162E-32
   4.300000     -5.5997036E-32
   4.310000     -5.8888711E-32
   4.320000     -6.1664059E-32
   4.330000     -6.4355542E-32
   4.340000     -6.7009961E-32
   4.350000     -6.9686884E-32
   4.360000     -7.2453528E-32
   4.370000     -7.5380962E-32
   4.380000     -7.8540426E-32
   4.390000     -8.1998125E-32
   4.400000     -8.5809771E-32
   4.410000     -9.0016965E-32
   4.420000     -9.4639779E-32
   4.430000     -9.9674950E-32
   4.440000     -1.0509446E-31
   4.450000     -1.1084191E-31
   4.460000     -1.1683379E-31
   4.470000     -1.2296100E-31
   4.480000     -1.2909265E-31
   4.490000     -1.3508016E-31
   4.500000     -1.4076490E-31
   4.510000     -1.4598551E-31
   4.520000     -1.5058382E-31
   4.530000     -1.5441496E-31
   4.540000     -1.5735609E-31
   4.550000     -1.5931252E-31
   4.560000     -1.6022430E-31
   4.570000     -1.6006982E-31
   4.580000     -1.5886765E-31
   4.590000     -1.5667762E-31
   4.600000     -1.5359733E-31
   4.610000     -1.4975568E-31
   4.620000     -1.4530509E-31
   4.630000     -1.4041150E-31
   4.640000     -1.3524182E-31
   4.650000     -1.2995105E-31
   4.660000     -1.2466856E-31
   4.670000     -1.1948536E-31
   4.680000     -1.1444149E-31
   4.690000     -1.0951664E-31
   4.700000     -1.0462371E-31
   4.710000     -9.9605267E-32
   4.720000     -9.4234933E-32
   4.730000     -8.8221656E-32
   4.740000     -8.1218995E-32
   4.750000     -7.2839284E-32
   4.760000     -6.2670235E-32
   4.770000     -5.0294202E-32
   4.780000     -3.5311045E-32
   4.790000     -1.7359520E-32
   4.800000      3.8613616E-33
   4.810000      2.8572486E-32
   4.820000      5.6898611E-32
   4.830000      8.8856629E-32
   4.840000      1.2435028E-31
   4.850000      1.6317064E-31
   4.860000      2.0500351E-31
   4.870000      2.4944397E-31
   4.880000      2.9601715E-31
   4.890000      3.4420480E-31
   4.900000      3.9347628E-31
   4.910000      4.4332222E-31
   4.920000      4.9328943E-31
   4.930000      5.4301411E-31
   4.940000      5.9225228E-31
   4.950000      6.4090458E-31
   4.960000      6.8903233E-31
   4.970000      7.3686625E-31
   4.980000      7.8480521E-31
   4.990000      8.3340170E-31
   5.000000      8.8333793E-31
   5.010000      9.3539126E-31
   5.020000      9.9039038E-31
   5.030000      1.0491648E-30
   5.040000      1.1124895E-30
   5.050000      1.1810289E-30
   5.060000      1.2552809E-30
   5.070000      1.3355283E-30
   5.080000      1.4217983E-30
   5.090000      1.5138326E-30
   5.100000      1.6110739E-30
   5.110000      1.7126680E-30
   5.120000      1.8174824E-30
   5.130000      1.9241434E-30
   5.140000      2.0310889E-30
   5.150000      2.1366355E-30
   5.160000      2.2390576E-30
   5.170000      2.3366725E-30
   5.180000      2.4279281E-30
   5.190000      2.5114875E-30
   5.200000      2.5863054E-30
   5.210000      2.6516907E-30
   5.220000      2.7073504E-30
   5.230000      2.7534110E-30
   5.240000      2.7904135E-30
   5.250000      2.8192820E-30
   5.260000      2.8412650E-30
   5.270000      2.8578504E-30
   5.280000      2.8706591E-30
   5.290000      2.8813210E-30
   5.300000      2.8913403E-30
   5.310000      2.9019568E-30
   5.320000      2.9140129E-30
   5.330000      2.9278337E-30
   5.340000      2.9431292E-30
   5.350000      2.9589249E-30
   5.360000      2.9735299E-30
   5.370000      2.9845427E-30
   5.380000      2.9889032E-30
   5.390000      2.9829837E-30
   5.400000      2.9627235E-30
   5.410000      2.9237956E-30
   5.420000      2.8618027E-30
   5.430000      2.7724884E-30
   5.440000      2.6519564E-30
   5.450000      2.4968809E-30
   5.460000      2.3046936E-30
   5.470000      2.0737441E-30
   5.480000      1.8034081E-30
   5.490000      1.4941439E-30
   5.500000      1.1474852E-30
   5.510000      7.6597022E-31
   5.520000      3.5300305E-31
   5.530000     -8.7347018E-32
   5.540000     -5.5059822E-31
   5.550000     -1.0321511E-30
   5.560000     -1.5276110E-30
   5.570000     -2.0331155E-30
   5.580000     -2.5456517E-30
   5.590000     -3.0633420E-30
   5.600000     -3.5856761E-30
   5.610000     -4.1136713E-30
   5.620000     -4.6499491E-30
   5.630000     -5.1987154E-30
   5.640000     -5.7656365E-30
   5.650000     -6.3576151E-30
   5.660000     -6.9824703E-30
   5.670000     -7.6485329E-30
   5.680000     -8.3641776E-30
   5.690000     -9.1373166E-30
   5.700000     -9.9748779E-30
   5.710000     -1.0882299E-29
   5.720000     -1.1863074E-29
   5.730000     -1.2918383E-29
   5.740000     -1.4046820E-29
   5.750000     -1.5244265E-29
   5.760000     -1.6503894E-29
   5.770000     -1.7816342E-29
   5.780000     -1.9170034E-29
   5.790000     -2.0551654E-29
   5.800000     -2.1946739E-29
   5.810000     -2.3340384E-29
   5.820000     -2.4717991E-29
   5.830000     -2.6066053E-29
   5.840000     -2.7372896E-29
   5.850000     -2.8629364E-29
   5.860000     -2.9829360E-29
   5.870000     -3.0970244E-29
   5.880000     -3.2053026E-29
   5.890000     -3.3082313E-29
   5.900000     -3.4066047E-29
   5.910000     -3.5015004E-29
   5.920000     -3.5942036E-29
   5.930000     -3.6861168E-29
   5.940000     -3.7786514E-29
   5.950000     -3.8731110E-29
   5.960000     -3.9705715E-29
   5.970000     -4.0717665E-29
   5.980000     -4.1769818E-29
   5.990000     -4.2859714E-29
   6.000000     -4.3978974E-29
   6.010000     -4.5112980E-29
   6.020000     -4.6240937E-29
   6.030000     -4.7336274E-29
   6.040000     -4.8367398E-29
   6.050000     -4.9298811E-29
   6.060000     -5.0092499E-29
   6.070000     -5.0709561E-29
   6.080000     -5.1111966E-29
   6.090000     -5.1264379E-29
   6.100000     -5.1135944E-29
   6.110000     -5.0701815E-29
   6.120000     -4.9944509E-29
   6.130000     -4.8854818E-29
   6.140000     -4.7432299E-29
   6.150000     -4.5685246E-29
   6.160000     -4.3630101E-29
   6.170000     -4.1290361E-29
   6.180000     -3.8694951E-29
   6.190000     -3.5876172E-29
   6.200000     -3.2867307E-29
   6.210000     -2.9700003E-29
   6.220000     -2.6401611E-29
   6.230000     -2.2992573E-29
   6.240000     -1.9484117E-29
   6.250000     -1.5876360E-29
   6.260000     -1.2156946E-29
   6.270000     -8.3003909E-30
   6.280000     -4.2682174E-30
   6.290000     -9.8581702E-33
   6.300000      4.5355846E-30
   6.310000      9.4368408E-30
   6.320000      1.4767292E-29
   6.330000      2.0601290E-29
   6.340000      2.7010162E-29
   6.350000      3.4058070E-29
   6.360000      4.1798030E-29
   6.370000      5.0268306E-29
   6.380000      5.9489406E-29
   6.390000      6.9461944E-29
   6.400000      8.0165474E-29
   6.410000      9.1558487E-29
   6.420000      1.0357967E-28
   6.430000      1.1615023E-28
   6.440000      1.2917754E-28
   6.450000      1.4255961E-28
   6.460000      1.5619044E-28
   6.470000      1.6996573E-28
   6.480000      1.8378889E-28
   6.490000      1.9757680E-28
   6.500000      2.1126496E-28
   6.510000      2.2481180E-28
   6.520000      2.3820166E-28
   6.530000      2.5144638E-28
   6.540000      2.6458522E-28
   6.550000      2.7768277E-28
   6.560000      2.9082536E-28
   6.570000      3.0411546E-28
   6.580000      3.1766496E-28
   6.590000      3.3158707E-28
   6.600000      3.4598768E-28
   6.610000      3.6095623E-28
   6.620000      3.7655705E-28
   6.630000      3.9282158E-28
   6.640000      4.0974179E-28
   6.650000      4.2726544E-28
   6.660000      4.4529354E-28
   6.670000      4.6368049E-28
   6.680000      4.8223678E-28
   6.690000      5.0073408E-28
   6.700000      5.1891327E-28
   6.710000      5.3649432E-28
   6.720000      5.5318789E-28
   6.730000      5.6870833E-28
   6.740000      5.8278655E-28
   6.750000      5.9518299E-28
   6.760000      6.0569890E-28
   6.770000      6.1418638E-28
   6.780000      6.2055514E-28
   6.790000      6.2477630E-28
   6.800000      6.2688240E-28
   6.810000      6.2696377E-28
   6.820000      6.2516090E-28
   6.830000      6.2165311E-28
   6.840000      6.1664411E-28
   6.850000      6.1034525E-28
   6.860000      6.0295695E-28
   6.870000      5.9464970E-28
   6.880000      5.8554558E-28
   6.890000      5.7570158E-28
   6.900000      5.6509572E-28
   6.910000      5.5361699E-28
   6.920000      5.4106031E-28
   6.930000      5.2712654E-28
   6.940000      5.1142814E-28
   6.950000      4.9350087E-28
   6.960000      4.7282052E-28
   6.970000      4.4882440E-28
   6.980000      4.2093650E-28
   6.990000      3.8859520E-28
   7.000000      3.5128134E-28
   7.010000      3.0854601E-28
   7.020000      2.6003600E-28
   7.030000      2.0551473E-28
   7.040000      1.4487788E-28
   7.050000      7.8162272E-29
   7.060000      5.5466534E-30