  -2.600000      0.0000000E+00
  -2.590000      0.0000000E+00
  -2.580000      0.0000000E+00
  -2.570000      0.0000000E+00
  -2.560000      0.0000000E+00
  -2.550000      0.0000000E+00
  -2.540000      0.0000000E+00
  -2.530000      0.0000000E+00
  -2.520000      0.0000000E+00
  -2.510000      0.0000000E+00
  -2.500000      0.0000000E+00
  -2.490000      0.0000000E+00
  -2.480000      0.0000000E+00
  -2.470000      0.0000000E+00
  -2.460000      0.0000000E+00
  -2.450000      0.0000000E+00
  -2.440000      0.0000000E+00
  -2.430000      0.0000000E+00
  -2.420000      0.0000000E+00
  -2.410000      0.0000000E+00
  -2.400000      0.0000000E+00
  -2.390000      0.0000000E+00
  -2.380000      0.0000000E+00
  -2.370000      0.0000000E+00
  -2.360000      0.0000000E+00
  -2.350000      0.0000000E+00
  -2.340000      0.0000000E+00
  -2.330000      0.0000000E+00
  -2.320000      0.0000000E+00
  -2.310000      0.0000000E+00
  -2.300000      0.0000000E+00
  -2.290000      0.0000000E+00
  -2.280000      0.0000000E+00
  -2.270000      0.0000000E+00
  -2.260000      0.0000000E+00
  -2.250000      0.0000000E+00
  -2.240000      0.0000000E+00
  -2.230000      0.0000000E+00
  -2.220000      0.0000000E+00
  -2.210000      0.0000000E+00
  -2.200000      0.0000000E+00
  -2.190000      0.0000000E+00
  -2.180000      0.0000000E+00
  -2.170000      0.0000000E+00
  -2.160000      0.0000000E+00
  -2.150000      0.0000000E+00
  -2.140000      0.0000000E+00
  -2.130000      0.0000000E+00
  -2.120000      0.0000000E+00
  -2.110000      0.0000000E+00
  -2.100000      0.0000000E+00
  -2.090000      0.0000000E+00
  -2.080000      0.0000000E+00
  -2.070000      0.0000000E+00
  -2.060000      0.0000000E+00
  -2.050000      0.0000000E+00
  -2.040000      0.0000000E+00
  -2.030000      0.0000000E+00
  -2.020000      0.0000000E+00
  -2.010000      0.0000000E+00
  -2.000000      0.0000000E+00
  -1.990000      0.0000000E+00
  -1.980000      0.0000000E+00
  -1.970000      0.0000000E+00
  -1.960000      0.0000000E+00
  -1.950000      0.0000000E+00
  -1.940000      0.0000000E+00
  -1.930000      0.0000000E+00
  -1.920000      0.0000000E+00
  -1.910000      0.0000000E+00
  -1.900000      0.0000000E+00
  -1.890000      0.0000000E+00
  -1.880000      0.0000000E+00
  -1.870000      0.0000000E+00
  -1.860000      0.0000000E+00
  -1.850000      0.0000000E+00
  -1.840000      0.0000000E+00
  -1.830000      0.0000000E+00
  -1.820000      0.0000000E+00
  -1.810000      0.0000000E+00
  -1.800000      0.0000000E+00
  -1.790000      0.0000000E+00
  -1.780000      0.0000000E+00
  -1.770000      0.0000000E+00
  -1.760000      0.0000000E+00
  -1.750000      0.0000000E+00
  -1.740000      0.0000000E+00
  -1.730000      0.0000000E+00
  -1.720000      0.0000000E+00
  -1.710000      0.0000000E+00
  -1.700000      0.0000000E+00
  -1.690000      0.0000000E+00
  -1.680000      0.0000000E+00
  -1.670000      0.0000000E+00
  -1.660000      0.0000000E+00
  -1.650000      0.0000000E+00
  -1.640000      0.0000000E+00
  -1.630000      0.0000000E+00
  -1.620000      0.0000000E+00
  -1.610000      0.0000000E+00
  -1.600000      0.0000000E+00
  -1.590000      0.0000000E+00
  -1.580000      0.0000000E+00
  -1.570000      0.0000000E+00
  -1.560000      0.0000000E+00
  -1.550000      0.0000000E+00
  -1.540000      0.0000000E+00
  -1.530000      0.0000000E+00
  -1.520000      0.0000000E+00
  -1.510000      0.0000000E+00
  -1.500000      0.0000000E+00
  -1.490000      0.0000000E+00
  -1.480000      0.0000000E+00
  -1.470000      0.0000000E+00
  -1.460000      0.0000000E+00
  -1.450000      0.0000000E+00
  -1.440000      0.0000000E+00
  -1.430000      0.0000000E+00
  -1.420000      0.0000000E+00
  -1.410000      0.0000000E+00
  -1.400000      0.0000000E+00
  -1.390000      0.0000000E+00
  -1.380000      0.0000000E+00
  -1.370000      0.0000000E+00
  -1.360000      0.0000000E+00
  -1.350000      0.0000000E+00
  -1.340000      0.0000000E+00
  -1.330000      0.0000000E+00
  -1.320000      0.0000000E+00
  -1.310000      0.0000000E+00
  -1.300000      0.0000000E+00
  -1.290000      0.0000000E+00
  -1.280000      0.0000000E+00
  -1.270000      0.0000000E+00
  -1.260000      0.0000000E+00
  -1.250000      0.0000000E+00
  -1.240000      0.0000000E+00
  -1.230000      0.0000000E+00
  -1.220000      0.0000000E+00
  -1.210000      0.0000000E+00
  -1.200000      0.0000000E+00
  -1.190000      0.0000000E+00
  -1.180000      0.0000000E+00
  -1.170000      0.0000000E+00
  -1.160000      0.0000000E+00
  -1.150000      0.0000000E+00
  -1.140000      0.0000000E+00
  -1.130000      0.0000000E+00
  -1.120000      0.0000000E+00
  -1.110000      0.0000000E+00
  -1.100000      0.0000000E+00
  -1.090000      0.0000000E+00
  -1.080000      0.0000000E+00
  -1.070000      0.0000000E+00
  -1.060000      0.0000000E+00
  -1.050000      0.0000000E+00
  -1.040000      0.0000000E+00
  -1.030000      0.0000000E+00
  -1.020000      0.0000000E+00
  -1.010000      0.0000000E+00
  -1.000000      0.0000000E+00
 -0.9900000      0.0000000E+00
 -0.9800000      0.0000000E+00
 -0.9700000      0.0000000E+00
 -0.9600000      0.0000000E+00
 -0.9500000      0.0000000E+00
 -0.9400000      0.0000000E+00
 -0.9300000      0.0000000E+00
 -0.9200000      0.0000000E+00
 -0.9100000      0.0000000E+00
 -0.9000000      0.0000000E+00
 -0.8900000      0.0000000E+00
 -0.8800000      0.0000000E+00
 -0.8700000      0.0000000E+00
 -0.8600000      0.0000000E+00
 -0.8500000      0.0000000E+00
 -0.8400000      0.0000000E+00
 -0.8300000      0.0000000E+00
 -0.8200000      0.0000000E+00
 -0.8100000      0.0000000E+00
 -0.8000000      0.0000000E+00
 -0.7900000      0.0000000E+00
 -0.7800000      0.0000000E+00
 -0.7700000      0.0000000E+00
 -0.7600000      0.0000000E+00
 -0.7500000      0.0000000E+00
 -0.7400000      0.0000000E+00
 -0.7300000      0.0000000E+00
 -0.7200000      0.0000000E+00
 -0.7100000      0.0000000E+00
 -0.7000000      0.0000000E+00
 -0.6900000      0.0000000E+00
 -0.6800000      0.0000000E+00
 -0.6700000      0.0000000E+00
 -0.6600000      0.0000000E+00
 -0.6500000      0.0000000E+00
 -0.6400000      0.0000000E+00
 -0.6300000      0.0000000E+00
 -0.6200000      0.0000000E+00
 -0.6100000      0.0000000E+00
 -0.6000000      0.0000000E+00
 -0.5900000      0.0000000E+00
 -0.5800000      0.0000000E+00
 -0.5700000      0.0000000E+00
 -0.5600000      0.0000000E+00
 -0.5500000      0.0000000E+00
 -0.5400000      0.0000000E+00
 -0.5300000      0.0000000E+00
 -0.5200000      0.0000000E+00
 -0.5100000      0.0000000E+00
 -0.5000000      0.0000000E+00
 -0.4900000      0.0000000E+00
 -0.4800000      0.0000000E+00
 -0.4700000      0.0000000E+00
 -0.4600000      0.0000000E+00
 -0.4500000      0.0000000E+00
 -0.4400000      0.0000000E+00
 -0.4300000      0.0000000E+00
 -0.4200000      0.0000000E+00
 -0.4100000      0.0000000E+00
 -0.4000000      0.0000000E+00
 -0.3900000      0.0000000E+00
 -0.3800000      0.0000000E+00
 -0.3700000      0.0000000E+00
 -0.3600000      0.0000000E+00
 -0.3500000      0.0000000E+00
 -0.3400000      0.0000000E+00
 -0.3300000      0.0000000E+00
 -0.3200000      0.0000000E+00
 -0.3100000      0.0000000E+00
 -0.3000000      0.0000000E+00
 -0.2900000      0.0000000E+00
 -0.2800000      0.0000000E+00
 -0.2700000      0.0000000E+00
 -0.2600000      0.0000000E+00
 -0.2500000      0.0000000E+00
 -0.2400000      0.0000000E+00
 -0.2300000      0.0000000E+00
 -0.2200000      0.0000000E+00
 -0.2100000      0.0000000E+00
 -0.2000000      0.0000000E+00
 -0.1900000      0.0000000E+00
 -0.1800000      0.0000000E+00
 -0.1700000      0.0000000E+00
 -0.1600000      0.0000000E+00
 -0.1500000      0.0000000E+00
 -0.1400000      0.0000000E+00
 -0.1300000      0.0000000E+00
 -0.1200000      0.0000000E+00
 -0.1100000      0.0000000E+00
 -0.1000000      0.0000000E+00
 -9.0000004E-02  0.0000000E+00
 -7.9999998E-02  0.0000000E+00
 -7.0000000E-02  0.0000000E+00
 -5.9999999E-02  0.0000000E+00
 -5.0000001E-02  0.0000000E+00
 -3.9999999E-02  0.0000000E+00
 -2.9999999E-02  0.0000000E+00
 -2.0000000E-02  0.0000000E+00
 -9.9999998E-03  0.0000000E+00
 -3.4694470E-17  0.0000000E+00
  9.9999998E-03  0.0000000E+00
  2.0000000E-02  0.0000000E+00
  2.9999999E-02  0.0000000E+00
  3.9999999E-02  0.0000000E+00
  5.0000001E-02  0.0000000E+00
  5.9999999E-02  0.0000000E+00
  7.0000000E-02  0.0000000E+00
  7.9999998E-02  0.0000000E+00
  9.0000004E-02  0.0000000E+00
  0.1000000      0.0000000E+00
  0.1100000      0.0000000E+00
  0.1200000      0.0000000E+00
  0.1300000      0.0000000E+00
  0.1400000      0.0000000E+00
  0.1500000      0.0000000E+00
  0.1600000      0.0000000E+00
  0.1700000      0.0000000E+00
  0.1800000      0.0000000E+00
  0.1900000      0.0000000E+00
  0.2000000      0.0000000E+00
  0.2100000      0.0000000E+00
  0.2200000      0.0000000E+00
  0.2300000      0.0000000E+00
  0.2400000      0.0000000E+00
  0.2500000      0.0000000E+00
  0.2600000      0.0000000E+00
  0.2700000      0.0000000E+00
  0.2800000      0.0000000E+00
  0.2900000      0.0000000E+00
  0.3000000      0.0000000E+00
  0.3100000      0.0000000E+00
  0.3200000      0.0000000E+00
  0.3300000      0.0000000E+00
  0.3400000      0.0000000E+00
  0.3500000      0.0000000E+00
  0.3600000      0.0000000E+00
  0.3700000      0.0000000E+00
  0.3800000      0.0000000E+00
  0.3900000      0.0000000E+00
  0.4000000      0.0000000E+00
  0.4100000      0.0000000E+00
  0.4200000      0.0000000E+00
  0.4300000      0.0000000E+00
  0.4400000      0.0000000E+00
  0.4500000      0.0000000E+00
  0.4600000      0.0000000E+00
  0.4700000      0.0000000E+00
  0.4800000      0.0000000E+00
  0.4900000      0.0000000E+00
  0.5000000      0.0000000E+00
  0.5100000      0.0000000E+00
  0.5200000      0.0000000E+00
  0.5300000      0.0000000E+00
  0.5400000      0.0000000E+00
  0.5500000      0.0000000E+00
  0.5600000      0.0000000E+00
  0.5700000      0.0000000E+00
  0.5800000      0.0000000E+00
  0.5900000      0.0000000E+00
  0.6000000      0.0000000E+00
  0.6100000      0.0000000E+00
  0.6200000      0.0000000E+00
  0.6300000      0.0000000E+00
  0.6400000      0.0000000E+00
  0.6500000      0.0000000E+00
  0.6600000      0.0000000E+00
  0.6700000      0.0000000E+00
  0.6800000      0.0000000E+00
  0.6900000      0.0000000E+00
  0.7000000      0.0000000E+00
  0.7100000      0.0000000E+00
  0.7200000      0.0000000E+00
  0.7300000      0.0000000E+00
  0.7400000      0.0000000E+00
  0.7500000      0.0000000E+00
  0.7600000      0.0000000E+00
  0.7700000      0.0000000E+00
  0.7800000      0.0000000E+00
  0.7900000      0.0000000E+00
  0.8000000      0.0000000E+00
  0.8100000      0.0000000E+00
  0.8200000      0.0000000E+00
  0.8300000      0.0000000E+00
  0.8400000      0.0000000E+00
  0.8500000      0.0000000E+00
  0.8600000      0.0000000E+00
  0.8700000      0.0000000E+00
  0.8800000      0.0000000E+00
  0.8900000      0.0000000E+00
  0.9000000      0.0000000E+00
  0.9100000      0.0000000E+00
  0.9200000      0.0000000E+00
  0.9300000      0.0000000E+00
  0.9400000      0.0000000E+00
  0.9500000      0.0000000E+00
  0.9600000      0.0000000E+00
  0.9700000      0.0000000E+00
  0.9800000      0.0000000E+00
  0.9900000      0.0000000E+00
   1.000000      0.0000000E+00
   1.010000      0.0000000E+00
   1.020000      0.0000000E+00
   1.030000      0.0000000E+00
   1.040000      0.0000000E+00
   1.050000      0.0000000E+00
   1.060000      0.0000000E+00
   1.070000      0.0000000E+00
   1.080000      0.0000000E+00
   1.090000      0.0000000E+00
   1.100000      0.0000000E+00
   1.110000      0.0000000E+00
   1.120000      0.0000000E+00
   1.130000      0.0000000E+00
   1.140000      0.0000000E+00
   1.150000      0.0000000E+00
   1.160000      0.0000000E+00
   1.170000      0.0000000E+00
   1.180000      0.0000000E+00
   1.190000      0.0000000E+00
   1.200000      0.0000000E+00
   1.210000      0.0000000E+00
   1.220000      0.0000000E+00
   1.230000      0.0000000E+00
   1.240000      0.0000000E+00
   1.250000      0.0000000E+00
   1.260000      0.0000000E+00
   1.270000      0.0000000E+00
   1.280000      0.0000000E+00
   1.290000      0.0000000E+00
   1.300000      0.0000000E+00
   1.310000      0.0000000E+00
   1.320000      0.0000000E+00
   1.330000      0.0000000E+00
   1.340000      0.0000000E+00
   1.350000      0.0000000E+00
   1.360000      0.0000000E+00
   1.370000      0.0000000E+00
   1.380000      0.0000000E+00
   1.390000      0.0000000E+00
   1.400000      0.0000000E+00
   1.410000      0.0000000E+00
   1.420000      0.0000000E+00
   1.430000      0.0000000E+00
   1.440000      0.0000000E+00
   1.450000      0.0000000E+00
   1.460000      0.0000000E+00
   1.470000      0.0000000E+00
   1.480000      0.0000000E+00
   1.490000      0.0000000E+00
   1.500000      0.0000000E+00
   1.510000      0.0000000E+00
   1.520000      0.0000000E+00
   1.530000      0.0000000E+00
   1.540000      0.0000000E+00
   1.550000      0.0000000E+00
   1.560000      0.0000000E+00
   1.570000      0.0000000E+00
   1.580000      0.0000000E+00
   1.590000      0.0000000E+00
   1.600000      0.0000000E+00
   1.610000      0.0000000E+00
   1.620000      0.0000000E+00
   1.630000      0.0000000E+00
   1.640000      0.0000000E+00
   1.650000      0.0000000E+00
   1.660000      0.0000000E+00
   1.670000      0.0000000E+00
   1.680000      0.0000000E+00
   1.690000      0.0000000E+00
   1.700000      0.0000000E+00
   1.710000      0.0000000E+00
   1.720000      0.0000000E+00
   1.730000      0.0000000E+00
   1.740000      0.0000000E+00
   1.750000      0.0000000E+00
   1.760000      0.0000000E+00
   1.770000      0.0000000E+00
   1.780000      0.0000000E+00
   1.790000      0.0000000E+00
   1.800000      0.0000000E+00
   1.810000      0.0000000E+00
   1.820000      0.0000000E+00
   1.830000      0.0000000E+00
   1.840000      0.0000000E+00
   1.850000      0.0000000E+00
   1.860000      0.0000000E+00
   1.870000      0.0000000E+00
   1.880000      0.0000000E+00
   1.890000      0.0000000E+00
   1.900000      0.0000000E+00
   1.910000      0.0000000E+00
   1.920000      0.0000000E+00
   1.930000      0.0000000E+00
   1.940000      0.0000000E+00
   1.950000      0.0000000E+00
   1.960000      0.0000000E+00
   1.970000      0.0000000E+00
   1.980000      0.0000000E+00
   1.990000      0.0000000E+00
   2.000000      0.0000000E+00
   2.010000      0.0000000E+00
   2.020000      0.0000000E+00
   2.030000      0.0000000E+00
   2.040000      0.0000000E+00
   2.050000      0.0000000E+00
   2.060000      0.0000000E+00
   2.070000      0.0000000E+00
   2.080000      0.0000000E+00
   2.090000      0.0000000E+00
   2.100000      0.0000000E+00
   2.110000      0.0000000E+00
   2.120000      0.0000000E+00
   2.130000      0.0000000E+00
   2.140000      0.0000000E+00
   2.150000      0.0000000E+00
   2.160000      0.0000000E+00
   2.170000      0.0000000E+00
   2.180000      0.0000000E+00
   2.190000      0.0000000E+00
   2.200000      0.0000000E+00
   2.210000      0.0000000E+00
   2.220000      0.0000000E+00
   2.230000      0.0000000E+00
   2.240000      0.0000000E+00
   2.250000      0.0000000E+00
   2.260000      0.0000000E+00
   2.270000      0.0000000E+00
   2.280000      0.0000000E+00
   2.290000      1.2208387E-38
   2.300000      1.3620096E-38
   2.310000      1.5070986E-38
   2.320000      1.6688212E-38
   2.330000      1.9171977E-38
   2.340000      2.2402350E-38
   2.350000      2.5923867E-38
   2.360000      2.9322193E-38
   2.370000      3.1422549E-38
   2.380000      3.1651182E-38
   2.390000      3.1058559E-38
   2.400000      3.0529344E-38
   2.410000      3.0004634E-38
   2.420000      2.9373236E-38
   2.430000      2.8536308E-38
   2.440000      2.7661999E-38
   2.450000      2.3030225E-38
   2.460000      1.5048778E-38
   2.470000      0.0000000E+00
   2.480000      0.0000000E+00
   2.490000     -1.2355904E-38
   2.500000     -2.2462454E-38
   2.510000     -2.5437645E-38
   2.520000     -2.1466715E-38
   2.530000     -1.8040940E-38
   2.540000     -1.4557490E-38
   2.550000      0.0000000E+00
   2.560000      0.0000000E+00
   2.570000      1.9734930E-38
   2.580000      3.2645378E-38
   2.590000      4.6629941E-38
   2.600000      6.2645564E-38
   2.610000      8.0898132E-38
   2.620000      1.0098118E-37
   2.630000      1.2378702E-37
   2.640000      1.4283433E-37
   2.650000      1.5133992E-37
   2.660000      1.5523483E-37
   2.670000      1.5882565E-37
   2.680000      1.5200776E-37
   2.690000      1.3801248E-37
   2.700000      1.2650618E-37
   2.710000      1.1561821E-37
   2.720000      1.0602942E-37
   2.730000      9.6003160E-38
   2.740000      7.9250777E-38
   2.750000      5.6270283E-38
   2.760000      3.3759598E-38
   2.770000      0.0000000E+00
   2.780000     -2.3817635E-38
   2.790000     -4.1580959E-38
   2.800000     -4.3828684E-38
   2.810000     -3.9890343E-38
   2.820000     -3.0873265E-38
   2.830000     -2.3475030E-38
   2.840000      2.7197729E-38
   2.850000      1.4813316E-37
   2.860000      3.0109595E-37
   2.870000      4.5099179E-37
   2.880000      5.9950015E-37
   2.890000      7.6561468E-37
   2.900000      9.3811430E-37
   2.910000      1.1436577E-36
   2.920000      1.3917564E-36
   2.930000      1.6552286E-36
   2.940000      1.9253007E-36
   2.950000      2.1895769E-36
   2.960000      2.3325265E-36
   2.970000      2.3544747E-36
   2.980000      2.3922336E-36
   2.990000      2.4388130E-36
   3.000000      2.4298955E-36
   3.010000      2.3826841E-36
   3.020000      2.5153724E-36
   3.030000      2.8541141E-36
   3.040000      3.2153146E-36
   3.050000      3.5465943E-36
   3.060000      3.8807252E-36
   3.070000      4.2457473E-36
   3.080000      4.5801698E-36
   3.090000      5.0950190E-36
   3.100000      5.8756042E-36
   3.110000      6.7509400E-36
   3.120000      7.7111475E-36
   3.130000      8.7323511E-36
   3.140000      9.8258700E-36
   3.150000      1.1039053E-35
   3.160000      1.2303860E-35
   3.170000      1.3394219E-35
   3.180000      1.4310609E-35
   3.190000      1.5002892E-35
   3.200000      1.5405363E-35
   3.210000      1.5560703E-35
   3.220000      1.5477693E-35
   3.230000      1.5427571E-35
   3.240000      1.5463588E-35
   3.250000      1.5465438E-35
   3.260000      1.5564768E-35
   3.270000      1.5809257E-35
   3.280000      1.6112726E-35
   3.290000      1.6407875E-35
   3.300000      1.6418120E-35
   3.310000      1.6064996E-35
   3.320000      1.5547902E-35
   3.330000      1.4969778E-35
   3.340000      1.4249147E-35
   3.350000      1.3346256E-35
   3.360000      1.2033723E-35
   3.370000      1.0223638E-35
   3.380000      8.1214154E-36
   3.390000      5.8152783E-36
   3.400000      3.3616061E-36
   3.410000      6.9115704E-37
   3.420000     -2.3175864E-36
   3.430000     -5.6174108E-36
   3.440000     -9.1902464E-36
   3.450000     -1.3226798E-35
   3.460000     -1.7013414E-35
   3.470000     -2.0406045E-35
   3.480000     -2.3955624E-35
   3.490000     -2.7800510E-35
   3.500000     -3.2065319E-35
   3.510000     -3.7274171E-35
   3.520000     -4.3362994E-35
   3.530000     -4.9840519E-35
   3.540000     -5.6466794E-35
   3.550000     -6.3031522E-35
   3.560000     -6.9856691E-35
   3.570000     -7.6950173E-35
   3.580000     -8.4133770E-35
   3.590000     -9.0822350E-35
   3.600000     -9.6873408E-35
   3.610000     -1.0287052E-34
   3.620000     -1.0908821E-34
   3.630000     -1.1496160E-34
   3.640000     -1.2027345E-34
   3.650000     -1.2566098E-34
   3.660000     -1.3113739E-34
   3.670000     -1.3650257E-34
   3.680000     -1.4183133E-34
   3.690000     -1.4713365E-34
   3.700000     -1.5157071E-34
   3.710000     -1.5484592E-34
   3.720000     -1.5744620E-34
   3.730000     -1.5881363E-34
   3.740000     -1.5900224E-34
   3.750000     -1.5820522E-34
   3.760000     -1.5591619E-34
   3.770000     -1.5207112E-34
   3.780000     -1.4658336E-34
   3.790000     -1.3890405E-34
   3.800000     -1.2661765E-34
   3.810000     -1.0988245E-34
   3.820000     -9.3696588E-35
   3.830000     -7.8645216E-35
   3.840000     -6.1909155E-35
   3.850000     -4.3267686E-35
   3.860000     -2.3644179E-35
   3.870000     -2.3312912E-36
   3.880000      2.2227112E-35
   3.890000      5.0437857E-35
   3.900000      8.1997062E-35
   3.910000      1.1580697E-34
   3.920000      1.5247926E-34
   3.930000      1.9203342E-34
   3.940000      2.3412264E-34
   3.950000      2.8136764E-34
   3.960000      3.3463700E-34
   3.970000      3.8985045E-34
   3.980000      4.4427781E-34
   3.990000      4.9913634E-34
   4.000000      5.5398776E-34
   4.010000      6.0921331E-34
   4.020000      6.6040425E-34
   4.030000      7.0782516E-34
   4.040000      7.5102164E-34
   4.050000      7.8531251E-34
   4.060000      8.1715877E-34
   4.070000      8.4913680E-34
   4.080000      8.8144765E-34
   4.090000      9.1491618E-34
   4.100000      9.4943384E-34
   4.110000      9.8211524E-34
   4.120000      1.0076328E-33
   4.130000      1.0268128E-33
   4.140000      1.0419851E-33
   4.150000      1.0523173E-33
   4.160000      1.0560469E-33
   4.170000      1.0520476E-33
   4.180000      1.0410678E-33
   4.190000      1.0206097E-33
   4.200000      9.8851388E-34
   4.210000      9.4547417E-34
   4.220000      8.9080679E-34
   4.230000      8.2650119E-34
   4.240000      7.5096489E-34
   4.250000      6.6177517E-34
   4.260000      5.5904624E-34
   4.270000      4.3894323E-34
   4.280000      3.0130333E-34
   4.290000      1.4422845E-34
   4.300000     -3.2646948E-35
   4.310000     -2.2490212E-34
   4.320000     -4.3284090E-34
   4.330000     -6.6106629E-34
   4.340000     -9.1048337E-34
   4.350000     -1.1771294E-33
   4.360000     -1.4606395E-33
   4.370000     -1.7620166E-33
   4.380000     -2.0816587E-33
   4.390000     -2.4179825E-33
   4.400000     -2.7678320E-33
   4.410000     -3.1318964E-33
   4.420000     -3.5128455E-33
   4.430000     -3.9082597E-33
   4.440000     -4.3145697E-33
   4.450000     -4.7301037E-33
   4.460000     -5.1530363E-33
   4.470000     -5.5811836E-33
   4.480000     -6.0123505E-33
   4.490000     -6.4444707E-33
   4.500000     -6.8733131E-33
   4.510000     -7.2964316E-33
   4.520000     -7.7117881E-33
   4.530000     -8.1139159E-33
   4.540000     -8.5002267E-33
   4.550000     -8.8674070E-33
   4.560000     -9.2108453E-33
   4.570000     -9.5279202E-33
   4.580000     -9.8156151E-33
   4.590000     -1.0071071E-32
   4.600000     -1.0285418E-32
   4.610000     -1.0450636E-32
   4.620000     -1.0561016E-32
   4.630000     -1.0609774E-32
   4.640000     -1.0592786E-32
   4.650000     -1.0503969E-32
   4.660000     -1.0336811E-32
   4.670000     -1.0084778E-32
   4.680000     -9.7410219E-33
   4.690000     -9.2988597E-33
   4.700000     -8.7521314E-33
   4.710000     -8.0938002E-33
   4.720000     -7.3180026E-33
   4.730000     -6.4190426E-33
   4.740000     -5.3901959E-33
   4.750000     -4.2261847E-33
   4.760000     -2.9215586E-33
   4.770000     -1.4709655E-33
   4.780000      1.2993628E-34
   4.790000      1.8849713E-33
   4.800000      3.7976443E-33
   4.810000      5.8705657E-33
   4.820000      8.1044752E-33
   4.830000      1.0501000E-32
   4.840000      1.3060666E-32
   4.850000      1.5781473E-32
   4.860000      1.8661114E-32
   4.870000      2.1696251E-32
   4.880000      2.4881624E-32
   4.890000      2.8210692E-32
   4.900000      3.1676082E-32
   4.910000      3.5268386E-32
   4.920000      3.8976157E-32
   4.930000      4.2787119E-32
   4.940000      4.6687171E-32
   4.950000      5.0659504E-32
   4.960000      5.4685737E-32
   4.970000      5.8745377E-32
   4.980000      6.2815838E-32
   4.990000      6.6872199E-32
   5.000000      7.0887305E-32
   5.010000      7.4831624E-32
   5.020000      7.8672205E-32
   5.030000      8.2375794E-32
   5.040000      8.5905686E-32
   5.050000      8.9224512E-32
   5.060000      9.2288990E-32
   5.070000      9.5051566E-32
   5.080000      9.7467225E-32
   5.090000      9.9486965E-32
   5.100000      1.0105957E-31
   5.110000      1.0213083E-31
   5.120000      1.0264466E-31
   5.130000      1.0254298E-31
   5.140000      1.0176587E-31
   5.150000      1.0025173E-31
   5.160000      9.7937434E-32
   5.170000      9.4758621E-32
   5.180000      9.0649775E-32
   5.190000      8.5545014E-32
   5.200000      7.9378118E-32
   5.210000      7.2082448E-32
   5.220000      6.3591829E-32
   5.230000      5.3840868E-32
   5.240000      4.2765622E-32
   5.250000      3.0303804E-32
   5.260000      1.6395144E-32
   5.270000      9.8229212E-34
   5.280000     -1.5988746E-32
   5.290000     -3.4567992E-32
   5.300000     -5.4800859E-32
   5.310000     -7.6727467E-32
   5.320000     -1.0038197E-31
   5.330000     -1.2579186E-31
   5.340000     -1.5297710E-31
   5.350000     -1.8194939E-31
   5.360000     -2.1271139E-31
   5.370000     -2.4525585E-31
   5.380000     -2.7956469E-31
   5.390000     -3.1560829E-31
   5.400000     -3.5334422E-31
   5.410000     -3.9271672E-31
   5.420000     -4.3365543E-31
   5.430000     -4.7607460E-31
   5.440000     -5.1987187E-31
   5.450000     -5.6492777E-31
   5.460000     -6.1110420E-31
   5.470000     -6.5824383E-31
   5.480000     -7.0616892E-31
   5.490000     -7.5468082E-31
   5.500000     -8.0355853E-31
   5.510000     -8.5255803E-31
   5.520000     -9.0141167E-31
   5.530000     -9.4982727E-31
   5.540000     -9.9748755E-31
   5.550000     -1.0440492E-30
   5.560000     -1.0891423E-30
   5.570000     -1.1323704E-30
   5.580000     -1.1733096E-30
   5.590000     -1.2115086E-30
   5.600000     -1.2464883E-30
   5.610000     -1.2777419E-30
   5.620000     -1.3047351E-30
   5.630000     -1.3269062E-30
   5.640000     -1.3436668E-30
   5.650000     -1.3544022E-30
   5.660000     -1.3584726E-30
   5.670000     -1.3552130E-30
   5.680000     -1.3439363E-30
   5.690000     -1.3239327E-30
   5.700000     -1.2944728E-30
   5.710000     -1.2548089E-30
   5.720000     -1.2041774E-30
   5.730000     -1.1418010E-30
   5.740000     -1.0668916E-30
   5.750000     -9.7865312E-31
   5.760000     -8.7628487E-31
   5.770000     -7.5898501E-31
   5.780000     -6.2595460E-31
   5.790000     -4.7640176E-31
   5.800000     -3.0954629E-31
   5.810000     -1.2462407E-31
   5.820000      7.9106926E-32
   5.830000      3.0236164E-31
   5.840000      5.4582162E-31
   5.850000      8.1012889E-31
   5.860000      1.0958792E-30
   5.870000      1.4036150E-30
   5.880000      1.7338179E-30
   5.890000      2.0869014E-30
   5.900000      2.4632016E-30
   5.910000      2.8629703E-30
   5.920000      3.2863651E-30
   5.930000      3.7334408E-30
   5.940000      4.2041392E-30
   5.950000      4.6982801E-30
   5.960000      5.2155518E-30
   5.970000      5.7555010E-30
   5.980000      6.3175204E-30
   5.990000      6.9008410E-30
   6.000000      7.5045192E-30
   6.010000      8.1274266E-30
   6.020000      8.7682392E-30
   6.030000      9.4254274E-30
   6.040000      1.0097245E-29
   6.050000      1.0781716E-29
   6.060000      1.1476627E-29
   6.070000      1.2179516E-29
   6.080000      1.2887663E-29
   6.090000      1.3598077E-29
   6.100000      1.4307491E-29
   6.110000      1.5012352E-29
   6.120000      1.5708805E-29
   6.130000      1.6392703E-29
   6.140000      1.7059582E-29
   6.150000      1.7704665E-29
   6.160000      1.8322852E-29
   6.170000      1.8908720E-29
   6.180000      1.9456518E-29
   6.190000      1.9960162E-29
   6.200000      2.0413241E-29
   6.210000      2.0809014E-29
   6.220000      2.1140409E-29
   6.230000      2.1400038E-29
   6.240000      2.1580188E-29
   6.250000      2.1672845E-29
   6.260000      2.1669690E-29
   6.270000      2.1562117E-29
   6.280000      2.1341252E-29
   6.290000      2.0997963E-29
   6.300000      2.0522880E-29
   6.310000      1.9906422E-29
   6.320000      1.9138822E-29
   6.330000      1.8210143E-29
   6.340000      1.7110326E-29
   6.350000      1.5829214E-29
   6.360000      1.4356590E-29
   6.370000      1.2682220E-29
   6.380000      1.0795899E-29
   6.390000      8.6874953E-30
   6.400000      6.3470022E-30
   6.410000      3.7645953E-30
   6.420000      9.3069361E-31
   6.430000     -2.1639849E-30
   6.440000     -5.5283518E-30
   6.450000     -9.1708759E-30
   6.460000     -1.3099507E-29
   6.470000     -1.7321611E-29
   6.480000     -2.1843872E-29
   6.490000     -2.6672213E-29
   6.500000     -3.1811710E-29
   6.510000     -3.7266486E-29
   6.520000     -4.3039626E-29
   6.530000     -4.9133070E-29
   6.540000     -5.5547521E-29
   6.550000     -6.2282317E-29
   6.560000     -6.9335338E-29
   6.570000     -7.6702892E-29
   6.580000     -8.4379589E-29
   6.590000     -9.2358223E-29
   6.600000     -1.0062968E-28
   6.610000     -1.0918279E-28
   6.620000     -1.1800421E-28
   6.630000     -1.2707830E-28
   6.640000     -1.3638703E-28
   6.650000     -1.4590980E-28
   6.660000     -1.5562338E-28
   6.670000     -1.6550176E-28
   6.680000     -1.7551599E-28
   6.690000     -1.8563416E-28
   6.700000     -1.9582120E-28
   6.710000     -2.0603883E-28
   6.720000     -2.1624541E-28
   6.730000     -2.2639588E-28
   6.740000     -2.3644170E-28
   6.750000     -2.4633065E-28
   6.760000     -2.5600686E-28
   6.770000     -2.6541077E-28
   6.780000     -2.7447891E-28
   6.790000     -2.8314403E-28
   6.800000     -2.9133504E-28
   6.810000     -2.9897691E-28
   6.820000     -3.0599074E-28
   6.830000     -3.1229373E-28
   6.840000     -3.1779924E-28
   6.850000     -3.2241685E-28
   6.860000     -3.2605243E-28
   6.870000     -3.2860814E-28
   6.880000     -3.2998267E-28
   6.890000     -3.3007131E-28
   6.900000     -3.2876614E-28
   6.910000     -3.2595616E-28
   6.920000     -3.2152755E-28
   6.930000     -3.1536390E-28
   6.940000     -3.0734654E-28
   6.950000     -2.9735470E-28
   6.960000     -2.8526600E-28
   6.970000     -2.7095670E-28
   6.980000     -2.5430217E-28
   6.990000     -2.3517735E-28
   7.000000     -2.1345710E-28
   7.010000     -1.8901687E-28
   7.020000     -1.6173316E-28
   7.030000     -1.3148416E-28
   7.040000     -9.8150301E-29
   7.050000     -6.1614917E-29
   7.060000     -2.1765104E-29