  -2.600000      0.0000000E+00
  -2.590000      0.0000000E+00
  -2.580000      0.0000000E+00
  -2.570000      0.0000000E+00
  -2.560000      0.0000000E+00
  -2.550000      0.0000000E+00
  -2.540000      0.0000000E+00
  -2.530000      0.0000000E+00
  -2.520000      0.0000000E+00
  -2.510000      0.0000000E+00
  -2.500000      0.0000000E+00
  -2.490000      0.0000000E+00
  -2.480000      0.0000000E+00
  -2.470000      0.0000000E+00
  -2.460000      0.0000000E+00
  -2.450000      0.0000000E+00
  -2.440000      0.0000000E+00
  -2.430000      0.0000000E+00
  -2.420000      0.0000000E+00
  -2.410000      0.0000000E+00
  -2.400000      0.0000000E+00
  -2.390000      0.0000000E+00
  -2.380000      0.0000000E+00
  -2.370000      0.0000000E+00
  -2.360000      0.0000000E+00
  -2.350000      0.0000000E+00
  -2.340000      0.0000000E+00
  -2.330000      0.0000000E+00
  -2.320000      0.0000000E+00
  -2.310000      0.0000000E+00
  -2.300000      0.0000000E+00
  -2.290000      0.0000000E+00
  -2.280000      0.0000000E+00
  -2.270000      0.0000000E+00
  -2.260000      0.0000000E+00
  -2.250000      0.0000000E+00
  -2.240000      0.0000000E+00
  -2.230000      0.0000000E+00
  -2.220000      0.0000000E+00
  -2.210000      0.0000000E+00
  -2.200000      0.0000000E+00
  -2.190000      0.0000000E+00
  -2.180000      0.0000000E+00
  -2.170000      0.0000000E+00
  -2.160000      0.0000000E+00
  -2.150000      0.0000000E+00
  -2.140000      0.0000000E+00
  -2.130000      0.0000000E+00
  -2.120000      0.0000000E+00
  -2.110000      0.0000000E+00
  -2.100000      0.0000000E+00
  -2.090000      0.0000000E+00
  -2.080000      0.0000000E+00
  -2.070000      0.0000000E+00
  -2.060000      0.0000000E+00
  -2.050000      0.0000000E+00
  -2.040000      0.0000000E+00
  -2.030000      0.0000000E+00
  -2.020000      0.0000000E+00
  -2.010000      0.0000000E+00
  -2.000000      0.0000000E+00
  -1.990000      0.0000000E+00
  -1.980000      0.0000000E+00
  -1.970000      0.0000000E+00
  -1.960000      0.0000000E+00
  -1.950000      0.0000000E+00
  -1.940000      0.0000000E+00
  -1.930000      0.0000000E+00
  -1.920000      0.0000000E+00
  -1.910000      0.0000000E+00
  -1.900000      0.0000000E+00
  -1.890000      0.0000000E+00
  -1.880000      0.0000000E+00
  -1.870000      0.0000000E+00
  -1.860000      0.0000000E+00
  -1.850000      0.0000000E+00
  -1.840000      0.0000000E+00
  -1.830000      0.0000000E+00
  -1.820000      0.0000000E+00
  -1.810000      0.0000000E+00
  -1.800000      0.0000000E+00
  -1.790000      0.0000000E+00
  -1.780000      0.0000000E+00
  -1.770000      0.0000000E+00
  -1.760000      0.0000000E+00
  -1.750000      0.0000000E+00
  -1.740000      0.0000000E+00
  -1.730000      0.0000000E+00
  -1.720000      0.0000000E+00
  -1.710000      0.0000000E+00
  -1.700000      0.0000000E+00
  -1.690000      0.0000000E+00
  -1.680000      0.0000000E+00
  -1.670000      0.0000000E+00
  -1.660000      0.0000000E+00
  -1.650000      0.0000000E+00
  -1.640000      0.0000000E+00
  -1.630000      0.0000000E+00
  -1.620000      0.0000000E+00
  -1.610000      0.0000000E+00
  -1.600000      0.0000000E+00
  -1.590000      0.0000000E+00
  -1.580000      0.0000000E+00
  -1.570000      0.0000000E+00
  -1.560000      0.0000000E+00
  -1.550000      0.0000000E+00
  -1.540000      0.0000000E+00
  -1.530000      0.0000000E+00
  -1.520000      0.0000000E+00
  -1.510000      0.0000000E+00
  -1.500000      0.0000000E+00
  -1.490000      0.0000000E+00
  -1.480000      0.0000000E+00
  -1.470000      0.0000000E+00
  -1.460000      0.0000000E+00
  -1.450000      0.0000000E+00
  -1.440000      0.0000000E+00
  -1.430000      0.0000000E+00
  -1.420000      0.0000000E+00
  -1.410000      0.0000000E+00
  -1.400000      0.0000000E+00
  -1.390000      0.0000000E+00
  -1.380000      0.0000000E+00
  -1.370000      0.0000000E+00
  -1.360000      0.0000000E+00
  -1.350000      0.0000000E+00
  -1.340000      0.0000000E+00
  -1.330000      0.0000000E+00
  -1.320000      0.0000000E+00
  -1.310000      0.0000000E+00
  -1.300000      0.0000000E+00
  -1.290000      0.0000000E+00
  -1.280000      0.0000000E+00
  -1.270000      0.0000000E+00
  -1.260000      0.0000000E+00
  -1.250000      0.0000000E+00
  -1.240000      0.0000000E+00
  -1.230000      0.0000000E+00
  -1.220000      0.0000000E+00
  -1.210000      0.0000000E+00
  -1.200000      0.0000000E+00
  -1.190000      0.0000000E+00
  -1.180000      0.0000000E+00
  -1.170000      0.0000000E+00
  -1.160000      0.0000000E+00
  -1.150000      0.0000000E+00
  -1.140000      0.0000000E+00
  -1.130000      0.0000000E+00
  -1.120000      0.0000000E+00
  -1.110000      0.0000000E+00
  -1.100000      0.0000000E+00
  -1.090000      0.0000000E+00
  -1.080000      0.0000000E+00
  -1.070000      0.0000000E+00
  -1.060000      0.0000000E+00
  -1.050000      0.0000000E+00
  -1.040000      0.0000000E+00
  -1.030000      0.0000000E+00
  -1.020000      0.0000000E+00
  -1.010000      0.0000000E+00
  -1.000000      0.0000000E+00
 -0.9900000      0.0000000E+00
 -0.9800000      0.0000000E+00
 -0.9700000      0.0000000E+00
 -0.9600000      0.0000000E+00
 -0.9500000      0.0000000E+00
 -0.9400000      0.0000000E+00
 -0.9300000      0.0000000E+00
 -0.9200000      0.0000000E+00
 -0.9100000      0.0000000E+00
 -0.9000000      0.0000000E+00
 -0.8900000      0.0000000E+00
 -0.8800000      0.0000000E+00
 -0.8700000      0.0000000E+00
 -0.8600000      0.0000000E+00
 -0.8500000      0.0000000E+00
 -0.8400000      0.0000000E+00
 -0.8300000      0.0000000E+00
 -0.8200000      0.0000000E+00
 -0.8100000      0.0000000E+00
 -0.8000000      0.0000000E+00
 -0.7900000      0.0000000E+00
 -0.7800000      0.0000000E+00
 -0.7700000      0.0000000E+00
 -0.7600000      0.0000000E+00
 -0.7500000      0.0000000E+00
 -0.7400000      0.0000000E+00
 -0.7300000      0.0000000E+00
 -0.7200000      0.0000000E+00
 -0.7100000      0.0000000E+00
 -0.7000000      0.0000000E+00
 -0.6900000      0.0000000E+00
 -0.6800000      0.0000000E+00
 -0.6700000      0.0000000E+00
 -0.6600000      0.0000000E+00
 -0.6500000      0.0000000E+00
 -0.6400000      0.0000000E+00
 -0.6300000      0.0000000E+00
 -0.6200000      0.0000000E+00
 -0.6100000      0.0000000E+00
 -0.6000000      0.0000000E+00
 -0.5900000      0.0000000E+00
 -0.5800000      0.0000000E+00
 -0.5700000      0.0000000E+00
 -0.5600000      0.0000000E+00
 -0.5500000      0.0000000E+00
 -0.5400000      0.0000000E+00
 -0.5300000      0.0000000E+00
 -0.5200000      0.0000000E+00
 -0.5100000      0.0000000E+00
 -0.5000000      0.0000000E+00
 -0.4900000      0.0000000E+00
 -0.4800000      0.0000000E+00
 -0.4700000      0.0000000E+00
 -0.4600000      0.0000000E+00
 -0.4500000      0.0000000E+00
 -0.4400000      0.0000000E+00
 -0.4300000      0.0000000E+00
 -0.4200000      0.0000000E+00
 -0.4100000      0.0000000E+00
 -0.4000000      0.0000000E+00
 -0.3900000      0.0000000E+00
 -0.3800000      0.0000000E+00
 -0.3700000      0.0000000E+00
 -0.3600000      0.0000000E+00
 -0.3500000      0.0000000E+00
 -0.3400000      0.0000000E+00
 -0.3300000      0.0000000E+00
 -0.3200000      0.0000000E+00
 -0.3100000      0.0000000E+00
 -0.3000000      0.0000000E+00
 -0.2900000      0.0000000E+00
 -0.2800000      0.0000000E+00
 -0.2700000      0.0000000E+00
 -0.2600000      0.0000000E+00
 -0.2500000      0.0000000E+00
 -0.2400000      0.0000000E+00
 -0.2300000      0.0000000E+00
 -0.2200000      0.0000000E+00
 -0.2100000      0.0000000E+00
 -0.2000000      0.0000000E+00
 -0.1900000      0.0000000E+00
 -0.1800000      0.0000000E+00
 -0.1700000      0.0000000E+00
 -0.1600000      0.0000000E+00
 -0.1500000      0.0000000E+00
 -0.1400000      0.0000000E+00
 -0.1300000      0.0000000E+00
 -0.1200000      0.0000000E+00
 -0.1100000      0.0000000E+00
 -0.1000000      0.0000000E+00
 -9.0000004E-02  0.0000000E+00
 -7.9999998E-02  0.0000000E+00
 -7.0000000E-02  0.0000000E+00
 -5.9999999E-02  0.0000000E+00
 -5.0000001E-02  0.0000000E+00
 -3.9999999E-02  0.0000000E+00
 -2.9999999E-02  0.0000000E+00
 -2.0000000E-02  0.0000000E+00
 -9.9999998E-03  0.0000000E+00
 -3.4694470E-17  0.0000000E+00
  9.9999998E-03  0.0000000E+00
  2.0000000E-02  0.0000000E+00
  2.9999999E-02  0.0000000E+00
  3.9999999E-02  0.0000000E+00
  5.0000001E-02  0.0000000E+00
  5.9999999E-02  0.0000000E+00
  7.0000000E-02  0.0000000E+00
  7.9999998E-02  0.0000000E+00
  9.0000004E-02  0.0000000E+00
  0.1000000      0.0000000E+00
  0.1100000      0.0000000E+00
  0.1200000      0.0000000E+00
  0.1300000      0.0000000E+00
  0.1400000      0.0000000E+00
  0.1500000      0.0000000E+00
  0.1600000      0.0000000E+00
  0.1700000      0.0000000E+00
  0.1800000      0.0000000E+00
  0.1900000      0.0000000E+00
  0.2000000      0.0000000E+00
  0.2100000      0.0000000E+00
  0.2200000      0.0000000E+00
  0.2300000      0.0000000E+00
  0.2400000      0.0000000E+00
  0.2500000      0.0000000E+00
  0.2600000      0.0000000E+00
  0.2700000      0.0000000E+00
  0.2800000      0.0000000E+00
  0.2900000      0.0000000E+00
  0.3000000      0.0000000E+00
  0.3100000      0.0000000E+00
  0.3200000      0.0000000E+00
  0.3300000      0.0000000E+00
  0.3400000      0.0000000E+00
  0.3500000      0.0000000E+00
  0.3600000      0.0000000E+00
  0.3700000      0.0000000E+00
  0.3800000      0.0000000E+00
  0.3900000      0.0000000E+00
  0.4000000      0.0000000E+00
  0.4100000      0.0000000E+00
  0.4200000      0.0000000E+00
  0.4300000      0.0000000E+00
  0.4400000      0.0000000E+00
  0.4500000      0.0000000E+00
  0.4600000      0.0000000E+00
  0.4700000      0.0000000E+00
  0.4800000      0.0000000E+00
  0.4900000      0.0000000E+00
  0.5000000      0.0000000E+00
  0.5100000      0.0000000E+00
  0.5200000      0.0000000E+00
  0.5300000      0.0000000E+00
  0.5400000      0.0000000E+00
  0.5500000      0.0000000E+00
  0.5600000      0.0000000E+00
  0.5700000      0.0000000E+00
  0.5800000      0.0000000E+00
  0.5900000      0.0000000E+00
  0.6000000      0.0000000E+00
  0.6100000      0.0000000E+00
  0.6200000      0.0000000E+00
  0.6300000      0.0000000E+00
  0.6400000      0.0000000E+00
  0.6500000      0.0000000E+00
  0.6600000      0.0000000E+00
  0.6700000      0.0000000E+00
  0.6800000      0.0000000E+00
  0.6900000      0.0000000E+00
  0.7000000      0.0000000E+00
  0.7100000      0.0000000E+00
  0.7200000      0.0000000E+00
  0.7300000      0.0000000E+00
  0.7400000      0.0000000E+00
  0.7500000      0.0000000E+00
  0.7600000      0.0000000E+00
  0.7700000      0.0000000E+00
  0.7800000      0.0000000E+00
  0.7900000      0.0000000E+00
  0.8000000      0.0000000E+00
  0.8100000      0.0000000E+00
  0.8200000      0.0000000E+00
  0.8300000      0.0000000E+00
  0.8400000      0.0000000E+00
  0.8500000      0.0000000E+00
  0.8600000      0.0000000E+00
  0.8700000      0.0000000E+00
  0.8800000      0.0000000E+00
  0.8900000      0.0000000E+00
  0.9000000      0.0000000E+00
  0.9100000      0.0000000E+00
  0.9200000      0.0000000E+00
  0.9300000      0.0000000E+00
  0.9400000      0.0000000E+00
  0.9500000      0.0000000E+00
  0.9600000      0.0000000E+00
  0.9700000      0.0000000E+00
  0.9800000      0.0000000E+00
  0.9900000      0.0000000E+00
   1.000000      0.0000000E+00
   1.010000      0.0000000E+00
   1.020000      0.0000000E+00
   1.030000      0.0000000E+00
   1.040000      0.0000000E+00
   1.050000      0.0000000E+00
   1.060000      0.0000000E+00
   1.070000      0.0000000E+00
   1.080000      0.0000000E+00
   1.090000      0.0000000E+00
   1.100000      0.0000000E+00
   1.110000      0.0000000E+00
   1.120000      0.0000000E+00
   1.130000      0.0000000E+00
   1.140000      0.0000000E+00
   1.150000      0.0000000E+00
   1.160000      0.0000000E+00
   1.170000      0.0000000E+00
   1.180000      0.0000000E+00
   1.190000      0.0000000E+00
   1.200000      0.0000000E+00
   1.210000      0.0000000E+00
   1.220000      0.0000000E+00
   1.230000      0.0000000E+00
   1.240000      0.0000000E+00
   1.250000      0.0000000E+00
   1.260000      0.0000000E+00
   1.270000      0.0000000E+00
   1.280000      0.0000000E+00
   1.290000      0.0000000E+00
   1.300000      0.0000000E+00
   1.310000      0.0000000E+00
   1.320000      0.0000000E+00
   1.330000      0.0000000E+00
   1.340000      0.0000000E+00
   1.350000      0.0000000E+00
   1.360000      0.0000000E+00
   1.370000      0.0000000E+00
   1.380000      0.0000000E+00
   1.390000      0.0000000E+00
   1.400000      0.0000000E+00
   1.410000      0.0000000E+00
   1.420000      0.0000000E+00
   1.430000      0.0000000E+00
   1.440000      0.0000000E+00
   1.450000      0.0000000E+00
   1.460000      0.0000000E+00
   1.470000      0.0000000E+00
   1.480000      0.0000000E+00
   1.490000      0.0000000E+00
   1.500000      0.0000000E+00
   1.510000      0.0000000E+00
   1.520000      0.0000000E+00
   1.530000      0.0000000E+00
   1.540000      0.0000000E+00
   1.550000      0.0000000E+00
   1.560000      0.0000000E+00
   1.570000      0.0000000E+00
   1.580000      0.0000000E+00
   1.590000      0.0000000E+00
   1.600000      0.0000000E+00
   1.610000      0.0000000E+00
   1.620000      0.0000000E+00
   1.630000      0.0000000E+00
   1.640000      0.0000000E+00
   1.650000      0.0000000E+00
   1.660000      0.0000000E+00
   1.670000      0.0000000E+00
   1.680000      0.0000000E+00
   1.690000      0.0000000E+00
   1.700000      0.0000000E+00
   1.710000      0.0000000E+00
   1.720000      0.0000000E+00
   1.730000      0.0000000E+00
   1.740000      0.0000000E+00
   1.750000      0.0000000E+00
   1.760000      0.0000000E+00
   1.770000      0.0000000E+00
   1.780000      0.0000000E+00
   1.790000      0.0000000E+00
   1.800000      0.0000000E+00
   1.810000      0.0000000E+00
   1.820000      0.0000000E+00
   1.830000      0.0000000E+00
   1.840000      0.0000000E+00
   1.850000      0.0000000E+00
   1.860000      0.0000000E+00
   1.870000      0.0000000E+00
   1.880000      0.0000000E+00
   1.890000      0.0000000E+00
   1.900000      0.0000000E+00
   1.910000      0.0000000E+00
   1.920000      0.0000000E+00
   1.930000      0.0000000E+00
   1.940000      0.0000000E+00
   1.950000      0.0000000E+00
   1.960000      0.0000000E+00
   1.970000      0.0000000E+00
   1.980000      0.0000000E+00
   1.990000      0.0000000E+00
   2.000000      0.0000000E+00
   2.010000      0.0000000E+00
   2.020000      0.0000000E+00
   2.030000      0.0000000E+00
   2.040000      0.0000000E+00
   2.050000      0.0000000E+00
   2.060000      0.0000000E+00
   2.070000      0.0000000E+00
   2.080000      0.0000000E+00
   2.090000      0.0000000E+00
   2.100000      0.0000000E+00
   2.110000      0.0000000E+00
   2.120000      0.0000000E+00
   2.130000      0.0000000E+00
   2.140000      0.0000000E+00
   2.150000      0.0000000E+00
   2.160000      0.0000000E+00
   2.170000      0.0000000E+00
   2.180000      0.0000000E+00
   2.190000      0.0000000E+00
   2.200000      0.0000000E+00
   2.210000     -1.2718290E-38
   2.220000     -1.3166526E-38
   2.230000     -1.3676006E-38
   2.240000     -1.4305216E-38
   2.250000     -1.5084897E-38
   2.260000     -1.5910187E-38
   2.270000     -1.6750312E-38
   2.280000     -1.7601839E-38
   2.290000     -1.8462657E-38
   2.300000     -1.9332176E-38
   2.310000     -2.0319119E-38
   2.320000     -2.1455136E-38
   2.330000     -2.0402642E-38
   2.340000     -1.7072143E-38
   2.350000     -1.3706793E-38
   2.360000      0.0000000E+00
   2.370000      0.0000000E+00
   2.380000      0.0000000E+00
   2.390000      0.0000000E+00
   2.400000      0.0000000E+00
   2.410000      0.0000000E+00
   2.420000      0.0000000E+00
   2.430000      0.0000000E+00
   2.440000      0.0000000E+00
   2.450000     -1.3915733E-38
   2.460000     -4.2242055E-38
   2.470000     -7.5114160E-38
   2.480000     -9.4902647E-38
   2.490000     -1.0080199E-37
   2.500000     -1.0548970E-37
   2.510000     -1.0856137E-37
   2.520000     -1.1065544E-37
   2.530000     -1.1197562E-37
   2.540000     -1.1332004E-37
   2.550000     -1.1659687E-37
   2.560000     -1.2172849E-37
   2.570000     -1.1290759E-37
   2.580000     -8.7163690E-38
   2.590000     -5.9585357E-38
   2.600000     -3.8396548E-38
   2.610000     -3.6292792E-38
   2.620000     -5.2759739E-38
   2.630000     -7.6087474E-38
   2.640000     -1.0233192E-37
   2.650000     -1.3259024E-37
   2.660000     -1.6719518E-37
   2.670000     -2.0449117E-37
   2.680000     -2.4278935E-37
   2.690000     -2.7396448E-37
   2.700000     -2.9502779E-37
   2.710000     -3.0594585E-37
   2.720000     -3.1027676E-37
   2.730000     -2.9786175E-37
   2.740000     -2.6607631E-37
   2.750000     -2.1891703E-37
   2.760000     -1.4992447E-37
   2.770000     -6.8061526E-38
   2.780000      2.3071457E-38
   2.790000      6.5381167E-38
   2.800000      5.3132916E-38
   2.810000      2.5157206E-38
   2.820000     -2.4691207E-38
   2.830000     -8.3275166E-38
   2.840000     -8.8883313E-38
   2.850000     -3.2332583E-38
   2.860000      3.9214413E-38
   2.870000      1.4939770E-37
   2.880000      2.9171014E-37
   2.890000      4.4246459E-37
   2.900000      6.0212652E-37
   2.910000      7.6235022E-37
   2.920000      9.3483450E-37
   2.930000      1.0195336E-36
   2.940000      9.6346278E-37
   2.950000      8.7567522E-37
   2.960000      3.3689388E-37
   2.970000     -7.3226665E-37
   2.980000     -1.8279952E-36
   2.990000     -2.8971087E-36
   3.000000     -3.4499514E-36
   3.010000     -3.4560359E-36
   3.020000     -3.5050118E-36
   3.030000     -3.6280373E-36
   3.040000     -3.7967625E-36
   3.050000     -4.0048133E-36
   3.060000     -4.2257443E-36
   3.070000     -4.4426623E-36
   3.080000     -4.1319929E-36
   3.090000     -3.4158622E-36
   3.100000     -2.8769996E-36
   3.110000     -2.4696106E-36
   3.120000     -2.7522447E-36
   3.130000     -3.7357356E-36
   3.140000     -4.8692421E-36
   3.150000     -6.1427874E-36
   3.160000     -7.5791541E-36
   3.170000     -9.0906229E-36
   3.180000     -1.0648159E-35
   3.190000     -1.2320650E-35
   3.200000     -1.3415312E-35
   3.210000     -1.3663318E-35
   3.220000     -1.3478644E-35
   3.230000     -1.2694587E-35
   3.240000     -1.0941221E-35
   3.250000     -8.5062349E-36
   3.260000     -6.2573586E-36
   3.270000     -4.8105244E-36
   3.280000     -4.5400155E-36
   3.290000     -5.7995694E-36
   3.300000     -8.2163540E-36
   3.310000     -1.0751972E-35
   3.320000     -1.2895955E-35
   3.330000     -1.4745160E-35
   3.340000     -1.5656280E-35
   3.350000     -1.5160862E-35
   3.360000     -1.3778496E-35
   3.370000     -1.1798113E-35
   3.380000     -9.3808517E-36
   3.390000     -6.2665996E-36
   3.400000     -2.2870881E-36
   3.410000      2.0290743E-36
   3.420000      6.2304386E-36
   3.430000      1.0261674E-35
   3.440000      1.3951600E-35
   3.450000      1.6968106E-35
   3.460000      1.9842953E-35
   3.470000      2.3019992E-35
   3.480000      2.6126851E-35
   3.490000      2.9164244E-35
   3.500000      3.2404505E-35
   3.510000      3.6176855E-35
   3.520000      4.0404278E-35
   3.530000      4.4186640E-35
   3.540000      4.7635078E-35
   3.550000      5.1677286E-35
   3.560000      5.6411836E-35
   3.570000      6.1920663E-35
   3.580000      6.7822150E-35
   3.590000      7.3242212E-35
   3.600000      7.8450725E-35
   3.610000      8.4195340E-35
   3.620000      8.9588821E-35
   3.630000      9.3819327E-35
   3.640000      9.5831850E-35
   3.650000      9.7454922E-35
   3.660000      9.9930876E-35
   3.670000      1.0167163E-34
   3.680000      1.0223387E-34
   3.690000      1.0114498E-34
   3.700000      1.0064741E-34
   3.710000      1.0022346E-34
   3.720000      9.7830632E-35
   3.730000      9.4236575E-35
   3.740000      9.0062618E-35
   3.750000      8.6502775E-35
   3.760000      8.3725968E-35
   3.770000      8.2479910E-35
   3.780000      7.9565091E-35
   3.790000      7.2002415E-35
   3.800000      6.1749746E-35
   3.810000      5.0696506E-35
   3.820000      3.8662176E-35
   3.830000      2.4486856E-35
   3.840000      9.4750333E-36
   3.850000     -5.5267269E-36
   3.860000     -2.0942010E-35
   3.870000     -3.7825767E-35
   3.880000     -6.1317378E-35
   3.890000     -9.1200482E-35
   3.900000     -1.2080887E-34
   3.910000     -1.4759311E-34
   3.920000     -1.7253663E-34
   3.930000     -2.0325590E-34
   3.940000     -2.4080723E-34
   3.950000     -2.7612904E-34
   3.960000     -3.0962002E-34
   3.970000     -3.4569471E-34
   3.980000     -3.7479384E-34
   3.990000     -3.9461906E-34
   4.000000     -4.1021787E-34
   4.010000     -4.2481760E-34
   4.020000     -4.4188036E-34
   4.030000     -4.6289852E-34
   4.040000     -4.8820177E-34
   4.050000     -5.1429636E-34
   4.060000     -5.4836325E-34
   4.070000     -5.9174211E-34
   4.080000     -6.3502216E-34
   4.090000     -6.7779707E-34
   4.100000     -7.2583929E-34
   4.110000     -7.6478760E-34
   4.120000     -7.8403232E-34
   4.130000     -7.8058904E-34
   4.140000     -7.5590036E-34
   4.150000     -7.1955223E-34
   4.160000     -6.6880775E-34
   4.170000     -6.0769582E-34
   4.180000     -5.3583395E-34
   4.190000     -4.5726919E-34
   4.200000     -3.9179126E-34
   4.210000     -3.3836049E-34
   4.220000     -2.7964388E-34
   4.230000     -2.1345230E-34
   4.240000     -1.4838514E-34
   4.250000     -8.1414618E-35
   4.260000      6.6647517E-37
   4.270000      9.0884626E-35
   4.280000      1.8618856E-34
   4.290000      2.8920626E-34
   4.300000      4.0865281E-34
   4.310000      5.5769934E-34
   4.320000      7.2516449E-34
   4.330000      9.1579514E-34
   4.340000      1.1346030E-33
   4.350000      1.3720835E-33
   4.360000      1.6085507E-33
   4.370000      1.8333735E-33
   4.380000      2.0486279E-33
   4.390000      2.2547846E-33
   4.400000      2.4559987E-33
   4.410000      2.6510889E-33
   4.420000      2.8429542E-33
   4.430000      3.0350970E-33
   4.440000      3.2344888E-33
   4.450000      3.4423180E-33
   4.460000      3.6618482E-33
   4.470000      3.8966848E-33
   4.480000      4.1438887E-33
   4.490000      4.4006938E-33
   4.500000      4.6599851E-33
   4.510000      4.9137857E-33
   4.520000      5.1537750E-33
   4.530000      5.3710585E-33
   4.540000      5.5578016E-33
   4.550000      5.7076205E-33
   4.560000      5.8151162E-33
   4.570000      5.8785227E-33
   4.580000      5.8984966E-33
   4.590000      5.8764307E-33
   4.600000      5.8148466E-33
   4.610000      5.7168195E-33
   4.620000      5.5849228E-33
   4.630000      5.4206849E-33
   4.640000      5.2243862E-33
   4.650000      4.9923833E-33
   4.660000      4.7189732E-33
   4.670000      4.3984067E-33
   4.680000      4.0214510E-33
   4.690000      3.5780142E-33
   4.700000      3.0600316E-33
   4.710000      2.4590925E-33
   4.720000      1.7673379E-33
   4.730000      9.8286370E-34
   4.740000      1.0242210E-34
   4.750000     -8.7180511E-34
   4.760000     -1.9397457E-33
   4.770000     -3.1005717E-33
   4.780000     -4.3426787E-33
   4.790000     -5.6620180E-33
   4.800000     -7.0578716E-33
   4.810000     -8.5224163E-33
   4.820000     -1.0054437E-32
   4.830000     -1.1650203E-32
   4.840000     -1.3306711E-32
   4.850000     -1.5032032E-32
   4.860000     -1.6828649E-32
   4.870000     -1.8698830E-32
   4.880000     -2.0643548E-32
   4.890000     -2.2660847E-32
   4.900000     -2.4745411E-32
   4.910000     -2.6888443E-32
   4.920000     -2.9076887E-32
   4.930000     -3.1294146E-32
   4.940000     -3.3519718E-32
   4.950000     -3.5733776E-32
   4.960000     -3.7915338E-32
   4.970000     -4.0040359E-32
   4.980000     -4.2086950E-32
   4.990000     -4.4034439E-32
   5.000000     -4.5863499E-32
   5.010000     -4.7556270E-32
   5.020000     -4.9095741E-32
   5.030000     -5.0464795E-32
   5.040000     -5.1645668E-32
   5.050000     -5.2618495E-32
   5.060000     -5.3360878E-32
   5.070000     -5.3847033E-32
   5.080000     -5.4047003E-32
   5.090000     -5.3927120E-32
   5.100000     -5.3450122E-32
   5.110000     -5.2575942E-32
   5.120000     -5.1262639E-32
   5.130000     -4.9467547E-32
   5.140000     -4.7148326E-32
   5.150000     -4.4263939E-32
   5.160000     -4.0775751E-32
   5.170000     -3.6647806E-32
   5.180000     -3.1846804E-32
   5.190000     -2.6341565E-32
   5.200000     -2.0104095E-32
   5.210000     -1.3107724E-32
   5.220000     -5.3254625E-33
   5.230000      3.2673270E-33
   5.240000      1.2700370E-32
   5.250000      2.3003012E-32
   5.260000      3.4200741E-32
   5.270000      4.6321607E-32
   5.280000      5.9391940E-32
   5.290000      7.3435571E-32
   5.300000      8.8472383E-32
   5.310000      1.0451687E-31
   5.320000      1.2157676E-31
   5.330000      1.3965189E-31
   5.340000      1.5873355E-31
   5.350000      1.7880356E-31
   5.360000      1.9983437E-31
   5.370000      2.2178950E-31
   5.380000      2.4462364E-31
   5.390000      2.6828305E-31
   5.400000      2.9270620E-31
   5.410000      3.1782377E-31
   5.420000      3.4355882E-31
   5.430000      3.6982634E-31
   5.440000      3.9653247E-31
   5.450000      4.2357359E-31
   5.460000      4.5083481E-31
   5.470000      4.7818861E-31
   5.480000      5.0549337E-31
   5.490000      5.3259180E-31
   5.500000      5.5931027E-31
   5.510000      5.8545745E-31
   5.520000      6.1082420E-31
   5.530000      6.3518354E-31
   5.540000      6.5829108E-31
   5.550000      6.7988553E-31
   5.560000      6.9968974E-31
   5.570000      7.1741144E-31
   5.580000      7.3274407E-31
   5.590000      7.4536761E-31
   5.600000      7.5494879E-31
   5.610000      7.6114134E-31
   5.620000      7.6358566E-31
   5.630000      7.6190870E-31
   5.640000      7.5572363E-31
   5.650000      7.4462954E-31
   5.660000      7.2821142E-31
   5.670000      7.0604023E-31
   5.680000      6.7767362E-31
   5.690000      6.4265743E-31
   5.700000      6.0052687E-31
   5.710000      5.5080910E-31
   5.720000      4.9302579E-31
   5.730000      4.2669589E-31
   5.740000      3.5133899E-31
   5.750000      2.6647810E-31
   5.760000      1.7164276E-31
   5.770000      6.6372502E-32
   5.780000     -4.9780411E-32
   5.790000     -1.7724860E-31
   5.800000     -3.1644703E-31
   5.810000     -4.6777006E-31
   5.820000     -6.3158860E-31
   5.830000     -8.0824725E-31
   5.840000     -9.9806081E-31
   5.850000     -1.2013102E-30
   5.860000     -1.4182381E-30
   5.870000     -1.6490442E-30
   5.880000     -1.8938792E-30
   5.890000     -2.1528387E-30
   5.900000     -2.4259561E-30
   5.910000     -2.7131978E-30
   5.920000     -3.0144548E-30
   5.930000     -3.3295372E-30
   5.940000     -3.6581663E-30
   5.950000     -3.9999699E-30
   5.960000     -4.3544764E-30
   5.970000     -4.7211073E-30
   5.980000     -5.0991719E-30
   5.990000     -5.4878629E-30
   6.000000     -5.8862498E-30
   6.010000     -6.2932744E-30
   6.020000     -6.7077417E-30
   6.030000     -7.1283166E-30
   6.040000     -7.5535160E-30
   6.050000     -7.9817022E-30
   6.060000     -8.4110740E-30
   6.070000     -8.8396664E-30
   6.080000     -9.2653345E-30
   6.090000     -9.6857575E-30
   6.100000     -1.0098424E-29
   6.110000     -1.0500632E-29
   6.120000     -1.0889486E-29
   6.130000     -1.1261892E-29
   6.140000     -1.1614550E-29
   6.150000     -1.1943961E-29
   6.160000     -1.2246423E-29
   6.170000     -1.2518026E-29
   6.180000     -1.2754667E-29
   6.190000     -1.2952029E-29
   6.200000     -1.3105609E-29
   6.210000     -1.3210700E-29
   6.220000     -1.3262403E-29
   6.230000     -1.3255636E-29
   6.240000     -1.3185129E-29
   6.250000     -1.3045438E-29
   6.260000     -1.2830959E-29
   6.270000     -1.2535927E-29
   6.280000     -1.2154433E-29
   6.290000     -1.1680441E-29
   6.300000     -1.1107805E-29
   6.310000     -1.0430280E-29
   6.320000     -9.6415469E-30
   6.330000     -8.7352396E-30
   6.340000     -7.7049611E-30
   6.350000     -6.5443167E-30
   6.360000     -5.2469400E-30
   6.370000     -3.8065257E-30
   6.380000     -2.2168599E-30
   6.390000     -4.7185646E-31
   6.400000      1.4344064E-30
   6.410000      3.5076507E-30
   6.420000      5.7533535E-30
   6.430000      8.1766988E-30
   6.440000      1.0782542E-29
   6.450000      1.3575354E-29
   6.460000      1.6559164E-29
   6.470000      1.9737520E-29
   6.480000      2.3113419E-29
   6.490000      2.6689257E-29
   6.500000      3.0466758E-29
   6.510000      3.4446909E-29
   6.520000      3.8629903E-29
   6.530000      4.3015055E-29
   6.540000      4.7600746E-29
   6.550000      5.2384362E-29
   6.560000      5.7362192E-29
   6.570000      6.2529378E-29
   6.580000      6.7879816E-29
   6.590000      7.3406116E-29
   6.600000      7.9099496E-29
   6.610000      8.4949712E-29
   6.620000      9.0945000E-29
   6.630000      9.7071973E-29
   6.640000      1.0331555E-28
   6.650000      1.0965889E-28
   6.660000      1.1608328E-28
   6.670000      1.2256812E-28
   6.680000      1.2909081E-28
   6.690000      1.3562667E-28
   6.700000      1.4214892E-28
   6.710000      1.4862856E-28
   6.720000      1.5503442E-28
   6.730000      1.6133294E-28
   6.740000      1.6748823E-28
   6.750000      1.7346205E-28
   6.760000      1.7921370E-28
   6.770000      1.8470005E-28
   6.780000      1.8987546E-28
   6.790000      1.9469179E-28
   6.800000      1.9909847E-28
   6.810000      2.0304239E-28
   6.820000      2.0646797E-28
   6.830000      2.0931717E-28
   6.840000      2.1152960E-28
   6.850000      2.1304252E-28
   6.860000      2.1379084E-28
   6.870000      2.1370733E-28
   6.880000      2.1272262E-28
   6.890000      2.1076535E-28
   6.900000      2.0776234E-28
   6.910000      2.0363868E-28
   6.920000      1.9831791E-28
   6.930000      1.9172223E-28
   6.940000      1.8377269E-28
   6.950000      1.7438939E-28
   6.960000      1.6349176E-28
   6.970000      1.5099879E-28
   6.980000      1.3682945E-28
   6.990000      1.2090288E-28
   7.000000      1.0313875E-28
   7.010000      8.3457737E-29
   7.020000      6.1781720E-29
   7.030000      3.8034396E-29
   7.040000      1.2141619E-29
   7.050000     -1.5968061E-29
   7.060000     -4.6362987E-29