  -2.600000      0.0000000E+00
  -2.590000      0.0000000E+00
  -2.580000      0.0000000E+00
  -2.570000      0.0000000E+00
  -2.560000      0.0000000E+00
  -2.550000      0.0000000E+00
  -2.540000      0.0000000E+00
  -2.530000      0.0000000E+00
  -2.520000      0.0000000E+00
  -2.510000      0.0000000E+00
  -2.500000      0.0000000E+00
  -2.490000      0.0000000E+00
  -2.480000      0.0000000E+00
  -2.470000      0.0000000E+00
  -2.460000      0.0000000E+00
  -2.450000      0.0000000E+00
  -2.440000      0.0000000E+00
  -2.430000      0.0000000E+00
  -2.420000      0.0000000E+00
  -2.410000      0.0000000E+00
  -2.400000      0.0000000E+00
  -2.390000      0.0000000E+00
  -2.380000      0.0000000E+00
  -2.370000      0.0000000E+00
  -2.360000      0.0000000E+00
  -2.350000      0.0000000E+00
  -2.340000      0.0000000E+00
  -2.330000      0.0000000E+00
  -2.320000      0.0000000E+00
  -2.310000      0.0000000E+00
  -2.300000      0.0000000E+00
  -2.290000      0.0000000E+00
  -2.280000      0.0000000E+00
  -2.270000      0.0000000E+00
  -2.260000      0.0000000E+00
  -2.250000      0.0000000E+00
  -2.240000      0.0000000E+00
  -2.230000      0.0000000E+00
  -2.220000      0.0000000E+00
  -2.210000      0.0000000E+00
  -2.200000      0.0000000E+00
  -2.190000      0.0000000E+00
  -2.180000      0.0000000E+00
  -2.170000      0.0000000E+00
  -2.160000      0.0000000E+00
  -2.150000      0.0000000E+00
  -2.140000      0.0000000E+00
  -2.130000      0.0000000E+00
  -2.120000      0.0000000E+00
  -2.110000      0.0000000E+00
  -2.100000      0.0000000E+00
  -2.090000      0.0000000E+00
  -2.080000      0.0000000E+00
  -2.070000      0.0000000E+00
  -2.060000      0.0000000E+00
  -2.050000      0.0000000E+00
  -2.040000      0.0000000E+00
  -2.030000      0.0000000E+00
  -2.020000      0.0000000E+00
  -2.010000      0.0000000E+00
  -2.000000      0.0000000E+00
  -1.990000      0.0000000E+00
  -1.980000      0.0000000E+00
  -1.970000      0.0000000E+00
  -1.960000      0.0000000E+00
  -1.950000      0.0000000E+00
  -1.940000      0.0000000E+00
  -1.930000      0.0000000E+00
  -1.920000      0.0000000E+00
  -1.910000      0.0000000E+00
  -1.900000      0.0000000E+00
  -1.890000      0.0000000E+00
  -1.880000      0.0000000E+00
  -1.870000      0.0000000E+00
  -1.860000      0.0000000E+00
  -1.850000      0.0000000E+00
  -1.840000      0.0000000E+00
  -1.830000      0.0000000E+00
  -1.820000      0.0000000E+00
  -1.810000      0.0000000E+00
  -1.800000      0.0000000E+00
  -1.790000      0.0000000E+00
  -1.780000      0.0000000E+00
  -1.770000      0.0000000E+00
  -1.760000      0.0000000E+00
  -1.750000      0.0000000E+00
  -1.740000      0.0000000E+00
  -1.730000      0.0000000E+00
  -1.720000      0.0000000E+00
  -1.710000      0.0000000E+00
  -1.700000      0.0000000E+00
  -1.690000      0.0000000E+00
  -1.680000      0.0000000E+00
  -1.670000      0.0000000E+00
  -1.660000      0.0000000E+00
  -1.650000      0.0000000E+00
  -1.640000      0.0000000E+00
  -1.630000      0.0000000E+00
  -1.620000      0.0000000E+00
  -1.610000      0.0000000E+00
  -1.600000      0.0000000E+00
  -1.590000      0.0000000E+00
  -1.580000      0.0000000E+00
  -1.570000      0.0000000E+00
  -1.560000      0.0000000E+00
  -1.550000      0.0000000E+00
  -1.540000      0.0000000E+00
  -1.530000      0.0000000E+00
  -1.520000      0.0000000E+00
  -1.510000      0.0000000E+00
  -1.500000      0.0000000E+00
  -1.490000      0.0000000E+00
  -1.480000      0.0000000E+00
  -1.470000      0.0000000E+00
  -1.460000      0.0000000E+00
  -1.450000      0.0000000E+00
  -1.440000      0.0000000E+00
  -1.430000      0.0000000E+00
  -1.420000      0.0000000E+00
  -1.410000      0.0000000E+00
  -1.400000      0.0000000E+00
  -1.390000      0.0000000E+00
  -1.380000      0.0000000E+00
  -1.370000      0.0000000E+00
  -1.360000      0.0000000E+00
  -1.350000      0.0000000E+00
  -1.340000      0.0000000E+00
  -1.330000      0.0000000E+00
  -1.320000      0.0000000E+00
  -1.310000      0.0000000E+00
  -1.300000      0.0000000E+00
  -1.290000      0.0000000E+00
  -1.280000      0.0000000E+00
  -1.270000      0.0000000E+00
  -1.260000      0.0000000E+00
  -1.250000      0.0000000E+00
  -1.240000      0.0000000E+00
  -1.230000      0.0000000E+00
  -1.220000      0.0000000E+00
  -1.210000      0.0000000E+00
  -1.200000      0.0000000E+00
  -1.190000      0.0000000E+00
  -1.180000      0.0000000E+00
  -1.170000      0.0000000E+00
  -1.160000      0.0000000E+00
  -1.150000      0.0000000E+00
  -1.140000      0.0000000E+00
  -1.130000      0.0000000E+00
  -1.120000      0.0000000E+00
  -1.110000      0.0000000E+00
  -1.100000      0.0000000E+00
  -1.090000      0.0000000E+00
  -1.080000      0.0000000E+00
  -1.070000      0.0000000E+00
  -1.060000      0.0000000E+00
  -1.050000      0.0000000E+00
  -1.040000      0.0000000E+00
  -1.030000      0.0000000E+00
  -1.020000      0.0000000E+00
  -1.010000      0.0000000E+00
  -1.000000      0.0000000E+00
 -0.9900000      0.0000000E+00
 -0.9800000      0.0000000E+00
 -0.9700000      0.0000000E+00
 -0.9600000      0.0000000E+00
 -0.9500000      0.0000000E+00
 -0.9400000      0.0000000E+00
 -0.9300000      0.0000000E+00
 -0.9200000      0.0000000E+00
 -0.9100000      0.0000000E+00
 -0.9000000      0.0000000E+00
 -0.8900000      0.0000000E+00
 -0.8800000      0.0000000E+00
 -0.8700000      0.0000000E+00
 -0.8600000      0.0000000E+00
 -0.8500000      0.0000000E+00
 -0.8400000      0.0000000E+00
 -0.8300000      0.0000000E+00
 -0.8200000      0.0000000E+00
 -0.8100000      0.0000000E+00
 -0.8000000      0.0000000E+00
 -0.7900000      0.0000000E+00
 -0.7800000      0.0000000E+00
 -0.7700000      0.0000000E+00
 -0.7600000      0.0000000E+00
 -0.7500000      0.0000000E+00
 -0.7400000      0.0000000E+00
 -0.7300000      0.0000000E+00
 -0.7200000      0.0000000E+00
 -0.7100000      0.0000000E+00
 -0.7000000      0.0000000E+00
 -0.6900000      0.0000000E+00
 -0.6800000      0.0000000E+00
 -0.6700000      0.0000000E+00
 -0.6600000      0.0000000E+00
 -0.6500000      0.0000000E+00
 -0.6400000      0.0000000E+00
 -0.6300000      0.0000000E+00
 -0.6200000      0.0000000E+00
 -0.6100000      0.0000000E+00
 -0.6000000      0.0000000E+00
 -0.5900000      0.0000000E+00
 -0.5800000      0.0000000E+00
 -0.5700000      0.0000000E+00
 -0.5600000      0.0000000E+00
 -0.5500000      0.0000000E+00
 -0.5400000      0.0000000E+00
 -0.5300000      0.0000000E+00
 -0.5200000      0.0000000E+00
 -0.5100000      0.0000000E+00
 -0.5000000      0.0000000E+00
 -0.4900000      0.0000000E+00
 -0.4800000      0.0000000E+00
 -0.4700000      0.0000000E+00
 -0.4600000      0.0000000E+00
 -0.4500000      0.0000000E+00
 -0.4400000      0.0000000E+00
 -0.4300000      0.0000000E+00
 -0.4200000      0.0000000E+00
 -0.4100000      0.0000000E+00
 -0.4000000      0.0000000E+00
 -0.3900000      0.0000000E+00
 -0.3800000      0.0000000E+00
 -0.3700000      0.0000000E+00
 -0.3600000      0.0000000E+00
 -0.3500000      0.0000000E+00
 -0.3400000      0.0000000E+00
 -0.3300000      0.0000000E+00
 -0.3200000      0.0000000E+00
 -0.3100000      0.0000000E+00
 -0.3000000      0.0000000E+00
 -0.2900000      0.0000000E+00
 -0.2800000      0.0000000E+00
 -0.2700000      0.0000000E+00
 -0.2600000      0.0000000E+00
 -0.2500000      0.0000000E+00
 -0.2400000      0.0000000E+00
 -0.2300000      0.0000000E+00
 -0.2200000      0.0000000E+00
 -0.2100000      0.0000000E+00
 -0.2000000      0.0000000E+00
 -0.1900000      0.0000000E+00
 -0.1800000      0.0000000E+00
 -0.1700000      0.0000000E+00
 -0.1600000      0.0000000E+00
 -0.1500000      0.0000000E+00
 -0.1400000      0.0000000E+00
 -0.1300000      0.0000000E+00
 -0.1200000      0.0000000E+00
 -0.1100000      0.0000000E+00
 -0.1000000      0.0000000E+00
 -9.0000004E-02  0.0000000E+00
 -7.9999998E-02  0.0000000E+00
 -7.0000000E-02  0.0000000E+00
 -5.9999999E-02  0.0000000E+00
 -5.0000001E-02  0.0000000E+00
 -3.9999999E-02  0.0000000E+00
 -2.9999999E-02  0.0000000E+00
 -2.0000000E-02  0.0000000E+00
 -9.9999998E-03  0.0000000E+00
 -3.4694470E-17  0.0000000E+00
  9.9999998E-03  0.0000000E+00
  2.0000000E-02  0.0000000E+00
  2.9999999E-02  0.0000000E+00
  3.9999999E-02  0.0000000E+00
  5.0000001E-02  0.0000000E+00
  5.9999999E-02  0.0000000E+00
  7.0000000E-02  0.0000000E+00
  7.9999998E-02  0.0000000E+00
  9.0000004E-02  0.0000000E+00
  0.1000000      0.0000000E+00
  0.1100000      0.0000000E+00
  0.1200000      0.0000000E+00
  0.1300000      0.0000000E+00
  0.1400000      0.0000000E+00
  0.1500000      0.0000000E+00
  0.1600000      0.0000000E+00
  0.1700000      0.0000000E+00
  0.1800000      0.0000000E+00
  0.1900000      0.0000000E+00
  0.2000000      0.0000000E+00
  0.2100000      0.0000000E+00
  0.2200000      0.0000000E+00
  0.2300000      0.0000000E+00
  0.2400000      0.0000000E+00
  0.2500000      0.0000000E+00
  0.2600000      0.0000000E+00
  0.2700000      0.0000000E+00
  0.2800000      0.0000000E+00
  0.2900000      0.0000000E+00
  0.3000000      0.0000000E+00
  0.3100000      0.0000000E+00
  0.3200000      0.0000000E+00
  0.3300000      0.0000000E+00
  0.3400000      0.0000000E+00
  0.3500000      0.0000000E+00
  0.3600000      0.0000000E+00
  0.3700000      0.0000000E+00
  0.3800000      0.0000000E+00
  0.3900000      0.0000000E+00
  0.4000000      0.0000000E+00
  0.4100000      0.0000000E+00
  0.4200000      0.0000000E+00
  0.4300000      0.0000000E+00
  0.4400000      0.0000000E+00
  0.4500000      0.0000000E+00
  0.4600000      0.0000000E+00
  0.4700000      0.0000000E+00
  0.4800000      0.0000000E+00
  0.4900000      0.0000000E+00
  0.5000000      0.0000000E+00
  0.5100000      0.0000000E+00
  0.5200000      0.0000000E+00
  0.5300000      0.0000000E+00
  0.5400000      0.0000000E+00
  0.5500000      0.0000000E+00
  0.5600000      0.0000000E+00
  0.5700000      0.0000000E+00
  0.5800000      0.0000000E+00
  0.5900000      0.0000000E+00
  0.6000000      0.0000000E+00
  0.6100000      0.0000000E+00
  0.6200000      0.0000000E+00
  0.6300000      0.0000000E+00
  0.6400000      0.0000000E+00
  0.6500000      0.0000000E+00
  0.6600000      0.0000000E+00
  0.6700000      0.0000000E+00
  0.6800000      0.0000000E+00
  0.6900000      0.0000000E+00
  0.7000000      0.0000000E+00
  0.7100000      0.0000000E+00
  0.7200000      0.0000000E+00
  0.7300000      0.0000000E+00
  0.7400000      0.0000000E+00
  0.7500000      0.0000000E+00
  0.7600000      0.0000000E+00
  0.7700000      0.0000000E+00
  0.7800000      0.0000000E+00
  0.7900000      0.0000000E+00
  0.8000000      0.0000000E+00
  0.8100000      0.0000000E+00
  0.8200000      0.0000000E+00
  0.8300000      0.0000000E+00
  0.8400000      0.0000000E+00
  0.8500000      0.0000000E+00
  0.8600000      0.0000000E+00
  0.8700000      0.0000000E+00
  0.8800000      0.0000000E+00
  0.8900000      0.0000000E+00
  0.9000000      0.0000000E+00
  0.9100000      0.0000000E+00
  0.9200000      0.0000000E+00
  0.9300000      0.0000000E+00
  0.9400000      0.0000000E+00
  0.9500000      0.0000000E+00
  0.9600000      0.0000000E+00
  0.9700000      0.0000000E+00
  0.9800000      0.0000000E+00
  0.9900000      0.0000000E+00
   1.000000      0.0000000E+00
   1.010000      0.0000000E+00
   1.020000      0.0000000E+00
   1.030000      0.0000000E+00
   1.040000      0.0000000E+00
   1.050000      0.0000000E+00
   1.060000      0.0000000E+00
   1.070000      0.0000000E+00
   1.080000      0.0000000E+00
   1.090000      0.0000000E+00
   1.100000      0.0000000E+00
   1.110000      0.0000000E+00
   1.120000      0.0000000E+00
   1.130000      0.0000000E+00
   1.140000      0.0000000E+00
   1.150000      0.0000000E+00
   1.160000      0.0000000E+00
   1.170000      0.0000000E+00
   1.180000      0.0000000E+00
   1.190000      0.0000000E+00
   1.200000      0.0000000E+00
   1.210000      0.0000000E+00
   1.220000      0.0000000E+00
   1.230000      0.0000000E+00
   1.240000      0.0000000E+00
   1.250000      0.0000000E+00
   1.260000      0.0000000E+00
   1.270000      0.0000000E+00
   1.280000      0.0000000E+00
   1.290000      0.0000000E+00
   1.300000      0.0000000E+00
   1.310000      0.0000000E+00
   1.320000      0.0000000E+00
   1.330000      0.0000000E+00
   1.340000      0.0000000E+00
   1.350000      0.0000000E+00
   1.360000      0.0000000E+00
   1.370000      0.0000000E+00
   1.380000      0.0000000E+00
   1.390000      0.0000000E+00
   1.400000      0.0000000E+00
   1.410000      0.0000000E+00
   1.420000      0.0000000E+00
   1.430000      0.0000000E+00
   1.440000      0.0000000E+00
   1.450000      0.0000000E+00
   1.460000      0.0000000E+00
   1.470000      0.0000000E+00
   1.480000      0.0000000E+00
   1.490000      0.0000000E+00
   1.500000      0.0000000E+00
   1.510000      0.0000000E+00
   1.520000      0.0000000E+00
   1.530000      0.0000000E+00
   1.540000      0.0000000E+00
   1.550000      0.0000000E+00
   1.560000      0.0000000E+00
   1.570000      0.0000000E+00
   1.580000      0.0000000E+00
   1.590000      0.0000000E+00
   1.600000      0.0000000E+00
   1.610000      0.0000000E+00
   1.620000      0.0000000E+00
   1.630000      0.0000000E+00
   1.640000      0.0000000E+00
   1.650000      0.0000000E+00
   1.660000      0.0000000E+00
   1.670000      0.0000000E+00
   1.680000      0.0000000E+00
   1.690000      0.0000000E+00
   1.700000      0.0000000E+00
   1.710000      0.0000000E+00
   1.720000      0.0000000E+00
   1.730000      0.0000000E+00
   1.740000      0.0000000E+00
   1.750000      0.0000000E+00
   1.760000      0.0000000E+00
   1.770000      0.0000000E+00
   1.780000      0.0000000E+00
   1.790000      0.0000000E+00
   1.800000      0.0000000E+00
   1.810000      0.0000000E+00
   1.820000      0.0000000E+00
   1.830000      0.0000000E+00
   1.840000      0.0000000E+00
   1.850000      0.0000000E+00
   1.860000      0.0000000E+00
   1.870000      0.0000000E+00
   1.880000      0.0000000E+00
   1.890000      0.0000000E+00
   1.900000      0.0000000E+00
   1.910000      0.0000000E+00
   1.920000      0.0000000E+00
   1.930000      0.0000000E+00
   1.940000      0.0000000E+00
   1.950000      0.0000000E+00
   1.960000      0.0000000E+00
   1.970000      0.0000000E+00
   1.980000      0.0000000E+00
   1.990000      0.0000000E+00
   2.000000      0.0000000E+00
   2.010000      0.0000000E+00
   2.020000      0.0000000E+00
   2.030000      0.0000000E+00
   2.040000      0.0000000E+00
   2.050000      0.0000000E+00
   2.060000      0.0000000E+00
   2.070000      0.0000000E+00
   2.080000      0.0000000E+00
   2.090000      0.0000000E+00
   2.100000      0.0000000E+00
   2.110000      0.0000000E+00
   2.120000      0.0000000E+00
   2.130000      0.0000000E+00
   2.140000      0.0000000E+00
   2.150000      0.0000000E+00
   2.160000      0.0000000E+00
   2.170000      0.0000000E+00
   2.180000      0.0000000E+00
   2.190000      0.0000000E+00
   2.200000      0.0000000E+00
   2.210000      0.0000000E+00
   2.220000      0.0000000E+00
   2.230000      0.0000000E+00
   2.240000      0.0000000E+00
   2.250000      0.0000000E+00
   2.260000      0.0000000E+00
   2.270000      0.0000000E+00
   2.280000      0.0000000E+00
   2.290000      0.0000000E+00
   2.300000      0.0000000E+00
   2.310000      0.0000000E+00
   2.320000     -1.3381816E-38
   2.330000     -1.7540622E-38
   2.340000     -2.2848834E-38
   2.350000     -2.8374481E-38
   2.360000     -3.4039785E-38
   2.370000     -4.0037412E-38
   2.380000     -4.6070557E-38
   2.390000     -5.1942020E-38
   2.400000     -5.8052494E-38
   2.410000     -6.4365932E-38
   2.420000     -7.0858266E-38
   2.430000     -7.7558036E-38
   2.440000     -8.4411411E-38
   2.450000     -8.8585240E-38
   2.460000     -8.8962044E-38
   2.470000     -8.8402130E-38
   2.480000     -9.0249294E-38
   2.490000     -9.4178714E-38
   2.500000     -9.7807853E-38
   2.510000     -1.0127302E-37
   2.520000     -1.0606384E-37
   2.530000     -1.1226008E-37
   2.540000     -1.1850289E-37
   2.550000     -1.2061202E-37
   2.560000     -1.1733044E-37
   2.570000     -1.1342068E-37
   2.580000     -1.0870159E-37
   2.590000     -1.0114563E-37
   2.600000     -9.0856022E-38
   2.610000     -7.8462602E-38
   2.620000     -6.3220045E-38
   2.630000     -4.4564360E-38
   2.640000     -2.3190454E-38
   2.650000      0.0000000E+00
   2.660000      3.1480837E-38
   2.670000      7.2086128E-38
   2.680000      1.1267010E-37
   2.690000      1.5086010E-37
   2.700000      1.9006739E-37
   2.710000      2.3329922E-37
   2.720000      2.8051724E-37
   2.730000      3.2992097E-37
   2.740000      3.7887102E-37
   2.750000      4.2590998E-37
   2.760000      4.7086821E-37
   2.770000      5.0991287E-37
   2.780000      5.3771499E-37
   2.790000      5.6417406E-37
   2.800000      6.0014062E-37
   2.810000      6.4376373E-37
   2.820000      6.8791316E-37
   2.830000      7.2886241E-37
   2.840000      7.7094096E-37
   2.850000      8.0979025E-37
   2.860000      8.3819854E-37
   2.870000      8.5111811E-37
   2.880000      8.4821928E-37
   2.890000      8.4395565E-37
   2.900000      8.3812338E-37
   2.910000      8.2192527E-37
   2.920000      7.9570830E-37
   2.930000      7.6180288E-37
   2.940000      7.3369239E-37
   2.950000      7.1544946E-37
   2.960000      6.8789181E-37
   2.970000      6.2636808E-37
   2.980000      5.3774387E-37
   2.990000      4.4542897E-37
   3.000000      3.4386268E-37
   3.010000      2.2463855E-37
   3.020000      9.0808826E-38
   3.030000     -6.3097858E-38
   3.040000     -2.5591284E-37
   3.050000     -4.8960857E-37
   3.060000     -7.4761578E-37
   3.070000     -1.0449548E-36
   3.080000     -1.3710140E-36
   3.090000     -1.7233663E-36
   3.100000     -2.0698374E-36
   3.110000     -2.2306643E-36
   3.120000     -2.2462944E-36
   3.130000     -2.3090685E-36
   3.140000     -2.4462451E-36
   3.150000     -2.7266958E-36
   3.160000     -3.0953803E-36
   3.170000     -3.4562942E-36
   3.180000     -3.8858644E-36
   3.190000     -4.2385152E-36
   3.200000     -4.2726378E-36
   3.210000     -4.0574267E-36
   3.220000     -3.7158726E-36
   3.230000     -3.2904773E-36
   3.240000     -2.6871131E-36
   3.250000     -1.8496799E-36
   3.260000     -6.6073438E-37
   3.270000      7.6645035E-37
   3.280000      2.1128847E-36
   3.290000      3.4704028E-36
   3.300000      4.8534493E-36
   3.310000      6.3085174E-36
   3.320000      7.8741110E-36
   3.330000      9.5761040E-36
   3.340000      1.1510180E-35
   3.350000      1.3464344E-35
   3.360000      1.5378049E-35
   3.370000      1.7475041E-35
   3.380000      1.9888274E-35
   3.390000      2.2524275E-35
   3.400000      2.5329217E-35
   3.410000      2.8335182E-35
   3.420000      3.1409117E-35
   3.430000      3.4550468E-35
   3.440000      3.7902263E-35
   3.450000      4.1273438E-35
   3.460000      4.4542164E-35
   3.470000      4.7939030E-35
   3.480000      5.1475202E-35
   3.490000      5.5105872E-35
   3.500000      5.8930568E-35
   3.510000      6.2881905E-35
   3.520000      6.6862411E-35
   3.530000      7.0798119E-35
   3.540000      7.4385908E-35
   3.550000      7.7728996E-35
   3.560000      8.1156222E-35
   3.570000      8.4683141E-35
   3.580000      8.7921025E-35
   3.590000      9.0833485E-35
   3.600000      9.3435799E-35
   3.610000      9.4928056E-35
   3.620000      9.5071555E-35
   3.630000      9.3621140E-35
   3.640000      9.1002887E-35
   3.650000      8.8290066E-35
   3.660000      8.5591549E-35
   3.670000      8.1777409E-35
   3.680000      7.5929393E-35
   3.690000      6.8128467E-35
   3.700000      5.8643869E-35
   3.710000      4.7445896E-35
   3.720000      3.4541095E-35
   3.730000      2.0393434E-35
   3.740000      6.2583896E-36
   3.750000     -7.8938141E-36
   3.760000     -2.2422446E-35
   3.770000     -3.6851151E-35
   3.780000     -5.1912752E-35
   3.790000     -6.7845332E-35
   3.800000     -8.4916880E-35
   3.810000     -1.0345284E-34
   3.820000     -1.2359312E-34
   3.830000     -1.4556315E-34
   3.840000     -1.6939454E-34
   3.850000     -1.9742460E-34
   3.860000     -2.2975721E-34
   3.870000     -2.6415906E-34
   3.880000     -3.0051008E-34
   3.890000     -3.3904758E-34
   3.900000     -3.8001932E-34
   3.910000     -4.2208669E-34
   3.920000     -4.6524923E-34
   3.930000     -5.0764408E-34
   3.940000     -5.4953603E-34
   3.950000     -5.8874428E-34
   3.960000     -6.2308644E-34
   3.970000     -6.5540620E-34
   3.980000     -6.8653714E-34
   3.990000     -7.1736852E-34
   4.000000     -7.4675758E-34
   4.010000     -7.7425267E-34
   4.020000     -8.0047180E-34
   4.030000     -8.2714569E-34
   4.040000     -8.5518142E-34
   4.050000     -8.8473500E-34
   4.060000     -9.1543836E-34
   4.070000     -9.4355536E-34
   4.080000     -9.6486349E-34
   4.090000     -9.7591286E-34
   4.100000     -9.8013389E-34
   4.110000     -9.8068399E-34
   4.120000     -9.7882505E-34
   4.130000     -9.7420206E-34
   4.140000     -9.6243563E-34
   4.150000     -9.4219279E-34
   4.160000     -9.1323330E-34
   4.170000     -8.7591613E-34
   4.180000     -8.2885659E-34
   4.190000     -7.7033749E-34
   4.200000     -7.0027445E-34
   4.210000     -6.2143583E-34
   4.220000     -5.3376682E-34
   4.230000     -4.3458095E-34
   4.240000     -3.2497005E-34
   4.250000     -2.0599489E-34
   4.260000     -7.8284090E-35
   4.270000      5.5536041E-35
   4.280000      1.9804240E-34
   4.290000      3.5290427E-34
   4.300000      5.2088974E-34
   4.310000      7.0322590E-34
   4.320000      8.9348729E-34
   4.330000      1.0889154E-33
   4.340000      1.2913735E-33
   4.350000      1.4990929E-33
   4.360000      1.7122815E-33
   4.370000      1.9288716E-33
   4.380000      2.1513178E-33
   4.390000      2.3766832E-33
   4.400000      2.6024143E-33
   4.410000      2.8318809E-33
   4.420000      3.0628293E-33
   4.430000      3.2938931E-33
   4.440000      3.5226932E-33
   4.450000      3.7467222E-33
   4.460000      3.9617980E-33
   4.470000      4.1693708E-33
   4.480000      4.3668667E-33
   4.490000      4.5534364E-33
   4.500000      4.7261551E-33
   4.510000      4.8802095E-33
   4.520000      5.0150193E-33
   4.530000      5.1242003E-33
   4.540000      5.2057539E-33
   4.550000      5.2570929E-33
   4.560000      5.2742723E-33
   4.570000      5.2530980E-33
   4.580000      5.1932635E-33
   4.590000      5.0926787E-33
   4.600000      4.9447589E-33
   4.610000      4.7465106E-33
   4.620000      4.4950992E-33
   4.630000      4.1876072E-33
   4.640000      3.8203930E-33
   4.650000      3.3901716E-33
   4.660000      2.8950655E-33
   4.670000      2.3321288E-33
   4.680000      1.6990105E-33
   4.690000      9.9321356E-34
   4.700000      2.1382936E-34
   4.710000     -6.4034508E-34
   4.720000     -1.5708899E-33
   4.730000     -2.5776154E-33
   4.740000     -3.6603175E-33
   4.750000     -4.8190082E-33
   4.760000     -6.0526553E-33
   4.770000     -7.3594065E-33
   4.780000     -8.7368544E-33
   4.790000     -1.0181425E-32
   4.800000     -1.1687499E-32
   4.810000     -1.3252804E-32
   4.820000     -1.4873703E-32
   4.830000     -1.6541725E-32
   4.840000     -1.8249490E-32
   4.850000     -1.9988679E-32
   4.860000     -2.1750072E-32
   4.870000     -2.3523060E-32
   4.880000     -2.5295910E-32
   4.890000     -2.7055786E-32
   4.900000     -2.8789708E-32
   4.910000     -3.0481676E-32
   4.920000     -3.2114350E-32
   4.930000     -3.3670845E-32
   4.940000     -3.5131832E-32
   4.950000     -3.6476621E-32
   4.960000     -3.7683542E-32
   4.970000     -3.8729635E-32
   4.980000     -3.9590033E-32
   4.990000     -4.0238732E-32
   5.000000     -4.0648612E-32
   5.010000     -4.0791253E-32
   5.020000     -4.0637054E-32
   5.030000     -4.0155313E-32
   5.040000     -3.9314344E-32
   5.050000     -3.8080181E-32
   5.060000     -3.6420341E-32
   5.070000     -3.4301998E-32
   5.080000     -3.1689406E-32
   5.090000     -2.8547530E-32
   5.100000     -2.4841205E-32
   5.110000     -2.0535277E-32
   5.120000     -1.5594852E-32
   5.130000     -9.9855035E-33
   5.140000     -3.6735477E-33
   5.150000      3.3736908E-33
   5.160000      1.1187596E-32
   5.170000      1.9797957E-32
   5.180000      2.9232605E-32
   5.190000      3.9516529E-32
   5.200000      5.0673275E-32
   5.210000      6.2723385E-32
   5.220000      7.5682823E-32
   5.230000      8.9564288E-32
   5.240000      1.0437626E-31
   5.250000      1.2012251E-31
   5.260000      1.3680160E-31
   5.270000      1.5440651E-31
   5.280000      1.7292400E-31
   5.290000      1.9233427E-31
   5.300000      2.1261014E-31
   5.310000      2.3371661E-31
   5.320000      2.5561066E-31
   5.330000      2.7824027E-31
   5.340000      3.0154390E-31
   5.350000      3.2545012E-31
   5.360000      3.4987682E-31
   5.370000      3.7473079E-31
   5.380000      3.9990703E-31
   5.390000      4.2528840E-31
   5.400000      4.5074486E-31
   5.410000      4.7613305E-31
   5.420000      5.0129591E-31
   5.430000      5.2606207E-31
   5.440000      5.5024552E-31
   5.450000      5.7364524E-31
   5.460000      5.9604480E-31
   5.470000      6.1721202E-31
   5.480000      6.3689901E-31
   5.490000      6.5484171E-31
   5.500000      6.7076002E-31
   5.510000      6.8435762E-31
   5.520000      6.9532221E-31
   5.530000      7.0332559E-31
   5.540000      7.0802385E-31
   5.550000      7.0905791E-31
   5.560000      7.0605386E-31
   5.570000      6.9862361E-31
   5.580000      6.8636560E-31
   5.590000      6.6886564E-31
   5.600000      6.4569797E-31
   5.610000      6.1642628E-31
   5.620000      5.8060506E-31
   5.630000      5.3778100E-31
   5.640000      4.8749458E-31
   5.650000      4.2928207E-31
   5.660000      3.6267706E-31
   5.670000      2.8721293E-31
   5.680000      2.0242511E-31
   5.690000      1.0785364E-31
   5.700000      3.0457615E-33
   5.710000     -1.1244100E-31
   5.720000     -2.3903560E-31
   5.730000     -3.7715024E-31
   5.740000     -5.2717668E-31
   5.750000     -6.8948226E-31
   5.760000     -8.6440617E-31
   5.770000     -1.0522551E-30
   5.780000     -1.2532980E-30
   5.790000     -1.4677622E-30
   5.800000     -1.6958287E-30
   5.810000     -1.9376258E-30
   5.820000     -2.1932249E-30
   5.830000     -2.4626341E-30
   5.840000     -2.7457931E-30
   5.850000     -3.0425664E-30
   5.860000     -3.3527386E-30
   5.870000     -3.6760063E-30
   5.880000     -4.0119731E-30
   5.890000     -4.3601433E-30
   5.900000     -4.7199138E-30
   5.910000     -5.0905695E-30
   5.920000     -5.4712743E-30
   5.930000     -5.8610664E-30
   5.940000     -6.2588506E-30
   5.950000     -6.6633919E-30
   5.960000     -7.0733087E-30
   5.970000     -7.4870677E-30
   5.980000     -7.9029753E-30
   5.990000     -8.3191733E-30
   6.000000     -8.7336326E-30
   6.010000     -9.1441484E-30
   6.020000     -9.5483333E-30
   6.030000     -9.9436132E-30
   6.040000     -1.0327223E-29
   6.050000     -1.0696205E-29
   6.060000     -1.1047400E-29
   6.070000     -1.1377451E-29
   6.080000     -1.1682798E-29
   6.090000     -1.1959674E-29
   6.100000     -1.2204109E-29
   6.110000     -1.2411932E-29
   6.120000     -1.2578766E-29
   6.130000     -1.2700035E-29
   6.140000     -1.2770966E-29
   6.150000     -1.2786592E-29
   6.160000     -1.2741766E-29
   6.170000     -1.2631156E-29
   6.180000     -1.2449265E-29
   6.190000     -1.2190435E-29
   6.200000     -1.1848863E-29
   6.210000     -1.1418611E-29
   6.220000     -1.0893623E-29
   6.230000     -1.0267745E-29
   6.240000     -9.5347375E-30
   6.250000     -8.6883041E-30
   6.260000     -7.7221117E-30
   6.270000     -6.6298137E-30
   6.280000     -5.4050795E-30
   6.290000     -4.0416268E-30
   6.300000     -2.5332509E-30
   6.310000     -8.7385977E-31
   6.320000      9.4248805E-31
   6.330000      2.9215447E-30
   6.340000      5.0688336E-30
   6.350000      7.3895991E-30
   6.360000      9.8887633E-30
   6.370000      1.2570880E-29
   6.380000      1.5440078E-29
   6.390000      1.8500003E-29
   6.400000      2.1753770E-29
   6.410000      2.5203902E-29
   6.420000      2.8852266E-29
   6.430000      3.2700006E-29
   6.440000      3.6747490E-29
   6.450000      4.0994222E-29
   6.460000      4.5438793E-29
   6.470000      5.0078792E-29
   6.480000      5.4910742E-29
   6.490000      5.9930017E-29
   6.500000      6.5130786E-29
   6.510000      7.0505906E-29
   6.520000      7.6046867E-29
   6.530000      8.1743701E-29
   6.540000      8.7584908E-29
   6.550000      9.3557385E-29
   6.560000      9.9646327E-29
   6.570000      1.0583516E-28
   6.580000      1.1210546E-28
   6.590000      1.1843690E-28
   6.600000      1.2480716E-28
   6.610000      1.3119183E-28
   6.620000      1.3756439E-28
   6.630000      1.4389611E-28
   6.640000      1.5015601E-28
   6.650000      1.5631080E-28
   6.660000      1.6232484E-28
   6.670000      1.6816006E-28
   6.680000      1.7377595E-28
   6.690000      1.7912954E-28
   6.700000      1.8417536E-28
   6.710000      1.8886538E-28
   6.720000      1.9314911E-28
   6.730000      1.9697352E-28
   6.740000      2.0028310E-28
   6.750000      2.0301983E-28
   6.760000      2.0512329E-28
   6.770000      2.0653068E-28
   6.780000      2.0717693E-28
   6.790000      2.0699464E-28
   6.800000      2.0591436E-28
   6.810000      2.0386462E-28
   6.820000      2.0077206E-28
   6.830000      1.9656158E-28
   6.840000      1.9115652E-28
   6.850000      1.8447883E-28
   6.860000      1.7644934E-28
   6.870000      1.6698794E-28
   6.880000      1.5601379E-28
   6.890000      1.4344577E-28
   6.900000      1.2920255E-28
   6.910000      1.1320310E-28
   6.920000      9.5366965E-29
   6.930000      7.5614616E-29
   6.940000      5.3867911E-29
   6.950000      3.0050481E-29
   6.960000      4.0882219E-30
   6.970000     -2.4090284E-29
   6.980000     -5.4553199E-29
   6.990000     -8.7364883E-29
   7.000000     -1.2258538E-28
   7.010000     -1.6026982E-28
   7.020000     -2.0046780E-28
   7.030000     -2.4322268E-28
   7.040000     -2.8857109E-28
   7.050000     -3.3654196E-28
   7.060000     -3.8715605E-28