  -2.600000      0.0000000E+00
  -2.590000      0.0000000E+00
  -2.580000      0.0000000E+00
  -2.570000      0.0000000E+00
  -2.560000      0.0000000E+00
  -2.550000      0.0000000E+00
  -2.540000      0.0000000E+00
  -2.530000      0.0000000E+00
  -2.520000      0.0000000E+00
  -2.510000      0.0000000E+00
  -2.500000      0.0000000E+00
  -2.490000      0.0000000E+00
  -2.480000      0.0000000E+00
  -2.470000      0.0000000E+00
  -2.460000      0.0000000E+00
  -2.450000      0.0000000E+00
  -2.440000      0.0000000E+00
  -2.430000      0.0000000E+00
  -2.420000      0.0000000E+00
  -2.410000      0.0000000E+00
  -2.400000      0.0000000E+00
  -2.390000      0.0000000E+00
  -2.380000      0.0000000E+00
  -2.370000      0.0000000E+00
  -2.360000      0.0000000E+00
  -2.350000      0.0000000E+00
  -2.340000      0.0000000E+00
  -2.330000      0.0000000E+00
  -2.320000      0.0000000E+00
  -2.310000      0.0000000E+00
  -2.300000      0.0000000E+00
  -2.290000      0.0000000E+00
  -2.280000      0.0000000E+00
  -2.270000      0.0000000E+00
  -2.260000      0.0000000E+00
  -2.250000      0.0000000E+00
  -2.240000      0.0000000E+00
  -2.230000      0.0000000E+00
  -2.220000      0.0000000E+00
  -2.210000      0.0000000E+00
  -2.200000      0.0000000E+00
  -2.190000      0.0000000E+00
  -2.180000      0.0000000E+00
  -2.170000      0.0000000E+00
  -2.160000      0.0000000E+00
  -2.150000      0.0000000E+00
  -2.140000      0.0000000E+00
  -2.130000      0.0000000E+00
  -2.120000      0.0000000E+00
  -2.110000      0.0000000E+00
  -2.100000      0.0000000E+00
  -2.090000      0.0000000E+00
  -2.080000      0.0000000E+00
  -2.070000      0.0000000E+00
  -2.060000      0.0000000E+00
  -2.050000      0.0000000E+00
  -2.040000      0.0000000E+00
  -2.030000      0.0000000E+00
  -2.020000      0.0000000E+00
  -2.010000      0.0000000E+00
  -2.000000      0.0000000E+00
  -1.990000      0.0000000E+00
  -1.980000      0.0000000E+00
  -1.970000      0.0000000E+00
  -1.960000      0.0000000E+00
  -1.950000      0.0000000E+00
  -1.940000      0.0000000E+00
  -1.930000      0.0000000E+00
  -1.920000      0.0000000E+00
  -1.910000      0.0000000E+00
  -1.900000      0.0000000E+00
  -1.890000      0.0000000E+00
  -1.880000      0.0000000E+00
  -1.870000      0.0000000E+00
  -1.860000      0.0000000E+00
  -1.850000      0.0000000E+00
  -1.840000      0.0000000E+00
  -1.830000      0.0000000E+00
  -1.820000      0.0000000E+00
  -1.810000      0.0000000E+00
  -1.800000      0.0000000E+00
  -1.790000      0.0000000E+00
  -1.780000      0.0000000E+00
  -1.770000      0.0000000E+00
  -1.760000      0.0000000E+00
  -1.750000      0.0000000E+00
  -1.740000      0.0000000E+00
  -1.730000      0.0000000E+00
  -1.720000      0.0000000E+00
  -1.710000      0.0000000E+00
  -1.700000      0.0000000E+00
  -1.690000      0.0000000E+00
  -1.680000      0.0000000E+00
  -1.670000      0.0000000E+00
  -1.660000      0.0000000E+00
  -1.650000      0.0000000E+00
  -1.640000      0.0000000E+00
  -1.630000      0.0000000E+00
  -1.620000      0.0000000E+00
  -1.610000      0.0000000E+00
  -1.600000      0.0000000E+00
  -1.590000      0.0000000E+00
  -1.580000      0.0000000E+00
  -1.570000      0.0000000E+00
  -1.560000      0.0000000E+00
  -1.550000      0.0000000E+00
  -1.540000      0.0000000E+00
  -1.530000      0.0000000E+00
  -1.520000      0.0000000E+00
  -1.510000      0.0000000E+00
  -1.500000      0.0000000E+00
  -1.490000      0.0000000E+00
  -1.480000      0.0000000E+00
  -1.470000      0.0000000E+00
  -1.460000      0.0000000E+00
  -1.450000      0.0000000E+00
  -1.440000      0.0000000E+00
  -1.430000      0.0000000E+00
  -1.420000      0.0000000E+00
  -1.410000      0.0000000E+00
  -1.400000      0.0000000E+00
  -1.390000      0.0000000E+00
  -1.380000      0.0000000E+00
  -1.370000      0.0000000E+00
  -1.360000      0.0000000E+00
  -1.350000      0.0000000E+00
  -1.340000      0.0000000E+00
  -1.330000      0.0000000E+00
  -1.320000      0.0000000E+00
  -1.310000      0.0000000E+00
  -1.300000      0.0000000E+00
  -1.290000      0.0000000E+00
  -1.280000      0.0000000E+00
  -1.270000      0.0000000E+00
  -1.260000      0.0000000E+00
  -1.250000      0.0000000E+00
  -1.240000      0.0000000E+00
  -1.230000      0.0000000E+00
  -1.220000      0.0000000E+00
  -1.210000      0.0000000E+00
  -1.200000      0.0000000E+00
  -1.190000      0.0000000E+00
  -1.180000      0.0000000E+00
  -1.170000      0.0000000E+00
  -1.160000      0.0000000E+00
  -1.150000      0.0000000E+00
  -1.140000      0.0000000E+00
  -1.130000      0.0000000E+00
  -1.120000      0.0000000E+00
  -1.110000      0.0000000E+00
  -1.100000      0.0000000E+00
  -1.090000      0.0000000E+00
  -1.080000      0.0000000E+00
  -1.070000      0.0000000E+00
  -1.060000      0.0000000E+00
  -1.050000      0.0000000E+00
  -1.040000      0.0000000E+00
  -1.030000      0.0000000E+00
  -1.020000      0.0000000E+00
  -1.010000      0.0000000E+00
  -1.000000      0.0000000E+00
 -0.9900000      0.0000000E+00
 -0.9800000      0.0000000E+00
 -0.9700000      0.0000000E+00
 -0.9600000      0.0000000E+00
 -0.9500000      0.0000000E+00
 -0.9400000      0.0000000E+00
 -0.9300000      0.0000000E+00
 -0.9200000      0.0000000E+00
 -0.9100000      0.0000000E+00
 -0.9000000      0.0000000E+00
 -0.8900000      0.0000000E+00
 -0.8800000      0.0000000E+00
 -0.8700000      0.0000000E+00
 -0.8600000      0.0000000E+00
 -0.8500000      0.0000000E+00
 -0.8400000      0.0000000E+00
 -0.8300000      0.0000000E+00
 -0.8200000      0.0000000E+00
 -0.8100000      0.0000000E+00
 -0.8000000      0.0000000E+00
 -0.7900000      0.0000000E+00
 -0.7800000      0.0000000E+00
 -0.7700000      0.0000000E+00
 -0.7600000      0.0000000E+00
 -0.7500000      0.0000000E+00
 -0.7400000      0.0000000E+00
 -0.7300000      0.0000000E+00
 -0.7200000      0.0000000E+00
 -0.7100000      0.0000000E+00
 -0.7000000      0.0000000E+00
 -0.6900000      0.0000000E+00
 -0.6800000      0.0000000E+00
 -0.6700000      0.0000000E+00
 -0.6600000      0.0000000E+00
 -0.6500000      0.0000000E+00
 -0.6400000      0.0000000E+00
 -0.6300000      0.0000000E+00
 -0.6200000      0.0000000E+00
 -0.6100000      0.0000000E+00
 -0.6000000      0.0000000E+00
 -0.5900000      0.0000000E+00
 -0.5800000      0.0000000E+00
 -0.5700000      0.0000000E+00
 -0.5600000      0.0000000E+00
 -0.5500000      0.0000000E+00
 -0.5400000      1.3341929E-38
 -0.5300000      2.0010825E-38
 -0.5200000      2.7154048E-38
 -0.5100000      3.4398318E-38
 -0.5000000      4.0475649E-38
 -0.4900000      4.5847734E-38
 -0.4800000      5.1920866E-38
 -0.4700000      5.6128124E-38
 -0.4600000      5.6924129E-38
 -0.4500000      5.4985545E-38
 -0.4400000      4.9654529E-38
 -0.4300000      4.0003697E-38
 -0.4200000      2.5538412E-38
 -0.4100000      0.0000000E+00
 -0.4000000      0.0000000E+00
 -0.3900000     -3.2671190E-38
 -0.3800000     -7.5964715E-38
 -0.3700000     -1.2299739E-37
 -0.3600000     -1.7909724E-37
 -0.3500000     -2.5336191E-37
 -0.3400000     -3.3650541E-37
 -0.3300000     -4.1955656E-37
 -0.3200000     -5.0773770E-37
 -0.3100000     -5.8466351E-37
 -0.3000000     -5.8479490E-37
 -0.2900000     -4.9003627E-37
 -0.2800000     -3.0667323E-37
 -0.2700000      0.0000000E+00
 -0.2600000      4.5516900E-37
 -0.2500000      9.8021926E-37
 -0.2400000      1.6716195E-36
 -0.2300000      2.6028310E-36
 -0.2200000      3.7589492E-36
 -0.2100000      5.0937735E-36
 -0.2000000      6.4208050E-36
 -0.1900000      7.5749799E-36
 -0.1800000      8.4220834E-36
 -0.1700000      8.8235451E-36
 -0.1600000      8.7065044E-36
 -0.1500000      8.0446467E-36
 -0.1400000      6.8611167E-36
 -0.1300000      4.9500771E-36
 -0.1200000      2.2025307E-36
 -0.1100000     -1.3381594E-36
 -0.1000000     -5.5770929E-36
 -9.0000004E-02 -1.0520252E-35
 -7.9999998E-02 -1.6343292E-35
 -7.0000000E-02 -2.3031758E-35
 -5.9999999E-02 -3.0075155E-35
 -5.0000001E-02 -3.7685382E-35
 -3.9999999E-02 -4.6479710E-35
 -2.9999999E-02 -5.6145295E-35
 -2.0000000E-02 -6.6481340E-35
 -9.9999998E-03 -7.6496466E-35
 -3.4694470E-17 -8.5861201E-35
  9.9999998E-03 -9.3350960E-35
  2.0000000E-02 -9.7785288E-35
  2.9999999E-02 -9.6192201E-35
  3.9999999E-02 -8.4481488E-35
  5.0000001E-02 -5.0253991E-35
  5.9999999E-02  7.5365926E-36
  7.0000000E-02  7.7274002E-35
  7.9999998E-02  1.5765894E-34
  9.0000004E-02  2.4664117E-34
  0.1000000      3.3979186E-34
  0.1100000      4.3073001E-34
  0.1200000      5.1872858E-34
  0.1300000      6.0267816E-34
  0.1400000      6.7437027E-34
  0.1500000      7.2579301E-34
  0.1600000      7.4245881E-34
  0.1700000      7.1959668E-34
  0.1800000      6.6094213E-34
  0.1900000      5.5813124E-34
  0.2000000      4.0684773E-34
  0.2100000      2.0965589E-34
  0.2200000     -3.0717848E-35
  0.2300000     -3.0862421E-34
  0.2400000     -6.1357880E-34
  0.2500000     -9.2926401E-34
  0.2600000     -1.2358567E-33
  0.2700000     -1.5066576E-33
  0.2800000     -1.7063204E-33
  0.2900000     -1.7923451E-33
  0.3000000     -1.7123507E-33
  0.3100000     -1.4041452E-33
  0.3200000     -7.9475338E-34
  0.3300000      2.0065369E-34
  0.3400000      1.6800121E-33
  0.3500000      3.7552383E-33
  0.3600000      6.5543346E-33
  0.3700000      1.0221593E-32
  0.3800000      1.4918281E-32
  0.3900000      2.0825342E-32
  0.4000000      2.8144041E-32
  0.4100000      3.7097476E-32
  0.4200000      4.7932119E-32
  0.4300000      6.0918872E-32
  0.4400000      7.6354765E-32
  0.4500000      9.4564588E-32
  0.4600000      1.1590185E-31
  0.4700000      1.4075010E-31
  0.4800000      1.6952399E-31
  0.4900000      2.0267025E-31
  0.5000000      2.4066822E-31
  0.5100000      2.8403047E-31
  0.5200000      3.3330277E-31
  0.5300000      3.8906406E-31
  0.5400000      4.5192586E-31
  0.5500000      5.2253160E-31
  0.5600000      6.0155514E-31
  0.5700000      6.8969982E-31
  0.5800000      7.8769613E-31
  0.5900000      8.9630024E-31
  0.6000000      1.0162916E-30
  0.6100000      1.1484711E-30
  0.6200000      1.2936591E-30
  0.6300000      1.4526928E-30
  0.6400000      1.6264258E-30
  0.6500000      1.8157263E-30
  0.6600000      2.0214773E-30
  0.6700000      2.2445762E-30
  0.6800000      2.4859368E-30
  0.6900000      2.7464912E-30
  0.7000000      3.0271930E-30
  0.7100000      3.3290226E-30
  0.7200000      3.6529918E-30
  0.7300000      4.0001520E-30
  0.7400000      4.3716018E-30
  0.7500000      4.7684957E-30
  0.7600000      5.1920536E-30
  0.7700000      5.6435740E-30
  0.7800000      6.1244418E-30
  0.7900000      6.6361430E-30
  0.8000000      7.1802746E-30
  0.8100000      7.7585561E-30
  0.8200000      8.3728398E-30
  0.8300000      9.0251244E-30
  0.8400000      9.7175609E-30
  0.8500000      1.0452465E-29
  0.8600000      1.1232320E-29
  0.8700000      1.2059791E-29
  0.8800000      1.2937728E-29
  0.8900000      1.3869168E-29
  0.9000000      1.4857344E-29
  0.9100000      1.5905694E-29
  0.9200000      1.7017860E-29
  0.9300000      1.8197700E-29
  0.9400000      1.9449292E-29
  0.9500000      2.0776952E-29
  0.9600000      2.2185226E-29
  0.9700000      2.3678931E-29
  0.9800000      2.5263145E-29
  0.9900000      2.6943245E-29
   1.000000      2.8724926E-29
   1.010000      3.0614215E-29
   1.020000      3.2617504E-29
   1.030000      3.4741585E-29
   1.040000      3.6993666E-29
   1.050000      3.9381412E-29
   1.060000      4.1912978E-29
   1.070000      4.4597029E-29
   1.080000      4.7442765E-29
   1.090000      5.0459963E-29
   1.100000      5.3658978E-29
   1.110000      5.7050776E-29
   1.120000      6.0646944E-29
   1.130000      6.4459690E-29
   1.140000      6.8501843E-29
   1.150000      7.2786869E-29
   1.160000      7.7328862E-29
   1.170000      8.2142513E-29
   1.180000      8.7243140E-29
   1.190000      9.2646661E-29
   1.200000      9.8369574E-29
   1.210000      1.0442898E-28
   1.220000      1.1084256E-28
   1.230000      1.1762860E-28
   1.240000      1.2480599E-28
   1.250000      1.3239427E-28
   1.260000      1.4041368E-28
   1.270000      1.4888512E-28
   1.280000      1.5783033E-28
   1.290000      1.6727183E-28
   1.300000      1.7723308E-28
   1.310000      1.8773852E-28
   1.320000      1.9881364E-28
   1.330000      2.1048503E-28
   1.340000      2.2278048E-28
   1.350000      2.3572903E-28
   1.360000      2.4936106E-28
   1.370000      2.6370822E-28
   1.380000      2.7880352E-28
   1.390000      2.9468129E-28
   1.400000      3.1137716E-28
   1.410000      3.2892796E-28
   1.420000      3.4737173E-28
   1.430000      3.6674750E-28
   1.440000      3.8709531E-28
   1.450000      4.0845589E-28
   1.460000      4.3087068E-28
   1.470000      4.5438157E-28
   1.480000      4.7903083E-28
   1.490000      5.0486087E-28
   1.500000      5.3191412E-28
   1.510000      5.6023314E-28
   1.520000      5.8986005E-28
   1.530000      6.2083719E-28
   1.540000      6.5320634E-28
   1.550000      6.8700926E-28
   1.560000      7.2228753E-28
   1.570000      7.5908251E-28
   1.580000      7.9743548E-28
   1.590000      8.3738779E-28
   1.600000      8.7898095E-28
   1.610000      9.2225649E-28
   1.620000      9.6725633E-28
   1.630000      1.0140223E-27
   1.640000      1.0625968E-27
   1.650000      1.1130217E-27
   1.660000      1.1653392E-27
   1.670000      1.2195907E-27
   1.680000      1.2758172E-27
   1.690000      1.3340581E-27
   1.700000      1.3943515E-27
   1.710000      1.4567331E-27
   1.720000      1.5212359E-27
   1.730000      1.5878897E-27
   1.740000      1.6567198E-27
   1.750000      1.7277471E-27
   1.760000      1.8009872E-27
   1.770000      1.8764499E-27
   1.780000      1.9541390E-27
   1.790000      2.0340513E-27
   1.800000      2.1161764E-27
   1.810000      2.2004982E-27
   1.820000      2.2869927E-27
   1.830000      2.3756292E-27
   1.840000      2.4663707E-27
   1.850000      2.5591742E-27
   1.860000      2.6539906E-27
   1.870000      2.7507663E-27
   1.880000      2.8494424E-27
   1.890000      2.9499563E-27
   1.900000      3.0522417E-27
   1.910000      3.1562288E-27
   1.920000      3.2618443E-27
   1.930000      3.3690131E-27
   1.940000      3.4776552E-27
   1.950000      3.5876886E-27
   1.960000      3.6990250E-27
   1.970000      3.8115737E-27
   1.980000      3.9252359E-27
   1.990000      4.0399054E-27
   2.000000      4.1554693E-27
   2.010000      4.2718031E-27
   2.020000      4.3887726E-27
   2.030000      4.5062293E-27
   2.040000      4.6240122E-27
   2.050000      4.7419457E-27
   2.060000      4.8598396E-27
   2.070000      4.9774866E-27
   2.080000      5.0946648E-27
   2.090000      5.2111362E-27
   2.100000      5.3266488E-27
   2.110000      5.4409378E-27
   2.120000      5.5537260E-27
   2.130000      5.6647262E-27
   2.140000      5.7736429E-27
   2.150000      5.8801746E-27
   2.160000      5.9840153E-27
   2.170000      6.0848566E-27
   2.180000      6.1823888E-27
   2.190000      6.2763033E-27
   2.200000      6.3662916E-27
   2.210000      6.4520467E-27
   2.220000      6.5332628E-27
   2.230000      6.6096329E-27
   2.240000      6.6808476E-27
   2.250000      6.7465942E-27
   2.260000      6.8065515E-27
   2.270000      6.8603882E-27
   2.280000      6.9077599E-27
   2.290000      6.9483038E-27
   2.300000      6.9816378E-27
   2.310000      7.0073551E-27
   2.320000      7.0250221E-27
   2.330000      7.0341772E-27
   2.340000      7.0343297E-27
   2.350000      7.0249627E-27
   2.360000      7.0055286E-27
   2.370000      6.9754556E-27
   2.380000      6.9341498E-27
   2.390000      6.8810003E-27
   2.400000      6.8153854E-27
   2.410000      6.7366765E-27
   2.420000      6.6442434E-27
   2.430000      6.5374652E-27
   2.440000      6.4157356E-27
   2.450000      6.2784654E-27
   2.460000      6.1250909E-27
   2.470000      5.9550782E-27
   2.480000      5.7679229E-27
   2.490000      5.5631515E-27
   2.500000      5.3403233E-27
   2.510000      5.0990263E-27
   2.520000      4.8388728E-27
   2.530000      4.5594966E-27
   2.540000      4.2605430E-27
   2.550000      3.9416641E-27
   2.560000      3.6025105E-27
   2.570000      3.2427237E-27
   2.580000      2.8619313E-27
   2.590000      2.4597398E-27
   2.600000      2.0357313E-27
   2.610000      1.5894633E-27
   2.620000      1.1204692E-27
   2.630000      6.2826213E-28
   2.640000      1.1234690E-28
   2.650000     -4.2777340E-28
   2.660000     -9.9258443E-28
   2.670000     -1.5825411E-27
   2.680000     -2.1980513E-27
   2.690000     -2.8394559E-27
   2.700000     -3.5070083E-27
   2.710000     -4.2008557E-27
   2.720000     -4.9210172E-27
   2.730000     -5.6673659E-27
   2.740000     -6.4396149E-27
   2.750000     -7.2373088E-27
   2.760000     -8.0598111E-27
   2.770000     -8.9063012E-27
   2.780000     -9.7757824E-27
   2.790000     -1.0667077E-26
   2.800000     -1.1578846E-26
   2.810000     -1.2509594E-26
   2.820000     -1.3457690E-26
   2.830000     -1.4421380E-26
   2.840000     -1.5398818E-26
   2.850000     -1.6388066E-26
   2.860000     -1.7387121E-26
   2.870000     -1.8393922E-26
   2.880000     -1.9406359E-26
   2.890000     -2.0422281E-26
   2.900000     -2.1439481E-26
   2.910000     -2.2455694E-26
   2.920000     -2.3468576E-26
   2.930000     -2.4475691E-26
   2.940000     -2.5474463E-26
   2.950000     -2.6462163E-26
   2.960000     -2.7435855E-26
   2.970000     -2.8392374E-26
   2.980000     -2.9328286E-26
   2.990000     -3.0239855E-26
   3.000000     -3.1123012E-26
   3.010000     -3.1973337E-26
   3.020000     -3.2786058E-26
   3.030000     -3.3556044E-26
   3.040000     -3.4277818E-26
   3.050000     -3.4945595E-26
   3.060000     -3.5553302E-26
   3.070000     -3.6094654E-26
   3.080000     -3.6563201E-26
   3.090000     -3.6952408E-26
   3.100000     -3.7255737E-26
   3.110000     -3.7466733E-26
   3.120000     -3.7579118E-26
   3.130000     -3.7586874E-26
   3.140000     -3.7484325E-26
   3.150000     -3.7266214E-26
   3.160000     -3.6927772E-26
   3.170000     -3.6464775E-26
   3.180000     -3.5873579E-26
   3.190000     -3.5151155E-26
   3.200000     -3.4295102E-26
   3.210000     -3.3303658E-26
   3.220000     -3.2175673E-26
   3.230000     -3.0910618E-26
   3.240000     -2.9508550E-26
   3.250000     -2.7970108E-26
   3.260000     -2.6296509E-26
   3.270000     -2.4489529E-26
   3.280000     -2.2551541E-26
   3.290000     -2.0485541E-26
   3.300000     -1.8295200E-26
   3.310000     -1.5984964E-26
   3.320000     -1.3560154E-26
   3.330000     -1.1027115E-26
   3.340000     -8.3933753E-27
   3.350000     -5.6678323E-27
   3.360000     -2.8609684E-27
   3.370000      1.4932185E-29
   3.380000      2.9455512E-27
   3.390000      5.9143086E-27
   3.400000      8.9021466E-27
   3.410000      1.1887326E-26
   3.420000      1.4845239E-26
   3.430000      1.7748263E-26
   3.440000      2.0565642E-26
   3.450000      2.3263434E-26
   3.460000      2.5804466E-26
   3.470000      2.8148363E-26
   3.480000      3.0251611E-26
   3.490000      3.2067664E-26
   3.500000      3.3547087E-26
   3.510000      3.4637739E-26
   3.520000      3.5284944E-26
   3.530000      3.5431721E-26
   3.540000      3.5018978E-26
   3.550000      3.3985730E-26
   3.560000      3.2269274E-26
   3.570000      2.9805365E-26
   3.580000      2.6528348E-26
   3.590000      2.2371257E-26
   3.600000      1.7265897E-26
   3.610000      1.1142874E-26
   3.620000      3.9316254E-27
   3.630000     -4.4396021E-27
   3.640000     -1.4043742E-26
   3.650000     -2.4954909E-26
   3.660000     -3.7248379E-26
   3.670000     -5.1000508E-26
   3.680000     -6.6288623E-26
   3.690000     -8.3190824E-26
   3.700000     -1.0178565E-25
   3.710000     -1.2215173E-25
   3.720000     -1.4436728E-25
   3.730000     -1.6850940E-25
   3.740000     -1.9465338E-25
   3.750000     -2.2287177E-25
   3.760000     -2.5323342E-25
   3.770000     -2.8580238E-25
   3.780000     -3.2063663E-25
   3.790000     -3.5778685E-25
   3.800000     -3.9729518E-25
   3.810000     -4.3919372E-25
   3.820000     -4.8350335E-25
   3.830000     -5.3023217E-25
   3.840000     -5.7937445E-25
   3.850000     -6.3090916E-25
   3.860000     -6.8479906E-25
   3.870000     -7.4098932E-25
   3.880000     -7.9940679E-25
   3.890000     -8.5995887E-25
   3.900000     -9.2253260E-25
   3.910000     -9.8699407E-25
   3.920000     -1.0531876E-24
   3.930000     -1.1209348E-24
   3.940000     -1.1900337E-24
   3.950000     -1.2602582E-24
   3.960000     -1.3313572E-24
   3.970000     -1.4030530E-24
   3.980000     -1.4750408E-24
   3.990000     -1.5469870E-24
   4.000000     -1.6185278E-24
   4.010000     -1.6892677E-24
   4.020000     -1.7587778E-24
   4.030000     -1.8265936E-24
   4.040000     -1.8922136E-24
   4.050000     -1.9550971E-24
   4.060000     -2.0146612E-24
   4.070000     -2.0702808E-24
   4.080000     -2.1212850E-24
   4.090000     -2.1669559E-24
   4.100000     -2.2065278E-24
   4.110000     -2.2391848E-24
   4.120000     -2.2640616E-24
   4.130000     -2.2802413E-24
   4.140000     -2.2867563E-24
   4.150000     -2.2825886E-24
   4.160000     -2.2666703E-24
   4.170000     -2.2378850E-24
   4.180000     -2.1950702E-24
   4.190000     -2.1370183E-24
   4.200000     -2.0624796E-24
   4.210000     -1.9701651E-24
   4.220000     -1.8587504E-24
   4.230000     -1.7268775E-24
   4.240000     -1.5731595E-24
   4.250000     -1.3961842E-24
   4.260000     -1.1945175E-24
   4.270000     -9.6670812E-25
   4.280000     -7.1129137E-25
   4.290000     -4.2679322E-25
   4.300000     -1.1173517E-25
   4.310000      2.3536104E-25
   4.320000      6.1596823E-25
   4.330000      1.0315489E-24
   4.340000      1.4835492E-24
   4.350000      1.9733914E-24
   4.360000      2.5024678E-24
   4.370000      3.0721314E-24
   4.380000      3.6836878E-24
   4.390000      4.3383839E-24
   4.400000      5.0373983E-24
   4.410000      5.7818262E-24
   4.420000      6.5726684E-24
   4.430000      7.4108141E-24
   4.440000      8.2970268E-24
   4.450000      9.2319232E-24
   4.460000      1.0215960E-23
   4.470000      1.1249410E-23
   4.480000      1.2332343E-23
   4.490000      1.3464605E-23
   4.500000      1.4645794E-23
   4.510000      1.5875244E-23
   4.520000      1.7151993E-23
   4.530000      1.8474767E-23
   4.540000      1.9841956E-23
   4.550000      2.1251588E-23
   4.560000      2.2701311E-23
   4.570000      2.4188361E-23
   4.580000      2.5709548E-23
   4.590000      2.7261231E-23
   4.600000      2.8839291E-23
   4.610000      3.0439113E-23
   4.620000      3.2055562E-23
   4.630000      3.3682956E-23
   4.640000      3.5315053E-23
   4.650000      3.6945010E-23
   4.660000      3.8565365E-23
   4.670000      4.0168031E-23
   4.680000      4.1744241E-23
   4.690000      4.3284539E-23
   4.700000      4.4778752E-23
   4.710000      4.6215965E-23
   4.720000      4.7584500E-23
   4.730000      4.8871883E-23
   4.740000      5.0064824E-23
   4.750000      5.1149183E-23
   4.760000      5.2109977E-23
   4.770000      5.2931333E-23
   4.780000      5.3596491E-23
   4.790000      5.4087775E-23
   4.800000      5.4386608E-23
   4.810000      5.4473483E-23
   4.820000      5.4327980E-23
   4.830000      5.3928772E-23
   4.840000      5.3253614E-23
   4.850000      5.2279387E-23
   4.860000      5.0982099E-23
   4.870000      4.9336920E-23
   4.880000      4.7318222E-23
   4.890000      4.4899618E-23
   4.900000      4.2053992E-23
   4.910000      3.8753575E-23
   4.920000      3.4969983E-23
   4.930000      3.0674298E-23
   4.940000      2.5837137E-23
   4.950000      2.0428711E-23
   4.960000      1.4418934E-23
   4.970000      7.7775027E-24
   4.980000      4.7401010E-25
   4.990000     -7.5219662E-24
   5.000000     -1.6240742E-23
   5.010000     -2.5712394E-23
   5.020000     -3.5966630E-23
   5.030000     -4.7032648E-23
   5.040000     -5.8938973E-23
   5.050000     -7.1713275E-23
   5.060000     -8.5382221E-23
   5.070000     -9.9971257E-23
   5.080000     -1.1550440E-22
   5.090000     -1.3200400E-22
   5.100000     -1.4949056E-22
   5.110000     -1.6798243E-22
   5.120000     -1.8749556E-22
   5.130000     -2.0804322E-22
   5.140000     -2.2963569E-22
   5.150000     -2.5227996E-22
   5.160000     -2.7597944E-22
   5.170000     -3.0073354E-22
   5.180000     -3.2653737E-22
   5.190000     -3.5338146E-22
   5.200000     -3.8125125E-22
   5.210000     -4.1012682E-22
   5.220000     -4.3998244E-22
   5.230000     -4.7078613E-22
   5.240000     -5.0249950E-22
   5.250000     -5.3507701E-22
   5.260000     -5.6846584E-22
   5.270000     -6.0260537E-22
   5.280000     -6.3742667E-22
   5.290000     -6.7285231E-22
   5.300000     -7.0879574E-22
   5.310000     -7.4516099E-22
   5.320000     -7.8184219E-22
   5.330000     -8.1872317E-22
   5.340000     -8.5567694E-22
   5.350000     -8.9256575E-22
   5.360000     -9.2923988E-22
   5.370000     -9.6553818E-22
   5.380000     -1.0012868E-21
   5.390000     -1.0362994E-21
   5.400000     -1.0703766E-21
   5.410000     -1.1033056E-21
   5.420000     -1.1348599E-21
   5.430000     -1.1647993E-21
   5.440000     -1.1928692E-21
   5.450000     -1.2188000E-21
   5.460000     -1.2423085E-21
   5.470000     -1.2630956E-21
   5.480000     -1.2808479E-21
   5.490000     -1.2952371E-21
   5.500000     -1.3059196E-21
   5.510000     -1.3125370E-21
   5.520000     -1.3147163E-21
   5.530000     -1.3120699E-21
   5.540000     -1.3041958E-21
   5.550000     -1.2906782E-21
   5.560000     -1.2710879E-21
   5.570000     -1.2449826E-21
   5.580000     -1.2119077E-21
   5.590000     -1.1713974E-21
   5.600000     -1.1229746E-21
   5.610000     -1.0661527E-21
   5.620000     -1.0004361E-21
   5.630000     -9.2532137E-22
   5.640000     -8.4029888E-22
   5.650000     -7.4485388E-22
   5.660000     -6.3846777E-22
   5.670000     -5.2061982E-22
   5.680000     -3.9078920E-22
   5.690000     -2.4845650E-22
   5.700000     -9.3105794E-23
   5.710000      7.5773069E-23
   5.720000      2.5868223E-22
   5.730000      4.5611347E-22
   5.740000      6.6854581E-22
   5.750000      8.9644245E-22
   5.760000      1.1402478E-21
   5.770000      1.4003843E-21
   5.780000      1.6772499E-21
   5.790000      1.9712136E-21
   5.800000      2.2826126E-21
   5.810000      2.6117485E-21
   5.820000      2.9588826E-21
   5.830000      3.3242329E-21
   5.840000      3.7079688E-21
   5.850000      4.1102076E-21
   5.860000      4.5310090E-21
   5.870000      4.9703712E-21
   5.880000      5.4282258E-21
   5.890000      5.9044326E-21
   5.900000      6.3987744E-21
   5.910000      6.9109518E-21
   5.920000      7.4405793E-21
   5.930000      7.9871793E-21
   5.940000      8.5501734E-21
   5.950000      9.1288824E-21
   5.960000      9.7225161E-21
   5.970000      1.0330172E-20
   5.980000      1.0950825E-20
   5.990000      1.1583325E-20
   6.000000      1.2226389E-20
   6.010000      1.2878601E-20
   6.020000      1.3538399E-20
   6.030000      1.4204072E-20
   6.040000      1.4873762E-20
   6.050000      1.5545449E-20
   6.060000      1.6216947E-20
   6.070000      1.6885908E-20
   6.080000      1.7549808E-20
   6.090000      1.8205942E-20
   6.100000      1.8851432E-20
   6.110000      1.9483210E-20
   6.120000      2.0098025E-20
   6.130000      2.0692429E-20
   6.140000      2.1262781E-20
   6.150000      2.1805245E-20
   6.160000      2.2315792E-20
   6.170000      2.2790188E-20
   6.180000      2.3224000E-20
   6.190000      2.3612607E-20
   6.200000      2.3951179E-20
   6.210000      2.4234694E-20
   6.220000      2.4457939E-20
   6.230000      2.4615510E-20
   6.240000      2.4701818E-20
   6.250000      2.4711097E-20
   6.260000      2.4637405E-20
   6.270000      2.4474638E-20
   6.280000      2.4216536E-20
   6.290000      2.3856687E-20
   6.300000      2.3388545E-20
   6.310000      2.2805444E-20
   6.320000      2.2100602E-20
   6.330000      2.1267143E-20
   6.340000      2.0298114E-20
   6.350000      1.9186495E-20
   6.360000      1.7925225E-20
   6.370000      1.6507220E-20
   6.380000      1.4925398E-20
   6.390000      1.3172700E-20
   6.400000      1.1242114E-20
   6.410000      9.1267054E-21
   6.420000      6.8196429E-21
   6.430000      4.3142287E-21
   6.440000      1.6039338E-21
   6.450000     -1.3175740E-21
   6.460000     -4.4563883E-21
   6.470000     -7.8183310E-21
   6.480000     -1.1408911E-20
   6.490000     -1.5233284E-20
   6.500000     -1.9296201E-20
   6.510000     -2.3601986E-20
   6.520000     -2.8154472E-20
   6.530000     -3.2956956E-20
   6.540000     -3.8012151E-20
   6.550000     -4.3322140E-20
   6.560000     -4.8888313E-20
   6.570000     -5.4711322E-20
   6.580000     -6.0791035E-20
   6.590000     -6.7126450E-20
   6.600000     -7.3715661E-20
   6.610000     -8.0555811E-20
   6.620000     -8.7643004E-20
   6.630000     -9.4972257E-20
   6.640000     -1.0253744E-19
   6.650000     -1.1033122E-19
   6.660000     -1.1834501E-19
   6.670000     -1.2656884E-19
   6.680000     -1.3499142E-19
   6.690000     -1.4359995E-19
   6.700000     -1.5238016E-19
   6.710000     -1.6131618E-19
   6.720000     -1.7039053E-19
   6.730000     -1.7958401E-19
   6.740000     -1.8887571E-19
   6.750000     -1.9824291E-19
   6.760000     -2.0766103E-19
   6.770000     -2.1710361E-19
   6.780000     -2.2654220E-19
   6.790000     -2.3594645E-19
   6.800000     -2.4528387E-19
   6.810000     -2.5451998E-19
   6.820000     -2.6361817E-19
   6.830000     -2.7253973E-19
   6.840000     -2.8124376E-19
   6.850000     -2.8968723E-19
   6.860000     -2.9782488E-19
   6.870000     -3.0560935E-19
   6.880000     -3.1299100E-19
   6.890000     -3.1991805E-19
   6.900000     -3.2633661E-19
   6.910000     -3.3219064E-19
   6.920000     -3.3742194E-19
   6.930000     -3.4197029E-19
   6.940000     -3.4577354E-19
   6.950000     -3.4876747E-19
   6.960000     -3.5088601E-19
   6.970000     -3.5206138E-19
   6.980000     -3.5222405E-19
   6.990000     -3.5130288E-19
   7.000000     -3.4922524E-19
   7.010000     -3.4591721E-19
   7.020000     -3.4130359E-19
   7.030000     -3.3530818E-19
   7.040000     -3.2785391E-19
   7.050000     -3.1886306E-19
   7.060000     -3.0825728E-19