  -2.600000      0.0000000E+00
  -2.590000      0.0000000E+00
  -2.580000      0.0000000E+00
  -2.570000      0.0000000E+00
  -2.560000      0.0000000E+00
  -2.550000      0.0000000E+00
  -2.540000      0.0000000E+00
  -2.530000      0.0000000E+00
  -2.520000      0.0000000E+00
  -2.510000      0.0000000E+00
  -2.500000      0.0000000E+00
  -2.490000      0.0000000E+00
  -2.480000      0.0000000E+00
  -2.470000      0.0000000E+00
  -2.460000      0.0000000E+00
  -2.450000      0.0000000E+00
  -2.440000      0.0000000E+00
  -2.430000      0.0000000E+00
  -2.420000      0.0000000E+00
  -2.410000      0.0000000E+00
  -2.400000      0.0000000E+00
  -2.390000      0.0000000E+00
  -2.380000      0.0000000E+00
  -2.370000      0.0000000E+00
  -2.360000      0.0000000E+00
  -2.350000      0.0000000E+00
  -2.340000      0.0000000E+00
  -2.330000      0.0000000E+00
  -2.320000      0.0000000E+00
  -2.310000      0.0000000E+00
  -2.300000      0.0000000E+00
  -2.290000      0.0000000E+00
  -2.280000      0.0000000E+00
  -2.270000      0.0000000E+00
  -2.260000      0.0000000E+00
  -2.250000      0.0000000E+00
  -2.240000      0.0000000E+00
  -2.230000      0.0000000E+00
  -2.220000      0.0000000E+00
  -2.210000      0.0000000E+00
  -2.200000      0.0000000E+00
  -2.190000      0.0000000E+00
  -2.180000      0.0000000E+00
  -2.170000      0.0000000E+00
  -2.160000      0.0000000E+00
  -2.150000      0.0000000E+00
  -2.140000      0.0000000E+00
  -2.130000      0.0000000E+00
  -2.120000      0.0000000E+00
  -2.110000      0.0000000E+00
  -2.100000      0.0000000E+00
  -2.090000      0.0000000E+00
  -2.080000      0.0000000E+00
  -2.070000      0.0000000E+00
  -2.060000      0.0000000E+00
  -2.050000      0.0000000E+00
  -2.040000      0.0000000E+00
  -2.030000      0.0000000E+00
  -2.020000      0.0000000E+00
  -2.010000      0.0000000E+00
  -2.000000      0.0000000E+00
  -1.990000      0.0000000E+00
  -1.980000      0.0000000E+00
  -1.970000      0.0000000E+00
  -1.960000      0.0000000E+00
  -1.950000      0.0000000E+00
  -1.940000      0.0000000E+00
  -1.930000      0.0000000E+00
  -1.920000      0.0000000E+00
  -1.910000      0.0000000E+00
  -1.900000      0.0000000E+00
  -1.890000      0.0000000E+00
  -1.880000      0.0000000E+00
  -1.870000      0.0000000E+00
  -1.860000      0.0000000E+00
  -1.850000      0.0000000E+00
  -1.840000      0.0000000E+00
  -1.830000      0.0000000E+00
  -1.820000      0.0000000E+00
  -1.810000      0.0000000E+00
  -1.800000      0.0000000E+00
  -1.790000      0.0000000E+00
  -1.780000      0.0000000E+00
  -1.770000      0.0000000E+00
  -1.760000      0.0000000E+00
  -1.750000      0.0000000E+00
  -1.740000      0.0000000E+00
  -1.730000      0.0000000E+00
  -1.720000      0.0000000E+00
  -1.710000      0.0000000E+00
  -1.700000      0.0000000E+00
  -1.690000      0.0000000E+00
  -1.680000      0.0000000E+00
  -1.670000      0.0000000E+00
  -1.660000      0.0000000E+00
  -1.650000      0.0000000E+00
  -1.640000      0.0000000E+00
  -1.630000      0.0000000E+00
  -1.620000      0.0000000E+00
  -1.610000      0.0000000E+00
  -1.600000      0.0000000E+00
  -1.590000      0.0000000E+00
  -1.580000      0.0000000E+00
  -1.570000      0.0000000E+00
  -1.560000      0.0000000E+00
  -1.550000      0.0000000E+00
  -1.540000      0.0000000E+00
  -1.530000      0.0000000E+00
  -1.520000      0.0000000E+00
  -1.510000      0.0000000E+00
  -1.500000      0.0000000E+00
  -1.490000      0.0000000E+00
  -1.480000      0.0000000E+00
  -1.470000      0.0000000E+00
  -1.460000      0.0000000E+00
  -1.450000      0.0000000E+00
  -1.440000      0.0000000E+00
  -1.430000      0.0000000E+00
  -1.420000      0.0000000E+00
  -1.410000      0.0000000E+00
  -1.400000      0.0000000E+00
  -1.390000      0.0000000E+00
  -1.380000      0.0000000E+00
  -1.370000      0.0000000E+00
  -1.360000      0.0000000E+00
  -1.350000      0.0000000E+00
  -1.340000      0.0000000E+00
  -1.330000      0.0000000E+00
  -1.320000      0.0000000E+00
  -1.310000      0.0000000E+00
  -1.300000      0.0000000E+00
  -1.290000      0.0000000E+00
  -1.280000      0.0000000E+00
  -1.270000      0.0000000E+00
  -1.260000      0.0000000E+00
  -1.250000      0.0000000E+00
  -1.240000      0.0000000E+00
  -1.230000      0.0000000E+00
  -1.220000      0.0000000E+00
  -1.210000      0.0000000E+00
  -1.200000      0.0000000E+00
  -1.190000      0.0000000E+00
  -1.180000      0.0000000E+00
  -1.170000      0.0000000E+00
  -1.160000      0.0000000E+00
  -1.150000      0.0000000E+00
  -1.140000      0.0000000E+00
  -1.130000      0.0000000E+00
  -1.120000      0.0000000E+00
  -1.110000      0.0000000E+00
  -1.100000      0.0000000E+00
  -1.090000      0.0000000E+00
  -1.080000      0.0000000E+00
  -1.070000      0.0000000E+00
  -1.060000      0.0000000E+00
  -1.050000      0.0000000E+00
  -1.040000      0.0000000E+00
  -1.030000      0.0000000E+00
  -1.020000      0.0000000E+00
  -1.010000      0.0000000E+00
  -1.000000      0.0000000E+00
 -0.9900000      0.0000000E+00
 -0.9800000      0.0000000E+00
 -0.9700000      0.0000000E+00
 -0.9600000      0.0000000E+00
 -0.9500000      0.0000000E+00
 -0.9400000      0.0000000E+00
 -0.9300000      0.0000000E+00
 -0.9200000      0.0000000E+00
 -0.9100000      0.0000000E+00
 -0.9000000      0.0000000E+00
 -0.8900000      0.0000000E+00
 -0.8800000      0.0000000E+00
 -0.8700000      0.0000000E+00
 -0.8600000      0.0000000E+00
 -0.8500000      0.0000000E+00
 -0.8400000      0.0000000E+00
 -0.8300000      0.0000000E+00
 -0.8200000      0.0000000E+00
 -0.8100000      0.0000000E+00
 -0.8000000      0.0000000E+00
 -0.7900000      0.0000000E+00
 -0.7800000      0.0000000E+00
 -0.7700000      0.0000000E+00
 -0.7600000      0.0000000E+00
 -0.7500000      0.0000000E+00
 -0.7400000      0.0000000E+00
 -0.7300000      0.0000000E+00
 -0.7200000      0.0000000E+00
 -0.7100000      0.0000000E+00
 -0.7000000      0.0000000E+00
 -0.6900000      0.0000000E+00
 -0.6800000      0.0000000E+00
 -0.6700000      0.0000000E+00
 -0.6600000      0.0000000E+00
 -0.6500000      0.0000000E+00
 -0.6400000      0.0000000E+00
 -0.6300000      0.0000000E+00
 -0.6200000      0.0000000E+00
 -0.6100000      0.0000000E+00
 -0.6000000      0.0000000E+00
 -0.5900000      0.0000000E+00
 -0.5800000      0.0000000E+00
 -0.5700000      0.0000000E+00
 -0.5600000      0.0000000E+00
 -0.5500000      0.0000000E+00
 -0.5400000      0.0000000E+00
 -0.5300000      0.0000000E+00
 -0.5200000      0.0000000E+00
 -0.5100000      0.0000000E+00
 -0.5000000      0.0000000E+00
 -0.4900000      1.7692094E-38
 -0.4800000      2.5810934E-38
 -0.4700000      3.5027207E-38
 -0.4600000      4.4783677E-38
 -0.4500000      5.2484519E-38
 -0.4400000      5.2075362E-38
 -0.4300000      4.3176049E-38
 -0.4200000      2.7311680E-38
 -0.4100000      0.0000000E+00
 -0.4000000     -4.2791185E-38
 -0.3900000     -1.1329944E-37
 -0.3800000     -1.8565140E-37
 -0.3700000     -2.5851741E-37
 -0.3600000     -3.3706517E-37
 -0.3500000     -2.4279191E-37
 -0.3400000      6.8640251E-38
 -0.3300000      4.7246928E-37
 -0.3200000      9.2208147E-37
 -0.3100000      1.1408494E-36
 -0.3000000      1.1226995E-36
 -0.2900000      1.0796800E-36
 -0.2800000      7.8335741E-37
 -0.2700000      1.2833533E-37
 -0.2600000     -6.8768200E-37
 -0.2500000     -1.6138616E-36
 -0.2400000     -2.5326555E-36
 -0.2300000     -3.2364131E-36
 -0.2200000     -3.5928378E-36
 -0.2100000     -3.4413810E-36
 -0.2000000     -2.6600395E-36
 -0.1900000     -1.0394103E-36
 -0.1800000      2.4129911E-36
 -0.1700000      7.4524354E-36
 -0.1600000      1.3104951E-35
 -0.1500000      1.8100458E-35
 -0.1400000      2.1716941E-35
 -0.1300000      2.4820075E-35
 -0.1200000      2.7406611E-35
 -0.1100000      2.8462254E-35
 -0.1000000      2.7282326E-35
 -9.0000004E-02  2.3856387E-35
 -7.9999998E-02  1.8248798E-35
 -7.0000000E-02  1.1700167E-35
 -5.9999999E-02  5.2494949E-36
 -5.0000001E-02 -2.2974721E-37
 -3.9999999E-02 -4.4581911E-36
 -2.9999999E-02 -9.8569363E-36
 -2.0000000E-02 -1.6464835E-35
 -9.9999998E-03 -1.5928672E-35
 -3.4694470E-17 -1.8373809E-35
  9.9999998E-03 -2.9023762E-35
  2.0000000E-02 -4.2523801E-35
  2.9999999E-02 -6.3891453E-35
  3.9999999E-02 -9.2212423E-35
  5.0000001E-02 -1.2752152E-34
  5.9999999E-02 -1.7848449E-34
  7.0000000E-02 -2.4077557E-34
  7.9999998E-02 -2.8393731E-34
  9.0000004E-02 -3.1130580E-34
  0.1000000     -3.3671785E-34
  0.1100000     -3.3967510E-34
  0.1200000     -3.1276059E-34
  0.1300000     -2.6335110E-34
  0.1400000     -1.8097561E-34
  0.1500000     -5.8779493E-35
  0.1600000      9.5446342E-35
  0.1700000      2.7556350E-34
  0.1800000      4.7846528E-34
  0.1900000      7.0079506E-34
  0.2000000      9.2570547E-34
  0.2100000      1.1465182E-33
  0.2200000      1.3479488E-33
  0.2300000      1.4880105E-33
  0.2400000      1.5418820E-33
  0.2500000      1.4900232E-33
  0.2600000      1.2988536E-33
  0.2700000      9.3266523E-34
  0.2800000      3.4581467E-34
  0.2900000     -5.1152651E-34
  0.3000000     -1.6972895E-33
  0.3100000     -3.2879275E-33
  0.3200000     -5.3685279E-33
  0.3300000     -8.0371502E-33
  0.3400000     -1.1405604E-32
  0.3500000     -1.5599975E-32
  0.3600000     -2.0760776E-32
  0.3700000     -2.7043220E-32
  0.3800000     -3.4617456E-32
  0.3900000     -4.3668869E-32
  0.4000000     -5.4398611E-32
  0.4100000     -6.7024343E-32
  0.4200000     -8.1781117E-32
  0.4300000     -9.8922587E-32
  0.4400000     -1.1872234E-31
  0.4500000     -1.4147507E-31
  0.4600000     -1.6749778E-31
  0.4700000     -1.9713080E-31
  0.4800000     -2.3073840E-31
  0.4900000     -2.6870898E-31
  0.5000000     -3.1145482E-31
  0.5100000     -3.5941123E-31
  0.5200000     -4.1303538E-31
  0.5300000     -4.7280475E-31
  0.5400000     -5.3921539E-31
  0.5500000     -6.1278003E-31
  0.5600000     -6.9402639E-31
  0.5700000     -7.8349571E-31
  0.5800000     -8.8174170E-31
  0.5900000     -9.8933009E-31
  0.6000000     -1.1068384E-30
  0.6100000     -1.2348572E-30
  0.6200000     -1.3739910E-30
  0.6300000     -1.5248602E-30
  0.6400000     -1.6881039E-30
  0.6500000     -1.8643829E-30
  0.6600000     -2.0543823E-30
  0.6700000     -2.2588162E-30
  0.6800000     -2.4784318E-30
  0.6900000     -2.7140137E-30
  0.7000000     -2.9663888E-30
  0.7100000     -3.2364316E-30
  0.7200000     -3.5250713E-30
  0.7300000     -3.8332961E-30
  0.7400000     -4.1621607E-30
  0.7500000     -4.5127935E-30
  0.7600000     -4.8864029E-30
  0.7700000     -5.2842865E-30
  0.7800000     -5.7078376E-30
  0.7900000     -6.1585514E-30
  0.8000000     -6.6380335E-30
  0.8100000     -7.1480032E-30
  0.8200000     -7.6903045E-30
  0.8300000     -8.2669053E-30
  0.8400000     -8.8799048E-30
  0.8500000     -9.5315394E-30
  0.8600000     -1.0224183E-29
  0.8700000     -1.0960354E-29
  0.8800000     -1.1742719E-29
  0.8900000     -1.2574099E-29
  0.9000000     -1.3457473E-29
  0.9100000     -1.4395989E-29
  0.9200000     -1.5392966E-29
  0.9300000     -1.6451917E-29
  0.9400000     -1.7576544E-29
  0.9500000     -1.8770768E-29
  0.9600000     -2.0038732E-29
  0.9700000     -2.1384819E-29
  0.9800000     -2.2813674E-29
  0.9900000     -2.4330214E-29
   1.000000     -2.5939637E-29
   1.010000     -2.7647447E-29
   1.020000     -2.9459449E-29
   1.030000     -3.1381786E-29
   1.040000     -3.3420924E-29
   1.050000     -3.5583665E-29
   1.060000     -3.7877156E-29
   1.070000     -4.0308874E-29
   1.080000     -4.2886641E-29
   1.090000     -4.5618612E-29
   1.100000     -4.8513282E-29
   1.110000     -5.1579461E-29
   1.120000     -5.4826278E-29
   1.130000     -5.8263185E-29
   1.140000     -6.1899936E-29
   1.150000     -6.5746614E-29
   1.160000     -6.9813588E-29
   1.170000     -7.4111566E-29
   1.180000     -7.8651560E-29
   1.190000     -8.3444947E-29
   1.200000     -8.8503456E-29
   1.210000     -9.3839233E-29
   1.220000     -9.9464833E-29
   1.230000     -1.0539330E-28
   1.240000     -1.1163819E-28
   1.250000     -1.1821358E-28
   1.260000     -1.2513419E-28
   1.270000     -1.3241539E-28
   1.280000     -1.4007323E-28
   1.290000     -1.4812452E-28
   1.300000     -1.5658689E-28
   1.310000     -1.6547874E-28
   1.320000     -1.7481933E-28
   1.330000     -1.8462876E-28
   1.340000     -1.9492792E-28
   1.350000     -2.0573860E-28
   1.360000     -2.1708326E-28
   1.370000     -2.2898520E-28
   1.380000     -2.4146835E-28
   1.390000     -2.5455733E-28
   1.400000     -2.6827727E-28
   1.410000     -2.8265379E-28
   1.420000     -2.9771295E-28
   1.430000     -3.1348128E-28
   1.440000     -3.2998547E-28
   1.450000     -3.4725254E-28
   1.460000     -3.6530965E-28
   1.470000     -3.8418424E-28
   1.480000     -4.0390405E-28
   1.490000     -4.2449706E-28
   1.500000     -4.4599145E-28
   1.510000     -4.6841568E-28
   1.520000     -4.9179873E-28
   1.530000     -5.1616978E-28
   1.540000     -5.4155869E-28
   1.550000     -5.6799560E-28
   1.560000     -5.9551107E-28
   1.570000     -6.2413631E-28
   1.580000     -6.5390291E-28
   1.590000     -6.8484258E-28
   1.600000     -7.1698741E-28
   1.610000     -7.5036941E-28
   1.620000     -7.8502050E-28
   1.630000     -8.2097203E-28
   1.640000     -8.5825457E-28
   1.650000     -8.9689768E-28
   1.660000     -9.3692919E-28
   1.670000     -9.7837520E-28
   1.680000     -1.0212595E-27
   1.690000     -1.0656033E-27
   1.700000     -1.1114241E-27
   1.710000     -1.1587365E-27
   1.720000     -1.2075507E-27
   1.730000     -1.2578728E-27
   1.740000     -1.3097049E-27
   1.750000     -1.3630444E-27
   1.760000     -1.4178839E-27
   1.770000     -1.4742108E-27
   1.780000     -1.5320085E-27
   1.790000     -1.5912557E-27
   1.800000     -1.6519260E-27
   1.810000     -1.7139887E-27
   1.820000     -1.7774084E-27
   1.830000     -1.8421456E-27
   1.840000     -1.9081563E-27
   1.850000     -1.9753921E-27
   1.860000     -2.0437996E-27
   1.870000     -2.1133202E-27
   1.880000     -2.1838909E-27
   1.890000     -2.2554415E-27
   1.900000     -2.3278960E-27
   1.910000     -2.4011711E-27
   1.920000     -2.4751747E-27
   1.930000     -2.5498049E-27
   1.940000     -2.6249495E-27
   1.950000     -2.7004852E-27
   1.960000     -2.7762762E-27
   1.970000     -2.8521726E-27
   1.980000     -2.9280102E-27
   1.990000     -3.0036089E-27
   2.000000     -3.0787735E-27
   2.010000     -3.1532922E-27
   2.020000     -3.2269361E-27
   2.030000     -3.2994593E-27
   2.040000     -3.3705993E-27
   2.050000     -3.4400787E-27
   2.060000     -3.5076038E-27
   2.070000     -3.5728651E-27
   2.080000     -3.6355387E-27
   2.090000     -3.6952876E-27
   2.100000     -3.7517620E-27
   2.110000     -3.8045987E-27
   2.120000     -3.8534249E-27
   2.130000     -3.8978542E-27
   2.140000     -3.9374917E-27
   2.150000     -3.9719297E-27
   2.160000     -4.0007485E-27
   2.170000     -4.0235176E-27
   2.180000     -4.0397921E-27
   2.190000     -4.0491152E-27
   2.200000     -4.0510126E-27
   2.210000     -4.0449937E-27
   2.220000     -4.0305492E-27
   2.230000     -4.0071507E-27
   2.240000     -3.9742489E-27
   2.250000     -3.9312718E-27
   2.260000     -3.8776261E-27
   2.270000     -3.8126946E-27
   2.280000     -3.7358411E-27
   2.290000     -3.6464078E-27
   2.300000     -3.5437227E-27
   2.310000     -3.4270991E-27
   2.320000     -3.2958404E-27
   2.330000     -3.1492439E-27
   2.340000     -2.9866060E-27
   2.350000     -2.8072264E-27
   2.360000     -2.6104153E-27
   2.370000     -2.3954984E-27
   2.380000     -2.1618211E-27
   2.390000     -1.9087543E-27
   2.400000     -1.6356985E-27
   2.410000     -1.3420884E-27
   2.420000     -1.0273946E-27
   2.430000     -6.9112699E-28
   2.440000     -3.3283736E-28
   2.450000      4.7881883E-29
   2.460000      4.5139542E-28
   2.470000      8.7802559E-28
   2.480000      1.3280553E-27
   2.490000      1.8017298E-27
   2.500000      2.2992551E-27
   2.510000      2.8207979E-27
   2.520000      3.3664905E-27
   2.530000      3.9364271E-27
   2.540000      4.5306631E-27
   2.550000      5.1492141E-27
   2.560000      5.7920456E-27
   2.570000      6.4590725E-27
   2.580000      7.1501505E-27
   2.590000      7.8650673E-27
   2.600000      8.6035327E-27
   2.610000      9.3651687E-27
   2.620000      1.0149498E-26
   2.630000      1.0955928E-26
   2.640000      1.1783742E-26
   2.650000      1.2632088E-26
   2.660000      1.3499971E-26
   2.670000      1.4386236E-26
   2.680000      1.5289573E-26
   2.690000      1.6208508E-26
   2.700000      1.7141396E-26
   2.710000      1.8086436E-26
   2.720000      1.9041665E-26
   2.730000      2.0004967E-26
   2.740000      2.0974084E-26
   2.750000      2.1946625E-26
   2.760000      2.2920081E-26
   2.770000      2.3891836E-26
   2.780000      2.4859187E-26
   2.790000      2.5819348E-26
   2.800000      2.6769468E-26
   2.810000      2.7706635E-26
   2.820000      2.8627892E-26
   2.830000      2.9530228E-26
   2.840000      3.0410597E-26
   2.850000      3.1265904E-26
   2.860000      3.2093013E-26
   2.870000      3.2888720E-26
   2.880000      3.3649759E-26
   2.890000      3.4372784E-26
   2.900000      3.5054372E-26
   2.910000      3.5690998E-26
   2.920000      3.6279038E-26
   2.930000      3.6814746E-26
   2.940000      3.7294262E-26
   2.950000      3.7713634E-26
   2.960000      3.8068791E-26
   2.970000      3.8355588E-26
   2.980000      3.8569804E-26
   2.990000      3.8707192E-26
   3.000000      3.8763503E-26
   3.010000      3.8734519E-26
   3.020000      3.8616088E-26
   3.030000      3.8404189E-26
   3.040000      3.8094962E-26
   3.050000      3.7684764E-26
   3.060000      3.7170214E-26
   3.070000      3.6548243E-26
   3.080000      3.5816109E-26
   3.090000      3.4971437E-26
   3.100000      3.4012240E-26
   3.110000      3.2936921E-26
   3.120000      3.1744296E-26
   3.130000      3.0433554E-26
   3.140000      2.9004258E-26
   3.150000      2.7456322E-26
   3.160000      2.5789983E-26
   3.170000      2.4005746E-26
   3.180000      2.2104356E-26
   3.190000      2.0086768E-26
   3.200000      1.7954120E-26
   3.210000      1.5707670E-26
   3.220000      1.3348811E-26
   3.230000      1.0879043E-26
   3.240000      8.2999538E-27
   3.250000      5.6132399E-27
   3.260000      2.8207197E-27
   3.270000     -7.5646520E-29
   3.280000     -3.0737245E-27
   3.290000     -6.1711587E-27
   3.300000     -9.3653220E-27
   3.310000     -1.2653290E-26
   3.320000     -1.6031792E-26
   3.330000     -1.9497175E-26
   3.340000     -2.3045399E-26
   3.350000     -2.6672019E-26
   3.360000     -3.0372199E-26
   3.370000     -3.4140760E-26
   3.380000     -3.7972239E-26
   3.390000     -4.1860981E-26
   3.400000     -4.5801224E-26
   3.410000     -4.9787249E-26
   3.420000     -5.3813539E-26
   3.430000     -5.7874953E-26
   3.440000     -6.1966904E-26
   3.450000     -6.6085516E-26
   3.460000     -7.0227868E-26
   3.470000     -7.4392147E-26
   3.480000     -7.8577874E-26
   3.490000     -8.2785985E-26
   3.500000     -8.7019074E-26
   3.510000     -9.1281450E-26
   3.520000     -9.5579250E-26
   3.530000     -9.9920524E-26
   3.540000     -1.0431526E-25
   3.550000     -1.0877536E-25
   3.560000     -1.1331474E-25
   3.570000     -1.1794920E-25
   3.580000     -1.2269644E-25
   3.590000     -1.2757605E-25
   3.600000     -1.3260939E-25
   3.610000     -1.3781966E-25
   3.620000     -1.4323184E-25
   3.630000     -1.4887272E-25
   3.640000     -1.5477094E-25
   3.650000     -1.6095708E-25
   3.660000     -1.6746376E-25
   3.670000     -1.7432579E-25
   3.680000     -1.8158029E-25
   3.690000     -1.8926693E-25
   3.700000     -1.9742814E-25
   3.710000     -2.0610924E-25
   3.720000     -2.1535866E-25
   3.730000     -2.2522819E-25
   3.740000     -2.3577292E-25
   3.750000     -2.4705151E-25
   3.760000     -2.5912609E-25
   3.770000     -2.7206228E-25
   3.780000     -2.8592897E-25
   3.790000     -3.0079819E-25
   3.800000     -3.1674459E-25
   3.810000     -3.3384512E-25
   3.820000     -3.5217857E-25
   3.830000     -3.7182473E-25
   3.840000     -3.9286387E-25
   3.850000     -4.1537599E-25
   3.860000     -4.3943985E-25
   3.870000     -4.6513216E-25
   3.880000     -4.9252674E-25
   3.890000     -5.2169354E-25
   3.900000     -5.5269774E-25
   3.910000     -5.8559891E-25
   3.920000     -6.2045005E-25
   3.930000     -6.5729670E-25
   3.940000     -6.9617636E-25
   3.950000     -7.3711735E-25
   3.960000     -7.8013822E-25
   3.970000     -8.2524707E-25
   3.980000     -8.7244023E-25
   3.990000     -9.2170212E-25
   4.000000     -9.7300352E-25
   4.010000     -1.0263012E-24
   4.020000     -1.0815368E-24
   4.030000     -1.1386354E-24
   4.040000     -1.1975047E-24
   4.050000     -1.2580324E-24
   4.060000     -1.3200856E-24
   4.070000     -1.3835078E-24
   4.080000     -1.4481182E-24
   4.090000     -1.5137083E-24
   4.100000     -1.5800400E-24
   4.110000     -1.6468430E-24
   4.120000     -1.7138129E-24
   4.130000     -1.7806087E-24
   4.140000     -1.8468494E-24
   4.150000     -1.9121113E-24
   4.160000     -1.9759266E-24
   4.170000     -2.0377806E-24
   4.180000     -2.0971092E-24
   4.190000     -2.1532978E-24
   4.200000     -2.2056784E-24
   4.210000     -2.2535287E-24
   4.220000     -2.2960710E-24
   4.230000     -2.3324714E-24
   4.240000     -2.3618379E-24
   4.250000     -2.3832206E-24
   4.260000     -2.3956118E-24
   4.270000     -2.3979455E-24
   4.280000     -2.3890968E-24
   4.290000     -2.3678832E-24
   4.300000     -2.3330634E-24
   4.310000     -2.2833395E-24
   4.320000     -2.2173559E-24
   4.330000     -2.1337007E-24
   4.340000     -2.0309068E-24
   4.350000     -1.9074509E-24
   4.360000     -1.7617554E-24
   4.370000     -1.5921894E-24
   4.380000     -1.3970701E-24
   4.390000     -1.1746650E-24
   4.400000     -9.2319307E-25
   4.410000     -6.4082751E-25
   4.420000     -3.2569952E-25
   4.430000      2.4097403E-26
   4.440000      4.1050381E-25
   4.450000      8.3548761E-25
   4.460000      1.3010370E-24
   4.470000      1.8091555E-24
   4.480000      2.3618507E-24
   4.490000      2.9611251E-24
   4.500000      3.6089653E-24
   4.510000      4.3073308E-24
   4.520000      5.0581394E-24
   4.530000      5.8632552E-24
   4.540000      6.7244720E-24
   4.550000      7.6434973E-24
   4.560000      8.6219381E-24
   4.570000      9.6612813E-24
   4.580000      1.0762874E-23
   4.590000      1.1927910E-23
   4.600000      1.3157403E-23
   4.610000      1.4452176E-23
   4.620000      1.5812830E-23
   4.630000      1.7239735E-23
   4.640000      1.8732992E-23
   4.650000      2.0292432E-23
   4.660000      2.1917577E-23
   4.670000      2.3607620E-23
   4.680000      2.5361405E-23
   4.690000      2.7177394E-23
   4.700000      2.9053652E-23
   4.710000      3.0987813E-23
   4.720000      3.2977046E-23
   4.730000      3.5018034E-23
   4.740000      3.7106944E-23
   4.750000      3.9239383E-23
   4.760000      4.1410385E-23
   4.770000      4.3614359E-23
   4.780000      4.5845065E-23
   4.790000      4.8095581E-23
   4.800000      5.0358258E-23
   4.810000      5.2624693E-23
   4.820000      5.4885698E-23
   4.830000      5.7131257E-23
   4.840000      5.9350506E-23
   4.850000      6.1531681E-23
   4.860000      6.3662104E-23
   4.870000      6.5728156E-23
   4.880000      6.7715258E-23
   4.890000      6.9607837E-23
   4.900000      7.1389306E-23
   4.910000      7.3042026E-23
   4.920000      7.4547349E-23
   4.930000      7.5885579E-23
   4.940000      7.7035928E-23
   4.950000      7.7976565E-23
   4.960000      7.8684584E-23
   4.970000      7.9136033E-23
   4.980000      7.9305910E-23
   4.990000      7.9168149E-23
   5.000000      7.8695704E-23
   5.010000      7.7860502E-23
   5.020000      7.6633501E-23
   5.030000      7.4984713E-23
   5.040000      7.2883257E-23
   5.050000      7.0297364E-23
   5.060000      6.7194459E-23
   5.070000      6.3541212E-23
   5.080000      5.9303616E-23
   5.090000      5.4447009E-23
   5.100000      4.8936163E-23
   5.110000      4.2735407E-23
   5.120000      3.5808706E-23
   5.130000      2.8119799E-23
   5.140000      1.9632301E-23
   5.150000      1.0309816E-23
   5.160000      1.1609813E-25
   5.170000     -1.0984760E-23
   5.180000     -2.3028202E-23
   5.190000     -3.6048993E-23
   5.200000     -5.0081014E-23
   5.210000     -6.5157065E-23
   5.220000     -8.1308638E-23
   5.230000     -9.8565728E-23
   5.240000     -1.1695653E-22
   5.250000     -1.3650718E-22
   5.260000     -1.5724154E-22
   5.270000     -1.7918084E-22
   5.280000     -2.0234344E-22
   5.290000     -2.2674452E-22
   5.300000     -2.5239578E-22
   5.310000     -2.7930493E-22
   5.320000     -3.0747562E-22
   5.330000     -3.3690702E-22
   5.340000     -3.6759335E-22
   5.350000     -3.9952359E-22
   5.360000     -4.3268114E-22
   5.370000     -4.6704342E-22
   5.380000     -5.0258144E-22
   5.390000     -5.3925936E-22
   5.400000     -5.7703431E-22
   5.410000     -6.1585561E-22
   5.420000     -6.5566478E-22
   5.430000     -6.9639464E-22
   5.440000     -7.3796925E-22
   5.450000     -7.8030324E-22
   5.460000     -8.2330154E-22
   5.470000     -8.6685893E-22
   5.480000     -9.1085924E-22
   5.490000     -9.5517591E-22
   5.500000     -9.9967019E-22
   5.510000     -1.0441917E-21
   5.520000     -1.0885778E-21
   5.530000     -1.1326532E-21
   5.540000     -1.1762297E-21
   5.550000     -1.2191055E-21
   5.560000     -1.2610652E-21
   5.570000     -1.3018797E-21
   5.580000     -1.3413055E-21
   5.590000     -1.3790848E-21
   5.600000     -1.4149448E-21
   5.610000     -1.4485987E-21
   5.620000     -1.4797444E-21
   5.630000     -1.5080655E-21
   5.640000     -1.5332303E-21
   5.650000     -1.5548923E-21
   5.660000     -1.5726905E-21
   5.670000     -1.5862493E-21
   5.680000     -1.5951789E-21
   5.690000     -1.5990758E-21
   5.700000     -1.5975230E-21
   5.710000     -1.5900897E-21
   5.720000     -1.5763333E-21
   5.730000     -1.5557986E-21
   5.740000     -1.5280195E-21
   5.750000     -1.4925194E-21
   5.760000     -1.4488117E-21
   5.770000     -1.3964012E-21
   5.780000     -1.3347856E-21
   5.790000     -1.2634561E-21
   5.800000     -1.1818989E-21
   5.810000     -1.0895968E-21
   5.820000     -9.8602999E-22
   5.830000     -8.7067848E-22
   5.840000     -7.4302397E-22
   5.850000     -6.0255145E-22
   5.860000     -4.4875119E-22
   5.870000     -2.8112072E-22
   5.880000     -9.9167818E-23
   5.890000      9.7586688E-23
   5.900000      3.0960710E-22
   5.910000      5.3733989E-22
   5.920000      7.8120984E-22
   5.930000      1.0416179E-21
   5.940000      1.3189381E-21
   5.950000      1.6135140E-21
   5.960000      1.9256555E-21
   5.970000      2.2556343E-21
   5.980000      2.6036812E-21
   5.990000      2.9699815E-21
   6.000000      3.3546714E-21
   6.010000      3.7578343E-21
   6.020000      4.1794956E-21
   6.030000      4.6196187E-21
   6.040000      5.0781018E-21
   6.050000      5.5547723E-21
   6.060000      6.0493818E-21
   6.070000      6.5616013E-21
   6.080000      7.0910195E-21
   6.090000      7.6371340E-21
   6.100000      8.1993503E-21
   6.110000      8.7769736E-21
   6.120000      9.3692042E-21
   6.130000      9.9751358E-21
   6.140000      1.0593747E-20
   6.150000      1.1223899E-20
   6.160000      1.1864331E-20
   6.170000      1.2513655E-20
   6.180000      1.3170348E-20
   6.190000      1.3832754E-20
   6.200000      1.4499074E-20
   6.210000      1.5167360E-20
   6.220000      1.5835520E-20
   6.230000      1.6501310E-20
   6.240000      1.7162334E-20
   6.250000      1.7816024E-20
   6.260000      1.8459663E-20
   6.270000      1.9090364E-20
   6.280000      1.9705072E-20
   6.290000      2.0300571E-20
   6.300000      2.0873470E-20
   6.310000      2.1420212E-20
   6.320000      2.1937069E-20
   6.330000      2.2420147E-20
   6.340000      2.2865379E-20
   6.350000      2.3268534E-20
   6.360000      2.3625215E-20
   6.370000      2.3930867E-20
   6.380000      2.4180772E-20
   6.390000      2.4370064E-20
   6.400000      2.4493726E-20
   6.410000      2.4546599E-20
   6.420000      2.4523393E-20
   6.430000      2.4418683E-20
   6.440000      2.4226938E-20
   6.450000      2.3942518E-20
   6.460000      2.3559692E-20
   6.470000      2.3072630E-20
   6.480000      2.2475433E-20
   6.490000      2.1762149E-20
   6.500000      2.0926784E-20
   6.510000      1.9963321E-20
   6.520000      1.8865736E-20
   6.530000      1.7628017E-20
   6.540000      1.6244178E-20
   6.550000      1.4708294E-20
   6.560000      1.3014519E-20
   6.570000      1.1157105E-20
   6.580000      9.1304269E-21
   6.590000      6.9290125E-21
   6.600000      4.5475757E-21
   6.610000      1.9810412E-21
   6.620000     -7.7542018E-22
   6.630000     -3.7263671E-21
   6.640000     -6.8760447E-21
   6.650000     -1.0228348E-20
   6.660000     -1.3786792E-20
   6.670000     -1.7554472E-20
   6.680000     -2.1534035E-20
   6.690000     -2.5727634E-20
   6.700000     -3.0136888E-20
   6.710000     -3.4762834E-20
   6.720000     -3.9605905E-20
   6.730000     -4.4665869E-20
   6.740000     -4.9941782E-20
   6.750000     -5.5431964E-20
   6.760000     -6.1133940E-20
   6.770000     -6.7044397E-20
   6.780000     -7.3159130E-20
   6.790000     -7.9473012E-20
   6.800000     -8.5979938E-20
   6.810000     -9.2672760E-20
   6.820000     -9.9543283E-20
   6.830000     -1.0658220E-19
   6.840000     -1.1377900E-19
   6.850000     -1.2112203E-19
   6.860000     -1.2859837E-19
   6.870000     -1.3619380E-19
   6.880000     -1.4389281E-19
   6.890000     -1.5167849E-19
   6.900000     -1.5953257E-19
   6.910000     -1.6743530E-19
   6.920000     -1.7536551E-19
   6.930000     -1.8330047E-19
   6.940000     -1.9121599E-19
   6.950000     -1.9908627E-19
   6.960000     -2.0688393E-19
   6.970000     -2.1458003E-19
   6.980000     -2.2214406E-19
   6.990000     -2.2954383E-19
   7.000000     -2.3674563E-19
   7.010000     -2.4371403E-19
   7.020000     -2.5041195E-19
   7.030000     -2.5680081E-19
   7.040000     -2.6284036E-19
   7.050000     -2.6848887E-19
   7.060000     -2.7370303E-19