  -2.600000      0.0000000E+00
  -2.590000      0.0000000E+00
  -2.580000      0.0000000E+00
  -2.570000      0.0000000E+00
  -2.560000      0.0000000E+00
  -2.550000      0.0000000E+00
  -2.540000      0.0000000E+00
  -2.530000      0.0000000E+00
  -2.520000      0.0000000E+00
  -2.510000      0.0000000E+00
  -2.500000      0.0000000E+00
  -2.490000      0.0000000E+00
  -2.480000      0.0000000E+00
  -2.470000      0.0000000E+00
  -2.460000      0.0000000E+00
  -2.450000      0.0000000E+00
  -2.440000      0.0000000E+00
  -2.430000      0.0000000E+00
  -2.420000      0.0000000E+00
  -2.410000      0.0000000E+00
  -2.400000      0.0000000E+00
  -2.390000      0.0000000E+00
  -2.380000      0.0000000E+00
  -2.370000      0.0000000E+00
  -2.360000      0.0000000E+00
  -2.350000      0.0000000E+00
  -2.340000      0.0000000E+00
  -2.330000      0.0000000E+00
  -2.320000      0.0000000E+00
  -2.310000      0.0000000E+00
  -2.300000      0.0000000E+00
  -2.290000      0.0000000E+00
  -2.280000      0.0000000E+00
  -2.270000      0.0000000E+00
  -2.260000      0.0000000E+00
  -2.250000      0.0000000E+00
  -2.240000      0.0000000E+00
  -2.230000      0.0000000E+00
  -2.220000      0.0000000E+00
  -2.210000      0.0000000E+00
  -2.200000      0.0000000E+00
  -2.190000      0.0000000E+00
  -2.180000      0.0000000E+00
  -2.170000      0.0000000E+00
  -2.160000      0.0000000E+00
  -2.150000      0.0000000E+00
  -2.140000      0.0000000E+00
  -2.130000      0.0000000E+00
  -2.120000      0.0000000E+00
  -2.110000      0.0000000E+00
  -2.100000      0.0000000E+00
  -2.090000      0.0000000E+00
  -2.080000      0.0000000E+00
  -2.070000      0.0000000E+00
  -2.060000      0.0000000E+00
  -2.050000      0.0000000E+00
  -2.040000      0.0000000E+00
  -2.030000      0.0000000E+00
  -2.020000      0.0000000E+00
  -2.010000      0.0000000E+00
  -2.000000      0.0000000E+00
  -1.990000      0.0000000E+00
  -1.980000      0.0000000E+00
  -1.970000      0.0000000E+00
  -1.960000      0.0000000E+00
  -1.950000      0.0000000E+00
  -1.940000      0.0000000E+00
  -1.930000      0.0000000E+00
  -1.920000      0.0000000E+00
  -1.910000      0.0000000E+00
  -1.900000      0.0000000E+00
  -1.890000      0.0000000E+00
  -1.880000      0.0000000E+00
  -1.870000      0.0000000E+00
  -1.860000      0.0000000E+00
  -1.850000      0.0000000E+00
  -1.840000      0.0000000E+00
  -1.830000      0.0000000E+00
  -1.820000      0.0000000E+00
  -1.810000      0.0000000E+00
  -1.800000      0.0000000E+00
  -1.790000      0.0000000E+00
  -1.780000      0.0000000E+00
  -1.770000      0.0000000E+00
  -1.760000      0.0000000E+00
  -1.750000      0.0000000E+00
  -1.740000      0.0000000E+00
  -1.730000      0.0000000E+00
  -1.720000      0.0000000E+00
  -1.710000      0.0000000E+00
  -1.700000      0.0000000E+00
  -1.690000      0.0000000E+00
  -1.680000      0.0000000E+00
  -1.670000      0.0000000E+00
  -1.660000      0.0000000E+00
  -1.650000      0.0000000E+00
  -1.640000      0.0000000E+00
  -1.630000      0.0000000E+00
  -1.620000      0.0000000E+00
  -1.610000      0.0000000E+00
  -1.600000      0.0000000E+00
  -1.590000      0.0000000E+00
  -1.580000      0.0000000E+00
  -1.570000      0.0000000E+00
  -1.560000      0.0000000E+00
  -1.550000      0.0000000E+00
  -1.540000      0.0000000E+00
  -1.530000      0.0000000E+00
  -1.520000      0.0000000E+00
  -1.510000      0.0000000E+00
  -1.500000      0.0000000E+00
  -1.490000      0.0000000E+00
  -1.480000      0.0000000E+00
  -1.470000      0.0000000E+00
  -1.460000      0.0000000E+00
  -1.450000      0.0000000E+00
  -1.440000      0.0000000E+00
  -1.430000      0.0000000E+00
  -1.420000      0.0000000E+00
  -1.410000      0.0000000E+00
  -1.400000      0.0000000E+00
  -1.390000      0.0000000E+00
  -1.380000      0.0000000E+00
  -1.370000      0.0000000E+00
  -1.360000      0.0000000E+00
  -1.350000      0.0000000E+00
  -1.340000      0.0000000E+00
  -1.330000      0.0000000E+00
  -1.320000      0.0000000E+00
  -1.310000      0.0000000E+00
  -1.300000      0.0000000E+00
  -1.290000      0.0000000E+00
  -1.280000      0.0000000E+00
  -1.270000      0.0000000E+00
  -1.260000      0.0000000E+00
  -1.250000      0.0000000E+00
  -1.240000      0.0000000E+00
  -1.230000      0.0000000E+00
  -1.220000      0.0000000E+00
  -1.210000      0.0000000E+00
  -1.200000      0.0000000E+00
  -1.190000      0.0000000E+00
  -1.180000      0.0000000E+00
  -1.170000      0.0000000E+00
  -1.160000      0.0000000E+00
  -1.150000      0.0000000E+00
  -1.140000      0.0000000E+00
  -1.130000      0.0000000E+00
  -1.120000      0.0000000E+00
  -1.110000      0.0000000E+00
  -1.100000      0.0000000E+00
  -1.090000      0.0000000E+00
  -1.080000      0.0000000E+00
  -1.070000      0.0000000E+00
  -1.060000      0.0000000E+00
  -1.050000      0.0000000E+00
  -1.040000      0.0000000E+00
  -1.030000      0.0000000E+00
  -1.020000      0.0000000E+00
  -1.010000      0.0000000E+00
  -1.000000      0.0000000E+00
 -0.9900000      0.0000000E+00
 -0.9800000      0.0000000E+00
 -0.9700000      0.0000000E+00
 -0.9600000      0.0000000E+00
 -0.9500000      0.0000000E+00
 -0.9400000      0.0000000E+00
 -0.9300000      0.0000000E+00
 -0.9200000      0.0000000E+00
 -0.9100000      0.0000000E+00
 -0.9000000      0.0000000E+00
 -0.8900000      0.0000000E+00
 -0.8800000      0.0000000E+00
 -0.8700000      0.0000000E+00
 -0.8600000      0.0000000E+00
 -0.8500000      0.0000000E+00
 -0.8400000      0.0000000E+00
 -0.8300000      0.0000000E+00
 -0.8200000      0.0000000E+00
 -0.8100000      0.0000000E+00
 -0.8000000      0.0000000E+00
 -0.7900000      0.0000000E+00
 -0.7800000      0.0000000E+00
 -0.7700000      0.0000000E+00
 -0.7600000      0.0000000E+00
 -0.7500000      0.0000000E+00
 -0.7400000      0.0000000E+00
 -0.7300000      0.0000000E+00
 -0.7200000      0.0000000E+00
 -0.7100000      0.0000000E+00
 -0.7000000      0.0000000E+00
 -0.6900000      0.0000000E+00
 -0.6800000      0.0000000E+00
 -0.6700000      0.0000000E+00
 -0.6600000      0.0000000E+00
 -0.6500000      0.0000000E+00
 -0.6400000      0.0000000E+00
 -0.6300000      0.0000000E+00
 -0.6200000      0.0000000E+00
 -0.6100000      0.0000000E+00
 -0.6000000      0.0000000E+00
 -0.5900000      0.0000000E+00
 -0.5800000      0.0000000E+00
 -0.5700000      0.0000000E+00
 -0.5600000      0.0000000E+00
 -0.5500000      0.0000000E+00
 -0.5400000      1.2499797E-38
 -0.5300000      1.6815729E-38
 -0.5200000      2.1455611E-38
 -0.5100000      2.6341948E-38
 -0.5000000      3.1517868E-38
 -0.4900000      3.6646567E-38
 -0.4800000      4.1278778E-38
 -0.4700000      4.4519754E-38
 -0.4600000      4.5961881E-38
 -0.4500000      4.6434491E-38
 -0.4400000      4.7237205E-38
 -0.4300000      4.7125544E-38
 -0.4200000      4.3435679E-38
 -0.4100000      3.2935107E-38
 -0.4000000      1.5493859E-38
 -0.3900000      0.0000000E+00
 -0.3800000     -3.8068506E-38
 -0.3700000     -7.8360094E-38
 -0.3600000     -1.2855557E-37
 -0.3500000     -2.3295201E-37
 -0.3400000     -4.0246996E-37
 -0.3300000     -5.8715549E-37
 -0.3200000     -7.7200317E-37
 -0.3100000     -9.0467327E-37
 -0.3000000     -9.5912669E-37
 -0.2900000     -9.5626293E-37
 -0.2800000     -7.7449717E-37
 -0.2700000     -3.4809691E-37
 -0.2600000      2.4568053E-37
 -0.2500000      9.7801584E-37
 -0.2400000      1.8417001E-36
 -0.2300000      2.8442424E-36
 -0.2200000      4.0177169E-36
 -0.2100000      5.2628340E-36
 -0.2000000      6.4157720E-36
 -0.1900000      7.4114797E-36
 -0.1800000      8.1512706E-36
 -0.1700000      8.5779799E-36
 -0.1600000      8.4849713E-36
 -0.1500000      7.7562832E-36
 -0.1400000      6.5826421E-36
 -0.1300000      4.9386690E-36
 -0.1200000      2.6989001E-36
 -0.1100000     -2.7832474E-37
 -0.1000000     -4.0764686E-36
 -9.0000004E-02 -8.6838138E-36
 -7.9999998E-02 -1.4111213E-35
 -7.0000000E-02 -2.0397083E-35
 -5.9999999E-02 -2.7364805E-35
 -5.0000001E-02 -3.5555587E-35
 -3.9999999E-02 -4.5141038E-35
 -2.9999999E-02 -5.5827785E-35
 -2.0000000E-02 -6.7539658E-35
 -9.9999998E-03 -7.8882174E-35
 -3.4694470E-17 -8.9184716E-35
  9.9999998E-03 -9.7183123E-35
  2.0000000E-02 -1.0204856E-34
  2.9999999E-02 -1.0072762E-34
  3.9999999E-02 -8.9229957E-35
  5.0000001E-02 -5.8770401E-35
  5.9999999E-02 -6.0434479E-36
  7.0000000E-02  6.0965976E-35
  7.9999998E-02  1.3870628E-34
  9.0000004E-02  2.2477702E-34
  0.1000000      3.1651627E-34
  0.1100000      4.0547525E-34
  0.1200000      4.8835196E-34
  0.1300000      5.6897343E-34
  0.1400000      6.4075563E-34
  0.1500000      6.9075258E-34
  0.1600000      7.1073731E-34
  0.1700000      6.9955382E-34
  0.1800000      6.5534577E-34
  0.1900000      5.7403490E-34
  0.2000000      4.4706369E-34
  0.2100000      2.7119208E-34
  0.2200000      5.2134173E-35
  0.2300000     -2.0484977E-34
  0.2400000     -4.9100312E-34
  0.2500000     -7.9395781E-34
  0.2600000     -1.0935101E-33
  0.2700000     -1.3630144E-33
  0.2800000     -1.5715059E-33
  0.2900000     -1.6794365E-33
  0.3000000     -1.6388384E-33
  0.3100000     -1.3897208E-33
  0.3200000     -8.6195272E-34
  0.3300000      2.4242680E-35
  0.3400000      1.3624308E-33
  0.3500000      3.2598291E-33
  0.3600000      5.8389670E-33
  0.3700000      9.2386017E-33
  0.3800000      1.3614692E-32
  0.3900000      1.9142241E-32
  0.4000000      2.6016573E-32
  0.4100000      3.4454830E-32
  0.4200000      4.4697509E-32
  0.4300000      5.7010042E-32
  0.4400000      7.1684443E-32
  0.4500000      8.9040870E-32
  0.4600000      1.0942926E-31
  0.4700000      1.3323087E-31
  0.4800000      1.6085968E-31
  0.4900000      1.9276384E-31
  0.5000000      2.2942678E-31
  0.5100000      2.7136835E-31
  0.5200000      3.1914549E-31
  0.5300000      3.7335302E-31
  0.5400000      4.3462375E-31
  0.5500000      5.0362880E-31
  0.5600000      5.8107719E-31
  0.5700000      6.6771549E-31
  0.5800000      7.6432730E-31
  0.5900000      8.7173222E-31
  0.6000000      9.9078516E-31
  0.6100000      1.1223749E-30
  0.6200000      1.2674238E-30
  0.6300000      1.4268872E-30
  0.6400000      1.6017519E-30
  0.6500000      1.7930378E-30
  0.6600000      2.0017969E-30
  0.6700000      2.2291161E-30
  0.6800000      2.4761185E-30
  0.6900000      2.7439668E-30
  0.7000000      3.0338667E-30
  0.7100000      3.3470733E-30
  0.7200000      3.6848972E-30
  0.7300000      4.0487106E-30
  0.7400000      4.4399576E-30
  0.7500000      4.8601628E-30
  0.7600000      5.3109410E-30
  0.7700000      5.7940098E-30
  0.7800000      6.3111987E-30
  0.7900000      6.8644650E-30
  0.8000000      7.4559007E-30
  0.8100000      8.0877472E-30
  0.8200000      8.7624072E-30
  0.8300000      9.4824553E-30
  0.8400000      1.0250645E-29
  0.8500000      1.1069922E-29
  0.8600000      1.1943432E-29
  0.8700000      1.2874527E-29
  0.8800000      1.3866775E-29
  0.8900000      1.4923963E-29
  0.9000000      1.6050106E-29
  0.9100000      1.7249449E-29
  0.9200000      1.8526483E-29
  0.9300000      1.9885941E-29
  0.9400000      2.1332811E-29
  0.9500000      2.2872346E-29
  0.9600000      2.4510077E-29
  0.9700000      2.6251827E-29
  0.9800000      2.8103726E-29
  0.9900000      3.0072235E-29
   1.000000      3.2164156E-29
   1.010000      3.4386679E-29
   1.020000      3.6747381E-29
   1.030000      3.9254292E-29
   1.040000      4.1915891E-29
   1.050000      4.4741161E-29
   1.060000      4.7739611E-29
   1.070000      5.0921323E-29
   1.080000      5.4296954E-29
   1.090000      5.7877806E-29
   1.100000      6.1675824E-29
   1.110000      6.5703612E-29
   1.120000      6.9974488E-29
   1.130000      7.4502475E-29
   1.140000      7.9302302E-29
   1.150000      8.4389429E-29
   1.160000      8.9780041E-29
   1.170000      9.5491073E-29
   1.180000      1.0154015E-28
   1.190000      1.0794569E-28
   1.200000      1.1472676E-28
   1.210000      1.2190323E-28
   1.220000      1.2949565E-28
   1.230000      1.3752541E-28
   1.240000      1.4601458E-28
   1.250000      1.5498612E-28
   1.260000      1.6446379E-28
   1.270000      1.7447224E-28
   1.280000      1.8503711E-28
   1.290000      1.9618505E-28
   1.300000      2.0794376E-28
   1.310000      2.2034220E-28
   1.320000      2.3341053E-28
   1.330000      2.4718025E-28
   1.340000      2.6168436E-28
   1.350000      2.7695730E-28
   1.360000      2.9303508E-28
   1.370000      3.0995541E-28
   1.380000      3.2775757E-28
   1.390000      3.4648257E-28
   1.400000      3.6617306E-28
   1.410000      3.8687339E-28
   1.420000      4.0862952E-28
   1.430000      4.3148896E-28
   1.440000      4.5550068E-28
   1.450000      4.8071515E-28
   1.460000      5.0718397E-28
   1.470000      5.3495998E-28
   1.480000      5.6409713E-28
   1.490000      5.9465032E-28
   1.500000      6.2667536E-28
   1.510000      6.6022881E-28
   1.520000      6.9536808E-28
   1.530000      7.3215122E-28
   1.540000      7.7063718E-28
   1.550000      8.1088545E-28
   1.560000      8.5295672E-28
   1.570000      8.9691203E-28
   1.580000      9.4281387E-28
   1.590000      9.9072542E-28
   1.600000      1.0407115E-27
   1.610000      1.0928376E-27
   1.620000      1.1471709E-27
   1.630000      1.2037798E-27
   1.640000      1.2627337E-27
   1.650000      1.3241033E-27
   1.660000      1.3879604E-27
   1.670000      1.4543776E-27
   1.680000      1.5234274E-27
   1.690000      1.5951829E-27
   1.700000      1.6697160E-27
   1.710000      1.7470981E-27
   1.720000      1.8273990E-27
   1.730000      1.9106858E-27
   1.740000      1.9970226E-27
   1.750000      2.0864701E-27
   1.760000      2.1790842E-27
   1.770000      2.2749158E-27
   1.780000      2.3740101E-27
   1.790000      2.4764056E-27
   1.800000      2.5821345E-27
   1.810000      2.6912221E-27
   1.820000      2.8036856E-27
   1.830000      2.9195351E-27
   1.840000      3.0387725E-27
   1.850000      3.1613920E-27
   1.860000      3.2873806E-27
   1.870000      3.4167176E-27
   1.880000      3.5493745E-27
   1.890000      3.6853155E-27
   1.900000      3.8244978E-27
   1.910000      3.9668699E-27
   1.920000      4.1123739E-27
   1.930000      4.2609417E-27
   1.940000      4.4124977E-27
   1.950000      4.5669558E-27
   1.960000      4.7242191E-27
   1.970000      4.8841788E-27
   1.980000      5.0467111E-27
   1.990000      5.2116781E-27
   2.000000      5.3789247E-27
   2.010000      5.5482764E-27
   2.020000      5.7195378E-27
   2.030000      5.8924917E-27
   2.040000      6.0668950E-27
   2.050000      6.2424801E-27
   2.060000      6.4189519E-27
   2.070000      6.5959873E-27
   2.080000      6.7732337E-27
   2.090000      6.9503091E-27
   2.100000      7.1268044E-27
   2.110000      7.3022797E-27
   2.120000      7.4762675E-27
   2.130000      7.6482753E-27
   2.140000      7.8177841E-27
   2.150000      7.9842492E-27
   2.160000      8.1471051E-27
   2.170000      8.3057655E-27
   2.180000      8.4596234E-27
   2.190000      8.6080510E-27
   2.200000      8.7504057E-27
   2.210000      8.8860227E-27
   2.220000      9.0142250E-27
   2.230000      9.1343129E-27
   2.240000      9.2455677E-27
   2.250000      9.3472498E-27
   2.260000      9.4385936E-27
   2.270000      9.5188117E-27
   2.280000      9.5870867E-27
   2.290000      9.6425704E-27
   2.300000      9.6843823E-27
   2.310000      9.7116088E-27
   2.320000      9.7233000E-27
   2.330000      9.7184682E-27
   2.340000      9.6960951E-27
   2.350000      9.6551259E-27
   2.360000      9.5944753E-27
   2.370000      9.5130300E-27
   2.380000      9.4096584E-27
   2.390000      9.2832088E-27
   2.400000      9.1325187E-27
   2.410000      8.9564263E-27
   2.420000      8.7537745E-27
   2.430000      8.5234218E-27
   2.440000      8.2642509E-27
   2.450000      7.9751742E-27
   2.460000      7.6551463E-27
   2.470000      7.3031641E-27
   2.480000      6.9182755E-27
   2.490000      6.4995860E-27
   2.500000      6.0462568E-27
   2.510000      5.5575108E-27
   2.520000      5.0326294E-27
   2.530000      4.4709528E-27
   2.540000      3.8718776E-27
   2.550000      3.2348520E-27
   2.560000      2.5593725E-27
   2.570000      1.8449845E-27
   2.580000      1.0912751E-27
   2.590000      2.9787109E-28
   2.600000     -5.3555918E-28
   2.610000     -1.4093049E-27
   2.620000     -2.3236106E-27
   2.630000     -3.2786700E-27
   2.640000     -4.2746181E-27
   2.650000     -5.3115160E-27
   2.660000     -6.3893435E-27
   2.670000     -7.5079790E-27
   2.680000     -8.6671863E-27
   2.690000     -9.8665915E-27
   2.700000     -1.1105672E-26
   2.710000     -1.2383733E-26
   2.720000     -1.3699892E-26
   2.730000     -1.5053061E-26
   2.740000     -1.6441940E-26
   2.750000     -1.7865006E-26
   2.760000     -1.9320507E-26
   2.770000     -2.0806461E-26
   2.780000     -2.2320659E-26
   2.790000     -2.3860684E-26
   2.800000     -2.5423905E-26
   2.810000     -2.7007510E-26
   2.820000     -2.8608521E-26
   2.830000     -3.0223810E-26
   2.840000     -3.1850123E-26
   2.850000     -3.3484107E-26
   2.860000     -3.5122334E-26
   2.870000     -3.6761306E-26
   2.880000     -3.8397481E-26
   2.890000     -4.0027280E-26
   2.900000     -4.1647092E-26
   2.910000     -4.3253283E-26
   2.920000     -4.4842176E-26
   2.930000     -4.6410046E-26
   2.940000     -4.7953107E-26
   2.950000     -4.9467483E-26
   2.960000     -5.0949189E-26
   2.970000     -5.2394114E-26
   2.980000     -5.3797972E-26
   2.990000     -5.5156310E-26
   3.000000     -5.6464476E-26
   3.010000     -5.7717594E-26
   3.020000     -5.8910579E-26
   3.030000     -6.0038127E-26
   3.040000     -6.1094732E-26
   3.050000     -6.2074707E-26
   3.060000     -6.2972221E-26
   3.070000     -6.3781327E-26
   3.080000     -6.4496035E-26
   3.090000     -6.5110348E-26
   3.100000     -6.5618338E-26
   3.110000     -6.6014204E-26
   3.120000     -6.6292358E-26
   3.130000     -6.6447412E-26
   3.140000     -6.6474332E-26
   3.150000     -6.6368403E-26
   3.160000     -6.6125285E-26
   3.170000     -6.5741042E-26
   3.180000     -6.5212124E-26
   3.190000     -6.4535367E-26
   3.200000     -6.3707969E-26
   3.210000     -6.2727415E-26
   3.220000     -6.1591461E-26
   3.230000     -6.0298032E-26
   3.240000     -5.8845153E-26
   3.250000     -5.7230885E-26
   3.260000     -5.5453249E-26
   3.270000     -5.3510130E-26
   3.280000     -5.1399221E-26
   3.290000     -4.9117996E-26
   3.300000     -4.6663637E-26
   3.310000     -4.4033042E-26
   3.320000     -4.1222848E-26
   3.330000     -3.8229417E-26
   3.340000     -3.5048908E-26
   3.350000     -3.1677344E-26
   3.360000     -2.8110685E-26
   3.370000     -2.4344918E-26
   3.380000     -2.0376149E-26
   3.390000     -1.6200710E-26
   3.400000     -1.1815237E-26
   3.410000     -7.2167469E-27
   3.420000     -2.4026937E-27
   3.430000      2.6290117E-27
   3.440000      7.8799870E-27
   3.450000      1.3351414E-26
   3.460000      1.9044115E-26
   3.470000      2.4958659E-26
   3.480000      3.1095489E-26
   3.490000      3.7455085E-26
   3.500000      4.4038166E-26
   3.510000      5.0845879E-26
   3.520000      5.7880013E-26
   3.530000      6.5143203E-26
   3.540000      7.2639156E-26
   3.550000      8.0372773E-26
   3.560000      8.8350326E-26
   3.570000      9.6579569E-26
   3.580000      1.0506976E-25
   3.590000      1.1383170E-25
   3.600000      1.2287766E-25
   3.610000      1.3222128E-25
   3.620000      1.4187741E-25
   3.630000      1.5186192E-25
   3.640000      1.6219147E-25
   3.650000      1.7288319E-25
   3.660000      1.8395452E-25
   3.670000      1.9542282E-25
   3.680000      2.0730515E-25
   3.690000      2.1961801E-25
   3.700000      2.3237720E-25
   3.710000      2.4559754E-25
   3.720000      2.5929293E-25
   3.730000      2.7347621E-25
   3.740000      2.8815920E-25
   3.750000      3.0335281E-25
   3.760000      3.1906719E-25
   3.770000      3.3531184E-25
   3.780000      3.5209584E-25
   3.790000      3.6942807E-25
   3.800000      3.8731742E-25
   3.810000      4.0577292E-25
   3.820000      4.2480391E-25
   3.830000      4.4441993E-25
   3.840000      4.6463079E-25
   3.850000      4.8544646E-25
   3.860000      5.0687656E-25
   3.870000      5.2893015E-25
   3.880000      5.5161513E-25
   3.890000      5.7493746E-25
   3.900000      5.9890064E-25
   3.910000      6.2350452E-25
   3.920000      6.4874466E-25
   3.930000      6.7461102E-25
   3.940000      7.0108726E-25
   3.950000      7.2814963E-25
   3.960000      7.5576582E-25
   3.970000      7.8389434E-25
   3.980000      8.1248359E-25
   3.990000      8.4147112E-25
   4.000000      8.7078322E-25
   4.010000      9.0033425E-25
   4.020000      9.3002678E-25
   4.030000      9.5975086E-25
   4.040000      9.8938422E-25
   4.050000      1.0187925E-24
   4.060000      1.0478287E-24
   4.070000      1.0763340E-24
   4.080000      1.1041376E-24
   4.090000      1.1310560E-24
   4.100000      1.1568943E-24
   4.110000      1.1814443E-24
   4.120000      1.2044854E-24
   4.130000      1.2257834E-24
   4.140000      1.2450898E-24
   4.150000      1.2621409E-24
   4.160000      1.2766562E-24
   4.170000      1.2883378E-24
   4.180000      1.2968679E-24
   4.190000      1.3019083E-24
   4.200000      1.3030978E-24
   4.210000      1.3000514E-24
   4.220000      1.2923584E-24
   4.230000      1.2795807E-24
   4.240000      1.2612528E-24
   4.250000      1.2368802E-24
   4.260000      1.2059387E-24
   4.270000      1.1678754E-24
   4.280000      1.1221080E-24
   4.290000      1.0680258E-24
   4.300000      1.0049908E-24
   4.310000      9.3234031E-25
   4.320000      8.4938715E-25
   4.330000      7.5542331E-25
   4.340000      6.4972167E-25
   4.350000      5.3153926E-25
   4.360000      4.0011972E-25
   4.370000      2.5469641E-25
   4.380000      9.4495170E-26
   4.390000     -8.1262965E-26
   4.400000     -2.7335889E-25
   4.410000     -4.8257279E-25
   4.420000     -7.0968190E-25
   4.430000     -9.5545827E-25
   4.440000     -1.2206662E-24
   4.450000     -1.5060606E-24
   4.460000     -1.8123835E-24
   4.470000     -2.1403630E-24
   4.480000     -2.4907100E-24
   4.490000     -2.8641141E-24
   4.500000     -3.2612415E-24
   4.510000     -3.6827293E-24
   4.520000     -4.1291816E-24
   4.530000     -4.6011610E-24
   4.540000     -5.0991847E-24
   4.550000     -5.6237152E-24
   4.560000     -6.1751491E-24
   4.570000     -6.7538106E-24
   4.580000     -7.3599366E-24
   4.590000     -7.9936695E-24
   4.600000     -8.6550387E-24
   4.610000     -9.3439501E-24
   4.620000     -1.0060173E-23
   4.630000     -1.0803321E-23
   4.640000     -1.1572842E-23
   4.650000     -1.2368003E-23
   4.660000     -1.3187874E-23
   4.670000     -1.4031310E-23
   4.680000     -1.4896944E-23
   4.690000     -1.5783172E-23
   4.700000     -1.6688135E-23
   4.710000     -1.7609709E-23
   4.720000     -1.8545495E-23
   4.730000     -1.9492808E-23
   4.740000     -2.0448660E-23
   4.750000     -2.1409751E-23
   4.760000     -2.2372466E-23
   4.770000     -2.3332851E-23
   4.780000     -2.4286609E-23
   4.790000     -2.5229086E-23
   4.800000     -2.6155261E-23
   4.810000     -2.7059728E-23
   4.820000     -2.7936692E-23
   4.830000     -2.8779943E-23
   4.840000     -2.9582852E-23
   4.850000     -3.0338350E-23
   4.860000     -3.1038919E-23
   4.870000     -3.1676574E-23
   4.880000     -3.2242853E-23
   4.890000     -3.2728801E-23
   4.900000     -3.3124957E-23
   4.910000     -3.3421364E-23
   4.920000     -3.3607535E-23
   4.930000     -3.3672468E-23
   4.940000     -3.3604648E-23
   4.950000     -3.3392037E-23
   4.960000     -3.3022096E-23
   4.970000     -3.2481783E-23
   4.980000     -3.1757590E-23
   4.990000     -3.0835547E-23
   5.000000     -2.9701257E-23
   5.010000     -2.8339920E-23
   5.020000     -2.6736370E-23
   5.030000     -2.4875126E-23
   5.040000     -2.2740422E-23
   5.050000     -2.0316264E-23
   5.060000     -1.7586469E-23
   5.070000     -1.4534735E-23
   5.080000     -1.1144698E-23
   5.090000     -7.3999862E-24
   5.100000     -3.2842971E-24
   5.110000      1.2185407E-24
   5.120000      6.1244952E-24
   5.130000      1.1449242E-23
   5.140000      1.7208082E-23
   5.150000      2.3415861E-23
   5.160000      3.0086865E-23
   5.170000      3.7234727E-23
   5.180000      4.4872320E-23
   5.190000      5.3011636E-23
   5.200000      6.1663660E-23
   5.210000      7.0838245E-23
   5.220000      8.0543961E-23
   5.230000      9.0787963E-23
   5.240000      1.0157580E-22
   5.250000      1.1291128E-22
   5.260000      1.2479623E-22
   5.270000      1.3723041E-22
   5.280000      1.5021121E-22
   5.290000      1.6373350E-22
   5.300000      1.7778942E-22
   5.310000      1.9236820E-22
   5.320000      2.0745581E-22
   5.330000      2.2303493E-22
   5.340000      2.3908453E-22
   5.350000      2.5557978E-22
   5.360000      2.7249177E-22
   5.370000      2.8978728E-22
   5.380000      3.0742861E-22
   5.390000      3.2537322E-22
   5.400000      3.4357366E-22
   5.410000      3.6197732E-22
   5.420000      3.8052620E-22
   5.430000      3.9915665E-22
   5.440000      4.1779934E-22
   5.450000      4.3637887E-22
   5.460000      4.5481363E-22
   5.470000      4.7301574E-22
   5.480000      4.9089080E-22
   5.490000      5.0833768E-22
   5.500000      5.2524838E-22
   5.510000      5.4150800E-22
   5.520000      5.5699447E-22
   5.530000      5.7157842E-22
   5.540000      5.8512320E-22
   5.550000      5.9748466E-22
   5.560000      6.0851120E-22
   5.570000      6.1804372E-22
   5.580000      6.2591541E-22
   5.590000      6.3195205E-22
   5.600000      6.3597184E-22
   5.610000      6.3778569E-22
   5.620000      6.3719716E-22
   5.630000      6.3400279E-22
   5.640000      6.2799220E-22
   5.650000      6.1894824E-22
   5.660000      6.0664782E-22
   5.670000      5.9086182E-22
   5.680000      5.7135557E-22
   5.690000      5.4788952E-22
   5.700000      5.2021971E-22
   5.710000      4.8809856E-22
   5.720000      4.5127504E-22
   5.730000      4.0949600E-22
   5.740000      3.6250685E-22
   5.750000      3.1005210E-22
   5.760000      2.5187670E-22
   5.770000      1.8772698E-22
   5.780000      1.1735157E-22
   5.790000      4.0502583E-23
   5.800000     -4.3062980E-23
   5.810000     -1.3358212E-22
   5.820000     -2.3128442E-22
   5.830000     -3.3639064E-22
   5.840000     -4.4911111E-22
   5.850000     -5.6964421E-22
   5.860000     -6.9817462E-22
   5.870000     -8.3487172E-22
   5.880000     -9.7988732E-22
   5.890000     -1.1333544E-21
   5.900000     -1.2953842E-21
   5.910000     -1.4660653E-21
   5.920000     -1.6454599E-21
   5.930000     -1.8336031E-21
   5.940000     -2.0304994E-21
   5.950000     -2.2361210E-21
   5.960000     -2.4504046E-21
   5.970000     -2.6732494E-21
   5.980000     -2.9045143E-21
   5.990000     -3.1440148E-21
   6.000000     -3.3915209E-21
   6.010000     -3.6467538E-21
   6.020000     -3.9093840E-21
   6.030000     -4.1790271E-21
   6.040000     -4.4552416E-21
   6.050000     -4.7375275E-21
   6.060000     -5.0253205E-21
   6.070000     -5.3179918E-21
   6.080000     -5.6148450E-21
   6.090000     -5.9151112E-21
   6.100000     -6.2179498E-21
   6.110000     -6.5224439E-21
   6.120000     -6.8275981E-21
   6.130000     -7.1323349E-21
   6.140000     -7.4354958E-21
   6.150000     -7.7358367E-21
   6.160000     -8.0320255E-21
   6.170000     -8.3226438E-21
   6.180000     -8.6061785E-21
   6.190000     -8.8810279E-21
   6.200000     -9.1454955E-21
   6.210000     -9.3977920E-21
   6.220000     -9.6360313E-21
   6.230000     -9.8582335E-21
   6.240000     -1.0062322E-20
   6.250000     -1.0246124E-20
   6.260000     -1.0407375E-20
   6.270000     -1.0543713E-20
   6.280000     -1.0652684E-20
   6.290000     -1.0731744E-20
   6.300000     -1.0778258E-20
   6.310000     -1.0789508E-20
   6.320000     -1.0762690E-20
   6.330000     -1.0694923E-20
   6.340000     -1.0583247E-20
   6.350000     -1.0424636E-20
   6.360000     -1.0215999E-20
   6.370000     -9.9541849E-21
   6.380000     -9.6359926E-21
   6.390000     -9.2581786E-21
   6.400000     -8.8174602E-21
   6.410000     -8.3105309E-21
   6.420000     -7.7340660E-21
   6.430000     -7.0847349E-21
   6.440000     -6.3592143E-21
   6.450000     -5.5541967E-21
   6.460000     -4.6664057E-21
   6.470000     -3.6926098E-21
   6.480000     -2.6296342E-21
   6.490000     -1.4743799E-21
   6.500000     -2.2383735E-22
   6.510000      1.1248951E-21
   6.520000      2.5745934E-21
   6.530000      4.1278889E-21
   6.540000      5.7872500E-21
   6.550000      7.5549612E-21
   6.560000      9.4330974E-21
   6.570000      1.1423506E-20
   6.580000      1.3527786E-20
   6.590000      1.5747259E-20
   6.600000      1.8082947E-20
   6.610000      2.0535547E-20
   6.620000      2.3105402E-20
   6.630000      2.5792479E-20
   6.640000      2.8596335E-20
   6.650000      3.1516102E-20
   6.660000      3.4550439E-20
   6.670000      3.7697512E-20
   6.680000      4.0954982E-20
   6.690000      4.4319937E-20
   6.700000      4.7788890E-20
   6.710000      5.1357751E-20
   6.720000      5.5021786E-20
   6.730000      5.8775583E-20
   6.740000      6.2613016E-20
   6.750000      6.6527267E-20
   6.760000      7.0510704E-20
   6.770000      7.4554945E-20
   6.780000      7.8650775E-20
   6.790000      8.2788145E-20
   6.800000      8.6956121E-20
   6.810000      9.1142876E-20
   6.820000      9.5335661E-20
   6.830000      9.9520788E-20
   6.840000      1.0368361E-19
   6.850000      1.0780848E-19
   6.860000      1.1187878E-19
   6.870000      1.1587684E-19
   6.880000      1.1978401E-19
   6.890000      1.2358055E-19
   6.900000      1.2724572E-19
   6.910000      1.3075771E-19
   6.920000      1.3409368E-19
   6.930000      1.3722972E-19
   6.940000      1.4014087E-19
   6.950000      1.4280118E-19
   6.960000      1.4518365E-19
   6.970000      1.4726029E-19
   6.980000      1.4900214E-19
   6.990000      1.5037925E-19
   7.000000      1.5136080E-19
   7.010000      1.5191511E-19
   7.020000      1.5200961E-19
   7.030000      1.5161103E-19
   7.040000      1.5068527E-19
   7.050000      1.4919764E-19
   7.060000      1.4711282E-19