  -2.600000      0.0000000E+00
  -2.590000      0.0000000E+00
  -2.580000      0.0000000E+00
  -2.570000      0.0000000E+00
  -2.560000      0.0000000E+00
  -2.550000      0.0000000E+00
  -2.540000      0.0000000E+00
  -2.530000      0.0000000E+00
  -2.520000      0.0000000E+00
  -2.510000      0.0000000E+00
  -2.500000      0.0000000E+00
  -2.490000      0.0000000E+00
  -2.480000      0.0000000E+00
  -2.470000      0.0000000E+00
  -2.460000      0.0000000E+00
  -2.450000      0.0000000E+00
  -2.440000      0.0000000E+00
  -2.430000      0.0000000E+00
  -2.420000      0.0000000E+00
  -2.410000      0.0000000E+00
  -2.400000      0.0000000E+00
  -2.390000      0.0000000E+00
  -2.380000      0.0000000E+00
  -2.370000      0.0000000E+00
  -2.360000      0.0000000E+00
  -2.350000      0.0000000E+00
  -2.340000      0.0000000E+00
  -2.330000      0.0000000E+00
  -2.320000      0.0000000E+00
  -2.310000      0.0000000E+00
  -2.300000      0.0000000E+00
  -2.290000      0.0000000E+00
  -2.280000      0.0000000E+00
  -2.270000      0.0000000E+00
  -2.260000      0.0000000E+00
  -2.250000      0.0000000E+00
  -2.240000      0.0000000E+00
  -2.230000      0.0000000E+00
  -2.220000      0.0000000E+00
  -2.210000      0.0000000E+00
  -2.200000      0.0000000E+00
  -2.190000      0.0000000E+00
  -2.180000      0.0000000E+00
  -2.170000      0.0000000E+00
  -2.160000      0.0000000E+00
  -2.150000      0.0000000E+00
  -2.140000      0.0000000E+00
  -2.130000      0.0000000E+00
  -2.120000      0.0000000E+00
  -2.110000      0.0000000E+00
  -2.100000      0.0000000E+00
  -2.090000      0.0000000E+00
  -2.080000      0.0000000E+00
  -2.070000      0.0000000E+00
  -2.060000      0.0000000E+00
  -2.050000      0.0000000E+00
  -2.040000      0.0000000E+00
  -2.030000      0.0000000E+00
  -2.020000      0.0000000E+00
  -2.010000      0.0000000E+00
  -2.000000      0.0000000E+00
  -1.990000      0.0000000E+00
  -1.980000      0.0000000E+00
  -1.970000      0.0000000E+00
  -1.960000      0.0000000E+00
  -1.950000      0.0000000E+00
  -1.940000      0.0000000E+00
  -1.930000      0.0000000E+00
  -1.920000      0.0000000E+00
  -1.910000      0.0000000E+00
  -1.900000      0.0000000E+00
  -1.890000      0.0000000E+00
  -1.880000      0.0000000E+00
  -1.870000      0.0000000E+00
  -1.860000      0.0000000E+00
  -1.850000      0.0000000E+00
  -1.840000      0.0000000E+00
  -1.830000      0.0000000E+00
  -1.820000      0.0000000E+00
  -1.810000      0.0000000E+00
  -1.800000      0.0000000E+00
  -1.790000      0.0000000E+00
  -1.780000      0.0000000E+00
  -1.770000      0.0000000E+00
  -1.760000      0.0000000E+00
  -1.750000      0.0000000E+00
  -1.740000      0.0000000E+00
  -1.730000      0.0000000E+00
  -1.720000      0.0000000E+00
  -1.710000      0.0000000E+00
  -1.700000      0.0000000E+00
  -1.690000      0.0000000E+00
  -1.680000      0.0000000E+00
  -1.670000      0.0000000E+00
  -1.660000      0.0000000E+00
  -1.650000      0.0000000E+00
  -1.640000      0.0000000E+00
  -1.630000      0.0000000E+00
  -1.620000      0.0000000E+00
  -1.610000      0.0000000E+00
  -1.600000      0.0000000E+00
  -1.590000      0.0000000E+00
  -1.580000      0.0000000E+00
  -1.570000      0.0000000E+00
  -1.560000      0.0000000E+00
  -1.550000      0.0000000E+00
  -1.540000      0.0000000E+00
  -1.530000      0.0000000E+00
  -1.520000      0.0000000E+00
  -1.510000      0.0000000E+00
  -1.500000      0.0000000E+00
  -1.490000      0.0000000E+00
  -1.480000      0.0000000E+00
  -1.470000      0.0000000E+00
  -1.460000      0.0000000E+00
  -1.450000      0.0000000E+00
  -1.440000      0.0000000E+00
  -1.430000      0.0000000E+00
  -1.420000      0.0000000E+00
  -1.410000      0.0000000E+00
  -1.400000      0.0000000E+00
  -1.390000      0.0000000E+00
  -1.380000      0.0000000E+00
  -1.370000      0.0000000E+00
  -1.360000      0.0000000E+00
  -1.350000      0.0000000E+00
  -1.340000      0.0000000E+00
  -1.330000      0.0000000E+00
  -1.320000      0.0000000E+00
  -1.310000      0.0000000E+00
  -1.300000      0.0000000E+00
  -1.290000      0.0000000E+00
  -1.280000      0.0000000E+00
  -1.270000      0.0000000E+00
  -1.260000      0.0000000E+00
  -1.250000      0.0000000E+00
  -1.240000      0.0000000E+00
  -1.230000      0.0000000E+00
  -1.220000      0.0000000E+00
  -1.210000      0.0000000E+00
  -1.200000      0.0000000E+00
  -1.190000      0.0000000E+00
  -1.180000      0.0000000E+00
  -1.170000      0.0000000E+00
  -1.160000      0.0000000E+00
  -1.150000      0.0000000E+00
  -1.140000      0.0000000E+00
  -1.130000      0.0000000E+00
  -1.120000      0.0000000E+00
  -1.110000      0.0000000E+00
  -1.100000      0.0000000E+00
  -1.090000      0.0000000E+00
  -1.080000      0.0000000E+00
  -1.070000      0.0000000E+00
  -1.060000      0.0000000E+00
  -1.050000      0.0000000E+00
  -1.040000      0.0000000E+00
  -1.030000      0.0000000E+00
  -1.020000      0.0000000E+00
  -1.010000      0.0000000E+00
  -1.000000      0.0000000E+00
 -0.9900000      0.0000000E+00
 -0.9800000      0.0000000E+00
 -0.9700000      0.0000000E+00
 -0.9600000      0.0000000E+00
 -0.9500000      0.0000000E+00
 -0.9400000      0.0000000E+00
 -0.9300000      0.0000000E+00
 -0.9200000      0.0000000E+00
 -0.9100000      0.0000000E+00
 -0.9000000      0.0000000E+00
 -0.8900000      0.0000000E+00
 -0.8800000      0.0000000E+00
 -0.8700000      0.0000000E+00
 -0.8600000      0.0000000E+00
 -0.8500000      0.0000000E+00
 -0.8400000      0.0000000E+00
 -0.8300000      0.0000000E+00
 -0.8200000      0.0000000E+00
 -0.8100000      0.0000000E+00
 -0.8000000      0.0000000E+00
 -0.7900000      0.0000000E+00
 -0.7800000      0.0000000E+00
 -0.7700000      0.0000000E+00
 -0.7600000      0.0000000E+00
 -0.7500000      0.0000000E+00
 -0.7400000      0.0000000E+00
 -0.7300000      0.0000000E+00
 -0.7200000      0.0000000E+00
 -0.7100000      0.0000000E+00
 -0.7000000      0.0000000E+00
 -0.6900000      0.0000000E+00
 -0.6800000      0.0000000E+00
 -0.6700000      0.0000000E+00
 -0.6600000      0.0000000E+00
 -0.6500000      0.0000000E+00
 -0.6400000      0.0000000E+00
 -0.6300000      0.0000000E+00
 -0.6200000      0.0000000E+00
 -0.6100000      0.0000000E+00
 -0.6000000      0.0000000E+00
 -0.5900000      0.0000000E+00
 -0.5800000      0.0000000E+00
 -0.5700000      0.0000000E+00
 -0.5600000      0.0000000E+00
 -0.5500000      0.0000000E+00
 -0.5400000      0.0000000E+00
 -0.5300000      0.0000000E+00
 -0.5200000      0.0000000E+00
 -0.5100000      0.0000000E+00
 -0.5000000      0.0000000E+00
 -0.4900000      0.0000000E+00
 -0.4800000      0.0000000E+00
 -0.4700000      0.0000000E+00
 -0.4600000      0.0000000E+00
 -0.4500000      0.0000000E+00
 -0.4400000      0.0000000E+00
 -0.4300000      0.0000000E+00
 -0.4200000      0.0000000E+00
 -0.4100000      0.0000000E+00
 -0.4000000      0.0000000E+00
 -0.3900000      0.0000000E+00
 -0.3800000      0.0000000E+00
 -0.3700000      0.0000000E+00
 -0.3600000      0.0000000E+00
 -0.3500000      0.0000000E+00
 -0.3400000      0.0000000E+00
 -0.3300000      0.0000000E+00
 -0.3200000      0.0000000E+00
 -0.3100000      0.0000000E+00
 -0.3000000      0.0000000E+00
 -0.2900000      0.0000000E+00
 -0.2800000      0.0000000E+00
 -0.2700000      0.0000000E+00
 -0.2600000      0.0000000E+00
 -0.2500000      0.0000000E+00
 -0.2400000      0.0000000E+00
 -0.2300000      0.0000000E+00
 -0.2200000      0.0000000E+00
 -0.2100000      0.0000000E+00
 -0.2000000      0.0000000E+00
 -0.1900000      0.0000000E+00
 -0.1800000      0.0000000E+00
 -0.1700000      0.0000000E+00
 -0.1600000      0.0000000E+00
 -0.1500000      0.0000000E+00
 -0.1400000      0.0000000E+00
 -0.1300000      0.0000000E+00
 -0.1200000      0.0000000E+00
 -0.1100000      0.0000000E+00
 -0.1000000      0.0000000E+00
 -9.0000004E-02  0.0000000E+00
 -7.9999998E-02  0.0000000E+00
 -7.0000000E-02  0.0000000E+00
 -5.9999999E-02  0.0000000E+00
 -5.0000001E-02  0.0000000E+00
 -3.9999999E-02  0.0000000E+00
 -2.9999999E-02  0.0000000E+00
 -2.0000000E-02  0.0000000E+00
 -9.9999998E-03  0.0000000E+00
 -3.4694470E-17  0.0000000E+00
  9.9999998E-03  0.0000000E+00
  2.0000000E-02  0.0000000E+00
  2.9999999E-02  0.0000000E+00
  3.9999999E-02  0.0000000E+00
  5.0000001E-02  0.0000000E+00
  5.9999999E-02  0.0000000E+00
  7.0000000E-02  0.0000000E+00
  7.9999998E-02  0.0000000E+00
  9.0000004E-02  0.0000000E+00
  0.1000000      0.0000000E+00
  0.1100000      0.0000000E+00
  0.1200000      0.0000000E+00
  0.1300000      0.0000000E+00
  0.1400000      0.0000000E+00
  0.1500000      0.0000000E+00
  0.1600000      0.0000000E+00
  0.1700000      0.0000000E+00
  0.1800000      0.0000000E+00
  0.1900000      0.0000000E+00
  0.2000000      0.0000000E+00
  0.2100000      0.0000000E+00
  0.2200000      0.0000000E+00
  0.2300000      0.0000000E+00
  0.2400000      0.0000000E+00
  0.2500000      0.0000000E+00
  0.2600000      0.0000000E+00
  0.2700000      0.0000000E+00
  0.2800000      0.0000000E+00
  0.2900000      0.0000000E+00
  0.3000000      0.0000000E+00
  0.3100000      0.0000000E+00
  0.3200000      0.0000000E+00
  0.3300000      0.0000000E+00
  0.3400000      0.0000000E+00
  0.3500000      0.0000000E+00
  0.3600000      0.0000000E+00
  0.3700000      0.0000000E+00
  0.3800000      0.0000000E+00
  0.3900000      0.0000000E+00
  0.4000000      0.0000000E+00
  0.4100000      0.0000000E+00
  0.4200000      0.0000000E+00
  0.4300000      0.0000000E+00
  0.4400000      0.0000000E+00
  0.4500000      0.0000000E+00
  0.4600000      0.0000000E+00
  0.4700000      0.0000000E+00
  0.4800000      0.0000000E+00
  0.4900000      0.0000000E+00
  0.5000000      0.0000000E+00
  0.5100000      0.0000000E+00
  0.5200000      0.0000000E+00
  0.5300000      0.0000000E+00
  0.5400000      0.0000000E+00
  0.5500000      0.0000000E+00
  0.5600000      0.0000000E+00
  0.5700000      0.0000000E+00
  0.5800000      0.0000000E+00
  0.5900000      0.0000000E+00
  0.6000000      0.0000000E+00
  0.6100000      0.0000000E+00
  0.6200000      0.0000000E+00
  0.6300000      0.0000000E+00
  0.6400000      0.0000000E+00
  0.6500000      0.0000000E+00
  0.6600000      0.0000000E+00
  0.6700000      0.0000000E+00
  0.6800000      0.0000000E+00
  0.6900000      0.0000000E+00
  0.7000000      0.0000000E+00
  0.7100000      0.0000000E+00
  0.7200000      0.0000000E+00
  0.7300000      0.0000000E+00
  0.7400000      0.0000000E+00
  0.7500000      0.0000000E+00
  0.7600000      0.0000000E+00
  0.7700000      0.0000000E+00
  0.7800000      0.0000000E+00
  0.7900000      0.0000000E+00
  0.8000000      0.0000000E+00
  0.8100000      0.0000000E+00
  0.8200000      0.0000000E+00
  0.8300000      0.0000000E+00
  0.8400000      0.0000000E+00
  0.8500000      0.0000000E+00
  0.8600000      0.0000000E+00
  0.8700000      0.0000000E+00
  0.8800000      0.0000000E+00
  0.8900000      0.0000000E+00
  0.9000000      0.0000000E+00
  0.9100000      0.0000000E+00
  0.9200000      0.0000000E+00
  0.9300000      0.0000000E+00
  0.9400000      0.0000000E+00
  0.9500000      0.0000000E+00
  0.9600000      0.0000000E+00
  0.9700000      0.0000000E+00
  0.9800000      0.0000000E+00
  0.9900000      0.0000000E+00
   1.000000      0.0000000E+00
   1.010000      0.0000000E+00
   1.020000      0.0000000E+00
   1.030000      0.0000000E+00
   1.040000      0.0000000E+00
   1.050000      0.0000000E+00
   1.060000      0.0000000E+00
   1.070000      0.0000000E+00
   1.080000      0.0000000E+00
   1.090000      0.0000000E+00
   1.100000      0.0000000E+00
   1.110000      0.0000000E+00
   1.120000      0.0000000E+00
   1.130000      0.0000000E+00
   1.140000      0.0000000E+00
   1.150000      0.0000000E+00
   1.160000      0.0000000E+00
   1.170000      0.0000000E+00
   1.180000      0.0000000E+00
   1.190000      0.0000000E+00
   1.200000      0.0000000E+00
   1.210000      0.0000000E+00
   1.220000      0.0000000E+00
   1.230000      0.0000000E+00
   1.240000      0.0000000E+00
   1.250000      0.0000000E+00
   1.260000      0.0000000E+00
   1.270000      0.0000000E+00
   1.280000      0.0000000E+00
   1.290000      0.0000000E+00
   1.300000      0.0000000E+00
   1.310000      0.0000000E+00
   1.320000      0.0000000E+00
   1.330000      0.0000000E+00
   1.340000      0.0000000E+00
   1.350000      0.0000000E+00
   1.360000      0.0000000E+00
   1.370000      0.0000000E+00
   1.380000      0.0000000E+00
   1.390000      0.0000000E+00
   1.400000      0.0000000E+00
   1.410000      0.0000000E+00
   1.420000      0.0000000E+00
   1.430000      0.0000000E+00
   1.440000      0.0000000E+00
   1.450000      0.0000000E+00
   1.460000      0.0000000E+00
   1.470000      0.0000000E+00
   1.480000      0.0000000E+00
   1.490000      0.0000000E+00
   1.500000      0.0000000E+00
   1.510000      0.0000000E+00
   1.520000      0.0000000E+00
   1.530000      0.0000000E+00
   1.540000      0.0000000E+00
   1.550000      0.0000000E+00
   1.560000      0.0000000E+00
   1.570000      0.0000000E+00
   1.580000      0.0000000E+00
   1.590000      0.0000000E+00
   1.600000      0.0000000E+00
   1.610000      0.0000000E+00
   1.620000      0.0000000E+00
   1.630000      0.0000000E+00
   1.640000      0.0000000E+00
   1.650000      0.0000000E+00
   1.660000      0.0000000E+00
   1.670000      0.0000000E+00
   1.680000      0.0000000E+00
   1.690000      0.0000000E+00
   1.700000      0.0000000E+00
   1.710000      0.0000000E+00
   1.720000      0.0000000E+00
   1.730000      0.0000000E+00
   1.740000      0.0000000E+00
   1.750000      0.0000000E+00
   1.760000      0.0000000E+00
   1.770000      0.0000000E+00
   1.780000      0.0000000E+00
   1.790000      0.0000000E+00
   1.800000      0.0000000E+00
   1.810000      0.0000000E+00
   1.820000      0.0000000E+00
   1.830000      0.0000000E+00
   1.840000      0.0000000E+00
   1.850000      0.0000000E+00
   1.860000      0.0000000E+00
   1.870000      0.0000000E+00
   1.880000      0.0000000E+00
   1.890000      0.0000000E+00
   1.900000      0.0000000E+00
   1.910000      0.0000000E+00
   1.920000      0.0000000E+00
   1.930000      0.0000000E+00
   1.940000      0.0000000E+00
   1.950000      0.0000000E+00
   1.960000      0.0000000E+00
   1.970000      0.0000000E+00
   1.980000      0.0000000E+00
   1.990000      0.0000000E+00
   2.000000     -1.8653829E-38
   2.010000     -2.7657097E-38
   2.020000     -3.6238007E-38
   2.030000     -4.5187730E-38
   2.040000     -5.4718183E-38
   2.050000     -6.2810805E-38
   2.060000     -6.7486797E-38
   2.070000     -7.0922451E-38
   2.080000     -7.5308111E-38
   2.090000     -7.9497568E-38
   2.100000     -8.7105553E-38
   2.110000     -9.8200384E-38
   2.120000     -1.0811235E-37
   2.130000     -1.1456039E-37
   2.140000     -1.2968906E-37
   2.150000     -1.5777531E-37
   2.160000     -1.9534827E-37
   2.170000     -2.4431598E-37
   2.180000     -3.0083105E-37
   2.190000     -3.6433805E-37
   2.200000     -4.1381236E-37
   2.210000     -4.3971961E-37
   2.220000     -4.5781084E-37
   2.230000     -4.7455360E-37
   2.240000     -4.6019283E-37
   2.250000     -4.0480809E-37
   2.260000     -3.3102842E-37
   2.270000     -2.4140859E-37
   2.280000     -1.3811951E-37
   2.290000     -1.5683791E-38
   2.300000      1.2501737E-37
   2.310000      2.7747358E-37
   2.320000      4.6252697E-37
   2.330000      6.8605994E-37
   2.340000      9.5069899E-37
   2.350000      1.2721879E-36
   2.360000      1.6255878E-36
   2.370000      1.9845577E-36
   2.380000      2.3432485E-36
   2.390000      2.7149512E-36
   2.400000      3.0820671E-36
   2.410000      3.4511349E-36
   2.420000      3.7173330E-36
   2.430000      3.9127338E-36
   2.440000      4.1452717E-36
   2.450000      4.3568234E-36
   2.460000      4.5981398E-36
   2.470000      4.8681268E-36
   2.480000      5.1112498E-36
   2.490000      5.3029952E-36
   2.500000      5.4319925E-36
   2.510000      5.5208663E-36
   2.520000      5.5965534E-36
   2.530000      5.6491303E-36
   2.540000      5.6759215E-36
   2.550000      5.5925905E-36
   2.560000      5.2046964E-36
   2.570000      4.6215736E-36
   2.580000      4.0575100E-36
   2.590000      3.5504959E-36
   2.600000      3.0743938E-36
   2.610000      2.5295748E-36
   2.620000      2.1476090E-36
   2.630000      1.8755054E-36
   2.640000      1.5242327E-36
   2.650000      1.0698919E-36
   2.660000      3.8685223E-37
   2.670000     -5.6981284E-37
   2.680000     -1.8503335E-36
   2.690000     -3.3572216E-36
   2.700000     -5.1564483E-36
   2.710000     -7.2922227E-36
   2.720000     -9.6882947E-36
   2.730000     -1.2588912E-35
   2.740000     -1.5944245E-35
   2.750000     -1.9514093E-35
   2.760000     -2.3232914E-35
   2.770000     -2.6894556E-35
   2.780000     -3.0415575E-35
   2.790000     -3.3885519E-35
   2.800000     -3.7271221E-35
   2.810000     -4.0468445E-35
   2.820000     -4.3609474E-35
   2.830000     -4.6610627E-35
   2.840000     -4.9240609E-35
   2.850000     -5.1418568E-35
   2.860000     -5.3275797E-35
   2.870000     -5.4751468E-35
   2.880000     -5.5454468E-35
   2.890000     -5.5152749E-35
   2.900000     -5.3902787E-35
   2.910000     -5.1833475E-35
   2.920000     -4.8972954E-35
   2.930000     -4.5720308E-35
   2.940000     -4.2236534E-35
   2.950000     -3.7801780E-35
   2.960000     -3.2469984E-35
   2.970000     -2.6759661E-35
   2.980000     -2.1120244E-35
   2.990000     -1.5796535E-35
   3.000000     -1.0489720E-35
   3.010000     -5.3118394E-36
   3.020000     -1.3663769E-37
   3.030000      5.6681048E-36
   3.040000      1.2081787E-35
   3.050000      1.8817799E-35
   3.060000      2.6168040E-35
   3.070000      3.3566795E-35
   3.080000      4.0915842E-35
   3.090000      4.9155483E-35
   3.100000      5.8906817E-35
   3.110000      6.9892943E-35
   3.120000      8.1853684E-35
   3.130000      9.5742207E-35
   3.140000      1.1087328E-34
   3.150000      1.2609018E-34
   3.160000      1.4276268E-34
   3.170000      1.6136945E-34
   3.180000      1.7962537E-34
   3.190000      1.9724258E-34
   3.200000      2.1424197E-34
   3.210000      2.3127023E-34
   3.220000      2.4896920E-34
   3.230000      2.6565828E-34
   3.240000      2.8115382E-34
   3.250000      2.9562106E-34
   3.260000      3.0949288E-34
   3.270000      3.2240910E-34
   3.280000      3.3042946E-34
   3.290000      3.3335562E-34
   3.300000      3.3389775E-34
   3.310000      3.3303048E-34
   3.320000      3.3132192E-34
   3.330000      3.2680359E-34
   3.340000      3.1902393E-34
   3.350000      3.0773678E-34
   3.360000      2.9391698E-34
   3.370000      2.7830118E-34
   3.380000      2.5835302E-34
   3.390000      2.3463526E-34
   3.400000      2.0878155E-34
   3.410000      1.7749399E-34
   3.420000      1.3961080E-34
   3.430000      9.6915342E-35
   3.440000      4.8844080E-35
   3.450000     -2.3409973E-36
   3.460000     -5.3891061E-35
   3.470000     -1.0406705E-34
   3.480000     -1.5522618E-34
   3.490000     -2.1277991E-34
   3.500000     -2.7416980E-34
   3.510000     -3.3675962E-34
   3.520000     -4.0599729E-34
   3.530000     -4.8258874E-34
   3.540000     -5.6261667E-34
   3.550000     -6.4620244E-34
   3.560000     -7.3313553E-34
   3.570000     -8.2224223E-34
   3.580000     -9.1563231E-34
   3.590000     -1.0130206E-33
   3.600000     -1.1094287E-33
   3.610000     -1.2032261E-33
   3.620000     -1.2970823E-33
   3.630000     -1.3908039E-33
   3.640000     -1.4828413E-33
   3.650000     -1.5712177E-33
   3.660000     -1.6541208E-33
   3.670000     -1.7324259E-33
   3.680000     -1.8053110E-33
   3.690000     -1.8724244E-33
   3.700000     -1.9303285E-33
   3.710000     -1.9771497E-33
   3.720000     -2.0164529E-33
   3.730000     -2.0464097E-33
   3.740000     -2.0665898E-33
   3.750000     -2.0795617E-33
   3.760000     -2.0855298E-33
   3.770000     -2.0808489E-33
   3.780000     -2.0611814E-33
   3.790000     -2.0251788E-33
   3.800000     -1.9692662E-33
   3.810000     -1.8881327E-33
   3.820000     -1.7815998E-33
   3.830000     -1.6547616E-33
   3.840000     -1.5076799E-33
   3.850000     -1.3383526E-33
   3.860000     -1.1445890E-33
   3.870000     -9.2525236E-34
   3.880000     -6.8133255E-34
   3.890000     -4.1148974E-34
   3.900000     -1.1278471E-34
   3.910000      2.1670766E-34
   3.920000      5.7389567E-34
   3.930000      9.5751004E-34
   3.940000      1.3676600E-33
   3.950000      1.8022716E-33
   3.960000      2.2622251E-33
   3.970000      2.7480955E-33
   3.980000      3.2559695E-33
   3.990000      3.7836180E-33
   4.000000      4.3336689E-33
   4.010000      4.9070850E-33
   4.020000      5.5017066E-33
   4.030000      6.1131132E-33
   4.040000      6.7390018E-33
   4.050000      7.3763027E-33
   4.060000      8.0213971E-33
   4.070000      8.6718870E-33
   4.080000      9.3264074E-33
   4.090000      9.9821908E-33
   4.100000      1.0633678E-32
   4.110000      1.1275639E-32
   4.120000      1.1903597E-32
   4.130000      1.2514911E-32
   4.140000      1.3104662E-32
   4.150000      1.3665934E-32
   4.160000      1.4192975E-32
   4.170000      1.4682057E-32
   4.180000      1.5128930E-32
   4.190000      1.5524376E-32
   4.200000      1.5857885E-32
   4.210000      1.6124983E-32
   4.220000      1.6318614E-32
   4.230000      1.6428843E-32
   4.240000      1.6448496E-32
   4.250000      1.6373687E-32
   4.260000      1.6194310E-32
   4.270000      1.5899233E-32
   4.280000      1.5482304E-32
   4.290000      1.4933812E-32
   4.300000      1.4247939E-32
   4.310000      1.3414991E-32
   4.320000      1.2423839E-32
   4.330000      1.1270092E-32
   4.340000      9.9466607E-33
   4.350000      8.4459159E-33
   4.360000      6.7616015E-33
   4.370000      4.8881342E-33
   4.380000      2.8208654E-33
   4.390000      5.5512009E-34
   4.400000     -1.9144781E-33
   4.410000     -4.5924955E-33
   4.420000     -7.4798483E-33
   4.430000     -1.0578631E-32
   4.440000     -1.3890505E-32
   4.450000     -1.7415288E-32
   4.460000     -2.1152239E-32
   4.470000     -2.5098800E-32
   4.480000     -2.9251025E-32
   4.490000     -3.3604853E-32
   4.500000     -3.8154298E-32
   4.510000     -4.2892790E-32
   4.520000     -4.7811320E-32
   4.530000     -5.2897839E-32
   4.540000     -5.8140444E-32
   4.550000     -6.3525243E-32
   4.560000     -6.9036454E-32
   4.570000     -7.4656299E-32
   4.580000     -8.0365287E-32
   4.590000     -8.6141831E-32
   4.600000     -9.1961926E-32
   4.610000     -9.7798832E-32
   4.620000     -1.0362458E-31
   4.630000     -1.0940885E-31
   4.640000     -1.1511821E-31
   4.650000     -1.2071762E-31
   4.660000     -1.2616803E-31
   4.670000     -1.3142787E-31
   4.680000     -1.3645669E-31
   4.690000     -1.4121015E-31
   4.700000     -1.4563962E-31
   4.710000     -1.4969496E-31
   4.720000     -1.5332441E-31
   4.730000     -1.5647204E-31
   4.740000     -1.5908096E-31
   4.750000     -1.6109512E-31
   4.760000     -1.6245435E-31
   4.770000     -1.6309387E-31
   4.780000     -1.6294941E-31
   4.790000     -1.6195679E-31
   4.800000     -1.6004829E-31
   4.810000     -1.5715789E-31
   4.820000     -1.5321807E-31
   4.830000     -1.4815859E-31
   4.840000     -1.4191010E-31
   4.850000     -1.3440318E-31
   4.860000     -1.2556876E-31
   4.870000     -1.1533814E-31
   4.880000     -1.0364380E-31
   4.890000     -9.0419378E-32
   4.900000     -7.5599985E-32
   4.910000     -5.9122875E-32
   4.920000     -4.0927739E-32
   4.930000     -2.0957207E-32
   4.940000      8.4267517E-34
   4.950000      2.4522061E-32
   4.960000      5.0126770E-32
   4.970000      7.7697332E-32
   4.980000      1.0726882E-31
   4.990000      1.3887026E-31
   5.000000      1.7252378E-31
   5.010000      2.0824409E-31
   5.020000      2.4603776E-31
   5.030000      2.8590256E-31
   5.040000      3.2782668E-31
   5.050000      3.7178815E-31
   5.060000      4.1775353E-31
   5.070000      4.6567829E-31
   5.080000      5.1550562E-31
   5.090000      5.6716469E-31
   5.100000      6.2057060E-31
   5.110000      6.7562408E-31
   5.120000      7.3221021E-31
   5.130000      7.9019758E-31
   5.140000      8.4943798E-31
   5.150000      9.0976530E-31
   5.160000      9.7099501E-31
   5.170000      1.0329233E-30
   5.180000      1.0953270E-30
   5.190000      1.1579621E-30
   5.200000      1.2205640E-30
   5.210000      1.2828459E-30
   5.220000      1.3445006E-30
   5.230000      1.4051980E-30
   5.240000      1.4645844E-30
   5.250000      1.5222840E-30
   5.260000      1.5778973E-30
   5.270000      1.6310020E-30
   5.280000      1.6811518E-30
   5.290000      1.7278774E-30
   5.300000      1.7706863E-30
   5.310000      1.8090630E-30
   5.320000      1.8424693E-30
   5.330000      1.8703449E-30
   5.340000      1.8921073E-30
   5.350000      1.9071542E-30
   5.360000      1.9148622E-30
   5.370000      1.9145901E-30
   5.380000      1.9056780E-30
   5.390000      1.8874499E-30
   5.400000      1.8592157E-30
   5.410000      1.8202716E-30
   5.420000      1.7699025E-30
   5.430000      1.7073841E-30
   5.440000      1.6319862E-30
   5.450000      1.5429744E-30
   5.460000      1.4396130E-30
   5.470000      1.3211680E-30
   5.480000      1.1869108E-30
   5.490000      1.0361209E-30
   5.500000      8.6809064E-31
   5.510000      6.8212856E-31
   5.520000      4.7756381E-31
   5.530000      2.5375063E-31
   5.540000      1.0073223E-32
   5.550000     -2.5404923E-31
   5.560000     -5.3915755E-31
   5.570000     -8.4574674E-31
   5.580000     -1.1742604E-30
   5.590000     -1.5250846E-30
   5.600000     -1.8985421E-30
   5.610000     -2.2948851E-30
   5.620000     -2.7142892E-30
   5.630000     -3.1568467E-30
   5.640000     -3.6225587E-30
   5.650000     -4.1113297E-30
   5.660000     -4.6229582E-30
   5.670000     -5.1571299E-30
   5.680000     -5.7134111E-30
   5.690000     -6.2912401E-30
   5.700000     -6.8899181E-30
   5.710000     -7.5086058E-30
   5.720000     -8.1463098E-30
   5.730000     -8.8018783E-30
   5.740000     -9.4739947E-30
   5.750000     -1.0161164E-29
   5.760000     -1.0861715E-29
   5.770000     -1.1573780E-29
   5.780000     -1.2295299E-29
   5.790000     -1.3024011E-29
   5.800000     -1.3757438E-29
   5.810000     -1.4492891E-29
   5.820000     -1.5227457E-29
   5.830000     -1.5957995E-29
   5.840000     -1.6681131E-29
   5.850000     -1.7393257E-29
   5.860000     -1.8090520E-29
   5.870000     -1.8768828E-29
   5.880000     -1.9423840E-29
   5.890000     -2.0050971E-29
   5.900000     -2.0645385E-29
   5.910000     -2.1202002E-29
   5.920000     -2.1715494E-29
   5.930000     -2.2180294E-29
   5.940000     -2.2590596E-29
   5.950000     -2.2940359E-29
   5.960000     -2.3223318E-29
   5.970000     -2.3432987E-29
   5.980000     -2.3562674E-29
   5.990000     -2.3605490E-29
   6.000000     -2.3554359E-29
   6.010000     -2.3402038E-29
   6.020000     -2.3141127E-29
   6.030000     -2.2764095E-29
   6.040000     -2.2263293E-29
   6.050000     -2.1630980E-29
   6.060000     -2.0859345E-29
   6.070000     -1.9940540E-29
   6.080000     -1.8866699E-29
   6.090000     -1.7629973E-29
   6.100000     -1.6222565E-29
   6.110000     -1.4636762E-29
   6.120000     -1.2864979E-29
   6.130000     -1.0899785E-29
   6.140000     -8.7339591E-30
   6.150000     -6.3605288E-30
   6.160000     -3.7728189E-30
   6.170000     -9.6449189E-31
   6.180000      2.0703864E-30
   6.190000      5.3373003E-30
   6.200000      8.8412297E-30
   6.210000      1.2586591E-29
   6.220000      1.6577176E-29
   6.230000      2.0816089E-29
   6.240000      2.5305690E-29
   6.250000      3.0047516E-29
   6.260000      3.5042226E-29
   6.270000      4.0289519E-29
   6.280000      4.5788079E-29
   6.290000      5.1535490E-29
   6.300000      5.7528183E-29
   6.310000      6.3761323E-29
   6.320000      7.0228783E-29
   6.330000      7.6923056E-29
   6.340000      8.3835159E-29
   6.350000      9.0954569E-29
   6.360000      9.8269185E-29
   6.370000      1.0576521E-28
   6.380000      1.1342711E-28
   6.390000      1.2123753E-28
   6.400000      1.2917723E-28
   6.410000      1.3722502E-28
   6.420000      1.4535771E-28
   6.430000      1.5355006E-28
   6.440000      1.6177467E-28
   6.450000      1.7000203E-28
   6.460000      1.7820038E-28
   6.470000      1.8633570E-28
   6.480000      1.9437171E-28
   6.490000      2.0226983E-28
   6.500000      2.0998915E-28
   6.510000      2.1748639E-28
   6.520000      2.2471594E-28
   6.530000      2.3162989E-28
   6.540000      2.3817795E-28
   6.550000      2.4430756E-28
   6.560000      2.4996387E-28
   6.570000      2.5508988E-28
   6.580000      2.5962633E-28
   6.590000      2.6351197E-28
   6.600000      2.6668345E-28
   6.610000      2.6907557E-28
   6.620000      2.7062132E-28
   6.630000      2.7125204E-28
   6.640000      2.7089748E-28
   6.650000      2.6948606E-28
   6.660000      2.6694496E-28
   6.670000      2.6320045E-28
   6.680000      2.5817791E-28
   6.690000      2.5180215E-28
   6.700000      2.4399763E-28
   6.710000      2.3468877E-28
   6.720000      2.2380021E-28
   6.730000      2.1125706E-28
   6.740000      1.9698529E-28
   6.750000      1.8091201E-28
   6.760000      1.6296586E-28
   6.770000      1.4307740E-28
   6.780000      1.2117940E-28
   6.790000      9.7207378E-29
   6.800000      7.1099989E-29
   6.810000      4.2799430E-29
   6.820000      1.2252015E-29
   6.830000     -2.0591429E-29
   6.840000     -5.5775040E-29
   6.850000     -9.3337456E-29
   6.860000     -1.3331125E-28
   6.870000     -1.7572231E-28
   6.880000     -2.2058937E-28
   6.890000     -2.6792341E-28
   6.900000     -3.1772704E-28
   6.910000     -3.6999401E-28
   6.920000     -4.2470862E-28
   6.930000     -4.8184495E-28
   6.940000     -5.4136634E-28
   6.950000     -6.0322495E-28
   6.960000     -6.6736097E-28
   6.970000     -7.3370198E-28
   6.980000     -8.0216258E-28
   6.990000     -8.7264348E-28
   7.000000     -9.4503119E-28
   7.010000     -1.0191974E-27
   7.020000     -1.0949985E-27
   7.030000     -1.1722747E-27
   7.040000     -1.2508501E-27
   7.050000     -1.3305317E-27
   7.060000     -1.4111091E-27