  -2.600000      0.0000000E+00
  -2.590000      0.0000000E+00
  -2.580000      0.0000000E+00
  -2.570000      0.0000000E+00
  -2.560000      0.0000000E+00
  -2.550000      0.0000000E+00
  -2.540000      0.0000000E+00
  -2.530000      0.0000000E+00
  -2.520000      0.0000000E+00
  -2.510000      0.0000000E+00
  -2.500000      0.0000000E+00
  -2.490000      0.0000000E+00
  -2.480000      0.0000000E+00
  -2.470000      0.0000000E+00
  -2.460000      0.0000000E+00
  -2.450000      0.0000000E+00
  -2.440000      0.0000000E+00
  -2.430000      0.0000000E+00
  -2.420000      0.0000000E+00
  -2.410000      0.0000000E+00
  -2.400000      0.0000000E+00
  -2.390000      0.0000000E+00
  -2.380000      0.0000000E+00
  -2.370000      0.0000000E+00
  -2.360000      0.0000000E+00
  -2.350000      0.0000000E+00
  -2.340000      0.0000000E+00
  -2.330000      0.0000000E+00
  -2.320000      0.0000000E+00
  -2.310000      0.0000000E+00
  -2.300000      0.0000000E+00
  -2.290000      0.0000000E+00
  -2.280000      0.0000000E+00
  -2.270000      0.0000000E+00
  -2.260000      0.0000000E+00
  -2.250000      0.0000000E+00
  -2.240000      0.0000000E+00
  -2.230000      0.0000000E+00
  -2.220000      0.0000000E+00
  -2.210000      0.0000000E+00
  -2.200000      0.0000000E+00
  -2.190000      0.0000000E+00
  -2.180000      0.0000000E+00
  -2.170000      0.0000000E+00
  -2.160000      0.0000000E+00
  -2.150000      0.0000000E+00
  -2.140000      0.0000000E+00
  -2.130000      0.0000000E+00
  -2.120000      0.0000000E+00
  -2.110000      0.0000000E+00
  -2.100000      0.0000000E+00
  -2.090000      0.0000000E+00
  -2.080000      0.0000000E+00
  -2.070000      0.0000000E+00
  -2.060000      0.0000000E+00
  -2.050000      0.0000000E+00
  -2.040000      0.0000000E+00
  -2.030000      0.0000000E+00
  -2.020000      0.0000000E+00
  -2.010000      0.0000000E+00
  -2.000000      0.0000000E+00
  -1.990000      0.0000000E+00
  -1.980000      0.0000000E+00
  -1.970000      0.0000000E+00
  -1.960000      0.0000000E+00
  -1.950000      0.0000000E+00
  -1.940000      0.0000000E+00
  -1.930000      0.0000000E+00
  -1.920000      0.0000000E+00
  -1.910000      0.0000000E+00
  -1.900000      0.0000000E+00
  -1.890000      0.0000000E+00
  -1.880000      0.0000000E+00
  -1.870000      0.0000000E+00
  -1.860000      0.0000000E+00
  -1.850000      0.0000000E+00
  -1.840000      0.0000000E+00
  -1.830000      0.0000000E+00
  -1.820000      0.0000000E+00
  -1.810000      0.0000000E+00
  -1.800000      0.0000000E+00
  -1.790000      0.0000000E+00
  -1.780000      0.0000000E+00
  -1.770000      0.0000000E+00
  -1.760000      0.0000000E+00
  -1.750000      0.0000000E+00
  -1.740000      0.0000000E+00
  -1.730000      0.0000000E+00
  -1.720000      0.0000000E+00
  -1.710000      0.0000000E+00
  -1.700000      0.0000000E+00
  -1.690000      0.0000000E+00
  -1.680000      0.0000000E+00
  -1.670000      0.0000000E+00
  -1.660000      0.0000000E+00
  -1.650000      0.0000000E+00
  -1.640000      0.0000000E+00
  -1.630000      0.0000000E+00
  -1.620000      0.0000000E+00
  -1.610000      0.0000000E+00
  -1.600000      0.0000000E+00
  -1.590000      0.0000000E+00
  -1.580000      0.0000000E+00
  -1.570000      0.0000000E+00
  -1.560000      0.0000000E+00
  -1.550000      0.0000000E+00
  -1.540000      0.0000000E+00
  -1.530000      0.0000000E+00
  -1.520000      0.0000000E+00
  -1.510000      0.0000000E+00
  -1.500000      0.0000000E+00
  -1.490000      0.0000000E+00
  -1.480000      0.0000000E+00
  -1.470000      0.0000000E+00
  -1.460000      0.0000000E+00
  -1.450000      0.0000000E+00
  -1.440000      0.0000000E+00
  -1.430000      0.0000000E+00
  -1.420000      0.0000000E+00
  -1.410000      0.0000000E+00
  -1.400000      0.0000000E+00
  -1.390000      0.0000000E+00
  -1.380000      0.0000000E+00
  -1.370000      0.0000000E+00
  -1.360000      0.0000000E+00
  -1.350000      0.0000000E+00
  -1.340000      0.0000000E+00
  -1.330000      0.0000000E+00
  -1.320000      0.0000000E+00
  -1.310000      0.0000000E+00
  -1.300000      0.0000000E+00
  -1.290000      0.0000000E+00
  -1.280000      0.0000000E+00
  -1.270000      0.0000000E+00
  -1.260000      0.0000000E+00
  -1.250000      0.0000000E+00
  -1.240000      0.0000000E+00
  -1.230000      0.0000000E+00
  -1.220000      0.0000000E+00
  -1.210000      0.0000000E+00
  -1.200000      0.0000000E+00
  -1.190000      0.0000000E+00
  -1.180000      0.0000000E+00
  -1.170000      0.0000000E+00
  -1.160000      0.0000000E+00
  -1.150000      0.0000000E+00
  -1.140000      0.0000000E+00
  -1.130000      0.0000000E+00
  -1.120000      0.0000000E+00
  -1.110000      0.0000000E+00
  -1.100000      0.0000000E+00
  -1.090000      0.0000000E+00
  -1.080000      0.0000000E+00
  -1.070000      0.0000000E+00
  -1.060000      0.0000000E+00
  -1.050000      0.0000000E+00
  -1.040000      0.0000000E+00
  -1.030000      0.0000000E+00
  -1.020000      0.0000000E+00
  -1.010000      0.0000000E+00
  -1.000000      0.0000000E+00
 -0.9900000      0.0000000E+00
 -0.9800000      0.0000000E+00
 -0.9700000      0.0000000E+00
 -0.9600000      0.0000000E+00
 -0.9500000      0.0000000E+00
 -0.9400000      0.0000000E+00
 -0.9300000      0.0000000E+00
 -0.9200000      0.0000000E+00
 -0.9100000      0.0000000E+00
 -0.9000000      0.0000000E+00
 -0.8900000      0.0000000E+00
 -0.8800000      0.0000000E+00
 -0.8700000      0.0000000E+00
 -0.8600000      0.0000000E+00
 -0.8500000      0.0000000E+00
 -0.8400000      0.0000000E+00
 -0.8300000      0.0000000E+00
 -0.8200000      0.0000000E+00
 -0.8100000      0.0000000E+00
 -0.8000000      0.0000000E+00
 -0.7900000      0.0000000E+00
 -0.7800000      0.0000000E+00
 -0.7700000      0.0000000E+00
 -0.7600000      0.0000000E+00
 -0.7500000      0.0000000E+00
 -0.7400000      0.0000000E+00
 -0.7300000      0.0000000E+00
 -0.7200000      0.0000000E+00
 -0.7100000      0.0000000E+00
 -0.7000000      0.0000000E+00
 -0.6900000      0.0000000E+00
 -0.6800000      0.0000000E+00
 -0.6700000      0.0000000E+00
 -0.6600000      0.0000000E+00
 -0.6500000      0.0000000E+00
 -0.6400000      0.0000000E+00
 -0.6300000      0.0000000E+00
 -0.6200000      0.0000000E+00
 -0.6100000      0.0000000E+00
 -0.6000000      0.0000000E+00
 -0.5900000      0.0000000E+00
 -0.5800000      0.0000000E+00
 -0.5700000      0.0000000E+00
 -0.5600000      0.0000000E+00
 -0.5500000      0.0000000E+00
 -0.5400000      0.0000000E+00
 -0.5300000      0.0000000E+00
 -0.5200000      0.0000000E+00
 -0.5100000      0.0000000E+00
 -0.5000000      0.0000000E+00
 -0.4900000      0.0000000E+00
 -0.4800000      0.0000000E+00
 -0.4700000      0.0000000E+00
 -0.4600000      0.0000000E+00
 -0.4500000      0.0000000E+00
 -0.4400000      0.0000000E+00
 -0.4300000      0.0000000E+00
 -0.4200000      0.0000000E+00
 -0.4100000      0.0000000E+00
 -0.4000000      0.0000000E+00
 -0.3900000      0.0000000E+00
 -0.3800000      0.0000000E+00
 -0.3700000      0.0000000E+00
 -0.3600000      0.0000000E+00
 -0.3500000      0.0000000E+00
 -0.3400000      0.0000000E+00
 -0.3300000      0.0000000E+00
 -0.3200000      0.0000000E+00
 -0.3100000      0.0000000E+00
 -0.3000000      0.0000000E+00
 -0.2900000      0.0000000E+00
 -0.2800000      0.0000000E+00
 -0.2700000      0.0000000E+00
 -0.2600000      0.0000000E+00
 -0.2500000      0.0000000E+00
 -0.2400000      0.0000000E+00
 -0.2300000      0.0000000E+00
 -0.2200000      0.0000000E+00
 -0.2100000      0.0000000E+00
 -0.2000000      0.0000000E+00
 -0.1900000      0.0000000E+00
 -0.1800000      0.0000000E+00
 -0.1700000      0.0000000E+00
 -0.1600000      0.0000000E+00
 -0.1500000      0.0000000E+00
 -0.1400000      0.0000000E+00
 -0.1300000      0.0000000E+00
 -0.1200000      0.0000000E+00
 -0.1100000      0.0000000E+00
 -0.1000000      0.0000000E+00
 -9.0000004E-02  0.0000000E+00
 -7.9999998E-02  0.0000000E+00
 -7.0000000E-02  0.0000000E+00
 -5.9999999E-02  0.0000000E+00
 -5.0000001E-02  0.0000000E+00
 -3.9999999E-02  0.0000000E+00
 -2.9999999E-02  0.0000000E+00
 -2.0000000E-02  0.0000000E+00
 -9.9999998E-03  0.0000000E+00
 -3.4694470E-17  0.0000000E+00
  9.9999998E-03  0.0000000E+00
  2.0000000E-02  0.0000000E+00
  2.9999999E-02  0.0000000E+00
  3.9999999E-02  0.0000000E+00
  5.0000001E-02  0.0000000E+00
  5.9999999E-02  0.0000000E+00
  7.0000000E-02  0.0000000E+00
  7.9999998E-02  0.0000000E+00
  9.0000004E-02  0.0000000E+00
  0.1000000      0.0000000E+00
  0.1100000      0.0000000E+00
  0.1200000      0.0000000E+00
  0.1300000      0.0000000E+00
  0.1400000      0.0000000E+00
  0.1500000      0.0000000E+00
  0.1600000      0.0000000E+00
  0.1700000      0.0000000E+00
  0.1800000      0.0000000E+00
  0.1900000      0.0000000E+00
  0.2000000      0.0000000E+00
  0.2100000      0.0000000E+00
  0.2200000      0.0000000E+00
  0.2300000      0.0000000E+00
  0.2400000      0.0000000E+00
  0.2500000      0.0000000E+00
  0.2600000      0.0000000E+00
  0.2700000      0.0000000E+00
  0.2800000      0.0000000E+00
  0.2900000      0.0000000E+00
  0.3000000      0.0000000E+00
  0.3100000      0.0000000E+00
  0.3200000      0.0000000E+00
  0.3300000      0.0000000E+00
  0.3400000      0.0000000E+00
  0.3500000      0.0000000E+00
  0.3600000      0.0000000E+00
  0.3700000      0.0000000E+00
  0.3800000      0.0000000E+00
  0.3900000      0.0000000E+00
  0.4000000      0.0000000E+00
  0.4100000      0.0000000E+00
  0.4200000      0.0000000E+00
  0.4300000      0.0000000E+00
  0.4400000      0.0000000E+00
  0.4500000      0.0000000E+00
  0.4600000      0.0000000E+00
  0.4700000      0.0000000E+00
  0.4800000      0.0000000E+00
  0.4900000      0.0000000E+00
  0.5000000      0.0000000E+00
  0.5100000      0.0000000E+00
  0.5200000      0.0000000E+00
  0.5300000      0.0000000E+00
  0.5400000      0.0000000E+00
  0.5500000      0.0000000E+00
  0.5600000      0.0000000E+00
  0.5700000      0.0000000E+00
  0.5800000      0.0000000E+00
  0.5900000      0.0000000E+00
  0.6000000      0.0000000E+00
  0.6100000      0.0000000E+00
  0.6200000      0.0000000E+00
  0.6300000      0.0000000E+00
  0.6400000      0.0000000E+00
  0.6500000      0.0000000E+00
  0.6600000      0.0000000E+00
  0.6700000      0.0000000E+00
  0.6800000      0.0000000E+00
  0.6900000      0.0000000E+00
  0.7000000      0.0000000E+00
  0.7100000      0.0000000E+00
  0.7200000      0.0000000E+00
  0.7300000      0.0000000E+00
  0.7400000      0.0000000E+00
  0.7500000      0.0000000E+00
  0.7600000      0.0000000E+00
  0.7700000      0.0000000E+00
  0.7800000      0.0000000E+00
  0.7900000      0.0000000E+00
  0.8000000      0.0000000E+00
  0.8100000      0.0000000E+00
  0.8200000      0.0000000E+00
  0.8300000      0.0000000E+00
  0.8400000      0.0000000E+00
  0.8500000      0.0000000E+00
  0.8600000      0.0000000E+00
  0.8700000      0.0000000E+00
  0.8800000      0.0000000E+00
  0.8900000      0.0000000E+00
  0.9000000      0.0000000E+00
  0.9100000      0.0000000E+00
  0.9200000      0.0000000E+00
  0.9300000      0.0000000E+00
  0.9400000      0.0000000E+00
  0.9500000      0.0000000E+00
  0.9600000      0.0000000E+00
  0.9700000      0.0000000E+00
  0.9800000      0.0000000E+00
  0.9900000      0.0000000E+00
   1.000000      0.0000000E+00
   1.010000      0.0000000E+00
   1.020000      0.0000000E+00
   1.030000      0.0000000E+00
   1.040000      0.0000000E+00
   1.050000      0.0000000E+00
   1.060000      0.0000000E+00
   1.070000      0.0000000E+00
   1.080000      0.0000000E+00
   1.090000      0.0000000E+00
   1.100000      0.0000000E+00
   1.110000      0.0000000E+00
   1.120000      0.0000000E+00
   1.130000      0.0000000E+00
   1.140000      0.0000000E+00
   1.150000      0.0000000E+00
   1.160000      0.0000000E+00
   1.170000      0.0000000E+00
   1.180000      0.0000000E+00
   1.190000      0.0000000E+00
   1.200000      0.0000000E+00
   1.210000      0.0000000E+00
   1.220000      0.0000000E+00
   1.230000      0.0000000E+00
   1.240000      0.0000000E+00
   1.250000      0.0000000E+00
   1.260000      0.0000000E+00
   1.270000      0.0000000E+00
   1.280000      0.0000000E+00
   1.290000      0.0000000E+00
   1.300000      0.0000000E+00
   1.310000      0.0000000E+00
   1.320000      0.0000000E+00
   1.330000      0.0000000E+00
   1.340000      0.0000000E+00
   1.350000      0.0000000E+00
   1.360000      0.0000000E+00
   1.370000      0.0000000E+00
   1.380000      0.0000000E+00
   1.390000      0.0000000E+00
   1.400000      0.0000000E+00
   1.410000      0.0000000E+00
   1.420000      0.0000000E+00
   1.430000      0.0000000E+00
   1.440000      0.0000000E+00
   1.450000      0.0000000E+00
   1.460000      0.0000000E+00
   1.470000      0.0000000E+00
   1.480000      0.0000000E+00
   1.490000      0.0000000E+00
   1.500000      0.0000000E+00
   1.510000      0.0000000E+00
   1.520000      0.0000000E+00
   1.530000      0.0000000E+00
   1.540000      0.0000000E+00
   1.550000      0.0000000E+00
   1.560000      0.0000000E+00
   1.570000      0.0000000E+00
   1.580000      0.0000000E+00
   1.590000      0.0000000E+00
   1.600000      0.0000000E+00
   1.610000      0.0000000E+00
   1.620000      0.0000000E+00
   1.630000      0.0000000E+00
   1.640000      0.0000000E+00
   1.650000      0.0000000E+00
   1.660000      0.0000000E+00
   1.670000      0.0000000E+00
   1.680000      0.0000000E+00
   1.690000      0.0000000E+00
   1.700000      0.0000000E+00
   1.710000      0.0000000E+00
   1.720000      0.0000000E+00
   1.730000      0.0000000E+00
   1.740000      0.0000000E+00
   1.750000      0.0000000E+00
   1.760000      0.0000000E+00
   1.770000      0.0000000E+00
   1.780000      0.0000000E+00
   1.790000      0.0000000E+00
   1.800000      0.0000000E+00
   1.810000      0.0000000E+00
   1.820000      0.0000000E+00
   1.830000      0.0000000E+00
   1.840000      0.0000000E+00
   1.850000      0.0000000E+00
   1.860000      0.0000000E+00
   1.870000      0.0000000E+00
   1.880000      0.0000000E+00
   1.890000      0.0000000E+00
   1.900000      0.0000000E+00
   1.910000     -1.2347326E-38
   1.920000     -1.6758113E-38
   1.930000     -2.2016366E-38
   1.940000     -2.7718084E-38
   1.950000     -3.4204667E-38
   1.960000     -4.0345275E-38
   1.970000     -4.6011708E-38
   1.980000     -5.2409902E-38
   1.990000     -5.1518973E-38
   2.000000     -4.2428439E-38
   2.010000     -3.1769827E-38
   2.020000     -1.9121307E-38
   2.030000      0.0000000E+00
   2.040000      0.0000000E+00
   2.050000      3.3791432E-38
   2.060000      6.4564759E-38
   2.070000      9.8669337E-38
   2.080000      1.3613486E-37
   2.090000      1.7757704E-37
   2.100000      1.5909963E-37
   2.110000      6.6987235E-38
   2.120000     -4.4817622E-38
   2.130000     -1.7463388E-37
   2.140000     -3.0643279E-37
   2.150000     -4.1673670E-37
   2.160000     -4.4314048E-37
   2.170000     -3.9728699E-37
   2.180000     -3.4733853E-37
   2.190000     -2.9416865E-37
   2.200000     -2.6601564E-37
   2.210000     -2.6565009E-37
   2.220000     -2.6485978E-37
   2.230000     -2.6777565E-37
   2.240000     -2.1821235E-37
   2.250000     -1.5996587E-37
   2.260000     -1.3619593E-37
   2.270000     -1.0922468E-37
   2.280000     -9.8236258E-38
   2.290000     -9.9598959E-38
   2.300000     -1.2263831E-37
   2.310000     -1.7640910E-37
   2.320000     -1.6821750E-37
   2.330000     -6.3035091E-38
   2.340000      6.9194594E-38
   2.350000      2.2086710E-37
   2.360000      4.4522055E-37
   2.370000      9.4970539E-37
   2.380000      1.7045416E-36
   2.390000      2.4697973E-36
   2.400000      3.1289566E-36
   2.410000      3.6513481E-36
   2.420000      4.1353492E-36
   2.430000      4.6795753E-36
   2.440000      5.3050256E-36
   2.450000      5.9017999E-36
   2.460000      6.3754555E-36
   2.470000      6.7499427E-36
   2.480000      7.0421697E-36
   2.490000      7.0159119E-36
   2.500000      6.6357008E-36
   2.510000      5.6475967E-36
   2.520000      4.2749667E-36
   2.530000      2.9980530E-36
   2.540000      1.7540065E-36
   2.550000      6.9309173E-37
   2.560000      4.1618390E-37
   2.570000      7.1751629E-37
   2.580000      8.5200660E-37
   2.590000      7.4463211E-37
   2.600000      3.4965578E-37
   2.610000     -2.8334060E-37
   2.620000     -1.1272211E-36
   2.630000     -2.0295281E-36
   2.640000     -3.0166895E-36
   2.650000     -4.1605150E-36
   2.660000     -5.3466669E-36
   2.670000     -6.2948942E-36
   2.680000     -6.7246147E-36
   2.690000     -7.0457011E-36
   2.700000     -8.4348729E-36
   2.710000     -1.0861824E-35
   2.720000     -1.3086469E-35
   2.730000     -1.4866627E-35
   2.740000     -1.6624323E-35
   2.750000     -1.8552637E-35
   2.760000     -2.1430216E-35
   2.770000     -2.4747855E-35
   2.780000     -2.7348396E-35
   2.790000     -2.9521413E-35
   2.800000     -3.1868682E-35
   2.810000     -3.4102825E-35
   2.820000     -3.5827045E-35
   2.830000     -3.7006189E-35
   2.840000     -3.7340749E-35
   2.850000     -3.7195867E-35
   2.860000     -3.5572850E-35
   2.870000     -3.1832203E-35
   2.880000     -2.8519264E-35
   2.890000     -2.6719253E-35
   2.900000     -2.5360521E-35
   2.910000     -2.3361103E-35
   2.920000     -2.0983378E-35
   2.930000     -1.8557547E-35
   2.940000     -1.5458695E-35
   2.950000     -1.1622313E-35
   2.960000     -6.5671032E-36
   2.970000     -1.0686789E-36
   2.980000      4.5764993E-36
   2.990000      1.0445790E-35
   3.000000      1.6303903E-35
   3.010000      2.2547768E-35
   3.020000      2.8330725E-35
   3.030000      3.5184546E-35
   3.040000      4.2496029E-35
   3.050000      4.9206922E-35
   3.060000      5.6603755E-35
   3.070000      6.4557593E-35
   3.080000      7.2073823E-35
   3.090000      7.9058056E-35
   3.100000      8.6982874E-35
   3.110000      9.7098588E-35
   3.120000      1.0811232E-34
   3.130000      1.1864880E-34
   3.140000      1.3029375E-34
   3.150000      1.4246740E-34
   3.160000      1.5245008E-34
   3.170000      1.6054502E-34
   3.180000      1.6919045E-34
   3.190000      1.7856648E-34
   3.200000      1.8743074E-34
   3.210000      1.9157367E-34
   3.220000      1.9124572E-34
   3.230000      1.8867057E-34
   3.240000      1.8629884E-34
   3.250000      1.8529874E-34
   3.260000      1.8336044E-34
   3.270000      1.8069355E-34
   3.280000      1.7809375E-34
   3.290000      1.7549460E-34
   3.300000      1.7209343E-34
   3.310000      1.6459301E-34
   3.320000      1.4904884E-34
   3.330000      1.3063746E-34
   3.340000      1.1349264E-34
   3.350000      9.5143365E-35
   3.360000      7.4531433E-35
   3.370000      5.7655788E-35
   3.380000      4.3042890E-35
   3.390000      1.9900442E-35
   3.400000     -1.0669651E-35
   3.410000     -4.6120495E-35
   3.420000     -8.8649344E-35
   3.430000     -1.3664102E-34
   3.440000     -1.8583177E-34
   3.450000     -2.3121101E-34
   3.460000     -2.7122574E-34
   3.470000     -3.0692197E-34
   3.480000     -3.4224408E-34
   3.490000     -3.8797490E-34
   3.500000     -4.4161073E-34
   3.510000     -4.9113192E-34
   3.520000     -5.3001879E-34
   3.530000     -5.6144241E-34
   3.540000     -5.9997369E-34
   3.550000     -6.4820198E-34
   3.560000     -7.0010547E-34
   3.570000     -7.5475306E-34
   3.580000     -8.1254357E-34
   3.590000     -8.7037321E-34
   3.600000     -9.2929992E-34
   3.610000     -9.8716537E-34
   3.620000     -1.0396100E-33
   3.630000     -1.0871210E-33
   3.640000     -1.1187469E-33
   3.650000     -1.1343233E-33
   3.660000     -1.1428040E-33
   3.670000     -1.1463526E-33
   3.680000     -1.1461317E-33
   3.690000     -1.1396671E-33
   3.700000     -1.1288176E-33
   3.710000     -1.1161362E-33
   3.720000     -1.1021801E-33
   3.730000     -1.0857127E-33
   3.740000     -1.0651819E-33
   3.750000     -1.0371345E-33
   3.760000     -9.9696174E-34
   3.770000     -9.4765324E-34
   3.780000     -8.7561050E-34
   3.790000     -7.7091335E-34
   3.800000     -6.4241239E-34
   3.810000     -4.9364683E-34
   3.820000     -3.3892501E-34
   3.830000     -1.8655281E-34
   3.840000     -1.5051340E-35
   3.850000      1.7439094E-34
   3.860000      3.7794832E-34
   3.870000      6.0644924E-34
   3.880000      8.5239632E-34
   3.890000      1.0955594E-33
   3.900000      1.3279948E-33
   3.910000      1.5648401E-33
   3.920000      1.8081915E-33
   3.930000      2.0604559E-33
   3.940000      2.3307630E-33
   3.950000      2.6226098E-33
   3.960000      2.9366973E-33
   3.970000      3.2720513E-33
   3.980000      3.6276560E-33
   3.990000      4.0020249E-33
   4.000000      4.3852419E-33
   4.010000      4.7730838E-33
   4.020000      5.1665640E-33
   4.030000      5.5564957E-33
   4.040000      5.9351599E-33
   4.050000      6.2977294E-33
   4.060000      6.6420706E-33
   4.070000      6.9674048E-33
   4.080000      7.2745754E-33
   4.090000      7.5626215E-33
   4.100000      7.8268594E-33
   4.110000      8.0690113E-33
   4.120000      8.2910350E-33
   4.130000      8.4926330E-33
   4.140000      8.6725644E-33
   4.150000      8.8245742E-33
   4.160000      8.9423205E-33
   4.170000      9.0187350E-33
   4.180000      9.0470380E-33
   4.190000      9.0216620E-33
   4.200000      8.9330165E-33
   4.210000      8.7707248E-33
   4.220000      8.5299197E-33
   4.230000      8.2011934E-33
   4.240000      7.7786671E-33
   4.250000      7.2627654E-33
   4.260000      6.6526699E-33
   4.270000      5.9472348E-33
   4.280000      5.1389634E-33
   4.290000      4.2387988E-33
   4.300000      3.2528287E-33
   4.310000      2.1696088E-33
   4.320000      9.8727300E-34
   4.330000     -2.9284935E-34
   4.340000     -1.6756486E-33
   4.350000     -3.1693352E-33
   4.360000     -4.7758583E-33
   4.370000     -6.5017129E-33
   4.380000     -8.3555218E-33
   4.390000     -1.0339091E-32
   4.400000     -1.2455015E-32
   4.410000     -1.4701197E-32
   4.420000     -1.7074711E-32
   4.430000     -1.9577675E-32
   4.440000     -2.2199165E-32
   4.450000     -2.4927460E-32
   4.460000     -2.7752199E-32
   4.470000     -3.0660578E-32
   4.480000     -3.3643827E-32
   4.490000     -3.6690038E-32
   4.500000     -3.9788991E-32
   4.510000     -4.2931569E-32
   4.520000     -4.6107682E-32
   4.530000     -4.9308744E-32
   4.540000     -5.2525884E-32
   4.550000     -5.5749260E-32
   4.560000     -5.8966041E-32
   4.570000     -6.2161628E-32
   4.580000     -6.5318877E-32
   4.590000     -6.8418121E-32
   4.600000     -7.1436144E-32
   4.610000     -7.4345621E-32
   4.620000     -7.7117678E-32
   4.630000     -7.9720675E-32
   4.640000     -8.2122633E-32
   4.650000     -8.4290309E-32
   4.660000     -8.6192483E-32
   4.670000     -8.7789821E-32
   4.680000     -8.9044602E-32
   4.690000     -8.9928968E-32
   4.700000     -9.0411438E-32
   4.710000     -9.0461008E-32
   4.720000     -9.0046323E-32
   4.730000     -8.9134627E-32
   4.740000     -8.7694876E-32
   4.750000     -8.5692204E-32
   4.760000     -8.3086421E-32
   4.770000     -7.9838560E-32
   4.780000     -7.5906936E-32
   4.790000     -7.1246507E-32
   4.800000     -6.5812032E-32
   4.810000     -5.9557826E-32
   4.820000     -5.2439126E-32
   4.830000     -4.4413021E-32
   4.840000     -3.5438630E-32
   4.850000     -2.5478584E-32
   4.860000     -1.4499333E-32
   4.870000     -2.4714302E-33
   4.880000      1.0629992E-32
   4.890000      2.4827819E-32
   4.900000      4.0143385E-32
   4.910000      5.6589485E-32
   4.920000      7.4177279E-32
   4.930000      9.2919890E-32
   4.940000      1.1282640E-31
   4.950000      1.3390365E-31
   4.960000      1.5615577E-31
   4.970000      1.7958326E-31
   4.980000      2.0418182E-31
   4.990000      2.2994191E-31
   5.000000      2.5684690E-31
   5.010000      2.8487149E-31
   5.020000      3.1398129E-31
   5.030000      3.4413183E-31
   5.040000      3.7526792E-31
   5.050000      4.0732342E-31
   5.060000      4.4022113E-31
   5.070000      4.7387318E-31
   5.080000      5.0818135E-31
   5.090000      5.4303734E-31
   5.100000      5.7832324E-31
   5.110000      6.1391072E-31
   5.120000      6.4966385E-31
   5.130000      6.8543687E-31
   5.140000      7.2107170E-31
   5.150000      7.5639996E-31
   5.160000      7.9124114E-31
   5.170000      8.2540119E-31
   5.180000      8.5867239E-31
   5.190000      8.9083128E-31
   5.200000      9.2163882E-31
   5.210000      9.5083979E-31
   5.220000      9.7816261E-31
   5.230000      1.0033202E-30
   5.240000      1.0260099E-30
   5.250000      1.0459152E-30
   5.260000      1.0627061E-30
   5.270000      1.0760409E-30
   5.280000      1.0855667E-30
   5.290000      1.0909206E-30
   5.300000      1.0917310E-30
   5.310000      1.0876177E-30
   5.320000      1.0781924E-30
   5.330000      1.0630593E-30
   5.340000      1.0418142E-30
   5.350000      1.0140463E-30
   5.360000      9.7933745E-31
   5.370000      9.3726321E-31
   5.380000      8.8739376E-31
   5.390000      8.2929462E-31
   5.400000      7.6252950E-31
   5.410000      6.8666239E-31
   5.420000      6.0125972E-31
   5.430000      5.0589313E-31
   5.440000      4.0014350E-31
   5.450000      2.8360430E-31
   5.460000      1.5588441E-31
   5.470000      1.6610712E-32
   5.480000     -1.3456821E-31
   5.490000     -2.9797870E-31
   5.500000     -4.7391997E-31
   5.510000     -6.6266157E-31
   5.520000     -8.6444058E-31
   5.530000     -1.0794586E-30
   5.540000     -1.3078797E-30
   5.550000     -1.5498260E-30
   5.560000     -1.8053752E-30
   5.570000     -2.0745557E-30
   5.580000     -2.3573424E-30
   5.590000     -2.6536520E-30
   5.600000     -2.9633368E-30
   5.610000     -3.2861800E-30
   5.620000     -3.6218907E-30
   5.630000     -3.9700966E-30
   5.640000     -4.3303399E-30
   5.650000     -4.7020722E-30
   5.660000     -5.0846503E-30
   5.670000     -5.4773301E-30
   5.680000     -5.8792653E-30
   5.690000     -6.2895008E-30
   5.700000     -6.7069713E-30
   5.710000     -7.1304976E-30
   5.720000     -7.5587815E-30
   5.730000     -7.9904027E-30
   5.740000     -8.4238182E-30
   5.750000     -8.8573563E-30
   5.760000     -9.2892108E-30
   5.770000     -9.7174398E-30
   5.780000     -1.0139959E-29
   5.790000     -1.0554545E-29
   5.800000     -1.0958821E-29
   5.810000     -1.1350265E-29
   5.820000     -1.1726201E-29
   5.830000     -1.2083802E-29
   5.840000     -1.2420089E-29
   5.850000     -1.2731933E-29
   5.860000     -1.3016057E-29
   5.870000     -1.3269036E-29
   5.880000     -1.3487304E-29
   5.890000     -1.3667157E-29
   5.900000     -1.3804759E-29
   5.910000     -1.3896146E-29
   5.920000     -1.3937230E-29
   5.930000     -1.3923811E-29
   5.940000     -1.3851583E-29
   5.950000     -1.3716138E-29
   5.960000     -1.3512978E-29
   5.970000     -1.3237524E-29
   5.980000     -1.2885138E-29
   5.990000     -1.2451112E-29
   6.000000     -1.1930709E-29
   6.010000     -1.1319162E-29
   6.020000     -1.0611704E-29
   6.030000     -9.8035770E-30
   6.040000     -8.8900588E-30
   6.050000     -7.8664842E-30
   6.060000     -6.7282701E-30
   6.070000     -5.4709433E-30
   6.080000     -4.0901621E-30
   6.090000     -2.5817450E-30
   6.100000     -9.4170263E-31
   6.110000      8.3373319E-31
   6.120000      2.7480814E-30
   6.130000      4.8045764E-30
   6.140000      7.0061419E-30
   6.150000      9.3553469E-30
   6.160000      1.1854367E-29
   6.170000      1.4504959E-29
   6.180000      1.7308417E-29
   6.190000      2.0265526E-29
   6.200000      2.3376528E-29
   6.210000      2.6641073E-29
   6.220000      3.0058175E-29
   6.230000      3.3626183E-29
   6.240000      3.7342698E-29
   6.250000      4.1204555E-29
   6.260000      4.5207787E-29
   6.270000      4.9347552E-29
   6.280000      5.3618118E-29
   6.290000      5.8012772E-29
   6.300000      6.2523829E-29
   6.310000      6.7142552E-29
   6.320000      7.1859137E-29
   6.330000      7.6662628E-29
   6.340000      8.1540931E-29
   6.350000      8.6480748E-29
   6.360000      9.1467523E-29
   6.370000      9.6485443E-29
   6.380000      1.0151738E-28
   6.390000      1.0654486E-28
   6.400000      1.1154807E-28
   6.410000      1.1650575E-28
   6.420000      1.2139525E-28
   6.430000      1.2619248E-28
   6.440000      1.3087190E-28
   6.450000      1.3540649E-28
   6.460000      1.3976779E-28
   6.470000      1.4392589E-28
   6.480000      1.4784939E-28
   6.490000      1.5150553E-28
   6.500000      1.5486010E-28
   6.510000      1.5787749E-28
   6.520000      1.6052078E-28
   6.530000      1.6275175E-28
   6.540000      1.6453090E-28
   6.550000      1.6581755E-28
   6.560000      1.6656991E-28
   6.570000      1.6674512E-28
   6.580000      1.6629937E-28
   6.590000      1.6518797E-28
   6.600000      1.6336547E-28
   6.610000      1.6078574E-28
   6.620000      1.5740215E-28
   6.630000      1.5316768E-28
   6.640000      1.4803511E-28
   6.650000      1.4195713E-28
   6.660000      1.3488656E-28
   6.670000      1.2677651E-28
   6.680000      1.1758055E-28
   6.690000      1.0725298E-28
   6.700000      9.5748997E-29
   6.710000      8.3024986E-29
   6.720000      6.9038624E-29
   6.730000      5.3749298E-29
   6.740000      3.7118355E-29
   6.750000      1.9109315E-29
   6.760000     -3.1179285E-31
   6.770000     -2.1176220E-29
   6.780000     -4.3512111E-29
   6.790000     -6.7344119E-29
   6.800000     -9.2693148E-29
   6.810000     -1.1957607E-28
   6.820000     -1.4800518E-28
   6.830000     -1.7798807E-28
   6.840000     -2.0952719E-28
   6.850000     -2.4261946E-28
   6.860000     -2.7725584E-28
   6.870000     -3.1342095E-28
   6.880000     -3.5109286E-28
   6.890000     -3.9024247E-28
   6.900000     -4.3083327E-28
   6.910000     -4.7282100E-28
   6.920000     -5.1615303E-28
   6.930000     -5.6076826E-28
   6.940000     -6.0659662E-28
   6.950000     -6.5355879E-28
   6.960000     -7.0156558E-28
   6.970000     -7.5051800E-28
   6.980000     -8.0030656E-28
   6.990000     -8.5081133E-28
   7.000000     -9.0190134E-28
   7.010000     -9.5343441E-28
   7.020000     -1.0052569E-27
   7.030000     -1.0572035E-27
   7.040000     -1.1090969E-27
   7.050000     -1.1607476E-27
   7.060000     -1.2119541E-27