  -2.600000      0.0000000E+00
  -2.590000      0.0000000E+00
  -2.580000      0.0000000E+00
  -2.570000      0.0000000E+00
  -2.560000      0.0000000E+00
  -2.550000      0.0000000E+00
  -2.540000      0.0000000E+00
  -2.530000      0.0000000E+00
  -2.520000      0.0000000E+00
  -2.510000      0.0000000E+00
  -2.500000      0.0000000E+00
  -2.490000      0.0000000E+00
  -2.480000      0.0000000E+00
  -2.470000      0.0000000E+00
  -2.460000      0.0000000E+00
  -2.450000      0.0000000E+00
  -2.440000      0.0000000E+00
  -2.430000      0.0000000E+00
  -2.420000      0.0000000E+00
  -2.410000      0.0000000E+00
  -2.400000      0.0000000E+00
  -2.390000      0.0000000E+00
  -2.380000      0.0000000E+00
  -2.370000      0.0000000E+00
  -2.360000      0.0000000E+00
  -2.350000      0.0000000E+00
  -2.340000      0.0000000E+00
  -2.330000      0.0000000E+00
  -2.320000      0.0000000E+00
  -2.310000      0.0000000E+00
  -2.300000      0.0000000E+00
  -2.290000      0.0000000E+00
  -2.280000      0.0000000E+00
  -2.270000      0.0000000E+00
  -2.260000      0.0000000E+00
  -2.250000      0.0000000E+00
  -2.240000      0.0000000E+00
  -2.230000      0.0000000E+00
  -2.220000      0.0000000E+00
  -2.210000      0.0000000E+00
  -2.200000      0.0000000E+00
  -2.190000      0.0000000E+00
  -2.180000      0.0000000E+00
  -2.170000      0.0000000E+00
  -2.160000      0.0000000E+00
  -2.150000      0.0000000E+00
  -2.140000      0.0000000E+00
  -2.130000      0.0000000E+00
  -2.120000      0.0000000E+00
  -2.110000      0.0000000E+00
  -2.100000      0.0000000E+00
  -2.090000      0.0000000E+00
  -2.080000      0.0000000E+00
  -2.070000      0.0000000E+00
  -2.060000      0.0000000E+00
  -2.050000      0.0000000E+00
  -2.040000      0.0000000E+00
  -2.030000      0.0000000E+00
  -2.020000      0.0000000E+00
  -2.010000      0.0000000E+00
  -2.000000      0.0000000E+00
  -1.990000      0.0000000E+00
  -1.980000      0.0000000E+00
  -1.970000      0.0000000E+00
  -1.960000      0.0000000E+00
  -1.950000      0.0000000E+00
  -1.940000      0.0000000E+00
  -1.930000      0.0000000E+00
  -1.920000      0.0000000E+00
  -1.910000      0.0000000E+00
  -1.900000      0.0000000E+00
  -1.890000      0.0000000E+00
  -1.880000      0.0000000E+00
  -1.870000      0.0000000E+00
  -1.860000      0.0000000E+00
  -1.850000      0.0000000E+00
  -1.840000      0.0000000E+00
  -1.830000      0.0000000E+00
  -1.820000      0.0000000E+00
  -1.810000      0.0000000E+00
  -1.800000      0.0000000E+00
  -1.790000      0.0000000E+00
  -1.780000      0.0000000E+00
  -1.770000      0.0000000E+00
  -1.760000      0.0000000E+00
  -1.750000      0.0000000E+00
  -1.740000      0.0000000E+00
  -1.730000      0.0000000E+00
  -1.720000      0.0000000E+00
  -1.710000      0.0000000E+00
  -1.700000      0.0000000E+00
  -1.690000      0.0000000E+00
  -1.680000      0.0000000E+00
  -1.670000      0.0000000E+00
  -1.660000      0.0000000E+00
  -1.650000      0.0000000E+00
  -1.640000      0.0000000E+00
  -1.630000      0.0000000E+00
  -1.620000      0.0000000E+00
  -1.610000      0.0000000E+00
  -1.600000      0.0000000E+00
  -1.590000      0.0000000E+00
  -1.580000      0.0000000E+00
  -1.570000      0.0000000E+00
  -1.560000      0.0000000E+00
  -1.550000      0.0000000E+00
  -1.540000      0.0000000E+00
  -1.530000      0.0000000E+00
  -1.520000      0.0000000E+00
  -1.510000      0.0000000E+00
  -1.500000      0.0000000E+00
  -1.490000      0.0000000E+00
  -1.480000      0.0000000E+00
  -1.470000      0.0000000E+00
  -1.460000      0.0000000E+00
  -1.450000      0.0000000E+00
  -1.440000      0.0000000E+00
  -1.430000      0.0000000E+00
  -1.420000      0.0000000E+00
  -1.410000      0.0000000E+00
  -1.400000      0.0000000E+00
  -1.390000      0.0000000E+00
  -1.380000      0.0000000E+00
  -1.370000      0.0000000E+00
  -1.360000      0.0000000E+00
  -1.350000      0.0000000E+00
  -1.340000      0.0000000E+00
  -1.330000      0.0000000E+00
  -1.320000      0.0000000E+00
  -1.310000      0.0000000E+00
  -1.300000      0.0000000E+00
  -1.290000      0.0000000E+00
  -1.280000      0.0000000E+00
  -1.270000      0.0000000E+00
  -1.260000      0.0000000E+00
  -1.250000      0.0000000E+00
  -1.240000      0.0000000E+00
  -1.230000      0.0000000E+00
  -1.220000      0.0000000E+00
  -1.210000      0.0000000E+00
  -1.200000      0.0000000E+00
  -1.190000      0.0000000E+00
  -1.180000      0.0000000E+00
  -1.170000      0.0000000E+00
  -1.160000      0.0000000E+00
  -1.150000      0.0000000E+00
  -1.140000      0.0000000E+00
  -1.130000      0.0000000E+00
  -1.120000      0.0000000E+00
  -1.110000      0.0000000E+00
  -1.100000      0.0000000E+00
  -1.090000      0.0000000E+00
  -1.080000      0.0000000E+00
  -1.070000      0.0000000E+00
  -1.060000      0.0000000E+00
  -1.050000      0.0000000E+00
  -1.040000      0.0000000E+00
  -1.030000      0.0000000E+00
  -1.020000      0.0000000E+00
  -1.010000      0.0000000E+00
  -1.000000      0.0000000E+00
 -0.9900000      0.0000000E+00
 -0.9800000      0.0000000E+00
 -0.9700000      0.0000000E+00
 -0.9600000      0.0000000E+00
 -0.9500000      0.0000000E+00
 -0.9400000      0.0000000E+00
 -0.9300000      0.0000000E+00
 -0.9200000      0.0000000E+00
 -0.9100000      0.0000000E+00
 -0.9000000      0.0000000E+00
 -0.8900000      0.0000000E+00
 -0.8800000      0.0000000E+00
 -0.8700000      0.0000000E+00
 -0.8600000      0.0000000E+00
 -0.8500000      0.0000000E+00
 -0.8400000      0.0000000E+00
 -0.8300000      0.0000000E+00
 -0.8200000      0.0000000E+00
 -0.8100000      0.0000000E+00
 -0.8000000      0.0000000E+00
 -0.7900000      0.0000000E+00
 -0.7800000      0.0000000E+00
 -0.7700000      0.0000000E+00
 -0.7600000      0.0000000E+00
 -0.7500000      0.0000000E+00
 -0.7400000      0.0000000E+00
 -0.7300000      0.0000000E+00
 -0.7200000      0.0000000E+00
 -0.7100000      0.0000000E+00
 -0.7000000      0.0000000E+00
 -0.6900000      0.0000000E+00
 -0.6800000      0.0000000E+00
 -0.6700000      0.0000000E+00
 -0.6600000      0.0000000E+00
 -0.6500000      0.0000000E+00
 -0.6400000      0.0000000E+00
 -0.6300000      0.0000000E+00
 -0.6200000      0.0000000E+00
 -0.6100000      0.0000000E+00
 -0.6000000      0.0000000E+00
 -0.5900000      0.0000000E+00
 -0.5800000      0.0000000E+00
 -0.5700000      0.0000000E+00
 -0.5600000      0.0000000E+00
 -0.5500000      0.0000000E+00
 -0.5400000      0.0000000E+00
 -0.5300000      0.0000000E+00
 -0.5200000      0.0000000E+00
 -0.5100000      0.0000000E+00
 -0.5000000      0.0000000E+00
 -0.4900000      0.0000000E+00
 -0.4800000      0.0000000E+00
 -0.4700000      0.0000000E+00
 -0.4600000      0.0000000E+00
 -0.4500000      0.0000000E+00
 -0.4400000      0.0000000E+00
 -0.4300000      0.0000000E+00
 -0.4200000      0.0000000E+00
 -0.4100000      0.0000000E+00
 -0.4000000      0.0000000E+00
 -0.3900000      0.0000000E+00
 -0.3800000      0.0000000E+00
 -0.3700000      0.0000000E+00
 -0.3600000      0.0000000E+00
 -0.3500000      0.0000000E+00
 -0.3400000      0.0000000E+00
 -0.3300000      0.0000000E+00
 -0.3200000      0.0000000E+00
 -0.3100000      0.0000000E+00
 -0.3000000      0.0000000E+00
 -0.2900000      0.0000000E+00
 -0.2800000      0.0000000E+00
 -0.2700000      0.0000000E+00
 -0.2600000      0.0000000E+00
 -0.2500000      0.0000000E+00
 -0.2400000      0.0000000E+00
 -0.2300000      0.0000000E+00
 -0.2200000      0.0000000E+00
 -0.2100000      0.0000000E+00
 -0.2000000      0.0000000E+00
 -0.1900000      0.0000000E+00
 -0.1800000      0.0000000E+00
 -0.1700000      0.0000000E+00
 -0.1600000      0.0000000E+00
 -0.1500000      0.0000000E+00
 -0.1400000      0.0000000E+00
 -0.1300000      0.0000000E+00
 -0.1200000      0.0000000E+00
 -0.1100000      0.0000000E+00
 -0.1000000      0.0000000E+00
 -9.0000004E-02  0.0000000E+00
 -7.9999998E-02  0.0000000E+00
 -7.0000000E-02  0.0000000E+00
 -5.9999999E-02  0.0000000E+00
 -5.0000001E-02  0.0000000E+00
 -3.9999999E-02  0.0000000E+00
 -2.9999999E-02  0.0000000E+00
 -2.0000000E-02  0.0000000E+00
 -9.9999998E-03  0.0000000E+00
 -3.4694470E-17  0.0000000E+00
  9.9999998E-03  0.0000000E+00
  2.0000000E-02  0.0000000E+00
  2.9999999E-02  0.0000000E+00
  3.9999999E-02  0.0000000E+00
  5.0000001E-02  0.0000000E+00
  5.9999999E-02  0.0000000E+00
  7.0000000E-02  0.0000000E+00
  7.9999998E-02  0.0000000E+00
  9.0000004E-02  0.0000000E+00
  0.1000000      0.0000000E+00
  0.1100000      0.0000000E+00
  0.1200000      0.0000000E+00
  0.1300000      0.0000000E+00
  0.1400000      0.0000000E+00
  0.1500000      0.0000000E+00
  0.1600000      0.0000000E+00
  0.1700000      0.0000000E+00
  0.1800000      0.0000000E+00
  0.1900000      0.0000000E+00
  0.2000000      0.0000000E+00
  0.2100000      0.0000000E+00
  0.2200000      0.0000000E+00
  0.2300000      0.0000000E+00
  0.2400000      0.0000000E+00
  0.2500000      0.0000000E+00
  0.2600000      0.0000000E+00
  0.2700000      0.0000000E+00
  0.2800000      0.0000000E+00
  0.2900000      0.0000000E+00
  0.3000000      0.0000000E+00
  0.3100000      0.0000000E+00
  0.3200000      0.0000000E+00
  0.3300000      0.0000000E+00
  0.3400000      0.0000000E+00
  0.3500000      0.0000000E+00
  0.3600000      0.0000000E+00
  0.3700000      0.0000000E+00
  0.3800000      0.0000000E+00
  0.3900000      0.0000000E+00
  0.4000000      0.0000000E+00
  0.4100000      0.0000000E+00
  0.4200000      0.0000000E+00
  0.4300000      0.0000000E+00
  0.4400000      0.0000000E+00
  0.4500000      0.0000000E+00
  0.4600000      0.0000000E+00
  0.4700000      0.0000000E+00
  0.4800000      0.0000000E+00
  0.4900000      0.0000000E+00
  0.5000000      0.0000000E+00
  0.5100000      0.0000000E+00
  0.5200000      0.0000000E+00
  0.5300000      0.0000000E+00
  0.5400000      0.0000000E+00
  0.5500000      0.0000000E+00
  0.5600000      0.0000000E+00
  0.5700000      0.0000000E+00
  0.5800000      0.0000000E+00
  0.5900000      0.0000000E+00
  0.6000000      0.0000000E+00
  0.6100000      0.0000000E+00
  0.6200000      0.0000000E+00
  0.6300000      0.0000000E+00
  0.6400000      0.0000000E+00
  0.6500000      0.0000000E+00
  0.6600000      0.0000000E+00
  0.6700000      0.0000000E+00
  0.6800000      0.0000000E+00
  0.6900000      0.0000000E+00
  0.7000000      0.0000000E+00
  0.7100000      0.0000000E+00
  0.7200000      0.0000000E+00
  0.7300000      0.0000000E+00
  0.7400000      0.0000000E+00
  0.7500000      0.0000000E+00
  0.7600000      0.0000000E+00
  0.7700000      0.0000000E+00
  0.7800000      0.0000000E+00
  0.7900000      0.0000000E+00
  0.8000000      0.0000000E+00
  0.8100000      0.0000000E+00
  0.8200000      0.0000000E+00
  0.8300000      0.0000000E+00
  0.8400000      0.0000000E+00
  0.8500000      0.0000000E+00
  0.8600000      0.0000000E+00
  0.8700000      0.0000000E+00
  0.8800000      0.0000000E+00
  0.8900000      0.0000000E+00
  0.9000000      0.0000000E+00
  0.9100000      0.0000000E+00
  0.9200000      0.0000000E+00
  0.9300000      0.0000000E+00
  0.9400000      0.0000000E+00
  0.9500000      0.0000000E+00
  0.9600000      0.0000000E+00
  0.9700000      0.0000000E+00
  0.9800000      0.0000000E+00
  0.9900000      0.0000000E+00
   1.000000      0.0000000E+00
   1.010000      0.0000000E+00
   1.020000      0.0000000E+00
   1.030000      0.0000000E+00
   1.040000      0.0000000E+00
   1.050000      0.0000000E+00
   1.060000      0.0000000E+00
   1.070000      0.0000000E+00
   1.080000      0.0000000E+00
   1.090000      0.0000000E+00
   1.100000      0.0000000E+00
   1.110000      0.0000000E+00
   1.120000      0.0000000E+00
   1.130000      0.0000000E+00
   1.140000      0.0000000E+00
   1.150000      0.0000000E+00
   1.160000      0.0000000E+00
   1.170000      0.0000000E+00
   1.180000      0.0000000E+00
   1.190000      0.0000000E+00
   1.200000      0.0000000E+00
   1.210000      0.0000000E+00
   1.220000      0.0000000E+00
   1.230000      0.0000000E+00
   1.240000      0.0000000E+00
   1.250000      0.0000000E+00
   1.260000      0.0000000E+00
   1.270000      0.0000000E+00
   1.280000      0.0000000E+00
   1.290000      0.0000000E+00
   1.300000      0.0000000E+00
   1.310000      0.0000000E+00
   1.320000      0.0000000E+00
   1.330000      0.0000000E+00
   1.340000      0.0000000E+00
   1.350000      0.0000000E+00
   1.360000      0.0000000E+00
   1.370000      0.0000000E+00
   1.380000      0.0000000E+00
   1.390000      0.0000000E+00
   1.400000      0.0000000E+00
   1.410000      0.0000000E+00
   1.420000      0.0000000E+00
   1.430000      0.0000000E+00
   1.440000      0.0000000E+00
   1.450000      0.0000000E+00
   1.460000      0.0000000E+00
   1.470000      0.0000000E+00
   1.480000      0.0000000E+00
   1.490000      0.0000000E+00
   1.500000      0.0000000E+00
   1.510000      0.0000000E+00
   1.520000      0.0000000E+00
   1.530000      0.0000000E+00
   1.540000      0.0000000E+00
   1.550000      0.0000000E+00
   1.560000      0.0000000E+00
   1.570000      0.0000000E+00
   1.580000      0.0000000E+00
   1.590000      0.0000000E+00
   1.600000      0.0000000E+00
   1.610000      0.0000000E+00
   1.620000      0.0000000E+00
   1.630000      0.0000000E+00
   1.640000      0.0000000E+00
   1.650000      0.0000000E+00
   1.660000      0.0000000E+00
   1.670000      0.0000000E+00
   1.680000      0.0000000E+00
   1.690000      0.0000000E+00
   1.700000      0.0000000E+00
   1.710000      0.0000000E+00
   1.720000      0.0000000E+00
   1.730000      0.0000000E+00
   1.740000      0.0000000E+00
   1.750000      0.0000000E+00
   1.760000      0.0000000E+00
   1.770000      0.0000000E+00
   1.780000      0.0000000E+00
   1.790000      0.0000000E+00
   1.800000      0.0000000E+00
   1.810000      0.0000000E+00
   1.820000      0.0000000E+00
   1.830000      0.0000000E+00
   1.840000      0.0000000E+00
   1.850000      0.0000000E+00
   1.860000      0.0000000E+00
   1.870000      0.0000000E+00
   1.880000      0.0000000E+00
   1.890000      0.0000000E+00
   1.900000      0.0000000E+00
   1.910000      0.0000000E+00
   1.920000      0.0000000E+00
   1.930000      0.0000000E+00
   1.940000      0.0000000E+00
   1.950000      0.0000000E+00
   1.960000      0.0000000E+00
   1.970000      0.0000000E+00
   1.980000      0.0000000E+00
   1.990000      0.0000000E+00
   2.000000      0.0000000E+00
   2.010000      0.0000000E+00
   2.020000      0.0000000E+00
   2.030000      0.0000000E+00
   2.040000      0.0000000E+00
   2.050000      0.0000000E+00
   2.060000      0.0000000E+00
   2.070000      0.0000000E+00
   2.080000      0.0000000E+00
   2.090000      0.0000000E+00
   2.100000      0.0000000E+00
   2.110000      0.0000000E+00
   2.120000      0.0000000E+00
   2.130000      0.0000000E+00
   2.140000      0.0000000E+00
   2.150000      0.0000000E+00
   2.160000      0.0000000E+00
   2.170000      0.0000000E+00
   2.180000      0.0000000E+00
   2.190000      0.0000000E+00
   2.200000      0.0000000E+00
   2.210000      0.0000000E+00
   2.220000      0.0000000E+00
   2.230000      0.0000000E+00
   2.240000      0.0000000E+00
   2.250000      0.0000000E+00
   2.260000      0.0000000E+00
   2.270000      0.0000000E+00
   2.280000      0.0000000E+00
   2.290000      0.0000000E+00
   2.300000      0.0000000E+00
   2.310000      0.0000000E+00
   2.320000      0.0000000E+00
   2.330000      0.0000000E+00
   2.340000      0.0000000E+00
   2.350000      0.0000000E+00
   2.360000      0.0000000E+00
   2.370000      0.0000000E+00
   2.380000      0.0000000E+00
   2.390000      0.0000000E+00
   2.400000      0.0000000E+00
   2.410000      0.0000000E+00
   2.420000      0.0000000E+00
   2.430000      0.0000000E+00
   2.440000      0.0000000E+00
   2.450000      0.0000000E+00
   2.460000      0.0000000E+00
   2.470000      0.0000000E+00
   2.480000      0.0000000E+00
   2.490000      0.0000000E+00
   2.500000      0.0000000E+00
   2.510000      0.0000000E+00
   2.520000      0.0000000E+00
   2.530000      0.0000000E+00
   2.540000      0.0000000E+00
   2.550000      0.0000000E+00
   2.560000      0.0000000E+00
   2.570000      0.0000000E+00
   2.580000      0.0000000E+00
   2.590000      0.0000000E+00
   2.600000      0.0000000E+00
   2.610000      0.0000000E+00
   2.620000      0.0000000E+00
   2.630000      0.0000000E+00
   2.640000      0.0000000E+00
   2.650000      0.0000000E+00
   2.660000      0.0000000E+00
   2.670000      0.0000000E+00
   2.680000      0.0000000E+00
   2.690000      0.0000000E+00
   2.700000      0.0000000E+00
   2.710000      0.0000000E+00
   2.720000      0.0000000E+00
   2.730000      0.0000000E+00
   2.740000      0.0000000E+00
   2.750000      0.0000000E+00
   2.760000      0.0000000E+00
   2.770000      0.0000000E+00
   2.780000      0.0000000E+00
   2.790000      0.0000000E+00
   2.800000      0.0000000E+00
   2.810000      0.0000000E+00
   2.820000      0.0000000E+00
   2.830000      0.0000000E+00
   2.840000      0.0000000E+00
   2.850000      0.0000000E+00
   2.860000      0.0000000E+00
   2.870000      0.0000000E+00
   2.880000      0.0000000E+00
   2.890000      0.0000000E+00
   2.900000      0.0000000E+00
   2.910000      0.0000000E+00
   2.920000      0.0000000E+00
   2.930000      0.0000000E+00
   2.940000      0.0000000E+00
   2.950000      0.0000000E+00
   2.960000      0.0000000E+00
   2.970000      0.0000000E+00
   2.980000      0.0000000E+00
   2.990000      0.0000000E+00
   3.000000      0.0000000E+00
   3.010000      0.0000000E+00
   3.020000      0.0000000E+00
   3.030000      0.0000000E+00
   3.040000      0.0000000E+00
   3.050000      0.0000000E+00
   3.060000      0.0000000E+00
   3.070000      0.0000000E+00
   3.080000      0.0000000E+00
   3.090000      0.0000000E+00
   3.100000      0.0000000E+00
   3.110000      0.0000000E+00
   3.120000      0.0000000E+00
   3.130000      0.0000000E+00
   3.140000      0.0000000E+00
   3.150000      0.0000000E+00
   3.160000      0.0000000E+00
   3.170000      0.0000000E+00
   3.180000      0.0000000E+00
   3.190000      0.0000000E+00
   3.200000      0.0000000E+00
   3.210000      0.0000000E+00
   3.220000      0.0000000E+00
   3.230000      0.0000000E+00
   3.240000      0.0000000E+00
   3.250000      0.0000000E+00
   3.260000      0.0000000E+00
   3.270000      0.0000000E+00
   3.280000      0.0000000E+00
   3.290000     -1.2306513E-38
   3.300000     -1.3290694E-38
   3.310000     -1.4335946E-38
   3.320000     -1.5373121E-38
   3.330000     -1.6297795E-38
   3.340000     -1.6837205E-38
   3.350000     -1.6997563E-38
   3.360000     -1.7103868E-38
   3.370000     -1.7310683E-38
   3.380000     -1.7790141E-38
   3.390000     -1.8055710E-38
   3.400000     -1.7761821E-38
   3.410000     -1.7158890E-38
   3.420000     -1.6560789E-38
   3.430000     -1.6128508E-38
   3.440000     -1.7418640E-38
   3.450000     -1.9131562E-38
   3.460000     -1.9647746E-38
   3.470000     -2.0342710E-38
   3.480000     -2.1141405E-38
   3.490000     -2.1875661E-38
   3.500000     -2.2820042E-38
   3.510000     -2.3018240E-38
   3.520000     -2.2412380E-38
   3.530000     -1.8859612E-38
   3.540000      0.0000000E+00
   3.550000      0.0000000E+00
   3.560000      1.6632693E-38
   3.570000      2.8443360E-38
   3.580000      3.7621016E-38
   3.590000      4.7272983E-38
   3.600000      5.7667938E-38
   3.610000      6.7931211E-38
   3.620000      7.7887941E-38
   3.630000      8.7294975E-38
   3.640000      9.5904362E-38
   3.650000      1.0379078E-37
   3.660000      1.1001091E-37
   3.670000      1.1164681E-37
   3.680000      1.1069702E-37
   3.690000      1.1111883E-37
   3.700000      1.0939038E-37
   3.710000      1.0617264E-37
   3.720000      1.0495584E-37
   3.730000      1.0522354E-37
   3.740000      1.0494923E-37
   3.750000      1.0401828E-37
   3.760000      1.0668627E-37
   3.770000      1.1207659E-37
   3.780000      1.1659696E-37
   3.790000      1.2065161E-37
   3.800000      1.1843138E-37
   3.810000      1.5420491E-37
   3.820000      2.3845396E-37
   3.830000      3.3306488E-37
   3.840000      4.1153042E-37
   3.850000      4.1980682E-37
   3.860000      3.7634038E-37
   3.870000      3.1945172E-37
   3.880000      2.5469611E-37
   3.890000      2.0324834E-37
   3.900000      1.6198018E-37
   3.910000      7.1344981E-38
   3.920000     -6.4918430E-38
   3.930000     -2.0025425E-37
   3.940000     -3.2107035E-37
   3.950000     -4.1578207E-37
   3.960000     -4.7305056E-37
   3.970000     -4.6651535E-37
   3.980000     -4.3489609E-37
   3.990000     -4.3741597E-37
   4.000000     -4.5976867E-37
   4.010000     -4.9603598E-37
   4.020000     -5.3452703E-37
   4.030000     -5.5715300E-37
   4.040000     -5.7619285E-37
   4.050000     -5.8544142E-37
   4.060000     -5.8407129E-37
   4.070000     -5.8824164E-37
   4.080000     -5.9316099E-37
   4.090000     -6.4219980E-37
   4.100000     -7.7205931E-37
   4.110000     -1.0208902E-36
   4.120000     -1.3925223E-36
   4.130000     -1.7887314E-36
   4.140000     -2.1829328E-36
   4.150000     -2.5696555E-36
   4.160000     -2.9189834E-36
   4.170000     -3.2131357E-36
   4.180000     -3.4240997E-36
   4.190000     -3.4965694E-36
   4.200000     -3.4966315E-36
   4.210000     -3.5025169E-36
   4.220000     -3.4916110E-36
   4.230000     -3.4595235E-36
   4.240000     -3.3859503E-36
   4.250000     -3.2994338E-36
   4.260000     -3.2446295E-36
   4.270000     -3.2127407E-36
   4.280000     -3.2338539E-36
   4.290000     -3.3926310E-36
   4.300000     -3.7526283E-36
   4.310000     -4.2524757E-36
   4.320000     -4.6321989E-36
   4.330000     -4.8149250E-36
   4.340000     -4.9017096E-36
   4.350000     -4.8129269E-36
   4.360000     -4.5565372E-36
   4.370000     -4.1993251E-36
   4.380000     -3.7666551E-36
   4.390000     -3.2205955E-36
   4.400000     -2.2939323E-36
   4.410000     -1.0821871E-36
   4.420000      1.0545315E-37
   4.430000      1.2298415E-36
   4.440000      2.2127322E-36
   4.450000      3.0377270E-36
   4.460000      3.7055533E-36
   4.470000      4.0879664E-36
   4.480000      4.1761668E-36
   4.490000      4.1674715E-36
   4.500000      4.1438371E-36
   4.510000      4.1250076E-36
   4.520000      4.5200846E-36
   4.530000      5.4661169E-36
   4.540000      6.8452507E-36
   4.550000      8.6584773E-36
   4.560000      1.0914201E-35
   4.570000      1.3718980E-35
   4.580000      1.6833729E-35
   4.590000      1.9961306E-35
   4.600000      2.2931298E-35
   4.610000      2.4969087E-35
   4.620000      2.6073090E-35
   4.630000      2.6837038E-35
   4.640000      2.6935572E-35
   4.650000      2.5772992E-35
   4.660000      2.3814339E-35
   4.670000      2.2383315E-35
   4.680000      2.2095081E-35
   4.690000      2.2800686E-35
   4.700000      2.4076810E-35
   4.710000      2.6108763E-35
   4.720000      2.8996125E-35
   4.730000      3.2097143E-35
   4.740000      3.4415702E-35
   4.750000      3.4749751E-35
   4.760000      3.3297774E-35
   4.770000      3.0903907E-35
   4.780000      2.7733011E-35
   4.790000      2.3781775E-35
   4.800000      1.8653262E-35
   4.810000      1.3420727E-35
   4.820000      8.5730574E-36
   4.830000      3.3934794E-36
   4.840000     -1.6683529E-36
   4.850000     -3.8115322E-36
   4.860000     -4.2853146E-37
   4.870000      9.6033340E-36
   4.880000      2.3561575E-35
   4.890000      3.7587155E-35
   4.900000      5.1805276E-35
   4.910000      5.8101615E-35
   4.920000      5.2316880E-35
   4.930000      3.8549017E-35
   4.940000      1.7584124E-35
   4.950000     -8.9650514E-36
   4.960000     -4.1053931E-35
   4.970000     -8.6034443E-35
   4.980000     -1.3677470E-34
   4.990000     -1.7965552E-34
   5.000000     -2.1710749E-34
   5.010000     -2.4149106E-34
   5.020000     -2.4017023E-34
   5.030000     -2.2456180E-34
   5.040000     -2.0903508E-34
   5.050000     -1.9248719E-34
   5.060000     -1.7471298E-34
   5.070000     -1.5777265E-34
   5.080000     -1.3975698E-34
   5.090000     -1.3019079E-34
   5.100000     -1.3530249E-34
   5.110000     -1.4781926E-34
   5.120000     -1.6658436E-34
   5.130000     -1.8969509E-34
   5.140000     -2.2306330E-34
   5.150000     -2.7454042E-34
   5.160000     -3.3138949E-34
   5.170000     -3.8224691E-34
   5.180000     -4.1864354E-34
   5.190000     -4.3813094E-34
   5.200000     -4.3924844E-34
   5.210000     -4.2314440E-34
   5.220000     -4.0028393E-34
   5.230000     -3.7082560E-34
   5.240000     -3.4225673E-34
   5.250000     -3.1993182E-34
   5.260000     -3.0973856E-34
   5.270000     -3.0301804E-34
   5.280000     -2.8823672E-34
   5.290000     -2.7329383E-34
   5.300000     -2.6247338E-34
   5.310000     -2.5788229E-34
   5.320000     -2.5380413E-34
   5.330000     -2.4109231E-34
   5.340000     -2.1722141E-34
   5.350000     -1.7990366E-34
   5.360000     -1.2454644E-34
   5.370000     -4.9414884E-35
   5.380000      4.1063149E-35
   5.390000      1.4180406E-34
   5.400000      2.5067162E-34
   5.410000      3.6565308E-34
   5.420000      4.8661646E-34
   5.430000      6.1097012E-34
   5.440000      7.3405090E-34
   5.450000      8.5382289E-34
   5.460000      9.6854554E-34
   5.470000      1.0788283E-33
   5.480000      1.1870350E-33
   5.490000      1.2942367E-33
   5.500000      1.4033062E-33
   5.510000      1.5155799E-33
   5.520000      1.6350500E-33
   5.530000      1.7631941E-33
   5.540000      1.8961391E-33
   5.550000      2.0388731E-33
   5.560000      2.1928856E-33
   5.570000      2.3501130E-33
   5.580000      2.5080272E-33
   5.590000      2.6658265E-33
   5.600000      2.8187471E-33
   5.610000      2.9632947E-33
   5.620000      3.0987508E-33
   5.630000      3.2249089E-33
   5.640000      3.3417387E-33
   5.650000      3.4490878E-33
   5.660000      3.5482400E-33
   5.670000      3.6414053E-33
   5.680000      3.7230977E-33
   5.690000      3.8084136E-33
   5.700000      3.8979903E-33
   5.710000      3.9785969E-33
   5.720000      4.0563860E-33
   5.730000      4.1257626E-33
   5.740000      4.1811170E-33
   5.750000      4.2179309E-33
   5.760000      4.2306850E-33
   5.770000      4.2126962E-33
   5.780000      4.1585680E-33
   5.790000      4.0643470E-33
   5.800000      3.9265552E-33
   5.810000      3.7443371E-33
   5.820000      3.5181561E-33
   5.830000      3.2506823E-33
   5.840000      2.9412119E-33
   5.850000      2.5899206E-33
   5.860000      2.1997597E-33
   5.870000      1.7717229E-33
   5.880000      1.3058236E-33
   5.890000      8.0037032E-34
   5.900000      2.5336768E-34
   5.910000     -3.3954012E-34
   5.920000     -9.8373945E-34
   5.930000     -1.6831310E-33
   5.940000     -2.4419486E-33
   5.950000     -3.2629982E-33
   5.960000     -4.1499105E-33
   5.970000     -5.1049251E-33
   5.980000     -6.1272342E-33
   5.990000     -7.2156589E-33
   6.000000     -8.3675075E-33
   6.010000     -9.5797015E-33
   6.020000     -1.0849237E-32
   6.030000     -1.2172187E-32
   6.040000     -1.3545157E-32
   6.050000     -1.4966287E-32
   6.060000     -1.6434507E-32
   6.070000     -1.7948318E-32
   6.080000     -1.9509051E-32
   6.090000     -2.1118472E-32
   6.100000     -2.2775985E-32
   6.110000     -2.4481392E-32
   6.120000     -2.6233249E-32
   6.130000     -2.8028499E-32
   6.140000     -2.9862141E-32
   6.150000     -3.1727445E-32
   6.160000     -3.3615491E-32
   6.170000     -3.5515540E-32
   6.180000     -3.7415906E-32
   6.190000     -3.9303838E-32
   6.200000     -4.1166074E-32
   6.210000     -4.2989283E-32
   6.220000     -4.4760530E-32
   6.230000     -4.6467356E-32
   6.240000     -4.8097755E-32
   6.250000     -4.9640004E-32
   6.260000     -5.1082447E-32
   6.270000     -5.2413130E-32
   6.280000     -5.3619240E-32
   6.290000     -5.4686713E-32
   6.300000     -5.5599842E-32
   6.310000     -5.6341039E-32
   6.320000     -5.6890806E-32
   6.330000     -5.7227708E-32
   6.340000     -5.7328601E-32
   6.350000     -5.7169104E-32
   6.360000     -5.6723991E-32
   6.370000     -5.5967737E-32
   6.380000     -5.4874933E-32
   6.390000     -5.3420723E-32
   6.400000     -5.1581009E-32
   6.410000     -4.9332594E-32
   6.420000     -4.6653099E-32
   6.430000     -4.3520798E-32
   6.440000     -3.9914307E-32
   6.450000     -3.5812273E-32
   6.460000     -3.1193000E-32
   6.470000     -2.6034220E-32
   6.480000     -2.0312923E-32
   6.490000     -1.4005376E-32
   6.500000     -7.0873118E-33
   6.510000      4.6574055E-34
   6.520000      8.6779526E-33
   6.530000      1.7572641E-32
   6.540000      2.7171637E-32
   6.550000      3.7494658E-32
   6.560000      4.8558796E-32
   6.570000      6.0378104E-32
   6.580000      7.2963299E-32
   6.590000      8.6321669E-32
   6.600000      1.0045705E-31
   6.610000      1.1536997E-31
   6.620000      1.3105782E-31
   6.630000      1.4751497E-31
   6.640000      1.6473297E-31
   6.650000      1.8270042E-31
   6.660000      2.0140300E-31
   6.670000      2.2082310E-31
   6.680000      2.4093920E-31
   6.690000      2.6172551E-31
   6.700000      2.8315132E-31
   6.710000      3.0518017E-31
   6.720000      3.2776920E-31
   6.730000      3.5086842E-31
   6.740000      3.7442036E-31
   6.750000      3.9835966E-31
   6.760000      4.2261274E-31
   6.770000      4.4709796E-31
   6.780000      4.7172584E-31
   6.790000      4.9639866E-31
   6.800000      5.2101088E-31
   6.810000      5.4544997E-31
   6.820000      5.6959580E-31
   6.830000      5.9332062E-31
   6.840000      6.1648947E-31
   6.850000      6.3895951E-31
   6.860000      6.6057982E-31
   6.870000      6.8119084E-31
   6.880000      7.0062402E-31
   6.890000      7.1870157E-31
   6.900000      7.3523608E-31
   6.910000      7.5003028E-31
   6.920000      7.6287735E-31
   6.930000      7.7356072E-31
   6.940000      7.8185468E-31
   6.950000      7.8752493E-31
   6.960000      7.9032924E-31
   6.970000      7.9001834E-31
   6.980000      7.8633599E-31
   6.990000      7.7902070E-31
   7.000000      7.6780601E-31
   7.010000      7.5242110E-31
   7.020000      7.3259135E-31
   7.030000      7.0803885E-31
   7.040000      6.7848302E-31
   7.050000      6.4364109E-31
   7.060000      6.0322858E-31