  -2.600000      0.0000000E+00
  -2.590000      0.0000000E+00
  -2.580000      0.0000000E+00
  -2.570000      0.0000000E+00
  -2.560000      0.0000000E+00
  -2.550000      0.0000000E+00
  -2.540000      0.0000000E+00
  -2.530000      0.0000000E+00
  -2.520000      0.0000000E+00
  -2.510000      0.0000000E+00
  -2.500000      0.0000000E+00
  -2.490000      0.0000000E+00
  -2.480000      0.0000000E+00
  -2.470000      0.0000000E+00
  -2.460000      0.0000000E+00
  -2.450000      0.0000000E+00
  -2.440000      0.0000000E+00
  -2.430000      0.0000000E+00
  -2.420000      0.0000000E+00
  -2.410000      0.0000000E+00
  -2.400000      0.0000000E+00
  -2.390000      0.0000000E+00
  -2.380000      0.0000000E+00
  -2.370000      0.0000000E+00
  -2.360000      0.0000000E+00
  -2.350000      0.0000000E+00
  -2.340000      0.0000000E+00
  -2.330000      0.0000000E+00
  -2.320000      0.0000000E+00
  -2.310000      0.0000000E+00
  -2.300000      0.0000000E+00
  -2.290000      0.0000000E+00
  -2.280000      0.0000000E+00
  -2.270000      0.0000000E+00
  -2.260000      0.0000000E+00
  -2.250000      0.0000000E+00
  -2.240000      0.0000000E+00
  -2.230000      0.0000000E+00
  -2.220000      0.0000000E+00
  -2.210000      0.0000000E+00
  -2.200000      0.0000000E+00
  -2.190000      0.0000000E+00
  -2.180000      0.0000000E+00
  -2.170000      0.0000000E+00
  -2.160000      0.0000000E+00
  -2.150000      0.0000000E+00
  -2.140000      0.0000000E+00
  -2.130000      0.0000000E+00
  -2.120000      0.0000000E+00
  -2.110000      0.0000000E+00
  -2.100000      0.0000000E+00
  -2.090000      0.0000000E+00
  -2.080000      0.0000000E+00
  -2.070000      0.0000000E+00
  -2.060000      0.0000000E+00
  -2.050000      0.0000000E+00
  -2.040000      0.0000000E+00
  -2.030000      0.0000000E+00
  -2.020000      0.0000000E+00
  -2.010000      0.0000000E+00
  -2.000000      0.0000000E+00
  -1.990000      0.0000000E+00
  -1.980000      0.0000000E+00
  -1.970000      0.0000000E+00
  -1.960000      0.0000000E+00
  -1.950000      0.0000000E+00
  -1.940000      0.0000000E+00
  -1.930000      0.0000000E+00
  -1.920000      0.0000000E+00
  -1.910000      0.0000000E+00
  -1.900000      0.0000000E+00
  -1.890000      0.0000000E+00
  -1.880000      0.0000000E+00
  -1.870000      0.0000000E+00
  -1.860000      0.0000000E+00
  -1.850000      0.0000000E+00
  -1.840000      0.0000000E+00
  -1.830000      0.0000000E+00
  -1.820000      0.0000000E+00
  -1.810000      0.0000000E+00
  -1.800000      0.0000000E+00
  -1.790000      0.0000000E+00
  -1.780000      0.0000000E+00
  -1.770000      0.0000000E+00
  -1.760000      0.0000000E+00
  -1.750000      0.0000000E+00
  -1.740000      0.0000000E+00
  -1.730000      0.0000000E+00
  -1.720000      0.0000000E+00
  -1.710000      0.0000000E+00
  -1.700000      0.0000000E+00
  -1.690000      0.0000000E+00
  -1.680000      0.0000000E+00
  -1.670000      0.0000000E+00
  -1.660000      0.0000000E+00
  -1.650000      0.0000000E+00
  -1.640000      0.0000000E+00
  -1.630000      0.0000000E+00
  -1.620000      0.0000000E+00
  -1.610000      0.0000000E+00
  -1.600000      0.0000000E+00
  -1.590000      0.0000000E+00
  -1.580000      0.0000000E+00
  -1.570000      0.0000000E+00
  -1.560000      0.0000000E+00
  -1.550000      0.0000000E+00
  -1.540000      0.0000000E+00
  -1.530000      0.0000000E+00
  -1.520000      0.0000000E+00
  -1.510000      0.0000000E+00
  -1.500000      0.0000000E+00
  -1.490000      0.0000000E+00
  -1.480000      0.0000000E+00
  -1.470000      0.0000000E+00
  -1.460000      0.0000000E+00
  -1.450000      0.0000000E+00
  -1.440000      0.0000000E+00
  -1.430000      0.0000000E+00
  -1.420000      0.0000000E+00
  -1.410000      0.0000000E+00
  -1.400000      0.0000000E+00
  -1.390000      0.0000000E+00
  -1.380000      0.0000000E+00
  -1.370000      0.0000000E+00
  -1.360000      0.0000000E+00
  -1.350000      0.0000000E+00
  -1.340000      0.0000000E+00
  -1.330000      0.0000000E+00
  -1.320000      0.0000000E+00
  -1.310000      0.0000000E+00
  -1.300000      0.0000000E+00
  -1.290000      0.0000000E+00
  -1.280000      0.0000000E+00
  -1.270000      0.0000000E+00
  -1.260000      0.0000000E+00
  -1.250000      0.0000000E+00
  -1.240000      0.0000000E+00
  -1.230000      0.0000000E+00
  -1.220000      0.0000000E+00
  -1.210000      0.0000000E+00
  -1.200000      0.0000000E+00
  -1.190000      0.0000000E+00
  -1.180000      0.0000000E+00
  -1.170000      0.0000000E+00
  -1.160000      0.0000000E+00
  -1.150000      0.0000000E+00
  -1.140000      0.0000000E+00
  -1.130000      0.0000000E+00
  -1.120000      0.0000000E+00
  -1.110000      0.0000000E+00
  -1.100000      0.0000000E+00
  -1.090000      0.0000000E+00
  -1.080000      0.0000000E+00
  -1.070000      0.0000000E+00
  -1.060000      0.0000000E+00
  -1.050000      0.0000000E+00
  -1.040000      0.0000000E+00
  -1.030000      0.0000000E+00
  -1.020000      0.0000000E+00
  -1.010000      0.0000000E+00
  -1.000000      0.0000000E+00
 -0.9900000      0.0000000E+00
 -0.9800000      0.0000000E+00
 -0.9700000      0.0000000E+00
 -0.9600000      0.0000000E+00
 -0.9500000      0.0000000E+00
 -0.9400000      0.0000000E+00
 -0.9300000      0.0000000E+00
 -0.9200000      0.0000000E+00
 -0.9100000      0.0000000E+00
 -0.9000000      0.0000000E+00
 -0.8900000      0.0000000E+00
 -0.8800000      0.0000000E+00
 -0.8700000      0.0000000E+00
 -0.8600000      0.0000000E+00
 -0.8500000      0.0000000E+00
 -0.8400000      0.0000000E+00
 -0.8300000      0.0000000E+00
 -0.8200000      0.0000000E+00
 -0.8100000      0.0000000E+00
 -0.8000000      0.0000000E+00
 -0.7900000      0.0000000E+00
 -0.7800000      0.0000000E+00
 -0.7700000      0.0000000E+00
 -0.7600000      0.0000000E+00
 -0.7500000      0.0000000E+00
 -0.7400000      0.0000000E+00
 -0.7300000      0.0000000E+00
 -0.7200000      0.0000000E+00
 -0.7100000      0.0000000E+00
 -0.7000000      0.0000000E+00
 -0.6900000      0.0000000E+00
 -0.6800000      0.0000000E+00
 -0.6700000      0.0000000E+00
 -0.6600000      0.0000000E+00
 -0.6500000      0.0000000E+00
 -0.6400000      0.0000000E+00
 -0.6300000      0.0000000E+00
 -0.6200000      0.0000000E+00
 -0.6100000      0.0000000E+00
 -0.6000000      0.0000000E+00
 -0.5900000      0.0000000E+00
 -0.5800000      0.0000000E+00
 -0.5700000      0.0000000E+00
 -0.5600000      0.0000000E+00
 -0.5500000      0.0000000E+00
 -0.5400000      0.0000000E+00
 -0.5300000      0.0000000E+00
 -0.5200000      0.0000000E+00
 -0.5100000      0.0000000E+00
 -0.5000000      0.0000000E+00
 -0.4900000      0.0000000E+00
 -0.4800000      0.0000000E+00
 -0.4700000      0.0000000E+00
 -0.4600000      0.0000000E+00
 -0.4500000      0.0000000E+00
 -0.4400000      0.0000000E+00
 -0.4300000      0.0000000E+00
 -0.4200000      0.0000000E+00
 -0.4100000      0.0000000E+00
 -0.4000000      0.0000000E+00
 -0.3900000      0.0000000E+00
 -0.3800000      0.0000000E+00
 -0.3700000      0.0000000E+00
 -0.3600000      0.0000000E+00
 -0.3500000      0.0000000E+00
 -0.3400000      0.0000000E+00
 -0.3300000      0.0000000E+00
 -0.3200000      0.0000000E+00
 -0.3100000      0.0000000E+00
 -0.3000000      0.0000000E+00
 -0.2900000      0.0000000E+00
 -0.2800000      0.0000000E+00
 -0.2700000      0.0000000E+00
 -0.2600000      0.0000000E+00
 -0.2500000      0.0000000E+00
 -0.2400000      0.0000000E+00
 -0.2300000      0.0000000E+00
 -0.2200000      0.0000000E+00
 -0.2100000      0.0000000E+00
 -0.2000000      0.0000000E+00
 -0.1900000      0.0000000E+00
 -0.1800000      0.0000000E+00
 -0.1700000      0.0000000E+00
 -0.1600000      0.0000000E+00
 -0.1500000      0.0000000E+00
 -0.1400000      0.0000000E+00
 -0.1300000      0.0000000E+00
 -0.1200000      0.0000000E+00
 -0.1100000      0.0000000E+00
 -0.1000000      0.0000000E+00
 -9.0000004E-02  0.0000000E+00
 -7.9999998E-02  0.0000000E+00
 -7.0000000E-02  0.0000000E+00
 -5.9999999E-02  0.0000000E+00
 -5.0000001E-02  0.0000000E+00
 -3.9999999E-02  0.0000000E+00
 -2.9999999E-02  0.0000000E+00
 -2.0000000E-02  0.0000000E+00
 -9.9999998E-03  0.0000000E+00
 -3.4694470E-17  0.0000000E+00
  9.9999998E-03  0.0000000E+00
  2.0000000E-02  0.0000000E+00
  2.9999999E-02  0.0000000E+00
  3.9999999E-02  0.0000000E+00
  5.0000001E-02  0.0000000E+00
  5.9999999E-02  0.0000000E+00
  7.0000000E-02  0.0000000E+00
  7.9999998E-02  0.0000000E+00
  9.0000004E-02  0.0000000E+00
  0.1000000      0.0000000E+00
  0.1100000      0.0000000E+00
  0.1200000      0.0000000E+00
  0.1300000      0.0000000E+00
  0.1400000      0.0000000E+00
  0.1500000      0.0000000E+00
  0.1600000      0.0000000E+00
  0.1700000      0.0000000E+00
  0.1800000      0.0000000E+00
  0.1900000      0.0000000E+00
  0.2000000      0.0000000E+00
  0.2100000      0.0000000E+00
  0.2200000      0.0000000E+00
  0.2300000      0.0000000E+00
  0.2400000      0.0000000E+00
  0.2500000      0.0000000E+00
  0.2600000      0.0000000E+00
  0.2700000      0.0000000E+00
  0.2800000      0.0000000E+00
  0.2900000      0.0000000E+00
  0.3000000      0.0000000E+00
  0.3100000      0.0000000E+00
  0.3200000      0.0000000E+00
  0.3300000      0.0000000E+00
  0.3400000      0.0000000E+00
  0.3500000      0.0000000E+00
  0.3600000      0.0000000E+00
  0.3700000      0.0000000E+00
  0.3800000      0.0000000E+00
  0.3900000      0.0000000E+00
  0.4000000      0.0000000E+00
  0.4100000      0.0000000E+00
  0.4200000      0.0000000E+00
  0.4300000      0.0000000E+00
  0.4400000      0.0000000E+00
  0.4500000      0.0000000E+00
  0.4600000      0.0000000E+00
  0.4700000      0.0000000E+00
  0.4800000      0.0000000E+00
  0.4900000      0.0000000E+00
  0.5000000      0.0000000E+00
  0.5100000      0.0000000E+00
  0.5200000      0.0000000E+00
  0.5300000      0.0000000E+00
  0.5400000      0.0000000E+00
  0.5500000      0.0000000E+00
  0.5600000      0.0000000E+00
  0.5700000      0.0000000E+00
  0.5800000      0.0000000E+00
  0.5900000      0.0000000E+00
  0.6000000      0.0000000E+00
  0.6100000      0.0000000E+00
  0.6200000      0.0000000E+00
  0.6300000      0.0000000E+00
  0.6400000      0.0000000E+00
  0.6500000      0.0000000E+00
  0.6600000      0.0000000E+00
  0.6700000      0.0000000E+00
  0.6800000      0.0000000E+00
  0.6900000      0.0000000E+00
  0.7000000      0.0000000E+00
  0.7100000      0.0000000E+00
  0.7200000      0.0000000E+00
  0.7300000      0.0000000E+00
  0.7400000      0.0000000E+00
  0.7500000      0.0000000E+00
  0.7600000      0.0000000E+00
  0.7700000      0.0000000E+00
  0.7800000      0.0000000E+00
  0.7900000      0.0000000E+00
  0.8000000      0.0000000E+00
  0.8100000      0.0000000E+00
  0.8200000      0.0000000E+00
  0.8300000      0.0000000E+00
  0.8400000      0.0000000E+00
  0.8500000      0.0000000E+00
  0.8600000      0.0000000E+00
  0.8700000      0.0000000E+00
  0.8800000      0.0000000E+00
  0.8900000      0.0000000E+00
  0.9000000      0.0000000E+00
  0.9100000      0.0000000E+00
  0.9200000      0.0000000E+00
  0.9300000      0.0000000E+00
  0.9400000      0.0000000E+00
  0.9500000      0.0000000E+00
  0.9600000      0.0000000E+00
  0.9700000      0.0000000E+00
  0.9800000      0.0000000E+00
  0.9900000      0.0000000E+00
   1.000000      0.0000000E+00
   1.010000      0.0000000E+00
   1.020000      0.0000000E+00
   1.030000      0.0000000E+00
   1.040000      0.0000000E+00
   1.050000      0.0000000E+00
   1.060000      0.0000000E+00
   1.070000      0.0000000E+00
   1.080000      0.0000000E+00
   1.090000      0.0000000E+00
   1.100000      0.0000000E+00
   1.110000      0.0000000E+00
   1.120000      0.0000000E+00
   1.130000      0.0000000E+00
   1.140000      0.0000000E+00
   1.150000      0.0000000E+00
   1.160000      0.0000000E+00
   1.170000      0.0000000E+00
   1.180000      0.0000000E+00
   1.190000      0.0000000E+00
   1.200000      0.0000000E+00
   1.210000      0.0000000E+00
   1.220000      0.0000000E+00
   1.230000      0.0000000E+00
   1.240000      0.0000000E+00
   1.250000      0.0000000E+00
   1.260000      0.0000000E+00
   1.270000      0.0000000E+00
   1.280000      0.0000000E+00
   1.290000      0.0000000E+00
   1.300000      0.0000000E+00
   1.310000      0.0000000E+00
   1.320000      0.0000000E+00
   1.330000      0.0000000E+00
   1.340000      0.0000000E+00
   1.350000      0.0000000E+00
   1.360000      0.0000000E+00
   1.370000      0.0000000E+00
   1.380000      0.0000000E+00
   1.390000      0.0000000E+00
   1.400000      0.0000000E+00
   1.410000      0.0000000E+00
   1.420000      0.0000000E+00
   1.430000      0.0000000E+00
   1.440000      0.0000000E+00
   1.450000      0.0000000E+00
   1.460000      0.0000000E+00
   1.470000      0.0000000E+00
   1.480000      0.0000000E+00
   1.490000      0.0000000E+00
   1.500000      0.0000000E+00
   1.510000      0.0000000E+00
   1.520000      0.0000000E+00
   1.530000      0.0000000E+00
   1.540000      0.0000000E+00
   1.550000      0.0000000E+00
   1.560000      0.0000000E+00
   1.570000      0.0000000E+00
   1.580000      0.0000000E+00
   1.590000      0.0000000E+00
   1.600000      0.0000000E+00
   1.610000      0.0000000E+00
   1.620000      0.0000000E+00
   1.630000      0.0000000E+00
   1.640000      0.0000000E+00
   1.650000      0.0000000E+00
   1.660000      0.0000000E+00
   1.670000      0.0000000E+00
   1.680000      0.0000000E+00
   1.690000      0.0000000E+00
   1.700000      0.0000000E+00
   1.710000      0.0000000E+00
   1.720000      0.0000000E+00
   1.730000      0.0000000E+00
   1.740000      0.0000000E+00
   1.750000      0.0000000E+00
   1.760000      0.0000000E+00
   1.770000      0.0000000E+00
   1.780000      0.0000000E+00
   1.790000      0.0000000E+00
   1.800000      0.0000000E+00
   1.810000      0.0000000E+00
   1.820000      0.0000000E+00
   1.830000      0.0000000E+00
   1.840000      0.0000000E+00
   1.850000      0.0000000E+00
   1.860000      0.0000000E+00
   1.870000      0.0000000E+00
   1.880000      0.0000000E+00
   1.890000      0.0000000E+00
   1.900000      0.0000000E+00
   1.910000      0.0000000E+00
   1.920000      0.0000000E+00
   1.930000      0.0000000E+00
   1.940000      0.0000000E+00
   1.950000      0.0000000E+00
   1.960000      0.0000000E+00
   1.970000      0.0000000E+00
   1.980000      0.0000000E+00
   1.990000      0.0000000E+00
   2.000000      0.0000000E+00
   2.010000      0.0000000E+00
   2.020000      0.0000000E+00
   2.030000      0.0000000E+00
   2.040000      0.0000000E+00
   2.050000      0.0000000E+00
   2.060000      0.0000000E+00
   2.070000      0.0000000E+00
   2.080000      0.0000000E+00
   2.090000      0.0000000E+00
   2.100000      0.0000000E+00
   2.110000      0.0000000E+00
   2.120000      0.0000000E+00
   2.130000      0.0000000E+00
   2.140000      0.0000000E+00
   2.150000      0.0000000E+00
   2.160000      0.0000000E+00
   2.170000      0.0000000E+00
   2.180000      0.0000000E+00
   2.190000      0.0000000E+00
   2.200000      0.0000000E+00
   2.210000      0.0000000E+00
   2.220000      0.0000000E+00
   2.230000      0.0000000E+00
   2.240000      0.0000000E+00
   2.250000      0.0000000E+00
   2.260000      0.0000000E+00
   2.270000      0.0000000E+00
   2.280000      0.0000000E+00
   2.290000      0.0000000E+00
   2.300000      0.0000000E+00
   2.310000      0.0000000E+00
   2.320000      0.0000000E+00
   2.330000      0.0000000E+00
   2.340000      0.0000000E+00
   2.350000      0.0000000E+00
   2.360000      0.0000000E+00
   2.370000      0.0000000E+00
   2.380000      0.0000000E+00
   2.390000      0.0000000E+00
   2.400000      0.0000000E+00
   2.410000      0.0000000E+00
   2.420000      0.0000000E+00
   2.430000      0.0000000E+00
   2.440000      0.0000000E+00
   2.450000      0.0000000E+00
   2.460000      0.0000000E+00
   2.470000      0.0000000E+00
   2.480000      0.0000000E+00
   2.490000      0.0000000E+00
   2.500000      0.0000000E+00
   2.510000      0.0000000E+00
   2.520000      0.0000000E+00
   2.530000      0.0000000E+00
   2.540000      0.0000000E+00
   2.550000      0.0000000E+00
   2.560000      0.0000000E+00
   2.570000      0.0000000E+00
   2.580000      0.0000000E+00
   2.590000      0.0000000E+00
   2.600000      0.0000000E+00
   2.610000      0.0000000E+00
   2.620000      0.0000000E+00
   2.630000      0.0000000E+00
   2.640000      0.0000000E+00
   2.650000      0.0000000E+00
   2.660000      0.0000000E+00
   2.670000      0.0000000E+00
   2.680000      0.0000000E+00
   2.690000      0.0000000E+00
   2.700000      0.0000000E+00
   2.710000      0.0000000E+00
   2.720000      0.0000000E+00
   2.730000      0.0000000E+00
   2.740000      0.0000000E+00
   2.750000      0.0000000E+00
   2.760000      0.0000000E+00
   2.770000      0.0000000E+00
   2.780000      0.0000000E+00
   2.790000      0.0000000E+00
   2.800000      0.0000000E+00
   2.810000      0.0000000E+00
   2.820000      0.0000000E+00
   2.830000      0.0000000E+00
   2.840000      0.0000000E+00
   2.850000      0.0000000E+00
   2.860000      0.0000000E+00
   2.870000      0.0000000E+00
   2.880000      0.0000000E+00
   2.890000      0.0000000E+00
   2.900000      0.0000000E+00
   2.910000      0.0000000E+00
   2.920000      0.0000000E+00
   2.930000      0.0000000E+00
   2.940000      0.0000000E+00
   2.950000      0.0000000E+00
   2.960000      0.0000000E+00
   2.970000      0.0000000E+00
   2.980000      0.0000000E+00
   2.990000      0.0000000E+00
   3.000000      0.0000000E+00
   3.010000      0.0000000E+00
   3.020000      0.0000000E+00
   3.030000      0.0000000E+00
   3.040000      0.0000000E+00
   3.050000      0.0000000E+00
   3.060000      0.0000000E+00
   3.070000      0.0000000E+00
   3.080000      0.0000000E+00
   3.090000      0.0000000E+00
   3.100000      0.0000000E+00
   3.110000      0.0000000E+00
   3.120000      0.0000000E+00
   3.130000      0.0000000E+00
   3.140000      0.0000000E+00
   3.150000      0.0000000E+00
   3.160000      0.0000000E+00
   3.170000      0.0000000E+00
   3.180000      0.0000000E+00
   3.190000      0.0000000E+00
   3.200000      0.0000000E+00
   3.210000      0.0000000E+00
   3.220000      0.0000000E+00
   3.230000      0.0000000E+00
   3.240000      0.0000000E+00
   3.250000      0.0000000E+00
   3.260000      0.0000000E+00
   3.270000      0.0000000E+00
   3.280000      0.0000000E+00
   3.290000      0.0000000E+00
   3.300000      0.0000000E+00
   3.310000      0.0000000E+00
   3.320000      0.0000000E+00
   3.330000      0.0000000E+00
   3.340000      0.0000000E+00
   3.350000      0.0000000E+00
   3.360000      1.3028146E-38
   3.370000      1.4596659E-38
   3.380000      1.6118363E-38
   3.390000      1.7545546E-38
   3.400000      1.8774579E-38
   3.410000      1.9821377E-38
   3.420000      2.0671575E-38
   3.430000      2.1093565E-38
   3.440000      2.1262109E-38
   3.450000      2.1695660E-38
   3.460000      2.2513962E-38
   3.470000      2.3512947E-38
   3.480000      2.4604074E-38
   3.490000      2.5593671E-38
   3.500000      2.6535537E-38
   3.510000      2.7339213E-38
   3.520000      2.8311089E-38
   3.530000      2.8928512E-38
   3.540000      2.8844961E-38
   3.550000      2.8784758E-38
   3.560000      2.8298881E-38
   3.570000      2.7725225E-38
   3.580000      2.7444826E-38
   3.590000      2.6995690E-38
   3.600000      2.6661486E-38
   3.610000      2.6389087E-38
   3.620000      2.5483380E-38
   3.630000      2.3965721E-38
   3.640000      2.1996772E-38
   3.650000      1.9490950E-38
   3.660000      1.6358251E-38
   3.670000      1.2699337E-38
   3.680000      0.0000000E+00
   3.690000      0.0000000E+00
   3.700000      0.0000000E+00
   3.710000      0.0000000E+00
   3.720000     -1.5544933E-38
   3.730000     -2.4677233E-38
   3.740000     -3.4648240E-38
   3.750000     -4.5687428E-38
   3.760000     -5.8682176E-38
   3.770000     -7.4725289E-38
   3.780000     -9.2666606E-38
   3.790000     -1.1080565E-37
   3.800000     -1.2788518E-37
   3.810000     -1.4358057E-37
   3.820000     -1.5957234E-37
   3.830000     -1.7474799E-37
   3.840000     -1.8556556E-37
   3.850000     -1.9344190E-37
   3.860000     -1.9884699E-37
   3.870000     -2.0396056E-37
   3.880000     -2.1071625E-37
   3.890000     -2.1756477E-37
   3.900000     -2.2640371E-37
   3.910000     -2.3565475E-37
   3.920000     -2.4207119E-37
   3.930000     -2.4579950E-37
   3.940000     -2.4775152E-37
   3.950000     -2.4856275E-37
   3.960000     -2.5001138E-37
   3.970000     -2.4821301E-37
   3.980000     -2.4157076E-37
   3.990000     -2.3232284E-37
   4.000000     -2.1709248E-37
   4.010000     -1.9303537E-37
   4.020000     -1.6518774E-37
   4.030000     -1.3603480E-37
   4.040000     -1.0236454E-37
   4.050000     -6.1317082E-38
   4.060000     -1.4316919E-38
   4.070000      4.8634995E-38
   4.080000      1.3547547E-37
   4.090000      2.3659218E-37
   4.100000      3.5711919E-37
   4.110000      5.0045852E-37
   4.120000      6.5943267E-37
   4.130000      8.2101409E-37
   4.140000      9.8181338E-37
   4.150000      1.1812735E-36
   4.160000      1.4303195E-36
   4.170000      1.7057695E-36
   4.180000      1.9850069E-36
   4.190000      2.2530506E-36
   4.200000      2.4795218E-36
   4.210000      2.6747169E-36
   4.220000      2.8749215E-36
   4.230000      3.0679108E-36
   4.240000      3.2396324E-36
   4.250000      3.3918465E-36
   4.260000      3.5401465E-36
   4.270000      3.6886638E-36
   4.280000      3.8351005E-36
   4.290000      3.9216580E-36
   4.300000      3.9484496E-36
   4.310000      3.9485106E-36
   4.320000      3.8865212E-36
   4.330000      3.7755341E-36
   4.340000      3.6746804E-36
   4.350000      3.5906994E-36
   4.360000      3.4893148E-36
   4.370000      3.3374304E-36
   4.380000      3.1196715E-36
   4.390000      2.8016072E-36
   4.400000      2.3887322E-36
   4.410000      1.9718277E-36
   4.420000      1.5460301E-36
   4.430000      1.0691704E-36
   4.440000      5.4048970E-37
   4.450000      0.0000000E+00
   4.460000     -5.3185034E-37
   4.470000     -1.0201124E-36
   4.480000     -1.4752791E-36
   4.490000     -1.9764084E-36
   4.500000     -2.5345942E-36
   4.510000     -3.1881995E-36
   4.520000     -3.9483703E-36
   4.530000     -4.7743901E-36
   4.540000     -5.6831385E-36
   4.550000     -6.7218317E-36
   4.560000     -7.9347519E-36
   4.570000     -9.2967311E-36
   4.580000     -1.0765810E-35
   4.590000     -1.2331547E-35
   4.600000     -1.3974214E-35
   4.610000     -1.5558214E-35
   4.620000     -1.7105836E-35
   4.630000     -1.8704375E-35
   4.640000     -2.0335636E-35
   4.650000     -2.1991510E-35
   4.660000     -2.3546306E-35
   4.670000     -2.4978405E-35
   4.680000     -2.6368473E-35
   4.690000     -2.7741357E-35
   4.700000     -2.9004382E-35
   4.710000     -3.0167685E-35
   4.720000     -3.1219379E-35
   4.730000     -3.2199824E-35
   4.740000     -3.3199921E-35
   4.750000     -3.3917328E-35
   4.760000     -3.4016393E-35
   4.770000     -3.3581362E-35
   4.780000     -3.2788524E-35
   4.790000     -3.1762965E-35
   4.800000     -3.0665181E-35
   4.810000     -2.9251603E-35
   4.820000     -2.7400527E-35
   4.830000     -2.5392693E-35
   4.840000     -2.3420952E-35
   4.850000     -2.1481743E-35
   4.860000     -1.9481807E-35
   4.870000     -1.7571296E-35
   4.880000     -1.5663289E-35
   4.890000     -1.3470154E-35
   4.900000     -1.1021081E-35
   4.910000     -8.3023435E-36
   4.920000     -5.6928688E-36
   4.930000     -3.3160617E-36
   4.940000     -5.9716520E-37
   4.950000      3.1776739E-36
   4.960000      1.3266392E-35
   4.970000      2.9964206E-35
   4.980000      4.8085912E-35
   4.990000      6.9655341E-35
   5.000000      9.3112388E-35
   5.010000      1.1625018E-34
   5.020000      1.3890654E-34
   5.030000      1.6198287E-34
   5.040000      1.8664915E-34
   5.050000      2.0768076E-34
   5.060000      2.2211019E-34
   5.070000      2.3185531E-34
   5.080000      2.3969007E-34
   5.090000      2.4647118E-34
   5.100000      2.5322910E-34
   5.110000      2.5973418E-34
   5.120000      2.6596724E-34
   5.130000      2.7228862E-34
   5.140000      2.7826293E-34
   5.150000      2.8498575E-34
   5.160000      2.9153410E-34
   5.170000      2.9681698E-34
   5.180000      2.9683159E-34
   5.190000      2.9096298E-34
   5.200000      2.8602271E-34
   5.210000      2.8460507E-34
   5.220000      2.8361889E-34
   5.230000      2.8110329E-34
   5.240000      2.7877301E-34
   5.250000      2.7695988E-34
   5.260000      2.7532748E-34
   5.270000      2.7220402E-34
   5.280000      2.6539246E-34
   5.290000      2.5757981E-34
   5.300000      2.4950687E-34
   5.310000      2.3951788E-34
   5.320000      2.2746605E-34
   5.330000      2.0941857E-34
   5.340000      1.8329923E-34
   5.350000      1.5096593E-34
   5.360000      1.1108935E-34
   5.370000      6.1329237E-35
   5.380000     -1.4420978E-38
   5.390000     -7.1883339E-35
   5.400000     -1.5198832E-34
   5.410000     -2.4151275E-34
   5.420000     -3.4090750E-34
   5.430000     -4.4649064E-34
   5.440000     -5.5594592E-34
   5.450000     -6.7084370E-34
   5.460000     -7.9071281E-34
   5.470000     -9.1352129E-34
   5.480000     -1.0383366E-33
   5.490000     -1.1647147E-33
   5.500000     -1.2919979E-33
   5.510000     -1.4182910E-33
   5.520000     -1.5416386E-33
   5.530000     -1.6617580E-33
   5.540000     -1.7820184E-33
   5.550000     -1.9013368E-33
   5.560000     -2.0174216E-33
   5.570000     -2.1308912E-33
   5.580000     -2.2405714E-33
   5.590000     -2.3508241E-33
   5.600000     -2.4610058E-33
   5.610000     -2.5676847E-33
   5.620000     -2.6723892E-33
   5.630000     -2.7749919E-33
   5.640000     -2.8753148E-33
   5.650000     -2.9729876E-33
   5.660000     -3.0679420E-33
   5.670000     -3.1597171E-33
   5.680000     -3.2486689E-33
   5.690000     -3.3317205E-33
   5.700000     -3.4048018E-33
   5.710000     -3.4686983E-33
   5.720000     -3.5217311E-33
   5.730000     -3.5594042E-33
   5.740000     -3.5803563E-33
   5.750000     -3.5832220E-33
   5.760000     -3.5637029E-33
   5.770000     -3.5180055E-33
   5.780000     -3.4434436E-33
   5.790000     -3.3378118E-33
   5.800000     -3.1981392E-33
   5.810000     -3.0217206E-33
   5.820000     -2.8067495E-33
   5.830000     -2.5515279E-33
   5.840000     -2.2545563E-33
   5.850000     -1.9143555E-33
   5.860000     -1.5299145E-33
   5.870000     -1.1008617E-33
   5.880000     -6.2690826E-34
   5.890000     -1.0760064E-34
   5.900000      4.5724903E-34
   5.910000      1.0676738E-33
   5.920000      1.7232745E-33
   5.930000      2.4234138E-33
   5.940000      3.1694097E-33
   5.950000      3.9613947E-33
   5.960000      4.7990817E-33
   5.970000      5.6831978E-33
   5.980000      6.6133452E-33
   5.990000      7.5897578E-33
   6.000000      8.6118729E-33
   6.010000      9.6800424E-33
   6.020000      1.0795100E-32
   6.030000      1.1956660E-32
   6.040000      1.3164144E-32
   6.050000      1.4416956E-32
   6.060000      1.5714382E-32
   6.070000      1.7055051E-32
   6.080000      1.8437620E-32
   6.090000      1.9859743E-32
   6.100000      2.1318357E-32
   6.110000      2.2810296E-32
   6.120000      2.4331419E-32
   6.130000      2.5876595E-32
   6.140000      2.7439867E-32
   6.150000      2.9015003E-32
   6.160000      3.0593730E-32
   6.170000      3.2166859E-32
   6.180000      3.3725350E-32
   6.190000      3.5259068E-32
   6.200000      3.6756650E-32
   6.210000      3.8206023E-32
   6.220000      3.9594905E-32
   6.230000      4.0910160E-32
   6.240000      4.2138907E-32
   6.250000      4.3266500E-32
   6.260000      4.4277775E-32
   6.270000      4.5158555E-32
   6.280000      4.5893668E-32
   6.290000      4.6467591E-32
   6.300000      4.6864462E-32
   6.310000      4.7068043E-32
   6.320000      4.7061757E-32
   6.330000      4.6828653E-32
   6.340000      4.6351065E-32
   6.350000      4.5611544E-32
   6.360000      4.4592243E-32
   6.370000      4.3274299E-32
   6.380000      4.1638769E-32
   6.390000      3.9666334E-32
   6.400000      3.7337342E-32
   6.410000      3.4631856E-32
   6.420000      3.1529680E-32
   6.430000      2.8010408E-32
   6.440000      2.4053524E-32
   6.450000      1.9638470E-32
   6.460000      1.4744724E-32
   6.470000      9.3519451E-33
   6.480000      3.4401470E-33
   6.490000     -3.0101889E-33
   6.500000     -1.0017884E-32
   6.510000     -1.7600877E-32
   6.520000     -2.5776008E-32
   6.530000     -3.4558735E-32
   6.540000     -4.3962898E-32
   6.550000     -5.4000459E-32
   6.560000     -6.4681230E-32
   6.570000     -7.6012637E-32
   6.580000     -8.7999447E-32
   6.590000     -1.0064357E-31
   6.600000     -1.1394377E-31
   6.610000     -1.2789558E-31
   6.620000     -1.4249097E-31
   6.630000     -1.5771825E-31
   6.640000     -1.7356189E-31
   6.650000     -1.9000229E-31
   6.660000     -2.0701570E-31
   6.670000     -2.2457396E-31
   6.680000     -2.4264442E-31
   6.690000     -2.6118963E-31
   6.700000     -2.8016721E-31
   6.710000     -2.9952969E-31
   6.720000     -3.1922425E-31
   6.730000     -3.3919242E-31
   6.740000     -3.5937004E-31
   6.750000     -3.7968691E-31
   6.760000     -4.0006657E-31
   6.770000     -4.2042632E-31
   6.780000     -4.4067656E-31
   6.790000     -4.6072109E-31
   6.800000     -4.8045666E-31
   6.810000     -4.9977276E-31
   6.820000     -5.1855170E-31
   6.830000     -5.3666828E-31
   6.840000     -5.5398966E-31
   6.850000     -5.7037539E-31
   6.860000     -5.8567722E-31
   6.870000     -5.9973910E-31
   6.880000     -6.1239720E-31
   6.890000     -6.2347985E-31
   6.900000     -6.3280778E-31
   6.910000     -6.4019407E-31
   6.920000     -6.4544448E-31
   6.930000     -6.4835773E-31
   6.940000     -6.4872580E-31
   6.950000     -6.4633428E-31
   6.960000     -6.4096270E-31
   6.970000     -6.3238549E-31
   6.980000     -6.2037203E-31
   6.990000     -6.0468765E-31
   7.000000     -5.8509432E-31
   7.010000     -5.6135112E-31
   7.020000     -5.3321543E-31
   7.030000     -5.0044345E-31
   7.040000     -4.6279142E-31
   7.050000     -4.2001631E-31
   7.060000     -3.7187716E-31