  -2.600000      0.0000000E+00
  -2.590000      0.0000000E+00
  -2.580000      0.0000000E+00
  -2.570000      0.0000000E+00
  -2.560000      0.0000000E+00
  -2.550000      0.0000000E+00
  -2.540000      0.0000000E+00
  -2.530000      0.0000000E+00
  -2.520000      0.0000000E+00
  -2.510000      0.0000000E+00
  -2.500000      0.0000000E+00
  -2.490000      0.0000000E+00
  -2.480000      0.0000000E+00
  -2.470000      0.0000000E+00
  -2.460000      0.0000000E+00
  -2.450000      0.0000000E+00
  -2.440000      0.0000000E+00
  -2.430000      0.0000000E+00
  -2.420000      0.0000000E+00
  -2.410000      0.0000000E+00
  -2.400000      0.0000000E+00
  -2.390000      0.0000000E+00
  -2.380000      0.0000000E+00
  -2.370000      0.0000000E+00
  -2.360000      0.0000000E+00
  -2.350000      0.0000000E+00
  -2.340000      0.0000000E+00
  -2.330000      0.0000000E+00
  -2.320000      0.0000000E+00
  -2.310000      0.0000000E+00
  -2.300000      0.0000000E+00
  -2.290000      0.0000000E+00
  -2.280000      0.0000000E+00
  -2.270000      0.0000000E+00
  -2.260000      0.0000000E+00
  -2.250000      0.0000000E+00
  -2.240000      0.0000000E+00
  -2.230000      0.0000000E+00
  -2.220000      0.0000000E+00
  -2.210000      0.0000000E+00
  -2.200000      0.0000000E+00
  -2.190000      0.0000000E+00
  -2.180000      0.0000000E+00
  -2.170000      0.0000000E+00
  -2.160000      0.0000000E+00
  -2.150000      0.0000000E+00
  -2.140000      0.0000000E+00
  -2.130000      0.0000000E+00
  -2.120000      0.0000000E+00
  -2.110000      0.0000000E+00
  -2.100000      0.0000000E+00
  -2.090000      0.0000000E+00
  -2.080000      0.0000000E+00
  -2.070000      0.0000000E+00
  -2.060000      0.0000000E+00
  -2.050000      0.0000000E+00
  -2.040000      0.0000000E+00
  -2.030000      0.0000000E+00
  -2.020000      0.0000000E+00
  -2.010000      0.0000000E+00
  -2.000000      0.0000000E+00
  -1.990000      0.0000000E+00
  -1.980000      0.0000000E+00
  -1.970000      0.0000000E+00
  -1.960000      0.0000000E+00
  -1.950000      0.0000000E+00
  -1.940000      0.0000000E+00
  -1.930000      0.0000000E+00
  -1.920000      0.0000000E+00
  -1.910000      0.0000000E+00
  -1.900000      0.0000000E+00
  -1.890000      0.0000000E+00
  -1.880000      0.0000000E+00
  -1.870000      0.0000000E+00
  -1.860000      0.0000000E+00
  -1.850000      0.0000000E+00
  -1.840000      0.0000000E+00
  -1.830000      0.0000000E+00
  -1.820000      0.0000000E+00
  -1.810000      0.0000000E+00
  -1.800000      0.0000000E+00
  -1.790000      0.0000000E+00
  -1.780000      0.0000000E+00
  -1.770000      0.0000000E+00
  -1.760000      0.0000000E+00
  -1.750000      0.0000000E+00
  -1.740000      0.0000000E+00
  -1.730000      0.0000000E+00
  -1.720000      0.0000000E+00
  -1.710000      0.0000000E+00
  -1.700000      0.0000000E+00
  -1.690000      0.0000000E+00
  -1.680000      0.0000000E+00
  -1.670000      0.0000000E+00
  -1.660000      0.0000000E+00
  -1.650000      0.0000000E+00
  -1.640000      0.0000000E+00
  -1.630000      0.0000000E+00
  -1.620000      0.0000000E+00
  -1.610000      0.0000000E+00
  -1.600000      0.0000000E+00
  -1.590000      0.0000000E+00
  -1.580000      0.0000000E+00
  -1.570000      0.0000000E+00
  -1.560000      0.0000000E+00
  -1.550000      0.0000000E+00
  -1.540000      0.0000000E+00
  -1.530000      0.0000000E+00
  -1.520000      0.0000000E+00
  -1.510000      0.0000000E+00
  -1.500000      0.0000000E+00
  -1.490000      0.0000000E+00
  -1.480000      0.0000000E+00
  -1.470000      0.0000000E+00
  -1.460000      0.0000000E+00
  -1.450000      0.0000000E+00
  -1.440000      0.0000000E+00
  -1.430000      0.0000000E+00
  -1.420000      0.0000000E+00
  -1.410000      0.0000000E+00
  -1.400000      0.0000000E+00
  -1.390000      0.0000000E+00
  -1.380000      0.0000000E+00
  -1.370000      0.0000000E+00
  -1.360000      0.0000000E+00
  -1.350000      0.0000000E+00
  -1.340000      0.0000000E+00
  -1.330000      0.0000000E+00
  -1.320000      0.0000000E+00
  -1.310000      0.0000000E+00
  -1.300000      0.0000000E+00
  -1.290000      0.0000000E+00
  -1.280000      0.0000000E+00
  -1.270000      0.0000000E+00
  -1.260000      0.0000000E+00
  -1.250000      0.0000000E+00
  -1.240000      0.0000000E+00
  -1.230000      0.0000000E+00
  -1.220000      0.0000000E+00
  -1.210000      0.0000000E+00
  -1.200000      0.0000000E+00
  -1.190000      0.0000000E+00
  -1.180000      0.0000000E+00
  -1.170000      0.0000000E+00
  -1.160000      0.0000000E+00
  -1.150000      0.0000000E+00
  -1.140000      0.0000000E+00
  -1.130000      0.0000000E+00
  -1.120000      0.0000000E+00
  -1.110000      0.0000000E+00
  -1.100000      0.0000000E+00
  -1.090000      0.0000000E+00
  -1.080000      0.0000000E+00
  -1.070000      0.0000000E+00
  -1.060000      0.0000000E+00
  -1.050000      0.0000000E+00
  -1.040000      0.0000000E+00
  -1.030000      0.0000000E+00
  -1.020000      0.0000000E+00
  -1.010000      0.0000000E+00
  -1.000000      0.0000000E+00
 -0.9900000      0.0000000E+00
 -0.9800000      0.0000000E+00
 -0.9700000      0.0000000E+00
 -0.9600000      0.0000000E+00
 -0.9500000      0.0000000E+00
 -0.9400000      0.0000000E+00
 -0.9300000      0.0000000E+00
 -0.9200000      0.0000000E+00
 -0.9100000      0.0000000E+00
 -0.9000000      0.0000000E+00
 -0.8900000      0.0000000E+00
 -0.8800000      0.0000000E+00
 -0.8700000      0.0000000E+00
 -0.8600000      0.0000000E+00
 -0.8500000      0.0000000E+00
 -0.8400000      0.0000000E+00
 -0.8300000      0.0000000E+00
 -0.8200000      0.0000000E+00
 -0.8100000      0.0000000E+00
 -0.8000000      0.0000000E+00
 -0.7900000      0.0000000E+00
 -0.7800000      0.0000000E+00
 -0.7700000      0.0000000E+00
 -0.7600000      0.0000000E+00
 -0.7500000      0.0000000E+00
 -0.7400000      0.0000000E+00
 -0.7300000      0.0000000E+00
 -0.7200000      0.0000000E+00
 -0.7100000      0.0000000E+00
 -0.7000000      0.0000000E+00
 -0.6900000      0.0000000E+00
 -0.6800000      0.0000000E+00
 -0.6700000      0.0000000E+00
 -0.6600000      0.0000000E+00
 -0.6500000      0.0000000E+00
 -0.6400000      0.0000000E+00
 -0.6300000      0.0000000E+00
 -0.6200000      0.0000000E+00
 -0.6100000      0.0000000E+00
 -0.6000000      0.0000000E+00
 -0.5900000      0.0000000E+00
 -0.5800000      0.0000000E+00
 -0.5700000      0.0000000E+00
 -0.5600000      0.0000000E+00
 -0.5500000      0.0000000E+00
 -0.5400000      0.0000000E+00
 -0.5300000      0.0000000E+00
 -0.5200000      0.0000000E+00
 -0.5100000      0.0000000E+00
 -0.5000000      0.0000000E+00
 -0.4900000      0.0000000E+00
 -0.4800000      0.0000000E+00
 -0.4700000      0.0000000E+00
 -0.4600000      0.0000000E+00
 -0.4500000      0.0000000E+00
 -0.4400000      0.0000000E+00
 -0.4300000      0.0000000E+00
 -0.4200000      0.0000000E+00
 -0.4100000      0.0000000E+00
 -0.4000000      0.0000000E+00
 -0.3900000      0.0000000E+00
 -0.3800000      0.0000000E+00
 -0.3700000      0.0000000E+00
 -0.3600000      0.0000000E+00
 -0.3500000      0.0000000E+00
 -0.3400000      0.0000000E+00
 -0.3300000      0.0000000E+00
 -0.3200000      0.0000000E+00
 -0.3100000      0.0000000E+00
 -0.3000000      0.0000000E+00
 -0.2900000      0.0000000E+00
 -0.2800000      0.0000000E+00
 -0.2700000      0.0000000E+00
 -0.2600000      0.0000000E+00
 -0.2500000      0.0000000E+00
 -0.2400000      0.0000000E+00
 -0.2300000      0.0000000E+00
 -0.2200000      0.0000000E+00
 -0.2100000      0.0000000E+00
 -0.2000000      0.0000000E+00
 -0.1900000      0.0000000E+00
 -0.1800000      0.0000000E+00
 -0.1700000      0.0000000E+00
 -0.1600000      0.0000000E+00
 -0.1500000      0.0000000E+00
 -0.1400000      0.0000000E+00
 -0.1300000      0.0000000E+00
 -0.1200000      0.0000000E+00
 -0.1100000      0.0000000E+00
 -0.1000000      0.0000000E+00
 -9.0000004E-02  0.0000000E+00
 -7.9999998E-02  0.0000000E+00
 -7.0000000E-02  0.0000000E+00
 -5.9999999E-02  0.0000000E+00
 -5.0000001E-02  0.0000000E+00
 -3.9999999E-02  0.0000000E+00
 -2.9999999E-02  0.0000000E+00
 -2.0000000E-02  0.0000000E+00
 -9.9999998E-03  0.0000000E+00
 -3.4694470E-17  0.0000000E+00
  9.9999998E-03  0.0000000E+00
  2.0000000E-02  0.0000000E+00
  2.9999999E-02  0.0000000E+00
  3.9999999E-02  0.0000000E+00
  5.0000001E-02  0.0000000E+00
  5.9999999E-02  0.0000000E+00
  7.0000000E-02  0.0000000E+00
  7.9999998E-02  0.0000000E+00
  9.0000004E-02  0.0000000E+00
  0.1000000      0.0000000E+00
  0.1100000      0.0000000E+00
  0.1200000      0.0000000E+00
  0.1300000      0.0000000E+00
  0.1400000      0.0000000E+00
  0.1500000      0.0000000E+00
  0.1600000      0.0000000E+00
  0.1700000      0.0000000E+00
  0.1800000      0.0000000E+00
  0.1900000      0.0000000E+00
  0.2000000      0.0000000E+00
  0.2100000      0.0000000E+00
  0.2200000      0.0000000E+00
  0.2300000      0.0000000E+00
  0.2400000      0.0000000E+00
  0.2500000      0.0000000E+00
  0.2600000      0.0000000E+00
  0.2700000      0.0000000E+00
  0.2800000      0.0000000E+00
  0.2900000      0.0000000E+00
  0.3000000      0.0000000E+00
  0.3100000      0.0000000E+00
  0.3200000      0.0000000E+00
  0.3300000      0.0000000E+00
  0.3400000      0.0000000E+00
  0.3500000      0.0000000E+00
  0.3600000      0.0000000E+00
  0.3700000      0.0000000E+00
  0.3800000      0.0000000E+00
  0.3900000      0.0000000E+00
  0.4000000      0.0000000E+00
  0.4100000      0.0000000E+00
  0.4200000      0.0000000E+00
  0.4300000      0.0000000E+00
  0.4400000      0.0000000E+00
  0.4500000      0.0000000E+00
  0.4600000      0.0000000E+00
  0.4700000      0.0000000E+00
  0.4800000      0.0000000E+00
  0.4900000      0.0000000E+00
  0.5000000      0.0000000E+00
  0.5100000      0.0000000E+00
  0.5200000      0.0000000E+00
  0.5300000      0.0000000E+00
  0.5400000      0.0000000E+00
  0.5500000      0.0000000E+00
  0.5600000      0.0000000E+00
  0.5700000      0.0000000E+00
  0.5800000      0.0000000E+00
  0.5900000      0.0000000E+00
  0.6000000      0.0000000E+00
  0.6100000      0.0000000E+00
  0.6200000      0.0000000E+00
  0.6300000      0.0000000E+00
  0.6400000      0.0000000E+00
  0.6500000      0.0000000E+00
  0.6600000      0.0000000E+00
  0.6700000      0.0000000E+00
  0.6800000      0.0000000E+00
  0.6900000      0.0000000E+00
  0.7000000      0.0000000E+00
  0.7100000      0.0000000E+00
  0.7200000      0.0000000E+00
  0.7300000      0.0000000E+00
  0.7400000      0.0000000E+00
  0.7500000      0.0000000E+00
  0.7600000      0.0000000E+00
  0.7700000      0.0000000E+00
  0.7800000      0.0000000E+00
  0.7900000      0.0000000E+00
  0.8000000      0.0000000E+00
  0.8100000      0.0000000E+00
  0.8200000      0.0000000E+00
  0.8300000      0.0000000E+00
  0.8400000      0.0000000E+00
  0.8500000      0.0000000E+00
  0.8600000      0.0000000E+00
  0.8700000      0.0000000E+00
  0.8800000      0.0000000E+00
  0.8900000      0.0000000E+00
  0.9000000      0.0000000E+00
  0.9100000      0.0000000E+00
  0.9200000      0.0000000E+00
  0.9300000      0.0000000E+00
  0.9400000      0.0000000E+00
  0.9500000      0.0000000E+00
  0.9600000      0.0000000E+00
  0.9700000      0.0000000E+00
  0.9800000      0.0000000E+00
  0.9900000      0.0000000E+00
   1.000000      0.0000000E+00
   1.010000      0.0000000E+00
   1.020000      0.0000000E+00
   1.030000      0.0000000E+00
   1.040000      0.0000000E+00
   1.050000      0.0000000E+00
   1.060000      0.0000000E+00
   1.070000      0.0000000E+00
   1.080000      0.0000000E+00
   1.090000      0.0000000E+00
   1.100000      0.0000000E+00
   1.110000      0.0000000E+00
   1.120000      0.0000000E+00
   1.130000      0.0000000E+00
   1.140000      0.0000000E+00
   1.150000      0.0000000E+00
   1.160000      0.0000000E+00
   1.170000      0.0000000E+00
   1.180000      0.0000000E+00
   1.190000      0.0000000E+00
   1.200000      0.0000000E+00
   1.210000      0.0000000E+00
   1.220000      0.0000000E+00
   1.230000      0.0000000E+00
   1.240000      0.0000000E+00
   1.250000      0.0000000E+00
   1.260000      0.0000000E+00
   1.270000      0.0000000E+00
   1.280000      0.0000000E+00
   1.290000      0.0000000E+00
   1.300000      0.0000000E+00
   1.310000      0.0000000E+00
   1.320000      0.0000000E+00
   1.330000      0.0000000E+00
   1.340000      0.0000000E+00
   1.350000      0.0000000E+00
   1.360000      0.0000000E+00
   1.370000      0.0000000E+00
   1.380000      0.0000000E+00
   1.390000      0.0000000E+00
   1.400000      0.0000000E+00
   1.410000      0.0000000E+00
   1.420000      0.0000000E+00
   1.430000      0.0000000E+00
   1.440000      0.0000000E+00
   1.450000      0.0000000E+00
   1.460000      0.0000000E+00
   1.470000      0.0000000E+00
   1.480000      0.0000000E+00
   1.490000      0.0000000E+00
   1.500000      0.0000000E+00
   1.510000      0.0000000E+00
   1.520000      0.0000000E+00
   1.530000      0.0000000E+00
   1.540000      0.0000000E+00
   1.550000      0.0000000E+00
   1.560000      0.0000000E+00
   1.570000      0.0000000E+00
   1.580000      0.0000000E+00
   1.590000      0.0000000E+00
   1.600000      0.0000000E+00
   1.610000      0.0000000E+00
   1.620000      0.0000000E+00
   1.630000      0.0000000E+00
   1.640000      0.0000000E+00
   1.650000      0.0000000E+00
   1.660000      0.0000000E+00
   1.670000      0.0000000E+00
   1.680000      0.0000000E+00
   1.690000      0.0000000E+00
   1.700000      0.0000000E+00
   1.710000      0.0000000E+00
   1.720000      0.0000000E+00
   1.730000      0.0000000E+00
   1.740000      0.0000000E+00
   1.750000      0.0000000E+00
   1.760000      0.0000000E+00
   1.770000      0.0000000E+00
   1.780000      0.0000000E+00
   1.790000      0.0000000E+00
   1.800000     -1.2028272E-38
   1.810000     -1.4330024E-38
   1.820000     -1.6769846E-38
   1.830000     -1.9146199E-38
   1.840000     -2.1455037E-38
   1.850000     -2.3481244E-38
   1.860000     -2.5207190E-38
   1.870000     -2.7026238E-38
   1.880000     -2.8987204E-38
   1.890000     -3.1072986E-38
   1.900000     -3.3634229E-38
   1.910000     -3.6463812E-38
   1.920000     -3.8750109E-38
   1.930000     -4.0440327E-38
   1.940000     -4.1729079E-38
   1.950000     -4.2429308E-38
   1.960000     -4.2611297E-38
   1.970000     -4.2328546E-38
   1.980000     -4.1392563E-38
   1.990000     -3.7226329E-38
   2.000000     -2.9183602E-38
   2.010000     -1.9301620E-38
   2.020000      0.0000000E+00
   2.030000      0.0000000E+00
   2.040000      1.5504723E-38
   2.050000      3.0020690E-38
   2.060000      4.6102403E-38
   2.070000      6.4757808E-38
   2.080000      8.5558654E-38
   2.090000      1.0538648E-37
   2.100000      1.3177115E-37
   2.110000      1.6862105E-37
   2.120000      2.0934897E-37
   2.130000      2.5322667E-37
   2.140000      2.9986357E-37
   2.150000      3.4932949E-37
   2.160000      4.0197755E-37
   2.170000      4.6043919E-37
   2.180000      5.2226452E-37
   2.190000      5.8500803E-37
   2.200000      6.3234510E-37
   2.210000      6.4900020E-37
   2.220000      6.4508181E-37
   2.230000      6.2845196E-37
   2.240000      6.0187473E-37
   2.250000      5.6801564E-37
   2.260000      5.2465718E-37
   2.270000      4.5995548E-37
   2.280000      3.7580684E-37
   2.290000      2.8468125E-37
   2.300000      1.4935487E-37
   2.310000     -3.4273291E-38
   2.320000     -2.3377432E-37
   2.330000     -4.4254481E-37
   2.340000     -6.3812217E-37
   2.350000     -8.3007262E-37
   2.360000     -1.0269122E-36
   2.370000     -1.2145521E-36
   2.380000     -1.3940129E-36
   2.390000     -1.5605758E-36
   2.400000     -1.6954569E-36
   2.410000     -1.7952731E-36
   2.420000     -1.8817925E-36
   2.430000     -1.9639916E-36
   2.440000     -2.0481714E-36
   2.450000     -2.1357476E-36
   2.460000     -2.2330097E-36
   2.470000     -2.3419207E-36
   2.480000     -2.4525263E-36
   2.490000     -2.5718263E-36
   2.500000     -2.6792714E-36
   2.510000     -2.7412535E-36
   2.520000     -2.7770292E-36
   2.530000     -2.8027408E-36
   2.540000     -2.8225130E-36
   2.550000     -2.8560177E-36
   2.560000     -2.9181500E-36
   2.570000     -2.9924889E-36
   2.580000     -2.9921196E-36
   2.590000     -2.8794283E-36
   2.600000     -2.7100793E-36
   2.610000     -2.4733430E-36
   2.620000     -2.1623650E-36
   2.630000     -1.8002656E-36
   2.640000     -1.3422398E-36
   2.650000     -7.7585936E-37
   2.660000     -1.2956974E-37
   2.670000      5.3124270E-37
   2.680000      1.2543035E-36
   2.690000      2.1592878E-36
   2.700000      3.1745160E-36
   2.710000      4.2277332E-36
   2.720000      5.3301426E-36
   2.730000      6.4909573E-36
   2.740000      7.6763985E-36
   2.750000      8.9298189E-36
   2.760000      1.0301474E-35
   2.770000      1.1540813E-35
   2.780000      1.2664840E-35
   2.790000      1.4103411E-35
   2.800000      1.5237932E-35
   2.810000      1.6225480E-35
   2.820000      1.7678053E-35
   2.830000      1.9286218E-35
   2.840000      2.0834504E-35
   2.850000      2.2199267E-35
   2.860000      2.3234693E-35
   2.870000      2.3486489E-35
   2.880000      2.3214940E-35
   2.890000      2.3177791E-35
   2.900000      2.3297179E-35
   2.910000      2.3172084E-35
   2.920000      2.2707602E-35
   2.930000      2.1753097E-35
   2.940000      2.0379944E-35
   2.950000      1.8710060E-35
   2.960000      1.6640504E-35
   2.970000      1.4196491E-35
   2.980000      1.1495869E-35
   2.990000      8.6898255E-36
   3.000000      5.6941649E-36
   3.010000      2.5426978E-36
   3.020000     -9.4863610E-37
   3.030000     -4.8966414E-36
   3.040000     -8.9206935E-36
   3.050000     -1.3044433E-35
   3.060000     -1.6538992E-35
   3.070000     -1.9993335E-35
   3.080000     -2.3991745E-35
   3.090000     -2.7937474E-35
   3.100000     -3.2301520E-35
   3.110000     -3.6980180E-35
   3.120000     -4.2004678E-35
   3.130000     -4.7710951E-35
   3.140000     -5.4054867E-35
   3.150000     -6.1074215E-35
   3.160000     -6.8642625E-35
   3.170000     -7.6522777E-35
   3.180000     -8.4600656E-35
   3.190000     -9.1898535E-35
   3.200000     -9.8382093E-35
   3.210000     -1.0508984E-34
   3.220000     -1.1249745E-34
   3.230000     -1.2021128E-34
   3.240000     -1.2680451E-34
   3.250000     -1.3214267E-34
   3.260000     -1.3677991E-34
   3.270000     -1.4028385E-34
   3.280000     -1.4224828E-34
   3.290000     -1.4174425E-34
   3.300000     -1.3974928E-34
   3.310000     -1.3698890E-34
   3.320000     -1.3277632E-34
   3.330000     -1.2860816E-34
   3.340000     -1.2388727E-34
   3.350000     -1.1696277E-34
   3.360000     -1.0814081E-34
   3.370000     -9.8132415E-35
   3.380000     -8.8783349E-35
   3.390000     -7.9958985E-35
   3.400000     -7.0281665E-35
   3.410000     -5.9244841E-35
   3.420000     -4.6529246E-35
   3.430000     -3.3308557E-35
   3.440000     -1.9478068E-35
   3.450000     -3.7635596E-36
   3.460000      1.4477118E-35
   3.470000      3.5080930E-35
   3.480000      5.7501608E-35
   3.490000      8.1445733E-35
   3.500000      1.0812735E-34
   3.510000      1.3993509E-34
   3.520000      1.7718051E-34
   3.530000      2.1526945E-34
   3.540000      2.5282223E-34
   3.550000      2.9244102E-34
   3.560000      3.3466790E-34
   3.570000      3.7747959E-34
   3.580000      4.2167356E-34
   3.590000      4.6789653E-34
   3.600000      5.1307009E-34
   3.610000      5.5621670E-34
   3.620000      6.0182225E-34
   3.630000      6.4886981E-34
   3.640000      6.9302078E-34
   3.650000      7.3169183E-34
   3.660000      7.6676275E-34
   3.670000      8.0476639E-34
   3.680000      8.4047938E-34
   3.690000      8.6929717E-34
   3.700000      8.9430141E-34
   3.710000      9.1663139E-34
   3.720000      9.3368497E-34
   3.730000      9.4259751E-34
   3.740000      9.4329858E-34
   3.750000      9.3756309E-34
   3.760000      9.2598025E-34
   3.770000      9.0880508E-34
   3.780000      8.8831777E-34
   3.790000      8.6279540E-34
   3.800000      8.3028252E-34
   3.810000      7.9137613E-34
   3.820000      7.4910673E-34
   3.830000      7.0130140E-34
   3.840000      6.4385563E-34
   3.850000      5.8028517E-34
   3.860000      5.1068470E-34
   3.870000      4.2579826E-34
   3.880000      3.2571286E-34
   3.890000      2.1865600E-34
   3.900000      1.0289592E-34
   3.910000     -2.5812521E-35
   3.920000     -1.6433108E-34
   3.930000     -3.0958926E-34
   3.940000     -4.6603328E-34
   3.950000     -6.3680372E-34
   3.960000     -8.1842022E-34
   3.970000     -1.0082484E-33
   3.980000     -1.2084849E-33
   3.990000     -1.4199937E-33
   4.000000     -1.6427212E-33
   4.010000     -1.8759189E-33
   4.020000     -2.1197809E-33
   4.030000     -2.3726329E-33
   4.040000     -2.6339498E-33
   4.050000     -2.9017515E-33
   4.060000     -3.1729564E-33
   4.070000     -3.4468606E-33
   4.080000     -3.7210994E-33
   4.090000     -3.9943456E-33
   4.100000     -4.2643111E-33
   4.110000     -4.5327584E-33
   4.120000     -4.7964600E-33
   4.130000     -5.0470375E-33
   4.140000     -5.2857018E-33
   4.150000     -5.5110830E-33
   4.160000     -5.7226782E-33
   4.170000     -5.9191787E-33
   4.180000     -6.0952857E-33
   4.190000     -6.2489008E-33
   4.200000     -6.3772060E-33
   4.210000     -6.4789803E-33
   4.220000     -6.5537101E-33
   4.230000     -6.5968838E-33
   4.240000     -6.6059021E-33
   4.250000     -6.5768975E-33
   4.260000     -6.5067447E-33
   4.270000     -6.3947818E-33
   4.280000     -6.2371040E-33
   4.290000     -6.0313359E-33
   4.300000     -5.7738424E-33
   4.310000     -5.4611440E-33
   4.320000     -5.0909753E-33
   4.330000     -4.6596644E-33
   4.340000     -4.1634761E-33
   4.350000     -3.6008603E-33
   4.360000     -2.9701012E-33
   4.370000     -2.2671420E-33
   4.380000     -1.4891308E-33
   4.390000     -6.3334175E-34
   4.400000      3.0076660E-34
   4.410000      1.3138537E-33
   4.420000      2.4087455E-33
   4.430000      3.5868285E-33
   4.440000      4.8468923E-33
   4.450000      6.1866584E-33
   4.460000      7.6043053E-33
   4.470000      9.1023707E-33
   4.480000      1.0682408E-32
   4.490000      1.2339144E-32
   4.500000      1.4068629E-32
   4.510000      1.5867716E-32
   4.520000      1.7732052E-32
   4.530000      1.9656586E-32
   4.540000      2.1636074E-32
   4.550000      2.3664159E-32
   4.560000      2.5733520E-32
   4.570000      2.7836188E-32
   4.580000      2.9964956E-32
   4.590000      3.2108666E-32
   4.600000      3.4255698E-32
   4.610000      3.6396276E-32
   4.620000      3.8518761E-32
   4.630000      4.0612486E-32
   4.640000      4.2662360E-32
   4.650000      4.4652763E-32
   4.660000      4.6570042E-32
   4.670000      4.8398285E-32
   4.680000      5.0120846E-32
   4.690000      5.1720012E-32
   4.700000      5.3177325E-32
   4.710000      5.4473161E-32
   4.720000      5.5586947E-32
   4.730000      5.6497591E-32
   4.740000      5.7182840E-32
   4.750000      5.7619941E-32
   4.760000      5.7785292E-32
   4.770000      5.7654342E-32
   4.780000      5.7202094E-32
   4.790000      5.6403011E-32
   4.800000      5.5231113E-32
   4.810000      5.3660600E-32
   4.820000      5.1664475E-32
   4.830000      4.9215639E-32
   4.840000      4.6288076E-32
   4.850000      4.2855456E-32
   4.860000      3.8891748E-32
   4.870000      3.4371414E-32
   4.880000      2.9269454E-32
   4.890000      2.3561913E-32
   4.900000      1.7225801E-32
   4.910000      1.0239055E-32
   4.920000      2.5811071E-33
   4.930000     -5.7671002E-33
   4.940000     -1.4822658E-32
   4.950000     -2.4600738E-32
   4.960000     -3.5114358E-32
   4.970000     -4.6373987E-32
   4.980000     -5.8387474E-32
   4.990000     -7.1159685E-32
   5.000000     -8.4692252E-32
   5.010000     -9.8983442E-32
   5.020000     -1.1402789E-31
   5.030000     -1.2981620E-31
   5.040000     -1.4633492E-31
   5.050000     -1.6356598E-31
   5.060000     -1.8148655E-31
   5.070000     -2.0006890E-31
   5.080000     -2.1927987E-31
   5.090000     -2.3908067E-31
   5.100000     -2.5942650E-31
   5.110000     -2.8026630E-31
   5.120000     -3.0154237E-31
   5.130000     -3.2318999E-31
   5.140000     -3.4513741E-31
   5.150000     -3.6730526E-31
   5.160000     -3.8960641E-31
   5.170000     -4.1194574E-31
   5.180000     -4.3421981E-31
   5.190000     -4.5631670E-31
   5.200000     -4.7811596E-31
   5.210000     -4.9948829E-31
   5.220000     -5.2029538E-31
   5.230000     -5.4038999E-31
   5.240000     -5.5961571E-31
   5.250000     -5.7780710E-31
   5.260000     -5.9478947E-31
   5.270000     -6.1037897E-31
   5.280000     -6.2438287E-31
   5.290000     -6.3659936E-31
   5.300000     -6.4681788E-31
   5.310000     -6.5481947E-31
   5.320000     -6.6037665E-31
   5.330000     -6.6325416E-31
   5.340000     -6.6320930E-31
   5.350000     -6.5999212E-31
   5.360000     -6.5334606E-31
   5.370000     -6.4300872E-31
   5.380000     -6.2871240E-31
   5.390000     -6.1018492E-31
   5.400000     -5.8715026E-31
   5.410000     -5.5932974E-31
   5.420000     -5.2644261E-31
   5.430000     -4.8820749E-31
   5.440000     -4.4434321E-31
   5.450000     -3.9457020E-31
   5.460000     -3.3861196E-31
   5.470000     -2.7619639E-31
   5.480000     -2.0705694E-31
   5.490000     -1.3093491E-31
   5.500000     -4.7580582E-32
   5.510000      4.3244265E-32
   5.520000      1.4176458E-31
   5.530000      2.4819040E-31
   5.540000      3.6271432E-31
   5.550000      4.8550898E-31
   5.560000      6.1672485E-31
   5.570000      7.5648807E-31
   5.580000      9.0489753E-31
   5.590000      1.0620221E-30
   5.600000      1.2278983E-30
   5.610000      1.4025269E-30
   5.620000      1.5858705E-30
   5.630000      1.7778509E-30
   5.640000      1.9783450E-30
   5.650000      2.1871823E-30
   5.660000      2.4041427E-30
   5.670000      2.6289521E-30
   5.680000      2.8612796E-30
   5.690000      3.1007348E-30
   5.700000      3.3468638E-30
   5.710000      3.5991470E-30
   5.720000      3.8569944E-30
   5.730000      4.1197443E-30
   5.740000      4.3866590E-30
   5.750000      4.6569231E-30
   5.760000      4.9296385E-30
   5.770000      5.2038247E-30
   5.780000      5.4784123E-30
   5.790000      5.7522449E-30
   5.800000      6.0240730E-30
   5.810000      6.2925544E-30
   5.820000      6.5562507E-30
   5.830000      6.8136279E-30
   5.840000      7.0630532E-30
   5.850000      7.3027931E-30
   5.860000      7.5310150E-30
   5.870000      7.7457878E-30
   5.880000      7.9450764E-30
   5.890000      8.1267488E-30
   5.900000      8.2885728E-30
   5.910000      8.4282178E-30
   5.920000      8.5432605E-30
   5.930000      8.6311822E-30
   5.940000      8.6893761E-30
   5.950000      8.7151482E-30
   5.960000      8.7057224E-30
   5.970000      8.6582460E-30
   5.980000      8.5697977E-30
   5.990000      8.4373885E-30
   6.000000      8.2579761E-30
   6.010000      8.0284684E-30
   6.020000      7.7457306E-30
   6.030000      7.4066030E-30
   6.040000      7.0079016E-30
   6.050000      6.5464367E-30
   6.060000      6.0190235E-30
   6.070000      5.4224953E-30
   6.080000      4.7537180E-30
   6.090000      4.0096052E-30
   6.100000      3.1871338E-30
   6.110000      2.2833637E-30
   6.120000      1.2954548E-30
   6.130000      2.2068658E-31
   6.140000     -9.4352277E-31
   6.150000     -2.1995922E-30
   6.160000     -3.5497582E-30
   6.170000     -4.9960507E-30
   6.180000     -6.5402647E-30
   6.190000     -8.1839436E-30
   6.200000     -9.9283472E-30
   6.210000     -1.1774422E-29
   6.220000     -1.3722780E-29
   6.230000     -1.5773669E-29
   6.240000     -1.7926937E-29
   6.250000     -2.0182009E-29
   6.260000     -2.2537860E-29
   6.270000     -2.4992969E-29
   6.280000     -2.7545306E-29
   6.290000     -3.0192283E-29
   6.300000     -3.2930739E-29
   6.310000     -3.5756897E-29
   6.320000     -3.8666339E-29
   6.330000     -4.1653962E-29
   6.340000     -4.4713966E-29
   6.350000     -4.7839805E-29
   6.360000     -5.1024168E-29
   6.370000     -5.4258941E-29
   6.380000     -5.7535189E-29
   6.390000     -6.0843124E-29
   6.400000     -6.4172064E-29
   6.410000     -6.7510441E-29
   6.420000     -7.0845736E-29
   6.430000     -7.4164511E-29
   6.440000     -7.7452332E-29
   6.450000     -8.0693798E-29
   6.460000     -8.3872510E-29
   6.470000     -8.6971066E-29
   6.480000     -8.9971033E-29
   6.490000     -9.2852971E-29
   6.500000     -9.5596422E-29
   6.510000     -9.8179906E-29
   6.520000     -1.0058093E-28
   6.530000     -1.0277602E-28
   6.540000     -1.0474070E-28
   6.550000     -1.0644957E-28
   6.560000     -1.0787625E-28
   6.570000     -1.0899352E-28
   6.580000     -1.0977324E-28
   6.590000     -1.1018651E-28
   6.600000     -1.1020365E-28
   6.610000     -1.0979423E-28
   6.620000     -1.0892726E-28
   6.630000     -1.0757114E-28
   6.640000     -1.0569377E-28
   6.650000     -1.0326265E-28
   6.660000     -1.0024498E-28
   6.670000     -9.6607764E-29
   6.680000     -9.2317887E-29
   6.690000     -8.7342289E-29
   6.700000     -8.1648079E-29
   6.710000     -7.5202593E-29
   6.720000     -6.7973639E-29
   6.730000     -5.9929601E-29
   6.740000     -5.1039617E-29
   6.750000     -4.1273759E-29
   6.760000     -3.0603192E-29
   6.770000     -1.9000369E-29
   6.780000     -6.4392317E-30
   6.790000      7.1046186E-30
   6.800000      2.1653659E-29
   6.810000      3.7228208E-29
   6.820000      5.3846233E-29
   6.830000      7.1523128E-29
   6.840000      9.0271430E-29
   6.850000      1.1010064E-28
   6.860000      1.3101686E-28
   6.870000      1.5302265E-28
   6.880000      1.7611664E-28
   6.890000      2.0029338E-28
   6.900000      2.2554294E-28
   6.910000      2.5185071E-28
   6.920000      2.7919708E-28
   6.930000      3.0755727E-28
   6.940000      3.3690088E-28
   6.950000      3.6719178E-28
   6.960000      3.9838771E-28
   6.970000      4.3044005E-28
   6.980000      4.6329352E-28
   6.990000      4.9688603E-28
   7.000000      5.3114817E-28
   7.010000      5.6600332E-28
   7.020000      6.0136705E-28
   7.030000      6.3714722E-28
   7.040000      6.7324348E-28
   7.050000      7.0954731E-28
   7.060000      7.4594160E-28