  -2.600000      0.0000000E+00
  -2.590000      0.0000000E+00
  -2.580000      0.0000000E+00
  -2.570000      0.0000000E+00
  -2.560000      0.0000000E+00
  -2.550000      0.0000000E+00
  -2.540000      0.0000000E+00
  -2.530000      0.0000000E+00
  -2.520000      0.0000000E+00
  -2.510000      0.0000000E+00
  -2.500000      0.0000000E+00
  -2.490000      0.0000000E+00
  -2.480000      0.0000000E+00
  -2.470000      0.0000000E+00
  -2.460000      0.0000000E+00
  -2.450000      0.0000000E+00
  -2.440000      0.0000000E+00
  -2.430000      0.0000000E+00
  -2.420000      0.0000000E+00
  -2.410000      0.0000000E+00
  -2.400000      0.0000000E+00
  -2.390000      0.0000000E+00
  -2.380000      0.0000000E+00
  -2.370000      0.0000000E+00
  -2.360000      0.0000000E+00
  -2.350000      0.0000000E+00
  -2.340000      0.0000000E+00
  -2.330000      0.0000000E+00
  -2.320000      0.0000000E+00
  -2.310000      0.0000000E+00
  -2.300000      0.0000000E+00
  -2.290000      0.0000000E+00
  -2.280000      0.0000000E+00
  -2.270000      0.0000000E+00
  -2.260000      0.0000000E+00
  -2.250000      0.0000000E+00
  -2.240000      0.0000000E+00
  -2.230000      0.0000000E+00
  -2.220000      0.0000000E+00
  -2.210000      0.0000000E+00
  -2.200000      0.0000000E+00
  -2.190000      0.0000000E+00
  -2.180000      0.0000000E+00
  -2.170000      0.0000000E+00
  -2.160000      0.0000000E+00
  -2.150000      0.0000000E+00
  -2.140000      0.0000000E+00
  -2.130000      0.0000000E+00
  -2.120000      0.0000000E+00
  -2.110000      0.0000000E+00
  -2.100000      0.0000000E+00
  -2.090000      0.0000000E+00
  -2.080000      0.0000000E+00
  -2.070000      0.0000000E+00
  -2.060000      0.0000000E+00
  -2.050000      0.0000000E+00
  -2.040000      0.0000000E+00
  -2.030000      0.0000000E+00
  -2.020000      0.0000000E+00
  -2.010000      0.0000000E+00
  -2.000000      0.0000000E+00
  -1.990000      0.0000000E+00
  -1.980000      0.0000000E+00
  -1.970000      0.0000000E+00
  -1.960000      0.0000000E+00
  -1.950000      0.0000000E+00
  -1.940000      0.0000000E+00
  -1.930000      0.0000000E+00
  -1.920000      0.0000000E+00
  -1.910000      0.0000000E+00
  -1.900000      0.0000000E+00
  -1.890000      0.0000000E+00
  -1.880000      0.0000000E+00
  -1.870000      0.0000000E+00
  -1.860000      0.0000000E+00
  -1.850000      0.0000000E+00
  -1.840000      0.0000000E+00
  -1.830000      0.0000000E+00
  -1.820000      0.0000000E+00
  -1.810000      0.0000000E+00
  -1.800000      0.0000000E+00
  -1.790000      0.0000000E+00
  -1.780000      0.0000000E+00
  -1.770000      0.0000000E+00
  -1.760000      0.0000000E+00
  -1.750000      0.0000000E+00
  -1.740000      0.0000000E+00
  -1.730000      0.0000000E+00
  -1.720000      0.0000000E+00
  -1.710000      0.0000000E+00
  -1.700000      0.0000000E+00
  -1.690000      0.0000000E+00
  -1.680000      0.0000000E+00
  -1.670000      0.0000000E+00
  -1.660000      0.0000000E+00
  -1.650000      0.0000000E+00
  -1.640000      0.0000000E+00
  -1.630000      0.0000000E+00
  -1.620000      0.0000000E+00
  -1.610000      0.0000000E+00
  -1.600000      0.0000000E+00
  -1.590000      0.0000000E+00
  -1.580000      0.0000000E+00
  -1.570000      0.0000000E+00
  -1.560000      0.0000000E+00
  -1.550000      0.0000000E+00
  -1.540000      0.0000000E+00
  -1.530000      0.0000000E+00
  -1.520000      0.0000000E+00
  -1.510000      0.0000000E+00
  -1.500000      0.0000000E+00
  -1.490000      0.0000000E+00
  -1.480000      0.0000000E+00
  -1.470000      0.0000000E+00
  -1.460000      0.0000000E+00
  -1.450000      0.0000000E+00
  -1.440000      0.0000000E+00
  -1.430000      0.0000000E+00
  -1.420000      0.0000000E+00
  -1.410000      0.0000000E+00
  -1.400000      0.0000000E+00
  -1.390000      0.0000000E+00
  -1.380000      0.0000000E+00
  -1.370000      0.0000000E+00
  -1.360000      0.0000000E+00
  -1.350000      0.0000000E+00
  -1.340000      0.0000000E+00
  -1.330000      0.0000000E+00
  -1.320000      0.0000000E+00
  -1.310000      0.0000000E+00
  -1.300000      0.0000000E+00
  -1.290000      0.0000000E+00
  -1.280000      0.0000000E+00
  -1.270000      0.0000000E+00
  -1.260000      0.0000000E+00
  -1.250000      0.0000000E+00
  -1.240000      0.0000000E+00
  -1.230000      0.0000000E+00
  -1.220000      0.0000000E+00
  -1.210000      0.0000000E+00
  -1.200000      0.0000000E+00
  -1.190000      0.0000000E+00
  -1.180000      0.0000000E+00
  -1.170000      0.0000000E+00
  -1.160000      0.0000000E+00
  -1.150000      0.0000000E+00
  -1.140000      0.0000000E+00
  -1.130000      0.0000000E+00
  -1.120000      0.0000000E+00
  -1.110000      0.0000000E+00
  -1.100000      0.0000000E+00
  -1.090000      0.0000000E+00
  -1.080000      0.0000000E+00
  -1.070000      0.0000000E+00
  -1.060000      0.0000000E+00
  -1.050000      0.0000000E+00
  -1.040000      0.0000000E+00
  -1.030000      0.0000000E+00
  -1.020000      0.0000000E+00
  -1.010000      0.0000000E+00
  -1.000000      0.0000000E+00
 -0.9900000      0.0000000E+00
 -0.9800000      0.0000000E+00
 -0.9700000      0.0000000E+00
 -0.9600000      0.0000000E+00
 -0.9500000      0.0000000E+00
 -0.9400000      0.0000000E+00
 -0.9300000      0.0000000E+00
 -0.9200000      0.0000000E+00
 -0.9100000      0.0000000E+00
 -0.9000000      0.0000000E+00
 -0.8900000      0.0000000E+00
 -0.8800000      0.0000000E+00
 -0.8700000      0.0000000E+00
 -0.8600000      0.0000000E+00
 -0.8500000      0.0000000E+00
 -0.8400000      0.0000000E+00
 -0.8300000      0.0000000E+00
 -0.8200000      0.0000000E+00
 -0.8100000      0.0000000E+00
 -0.8000000      0.0000000E+00
 -0.7900000      0.0000000E+00
 -0.7800000      0.0000000E+00
 -0.7700000      0.0000000E+00
 -0.7600000      0.0000000E+00
 -0.7500000      0.0000000E+00
 -0.7400000      0.0000000E+00
 -0.7300000      0.0000000E+00
 -0.7200000      0.0000000E+00
 -0.7100000      0.0000000E+00
 -0.7000000      0.0000000E+00
 -0.6900000      0.0000000E+00
 -0.6800000      0.0000000E+00
 -0.6700000      0.0000000E+00
 -0.6600000      0.0000000E+00
 -0.6500000      0.0000000E+00
 -0.6400000      0.0000000E+00
 -0.6300000      0.0000000E+00
 -0.6200000      0.0000000E+00
 -0.6100000      0.0000000E+00
 -0.6000000      0.0000000E+00
 -0.5900000      0.0000000E+00
 -0.5800000      0.0000000E+00
 -0.5700000      0.0000000E+00
 -0.5600000      0.0000000E+00
 -0.5500000      0.0000000E+00
 -0.5400000      0.0000000E+00
 -0.5300000      0.0000000E+00
 -0.5200000      0.0000000E+00
 -0.5100000      0.0000000E+00
 -0.5000000      0.0000000E+00
 -0.4900000      0.0000000E+00
 -0.4800000      0.0000000E+00
 -0.4700000      0.0000000E+00
 -0.4600000      0.0000000E+00
 -0.4500000      0.0000000E+00
 -0.4400000      0.0000000E+00
 -0.4300000      0.0000000E+00
 -0.4200000      0.0000000E+00
 -0.4100000      0.0000000E+00
 -0.4000000      0.0000000E+00
 -0.3900000      0.0000000E+00
 -0.3800000      0.0000000E+00
 -0.3700000      0.0000000E+00
 -0.3600000      0.0000000E+00
 -0.3500000      0.0000000E+00
 -0.3400000      0.0000000E+00
 -0.3300000      0.0000000E+00
 -0.3200000      0.0000000E+00
 -0.3100000      0.0000000E+00
 -0.3000000      0.0000000E+00
 -0.2900000      0.0000000E+00
 -0.2800000      0.0000000E+00
 -0.2700000      0.0000000E+00
 -0.2600000      0.0000000E+00
 -0.2500000      0.0000000E+00
 -0.2400000      0.0000000E+00
 -0.2300000      0.0000000E+00
 -0.2200000      0.0000000E+00
 -0.2100000      0.0000000E+00
 -0.2000000      0.0000000E+00
 -0.1900000      0.0000000E+00
 -0.1800000      0.0000000E+00
 -0.1700000      0.0000000E+00
 -0.1600000      0.0000000E+00
 -0.1500000      0.0000000E+00
 -0.1400000      0.0000000E+00
 -0.1300000      0.0000000E+00
 -0.1200000      0.0000000E+00
 -0.1100000      0.0000000E+00
 -0.1000000      0.0000000E+00
 -9.0000004E-02  0.0000000E+00
 -7.9999998E-02  0.0000000E+00
 -7.0000000E-02  0.0000000E+00
 -5.9999999E-02  0.0000000E+00
 -5.0000001E-02  0.0000000E+00
 -3.9999999E-02  0.0000000E+00
 -2.9999999E-02  0.0000000E+00
 -2.0000000E-02  0.0000000E+00
 -9.9999998E-03  0.0000000E+00
 -3.4694470E-17  0.0000000E+00
  9.9999998E-03  0.0000000E+00
  2.0000000E-02  0.0000000E+00
  2.9999999E-02  0.0000000E+00
  3.9999999E-02  0.0000000E+00
  5.0000001E-02  0.0000000E+00
  5.9999999E-02  0.0000000E+00
  7.0000000E-02  0.0000000E+00
  7.9999998E-02  0.0000000E+00
  9.0000004E-02  0.0000000E+00
  0.1000000      0.0000000E+00
  0.1100000      0.0000000E+00
  0.1200000      0.0000000E+00
  0.1300000      0.0000000E+00
  0.1400000      0.0000000E+00
  0.1500000      0.0000000E+00
  0.1600000      0.0000000E+00
  0.1700000      0.0000000E+00
  0.1800000      0.0000000E+00
  0.1900000      0.0000000E+00
  0.2000000      0.0000000E+00
  0.2100000      0.0000000E+00
  0.2200000      0.0000000E+00
  0.2300000      0.0000000E+00
  0.2400000      0.0000000E+00
  0.2500000      0.0000000E+00
  0.2600000      0.0000000E+00
  0.2700000      0.0000000E+00
  0.2800000      0.0000000E+00
  0.2900000      0.0000000E+00
  0.3000000      0.0000000E+00
  0.3100000      0.0000000E+00
  0.3200000      0.0000000E+00
  0.3300000      0.0000000E+00
  0.3400000      0.0000000E+00
  0.3500000      0.0000000E+00
  0.3600000      0.0000000E+00
  0.3700000      0.0000000E+00
  0.3800000      0.0000000E+00
  0.3900000      0.0000000E+00
  0.4000000      0.0000000E+00
  0.4100000      0.0000000E+00
  0.4200000      0.0000000E+00
  0.4300000      0.0000000E+00
  0.4400000      0.0000000E+00
  0.4500000      0.0000000E+00
  0.4600000      0.0000000E+00
  0.4700000      0.0000000E+00
  0.4800000      0.0000000E+00
  0.4900000      0.0000000E+00
  0.5000000      0.0000000E+00
  0.5100000      0.0000000E+00
  0.5200000      0.0000000E+00
  0.5300000      0.0000000E+00
  0.5400000      0.0000000E+00
  0.5500000      0.0000000E+00
  0.5600000      0.0000000E+00
  0.5700000      0.0000000E+00
  0.5800000      0.0000000E+00
  0.5900000      0.0000000E+00
  0.6000000      0.0000000E+00
  0.6100000      0.0000000E+00
  0.6200000      0.0000000E+00
  0.6300000      0.0000000E+00
  0.6400000      0.0000000E+00
  0.6500000      0.0000000E+00
  0.6600000      0.0000000E+00
  0.6700000      0.0000000E+00
  0.6800000      0.0000000E+00
  0.6900000      0.0000000E+00
  0.7000000      0.0000000E+00
  0.7100000      0.0000000E+00
  0.7200000      0.0000000E+00
  0.7300000      0.0000000E+00
  0.7400000      0.0000000E+00
  0.7500000      0.0000000E+00
  0.7600000      0.0000000E+00
  0.7700000      0.0000000E+00
  0.7800000      0.0000000E+00
  0.7900000      0.0000000E+00
  0.8000000      0.0000000E+00
  0.8100000      0.0000000E+00
  0.8200000      0.0000000E+00
  0.8300000      0.0000000E+00
  0.8400000      0.0000000E+00
  0.8500000      0.0000000E+00
  0.8600000      0.0000000E+00
  0.8700000      0.0000000E+00
  0.8800000      0.0000000E+00
  0.8900000      0.0000000E+00
  0.9000000      0.0000000E+00
  0.9100000      0.0000000E+00
  0.9200000      0.0000000E+00
  0.9300000      0.0000000E+00
  0.9400000      0.0000000E+00
  0.9500000      0.0000000E+00
  0.9600000      0.0000000E+00
  0.9700000      0.0000000E+00
  0.9800000      0.0000000E+00
  0.9900000      0.0000000E+00
   1.000000      0.0000000E+00
   1.010000      0.0000000E+00
   1.020000      0.0000000E+00
   1.030000      0.0000000E+00
   1.040000      0.0000000E+00
   1.050000      0.0000000E+00
   1.060000      0.0000000E+00
   1.070000      0.0000000E+00
   1.080000      0.0000000E+00
   1.090000      0.0000000E+00
   1.100000      0.0000000E+00
   1.110000      0.0000000E+00
   1.120000      0.0000000E+00
   1.130000      0.0000000E+00
   1.140000      0.0000000E+00
   1.150000      0.0000000E+00
   1.160000      0.0000000E+00
   1.170000      0.0000000E+00
   1.180000      0.0000000E+00
   1.190000      0.0000000E+00
   1.200000      0.0000000E+00
   1.210000      0.0000000E+00
   1.220000      0.0000000E+00
   1.230000      0.0000000E+00
   1.240000      0.0000000E+00
   1.250000      0.0000000E+00
   1.260000      0.0000000E+00
   1.270000      0.0000000E+00
   1.280000      0.0000000E+00
   1.290000      0.0000000E+00
   1.300000      0.0000000E+00
   1.310000      0.0000000E+00
   1.320000      0.0000000E+00
   1.330000      0.0000000E+00
   1.340000      0.0000000E+00
   1.350000      0.0000000E+00
   1.360000      0.0000000E+00
   1.370000      0.0000000E+00
   1.380000      0.0000000E+00
   1.390000      0.0000000E+00
   1.400000      0.0000000E+00
   1.410000      0.0000000E+00
   1.420000      0.0000000E+00
   1.430000      0.0000000E+00
   1.440000      0.0000000E+00
   1.450000      0.0000000E+00
   1.460000      0.0000000E+00
   1.470000      0.0000000E+00
   1.480000      0.0000000E+00
   1.490000      0.0000000E+00
   1.500000      0.0000000E+00
   1.510000      0.0000000E+00
   1.520000      0.0000000E+00
   1.530000      0.0000000E+00
   1.540000      0.0000000E+00
   1.550000      0.0000000E+00
   1.560000      0.0000000E+00
   1.570000      0.0000000E+00
   1.580000      0.0000000E+00
   1.590000      0.0000000E+00
   1.600000      0.0000000E+00
   1.610000      0.0000000E+00
   1.620000      0.0000000E+00
   1.630000      0.0000000E+00
   1.640000      0.0000000E+00
   1.650000      0.0000000E+00
   1.660000      0.0000000E+00
   1.670000      0.0000000E+00
   1.680000      0.0000000E+00
   1.690000      0.0000000E+00
   1.700000      0.0000000E+00
   1.710000      0.0000000E+00
   1.720000      0.0000000E+00
   1.730000      0.0000000E+00
   1.740000      0.0000000E+00
   1.750000      0.0000000E+00
   1.760000      0.0000000E+00
   1.770000      0.0000000E+00
   1.780000      0.0000000E+00
   1.790000      0.0000000E+00
   1.800000      0.0000000E+00
   1.810000      0.0000000E+00
   1.820000      0.0000000E+00
   1.830000      0.0000000E+00
   1.840000      0.0000000E+00
   1.850000      0.0000000E+00
   1.860000      0.0000000E+00
   1.870000      0.0000000E+00
   1.880000      0.0000000E+00
   1.890000      0.0000000E+00
   1.900000      0.0000000E+00
   1.910000      0.0000000E+00
   1.920000      0.0000000E+00
   1.930000      0.0000000E+00
   1.940000      0.0000000E+00
   1.950000      0.0000000E+00
   1.960000      0.0000000E+00
   1.970000      0.0000000E+00
   1.980000      0.0000000E+00
   1.990000      0.0000000E+00
   2.000000      0.0000000E+00
   2.010000      0.0000000E+00
   2.020000      0.0000000E+00
   2.030000      0.0000000E+00
   2.040000      0.0000000E+00
   2.050000      0.0000000E+00
   2.060000      0.0000000E+00
   2.070000      0.0000000E+00
   2.080000      0.0000000E+00
   2.090000      0.0000000E+00
   2.100000      0.0000000E+00
   2.110000      0.0000000E+00
   2.120000      0.0000000E+00
   2.130000      0.0000000E+00
   2.140000      0.0000000E+00
   2.150000      0.0000000E+00
   2.160000      0.0000000E+00
   2.170000      0.0000000E+00
   2.180000      0.0000000E+00
   2.190000      0.0000000E+00
   2.200000      0.0000000E+00
   2.210000      0.0000000E+00
   2.220000      0.0000000E+00
   2.230000      0.0000000E+00
   2.240000      0.0000000E+00
   2.250000      0.0000000E+00
   2.260000      0.0000000E+00
   2.270000      0.0000000E+00
   2.280000      0.0000000E+00
   2.290000      0.0000000E+00
   2.300000      0.0000000E+00
   2.310000      0.0000000E+00
   2.320000      0.0000000E+00
   2.330000      0.0000000E+00
   2.340000      0.0000000E+00
   2.350000      0.0000000E+00
   2.360000      0.0000000E+00
   2.370000      0.0000000E+00
   2.380000      0.0000000E+00
   2.390000      0.0000000E+00
   2.400000      0.0000000E+00
   2.410000      0.0000000E+00
   2.420000      0.0000000E+00
   2.430000      0.0000000E+00
   2.440000      0.0000000E+00
   2.450000      0.0000000E+00
   2.460000      0.0000000E+00
   2.470000      0.0000000E+00
   2.480000      0.0000000E+00
   2.490000      0.0000000E+00
   2.500000      0.0000000E+00
   2.510000      0.0000000E+00
   2.520000      0.0000000E+00
   2.530000      0.0000000E+00
   2.540000      0.0000000E+00
   2.550000      0.0000000E+00
   2.560000      0.0000000E+00
   2.570000      0.0000000E+00
   2.580000      0.0000000E+00
   2.590000      0.0000000E+00
   2.600000      0.0000000E+00
   2.610000      0.0000000E+00
   2.620000      0.0000000E+00
   2.630000      0.0000000E+00
   2.640000      0.0000000E+00
   2.650000      0.0000000E+00
   2.660000      0.0000000E+00
   2.670000      0.0000000E+00
   2.680000      0.0000000E+00
   2.690000      0.0000000E+00
   2.700000      0.0000000E+00
   2.710000      0.0000000E+00
   2.720000      0.0000000E+00
   2.730000      0.0000000E+00
   2.740000      0.0000000E+00
   2.750000      0.0000000E+00
   2.760000      0.0000000E+00
   2.770000      0.0000000E+00
   2.780000      0.0000000E+00
   2.790000      0.0000000E+00
   2.800000      0.0000000E+00
   2.810000      0.0000000E+00
   2.820000      0.0000000E+00
   2.830000      0.0000000E+00
   2.840000      0.0000000E+00
   2.850000      0.0000000E+00
   2.860000      0.0000000E+00
   2.870000      0.0000000E+00
   2.880000      0.0000000E+00
   2.890000      0.0000000E+00
   2.900000      0.0000000E+00
   2.910000      0.0000000E+00
   2.920000      0.0000000E+00
   2.930000      0.0000000E+00
   2.940000      0.0000000E+00
   2.950000      0.0000000E+00
   2.960000      0.0000000E+00
   2.970000      0.0000000E+00
   2.980000      0.0000000E+00
   2.990000      0.0000000E+00
   3.000000      0.0000000E+00
   3.010000      0.0000000E+00
   3.020000      0.0000000E+00
   3.030000      0.0000000E+00
   3.040000      0.0000000E+00
   3.050000      0.0000000E+00
   3.060000      0.0000000E+00
   3.070000      0.0000000E+00
   3.080000      0.0000000E+00
   3.090000      0.0000000E+00
   3.100000      0.0000000E+00
   3.110000      0.0000000E+00
   3.120000      0.0000000E+00
   3.130000      0.0000000E+00
   3.140000      0.0000000E+00
   3.150000      0.0000000E+00
   3.160000      0.0000000E+00
   3.170000      0.0000000E+00
   3.180000      0.0000000E+00
   3.190000      0.0000000E+00
   3.200000      0.0000000E+00
   3.210000      0.0000000E+00
   3.220000      0.0000000E+00
   3.230000      0.0000000E+00
   3.240000      0.0000000E+00
   3.250000      0.0000000E+00
   3.260000      0.0000000E+00
   3.270000      0.0000000E+00
   3.280000      0.0000000E+00
   3.290000     -1.2615139E-38
   3.300000     -1.4716005E-38
   3.310000     -1.6804671E-38
   3.320000     -1.8866701E-38
   3.330000     -2.0872398E-38
   3.340000     -2.2522294E-38
   3.350000     -2.3759268E-38
   3.360000     -2.5026619E-38
   3.370000     -2.6381058E-38
   3.380000     -2.7899802E-38
   3.390000     -2.9647714E-38
   3.400000     -3.1037065E-38
   3.410000     -3.1895050E-38
   3.420000     -3.2523818E-38
   3.430000     -3.2943042E-38
   3.440000     -3.3245147E-38
   3.450000     -3.3386558E-38
   3.460000     -3.3450721E-38
   3.470000     -3.3810297E-38
   3.480000     -3.4024967E-38
   3.490000     -3.2946702E-38
   3.500000     -3.0907187E-38
   3.510000     -2.8144104E-38
   3.520000     -2.4230880E-38
   3.530000     -1.8479247E-38
   3.540000      0.0000000E+00
   3.550000      0.0000000E+00
   3.560000      0.0000000E+00
   3.570000      1.7028118E-38
   3.580000      2.6097603E-38
   3.590000      3.5463204E-38
   3.600000      4.4519922E-38
   3.610000      5.3515885E-38
   3.620000      6.2939399E-38
   3.630000      7.2845385E-38
   3.640000      8.3366827E-38
   3.650000      9.4648126E-38
   3.660000      1.0560256E-37
   3.670000      1.1554645E-37
   3.680000      1.2636209E-37
   3.690000      1.3919302E-37
   3.700000      1.5786615E-37
   3.710000      1.8201979E-37
   3.720000      2.0785673E-37
   3.730000      2.3552157E-37
   3.740000      2.6178430E-37
   3.750000      2.8656484E-37
   3.760000      3.1121888E-37
   3.770000      3.3402009E-37
   3.780000      3.5567699E-37
   3.790000      3.7739703E-37
   3.800000      3.9696243E-37
   3.810000      4.2941655E-37
   3.820000      4.7733804E-37
   3.830000      5.2236313E-37
   3.840000      5.5504114E-37
   3.850000      5.6116618E-37
   3.860000      5.5042923E-37
   3.870000      5.3162259E-37
   3.880000      5.0069475E-37
   3.890000      4.7089341E-37
   3.900000      4.3928398E-37
   3.910000      3.8491978E-37
   3.920000      3.3806888E-37
   3.930000      3.1976705E-37
   3.940000      3.0332271E-37
   3.950000      2.8675804E-37
   3.960000      2.8023041E-37
   3.970000      2.9062249E-37
   3.980000      3.1130222E-37
   3.990000      3.1775698E-37
   4.000000      3.1138204E-37
   4.010000      2.9142654E-37
   4.020000      2.5665414E-37
   4.030000      2.1602798E-37
   4.040000      1.7115335E-37
   4.050000      1.1515808E-37
   4.060000      4.5762453E-38
   4.070000     -3.5879653E-38
   4.080000     -1.2519668E-37
   4.090000     -2.4103374E-37
   4.100000     -4.2060307E-37
   4.110000     -6.8091653E-37
   4.120000     -1.0078166E-36
   4.130000     -1.3486333E-36
   4.140000     -1.6956832E-36
   4.150000     -2.0390877E-36
   4.160000     -2.3625288E-36
   4.170000     -2.6632093E-36
   4.180000     -2.9488313E-36
   4.190000     -3.1953802E-36
   4.200000     -3.4197254E-36
   4.210000     -3.6499677E-36
   4.220000     -3.8730681E-36
   4.230000     -4.0888872E-36
   4.240000     -4.2937898E-36
   4.250000     -4.4828314E-36
   4.260000     -4.6316178E-36
   4.270000     -4.8706333E-36
   4.280000     -5.2542815E-36
   4.290000     -5.6907555E-36
   4.300000     -6.0952747E-36
   4.310000     -6.4313008E-36
   4.320000     -6.7610146E-36
   4.330000     -7.0924188E-36
   4.340000     -7.2894734E-36
   4.350000     -7.2547581E-36
   4.360000     -7.0316280E-36
   4.370000     -6.6249955E-36
   4.380000     -6.0837795E-36
   4.390000     -5.4735635E-36
   4.400000     -4.8021925E-36
   4.410000     -4.0500921E-36
   4.420000     -3.2541470E-36
   4.430000     -2.4387474E-36
   4.440000     -1.5911232E-36
   4.450000     -7.6301531E-37
   4.460000     -5.8012848E-38
   4.470000      5.8917480E-37
   4.480000      1.2356811E-36
   4.490000      1.9421329E-36
   4.500000      2.7270547E-36
   4.510000      3.5359651E-36
   4.520000      4.5036726E-36
   4.530000      5.6384387E-36
   4.540000      7.1108705E-36
   4.550000      9.0245487E-36
   4.560000      1.1135109E-35
   4.570000      1.3591369E-35
   4.580000      1.6365054E-35
   4.590000      1.9168497E-35
   4.600000      2.1966312E-35
   4.610000      2.4912470E-35
   4.620000      2.7830896E-35
   4.630000      3.0290041E-35
   4.640000      3.2447246E-35
   4.650000      3.4554015E-35
   4.660000      3.6640980E-35
   4.670000      3.8563166E-35
   4.680000      4.0265801E-35
   4.690000      4.1816306E-35
   4.700000      4.3179615E-35
   4.710000      4.4297291E-35
   4.720000      4.5180134E-35
   4.730000      4.5883181E-35
   4.740000      4.6441363E-35
   4.750000      4.6999366E-35
   4.760000      4.7486864E-35
   4.770000      4.7962787E-35
   4.780000      4.8458739E-35
   4.790000      4.8697448E-35
   4.800000      4.8099111E-35
   4.810000      4.6558286E-35
   4.820000      4.4503608E-35
   4.830000      4.2133121E-35
   4.840000      3.9567794E-35
   4.850000      3.6641691E-35
   4.860000      3.5915849E-35
   4.870000      3.7721126E-35
   4.880000      4.3248369E-35
   4.890000      5.2457710E-35
   4.900000      5.8402927E-35
   4.910000      6.0582603E-35
   4.920000      6.0726348E-35
   4.930000      5.6605115E-35
   4.940000      4.5115608E-35
   4.950000      2.8055816E-35
   4.960000      8.0135970E-36
   4.970000     -1.4323565E-35
   4.980000     -3.8096865E-35
   4.990000     -6.3390748E-35
   5.000000     -8.8111217E-35
   5.010000     -1.1327337E-34
   5.020000     -1.4026807E-34
   5.030000     -1.6815187E-34
   5.040000     -1.9668748E-34
   5.050000     -2.2875320E-34
   5.060000     -2.6387068E-34
   5.070000     -2.9768237E-34
   5.080000     -3.2954364E-34
   5.090000     -3.6044794E-34
   5.100000     -3.8617680E-34
   5.110000     -4.0618156E-34
   5.120000     -4.2520257E-34
   5.130000     -4.4572781E-34
   5.140000     -4.6508237E-34
   5.150000     -4.7729819E-34
   5.160000     -4.8328003E-34
   5.170000     -4.8545644E-34
   5.180000     -4.8489440E-34
   5.190000     -4.8420913E-34
   5.200000     -4.8937331E-34
   5.210000     -5.0252397E-34
   5.220000     -5.1886174E-34
   5.230000     -5.3461883E-34
   5.240000     -5.5018995E-34
   5.250000     -5.6951948E-34
   5.260000     -5.9059812E-34
   5.270000     -6.0951329E-34
   5.280000     -6.2743554E-34
   5.290000     -6.4330081E-34
   5.300000     -6.5666779E-34
   5.310000     -6.6784825E-34
   5.320000     -6.7380907E-34
   5.330000     -6.7118739E-34
   5.340000     -6.5950426E-34
   5.350000     -6.3823406E-34
   5.360000     -6.0688666E-34
   5.370000     -5.6368448E-34
   5.380000     -5.1009544E-34
   5.390000     -4.4739793E-34
   5.400000     -3.7346489E-34
   5.410000     -2.8637166E-34
   5.420000     -1.8500711E-34
   5.430000     -6.9407351E-35
   5.440000      5.8235758E-35
   5.450000      1.9431087E-34
   5.460000      3.4321338E-34
   5.470000      5.0663145E-34
   5.480000      6.8088871E-34
   5.490000      8.6591294E-34
   5.500000      1.0604140E-33
   5.510000      1.2634764E-33
   5.520000      1.4746524E-33
   5.530000      1.6923678E-33
   5.540000      1.9197876E-33
   5.550000      2.1564945E-33
   5.560000      2.4001683E-33
   5.570000      2.6514102E-33
   5.580000      2.9108100E-33
   5.590000      3.1763103E-33
   5.600000      3.4462427E-33
   5.610000      3.7218443E-33
   5.620000      4.0028422E-33
   5.630000      4.2894788E-33
   5.640000      4.5811943E-33
   5.650000      4.8783772E-33
   5.660000      5.1810424E-33
   5.670000      5.4864898E-33
   5.680000      5.7931715E-33
   5.690000      6.0987501E-33
   5.700000      6.4044892E-33
   5.710000      6.7104124E-33
   5.720000      7.0118723E-33
   5.730000      7.3063204E-33
   5.740000      7.5915798E-33
   5.750000      7.8650152E-33
   5.760000      8.1223692E-33
   5.770000      8.3584363E-33
   5.780000      8.5701928E-33
   5.790000      8.7550254E-33
   5.800000      8.9082937E-33
   5.810000      9.0255411E-33
   5.820000      9.1014707E-33
   5.830000      9.1314120E-33
   5.840000      9.1112765E-33
   5.850000      9.0363417E-33
   5.860000      8.9025932E-33
   5.870000      8.7061167E-33
   5.880000      8.4420948E-33
   5.890000      8.1060628E-33
   5.900000      7.6943320E-33
   5.910000      7.2032288E-33
   5.920000      6.6290108E-33
   5.930000      5.9681193E-33
   5.940000      5.2170287E-33
   5.950000      4.3723001E-33
   5.960000      3.4304110E-33
   5.970000      2.3881538E-33
   5.980000      1.2423596E-33
   5.990000     -1.0400487E-35
   6.000000     -1.3733715E-33
   6.010000     -2.8497589E-33
   6.020000     -4.4426791E-33
   6.030000     -6.1551963E-33
   6.040000     -7.9902370E-33
   6.050000     -9.9505229E-33
   6.060000     -1.2038543E-32
   6.070000     -1.4256594E-32
   6.080000     -1.6606384E-32
   6.090000     -1.9089141E-32
   6.100000     -2.1707911E-32
   6.110000     -2.4460446E-32
   6.120000     -2.7344267E-32
   6.130000     -3.0360421E-32
   6.140000     -3.3506411E-32
   6.150000     -3.6779005E-32
   6.160000     -4.0173927E-32
   6.170000     -4.3685766E-32
   6.180000     -4.7308605E-32
   6.190000     -5.1033805E-32
   6.200000     -5.4851405E-32
   6.210000     -5.8751525E-32
   6.220000     -6.2722204E-32
   6.230000     -6.6750035E-32
   6.240000     -7.0820179E-32
   6.250000     -7.4916347E-32
   6.260000     -7.9020656E-32
   6.270000     -8.3113998E-32
   6.280000     -8.7175737E-32
   6.290000     -9.1183549E-32
   6.300000     -9.5113744E-32
   6.310000     -9.8941089E-32
   6.320000     -1.0263891E-31
   6.330000     -1.0617908E-31
   6.340000     -1.0953178E-31
   6.350000     -1.1266544E-31
   6.360000     -1.1554758E-31
   6.370000     -1.1814406E-31
   6.380000     -1.2041878E-31
   6.390000     -1.2233431E-31
   6.400000     -1.2385165E-31
   6.410000     -1.2493023E-31
   6.420000     -1.2552801E-31
   6.430000     -1.2560142E-31
   6.440000     -1.2510543E-31
   6.450000     -1.2399360E-31
   6.460000     -1.2221812E-31
   6.470000     -1.1972995E-31
   6.480000     -1.1647891E-31
   6.490000     -1.1241365E-31
   6.500000     -1.0748218E-31
   6.510000     -1.0163183E-31
   6.520000     -9.4809174E-32
   6.530000     -8.6960604E-32
   6.540000     -7.8032495E-32
   6.550000     -6.7971450E-32
   6.560000     -5.6724620E-32
   6.570000     -4.4239965E-32
   6.580000     -3.0466624E-32
   6.590000     -1.5355248E-32
   6.600000      1.1416198E-33
   6.610000      1.9069184E-32
   6.620000      3.8469992E-32
   6.630000      5.9383524E-32
   6.640000      8.1845787E-32
   6.650000      1.0588888E-31
   6.660000      1.3154060E-31
   6.670000      1.5882387E-31
   6.680000      1.8775638E-31
   6.690000      2.1835160E-31
   6.700000      2.5061368E-31
   6.710000      2.8454000E-31
   6.720000      3.2012383E-31
   6.730000      3.5734922E-31
   6.740000      3.9619186E-31
   6.750000      4.3661862E-31
   6.760000      4.7858696E-31
   6.770000      5.2204447E-31
   6.780000      5.6692814E-31
   6.790000      6.1316395E-31
   6.800000      6.6066605E-31
   6.810000      7.0933655E-31
   6.820000      7.5906447E-31
   6.830000      8.0972565E-31
   6.840000      8.6118174E-31
   6.850000      9.1327993E-31
   6.860000      9.6585236E-31
   6.870000      1.0187154E-30
   6.880000      1.0716690E-30
   6.890000      1.1244966E-30
   6.900000      1.1769649E-30
   6.910000      1.2288226E-30
   6.920000      1.2798004E-30
   6.930000      1.3296112E-30
   6.940000      1.3779488E-30
   6.950000      1.4244889E-30
   6.960000      1.4688878E-30
   6.970000      1.5107832E-30
   6.980000      1.5497939E-30
   6.990000      1.5855198E-30
   7.000000      1.6175419E-30
   7.010000      1.6454233E-30
   7.020000      1.6687090E-30
   7.030000      1.6869264E-30
   7.040000      1.6995860E-30
   7.050000      1.7061823E-30
   7.060000      1.7061939E-30