  -2.600000      0.0000000E+00
  -2.590000      0.0000000E+00
  -2.580000      0.0000000E+00
  -2.570000      0.0000000E+00
  -2.560000      0.0000000E+00
  -2.550000      0.0000000E+00
  -2.540000      0.0000000E+00
  -2.530000      0.0000000E+00
  -2.520000      0.0000000E+00
  -2.510000      0.0000000E+00
  -2.500000      0.0000000E+00
  -2.490000      0.0000000E+00
  -2.480000      0.0000000E+00
  -2.470000      0.0000000E+00
  -2.460000      0.0000000E+00
  -2.450000      0.0000000E+00
  -2.440000      0.0000000E+00
  -2.430000      0.0000000E+00
  -2.420000      0.0000000E+00
  -2.410000      0.0000000E+00
  -2.400000      0.0000000E+00
  -2.390000      0.0000000E+00
  -2.380000      0.0000000E+00
  -2.370000      0.0000000E+00
  -2.360000      0.0000000E+00
  -2.350000      0.0000000E+00
  -2.340000      0.0000000E+00
  -2.330000      0.0000000E+00
  -2.320000      0.0000000E+00
  -2.310000      0.0000000E+00
  -2.300000      0.0000000E+00
  -2.290000      0.0000000E+00
  -2.280000      0.0000000E+00
  -2.270000      0.0000000E+00
  -2.260000      0.0000000E+00
  -2.250000      0.0000000E+00
  -2.240000      0.0000000E+00
  -2.230000      0.0000000E+00
  -2.220000      0.0000000E+00
  -2.210000      0.0000000E+00
  -2.200000      0.0000000E+00
  -2.190000      0.0000000E+00
  -2.180000      0.0000000E+00
  -2.170000      0.0000000E+00
  -2.160000      0.0000000E+00
  -2.150000      0.0000000E+00
  -2.140000      0.0000000E+00
  -2.130000      0.0000000E+00
  -2.120000      0.0000000E+00
  -2.110000      0.0000000E+00
  -2.100000      0.0000000E+00
  -2.090000      0.0000000E+00
  -2.080000      0.0000000E+00
  -2.070000      0.0000000E+00
  -2.060000      0.0000000E+00
  -2.050000      0.0000000E+00
  -2.040000      0.0000000E+00
  -2.030000      0.0000000E+00
  -2.020000      0.0000000E+00
  -2.010000      0.0000000E+00
  -2.000000      0.0000000E+00
  -1.990000      0.0000000E+00
  -1.980000      0.0000000E+00
  -1.970000      0.0000000E+00
  -1.960000      0.0000000E+00
  -1.950000      0.0000000E+00
  -1.940000      0.0000000E+00
  -1.930000      0.0000000E+00
  -1.920000      0.0000000E+00
  -1.910000      0.0000000E+00
  -1.900000      0.0000000E+00
  -1.890000      0.0000000E+00
  -1.880000      0.0000000E+00
  -1.870000      0.0000000E+00
  -1.860000      0.0000000E+00
  -1.850000      0.0000000E+00
  -1.840000      0.0000000E+00
  -1.830000      0.0000000E+00
  -1.820000      0.0000000E+00
  -1.810000      0.0000000E+00
  -1.800000      0.0000000E+00
  -1.790000      0.0000000E+00
  -1.780000      0.0000000E+00
  -1.770000      0.0000000E+00
  -1.760000      0.0000000E+00
  -1.750000      0.0000000E+00
  -1.740000      0.0000000E+00
  -1.730000      0.0000000E+00
  -1.720000      0.0000000E+00
  -1.710000      0.0000000E+00
  -1.700000      0.0000000E+00
  -1.690000      0.0000000E+00
  -1.680000      0.0000000E+00
  -1.670000      0.0000000E+00
  -1.660000      0.0000000E+00
  -1.650000      0.0000000E+00
  -1.640000      0.0000000E+00
  -1.630000      0.0000000E+00
  -1.620000      0.0000000E+00
  -1.610000      0.0000000E+00
  -1.600000      0.0000000E+00
  -1.590000      0.0000000E+00
  -1.580000      0.0000000E+00
  -1.570000      0.0000000E+00
  -1.560000      0.0000000E+00
  -1.550000      0.0000000E+00
  -1.540000      0.0000000E+00
  -1.530000      0.0000000E+00
  -1.520000      0.0000000E+00
  -1.510000      0.0000000E+00
  -1.500000      0.0000000E+00
  -1.490000      0.0000000E+00
  -1.480000      0.0000000E+00
  -1.470000      0.0000000E+00
  -1.460000      0.0000000E+00
  -1.450000      0.0000000E+00
  -1.440000      0.0000000E+00
  -1.430000      0.0000000E+00
  -1.420000      0.0000000E+00
  -1.410000      0.0000000E+00
  -1.400000      0.0000000E+00
  -1.390000      0.0000000E+00
  -1.380000      0.0000000E+00
  -1.370000      0.0000000E+00
  -1.360000      0.0000000E+00
  -1.350000      0.0000000E+00
  -1.340000      0.0000000E+00
  -1.330000      0.0000000E+00
  -1.320000      0.0000000E+00
  -1.310000      0.0000000E+00
  -1.300000      0.0000000E+00
  -1.290000      0.0000000E+00
  -1.280000      0.0000000E+00
  -1.270000      0.0000000E+00
  -1.260000      0.0000000E+00
  -1.250000      0.0000000E+00
  -1.240000      0.0000000E+00
  -1.230000      0.0000000E+00
  -1.220000      0.0000000E+00
  -1.210000      0.0000000E+00
  -1.200000      0.0000000E+00
  -1.190000      0.0000000E+00
  -1.180000      0.0000000E+00
  -1.170000      0.0000000E+00
  -1.160000      0.0000000E+00
  -1.150000      0.0000000E+00
  -1.140000      0.0000000E+00
  -1.130000      0.0000000E+00
  -1.120000      0.0000000E+00
  -1.110000      0.0000000E+00
  -1.100000      0.0000000E+00
  -1.090000      0.0000000E+00
  -1.080000      0.0000000E+00
  -1.070000      0.0000000E+00
  -1.060000      0.0000000E+00
  -1.050000      0.0000000E+00
  -1.040000      0.0000000E+00
  -1.030000      0.0000000E+00
  -1.020000      0.0000000E+00
  -1.010000      0.0000000E+00
  -1.000000      0.0000000E+00
 -0.9900000      0.0000000E+00
 -0.9800000      0.0000000E+00
 -0.9700000      0.0000000E+00
 -0.9600000      0.0000000E+00
 -0.9500000      0.0000000E+00
 -0.9400000      0.0000000E+00
 -0.9300000      0.0000000E+00
 -0.9200000      0.0000000E+00
 -0.9100000      0.0000000E+00
 -0.9000000      0.0000000E+00
 -0.8900000      0.0000000E+00
 -0.8800000      0.0000000E+00
 -0.8700000      0.0000000E+00
 -0.8600000      0.0000000E+00
 -0.8500000      0.0000000E+00
 -0.8400000      0.0000000E+00
 -0.8300000      0.0000000E+00
 -0.8200000      0.0000000E+00
 -0.8100000      0.0000000E+00
 -0.8000000      0.0000000E+00
 -0.7900000      0.0000000E+00
 -0.7800000      0.0000000E+00
 -0.7700000      0.0000000E+00
 -0.7600000      0.0000000E+00
 -0.7500000      0.0000000E+00
 -0.7400000      0.0000000E+00
 -0.7300000      0.0000000E+00
 -0.7200000      0.0000000E+00
 -0.7100000      0.0000000E+00
 -0.7000000      0.0000000E+00
 -0.6900000      0.0000000E+00
 -0.6800000      0.0000000E+00
 -0.6700000      0.0000000E+00
 -0.6600000      0.0000000E+00
 -0.6500000      0.0000000E+00
 -0.6400000      0.0000000E+00
 -0.6300000      0.0000000E+00
 -0.6200000      0.0000000E+00
 -0.6100000      0.0000000E+00
 -0.6000000      0.0000000E+00
 -0.5900000      0.0000000E+00
 -0.5800000      0.0000000E+00
 -0.5700000      0.0000000E+00
 -0.5600000      0.0000000E+00
 -0.5500000      0.0000000E+00
 -0.5400000      0.0000000E+00
 -0.5300000      0.0000000E+00
 -0.5200000      0.0000000E+00
 -0.5100000      0.0000000E+00
 -0.5000000      0.0000000E+00
 -0.4900000      0.0000000E+00
 -0.4800000      0.0000000E+00
 -0.4700000      0.0000000E+00
 -0.4600000      0.0000000E+00
 -0.4500000      0.0000000E+00
 -0.4400000      0.0000000E+00
 -0.4300000      0.0000000E+00
 -0.4200000      0.0000000E+00
 -0.4100000      0.0000000E+00
 -0.4000000      0.0000000E+00
 -0.3900000      0.0000000E+00
 -0.3800000      0.0000000E+00
 -0.3700000      0.0000000E+00
 -0.3600000      0.0000000E+00
 -0.3500000      0.0000000E+00
 -0.3400000      0.0000000E+00
 -0.3300000      0.0000000E+00
 -0.3200000      0.0000000E+00
 -0.3100000      0.0000000E+00
 -0.3000000      0.0000000E+00
 -0.2900000      0.0000000E+00
 -0.2800000      0.0000000E+00
 -0.2700000      0.0000000E+00
 -0.2600000      0.0000000E+00
 -0.2500000      0.0000000E+00
 -0.2400000      0.0000000E+00
 -0.2300000      0.0000000E+00
 -0.2200000      0.0000000E+00
 -0.2100000      0.0000000E+00
 -0.2000000      0.0000000E+00
 -0.1900000      0.0000000E+00
 -0.1800000      0.0000000E+00
 -0.1700000      0.0000000E+00
 -0.1600000      0.0000000E+00
 -0.1500000      0.0000000E+00
 -0.1400000      0.0000000E+00
 -0.1300000      0.0000000E+00
 -0.1200000      0.0000000E+00
 -0.1100000      0.0000000E+00
 -0.1000000      0.0000000E+00
 -9.0000004E-02  0.0000000E+00
 -7.9999998E-02  0.0000000E+00
 -7.0000000E-02  0.0000000E+00
 -5.9999999E-02  0.0000000E+00
 -5.0000001E-02  0.0000000E+00
 -3.9999999E-02  0.0000000E+00
 -2.9999999E-02  0.0000000E+00
 -2.0000000E-02  0.0000000E+00
 -9.9999998E-03  0.0000000E+00
 -3.4694470E-17  0.0000000E+00
  9.9999998E-03  0.0000000E+00
  2.0000000E-02  0.0000000E+00
  2.9999999E-02  0.0000000E+00
  3.9999999E-02  0.0000000E+00
  5.0000001E-02  0.0000000E+00
  5.9999999E-02  0.0000000E+00
  7.0000000E-02  0.0000000E+00
  7.9999998E-02  0.0000000E+00
  9.0000004E-02  0.0000000E+00
  0.1000000      0.0000000E+00
  0.1100000      0.0000000E+00
  0.1200000      0.0000000E+00
  0.1300000      0.0000000E+00
  0.1400000      0.0000000E+00
  0.1500000      0.0000000E+00
  0.1600000      0.0000000E+00
  0.1700000      0.0000000E+00
  0.1800000      0.0000000E+00
  0.1900000      0.0000000E+00
  0.2000000      0.0000000E+00
  0.2100000      0.0000000E+00
  0.2200000      0.0000000E+00
  0.2300000      0.0000000E+00
  0.2400000      0.0000000E+00
  0.2500000      0.0000000E+00
  0.2600000      0.0000000E+00
  0.2700000      0.0000000E+00
  0.2800000      0.0000000E+00
  0.2900000      0.0000000E+00
  0.3000000      0.0000000E+00
  0.3100000      0.0000000E+00
  0.3200000      0.0000000E+00
  0.3300000      0.0000000E+00
  0.3400000      0.0000000E+00
  0.3500000      0.0000000E+00
  0.3600000      0.0000000E+00
  0.3700000      0.0000000E+00
  0.3800000      0.0000000E+00
  0.3900000      0.0000000E+00
  0.4000000      0.0000000E+00
  0.4100000      0.0000000E+00
  0.4200000      0.0000000E+00
  0.4300000      0.0000000E+00
  0.4400000      0.0000000E+00
  0.4500000      0.0000000E+00
  0.4600000      0.0000000E+00
  0.4700000      0.0000000E+00
  0.4800000      0.0000000E+00
  0.4900000      0.0000000E+00
  0.5000000      0.0000000E+00
  0.5100000      0.0000000E+00
  0.5200000      0.0000000E+00
  0.5300000      0.0000000E+00
  0.5400000      0.0000000E+00
  0.5500000      0.0000000E+00
  0.5600000      0.0000000E+00
  0.5700000      0.0000000E+00
  0.5800000      0.0000000E+00
  0.5900000      0.0000000E+00
  0.6000000      0.0000000E+00
  0.6100000      0.0000000E+00
  0.6200000      0.0000000E+00
  0.6300000      0.0000000E+00
  0.6400000      0.0000000E+00
  0.6500000      0.0000000E+00
  0.6600000      0.0000000E+00
  0.6700000      0.0000000E+00
  0.6800000      0.0000000E+00
  0.6900000      0.0000000E+00
  0.7000000      0.0000000E+00
  0.7100000      0.0000000E+00
  0.7200000      0.0000000E+00
  0.7300000      0.0000000E+00
  0.7400000      0.0000000E+00
  0.7500000      0.0000000E+00
  0.7600000      0.0000000E+00
  0.7700000      0.0000000E+00
  0.7800000      0.0000000E+00
  0.7900000      0.0000000E+00
  0.8000000      0.0000000E+00
  0.8100000      0.0000000E+00
  0.8200000      0.0000000E+00
  0.8300000      0.0000000E+00
  0.8400000      0.0000000E+00
  0.8500000      0.0000000E+00
  0.8600000      0.0000000E+00
  0.8700000      0.0000000E+00
  0.8800000      0.0000000E+00
  0.8900000      0.0000000E+00
  0.9000000      0.0000000E+00
  0.9100000      0.0000000E+00
  0.9200000      0.0000000E+00
  0.9300000      0.0000000E+00
  0.9400000      0.0000000E+00
  0.9500000      0.0000000E+00
  0.9600000      0.0000000E+00
  0.9700000      0.0000000E+00
  0.9800000      0.0000000E+00
  0.9900000      0.0000000E+00
   1.000000      0.0000000E+00
   1.010000      0.0000000E+00
   1.020000      0.0000000E+00
   1.030000      0.0000000E+00
   1.040000      0.0000000E+00
   1.050000      0.0000000E+00
   1.060000      0.0000000E+00
   1.070000      0.0000000E+00
   1.080000      0.0000000E+00
   1.090000      0.0000000E+00
   1.100000      0.0000000E+00
   1.110000      0.0000000E+00
   1.120000      0.0000000E+00
   1.130000      0.0000000E+00
   1.140000      0.0000000E+00
   1.150000      0.0000000E+00
   1.160000      0.0000000E+00
   1.170000      0.0000000E+00
   1.180000      0.0000000E+00
   1.190000      0.0000000E+00
   1.200000      0.0000000E+00
   1.210000      0.0000000E+00
   1.220000      0.0000000E+00
   1.230000      0.0000000E+00
   1.240000      0.0000000E+00
   1.250000      0.0000000E+00
   1.260000      0.0000000E+00
   1.270000      0.0000000E+00
   1.280000      0.0000000E+00
   1.290000      0.0000000E+00
   1.300000      0.0000000E+00
   1.310000      0.0000000E+00
   1.320000      0.0000000E+00
   1.330000      0.0000000E+00
   1.340000      0.0000000E+00
   1.350000      0.0000000E+00
   1.360000      0.0000000E+00
   1.370000      0.0000000E+00
   1.380000      0.0000000E+00
   1.390000      0.0000000E+00
   1.400000      0.0000000E+00
   1.410000      0.0000000E+00
   1.420000      0.0000000E+00
   1.430000      0.0000000E+00
   1.440000      0.0000000E+00
   1.450000      0.0000000E+00
   1.460000      0.0000000E+00
   1.470000      0.0000000E+00
   1.480000      0.0000000E+00
   1.490000      0.0000000E+00
   1.500000      0.0000000E+00
   1.510000      0.0000000E+00
   1.520000      0.0000000E+00
   1.530000      0.0000000E+00
   1.540000      0.0000000E+00
   1.550000      0.0000000E+00
   1.560000      0.0000000E+00
   1.570000      0.0000000E+00
   1.580000      0.0000000E+00
   1.590000      0.0000000E+00
   1.600000      0.0000000E+00
   1.610000      0.0000000E+00
   1.620000      0.0000000E+00
   1.630000      0.0000000E+00
   1.640000      0.0000000E+00
   1.650000      0.0000000E+00
   1.660000      0.0000000E+00
   1.670000      0.0000000E+00
   1.680000      0.0000000E+00
   1.690000      0.0000000E+00
   1.700000      0.0000000E+00
   1.710000      0.0000000E+00
   1.720000      0.0000000E+00
   1.730000      0.0000000E+00
   1.740000      0.0000000E+00
   1.750000      0.0000000E+00
   1.760000      0.0000000E+00
   1.770000      0.0000000E+00
   1.780000      0.0000000E+00
   1.790000      0.0000000E+00
   1.800000      0.0000000E+00
   1.810000      0.0000000E+00
   1.820000      0.0000000E+00
   1.830000      0.0000000E+00
   1.840000      0.0000000E+00
   1.850000      0.0000000E+00
   1.860000      0.0000000E+00
   1.870000      0.0000000E+00
   1.880000      0.0000000E+00
   1.890000      0.0000000E+00
   1.900000      0.0000000E+00
   1.910000      0.0000000E+00
   1.920000      0.0000000E+00
   1.930000      0.0000000E+00
   1.940000      0.0000000E+00
   1.950000      0.0000000E+00
   1.960000      0.0000000E+00
   1.970000      0.0000000E+00
   1.980000      0.0000000E+00
   1.990000      0.0000000E+00
   2.000000      0.0000000E+00
   2.010000      1.1765073E-38
   2.020000      1.3104502E-38
   2.030000      1.4564920E-38
   2.040000      1.6193764E-38
   2.050000      1.8025814E-38
   2.060000      2.0082535E-38
   2.070000      2.2372639E-38
   2.080000      2.4926345E-38
   2.090000      2.7786061E-38
   2.100000      3.1271085E-38
   2.110000      3.5159798E-38
   2.120000      3.8894272E-38
   2.130000      4.2410018E-38
   2.140000      4.5638144E-38
   2.150000      4.8505173E-38
   2.160000      5.0802456E-38
   2.170000      5.2560161E-38
   2.180000      5.3949229E-38
   2.190000      5.4661077E-38
   2.200000      5.4372404E-38
   2.210000      5.3390206E-38
   2.220000      5.1537392E-38
   2.230000      4.8653554E-38
   2.240000      4.4877971E-38
   2.250000      4.0448853E-38
   2.260000      3.5436187E-38
   2.270000      2.8290111E-38
   2.280000      1.8986228E-38
   2.290000      0.0000000E+00
   2.300000      0.0000000E+00
   2.310000     -1.3969575E-38
   2.320000     -2.6916671E-38
   2.330000     -4.0881350E-38
   2.340000     -5.5359036E-38
   2.350000     -7.0209122E-38
   2.360000     -8.6075240E-38
   2.370000     -1.0322245E-37
   2.380000     -1.2123122E-37
   2.390000     -1.4005624E-37
   2.400000     -1.5778836E-37
   2.410000     -1.7381775E-37
   2.420000     -1.8963348E-37
   2.430000     -2.0405648E-37
   2.440000     -2.1653151E-37
   2.450000     -2.2610074E-37
   2.460000     -2.3325546E-37
   2.470000     -2.2672978E-37
   2.480000     -2.0144576E-37
   2.490000     -1.6812403E-37
   2.500000     -1.2976894E-37
   2.510000     -8.7081490E-38
   2.520000     -4.4874658E-38
   2.530000      0.0000000E+00
   2.540000      4.5209072E-38
   2.550000      1.3327797E-37
   2.560000      2.5948025E-37
   2.570000      3.9473981E-37
   2.580000      5.3978900E-37
   2.590000      6.9655305E-37
   2.600000      8.6938530E-37
   2.610000      1.0562456E-36
   2.620000      1.3143818E-36
   2.630000      1.6368099E-36
   2.640000      1.9655454E-36
   2.650000      2.1624646E-36
   2.660000      2.1739213E-36
   2.670000      2.1221662E-36
   2.680000      2.0522371E-36
   2.690000      1.9735100E-36
   2.700000      1.8779891E-36
   2.710000      1.7553788E-36
   2.720000      1.5711256E-36
   2.730000      1.3179719E-36
   2.740000      1.0218481E-36
   2.750000      6.5943653E-37
   2.760000      2.5187264E-37
   2.770000     -1.3952903E-37
   2.780000     -5.6583553E-37
   2.790000     -1.1388002E-36
   2.800000     -1.8773127E-36
   2.810000     -2.6731270E-36
   2.820000     -3.4341808E-36
   2.830000     -4.2345197E-36
   2.840000     -5.0939980E-36
   2.850000     -5.9534161E-36
   2.860000     -6.8313183E-36
   2.870000     -7.7270365E-36
   2.880000     -8.6134047E-36
   2.890000     -9.4662623E-36
   2.900000     -1.0299654E-35
   2.910000     -1.1085871E-35
   2.920000     -1.1777582E-35
   2.930000     -1.2389366E-35
   2.940000     -1.2950956E-35
   2.950000     -1.3467218E-35
   2.960000     -1.3842997E-35
   2.970000     -1.4111084E-35
   2.980000     -1.4376919E-35
   2.990000     -1.4679425E-35
   3.000000     -1.5054581E-35
   3.010000     -1.5534011E-35
   3.020000     -1.6021329E-35
   3.030000     -1.6381957E-35
   3.040000     -1.6640303E-35
   3.050000     -1.6811768E-35
   3.060000     -1.6912807E-35
   3.070000     -1.6921954E-35
   3.080000     -1.6644828E-35
   3.090000     -1.5726388E-35
   3.100000     -1.4105068E-35
   3.110000     -1.1865292E-35
   3.120000     -9.0263846E-36
   3.130000     -5.6713416E-36
   3.140000     -1.4702110E-36
   3.150000      3.5960861E-36
   3.160000      9.2091574E-36
   3.170000      1.5424280E-35
   3.180000      2.1746610E-35
   3.190000      2.7959922E-35
   3.200000      3.4387093E-35
   3.210000      4.0704999E-35
   3.220000      4.6431450E-35
   3.230000      5.1802044E-35
   3.240000      5.7051137E-35
   3.250000      6.2191635E-35
   3.260000      6.7445664E-35
   3.270000      7.3155680E-35
   3.280000      7.9310891E-35
   3.290000      8.5330851E-35
   3.300000      9.0932122E-35
   3.310000      9.6500935E-35
   3.320000      1.0246311E-34
   3.330000      1.0881112E-34
   3.340000      1.1550983E-34
   3.350000      1.2240890E-34
   3.360000      1.3009350E-34
   3.370000      1.3836636E-34
   3.380000      1.3901275E-34
   3.390000      1.2943968E-34
   3.400000      1.1713526E-34
   3.410000      1.0517489E-34
   3.420000      9.4397425E-35
   3.430000      8.3236101E-35
   3.440000      6.9335840E-35
   3.450000      5.2541096E-35
   3.460000      3.2996775E-35
   3.470000      1.2492232E-35
   3.480000     -6.3663401E-36
   3.490000     -2.5942110E-35
   3.500000     -4.8842841E-35
   3.510000     -6.8301520E-35
   3.520000     -8.3404636E-35
   3.530000     -9.9464018E-35
   3.540000     -1.1662890E-34
   3.550000     -1.3521033E-34
   3.560000     -1.5577435E-34
   3.570000     -1.7854985E-34
   3.580000     -2.0042222E-34
   3.590000     -2.2178899E-34
   3.600000     -2.4518211E-34
   3.610000     -2.6791364E-34
   3.620000     -2.9143108E-34
   3.630000     -3.1884341E-34
   3.640000     -3.5185239E-34
   3.650000     -3.8838361E-34
   3.660000     -4.2562795E-34
   3.670000     -4.6548231E-34
   3.680000     -5.0639286E-34
   3.690000     -5.4753889E-34
   3.700000     -5.8963664E-34
   3.710000     -6.3578504E-34
   3.720000     -6.8499651E-34
   3.730000     -7.2766893E-34
   3.740000     -7.6532360E-34
   3.750000     -8.0297284E-34
   3.760000     -8.3725347E-34
   3.770000     -8.6420232E-34
   3.780000     -8.8387110E-34
   3.790000     -8.9799154E-34
   3.800000     -9.0433967E-34
   3.810000     -9.0186149E-34
   3.820000     -8.9049262E-34
   3.830000     -8.6957709E-34
   3.840000     -8.3838333E-34
   3.850000     -7.9886569E-34
   3.860000     -7.5034256E-34
   3.870000     -6.8988207E-34
   3.880000     -6.1834070E-34
   3.890000     -5.3705205E-34
   3.900000     -4.4288407E-34
   3.910000     -3.3387968E-34
   3.920000     -2.1567187E-34
   3.930000     -8.8642847E-35
   3.940000      4.9895769E-35
   3.950000      1.9934320E-34
   3.960000      3.5991663E-34
   3.970000      5.3028635E-34
   3.980000      7.1134568E-34
   3.990000      9.0513791E-34
   4.000000      1.1080124E-33
   4.010000      1.3175256E-33
   4.020000      1.5347266E-33
   4.030000      1.7608176E-33
   4.040000      1.9968861E-33
   4.050000      2.2417405E-33
   4.060000      2.4928261E-33
   4.070000      2.7482593E-33
   4.080000      3.0065470E-33
   4.090000      3.2672017E-33
   4.100000      3.5305385E-33
   4.110000      3.7960342E-33
   4.120000      4.0629247E-33
   4.130000      4.3281706E-33
   4.140000      4.5879434E-33
   4.150000      4.8398412E-33
   4.160000      5.0843036E-33
   4.170000      5.3208675E-33
   4.180000      5.5444983E-33
   4.190000      5.7513768E-33
   4.200000      5.9382121E-33
   4.210000      6.1013480E-33
   4.220000      6.2374559E-33
   4.230000      6.3424143E-33
   4.240000      6.4112182E-33
   4.250000      6.4394102E-33
   4.260000      6.4245483E-33
   4.270000      6.3607946E-33
   4.280000      6.2427809E-33
   4.290000      6.0681983E-33
   4.300000      5.8334091E-33
   4.310000      5.5361199E-33
   4.320000      5.1713137E-33
   4.330000      4.7362772E-33
   4.340000      4.2313455E-33
   4.350000      3.6532487E-33
   4.360000      2.9982539E-33
   4.370000      2.2654415E-33
   4.380000      1.4537387E-33
   4.390000      5.6065942E-34
   4.400000     -4.1430794E-34
   4.410000     -1.4710521E-33
   4.420000     -2.6060262E-33
   4.430000     -3.8192708E-33
   4.440000     -5.1133648E-33
   4.450000     -6.4853280E-33
   4.460000     -7.9325635E-33
   4.470000     -9.4526291E-33
   4.480000     -1.1043247E-32
   4.490000     -1.2700767E-32
   4.500000     -1.4418351E-32
   4.510000     -1.6190040E-32
   4.520000     -1.8012532E-32
   4.530000     -1.9878615E-32
   4.540000     -2.1778742E-32
   4.550000     -2.3706456E-32
   4.560000     -2.5652637E-32
   4.570000     -2.7604060E-32
   4.580000     -2.9549216E-32
   4.590000     -3.1476450E-32
   4.600000     -3.3371456E-32
   4.610000     -3.5218366E-32
   4.620000     -3.7000471E-32
   4.630000     -3.8700457E-32
   4.640000     -4.0299564E-32
   4.650000     -4.1778021E-32
   4.660000     -4.3115181E-32
   4.670000     -4.4289339E-32
   4.680000     -4.5277286E-32
   4.690000     -4.6055895E-32
   4.700000     -4.6601892E-32
   4.710000     -4.6890643E-32
   4.720000     -4.6897076E-32
   4.730000     -4.6595811E-32
   4.740000     -4.5961814E-32
   4.750000     -4.4969330E-32
   4.760000     -4.3592841E-32
   4.770000     -4.1807497E-32
   4.780000     -3.9589072E-32
   4.790000     -3.6914493E-32
   4.800000     -3.3760577E-32
   4.810000     -3.0105013E-32
   4.820000     -2.5927138E-32
   4.830000     -2.1207624E-32
   4.840000     -1.5928671E-32
   4.850000     -1.0074206E-32
   4.860000     -3.6304515E-33
   4.870000      3.4147119E-33
   4.880000      1.1070782E-32
   4.890000      1.9343913E-32
   4.900000      2.8238195E-32
   4.910000      3.7754407E-32
   4.920000      4.7889710E-32
   4.930000      5.8637643E-32
   4.940000      6.9987758E-32
   4.950000      8.1925479E-32
   4.960000      9.4431393E-32
   4.970000      1.0748091E-31
   4.980000      1.2104532E-31
   4.990000      1.3509022E-31
   5.000000      1.4957427E-31
   5.010000      1.6445166E-31
   5.020000      1.7967020E-31
   5.030000      1.9517014E-31
   5.040000      2.1088552E-31
   5.050000      2.2674346E-31
   5.060000      2.4266398E-31
   5.070000      2.5855981E-31
   5.080000      2.7433635E-31
   5.090000      2.8989153E-31
   5.100000      3.0511592E-31
   5.110000      3.1989231E-31
   5.120000      3.3409684E-31
   5.130000      3.4759659E-31
   5.140000      3.6025133E-31
   5.150000      3.7191548E-31
   5.160000      3.8243594E-31
   5.170000      3.9165299E-31
   5.180000      3.9940044E-31
   5.190000      4.0550643E-31
   5.200000      4.0979360E-31
   5.210000      4.1207979E-31
   5.220000      4.1217840E-31
   5.230000      4.0989930E-31
   5.240000      4.0504930E-31
   5.250000      3.9743304E-31
   5.260000      3.8685378E-31
   5.270000      3.7311434E-31
   5.280000      3.5601793E-31
   5.290000      3.3536924E-31
   5.300000      3.1097555E-31
   5.310000      2.8264790E-31
   5.320000      2.5020228E-31
   5.330000      2.1346082E-31
   5.340000      1.7225342E-31
   5.350000      1.2641919E-31
   5.360000      7.5807666E-32
   5.370000      2.0280595E-32
   5.380000     -4.0286304E-32
   5.390000     -1.0600161E-31
   5.400000     -1.7695663E-31
   5.410000     -2.5322325E-31
   5.420000     -3.3485221E-31
   5.430000     -4.2187110E-31
   5.440000     -5.1428212E-31
   5.450000     -6.1206030E-31
   5.460000     -7.1515116E-31
   5.470000     -8.2346896E-31
   5.480000     -9.3689411E-31
   5.490000     -1.0552712E-30
   5.500000     -1.1784069E-30
   5.510000     -1.3060677E-30
   5.520000     -1.4379774E-30
   5.530000     -1.5738164E-30
   5.540000     -1.7132183E-30
   5.550000     -1.8557685E-30
   5.560000     -2.0010023E-30
   5.570000     -2.1484027E-30
   5.580000     -2.2973993E-30
   5.590000     -2.4473666E-30
   5.600000     -2.5976228E-30
   5.610000     -2.7474286E-30
   5.620000     -2.8959859E-30
   5.630000     -3.0424372E-30
   5.640000     -3.1858654E-30
   5.650000     -3.3252922E-30
   5.660000     -3.4596796E-30
   5.670000     -3.5879304E-30
   5.680000     -3.7088855E-30
   5.690000     -3.8213283E-30
   5.700000     -3.9239841E-30
   5.710000     -4.0155211E-30
   5.720000     -4.0945538E-30
   5.730000     -4.1596446E-30
   5.740000     -4.2093042E-30
   5.750000     -4.2419976E-30
   5.760000     -4.2561461E-30
   5.770000     -4.2501305E-30
   5.780000     -4.2222971E-30
   5.790000     -4.1709609E-30
   5.800000     -4.0944120E-30
   5.810000     -3.9909211E-30
   5.820000     -3.8587447E-30
   5.830000     -3.6961345E-30
   5.840000     -3.5013433E-30
   5.850000     -3.2726334E-30
   5.860000     -3.0082853E-30
   5.870000     -2.7066068E-30
   5.880000     -2.3659438E-30
   5.890000     -1.9846902E-30
   5.900000     -1.5612991E-30
   5.910000     -1.0942952E-30
   5.920000     -5.8228705E-31
   5.930000     -2.3979177E-32
   5.940000      5.8181333E-31
   5.950000      1.2361500E-30
   5.960000      1.9399509E-30
   5.970000      2.6939818E-30
   5.980000      3.4988384E-30
   5.990000      4.3549301E-30
   6.000000      5.2624621E-30
   6.010000      6.2214191E-30
   6.020000      7.2315502E-30
   6.030000      8.2923502E-30
   6.040000      9.4030377E-30
   6.050000      1.0562546E-29
   6.060000      1.1769497E-29
   6.070000      1.3022187E-29
   6.080000      1.4318571E-29
   6.090000      1.5656241E-29
   6.100000      1.7032410E-29
   6.110000      1.8443895E-29
   6.120000      1.9887098E-29
   6.130000      2.1357993E-29
   6.140000      2.2852113E-29
   6.150000      2.4364527E-29
   6.160000      2.5889834E-29
   6.170000      2.7422140E-29
   6.180000      2.8955054E-29
   6.190000      3.0481672E-29
   6.200000      3.1994568E-29
   6.210000      3.3485795E-29
   6.220000      3.4946856E-29
   6.230000      3.6368722E-29
   6.240000      3.7741823E-29
   6.250000      3.9056039E-29
   6.260000      4.0300701E-29
   6.270000      4.1464613E-29
   6.280000      4.2536041E-29
   6.290000      4.3502722E-29
   6.300000      4.4351886E-29
   6.310000      4.5070270E-29
   6.320000      4.5644127E-29
   6.330000      4.6059268E-29
   6.340000      4.6301065E-29
   6.350000      4.6354501E-29
   6.360000      4.6204182E-29
   6.370000      4.5834403E-29
   6.380000      4.5229168E-29
   6.390000      4.4372246E-29
   6.400000      4.3247226E-29
   6.410000      4.1837563E-29
   6.420000      4.0126648E-29
   6.430000      3.8097883E-29
   6.440000      3.5734718E-29
   6.450000      3.3020770E-29
   6.460000      2.9939869E-29
   6.470000      2.6476162E-29
   6.480000      2.2614212E-29
   6.490000      1.8339077E-29
   6.500000      1.3636416E-29
   6.510000      8.4926017E-30
   6.520000      2.8948298E-30
   6.530000     -3.1687525E-30
   6.540000     -9.7089341E-30
   6.550000     -1.6735325E-29
   6.560000     -2.4256197E-29
   6.570000     -3.2278366E-29
   6.580000     -4.0807031E-29
   6.590000     -4.9845643E-29
   6.600000     -5.9395770E-29
   6.610000     -6.9456924E-29
   6.620000     -8.0026385E-29
   6.630000     -9.1099074E-29
   6.640000     -1.0266740E-28
   6.650000     -1.1472104E-28
   6.660000     -1.2724685E-28
   6.670000     -1.4022866E-28
   6.680000     -1.5364707E-28
   6.690000     -1.6747937E-28
   6.700000     -1.8169934E-28
   6.710000     -1.9627707E-28
   6.720000     -2.1117882E-28
   6.730000     -2.2636687E-28
   6.740000     -2.4179940E-28
   6.750000     -2.5743027E-28
   6.760000     -2.7320898E-28
   6.770000     -2.8908052E-28
   6.780000     -3.0498519E-28
   6.790000     -3.2085858E-28
   6.800000     -3.3663139E-28
   6.810000     -3.5222950E-28
   6.820000     -3.6757372E-28
   6.830000     -3.8257987E-28
   6.840000     -3.9715870E-28
   6.850000     -4.1121580E-28
   6.860000     -4.2465186E-28
   6.870000     -4.3736227E-28
   6.880000     -4.4923765E-28
   6.890000     -4.6016355E-28
   6.900000     -4.7002075E-28
   6.910000     -4.7868531E-28
   6.920000     -4.8602884E-28
   6.930000     -4.9191843E-28
   6.940000     -4.9621710E-28
   6.950000     -4.9878403E-28
   6.960000     -4.9947472E-28
   6.970000     -4.9814144E-28
   6.980000     -4.9463351E-28
   6.990000     -4.8879770E-28
   7.000000     -4.8047884E-28
   7.010000     -4.6951996E-28
   7.020000     -4.5576328E-28
   7.030000     -4.3905030E-28
   7.040000     -4.1922280E-28
   7.050000     -3.9612325E-28
   7.060000     -3.6959554E-28