  -2.600000      0.0000000E+00
  -2.590000      0.0000000E+00
  -2.580000      0.0000000E+00
  -2.570000      0.0000000E+00
  -2.560000      0.0000000E+00
  -2.550000      0.0000000E+00
  -2.540000      0.0000000E+00
  -2.530000      0.0000000E+00
  -2.520000      0.0000000E+00
  -2.510000      0.0000000E+00
  -2.500000      0.0000000E+00
  -2.490000      0.0000000E+00
  -2.480000      0.0000000E+00
  -2.470000      0.0000000E+00
  -2.460000      0.0000000E+00
  -2.450000      0.0000000E+00
  -2.440000      0.0000000E+00
  -2.430000      0.0000000E+00
  -2.420000      0.0000000E+00
  -2.410000      0.0000000E+00
  -2.400000      0.0000000E+00
  -2.390000      0.0000000E+00
  -2.380000      0.0000000E+00
  -2.370000      0.0000000E+00
  -2.360000      0.0000000E+00
  -2.350000      0.0000000E+00
  -2.340000      0.0000000E+00
  -2.330000      0.0000000E+00
  -2.320000      0.0000000E+00
  -2.310000      0.0000000E+00
  -2.300000      0.0000000E+00
  -2.290000      0.0000000E+00
  -2.280000      0.0000000E+00
  -2.270000      0.0000000E+00
  -2.260000      0.0000000E+00
  -2.250000      0.0000000E+00
  -2.240000      0.0000000E+00
  -2.230000      0.0000000E+00
  -2.220000      0.0000000E+00
  -2.210000      0.0000000E+00
  -2.200000      0.0000000E+00
  -2.190000      0.0000000E+00
  -2.180000      0.0000000E+00
  -2.170000      0.0000000E+00
  -2.160000      0.0000000E+00
  -2.150000      0.0000000E+00
  -2.140000      0.0000000E+00
  -2.130000      0.0000000E+00
  -2.120000      0.0000000E+00
  -2.110000      0.0000000E+00
  -2.100000      0.0000000E+00
  -2.090000      0.0000000E+00
  -2.080000      0.0000000E+00
  -2.070000      0.0000000E+00
  -2.060000      0.0000000E+00
  -2.050000      0.0000000E+00
  -2.040000      0.0000000E+00
  -2.030000      0.0000000E+00
  -2.020000      0.0000000E+00
  -2.010000      0.0000000E+00
  -2.000000      0.0000000E+00
  -1.990000      0.0000000E+00
  -1.980000      0.0000000E+00
  -1.970000      0.0000000E+00
  -1.960000      0.0000000E+00
  -1.950000      0.0000000E+00
  -1.940000      0.0000000E+00
  -1.930000      0.0000000E+00
  -1.920000      0.0000000E+00
  -1.910000      0.0000000E+00
  -1.900000      0.0000000E+00
  -1.890000      0.0000000E+00
  -1.880000      0.0000000E+00
  -1.870000      0.0000000E+00
  -1.860000      0.0000000E+00
  -1.850000      0.0000000E+00
  -1.840000      0.0000000E+00
  -1.830000      0.0000000E+00
  -1.820000      0.0000000E+00
  -1.810000      0.0000000E+00
  -1.800000      0.0000000E+00
  -1.790000      0.0000000E+00
  -1.780000      0.0000000E+00
  -1.770000      0.0000000E+00
  -1.760000      0.0000000E+00
  -1.750000      0.0000000E+00
  -1.740000      0.0000000E+00
  -1.730000      0.0000000E+00
  -1.720000      0.0000000E+00
  -1.710000      0.0000000E+00
  -1.700000      0.0000000E+00
  -1.690000      0.0000000E+00
  -1.680000      0.0000000E+00
  -1.670000      0.0000000E+00
  -1.660000      0.0000000E+00
  -1.650000      0.0000000E+00
  -1.640000      0.0000000E+00
  -1.630000      0.0000000E+00
  -1.620000      0.0000000E+00
  -1.610000      0.0000000E+00
  -1.600000      0.0000000E+00
  -1.590000      0.0000000E+00
  -1.580000      0.0000000E+00
  -1.570000      0.0000000E+00
  -1.560000      0.0000000E+00
  -1.550000      0.0000000E+00
  -1.540000      0.0000000E+00
  -1.530000      0.0000000E+00
  -1.520000      0.0000000E+00
  -1.510000      0.0000000E+00
  -1.500000      0.0000000E+00
  -1.490000      0.0000000E+00
  -1.480000      0.0000000E+00
  -1.470000      0.0000000E+00
  -1.460000      0.0000000E+00
  -1.450000      0.0000000E+00
  -1.440000      0.0000000E+00
  -1.430000      0.0000000E+00
  -1.420000      0.0000000E+00
  -1.410000      0.0000000E+00
  -1.400000      0.0000000E+00
  -1.390000      0.0000000E+00
  -1.380000      0.0000000E+00
  -1.370000      0.0000000E+00
  -1.360000      0.0000000E+00
  -1.350000      0.0000000E+00
  -1.340000      0.0000000E+00
  -1.330000      0.0000000E+00
  -1.320000      0.0000000E+00
  -1.310000      0.0000000E+00
  -1.300000      0.0000000E+00
  -1.290000      0.0000000E+00
  -1.280000      0.0000000E+00
  -1.270000      0.0000000E+00
  -1.260000      0.0000000E+00
  -1.250000      0.0000000E+00
  -1.240000      0.0000000E+00
  -1.230000      0.0000000E+00
  -1.220000      0.0000000E+00
  -1.210000      0.0000000E+00
  -1.200000      0.0000000E+00
  -1.190000      0.0000000E+00
  -1.180000      0.0000000E+00
  -1.170000      0.0000000E+00
  -1.160000      0.0000000E+00
  -1.150000      0.0000000E+00
  -1.140000      0.0000000E+00
  -1.130000      0.0000000E+00
  -1.120000      0.0000000E+00
  -1.110000      0.0000000E+00
  -1.100000      0.0000000E+00
  -1.090000      0.0000000E+00
  -1.080000      0.0000000E+00
  -1.070000      0.0000000E+00
  -1.060000      0.0000000E+00
  -1.050000      0.0000000E+00
  -1.040000      0.0000000E+00
  -1.030000      0.0000000E+00
  -1.020000      0.0000000E+00
  -1.010000      0.0000000E+00
  -1.000000      0.0000000E+00
 -0.9900000      0.0000000E+00
 -0.9800000      0.0000000E+00
 -0.9700000      0.0000000E+00
 -0.9600000      0.0000000E+00
 -0.9500000      0.0000000E+00
 -0.9400000      0.0000000E+00
 -0.9300000      0.0000000E+00
 -0.9200000      0.0000000E+00
 -0.9100000      0.0000000E+00
 -0.9000000      0.0000000E+00
 -0.8900000      0.0000000E+00
 -0.8800000      0.0000000E+00
 -0.8700000      0.0000000E+00
 -0.8600000      0.0000000E+00
 -0.8500000      0.0000000E+00
 -0.8400000      0.0000000E+00
 -0.8300000      0.0000000E+00
 -0.8200000      0.0000000E+00
 -0.8100000      0.0000000E+00
 -0.8000000      0.0000000E+00
 -0.7900000      0.0000000E+00
 -0.7800000      0.0000000E+00
 -0.7700000      0.0000000E+00
 -0.7600000      0.0000000E+00
 -0.7500000      0.0000000E+00
 -0.7400000      0.0000000E+00
 -0.7300000      0.0000000E+00
 -0.7200000      0.0000000E+00
 -0.7100000      0.0000000E+00
 -0.7000000      0.0000000E+00
 -0.6900000      0.0000000E+00
 -0.6800000      0.0000000E+00
 -0.6700000      0.0000000E+00
 -0.6600000      0.0000000E+00
 -0.6500000      0.0000000E+00
 -0.6400000      0.0000000E+00
 -0.6300000      0.0000000E+00
 -0.6200000      0.0000000E+00
 -0.6100000      0.0000000E+00
 -0.6000000      0.0000000E+00
 -0.5900000      0.0000000E+00
 -0.5800000      0.0000000E+00
 -0.5700000      0.0000000E+00
 -0.5600000      0.0000000E+00
 -0.5500000      0.0000000E+00
 -0.5400000      0.0000000E+00
 -0.5300000      0.0000000E+00
 -0.5200000      0.0000000E+00
 -0.5100000      0.0000000E+00
 -0.5000000      0.0000000E+00
 -0.4900000      0.0000000E+00
 -0.4800000      0.0000000E+00
 -0.4700000      0.0000000E+00
 -0.4600000      0.0000000E+00
 -0.4500000      0.0000000E+00
 -0.4400000      0.0000000E+00
 -0.4300000      0.0000000E+00
 -0.4200000      0.0000000E+00
 -0.4100000      0.0000000E+00
 -0.4000000      0.0000000E+00
 -0.3900000      0.0000000E+00
 -0.3800000      0.0000000E+00
 -0.3700000      0.0000000E+00
 -0.3600000      0.0000000E+00
 -0.3500000      0.0000000E+00
 -0.3400000      0.0000000E+00
 -0.3300000      0.0000000E+00
 -0.3200000      0.0000000E+00
 -0.3100000      0.0000000E+00
 -0.3000000      0.0000000E+00
 -0.2900000      0.0000000E+00
 -0.2800000      0.0000000E+00
 -0.2700000      0.0000000E+00
 -0.2600000      0.0000000E+00
 -0.2500000      0.0000000E+00
 -0.2400000      0.0000000E+00
 -0.2300000      0.0000000E+00
 -0.2200000      0.0000000E+00
 -0.2100000      0.0000000E+00
 -0.2000000      0.0000000E+00
 -0.1900000      0.0000000E+00
 -0.1800000      0.0000000E+00
 -0.1700000      0.0000000E+00
 -0.1600000      0.0000000E+00
 -0.1500000      0.0000000E+00
 -0.1400000      0.0000000E+00
 -0.1300000      0.0000000E+00
 -0.1200000      0.0000000E+00
 -0.1100000      0.0000000E+00
 -0.1000000      0.0000000E+00
 -9.0000004E-02  0.0000000E+00
 -7.9999998E-02  0.0000000E+00
 -7.0000000E-02  0.0000000E+00
 -5.9999999E-02  0.0000000E+00
 -5.0000001E-02  0.0000000E+00
 -3.9999999E-02  0.0000000E+00
 -2.9999999E-02  0.0000000E+00
 -2.0000000E-02  0.0000000E+00
 -9.9999998E-03  0.0000000E+00
 -3.4694470E-17  0.0000000E+00
  9.9999998E-03  0.0000000E+00
  2.0000000E-02  0.0000000E+00
  2.9999999E-02  0.0000000E+00
  3.9999999E-02  0.0000000E+00
  5.0000001E-02  0.0000000E+00
  5.9999999E-02  0.0000000E+00
  7.0000000E-02  0.0000000E+00
  7.9999998E-02  0.0000000E+00
  9.0000004E-02  0.0000000E+00
  0.1000000      0.0000000E+00
  0.1100000      0.0000000E+00
  0.1200000      0.0000000E+00
  0.1300000      0.0000000E+00
  0.1400000      0.0000000E+00
  0.1500000      0.0000000E+00
  0.1600000      0.0000000E+00
  0.1700000      0.0000000E+00
  0.1800000      0.0000000E+00
  0.1900000      0.0000000E+00
  0.2000000      0.0000000E+00
  0.2100000      0.0000000E+00
  0.2200000      0.0000000E+00
  0.2300000      0.0000000E+00
  0.2400000      0.0000000E+00
  0.2500000      0.0000000E+00
  0.2600000      0.0000000E+00
  0.2700000      0.0000000E+00
  0.2800000      0.0000000E+00
  0.2900000      0.0000000E+00
  0.3000000      0.0000000E+00
  0.3100000      0.0000000E+00
  0.3200000      0.0000000E+00
  0.3300000      0.0000000E+00
  0.3400000      0.0000000E+00
  0.3500000      0.0000000E+00
  0.3600000      0.0000000E+00
  0.3700000      0.0000000E+00
  0.3800000      0.0000000E+00
  0.3900000      0.0000000E+00
  0.4000000      0.0000000E+00
  0.4100000      0.0000000E+00
  0.4200000      0.0000000E+00
  0.4300000      0.0000000E+00
  0.4400000      0.0000000E+00
  0.4500000      0.0000000E+00
  0.4600000      0.0000000E+00
  0.4700000      0.0000000E+00
  0.4800000      0.0000000E+00
  0.4900000      0.0000000E+00
  0.5000000      0.0000000E+00
  0.5100000      0.0000000E+00
  0.5200000      0.0000000E+00
  0.5300000      0.0000000E+00
  0.5400000      0.0000000E+00
  0.5500000      0.0000000E+00
  0.5600000      0.0000000E+00
  0.5700000      0.0000000E+00
  0.5800000      0.0000000E+00
  0.5900000      0.0000000E+00
  0.6000000      0.0000000E+00
  0.6100000      0.0000000E+00
  0.6200000      0.0000000E+00
  0.6300000      0.0000000E+00
  0.6400000      0.0000000E+00
  0.6500000      0.0000000E+00
  0.6600000      0.0000000E+00
  0.6700000      0.0000000E+00
  0.6800000      0.0000000E+00
  0.6900000      0.0000000E+00
  0.7000000      0.0000000E+00
  0.7100000      0.0000000E+00
  0.7200000      0.0000000E+00
  0.7300000      0.0000000E+00
  0.7400000      0.0000000E+00
  0.7500000      0.0000000E+00
  0.7600000      0.0000000E+00
  0.7700000      0.0000000E+00
  0.7800000      0.0000000E+00
  0.7900000      0.0000000E+00
  0.8000000      0.0000000E+00
  0.8100000      0.0000000E+00
  0.8200000      0.0000000E+00
  0.8300000      0.0000000E+00
  0.8400000      0.0000000E+00
  0.8500000      0.0000000E+00
  0.8600000      0.0000000E+00
  0.8700000      0.0000000E+00
  0.8800000      0.0000000E+00
  0.8900000      0.0000000E+00
  0.9000000      0.0000000E+00
  0.9100000      0.0000000E+00
  0.9200000      0.0000000E+00
  0.9300000      0.0000000E+00
  0.9400000      0.0000000E+00
  0.9500000      0.0000000E+00
  0.9600000      0.0000000E+00
  0.9700000      0.0000000E+00
  0.9800000      0.0000000E+00
  0.9900000      0.0000000E+00
   1.000000      0.0000000E+00
   1.010000      0.0000000E+00
   1.020000      0.0000000E+00
   1.030000      0.0000000E+00
   1.040000      0.0000000E+00
   1.050000      0.0000000E+00
   1.060000      0.0000000E+00
   1.070000      0.0000000E+00
   1.080000      0.0000000E+00
   1.090000      0.0000000E+00
   1.100000      0.0000000E+00
   1.110000      0.0000000E+00
   1.120000      0.0000000E+00
   1.130000      0.0000000E+00
   1.140000      0.0000000E+00
   1.150000      0.0000000E+00
   1.160000      0.0000000E+00
   1.170000      0.0000000E+00
   1.180000      0.0000000E+00
   1.190000      0.0000000E+00
   1.200000      0.0000000E+00
   1.210000      0.0000000E+00
   1.220000      0.0000000E+00
   1.230000      0.0000000E+00
   1.240000      0.0000000E+00
   1.250000      0.0000000E+00
   1.260000      0.0000000E+00
   1.270000      0.0000000E+00
   1.280000      0.0000000E+00
   1.290000      0.0000000E+00
   1.300000      0.0000000E+00
   1.310000      0.0000000E+00
   1.320000      0.0000000E+00
   1.330000      0.0000000E+00
   1.340000      0.0000000E+00
   1.350000      0.0000000E+00
   1.360000      0.0000000E+00
   1.370000      0.0000000E+00
   1.380000      0.0000000E+00
   1.390000      0.0000000E+00
   1.400000      0.0000000E+00
   1.410000      0.0000000E+00
   1.420000      0.0000000E+00
   1.430000      0.0000000E+00
   1.440000      0.0000000E+00
   1.450000      0.0000000E+00
   1.460000      0.0000000E+00
   1.470000      0.0000000E+00
   1.480000      0.0000000E+00
   1.490000      0.0000000E+00
   1.500000      0.0000000E+00
   1.510000      0.0000000E+00
   1.520000      0.0000000E+00
   1.530000      0.0000000E+00
   1.540000      0.0000000E+00
   1.550000      0.0000000E+00
   1.560000      0.0000000E+00
   1.570000      0.0000000E+00
   1.580000      0.0000000E+00
   1.590000      0.0000000E+00
   1.600000      0.0000000E+00
   1.610000      0.0000000E+00
   1.620000      0.0000000E+00
   1.630000      0.0000000E+00
   1.640000      0.0000000E+00
   1.650000      0.0000000E+00
   1.660000      0.0000000E+00
   1.670000      0.0000000E+00
   1.680000      0.0000000E+00
   1.690000      0.0000000E+00
   1.700000      0.0000000E+00
   1.710000      0.0000000E+00
   1.720000      0.0000000E+00
   1.730000      0.0000000E+00
   1.740000      0.0000000E+00
   1.750000      0.0000000E+00
   1.760000      0.0000000E+00
   1.770000      0.0000000E+00
   1.780000      0.0000000E+00
   1.790000      0.0000000E+00
   1.800000      0.0000000E+00
   1.810000      0.0000000E+00
   1.820000      0.0000000E+00
   1.830000      0.0000000E+00
   1.840000      0.0000000E+00
   1.850000      0.0000000E+00
   1.860000      0.0000000E+00
   1.870000      0.0000000E+00
   1.880000      0.0000000E+00
   1.890000      0.0000000E+00
   1.900000      0.0000000E+00
   1.910000      0.0000000E+00
   1.920000      0.0000000E+00
   1.930000      0.0000000E+00
   1.940000      0.0000000E+00
   1.950000      0.0000000E+00
   1.960000      0.0000000E+00
   1.970000      0.0000000E+00
   1.980000      0.0000000E+00
   1.990000      0.0000000E+00
   2.000000      0.0000000E+00
   2.010000      0.0000000E+00
   2.020000      0.0000000E+00
   2.030000      0.0000000E+00
   2.040000      0.0000000E+00
   2.050000      0.0000000E+00
   2.060000      0.0000000E+00
   2.070000      0.0000000E+00
   2.080000      0.0000000E+00
   2.090000     -1.3297452E-38
   2.100000     -1.5405002E-38
   2.110000     -1.7494386E-38
   2.120000     -1.9533781E-38
   2.130000     -2.1508246E-38
   2.140000     -2.2965951E-38
   2.150000     -2.3761255E-38
   2.160000     -2.4198735E-38
   2.170000     -2.4294883E-38
   2.180000     -2.4078007E-38
   2.190000     -2.3583584E-38
   2.200000     -2.2851245E-38
   2.210000     -2.1913637E-38
   2.220000     -2.0798786E-38
   2.230000     -1.9537710E-38
   2.240000     -1.8156038E-38
   2.250000     -1.7075997E-38
   2.260000     -1.6378451E-38
   2.270000     -1.5736858E-38
   2.280000     -1.4704045E-38
   2.290000     -1.3434055E-38
   2.300000     -1.2380916E-38
   2.310000      0.0000000E+00
   2.320000      0.0000000E+00
   2.330000      0.0000000E+00
   2.340000      0.0000000E+00
   2.350000      0.0000000E+00
   2.360000      1.2683511E-38
   2.370000      2.2031081E-38
   2.380000      3.2537848E-38
   2.390000      4.4223856E-38
   2.400000      5.7087324E-38
   2.410000      6.9843602E-38
   2.420000      8.2332361E-38
   2.430000      9.5579844E-38
   2.440000      1.0975715E-37
   2.450000      1.2030182E-37
   2.460000      1.3850592E-37
   2.470000      1.2930369E-37
   2.480000      7.9119368E-38
   2.490000      2.7381509E-38
   2.500000     -2.4842488E-38
   2.510000     -7.6963202E-38
   2.520000     -1.2561532E-37
   2.530000     -1.9439088E-37
   2.540000     -2.8708982E-37
   2.550000     -3.4901141E-37
   2.560000     -3.3562356E-37
   2.570000     -2.8155640E-37
   2.580000     -2.3558291E-37
   2.590000     -1.6348995E-37
   2.600000     -8.8201789E-38
   2.610000     -4.6840792E-38
   2.620000     -4.1048250E-38
   2.630000     -7.1848188E-38
   2.640000     -1.1913416E-37
   2.650000      6.3427836E-38
   2.660000      3.4586483E-37
   2.670000      4.9873423E-37
   2.680000      6.9616423E-37
   2.690000      9.5406014E-37
   2.700000      1.2658505E-36
   2.710000      1.5676050E-36
   2.720000      1.8661721E-36
   2.730000      2.2558500E-36
   2.740000      2.7436290E-36
   2.750000      3.4264918E-36
   2.760000      4.2984684E-36
   2.770000      4.9335880E-36
   2.780000      5.1542087E-36
   2.790000      4.9429534E-36
   2.800000      3.8961887E-36
   2.810000      2.2676417E-36
   2.820000      4.9145394E-37
   2.830000     -1.3231600E-36
   2.840000     -3.0154006E-36
   2.850000     -4.5167642E-36
   2.860000     -5.7126410E-36
   2.870000     -6.4663862E-36
   2.880000     -6.8025400E-36
   2.890000     -7.0126388E-36
   2.900000     -7.2396540E-36
   2.910000     -7.2619780E-36
   2.920000     -7.3682689E-36
   2.930000     -8.1571861E-36
   2.940000     -9.3790667E-36
   2.950000     -1.0907889E-35
   2.960000     -1.2823528E-35
   2.970000     -1.5265357E-35
   2.980000     -1.8360375E-35
   2.990000     -2.1760843E-35
   3.000000     -2.5388896E-35
   3.010000     -2.8903983E-35
   3.020000     -3.1042269E-35
   3.030000     -3.2003864E-35
   3.040000     -3.2236414E-35
   3.050000     -3.2366255E-35
   3.060000     -3.1583564E-35
   3.070000     -2.8797408E-35
   3.080000     -2.5460312E-35
   3.090000     -2.2382040E-35
   3.100000     -2.0705442E-35
   3.110000     -2.0187632E-35
   3.120000     -1.9719753E-35
   3.130000     -1.9497636E-35
   3.140000     -2.0639851E-35
   3.150000     -1.7945299E-35
   3.160000     -8.6504962E-36
   3.170000      4.6253511E-36
   3.180000      1.9788229E-35
   3.190000      2.9059302E-35
   3.200000      3.2719951E-35
   3.210000      3.6410883E-35
   3.220000      4.1715528E-35
   3.230000      4.9426891E-35
   3.240000      5.8900595E-35
   3.250000      6.3149192E-35
   3.260000      6.0509042E-35
   3.270000      5.6583471E-35
   3.280000      5.3128023E-35
   3.290000      5.0140218E-35
   3.300000      5.3815216E-35
   3.310000      6.4512444E-35
   3.320000      7.6393105E-35
   3.330000      9.2088446E-35
   3.340000      1.1142059E-34
   3.350000      1.3149868E-34
   3.360000      1.5331346E-34
   3.370000      1.7766241E-34
   3.380000      2.0652194E-34
   3.390000      2.4003305E-34
   3.400000      2.6774001E-34
   3.410000      2.8522144E-34
   3.420000      2.8259775E-34
   3.430000      2.5817885E-34
   3.440000      2.2481290E-34
   3.450000      1.8597288E-34
   3.460000      1.4852170E-34
   3.470000      1.1614673E-34
   3.480000      9.1523169E-35
   3.490000      7.2441050E-35
   3.500000      5.4064090E-35
   3.510000      3.7257962E-35
   3.520000      2.0188242E-35
   3.530000      3.7375472E-36
   3.540000     -5.4564684E-36
   3.550000     -1.5434469E-35
   3.560000     -3.2362777E-35
   3.570000     -5.2382158E-35
   3.580000     -7.6746006E-35
   3.590000     -1.1041137E-34
   3.600000     -1.5758581E-34
   3.610000     -2.1173704E-34
   3.620000     -2.6906437E-34
   3.630000     -3.2179610E-34
   3.640000     -3.7174958E-34
   3.650000     -4.3344178E-34
   3.660000     -5.0770345E-34
   3.670000     -5.9243676E-34
   3.680000     -6.7296294E-34
   3.690000     -7.3190305E-34
   3.700000     -7.7453874E-34
   3.710000     -8.0291857E-34
   3.720000     -8.1564256E-34
   3.730000     -8.1872474E-34
   3.740000     -8.1808327E-34
   3.750000     -8.1737945E-34
   3.760000     -8.1655100E-34
   3.770000     -8.2080693E-34
   3.780000     -8.3467235E-34
   3.790000     -8.5792840E-34
   3.800000     -8.9135083E-34
   3.810000     -9.2975221E-34
   3.820000     -9.6670139E-34
   3.830000     -9.9714862E-34
   3.840000     -1.0137525E-33
   3.850000     -1.0093759E-33
   3.860000     -9.8656348E-34
   3.870000     -9.4244332E-34
   3.880000     -8.7288822E-34
   3.890000     -7.7772387E-34
   3.900000     -6.5720140E-34
   3.910000     -5.2001785E-34
   3.920000     -3.7468182E-34
   3.930000     -2.2585338E-34
   3.940000     -7.7119696E-35
   3.950000      7.3593534E-35
   3.960000      2.2968058E-34
   3.970000      3.8847549E-34
   3.980000      5.4940898E-34
   3.990000      7.1029085E-34
   4.000000      8.7479114E-34
   4.010000      1.0529486E-33
   4.020000      1.2490037E-33
   4.030000      1.4618333E-33
   4.040000      1.7004264E-33
   4.050000      1.9652704E-33
   4.060000      2.2536567E-33
   4.070000      2.5584916E-33
   4.080000      2.8712840E-33
   4.090000      3.1911017E-33
   4.100000      3.5098516E-33
   4.110000      3.8212379E-33
   4.120000      4.1252711E-33
   4.130000      4.4211794E-33
   4.140000      4.7064920E-33
   4.150000      4.9804619E-33
   4.160000      5.2412538E-33
   4.170000      5.4913487E-33
   4.180000      5.7302631E-33
   4.190000      5.9565697E-33
   4.200000      6.1727633E-33
   4.210000      6.3784337E-33
   4.220000      6.5680857E-33
   4.230000      6.7354217E-33
   4.240000      6.8763033E-33
   4.250000      6.9866881E-33
   4.260000      7.0587040E-33
   4.270000      7.0825717E-33
   4.280000      7.0514431E-33
   4.290000      6.9578664E-33
   4.300000      6.7947879E-33
   4.310000      6.5578185E-33
   4.320000      6.2429403E-33
   4.330000      5.8489914E-33
   4.340000      5.3753718E-33
   4.350000      4.8213213E-33
   4.360000      4.1865881E-33
   4.370000      3.4705931E-33
   4.380000      2.6728729E-33
   4.390000      1.7967958E-33
   4.400000      8.4345356E-34
   4.410000     -1.9509751E-34
   4.420000     -1.3245745E-33
   4.430000     -2.5448896E-33
   4.440000     -3.8628133E-33
   4.450000     -5.2847493E-33
   4.460000     -6.8141608E-33
   4.470000     -8.4502865E-33
   4.480000     -1.0192189E-32
   4.490000     -1.2038853E-32
   4.500000     -1.3989253E-32
   4.510000     -1.6039174E-32
   4.520000     -1.8176383E-32
   4.530000     -2.0392070E-32
   4.540000     -2.2675357E-32
   4.550000     -2.5012595E-32
   4.560000     -2.7392248E-32
   4.570000     -2.9804221E-32
   4.580000     -3.2237492E-32
   4.590000     -3.4680592E-32
   4.600000     -3.7123264E-32
   4.610000     -3.9553889E-32
   4.620000     -4.1959909E-32
   4.630000     -4.4328406E-32
   4.640000     -4.6644060E-32
   4.650000     -4.8889410E-32
   4.660000     -5.1043979E-32
   4.670000     -5.3084384E-32
   4.680000     -5.4984495E-32
   4.690000     -5.6715592E-32
   4.700000     -5.8247373E-32
   4.710000     -5.9548757E-32
   4.720000     -6.0588100E-32
   4.730000     -6.1333316E-32
   4.740000     -6.1752844E-32
   4.750000     -6.1816092E-32
   4.760000     -6.1493712E-32
   4.770000     -6.0757888E-32
   4.780000     -5.9580313E-32
   4.790000     -5.7933446E-32
   4.800000     -5.5791048E-32
   4.810000     -5.3125544E-32
   4.820000     -4.9908710E-32
   4.830000     -4.6112095E-32
   4.840000     -4.1706948E-32
   4.850000     -3.6663404E-32
   4.860000     -3.0950522E-32
   4.870000     -2.4539353E-32
   4.880000     -1.7403012E-32
   4.890000     -9.5136424E-33
   4.900000     -8.4881152E-34
   4.910000      8.6101383E-33
   4.920000      1.8881133E-32
   4.930000      2.9975359E-32
   4.940000      4.1897484E-32
   4.950000      5.4647774E-32
   4.960000      6.8221978E-32
   4.970000      8.2609899E-32
   4.980000      9.7796651E-32
   4.990000      1.1376240E-31
   5.000000      1.3048336E-31
   5.010000      1.4792919E-31
   5.020000      1.6606392E-31
   5.030000      1.8484825E-31
   5.040000      2.0423652E-31
   5.050000      2.2417613E-31
   5.060000      2.4460711E-31
   5.070000      2.6546133E-31
   5.080000      2.8666146E-31
   5.090000      3.0812070E-31
   5.100000      3.2974201E-31
   5.110000      3.5141803E-31
   5.120000      3.7303105E-31
   5.130000      3.9445279E-31
   5.140000      4.1554506E-31
   5.150000      4.3616022E-31
   5.160000      4.5614146E-31
   5.170000      4.7532351E-31
   5.180000      4.9353300E-31
   5.190000      5.1058890E-31
   5.200000      5.2630272E-31
   5.210000      5.4047838E-31
   5.220000      5.5291239E-31
   5.230000      5.6339371E-31
   5.240000      5.7170384E-31
   5.250000      5.7761634E-31
   5.260000      5.8089743E-31
   5.270000      5.8130584E-31
   5.280000      5.7859337E-31
   5.290000      5.7250651E-31
   5.300000      5.6278682E-31
   5.310000      5.4917187E-31
   5.320000      5.3139774E-31
   5.330000      5.0920036E-31
   5.340000      4.8231718E-31
   5.350000      4.5048945E-31
   5.360000      4.1346406E-31
   5.370000      3.7099225E-31
   5.380000      3.2283953E-31
   5.390000      2.6878149E-31
   5.400000      2.0859989E-31
   5.410000      1.4209364E-31
   5.420000      6.9076109E-32
   5.430000     -1.0623886E-32
   5.440000     -9.7158981E-32
   5.450000     -1.9066157E-31
   5.460000     -2.9124144E-31
   5.470000     -3.9898357E-31
   5.480000     -5.1394531E-31
   5.490000     -6.3615352E-31
   5.500000     -7.6560140E-31
   5.510000     -9.0224514E-31
   5.520000     -1.0460014E-30
   5.530000     -1.1967437E-30
   5.540000     -1.3542995E-30
   5.550000     -1.5184480E-30
   5.560000     -1.6889172E-30
   5.570000     -1.8653813E-30
   5.580000     -2.0474586E-30
   5.590000     -2.2347092E-30
   5.600000     -2.4266324E-30
   5.610000     -2.6226665E-30
   5.620000     -2.8221844E-30
   5.630000     -3.0244930E-30
   5.640000     -3.2288298E-30
   5.650000     -3.4343627E-30
   5.660000     -3.6401848E-30
   5.670000     -3.8453147E-30
   5.680000     -4.0486944E-30
   5.690000     -4.2491864E-30
   5.700000     -4.4455726E-30
   5.710000     -4.6365545E-30
   5.720000     -4.8207524E-30
   5.730000     -4.9967041E-30
   5.740000     -5.1628679E-30
   5.750000     -5.3176216E-30
   5.760000     -5.4592655E-30
   5.770000     -5.5860240E-30
   5.780000     -5.6960492E-30
   5.790000     -5.7874225E-30
   5.800000     -5.8581609E-30
   5.810000     -5.9062170E-30
   5.820000     -5.9294865E-30
   5.830000     -5.9258096E-30
   5.840000     -5.8929770E-30
   5.850000     -5.8287375E-30
   5.860000     -5.7308024E-30
   5.870000     -5.5968532E-30
   5.880000     -5.4245491E-30
   5.890000     -5.2115348E-30
   5.900000     -4.9554508E-30
   5.910000     -4.6539443E-30
   5.920000     -4.3046802E-30
   5.930000     -3.9053545E-30
   5.940000     -3.4537051E-30
   5.950000     -2.9475290E-30
   5.960000     -2.3846953E-30
   5.970000     -1.7631603E-30
   5.980000     -1.0809859E-30
   5.990000     -3.3635633E-31
   6.000000      4.7240715E-31
   6.010000      1.3468251E-30
   6.020000      2.2882410E-30
   6.030000      3.2978022E-30
   6.040000      4.3764422E-30
   6.050000      5.5248550E-30
   6.060000      6.7434759E-30
   6.070000      8.0324580E-30
   6.080000      9.3916522E-30
   6.090000      1.0820576E-29
   6.100000      1.2318400E-29
   6.110000      1.3883916E-29
   6.120000      1.5515514E-29
   6.130000      1.7211159E-29
   6.140000      1.8968362E-29
   6.150000      2.0784156E-29
   6.160000      2.2655074E-29
   6.170000      2.4577129E-29
   6.180000      2.6545785E-29
   6.190000      2.8555932E-29
   6.200000      3.0601865E-29
   6.210000      3.2677271E-29
   6.220000      3.4775196E-29
   6.230000      3.6888034E-29
   6.240000      3.9007520E-29
   6.250000      4.1124686E-29
   6.260000      4.3229875E-29
   6.270000      4.5312702E-29
   6.280000      4.7362060E-29
   6.290000      4.9366095E-29
   6.300000      5.1312220E-29
   6.310000      5.3187083E-29
   6.320000      5.4976585E-29
   6.330000      5.6665878E-29
   6.340000      5.8239393E-29
   6.350000      5.9680801E-29
   6.360000      6.0973082E-29
   6.370000      6.2098481E-29
   6.380000      6.3038600E-29
   6.390000      6.3774378E-29
   6.400000      6.4286115E-29
   6.410000      6.4553555E-29
   6.420000      6.4555884E-29
   6.430000      6.4271809E-29
   6.440000      6.3679592E-29
   6.450000      6.2757131E-29
   6.460000      6.1481991E-29
   6.470000      5.9831511E-29
   6.480000      5.7782858E-29
   6.490000      5.5313099E-29
   6.500000      5.2399336E-29
   6.510000      4.9018775E-29
   6.520000      4.5148850E-29
   6.530000      4.0767321E-29
   6.540000      3.5852384E-29
   6.550000      3.0382803E-29
   6.560000      2.4338073E-29
   6.570000      1.7698533E-29
   6.580000      1.0445515E-29
   6.590000      2.5614983E-30
   6.600000     -5.9697039E-30
   6.610000     -1.5162803E-29
   6.620000     -2.5030839E-29
   6.630000     -3.5585013E-29
   6.640000     -4.6834488E-29
   6.650000     -5.8786177E-29
   6.660000     -7.1444586E-29
   6.670000     -8.4811587E-29
   6.680000     -9.8886169E-29
   6.690000     -1.1366430E-28
   6.700000     -1.2913868E-28
   6.710000     -1.4529849E-28
   6.720000     -1.6212919E-28
   6.730000     -1.7961235E-28
   6.740000     -1.9772532E-28
   6.750000     -2.1644109E-28
   6.760000     -2.3572795E-28
   6.770000     -2.5554948E-28
   6.780000     -2.7586411E-28
   6.790000     -2.9662506E-28
   6.800000     -3.1778003E-28
   6.810000     -3.3927117E-28
   6.820000     -3.6103471E-28
   6.830000     -3.8300080E-28
   6.840000     -4.0509351E-28
   6.850000     -4.2723044E-28
   6.860000     -4.4932278E-28
   6.870000     -4.7127511E-28
   6.880000     -4.9298525E-28
   6.890000     -5.1434420E-28
   6.900000     -5.3523611E-28
   6.910000     -5.5553815E-28
   6.920000     -5.7512067E-28
   6.930000     -5.9384706E-28
   6.940000     -6.1157366E-28
   6.950000     -6.2815024E-28
   6.960000     -6.4341983E-28
   6.970000     -6.5721854E-28
   6.980000     -6.6937631E-28
   6.990000     -6.7971687E-28
   7.000000     -6.8805792E-28
   7.010000     -6.9421151E-28
   7.020000     -6.9798450E-28
   7.030000     -6.9917868E-28
   7.040000     -6.9759133E-28
   7.050000     -6.9301604E-28
   7.060000     -6.8524279E-28