  -2.600000      0.0000000E+00
  -2.590000      0.0000000E+00
  -2.580000      0.0000000E+00
  -2.570000      0.0000000E+00
  -2.560000      0.0000000E+00
  -2.550000      0.0000000E+00
  -2.540000      0.0000000E+00
  -2.530000      0.0000000E+00
  -2.520000      0.0000000E+00
  -2.510000      0.0000000E+00
  -2.500000      0.0000000E+00
  -2.490000      0.0000000E+00
  -2.480000      0.0000000E+00
  -2.470000      0.0000000E+00
  -2.460000      0.0000000E+00
  -2.450000      0.0000000E+00
  -2.440000      0.0000000E+00
  -2.430000      0.0000000E+00
  -2.420000      0.0000000E+00
  -2.410000      0.0000000E+00
  -2.400000      0.0000000E+00
  -2.390000      0.0000000E+00
  -2.380000      0.0000000E+00
  -2.370000      0.0000000E+00
  -2.360000      0.0000000E+00
  -2.350000      0.0000000E+00
  -2.340000      0.0000000E+00
  -2.330000      0.0000000E+00
  -2.320000      0.0000000E+00
  -2.310000      0.0000000E+00
  -2.300000      0.0000000E+00
  -2.290000      0.0000000E+00
  -2.280000      0.0000000E+00
  -2.270000      0.0000000E+00
  -2.260000      0.0000000E+00
  -2.250000      0.0000000E+00
  -2.240000      0.0000000E+00
  -2.230000      0.0000000E+00
  -2.220000      0.0000000E+00
  -2.210000      0.0000000E+00
  -2.200000      0.0000000E+00
  -2.190000      0.0000000E+00
  -2.180000      0.0000000E+00
  -2.170000      0.0000000E+00
  -2.160000      0.0000000E+00
  -2.150000      0.0000000E+00
  -2.140000      0.0000000E+00
  -2.130000      0.0000000E+00
  -2.120000      0.0000000E+00
  -2.110000      0.0000000E+00
  -2.100000      0.0000000E+00
  -2.090000      0.0000000E+00
  -2.080000      0.0000000E+00
  -2.070000      0.0000000E+00
  -2.060000      0.0000000E+00
  -2.050000      0.0000000E+00
  -2.040000      0.0000000E+00
  -2.030000      0.0000000E+00
  -2.020000      0.0000000E+00
  -2.010000      0.0000000E+00
  -2.000000      0.0000000E+00
  -1.990000      0.0000000E+00
  -1.980000      0.0000000E+00
  -1.970000      0.0000000E+00
  -1.960000      0.0000000E+00
  -1.950000      0.0000000E+00
  -1.940000      0.0000000E+00
  -1.930000      0.0000000E+00
  -1.920000      0.0000000E+00
  -1.910000      0.0000000E+00
  -1.900000      0.0000000E+00
  -1.890000      0.0000000E+00
  -1.880000      0.0000000E+00
  -1.870000      0.0000000E+00
  -1.860000      0.0000000E+00
  -1.850000      0.0000000E+00
  -1.840000      0.0000000E+00
  -1.830000      0.0000000E+00
  -1.820000      0.0000000E+00
  -1.810000      0.0000000E+00
  -1.800000      0.0000000E+00
  -1.790000      0.0000000E+00
  -1.780000      0.0000000E+00
  -1.770000      0.0000000E+00
  -1.760000      0.0000000E+00
  -1.750000      0.0000000E+00
  -1.740000      0.0000000E+00
  -1.730000      0.0000000E+00
  -1.720000      0.0000000E+00
  -1.710000      0.0000000E+00
  -1.700000      0.0000000E+00
  -1.690000      0.0000000E+00
  -1.680000      0.0000000E+00
  -1.670000      0.0000000E+00
  -1.660000      0.0000000E+00
  -1.650000      0.0000000E+00
  -1.640000      0.0000000E+00
  -1.630000      0.0000000E+00
  -1.620000      0.0000000E+00
  -1.610000      0.0000000E+00
  -1.600000      0.0000000E+00
  -1.590000      0.0000000E+00
  -1.580000      0.0000000E+00
  -1.570000      0.0000000E+00
  -1.560000      0.0000000E+00
  -1.550000      0.0000000E+00
  -1.540000      0.0000000E+00
  -1.530000      0.0000000E+00
  -1.520000      0.0000000E+00
  -1.510000      0.0000000E+00
  -1.500000      0.0000000E+00
  -1.490000      0.0000000E+00
  -1.480000      0.0000000E+00
  -1.470000      0.0000000E+00
  -1.460000      0.0000000E+00
  -1.450000      0.0000000E+00
  -1.440000      0.0000000E+00
  -1.430000      0.0000000E+00
  -1.420000      0.0000000E+00
  -1.410000      0.0000000E+00
  -1.400000      0.0000000E+00
  -1.390000      0.0000000E+00
  -1.380000      0.0000000E+00
  -1.370000      0.0000000E+00
  -1.360000      0.0000000E+00
  -1.350000      0.0000000E+00
  -1.340000      0.0000000E+00
  -1.330000      0.0000000E+00
  -1.320000      0.0000000E+00
  -1.310000      0.0000000E+00
  -1.300000      0.0000000E+00
  -1.290000      0.0000000E+00
  -1.280000      0.0000000E+00
  -1.270000      0.0000000E+00
  -1.260000      0.0000000E+00
  -1.250000      0.0000000E+00
  -1.240000      0.0000000E+00
  -1.230000      0.0000000E+00
  -1.220000      0.0000000E+00
  -1.210000      0.0000000E+00
  -1.200000      0.0000000E+00
  -1.190000      0.0000000E+00
  -1.180000      0.0000000E+00
  -1.170000      0.0000000E+00
  -1.160000      0.0000000E+00
  -1.150000      0.0000000E+00
  -1.140000      0.0000000E+00
  -1.130000      0.0000000E+00
  -1.120000      0.0000000E+00
  -1.110000      0.0000000E+00
  -1.100000      0.0000000E+00
  -1.090000      0.0000000E+00
  -1.080000      0.0000000E+00
  -1.070000      0.0000000E+00
  -1.060000      0.0000000E+00
  -1.050000      0.0000000E+00
  -1.040000      0.0000000E+00
  -1.030000      0.0000000E+00
  -1.020000      0.0000000E+00
  -1.010000      0.0000000E+00
  -1.000000      0.0000000E+00
 -0.9900000      0.0000000E+00
 -0.9800000      0.0000000E+00
 -0.9700000      0.0000000E+00
 -0.9600000      0.0000000E+00
 -0.9500000      0.0000000E+00
 -0.9400000      0.0000000E+00
 -0.9300000      0.0000000E+00
 -0.9200000      0.0000000E+00
 -0.9100000      0.0000000E+00
 -0.9000000      0.0000000E+00
 -0.8900000      0.0000000E+00
 -0.8800000      0.0000000E+00
 -0.8700000      0.0000000E+00
 -0.8600000      0.0000000E+00
 -0.8500000      0.0000000E+00
 -0.8400000      0.0000000E+00
 -0.8300000      0.0000000E+00
 -0.8200000      0.0000000E+00
 -0.8100000      0.0000000E+00
 -0.8000000      0.0000000E+00
 -0.7900000      0.0000000E+00
 -0.7800000      0.0000000E+00
 -0.7700000      0.0000000E+00
 -0.7600000      0.0000000E+00
 -0.7500000      0.0000000E+00
 -0.7400000      0.0000000E+00
 -0.7300000      0.0000000E+00
 -0.7200000      0.0000000E+00
 -0.7100000      0.0000000E+00
 -0.7000000      0.0000000E+00
 -0.6900000      0.0000000E+00
 -0.6800000      0.0000000E+00
 -0.6700000      0.0000000E+00
 -0.6600000      0.0000000E+00
 -0.6500000      0.0000000E+00
 -0.6400000      0.0000000E+00
 -0.6300000      0.0000000E+00
 -0.6200000      0.0000000E+00
 -0.6100000      0.0000000E+00
 -0.6000000      0.0000000E+00
 -0.5900000      0.0000000E+00
 -0.5800000      0.0000000E+00
 -0.5700000      0.0000000E+00
 -0.5600000      0.0000000E+00
 -0.5500000      0.0000000E+00
 -0.5400000      0.0000000E+00
 -0.5300000      0.0000000E+00
 -0.5200000      0.0000000E+00
 -0.5100000      0.0000000E+00
 -0.5000000      0.0000000E+00
 -0.4900000      0.0000000E+00
 -0.4800000      0.0000000E+00
 -0.4700000      0.0000000E+00
 -0.4600000      0.0000000E+00
 -0.4500000      0.0000000E+00
 -0.4400000      0.0000000E+00
 -0.4300000      0.0000000E+00
 -0.4200000      0.0000000E+00
 -0.4100000      0.0000000E+00
 -0.4000000      0.0000000E+00
 -0.3900000      0.0000000E+00
 -0.3800000      0.0000000E+00
 -0.3700000      0.0000000E+00
 -0.3600000      0.0000000E+00
 -0.3500000      0.0000000E+00
 -0.3400000      0.0000000E+00
 -0.3300000      0.0000000E+00
 -0.3200000      0.0000000E+00
 -0.3100000      0.0000000E+00
 -0.3000000      0.0000000E+00
 -0.2900000      0.0000000E+00
 -0.2800000      0.0000000E+00
 -0.2700000      0.0000000E+00
 -0.2600000      0.0000000E+00
 -0.2500000      0.0000000E+00
 -0.2400000      0.0000000E+00
 -0.2300000      0.0000000E+00
 -0.2200000      0.0000000E+00
 -0.2100000      0.0000000E+00
 -0.2000000      0.0000000E+00
 -0.1900000      0.0000000E+00
 -0.1800000      0.0000000E+00
 -0.1700000      0.0000000E+00
 -0.1600000      0.0000000E+00
 -0.1500000      0.0000000E+00
 -0.1400000      0.0000000E+00
 -0.1300000      0.0000000E+00
 -0.1200000      0.0000000E+00
 -0.1100000      0.0000000E+00
 -0.1000000      0.0000000E+00
 -9.0000004E-02  0.0000000E+00
 -7.9999998E-02  0.0000000E+00
 -7.0000000E-02  0.0000000E+00
 -5.9999999E-02  0.0000000E+00
 -5.0000001E-02  0.0000000E+00
 -3.9999999E-02  0.0000000E+00
 -2.9999999E-02  0.0000000E+00
 -2.0000000E-02  0.0000000E+00
 -9.9999998E-03  0.0000000E+00
 -3.4694470E-17  0.0000000E+00
  9.9999998E-03  0.0000000E+00
  2.0000000E-02  0.0000000E+00
  2.9999999E-02  0.0000000E+00
  3.9999999E-02  0.0000000E+00
  5.0000001E-02  0.0000000E+00
  5.9999999E-02  0.0000000E+00
  7.0000000E-02  0.0000000E+00
  7.9999998E-02  0.0000000E+00
  9.0000004E-02  0.0000000E+00
  0.1000000      0.0000000E+00
  0.1100000      0.0000000E+00
  0.1200000      0.0000000E+00
  0.1300000      0.0000000E+00
  0.1400000      0.0000000E+00
  0.1500000      0.0000000E+00
  0.1600000      0.0000000E+00
  0.1700000      0.0000000E+00
  0.1800000      0.0000000E+00
  0.1900000      0.0000000E+00
  0.2000000      0.0000000E+00
  0.2100000      0.0000000E+00
  0.2200000      0.0000000E+00
  0.2300000      0.0000000E+00
  0.2400000      0.0000000E+00
  0.2500000      0.0000000E+00
  0.2600000      0.0000000E+00
  0.2700000      0.0000000E+00
  0.2800000      0.0000000E+00
  0.2900000      0.0000000E+00
  0.3000000      0.0000000E+00
  0.3100000      0.0000000E+00
  0.3200000      0.0000000E+00
  0.3300000      0.0000000E+00
  0.3400000      0.0000000E+00
  0.3500000      0.0000000E+00
  0.3600000      0.0000000E+00
  0.3700000      0.0000000E+00
  0.3800000      0.0000000E+00
  0.3900000      0.0000000E+00
  0.4000000      0.0000000E+00
  0.4100000      0.0000000E+00
  0.4200000      0.0000000E+00
  0.4300000      0.0000000E+00
  0.4400000      0.0000000E+00
  0.4500000      0.0000000E+00
  0.4600000      0.0000000E+00
  0.4700000      0.0000000E+00
  0.4800000      0.0000000E+00
  0.4900000      0.0000000E+00
  0.5000000      0.0000000E+00
  0.5100000      0.0000000E+00
  0.5200000      0.0000000E+00
  0.5300000      0.0000000E+00
  0.5400000      0.0000000E+00
  0.5500000      0.0000000E+00
  0.5600000      0.0000000E+00
  0.5700000      0.0000000E+00
  0.5800000      0.0000000E+00
  0.5900000      0.0000000E+00
  0.6000000      0.0000000E+00
  0.6100000      0.0000000E+00
  0.6200000      0.0000000E+00
  0.6300000      0.0000000E+00
  0.6400000      0.0000000E+00
  0.6500000      0.0000000E+00
  0.6600000      0.0000000E+00
  0.6700000      0.0000000E+00
  0.6800000      0.0000000E+00
  0.6900000      0.0000000E+00
  0.7000000      0.0000000E+00
  0.7100000      0.0000000E+00
  0.7200000      0.0000000E+00
  0.7300000      0.0000000E+00
  0.7400000      0.0000000E+00
  0.7500000      0.0000000E+00
  0.7600000      0.0000000E+00
  0.7700000      0.0000000E+00
  0.7800000      0.0000000E+00
  0.7900000      0.0000000E+00
  0.8000000      0.0000000E+00
  0.8100000      0.0000000E+00
  0.8200000      0.0000000E+00
  0.8300000      0.0000000E+00
  0.8400000      0.0000000E+00
  0.8500000      0.0000000E+00
  0.8600000      0.0000000E+00
  0.8700000      0.0000000E+00
  0.8800000      0.0000000E+00
  0.8900000      0.0000000E+00
  0.9000000      0.0000000E+00
  0.9100000      0.0000000E+00
  0.9200000      0.0000000E+00
  0.9300000      0.0000000E+00
  0.9400000      0.0000000E+00
  0.9500000      0.0000000E+00
  0.9600000      0.0000000E+00
  0.9700000      0.0000000E+00
  0.9800000      0.0000000E+00
  0.9900000      0.0000000E+00
   1.000000      0.0000000E+00
   1.010000      0.0000000E+00
   1.020000      0.0000000E+00
   1.030000      0.0000000E+00
   1.040000      0.0000000E+00
   1.050000      0.0000000E+00
   1.060000      0.0000000E+00
   1.070000      0.0000000E+00
   1.080000      0.0000000E+00
   1.090000      0.0000000E+00
   1.100000      0.0000000E+00
   1.110000      0.0000000E+00
   1.120000      0.0000000E+00
   1.130000      0.0000000E+00
   1.140000      0.0000000E+00
   1.150000      0.0000000E+00
   1.160000      0.0000000E+00
   1.170000      0.0000000E+00
   1.180000      0.0000000E+00
   1.190000      0.0000000E+00
   1.200000      0.0000000E+00
   1.210000      0.0000000E+00
   1.220000      0.0000000E+00
   1.230000      0.0000000E+00
   1.240000      0.0000000E+00
   1.250000      0.0000000E+00
   1.260000      0.0000000E+00
   1.270000      0.0000000E+00
   1.280000      0.0000000E+00
   1.290000      0.0000000E+00
   1.300000      0.0000000E+00
   1.310000      0.0000000E+00
   1.320000      0.0000000E+00
   1.330000      0.0000000E+00
   1.340000      0.0000000E+00
   1.350000      0.0000000E+00
   1.360000      0.0000000E+00
   1.370000      0.0000000E+00
   1.380000      0.0000000E+00
   1.390000      0.0000000E+00
   1.400000      0.0000000E+00
   1.410000      0.0000000E+00
   1.420000      0.0000000E+00
   1.430000      0.0000000E+00
   1.440000      0.0000000E+00
   1.450000      0.0000000E+00
   1.460000      0.0000000E+00
   1.470000      0.0000000E+00
   1.480000      0.0000000E+00
   1.490000      0.0000000E+00
   1.500000      0.0000000E+00
   1.510000      0.0000000E+00
   1.520000      0.0000000E+00
   1.530000      0.0000000E+00
   1.540000      0.0000000E+00
   1.550000      0.0000000E+00
   1.560000      0.0000000E+00
   1.570000      0.0000000E+00
   1.580000      0.0000000E+00
   1.590000      0.0000000E+00
   1.600000      0.0000000E+00
   1.610000      0.0000000E+00
   1.620000      0.0000000E+00
   1.630000      0.0000000E+00
   1.640000      0.0000000E+00
   1.650000      0.0000000E+00
   1.660000      0.0000000E+00
   1.670000      0.0000000E+00
   1.680000      0.0000000E+00
   1.690000      0.0000000E+00
   1.700000      0.0000000E+00
   1.710000      0.0000000E+00
   1.720000      0.0000000E+00
   1.730000      0.0000000E+00
   1.740000      0.0000000E+00
   1.750000      0.0000000E+00
   1.760000      0.0000000E+00
   1.770000      0.0000000E+00
   1.780000      0.0000000E+00
   1.790000      0.0000000E+00
   1.800000      0.0000000E+00
   1.810000      0.0000000E+00
   1.820000      0.0000000E+00
   1.830000      0.0000000E+00
   1.840000      0.0000000E+00
   1.850000      0.0000000E+00
   1.860000      0.0000000E+00
   1.870000      0.0000000E+00
   1.880000      0.0000000E+00
   1.890000      0.0000000E+00
   1.900000      0.0000000E+00
   1.910000      0.0000000E+00
   1.920000      0.0000000E+00
   1.930000      0.0000000E+00
   1.940000      0.0000000E+00
   1.950000      0.0000000E+00
   1.960000      0.0000000E+00
   1.970000      0.0000000E+00
   1.980000      0.0000000E+00
   1.990000      0.0000000E+00
   2.000000      0.0000000E+00
   2.010000      0.0000000E+00
   2.020000      0.0000000E+00
   2.030000      0.0000000E+00
   2.040000      0.0000000E+00
   2.050000      0.0000000E+00
   2.060000      0.0000000E+00
   2.070000     -1.1756010E-38
   2.080000     -1.3076081E-38
   2.090000     -1.4484125E-38
   2.100000     -1.5606059E-38
   2.110000     -1.6330301E-38
   2.120000     -1.7182521E-38
   2.130000     -1.8354879E-38
   2.140000     -2.0412656E-38
   2.150000     -2.3355065E-38
   2.160000     -2.6798348E-38
   2.170000     -3.0704139E-38
   2.180000     -3.5000717E-38
   2.190000     -3.9589176E-38
   2.200000     -4.4369123E-38
   2.210000     -4.9254783E-38
   2.220000     -5.3753136E-38
   2.230000     -5.7980501E-38
   2.240000     -6.2497093E-38
   2.250000     -6.7716039E-38
   2.260000     -7.3691041E-38
   2.270000     -7.9760541E-38
   2.280000     -8.5219535E-38
   2.290000     -9.0506275E-38
   2.300000     -9.4901066E-38
   2.310000     -9.7722183E-38
   2.320000     -9.9822763E-38
   2.330000     -1.0096190E-37
   2.340000     -9.9356276E-38
   2.350000     -9.4860956E-38
   2.360000     -8.7368067E-38
   2.370000     -7.6314821E-38
   2.380000     -6.2806825E-38
   2.390000     -5.1211215E-38
   2.400000     -4.2041541E-38
   2.410000     -3.0947817E-38
   2.420000     -1.7727544E-38
   2.430000      0.0000000E+00
   2.440000      0.0000000E+00
   2.450000      2.6722095E-38
   2.460000      4.7786946E-38
   2.470000      9.0205085E-38
   2.480000      1.5452161E-37
   2.490000      2.2502851E-37
   2.500000      3.0014300E-37
   2.510000      3.7731210E-37
   2.520000      4.5575567E-37
   2.530000      5.4758143E-37
   2.540000      6.5202462E-37
   2.550000      7.6247918E-37
   2.560000      8.4392283E-37
   2.570000      8.8224182E-37
   2.580000      9.0315924E-37
   2.590000      9.1082185E-37
   2.600000      9.1428182E-37
   2.610000      9.0422808E-37
   2.620000      8.7770717E-37
   2.630000      9.0054058E-37
   2.640000      9.7765101E-37
   2.650000      1.1070656E-36
   2.660000      1.2895260E-36
   2.670000      1.3793427E-36
   2.680000      1.3652556E-36
   2.690000      1.3538633E-36
   2.700000      1.3626663E-36
   2.710000      1.4315411E-36
   2.720000      1.5492994E-36
   2.730000      1.6428635E-36
   2.740000      1.7089194E-36
   2.750000      1.7513040E-36
   2.760000      1.6474384E-36
   2.770000      1.3734208E-36
   2.780000      1.0584149E-36
   2.790000      6.9589724E-37
   2.800000      3.0546300E-37
   2.810000     -9.7434580E-38
   2.820000     -5.8084723E-37
   2.830000     -1.1732774E-36
   2.840000     -1.8831356E-36
   2.850000     -2.7533763E-36
   2.860000     -3.7751413E-36
   2.870000     -4.9046802E-36
   2.880000     -6.1355037E-36
   2.890000     -7.4902839E-36
   2.900000     -8.9177877E-36
   2.910000     -1.0377807E-35
   2.920000     -1.1880881E-35
   2.930000     -1.3515025E-35
   2.940000     -1.5413190E-35
   2.950000     -1.7472105E-35
   2.960000     -1.9533043E-35
   2.970000     -2.1499367E-35
   2.980000     -2.3359052E-35
   2.990000     -2.5349940E-35
   3.000000     -2.7530121E-35
   3.010000     -2.9408280E-35
   3.020000     -3.0625106E-35
   3.030000     -3.1344135E-35
   3.040000     -3.1678321E-35
   3.050000     -3.1258470E-35
   3.060000     -3.0130193E-35
   3.070000     -2.8590066E-35
   3.080000     -2.6689051E-35
   3.090000     -2.4341535E-35
   3.100000     -2.1534800E-35
   3.110000     -1.8459599E-35
   3.120000     -1.5133464E-35
   3.130000     -1.1574650E-35
   3.140000     -7.9243422E-36
   3.150000     -4.3093857E-36
   3.160000     -6.1090241E-37
   3.170000      2.8037219E-36
   3.180000      6.0158237E-36
   3.190000      9.6044224E-36
   3.200000      1.3340722E-35
   3.210000      1.7307960E-35
   3.220000      2.1496600E-35
   3.230000      2.5789370E-35
   3.240000      3.0519805E-35
   3.250000      3.4218896E-35
   3.260000      3.8634238E-35
   3.270000      4.6372919E-35
   3.280000      5.6599737E-35
   3.290000      6.8641385E-35
   3.300000      8.2185388E-35
   3.310000      9.7463876E-35
   3.320000      1.1170965E-34
   3.330000      1.2726313E-34
   3.340000      1.4637675E-34
   3.350000      1.6595311E-34
   3.360000      1.8564123E-34
   3.370000      2.0375447E-34
   3.380000      2.1995807E-34
   3.390000      2.3523364E-34
   3.400000      2.4889141E-34
   3.410000      2.6177272E-34
   3.420000      2.7344949E-34
   3.430000      2.8227848E-34
   3.440000      2.8820894E-34
   3.450000      2.9130610E-34
   3.460000      2.9119950E-34
   3.470000      2.8755629E-34
   3.480000      2.8096760E-34
   3.490000      2.7117261E-34
   3.500000      2.5612794E-34
   3.510000      2.3626924E-34
   3.520000      2.1341352E-34
   3.530000      1.8729231E-34
   3.540000      1.5818900E-34
   3.550000      1.2648406E-34
   3.560000      9.1259068E-35
   3.570000      5.2239497E-35
   3.580000      9.7228464E-36
   3.590000     -3.8141440E-35
   3.600000     -8.9188923E-35
   3.610000     -1.4216273E-34
   3.620000     -1.9736660E-34
   3.630000     -2.5295050E-34
   3.640000     -3.0957445E-34
   3.650000     -3.6627672E-34
   3.660000     -4.2114702E-34
   3.670000     -4.7703466E-34
   3.680000     -5.3900172E-34
   3.690000     -6.0473945E-34
   3.700000     -6.7184030E-34
   3.710000     -7.4166108E-34
   3.720000     -8.1402148E-34
   3.730000     -8.8919370E-34
   3.740000     -9.6528455E-34
   3.750000     -1.0414228E-33
   3.760000     -1.1188891E-33
   3.770000     -1.1967765E-33
   3.780000     -1.2743897E-33
   3.790000     -1.3497756E-33
   3.800000     -1.4214205E-33
   3.810000     -1.4871475E-33
   3.820000     -1.5478388E-33
   3.830000     -1.6037134E-33
   3.840000     -1.6499687E-33
   3.850000     -1.6863901E-33
   3.860000     -1.7117878E-33
   3.870000     -1.7233520E-33
   3.880000     -1.7197947E-33
   3.890000     -1.7000433E-33
   3.900000     -1.6605836E-33
   3.910000     -1.5993853E-33
   3.920000     -1.5180185E-33
   3.930000     -1.4159828E-33
   3.940000     -1.2937600E-33
   3.950000     -1.1503061E-33
   3.960000     -9.8104068E-34
   3.970000     -7.8776792E-34
   3.980000     -5.7242373E-34
   3.990000     -3.3377937E-34
   4.000000     -7.4792596E-35
   4.010000      2.0357971E-34
   4.020000      5.0244812E-34
   4.030000      8.2261370E-34
   4.040000      1.1648327E-33
   4.050000      1.5276491E-33
   4.060000      1.9095289E-33
   4.070000      2.3089879E-33
   4.080000      2.7254290E-33
   4.090000      3.1599121E-33
   4.100000      3.6101320E-33
   4.110000      4.0763374E-33
   4.120000      4.5590935E-33
   4.130000      5.0547223E-33
   4.140000      5.5619397E-33
   4.150000      6.0775784E-33
   4.160000      6.5985685E-33
   4.170000      7.1230660E-33
   4.180000      7.6474621E-33
   4.190000      8.1683677E-33
   4.200000      8.6828713E-33
   4.210000      9.1871907E-33
   4.220000      9.6754051E-33
   4.230000      1.0142001E-32
   4.240000      1.0581207E-32
   4.250000      1.0986779E-32
   4.260000      1.1352073E-32
   4.270000      1.1670128E-32
   4.280000      1.1934010E-32
   4.290000      1.2137103E-32
   4.300000      1.2271443E-32
   4.310000      1.2327847E-32
   4.320000      1.2298395E-32
   4.330000      1.2175067E-32
   4.340000      1.1950442E-32
   4.350000      1.1617464E-32
   4.360000      1.1168734E-32
   4.370000      1.0597550E-32
   4.380000      9.8977579E-33
   4.390000      9.0638174E-33
   4.400000      8.0897227E-33
   4.410000      6.9688852E-33
   4.420000      5.6971201E-33
   4.430000      4.2710471E-33
   4.440000      2.6858555E-33
   4.450000      9.3838392E-34
   4.460000     -9.7067263E-34
   4.470000     -3.0419997E-33
   4.480000     -5.2782154E-33
   4.490000     -7.6805361E-33
   4.500000     -1.0248881E-32
   4.510000     -1.2981024E-32
   4.520000     -1.5873300E-32
   4.530000     -1.8923205E-32
   4.540000     -2.2124574E-32
   4.550000     -2.5470468E-32
   4.560000     -2.8955576E-32
   4.570000     -3.2571118E-32
   4.580000     -3.6306651E-32
   4.590000     -4.0149973E-32
   4.600000     -4.4087127E-32
   4.610000     -4.8102513E-32
   4.620000     -5.2178566E-32
   4.630000     -5.6295682E-32
   4.640000     -6.0432364E-32
   4.650000     -6.4564733E-32
   4.660000     -6.8666085E-32
   4.670000     -7.2706759E-32
   4.680000     -7.6656667E-32
   4.690000     -8.0483477E-32
   4.700000     -8.4151454E-32
   4.710000     -8.7623459E-32
   4.720000     -9.0860712E-32
   4.730000     -9.3822117E-32
   4.740000     -9.6464399E-32
   4.750000     -9.8743124E-32
   4.760000     -1.0061235E-31
   4.770000     -1.0202490E-31
   4.780000     -1.0293215E-31
   4.790000     -1.0328448E-31
   4.800000     -1.0303298E-31
   4.810000     -1.0212764E-31
   4.820000     -1.0051740E-31
   4.830000     -9.8152209E-32
   4.840000     -9.4982171E-32
   4.850000     -9.0958254E-32
   4.860000     -8.6030987E-32
   4.870000     -8.0153198E-32
   4.880000     -7.3280053E-32
   4.890000     -6.5367360E-32
   4.900000     -5.6373030E-32
   4.910000     -4.6257193E-32
   4.920000     -3.4983879E-32
   4.930000     -2.2518560E-32
   4.940000     -8.8306236E-33
   4.950000      6.1050320E-33
   4.960000      2.2309853E-32
   4.970000      3.9800308E-32
   4.980000      5.8587444E-32
   4.990000      7.8675790E-32
   5.000000      1.0006329E-31
   5.010000      1.2274054E-31
   5.020000      1.4669022E-31
   5.030000      1.7188672E-31
   5.040000      1.9829529E-31
   5.050000      2.2587131E-31
   5.060000      2.5456040E-31
   5.070000      2.8429731E-31
   5.080000      3.1500529E-31
   5.090000      3.4659585E-31
   5.100000      3.7896835E-31
   5.110000      4.1200983E-31
   5.120000      4.4559413E-31
   5.130000      4.7958166E-31
   5.140000      5.1381921E-31
   5.150000      5.4813946E-31
   5.160000      5.8236172E-31
   5.170000      6.1629100E-31
   5.180000      6.4971783E-31
   5.190000      6.8241886E-31
   5.200000      7.1415678E-31
   5.210000      7.4468004E-31
   5.220000      7.7372350E-31
   5.230000      8.0100903E-31
   5.240000      8.2624520E-31
   5.250000      8.4912775E-31
   5.260000      8.6934089E-31
   5.270000      8.8655709E-31
   5.280000      9.0043798E-31
   5.290000      9.1063544E-31
   5.300000      9.1679221E-31
   5.310000      9.1854304E-31
   5.320000      9.1551572E-31
   5.330000      9.0733240E-31
   5.340000      8.9361090E-31
   5.350000      8.7396604E-31
   5.360000      8.4801206E-31
   5.370000      8.1536313E-31
   5.380000      7.7563622E-31
   5.390000      7.2845328E-31
   5.400000      6.7344316E-31
   5.410000      6.1024397E-31
   5.420000      5.3850586E-31
   5.430000      4.5789375E-31
   5.440000      3.6808960E-31
   5.450000      2.6879592E-31
   5.460000      1.5973862E-31
   5.470000      4.0670203E-32
   5.480000     -8.8626908E-32
   5.490000     -2.2833726E-31
   5.500000     -3.7860844E-31
   5.510000     -5.3954810E-31
   5.520000     -7.1122007E-31
   5.530000     -8.9364071E-31
   5.540000     -1.0867756E-30
   5.550000     -1.2905352E-30
   5.560000     -1.5047717E-30
   5.570000     -1.7292743E-30
   5.580000     -1.9637666E-30
   5.590000     -2.2079025E-30
   5.600000     -2.4612621E-30
   5.610000     -2.7233484E-30
   5.620000     -2.9935835E-30
   5.630000     -3.2713045E-30
   5.640000     -3.5557609E-30
   5.650000     -3.8461122E-30
   5.660000     -4.1414220E-30
   5.670000     -4.4406569E-30
   5.680000     -4.7426841E-30
   5.690000     -5.0462675E-30
   5.700000     -5.3500664E-30
   5.710000     -5.6526326E-30
   5.720000     -5.9524096E-30
   5.730000     -6.2477310E-30
   5.740000     -6.5368206E-30
   5.750000     -6.8177882E-30
   5.760000     -7.0886357E-30
   5.770000     -7.3472512E-30
   5.780000     -7.5914162E-30
   5.790000     -7.8188016E-30
   5.800000     -8.0269758E-30
   5.810000     -8.2134021E-30
   5.820000     -8.3754450E-30
   5.830000     -8.5103775E-30
   5.840000     -8.6153790E-30
   5.850000     -8.6875480E-30
   5.860000     -8.7239044E-30
   5.870000     -8.7214000E-30
   5.880000     -8.6769238E-30
   5.890000     -8.5873131E-30
   5.900000     -8.4493639E-30
   5.910000     -8.2598388E-30
   5.920000     -8.0154827E-30
   5.930000     -7.7130342E-30
   5.940000     -7.3492366E-30
   5.950000     -6.9208586E-30
   5.960000     -6.4247067E-30
   5.970000     -5.8576407E-30
   5.980000     -5.2165934E-30
   5.990000     -4.4985902E-30
   6.000000     -3.7007681E-30
   6.010000     -2.8203995E-30
   6.020000     -1.8549118E-30
   6.030000     -8.0191153E-31
   6.040000      3.4078994E-31
   6.050000      1.5751513E-30
   6.060000      2.9028752E-30
   6.070000      4.3253814E-30
   6.080000      5.8437774E-30
   6.090000      7.4588273E-30
   6.100000      9.1709286E-30
   6.110000      1.0980073E-29
   6.120000      1.2885818E-29
   6.130000      1.4887262E-29
   6.140000      1.6983005E-29
   6.150000      1.9171116E-29
   6.160000      2.1449107E-29
   6.170000      2.3813895E-29
   6.180000      2.6261770E-29
   6.190000      2.8788364E-29
   6.200000      3.1388632E-29
   6.210000      3.4056794E-29
   6.220000      3.6786333E-29
   6.230000      3.9569949E-29
   6.240000      4.2399531E-29
   6.250000      4.5266146E-29
   6.260000      4.8160000E-29
   6.270000      5.1070408E-29
   6.280000      5.3985784E-29
   6.290000      5.6893632E-29
   6.300000      5.9780492E-29
   6.310000      6.2631958E-29
   6.320000      6.5432669E-29
   6.330000      6.8166268E-29
   6.340000      7.0815433E-29
   6.350000      7.3361849E-29
   6.360000      7.5786216E-29
   6.370000      7.8068262E-29
   6.380000      8.0186773E-29
   6.390000      8.2119570E-29
   6.400000      8.3843555E-29
   6.410000      8.5334724E-29
   6.420000      8.6568234E-29
   6.430000      8.7518409E-29
   6.440000      8.8158793E-29
   6.450000      8.8462217E-29
   6.460000      8.8400859E-29
   6.470000      8.7946303E-29
   6.480000      8.7069626E-29
   6.490000      8.5741462E-29
   6.500000      8.3932135E-29
   6.510000      8.1611715E-29
   6.520000      7.8750156E-29
   6.530000      7.5317403E-29
   6.540000      7.1283542E-29
   6.550000      6.6618904E-29
   6.560000      6.1294231E-29
   6.570000      5.5280822E-29
   6.580000      4.8550705E-29
   6.590000      4.1076794E-29
   6.600000      3.2833100E-29
   6.610000      2.3794893E-29
   6.620000      1.3938913E-29
   6.630000      3.2435749E-30
   6.640000     -8.3108068E-30
   6.650000     -2.0741799E-29
   6.660000     -3.4064603E-29
   6.670000     -4.8291833E-29
   6.680000     -6.3433289E-29
   6.690000     -7.9495611E-29
   6.700000     -9.6482115E-29
   6.710000     -1.1439247E-28
   6.720000     -1.3322246E-28
   6.730000     -1.5296363E-28
   6.740000     -1.7360311E-28
   6.750000     -1.9512326E-28
   6.760000     -2.1750141E-28
   6.770000     -2.4070956E-28
   6.780000     -2.6471406E-28
   6.790000     -2.8947543E-28
   6.800000     -3.1494802E-28
   6.810000     -3.4107964E-28
   6.820000     -3.6781145E-28
   6.830000     -3.9507766E-28
   6.840000     -4.2280523E-28
   6.850000     -4.5091360E-28
   6.860000     -4.7931456E-28
   6.870000     -5.0791207E-28
   6.880000     -5.3660183E-28
   6.890000     -5.6527142E-28
   6.900000     -5.9379988E-28
   6.910000     -6.2205785E-28
   6.920000     -6.4990718E-28
   6.930000     -6.7720107E-28
   6.940000     -7.0378401E-28
   6.950000     -7.2949171E-28
   6.960000     -7.5415093E-28
   6.970000     -7.7758001E-28
   6.980000     -7.9958858E-28
   6.990000     -8.1997787E-28
   7.000000     -8.3854065E-28
   7.010000     -8.5506195E-28
   7.020000     -8.6931904E-28
   7.030000     -8.8108156E-28
   7.040000     -8.9011234E-28
   7.050000     -8.9616756E-28
   7.060000     -8.9899752E-28