  -2.600000      0.0000000E+00
  -2.590000      0.0000000E+00
  -2.580000      0.0000000E+00
  -2.570000      0.0000000E+00
  -2.560000      0.0000000E+00
  -2.550000      0.0000000E+00
  -2.540000      0.0000000E+00
  -2.530000      0.0000000E+00
  -2.520000      0.0000000E+00
  -2.510000      0.0000000E+00
  -2.500000      0.0000000E+00
  -2.490000      0.0000000E+00
  -2.480000      0.0000000E+00
  -2.470000      0.0000000E+00
  -2.460000      0.0000000E+00
  -2.450000      0.0000000E+00
  -2.440000      0.0000000E+00
  -2.430000      0.0000000E+00
  -2.420000      0.0000000E+00
  -2.410000      0.0000000E+00
  -2.400000      0.0000000E+00
  -2.390000      0.0000000E+00
  -2.380000      0.0000000E+00
  -2.370000      0.0000000E+00
  -2.360000      0.0000000E+00
  -2.350000      0.0000000E+00
  -2.340000      0.0000000E+00
  -2.330000      0.0000000E+00
  -2.320000      0.0000000E+00
  -2.310000      0.0000000E+00
  -2.300000      0.0000000E+00
  -2.290000      0.0000000E+00
  -2.280000      0.0000000E+00
  -2.270000      0.0000000E+00
  -2.260000      0.0000000E+00
  -2.250000      0.0000000E+00
  -2.240000      0.0000000E+00
  -2.230000      0.0000000E+00
  -2.220000      0.0000000E+00
  -2.210000      0.0000000E+00
  -2.200000      0.0000000E+00
  -2.190000      0.0000000E+00
  -2.180000      0.0000000E+00
  -2.170000      0.0000000E+00
  -2.160000      0.0000000E+00
  -2.150000      0.0000000E+00
  -2.140000      0.0000000E+00
  -2.130000      0.0000000E+00
  -2.120000      0.0000000E+00
  -2.110000      0.0000000E+00
  -2.100000      0.0000000E+00
  -2.090000      0.0000000E+00
  -2.080000      0.0000000E+00
  -2.070000      0.0000000E+00
  -2.060000      0.0000000E+00
  -2.050000      0.0000000E+00
  -2.040000      0.0000000E+00
  -2.030000      0.0000000E+00
  -2.020000      0.0000000E+00
  -2.010000      0.0000000E+00
  -2.000000      0.0000000E+00
  -1.990000      0.0000000E+00
  -1.980000      0.0000000E+00
  -1.970000      0.0000000E+00
  -1.960000      0.0000000E+00
  -1.950000      0.0000000E+00
  -1.940000      0.0000000E+00
  -1.930000      0.0000000E+00
  -1.920000      0.0000000E+00
  -1.910000      0.0000000E+00
  -1.900000      0.0000000E+00
  -1.890000      0.0000000E+00
  -1.880000      0.0000000E+00
  -1.870000      0.0000000E+00
  -1.860000      0.0000000E+00
  -1.850000      0.0000000E+00
  -1.840000      0.0000000E+00
  -1.830000      0.0000000E+00
  -1.820000      0.0000000E+00
  -1.810000      0.0000000E+00
  -1.800000      0.0000000E+00
  -1.790000      0.0000000E+00
  -1.780000      0.0000000E+00
  -1.770000      0.0000000E+00
  -1.760000      0.0000000E+00
  -1.750000      0.0000000E+00
  -1.740000      0.0000000E+00
  -1.730000      0.0000000E+00
  -1.720000      0.0000000E+00
  -1.710000      0.0000000E+00
  -1.700000      0.0000000E+00
  -1.690000      0.0000000E+00
  -1.680000      0.0000000E+00
  -1.670000      0.0000000E+00
  -1.660000      0.0000000E+00
  -1.650000      0.0000000E+00
  -1.640000      0.0000000E+00
  -1.630000      0.0000000E+00
  -1.620000      0.0000000E+00
  -1.610000      0.0000000E+00
  -1.600000      0.0000000E+00
  -1.590000      0.0000000E+00
  -1.580000      0.0000000E+00
  -1.570000      0.0000000E+00
  -1.560000      0.0000000E+00
  -1.550000      0.0000000E+00
  -1.540000      0.0000000E+00
  -1.530000      0.0000000E+00
  -1.520000      0.0000000E+00
  -1.510000      0.0000000E+00
  -1.500000      0.0000000E+00
  -1.490000      0.0000000E+00
  -1.480000      0.0000000E+00
  -1.470000      0.0000000E+00
  -1.460000      0.0000000E+00
  -1.450000      0.0000000E+00
  -1.440000      0.0000000E+00
  -1.430000      0.0000000E+00
  -1.420000      0.0000000E+00
  -1.410000      0.0000000E+00
  -1.400000      0.0000000E+00
  -1.390000      0.0000000E+00
  -1.380000      0.0000000E+00
  -1.370000      0.0000000E+00
  -1.360000      0.0000000E+00
  -1.350000      0.0000000E+00
  -1.340000      0.0000000E+00
  -1.330000      0.0000000E+00
  -1.320000      0.0000000E+00
  -1.310000      0.0000000E+00
  -1.300000      0.0000000E+00
  -1.290000      0.0000000E+00
  -1.280000      0.0000000E+00
  -1.270000      0.0000000E+00
  -1.260000      0.0000000E+00
  -1.250000      0.0000000E+00
  -1.240000      0.0000000E+00
  -1.230000      0.0000000E+00
  -1.220000      0.0000000E+00
  -1.210000      0.0000000E+00
  -1.200000      0.0000000E+00
  -1.190000      0.0000000E+00
  -1.180000      0.0000000E+00
  -1.170000      0.0000000E+00
  -1.160000      0.0000000E+00
  -1.150000      0.0000000E+00
  -1.140000      0.0000000E+00
  -1.130000      0.0000000E+00
  -1.120000      0.0000000E+00
  -1.110000      0.0000000E+00
  -1.100000      0.0000000E+00
  -1.090000      0.0000000E+00
  -1.080000      0.0000000E+00
  -1.070000      0.0000000E+00
  -1.060000      0.0000000E+00
  -1.050000      0.0000000E+00
  -1.040000      0.0000000E+00
  -1.030000      0.0000000E+00
  -1.020000      0.0000000E+00
  -1.010000      0.0000000E+00
  -1.000000      0.0000000E+00
 -0.9900000      0.0000000E+00
 -0.9800000      0.0000000E+00
 -0.9700000      0.0000000E+00
 -0.9600000      0.0000000E+00
 -0.9500000      0.0000000E+00
 -0.9400000      0.0000000E+00
 -0.9300000      0.0000000E+00
 -0.9200000      0.0000000E+00
 -0.9100000      0.0000000E+00
 -0.9000000      0.0000000E+00
 -0.8900000      0.0000000E+00
 -0.8800000      0.0000000E+00
 -0.8700000      0.0000000E+00
 -0.8600000      0.0000000E+00
 -0.8500000      0.0000000E+00
 -0.8400000      0.0000000E+00
 -0.8300000      0.0000000E+00
 -0.8200000      0.0000000E+00
 -0.8100000      0.0000000E+00
 -0.8000000      0.0000000E+00
 -0.7900000      0.0000000E+00
 -0.7800000      0.0000000E+00
 -0.7700000      0.0000000E+00
 -0.7600000      0.0000000E+00
 -0.7500000      0.0000000E+00
 -0.7400000      0.0000000E+00
 -0.7300000      0.0000000E+00
 -0.7200000      0.0000000E+00
 -0.7100000      0.0000000E+00
 -0.7000000      0.0000000E+00
 -0.6900000      0.0000000E+00
 -0.6800000      0.0000000E+00
 -0.6700000      0.0000000E+00
 -0.6600000      0.0000000E+00
 -0.6500000      0.0000000E+00
 -0.6400000      0.0000000E+00
 -0.6300000      0.0000000E+00
 -0.6200000      0.0000000E+00
 -0.6100000      0.0000000E+00
 -0.6000000      0.0000000E+00
 -0.5900000      0.0000000E+00
 -0.5800000      0.0000000E+00
 -0.5700000      0.0000000E+00
 -0.5600000      0.0000000E+00
 -0.5500000      0.0000000E+00
 -0.5400000      0.0000000E+00
 -0.5300000      0.0000000E+00
 -0.5200000      0.0000000E+00
 -0.5100000      0.0000000E+00
 -0.5000000      0.0000000E+00
 -0.4900000      0.0000000E+00
 -0.4800000      0.0000000E+00
 -0.4700000      0.0000000E+00
 -0.4600000      0.0000000E+00
 -0.4500000      0.0000000E+00
 -0.4400000      0.0000000E+00
 -0.4300000      0.0000000E+00
 -0.4200000      0.0000000E+00
 -0.4100000      0.0000000E+00
 -0.4000000      0.0000000E+00
 -0.3900000      0.0000000E+00
 -0.3800000      0.0000000E+00
 -0.3700000      0.0000000E+00
 -0.3600000      0.0000000E+00
 -0.3500000      0.0000000E+00
 -0.3400000      0.0000000E+00
 -0.3300000      0.0000000E+00
 -0.3200000      0.0000000E+00
 -0.3100000      0.0000000E+00
 -0.3000000      0.0000000E+00
 -0.2900000      0.0000000E+00
 -0.2800000      0.0000000E+00
 -0.2700000      0.0000000E+00
 -0.2600000      0.0000000E+00
 -0.2500000      0.0000000E+00
 -0.2400000      0.0000000E+00
 -0.2300000      0.0000000E+00
 -0.2200000      0.0000000E+00
 -0.2100000      0.0000000E+00
 -0.2000000      0.0000000E+00
 -0.1900000      0.0000000E+00
 -0.1800000      0.0000000E+00
 -0.1700000      0.0000000E+00
 -0.1600000      0.0000000E+00
 -0.1500000      0.0000000E+00
 -0.1400000      0.0000000E+00
 -0.1300000      0.0000000E+00
 -0.1200000      0.0000000E+00
 -0.1100000      0.0000000E+00
 -0.1000000      0.0000000E+00
 -9.0000004E-02  0.0000000E+00
 -7.9999998E-02  0.0000000E+00
 -7.0000000E-02  0.0000000E+00
 -5.9999999E-02  0.0000000E+00
 -5.0000001E-02  0.0000000E+00
 -3.9999999E-02  0.0000000E+00
 -2.9999999E-02  0.0000000E+00
 -2.0000000E-02  0.0000000E+00
 -9.9999998E-03  0.0000000E+00
 -3.4694470E-17  0.0000000E+00
  9.9999998E-03  0.0000000E+00
  2.0000000E-02  0.0000000E+00
  2.9999999E-02  0.0000000E+00
  3.9999999E-02  0.0000000E+00
  5.0000001E-02  0.0000000E+00
  5.9999999E-02  0.0000000E+00
  7.0000000E-02  0.0000000E+00
  7.9999998E-02  0.0000000E+00
  9.0000004E-02  0.0000000E+00
  0.1000000      0.0000000E+00
  0.1100000      0.0000000E+00
  0.1200000      0.0000000E+00
  0.1300000      0.0000000E+00
  0.1400000      0.0000000E+00
  0.1500000      0.0000000E+00
  0.1600000      0.0000000E+00
  0.1700000      0.0000000E+00
  0.1800000      0.0000000E+00
  0.1900000      0.0000000E+00
  0.2000000      0.0000000E+00
  0.2100000      0.0000000E+00
  0.2200000      0.0000000E+00
  0.2300000      0.0000000E+00
  0.2400000      0.0000000E+00
  0.2500000      0.0000000E+00
  0.2600000      0.0000000E+00
  0.2700000      0.0000000E+00
  0.2800000      0.0000000E+00
  0.2900000      0.0000000E+00
  0.3000000      0.0000000E+00
  0.3100000      0.0000000E+00
  0.3200000      0.0000000E+00
  0.3300000      0.0000000E+00
  0.3400000      0.0000000E+00
  0.3500000      0.0000000E+00
  0.3600000      0.0000000E+00
  0.3700000      0.0000000E+00
  0.3800000      0.0000000E+00
  0.3900000      0.0000000E+00
  0.4000000      0.0000000E+00
  0.4100000      0.0000000E+00
  0.4200000      0.0000000E+00
  0.4300000      0.0000000E+00
  0.4400000      0.0000000E+00
  0.4500000      0.0000000E+00
  0.4600000      0.0000000E+00
  0.4700000      0.0000000E+00
  0.4800000      0.0000000E+00
  0.4900000      0.0000000E+00
  0.5000000      0.0000000E+00
  0.5100000      0.0000000E+00
  0.5200000      0.0000000E+00
  0.5300000      0.0000000E+00
  0.5400000      0.0000000E+00
  0.5500000      0.0000000E+00
  0.5600000      0.0000000E+00
  0.5700000      0.0000000E+00
  0.5800000      0.0000000E+00
  0.5900000      0.0000000E+00
  0.6000000      0.0000000E+00
  0.6100000      0.0000000E+00
  0.6200000      0.0000000E+00
  0.6300000      0.0000000E+00
  0.6400000      0.0000000E+00
  0.6500000      0.0000000E+00
  0.6600000      0.0000000E+00
  0.6700000      0.0000000E+00
  0.6800000      0.0000000E+00
  0.6900000      0.0000000E+00
  0.7000000      0.0000000E+00
  0.7100000      0.0000000E+00
  0.7200000      0.0000000E+00
  0.7300000      0.0000000E+00
  0.7400000      0.0000000E+00
  0.7500000      0.0000000E+00
  0.7600000      0.0000000E+00
  0.7700000      0.0000000E+00
  0.7800000      0.0000000E+00
  0.7900000      0.0000000E+00
  0.8000000      0.0000000E+00
  0.8100000      0.0000000E+00
  0.8200000      0.0000000E+00
  0.8300000      0.0000000E+00
  0.8400000      0.0000000E+00
  0.8500000      0.0000000E+00
  0.8600000      0.0000000E+00
  0.8700000      0.0000000E+00
  0.8800000      0.0000000E+00
  0.8900000      0.0000000E+00
  0.9000000      0.0000000E+00
  0.9100000      0.0000000E+00
  0.9200000      0.0000000E+00
  0.9300000      0.0000000E+00
  0.9400000      0.0000000E+00
  0.9500000      0.0000000E+00
  0.9600000      0.0000000E+00
  0.9700000      0.0000000E+00
  0.9800000      0.0000000E+00
  0.9900000      0.0000000E+00
   1.000000      0.0000000E+00
   1.010000      0.0000000E+00
   1.020000      0.0000000E+00
   1.030000      0.0000000E+00
   1.040000      0.0000000E+00
   1.050000      0.0000000E+00
   1.060000      0.0000000E+00
   1.070000      0.0000000E+00
   1.080000      0.0000000E+00
   1.090000      0.0000000E+00
   1.100000      0.0000000E+00
   1.110000      0.0000000E+00
   1.120000      0.0000000E+00
   1.130000      0.0000000E+00
   1.140000      0.0000000E+00
   1.150000      0.0000000E+00
   1.160000      0.0000000E+00
   1.170000      0.0000000E+00
   1.180000      0.0000000E+00
   1.190000      0.0000000E+00
   1.200000      0.0000000E+00
   1.210000      0.0000000E+00
   1.220000      0.0000000E+00
   1.230000      0.0000000E+00
   1.240000      0.0000000E+00
   1.250000      0.0000000E+00
   1.260000      0.0000000E+00
   1.270000      0.0000000E+00
   1.280000      0.0000000E+00
   1.290000      0.0000000E+00
   1.300000      0.0000000E+00
   1.310000      0.0000000E+00
   1.320000      0.0000000E+00
   1.330000      0.0000000E+00
   1.340000      0.0000000E+00
   1.350000      0.0000000E+00
   1.360000      0.0000000E+00
   1.370000      0.0000000E+00
   1.380000      0.0000000E+00
   1.390000      0.0000000E+00
   1.400000      0.0000000E+00
   1.410000      0.0000000E+00
   1.420000      0.0000000E+00
   1.430000      0.0000000E+00
   1.440000      0.0000000E+00
   1.450000      0.0000000E+00
   1.460000      0.0000000E+00
   1.470000      0.0000000E+00
   1.480000      0.0000000E+00
   1.490000      0.0000000E+00
   1.500000      0.0000000E+00
   1.510000      0.0000000E+00
   1.520000      0.0000000E+00
   1.530000      0.0000000E+00
   1.540000      0.0000000E+00
   1.550000      0.0000000E+00
   1.560000      0.0000000E+00
   1.570000      0.0000000E+00
   1.580000      0.0000000E+00
   1.590000      0.0000000E+00
   1.600000      0.0000000E+00
   1.610000      0.0000000E+00
   1.620000      0.0000000E+00
   1.630000      0.0000000E+00
   1.640000      0.0000000E+00
   1.650000      0.0000000E+00
   1.660000      0.0000000E+00
   1.670000      0.0000000E+00
   1.680000      0.0000000E+00
   1.690000      0.0000000E+00
   1.700000      0.0000000E+00
   1.710000      0.0000000E+00
   1.720000      0.0000000E+00
   1.730000      0.0000000E+00
   1.740000      0.0000000E+00
   1.750000      0.0000000E+00
   1.760000      0.0000000E+00
   1.770000      0.0000000E+00
   1.780000      0.0000000E+00
   1.790000      0.0000000E+00
   1.800000      0.0000000E+00
   1.810000      0.0000000E+00
   1.820000      0.0000000E+00
   1.830000      0.0000000E+00
   1.840000      0.0000000E+00
   1.850000      0.0000000E+00
   1.860000      0.0000000E+00
   1.870000      0.0000000E+00
   1.880000      0.0000000E+00
   1.890000      0.0000000E+00
   1.900000      0.0000000E+00
   1.910000      0.0000000E+00
   1.920000      0.0000000E+00
   1.930000      0.0000000E+00
   1.940000      0.0000000E+00
   1.950000      0.0000000E+00
   1.960000      0.0000000E+00
   1.970000      0.0000000E+00
   1.980000      0.0000000E+00
   1.990000      0.0000000E+00
   2.000000      0.0000000E+00
   2.010000      0.0000000E+00
   2.020000      0.0000000E+00
   2.030000      0.0000000E+00
   2.040000      0.0000000E+00
   2.050000      0.0000000E+00
   2.060000      0.0000000E+00
   2.070000      0.0000000E+00
   2.080000      0.0000000E+00
   2.090000      0.0000000E+00
   2.100000      0.0000000E+00
   2.110000      0.0000000E+00
   2.120000      0.0000000E+00
   2.130000      0.0000000E+00
   2.140000      0.0000000E+00
   2.150000      0.0000000E+00
   2.160000      0.0000000E+00
   2.170000      0.0000000E+00
   2.180000      0.0000000E+00
   2.190000      0.0000000E+00
   2.200000      0.0000000E+00
   2.210000      0.0000000E+00
   2.220000      0.0000000E+00
   2.230000      0.0000000E+00
   2.240000      0.0000000E+00
   2.250000      0.0000000E+00
   2.260000      0.0000000E+00
   2.270000      0.0000000E+00
   2.280000      0.0000000E+00
   2.290000      0.0000000E+00
   2.300000      0.0000000E+00
   2.310000      0.0000000E+00
   2.320000      0.0000000E+00
   2.330000      0.0000000E+00
   2.340000      0.0000000E+00
   2.350000      0.0000000E+00
   2.360000      0.0000000E+00
   2.370000      0.0000000E+00
   2.380000      0.0000000E+00
   2.390000      0.0000000E+00
   2.400000      0.0000000E+00
   2.410000      0.0000000E+00
   2.420000      0.0000000E+00
   2.430000      0.0000000E+00
   2.440000      0.0000000E+00
   2.450000      0.0000000E+00
   2.460000      0.0000000E+00
   2.470000      0.0000000E+00
   2.480000      0.0000000E+00
   2.490000      0.0000000E+00
   2.500000      0.0000000E+00
   2.510000      0.0000000E+00
   2.520000      0.0000000E+00
   2.530000      0.0000000E+00
   2.540000      0.0000000E+00
   2.550000      0.0000000E+00
   2.560000      0.0000000E+00
   2.570000      0.0000000E+00
   2.580000      0.0000000E+00
   2.590000      0.0000000E+00
   2.600000      0.0000000E+00
   2.610000      0.0000000E+00
   2.620000      0.0000000E+00
   2.630000      0.0000000E+00
   2.640000      0.0000000E+00
   2.650000      0.0000000E+00
   2.660000      0.0000000E+00
   2.670000      0.0000000E+00
   2.680000      0.0000000E+00
   2.690000      0.0000000E+00
   2.700000      0.0000000E+00
   2.710000      0.0000000E+00
   2.720000      0.0000000E+00
   2.730000      0.0000000E+00
   2.740000      0.0000000E+00
   2.750000      0.0000000E+00
   2.760000      0.0000000E+00
   2.770000      0.0000000E+00
   2.780000      0.0000000E+00
   2.790000      0.0000000E+00
   2.800000      0.0000000E+00
   2.810000      0.0000000E+00
   2.820000      0.0000000E+00
   2.830000      0.0000000E+00
   2.840000      0.0000000E+00
   2.850000      0.0000000E+00
   2.860000      0.0000000E+00
   2.870000      0.0000000E+00
   2.880000      0.0000000E+00
   2.890000      0.0000000E+00
   2.900000      0.0000000E+00
   2.910000      0.0000000E+00
   2.920000      0.0000000E+00
   2.930000      0.0000000E+00
   2.940000      0.0000000E+00
   2.950000      0.0000000E+00
   2.960000      0.0000000E+00
   2.970000      0.0000000E+00
   2.980000      0.0000000E+00
   2.990000      0.0000000E+00
   3.000000      0.0000000E+00
   3.010000      0.0000000E+00
   3.020000      0.0000000E+00
   3.030000      0.0000000E+00
   3.040000      0.0000000E+00
   3.050000      0.0000000E+00
   3.060000      0.0000000E+00
   3.070000      0.0000000E+00
   3.080000      0.0000000E+00
   3.090000      0.0000000E+00
   3.100000      0.0000000E+00
   3.110000      0.0000000E+00
   3.120000      0.0000000E+00
   3.130000      0.0000000E+00
   3.140000      0.0000000E+00
   3.150000      0.0000000E+00
   3.160000      0.0000000E+00
   3.170000      1.2661628E-38
   3.180000      1.4279453E-38
   3.190000      1.5555237E-38
   3.200000      1.6501546E-38
   3.210000      1.7414532E-38
   3.220000      1.7765075E-38
   3.230000      1.7482565E-38
   3.240000      1.7061425E-38
   3.250000      1.6536596E-38
   3.260000      1.5932793E-38
   3.270000      1.5262403E-38
   3.280000      1.4586710E-38
   3.290000      1.3532702E-38
   3.300000      1.1941285E-38
   3.310000      0.0000000E+00
   3.320000      0.0000000E+00
   3.330000      0.0000000E+00
   3.340000      0.0000000E+00
   3.350000      0.0000000E+00
   3.360000      0.0000000E+00
   3.370000      0.0000000E+00
   3.380000      0.0000000E+00
   3.390000      0.0000000E+00
   3.400000      0.0000000E+00
   3.410000     -1.2693224E-38
   3.420000     -1.6154020E-38
   3.430000     -2.0304483E-38
   3.440000     -2.4920196E-38
   3.450000     -2.9680807E-38
   3.460000     -3.4562413E-38
   3.470000     -4.0632042E-38
   3.480000     -4.8320392E-38
   3.490000     -5.6143813E-38
   3.500000     -6.3562926E-38
   3.510000     -6.9677829E-38
   3.520000     -7.4367476E-38
   3.530000     -7.8501906E-38
   3.540000     -8.1520897E-38
   3.550000     -8.4223290E-38
   3.560000     -8.6055409E-38
   3.570000     -8.9534687E-38
   3.580000     -9.5472415E-38
   3.590000     -1.0260967E-37
   3.600000     -1.0898465E-37
   3.610000     -1.1362638E-37
   3.620000     -1.1748867E-37
   3.630000     -1.2194029E-37
   3.640000     -1.2649102E-37
   3.650000     -1.3101291E-37
   3.660000     -1.3473550E-37
   3.670000     -1.3464542E-37
   3.680000     -1.3070627E-37
   3.690000     -1.2429319E-37
   3.700000     -1.1633662E-37
   3.710000     -1.0907245E-37
   3.720000     -1.0319123E-37
   3.730000     -9.6207144E-38
   3.740000     -8.7518583E-38
   3.750000     -5.7685057E-38
   3.760000      0.0000000E+00
   3.770000      4.9933315E-38
   3.780000      1.0717141E-37
   3.790000      1.7103661E-37
   3.800000      2.4114678E-37
   3.810000      3.1652294E-37
   3.820000      3.9999157E-37
   3.830000      4.9109063E-37
   3.840000      5.8670250E-37
   3.850000      6.8534149E-37
   3.860000      7.7932777E-37
   3.870000      8.5380914E-37
   3.880000      9.2402544E-37
   3.890000      1.0012705E-36
   3.900000      1.0680268E-36
   3.910000      1.1146302E-36
   3.920000      1.1415636E-36
   3.930000      1.1599834E-36
   3.940000      1.1756766E-36
   3.950000      1.1867404E-36
   3.960000      1.1928086E-36
   3.970000      1.1807022E-36
   3.980000      1.1487901E-36
   3.990000      1.0989797E-36
   4.000000      1.0434850E-36
   4.010000      9.6303410E-37
   4.020000      8.5960141E-37
   4.030000      7.6398129E-37
   4.040000      6.5064126E-37
   4.050000      5.2542814E-37
   4.060000      4.0322043E-37
   4.070000      2.7789065E-37
   4.080000      1.6420471E-37
   4.090000      8.0037639E-38
   4.100000     -1.7503047E-38
   4.110000     -1.6141670E-37
   4.120000     -3.2284354E-37
   4.130000     -4.9763969E-37
   4.140000     -6.8251522E-37
   4.150000     -8.7380183E-37
   4.160000     -1.0910661E-36
   4.170000     -1.3120339E-36
   4.180000     -1.5572715E-36
   4.190000     -1.8526432E-36
   4.200000     -2.1780339E-36
   4.210000     -2.5530560E-36
   4.220000     -3.0052502E-36
   4.230000     -3.5145760E-36
   4.240000     -4.0212002E-36
   4.250000     -4.5335346E-36
   4.260000     -5.0939575E-36
   4.270000     -5.7667529E-36
   4.280000     -6.3767096E-36
   4.290000     -6.5627662E-36
   4.300000     -6.1918770E-36
   4.310000     -5.6976417E-36
   4.320000     -5.5354290E-36
   4.330000     -5.6144653E-36
   4.340000     -5.6942929E-36
   4.350000     -5.5312243E-36
   4.360000     -5.0749188E-36
   4.370000     -4.7382826E-36
   4.380000     -4.5886366E-36
   4.390000     -4.4983634E-36
   4.400000     -4.4794686E-36
   4.410000     -4.4149879E-36
   4.420000     -4.3637071E-36
   4.430000     -4.2837571E-36
   4.440000     -4.1600633E-36
   4.450000     -4.0102674E-36
   4.460000     -3.7282955E-36
   4.470000     -3.2745550E-36
   4.480000     -2.6368396E-36
   4.490000     -1.7079704E-36
   4.500000     -6.9623768E-37
   4.510000      3.7444957E-37
   4.520000      1.6704920E-36
   4.530000      3.3944616E-36
   4.540000      5.6567760E-36
   4.550000      7.7746912E-36
   4.560000      9.6007798E-36
   4.570000      1.1267933E-35
   4.580000      1.3103595E-35
   4.590000      1.5294809E-35
   4.600000      1.7659659E-35
   4.610000      1.9818675E-35
   4.620000      2.1841810E-35
   4.630000      2.3921774E-35
   4.640000      2.5902245E-35
   4.650000      2.8115165E-35
   4.660000      3.0299030E-35
   4.670000      3.2197577E-35
   4.680000      3.4137779E-35
   4.690000      3.6134923E-35
   4.700000      3.7980839E-35
   4.710000      3.8869933E-35
   4.720000      3.8904159E-35
   4.730000      3.8977866E-35
   4.740000      3.9498352E-35
   4.750000      4.0590606E-35
   4.760000      4.2033399E-35
   4.770000      4.3604426E-35
   4.780000      4.4415566E-35
   4.790000      4.4613876E-35
   4.800000      4.4356987E-35
   4.810000      4.3311270E-35
   4.820000      4.2042121E-35
   4.830000      4.0692151E-35
   4.840000      3.8830212E-35
   4.850000      3.6581843E-35
   4.860000      3.4579227E-35
   4.870000      3.2897504E-35
   4.880000      3.1026786E-35
   4.890000      2.8743009E-35
   4.900000      2.6006533E-35
   4.910000      2.2884101E-35
   4.920000      1.9646975E-35
   4.930000      1.6208263E-35
   4.940000      1.2302425E-35
   4.950000      7.5807081E-36
   4.960000      1.7955479E-36
   4.970000     -4.5905903E-36
   4.980000     -1.1296231E-35
   4.990000     -1.8326689E-35
   5.000000     -2.5340897E-35
   5.010000     -3.3006114E-35
   5.020000     -4.1964348E-35
   5.030000     -5.2158091E-35
   5.040000     -6.3874515E-35
   5.050000     -7.6664846E-35
   5.060000     -9.0155905E-35
   5.070000     -1.0581881E-34
   5.080000     -1.2273712E-34
   5.090000     -1.4025389E-34
   5.100000     -1.5839101E-34
   5.110000     -1.7464227E-34
   5.120000     -1.9135212E-34
   5.130000     -2.0984955E-34
   5.140000     -2.2787360E-34
   5.150000     -2.4726051E-34
   5.160000     -2.6759367E-34
   5.170000     -2.8501886E-34
   5.180000     -3.0204832E-34
   5.190000     -3.2184640E-34
   5.200000     -3.4335763E-34
   5.210000     -3.6541422E-34
   5.220000     -3.8665912E-34
   5.230000     -4.0391979E-34
   5.240000     -4.1604694E-34
   5.250000     -4.3077565E-34
   5.260000     -4.4582428E-34
   5.270000     -4.5542040E-34
   5.280000     -4.6451588E-34
   5.290000     -4.7472716E-34
   5.300000     -4.8481042E-34
   5.310000     -4.9349457E-34
   5.320000     -5.0044587E-34
   5.330000     -5.0658916E-34
   5.340000     -5.1269425E-34
   5.350000     -5.1927233E-34
   5.360000     -5.2651857E-34
   5.370000     -5.3363586E-34
   5.380000     -5.4317610E-34
   5.390000     -5.5554465E-34
   5.400000     -5.6596545E-34
   5.410000     -5.7057545E-34
   5.420000     -5.6728278E-34
   5.430000     -5.5504419E-34
   5.440000     -5.3651032E-34
   5.450000     -5.1319227E-34
   5.460000     -4.8661444E-34
   5.470000     -4.5902522E-34
   5.480000     -4.2342496E-34
   5.490000     -3.7416334E-34
   5.500000     -3.1334698E-34
   5.510000     -2.4565708E-34
   5.520000     -1.7328930E-34
   5.530000     -9.6471937E-35
   5.540000     -1.8605728E-35
   5.550000      6.1311931E-35
   5.560000      1.4691051E-34
   5.570000      2.3873960E-34
   5.580000      3.3625725E-34
   5.590000      4.3802809E-34
   5.600000      5.4218442E-34
   5.610000      6.5303335E-34
   5.620000      7.7063325E-34
   5.630000      8.9196557E-34
   5.640000      1.0193420E-33
   5.650000      1.1533844E-33
   5.660000      1.2954956E-33
   5.670000      1.4473344E-33
   5.680000      1.6090659E-33
   5.690000      1.7808686E-33
   5.700000      1.9643783E-33
   5.710000      2.1608525E-33
   5.720000      2.3681649E-33
   5.730000      2.5836964E-33
   5.740000      2.8076554E-33
   5.750000      3.0417876E-33
   5.760000      3.2869478E-33
   5.770000      3.5413082E-33
   5.780000      3.8040316E-33
   5.790000      4.0754709E-33
   5.800000      4.3536395E-33
   5.810000      4.6359234E-33
   5.820000      4.9225516E-33
   5.830000      5.2111391E-33
   5.840000      5.4985559E-33
   5.850000      5.7819875E-33
   5.860000      6.0597707E-33
   5.870000      6.3310561E-33
   5.880000      6.5950839E-33
   5.890000      6.8511756E-33
   5.900000      7.0960583E-33
   5.910000      7.3273926E-33
   5.920000      7.5440325E-33
   5.930000      7.7439863E-33
   5.940000      7.9275082E-33
   5.950000      8.0936621E-33
   5.960000      8.2396005E-33
   5.970000      8.3624102E-33
   5.980000      8.4623853E-33
   5.990000      8.5396990E-33
   6.000000      8.5899764E-33
   6.010000      8.6107525E-33
   6.020000      8.6018731E-33
   6.030000      8.5600645E-33
   6.040000      8.4812924E-33
   6.050000      8.3639714E-33
   6.060000      8.2037464E-33
   6.070000      7.9963451E-33
   6.080000      7.7391396E-33
   6.090000      7.4276116E-33
   6.100000      7.0570172E-33
   6.110000      6.6234963E-33
   6.120000      6.1223669E-33
   6.130000      5.5497667E-33
   6.140000      4.9012046E-33
   6.150000      4.1719026E-33
   6.160000      3.3582885E-33
   6.170000      2.4558162E-33
   6.180000      1.4610909E-33
   6.190000      3.7163513E-34
   6.200000     -8.1592358E-34
   6.210000     -2.1041042E-33
   6.220000     -3.4950026E-33
   6.230000     -4.9903214E-33
   6.240000     -6.5913289E-33
   6.250000     -8.2990460E-33
   6.260000     -1.0114114E-32
   6.270000     -1.2036928E-32
   6.280000     -1.4067231E-32
   6.290000     -1.6204636E-32
   6.300000     -1.8448646E-32
   6.310000     -2.0798202E-32
   6.320000     -2.3252654E-32
   6.330000     -2.5810115E-32
   6.340000     -2.8468557E-32
   6.350000     -3.1226229E-32
   6.360000     -3.4081334E-32
   6.370000     -3.7030682E-32
   6.380000     -4.0070204E-32
   6.390000     -4.3199141E-32
   6.400000     -4.6412020E-32
   6.410000     -4.9701000E-32
   6.420000     -5.3062356E-32
   6.430000     -5.6490197E-32
   6.440000     -5.9976572E-32
   6.450000     -6.3513129E-32
   6.460000     -6.7090523E-32
   6.470000     -7.0698268E-32
   6.480000     -7.4324715E-32
   6.490000     -7.7956716E-32
   6.500000     -8.1580278E-32
   6.510000     -8.5180264E-32
   6.520000     -8.8739632E-32
   6.530000     -9.2240054E-32
   6.540000     -9.5661954E-32
   6.550000     -9.8984383E-32
   6.560000     -1.0218515E-31
   6.570000     -1.0524101E-31
   6.580000     -1.0812703E-31
   6.590000     -1.1081718E-31
   6.600000     -1.1328479E-31
   6.610000     -1.1550199E-31
   6.620000     -1.1744001E-31
   6.630000     -1.1906922E-31
   6.640000     -1.2035923E-31
   6.650000     -1.2127887E-31
   6.660000     -1.2179632E-31
   6.670000     -1.2187906E-31
   6.680000     -1.2149294E-31
   6.690000     -1.2060549E-31
   6.700000     -1.1918354E-31
   6.710000     -1.1719123E-31
   6.720000     -1.1459331E-31
   6.730000     -1.1135405E-31
   6.740000     -1.0743733E-31
   6.750000     -1.0280711E-31
   6.760000     -9.7426277E-32
   6.770000     -9.1257488E-32
   6.780000     -8.4264184E-32
   6.790000     -7.6409466E-32
   6.800000     -6.7656712E-32
   6.810000     -5.7969516E-32
   6.820000     -4.7312028E-32
   6.830000     -3.5649126E-32
   6.840000     -2.2946633E-32
   6.850000     -9.1715037E-33
   6.860000      5.7078836E-33
   6.870000      2.1721478E-32
   6.880000      3.8897287E-32
   6.890000      5.7260986E-32
   6.900000      7.6835636E-32
   6.910000      9.7641421E-32
   6.920000      1.1969518E-31
   6.930000      1.4301009E-31
   6.940000      1.6759545E-31
   6.950000      1.9345621E-31
   6.960000      2.2059259E-31
   6.970000      2.4899989E-31
   6.980000      2.7866812E-31
   6.990000      3.0958170E-31
   7.000000      3.4171903E-31
   7.010000      3.7505243E-31
   7.020000      4.0954764E-31
   7.030000      4.4516390E-31
   7.040000      4.8185338E-31
   7.050000      5.1956074E-31
   7.060000      5.5822313E-31