  -2.600000      0.0000000E+00
  -2.590000      0.0000000E+00
  -2.580000      0.0000000E+00
  -2.570000      0.0000000E+00
  -2.560000      0.0000000E+00
  -2.550000      0.0000000E+00
  -2.540000      0.0000000E+00
  -2.530000      0.0000000E+00
  -2.520000      0.0000000E+00
  -2.510000      0.0000000E+00
  -2.500000      0.0000000E+00
  -2.490000      0.0000000E+00
  -2.480000      0.0000000E+00
  -2.470000      0.0000000E+00
  -2.460000      0.0000000E+00
  -2.450000      0.0000000E+00
  -2.440000      0.0000000E+00
  -2.430000      0.0000000E+00
  -2.420000      0.0000000E+00
  -2.410000      0.0000000E+00
  -2.400000      0.0000000E+00
  -2.390000      0.0000000E+00
  -2.380000      0.0000000E+00
  -2.370000      0.0000000E+00
  -2.360000      0.0000000E+00
  -2.350000      0.0000000E+00
  -2.340000      0.0000000E+00
  -2.330000      0.0000000E+00
  -2.320000      0.0000000E+00
  -2.310000      0.0000000E+00
  -2.300000      0.0000000E+00
  -2.290000      0.0000000E+00
  -2.280000      0.0000000E+00
  -2.270000      0.0000000E+00
  -2.260000      0.0000000E+00
  -2.250000      0.0000000E+00
  -2.240000      0.0000000E+00
  -2.230000      0.0000000E+00
  -2.220000      0.0000000E+00
  -2.210000      0.0000000E+00
  -2.200000      0.0000000E+00
  -2.190000      0.0000000E+00
  -2.180000      0.0000000E+00
  -2.170000      0.0000000E+00
  -2.160000      0.0000000E+00
  -2.150000      0.0000000E+00
  -2.140000      0.0000000E+00
  -2.130000      0.0000000E+00
  -2.120000      0.0000000E+00
  -2.110000      0.0000000E+00
  -2.100000      0.0000000E+00
  -2.090000      0.0000000E+00
  -2.080000      0.0000000E+00
  -2.070000      0.0000000E+00
  -2.060000      0.0000000E+00
  -2.050000      0.0000000E+00
  -2.040000      0.0000000E+00
  -2.030000      0.0000000E+00
  -2.020000      0.0000000E+00
  -2.010000      0.0000000E+00
  -2.000000      0.0000000E+00
  -1.990000      0.0000000E+00
  -1.980000      0.0000000E+00
  -1.970000      0.0000000E+00
  -1.960000      0.0000000E+00
  -1.950000      0.0000000E+00
  -1.940000      0.0000000E+00
  -1.930000      0.0000000E+00
  -1.920000      0.0000000E+00
  -1.910000      0.0000000E+00
  -1.900000      0.0000000E+00
  -1.890000      0.0000000E+00
  -1.880000      0.0000000E+00
  -1.870000      0.0000000E+00
  -1.860000      0.0000000E+00
  -1.850000      0.0000000E+00
  -1.840000      0.0000000E+00
  -1.830000      0.0000000E+00
  -1.820000      0.0000000E+00
  -1.810000      0.0000000E+00
  -1.800000      0.0000000E+00
  -1.790000      0.0000000E+00
  -1.780000      0.0000000E+00
  -1.770000      0.0000000E+00
  -1.760000      0.0000000E+00
  -1.750000      0.0000000E+00
  -1.740000      0.0000000E+00
  -1.730000      0.0000000E+00
  -1.720000      0.0000000E+00
  -1.710000      0.0000000E+00
  -1.700000      0.0000000E+00
  -1.690000      0.0000000E+00
  -1.680000      0.0000000E+00
  -1.670000      0.0000000E+00
  -1.660000      0.0000000E+00
  -1.650000      0.0000000E+00
  -1.640000      0.0000000E+00
  -1.630000      0.0000000E+00
  -1.620000      0.0000000E+00
  -1.610000      0.0000000E+00
  -1.600000      0.0000000E+00
  -1.590000      0.0000000E+00
  -1.580000      0.0000000E+00
  -1.570000      0.0000000E+00
  -1.560000      0.0000000E+00
  -1.550000      0.0000000E+00
  -1.540000      0.0000000E+00
  -1.530000      0.0000000E+00
  -1.520000      0.0000000E+00
  -1.510000      0.0000000E+00
  -1.500000      0.0000000E+00
  -1.490000      0.0000000E+00
  -1.480000      0.0000000E+00
  -1.470000      0.0000000E+00
  -1.460000      0.0000000E+00
  -1.450000      0.0000000E+00
  -1.440000      0.0000000E+00
  -1.430000      0.0000000E+00
  -1.420000      0.0000000E+00
  -1.410000      0.0000000E+00
  -1.400000      0.0000000E+00
  -1.390000      0.0000000E+00
  -1.380000      0.0000000E+00
  -1.370000      0.0000000E+00
  -1.360000      0.0000000E+00
  -1.350000      0.0000000E+00
  -1.340000      0.0000000E+00
  -1.330000      0.0000000E+00
  -1.320000      0.0000000E+00
  -1.310000      0.0000000E+00
  -1.300000      0.0000000E+00
  -1.290000      0.0000000E+00
  -1.280000      0.0000000E+00
  -1.270000      0.0000000E+00
  -1.260000      0.0000000E+00
  -1.250000      0.0000000E+00
  -1.240000      0.0000000E+00
  -1.230000      0.0000000E+00
  -1.220000      0.0000000E+00
  -1.210000      0.0000000E+00
  -1.200000      0.0000000E+00
  -1.190000      0.0000000E+00
  -1.180000      0.0000000E+00
  -1.170000      0.0000000E+00
  -1.160000      0.0000000E+00
  -1.150000      0.0000000E+00
  -1.140000      0.0000000E+00
  -1.130000      0.0000000E+00
  -1.120000      0.0000000E+00
  -1.110000      0.0000000E+00
  -1.100000      0.0000000E+00
  -1.090000      0.0000000E+00
  -1.080000      0.0000000E+00
  -1.070000      0.0000000E+00
  -1.060000      0.0000000E+00
  -1.050000      0.0000000E+00
  -1.040000      0.0000000E+00
  -1.030000      0.0000000E+00
  -1.020000      0.0000000E+00
  -1.010000      0.0000000E+00
  -1.000000      0.0000000E+00
 -0.9900000      0.0000000E+00
 -0.9800000      0.0000000E+00
 -0.9700000      0.0000000E+00
 -0.9600000      0.0000000E+00
 -0.9500000      0.0000000E+00
 -0.9400000      0.0000000E+00
 -0.9300000      0.0000000E+00
 -0.9200000      0.0000000E+00
 -0.9100000      0.0000000E+00
 -0.9000000      0.0000000E+00
 -0.8900000      0.0000000E+00
 -0.8800000      0.0000000E+00
 -0.8700000      0.0000000E+00
 -0.8600000      0.0000000E+00
 -0.8500000      0.0000000E+00
 -0.8400000      0.0000000E+00
 -0.8300000      0.0000000E+00
 -0.8200000      0.0000000E+00
 -0.8100000      0.0000000E+00
 -0.8000000      0.0000000E+00
 -0.7900000      0.0000000E+00
 -0.7800000      0.0000000E+00
 -0.7700000      0.0000000E+00
 -0.7600000      0.0000000E+00
 -0.7500000      0.0000000E+00
 -0.7400000      0.0000000E+00
 -0.7300000      0.0000000E+00
 -0.7200000      0.0000000E+00
 -0.7100000      0.0000000E+00
 -0.7000000      0.0000000E+00
 -0.6900000      0.0000000E+00
 -0.6800000      0.0000000E+00
 -0.6700000      0.0000000E+00
 -0.6600000      0.0000000E+00
 -0.6500000      0.0000000E+00
 -0.6400000      0.0000000E+00
 -0.6300000      0.0000000E+00
 -0.6200000      0.0000000E+00
 -0.6100000      0.0000000E+00
 -0.6000000      0.0000000E+00
 -0.5900000      0.0000000E+00
 -0.5800000      0.0000000E+00
 -0.5700000      0.0000000E+00
 -0.5600000      0.0000000E+00
 -0.5500000      0.0000000E+00
 -0.5400000      0.0000000E+00
 -0.5300000      0.0000000E+00
 -0.5200000      0.0000000E+00
 -0.5100000      0.0000000E+00
 -0.5000000      0.0000000E+00
 -0.4900000      0.0000000E+00
 -0.4800000      0.0000000E+00
 -0.4700000      0.0000000E+00
 -0.4600000      0.0000000E+00
 -0.4500000      0.0000000E+00
 -0.4400000      0.0000000E+00
 -0.4300000      0.0000000E+00
 -0.4200000      0.0000000E+00
 -0.4100000      0.0000000E+00
 -0.4000000      0.0000000E+00
 -0.3900000      0.0000000E+00
 -0.3800000      0.0000000E+00
 -0.3700000      0.0000000E+00
 -0.3600000      0.0000000E+00
 -0.3500000      0.0000000E+00
 -0.3400000      0.0000000E+00
 -0.3300000      0.0000000E+00
 -0.3200000      0.0000000E+00
 -0.3100000      0.0000000E+00
 -0.3000000      0.0000000E+00
 -0.2900000      0.0000000E+00
 -0.2800000      0.0000000E+00
 -0.2700000      0.0000000E+00
 -0.2600000      0.0000000E+00
 -0.2500000      0.0000000E+00
 -0.2400000      0.0000000E+00
 -0.2300000      0.0000000E+00
 -0.2200000      0.0000000E+00
 -0.2100000      0.0000000E+00
 -0.2000000      0.0000000E+00
 -0.1900000      0.0000000E+00
 -0.1800000      0.0000000E+00
 -0.1700000      0.0000000E+00
 -0.1600000      0.0000000E+00
 -0.1500000      0.0000000E+00
 -0.1400000      0.0000000E+00
 -0.1300000      0.0000000E+00
 -0.1200000      0.0000000E+00
 -0.1100000      0.0000000E+00
 -0.1000000      0.0000000E+00
 -9.0000004E-02  0.0000000E+00
 -7.9999998E-02  0.0000000E+00
 -7.0000000E-02  0.0000000E+00
 -5.9999999E-02  0.0000000E+00
 -5.0000001E-02  0.0000000E+00
 -3.9999999E-02  0.0000000E+00
 -2.9999999E-02  0.0000000E+00
 -2.0000000E-02  0.0000000E+00
 -9.9999998E-03  0.0000000E+00
 -3.4694470E-17  0.0000000E+00
  9.9999998E-03  0.0000000E+00
  2.0000000E-02  0.0000000E+00
  2.9999999E-02  0.0000000E+00
  3.9999999E-02  0.0000000E+00
  5.0000001E-02  0.0000000E+00
  5.9999999E-02  0.0000000E+00
  7.0000000E-02  0.0000000E+00
  7.9999998E-02  0.0000000E+00
  9.0000004E-02  0.0000000E+00
  0.1000000      0.0000000E+00
  0.1100000      0.0000000E+00
  0.1200000      0.0000000E+00
  0.1300000      0.0000000E+00
  0.1400000      0.0000000E+00
  0.1500000      0.0000000E+00
  0.1600000      0.0000000E+00
  0.1700000      0.0000000E+00
  0.1800000      0.0000000E+00
  0.1900000      0.0000000E+00
  0.2000000      0.0000000E+00
  0.2100000      0.0000000E+00
  0.2200000      0.0000000E+00
  0.2300000      0.0000000E+00
  0.2400000      0.0000000E+00
  0.2500000      0.0000000E+00
  0.2600000      0.0000000E+00
  0.2700000      0.0000000E+00
  0.2800000      0.0000000E+00
  0.2900000      0.0000000E+00
  0.3000000      0.0000000E+00
  0.3100000      0.0000000E+00
  0.3200000      0.0000000E+00
  0.3300000      0.0000000E+00
  0.3400000      0.0000000E+00
  0.3500000      0.0000000E+00
  0.3600000      0.0000000E+00
  0.3700000      0.0000000E+00
  0.3800000      0.0000000E+00
  0.3900000      0.0000000E+00
  0.4000000      0.0000000E+00
  0.4100000      0.0000000E+00
  0.4200000      0.0000000E+00
  0.4300000      0.0000000E+00
  0.4400000      0.0000000E+00
  0.4500000      0.0000000E+00
  0.4600000      0.0000000E+00
  0.4700000      0.0000000E+00
  0.4800000      0.0000000E+00
  0.4900000      0.0000000E+00
  0.5000000      0.0000000E+00
  0.5100000      0.0000000E+00
  0.5200000      0.0000000E+00
  0.5300000      0.0000000E+00
  0.5400000      0.0000000E+00
  0.5500000      0.0000000E+00
  0.5600000      0.0000000E+00
  0.5700000      0.0000000E+00
  0.5800000      0.0000000E+00
  0.5900000      0.0000000E+00
  0.6000000      0.0000000E+00
  0.6100000      0.0000000E+00
  0.6200000      0.0000000E+00
  0.6300000      0.0000000E+00
  0.6400000      0.0000000E+00
  0.6500000      0.0000000E+00
  0.6600000      0.0000000E+00
  0.6700000      0.0000000E+00
  0.6800000      0.0000000E+00
  0.6900000      0.0000000E+00
  0.7000000      0.0000000E+00
  0.7100000      0.0000000E+00
  0.7200000      0.0000000E+00
  0.7300000      0.0000000E+00
  0.7400000      0.0000000E+00
  0.7500000      0.0000000E+00
  0.7600000      0.0000000E+00
  0.7700000      0.0000000E+00
  0.7800000      0.0000000E+00
  0.7900000      0.0000000E+00
  0.8000000      0.0000000E+00
  0.8100000      0.0000000E+00
  0.8200000      0.0000000E+00
  0.8300000      0.0000000E+00
  0.8400000      0.0000000E+00
  0.8500000      0.0000000E+00
  0.8600000      0.0000000E+00
  0.8700000      0.0000000E+00
  0.8800000      0.0000000E+00
  0.8900000      0.0000000E+00
  0.9000000      0.0000000E+00
  0.9100000      0.0000000E+00
  0.9200000      0.0000000E+00
  0.9300000      0.0000000E+00
  0.9400000      0.0000000E+00
  0.9500000      0.0000000E+00
  0.9600000      0.0000000E+00
  0.9700000      0.0000000E+00
  0.9800000      0.0000000E+00
  0.9900000      0.0000000E+00
   1.000000      0.0000000E+00
   1.010000      0.0000000E+00
   1.020000      0.0000000E+00
   1.030000      0.0000000E+00
   1.040000      0.0000000E+00
   1.050000      0.0000000E+00
   1.060000      0.0000000E+00
   1.070000      0.0000000E+00
   1.080000      0.0000000E+00
   1.090000      0.0000000E+00
   1.100000      0.0000000E+00
   1.110000      0.0000000E+00
   1.120000      0.0000000E+00
   1.130000      0.0000000E+00
   1.140000      0.0000000E+00
   1.150000      0.0000000E+00
   1.160000      0.0000000E+00
   1.170000      0.0000000E+00
   1.180000      0.0000000E+00
   1.190000      0.0000000E+00
   1.200000      0.0000000E+00
   1.210000      0.0000000E+00
   1.220000      0.0000000E+00
   1.230000      0.0000000E+00
   1.240000      0.0000000E+00
   1.250000      0.0000000E+00
   1.260000      0.0000000E+00
   1.270000      0.0000000E+00
   1.280000      0.0000000E+00
   1.290000      0.0000000E+00
   1.300000      0.0000000E+00
   1.310000      0.0000000E+00
   1.320000      0.0000000E+00
   1.330000      0.0000000E+00
   1.340000      0.0000000E+00
   1.350000      0.0000000E+00
   1.360000      0.0000000E+00
   1.370000      0.0000000E+00
   1.380000      0.0000000E+00
   1.390000      0.0000000E+00
   1.400000      0.0000000E+00
   1.410000      0.0000000E+00
   1.420000      0.0000000E+00
   1.430000      0.0000000E+00
   1.440000      0.0000000E+00
   1.450000      0.0000000E+00
   1.460000      0.0000000E+00
   1.470000      0.0000000E+00
   1.480000      0.0000000E+00
   1.490000      0.0000000E+00
   1.500000      0.0000000E+00
   1.510000      0.0000000E+00
   1.520000      0.0000000E+00
   1.530000      0.0000000E+00
   1.540000      0.0000000E+00
   1.550000      0.0000000E+00
   1.560000      0.0000000E+00
   1.570000      0.0000000E+00
   1.580000      0.0000000E+00
   1.590000      0.0000000E+00
   1.600000      0.0000000E+00
   1.610000      0.0000000E+00
   1.620000      0.0000000E+00
   1.630000      0.0000000E+00
   1.640000      0.0000000E+00
   1.650000      0.0000000E+00
   1.660000      0.0000000E+00
   1.670000      0.0000000E+00
   1.680000      0.0000000E+00
   1.690000      0.0000000E+00
   1.700000      0.0000000E+00
   1.710000      0.0000000E+00
   1.720000      0.0000000E+00
   1.730000      0.0000000E+00
   1.740000      0.0000000E+00
   1.750000      0.0000000E+00
   1.760000      0.0000000E+00
   1.770000      0.0000000E+00
   1.780000      0.0000000E+00
   1.790000      0.0000000E+00
   1.800000      0.0000000E+00
   1.810000      0.0000000E+00
   1.820000      0.0000000E+00
   1.830000      0.0000000E+00
   1.840000      0.0000000E+00
   1.850000      0.0000000E+00
   1.860000      0.0000000E+00
   1.870000      0.0000000E+00
   1.880000      0.0000000E+00
   1.890000      0.0000000E+00
   1.900000      0.0000000E+00
   1.910000      0.0000000E+00
   1.920000      0.0000000E+00
   1.930000      0.0000000E+00
   1.940000      0.0000000E+00
   1.950000      0.0000000E+00
   1.960000      0.0000000E+00
   1.970000      0.0000000E+00
   1.980000      0.0000000E+00
   1.990000      0.0000000E+00
   2.000000      0.0000000E+00
   2.010000      0.0000000E+00
   2.020000      0.0000000E+00
   2.030000      0.0000000E+00
   2.040000      0.0000000E+00
   2.050000      0.0000000E+00
   2.060000      0.0000000E+00
   2.070000      0.0000000E+00
   2.080000      0.0000000E+00
   2.090000      0.0000000E+00
   2.100000      0.0000000E+00
   2.110000      0.0000000E+00
   2.120000      0.0000000E+00
   2.130000      0.0000000E+00
   2.140000      0.0000000E+00
   2.150000      0.0000000E+00
   2.160000      0.0000000E+00
   2.170000      0.0000000E+00
   2.180000      0.0000000E+00
   2.190000      0.0000000E+00
   2.200000      0.0000000E+00
   2.210000      0.0000000E+00
   2.220000      0.0000000E+00
   2.230000      0.0000000E+00
   2.240000      0.0000000E+00
   2.250000      0.0000000E+00
   2.260000      0.0000000E+00
   2.270000      0.0000000E+00
   2.280000      0.0000000E+00
   2.290000      0.0000000E+00
   2.300000      0.0000000E+00
   2.310000      0.0000000E+00
   2.320000      0.0000000E+00
   2.330000      0.0000000E+00
   2.340000      0.0000000E+00
   2.350000      0.0000000E+00
   2.360000      0.0000000E+00
   2.370000      0.0000000E+00
   2.380000      0.0000000E+00
   2.390000      0.0000000E+00
   2.400000      0.0000000E+00
   2.410000      0.0000000E+00
   2.420000      0.0000000E+00
   2.430000      0.0000000E+00
   2.440000      0.0000000E+00
   2.450000      0.0000000E+00
   2.460000      0.0000000E+00
   2.470000      0.0000000E+00
   2.480000      0.0000000E+00
   2.490000      0.0000000E+00
   2.500000      0.0000000E+00
   2.510000      0.0000000E+00
   2.520000      0.0000000E+00
   2.530000      0.0000000E+00
   2.540000      0.0000000E+00
   2.550000      0.0000000E+00
   2.560000      0.0000000E+00
   2.570000      0.0000000E+00
   2.580000      0.0000000E+00
   2.590000      0.0000000E+00
   2.600000      0.0000000E+00
   2.610000      0.0000000E+00
   2.620000      0.0000000E+00
   2.630000      0.0000000E+00
   2.640000      0.0000000E+00
   2.650000      0.0000000E+00
   2.660000      0.0000000E+00
   2.670000      0.0000000E+00
   2.680000      0.0000000E+00
   2.690000      0.0000000E+00
   2.700000      0.0000000E+00
   2.710000      0.0000000E+00
   2.720000      0.0000000E+00
   2.730000      0.0000000E+00
   2.740000      0.0000000E+00
   2.750000      0.0000000E+00
   2.760000      0.0000000E+00
   2.770000      0.0000000E+00
   2.780000      0.0000000E+00
   2.790000      0.0000000E+00
   2.800000      0.0000000E+00
   2.810000      0.0000000E+00
   2.820000      0.0000000E+00
   2.830000      0.0000000E+00
   2.840000      0.0000000E+00
   2.850000      0.0000000E+00
   2.860000      0.0000000E+00
   2.870000      0.0000000E+00
   2.880000      0.0000000E+00
   2.890000      0.0000000E+00
   2.900000      0.0000000E+00
   2.910000      0.0000000E+00
   2.920000      0.0000000E+00
   2.930000      0.0000000E+00
   2.940000     -1.1860830E-38
   2.950000     -1.2688243E-38
   2.960000     -1.3695889E-38
   2.970000     -1.5029700E-38
   2.980000     -1.6521272E-38
   2.990000     -1.7820170E-38
   3.000000     -1.8885683E-38
   3.010000     -1.9897735E-38
   3.020000     -2.0595936E-38
   3.030000     -2.1030554E-38
   3.040000     -2.1481349E-38
   3.050000     -2.1897096E-38
   3.060000     -2.2264241E-38
   3.070000     -2.2606071E-38
   3.080000     -2.2901136E-38
   3.090000     -2.2834520E-38
   3.100000     -2.1964511E-38
   3.110000     -1.9387040E-38
   3.120000     -1.5316446E-38
   3.130000      0.0000000E+00
   3.140000      0.0000000E+00
   3.150000      0.0000000E+00
   3.160000      0.0000000E+00
   3.170000      1.3667684E-38
   3.180000      1.9604977E-38
   3.190000      2.5572441E-38
   3.200000      3.0677501E-38
   3.210000      3.4970634E-38
   3.220000      3.9475578E-38
   3.230000      4.4281303E-38
   3.240000      4.9480303E-38
   3.250000      5.6245054E-38
   3.260000      6.4704749E-38
   3.270000      7.4029112E-38
   3.280000      8.3463265E-38
   3.290000      9.2567574E-38
   3.300000      1.0125018E-37
   3.310000      1.0949942E-37
   3.320000      1.1870131E-37
   3.330000      1.2854976E-37
   3.340000      1.3804025E-37
   3.350000      1.4612731E-37
   3.360000      1.5290620E-37
   3.370000      1.5925668E-37
   3.380000      1.6637866E-37
   3.390000      1.7476389E-37
   3.400000      1.8339201E-37
   3.410000      1.9197796E-37
   3.420000      2.0018311E-37
   3.430000      2.0370160E-37
   3.440000      2.0285436E-37
   3.450000      2.0214094E-37
   3.460000      1.9962954E-37
   3.470000      2.0592224E-37
   3.480000      2.3022554E-37
   3.490000      2.6453421E-37
   3.500000      3.0218943E-37
   3.510000      3.3978264E-37
   3.520000      3.7708417E-37
   3.530000      4.1312785E-37
   3.540000      4.4274700E-37
   3.550000      4.6872801E-37
   3.560000      4.7676277E-37
   3.570000      4.5654815E-37
   3.580000      4.2232575E-37
   3.590000      3.5866683E-37
   3.600000      2.6211969E-37
   3.610000      1.5043236E-37
   3.620000      2.6461885E-38
   3.630000     -1.0789194E-37
   3.640000     -2.5341362E-37
   3.650000     -4.0993253E-37
   3.660000     -5.7490819E-37
   3.670000     -7.4788218E-37
   3.680000     -9.3413632E-37
   3.690000     -1.1274287E-36
   3.700000     -1.3069722E-36
   3.710000     -1.4660985E-36
   3.720000     -1.6011017E-36
   3.730000     -1.7120162E-36
   3.740000     -1.8056089E-36
   3.750000     -1.8728382E-36
   3.760000     -1.9209859E-36
   3.770000     -1.9608747E-36
   3.780000     -1.9824077E-36
   3.790000     -2.0335647E-36
   3.800000     -2.0846694E-36
   3.810000     -2.0854051E-36
   3.820000     -2.1090752E-36
   3.830000     -2.1633600E-36
   3.840000     -2.2202141E-36
   3.850000     -2.2904928E-36
   3.860000     -2.3858575E-36
   3.870000     -2.5068854E-36
   3.880000     -2.6044626E-36
   3.890000     -2.7635268E-36
   3.900000     -3.0138171E-36
   3.910000     -3.2490774E-36
   3.920000     -3.4779735E-36
   3.930000     -3.7947238E-36
   3.940000     -4.1899464E-36
   3.950000     -4.5717353E-36
   3.960000     -4.9454717E-36
   3.970000     -5.0096708E-36
   3.980000     -4.7814478E-36
   3.990000     -4.5638543E-36
   4.000000     -4.3006997E-36
   4.010000     -3.9681652E-36
   4.020000     -3.5745765E-36
   4.030000     -3.1437773E-36
   4.040000     -2.6903750E-36
   4.050000     -2.1913054E-36
   4.060000     -1.5520633E-36
   4.070000     -6.9199383E-37
   4.080000      1.3558749E-37
   4.090000      8.5338404E-37
   4.100000      1.7174775E-36
   4.110000      2.7069657E-36
   4.120000      3.7759169E-36
   4.130000      4.9389155E-36
   4.140000      6.1988042E-36
   4.150000      7.3277731E-36
   4.160000      8.3243912E-36
   4.170000      9.4190775E-36
   4.180000      1.0454084E-35
   4.190000      1.1339373E-35
   4.200000      1.2151697E-35
   4.210000      1.2949027E-35
   4.220000      1.3631012E-35
   4.230000      1.4315789E-35
   4.240000      1.5252531E-35
   4.250000      1.6418214E-35
   4.260000      1.7889654E-35
   4.270000      1.9489797E-35
   4.280000      2.1085879E-35
   4.290000      2.2837737E-35
   4.300000      2.4788983E-35
   4.310000      2.6713959E-35
   4.320000      2.8455897E-35
   4.330000      3.0081721E-35
   4.340000      3.1564870E-35
   4.350000      3.2860078E-35
   4.360000      3.3850630E-35
   4.370000      3.4465635E-35
   4.380000      3.4690517E-35
   4.390000      3.4590379E-35
   4.400000      3.3884305E-35
   4.410000      3.2437462E-35
   4.420000      3.0625209E-35
   4.430000      2.8648341E-35
   4.440000      2.6310692E-35
   4.450000      2.3154541E-35
   4.460000      1.9522410E-35
   4.470000      1.5846449E-35
   4.480000      1.2437824E-35
   4.490000      9.0572285E-36
   4.500000      5.2112928E-36
   4.510000      1.2772471E-36
   4.520000     -2.5784670E-36
   4.530000     -6.3267188E-36
   4.540000     -9.6787732E-36
   4.550000     -1.2954285E-35
   4.560000     -1.6317269E-35
   4.570000     -1.9518395E-35
   4.580000     -2.3300079E-35
   4.590000     -2.7995024E-35
   4.600000     -3.3404447E-35
   4.610000     -3.9662703E-35
   4.620000     -4.5990264E-35
   4.630000     -5.2757707E-35
   4.640000     -6.0945364E-35
   4.650000     -6.9946724E-35
   4.660000     -7.9543625E-35
   4.670000     -8.9851832E-35
   4.680000     -1.0087725E-34
   4.690000     -1.1217037E-34
   4.700000     -1.2328390E-34
   4.710000     -1.3381816E-34
   4.720000     -1.4362742E-34
   4.730000     -1.5315922E-34
   4.740000     -1.6302386E-34
   4.750000     -1.7207620E-34
   4.760000     -1.8005616E-34
   4.770000     -1.8908123E-34
   4.780000     -1.9879871E-34
   4.790000     -2.0823614E-34
   4.800000     -2.1530336E-34
   4.810000     -2.1998897E-34
   4.820000     -2.2422137E-34
   4.830000     -2.2742801E-34
   4.840000     -2.2945785E-34
   4.850000     -2.2930573E-34
   4.860000     -2.2718720E-34
   4.870000     -2.2425824E-34
   4.880000     -2.2035190E-34
   4.890000     -2.1626612E-34
   4.900000     -2.1194801E-34
   4.910000     -2.0627637E-34
   4.920000     -2.0159882E-34
   4.930000     -1.9689351E-34
   4.940000     -1.9006781E-34
   4.950000     -1.8171680E-34
   4.960000     -1.7295123E-34
   4.970000     -1.6351528E-34
   4.980000     -1.5226244E-34
   4.990000     -1.3830232E-34
   5.000000     -1.1952012E-34
   5.010000     -9.6082004E-35
   5.020000     -7.0497530E-35
   5.030000     -4.3290593E-35
   5.040000     -1.3674755E-35
   5.050000      1.9613501E-35
   5.060000      5.6647222E-35
   5.070000      9.4572906E-35
   5.080000      1.3272899E-34
   5.090000      1.7324328E-34
   5.100000      2.1315278E-34
   5.110000      2.5538584E-34
   5.120000      3.0658762E-34
   5.130000      3.6433274E-34
   5.140000      4.2397785E-34
   5.150000      4.8447609E-34
   5.160000      5.4871580E-34
   5.170000      6.1596056E-34
   5.180000      6.8461985E-34
   5.190000      7.5334618E-34
   5.200000      8.2297140E-34
   5.210000      8.9497851E-34
   5.220000      9.6842294E-34
   5.230000      1.0431771E-33
   5.240000      1.1187023E-33
   5.250000      1.1947309E-33
   5.260000      1.2735745E-33
   5.270000      1.3559500E-33
   5.280000      1.4401948E-33
   5.290000      1.5249642E-33
   5.300000      1.6069596E-33
   5.310000      1.6868100E-33
   5.320000      1.7675240E-33
   5.330000      1.8434200E-33
   5.340000      1.9134040E-33
   5.350000      1.9833826E-33
   5.360000      2.0530288E-33
   5.370000      2.1199174E-33
   5.380000      2.1852185E-33
   5.390000      2.2533075E-33
   5.400000      2.3228957E-33
   5.410000      2.3863450E-33
   5.420000      2.4419220E-33
   5.430000      2.4908367E-33
   5.440000      2.5335110E-33
   5.450000      2.5649158E-33
   5.460000      2.5836290E-33
   5.470000      2.5932030E-33
   5.480000      2.5896433E-33
   5.490000      2.5716244E-33
   5.500000      2.5392787E-33
   5.510000      2.4904009E-33
   5.520000      2.4265315E-33
   5.530000      2.3446205E-33
   5.540000      2.2434811E-33
   5.550000      2.1231564E-33
   5.560000      1.9792884E-33
   5.570000      1.8152724E-33
   5.580000      1.6324068E-33
   5.590000      1.4259855E-33
   5.600000      1.1949302E-33
   5.610000      9.3935113E-34
   5.620000      6.5534857E-34
   5.630000      3.4213121E-34
   5.640000      1.5447120E-36
   5.650000     -3.6521969E-34
   5.660000     -7.6037311E-34
   5.670000     -1.1858463E-33
   5.680000     -1.6400378E-33
   5.690000     -2.1234176E-33
   5.700000     -2.6362419E-33
   5.710000     -3.1774505E-33
   5.720000     -3.7490710E-33
   5.730000     -4.3537409E-33
   5.740000     -4.9899831E-33
   5.750000     -5.6609468E-33
   5.760000     -6.3689834E-33
   5.770000     -7.1121780E-33
   5.780000     -7.8854475E-33
   5.790000     -8.6865712E-33
   5.800000     -9.5210789E-33
   5.810000     -1.0388035E-32
   5.820000     -1.1285104E-32
   5.830000     -1.2211447E-32
   5.840000     -1.3163674E-32
   5.850000     -1.4140170E-32
   5.860000     -1.5139055E-32
   5.870000     -1.6158492E-32
   5.880000     -1.7192783E-32
   5.890000     -1.8239582E-32
   5.900000     -1.9298003E-32
   5.910000     -2.0361920E-32
   5.920000     -2.1427505E-32
   5.930000     -2.2490487E-32
   5.940000     -2.3545199E-32
   5.950000     -2.4585892E-32
   5.960000     -2.5607028E-32
   5.970000     -2.6601220E-32
   5.980000     -2.7561516E-32
   5.990000     -2.8483380E-32
   6.000000     -2.9358306E-32
   6.010000     -3.0177003E-32
   6.020000     -3.0935103E-32
   6.030000     -3.1626005E-32
   6.040000     -3.2240284E-32
   6.050000     -3.2771201E-32
   6.060000     -3.3210175E-32
   6.070000     -3.3546390E-32
   6.080000     -3.3770234E-32
   6.090000     -3.3872308E-32
   6.100000     -3.3842315E-32
   6.110000     -3.3669294E-32
   6.120000     -3.3343085E-32
   6.130000     -3.2853518E-32
   6.140000     -3.2189103E-32
   6.150000     -3.1337342E-32
   6.160000     -3.0286112E-32
   6.170000     -2.9022330E-32
   6.180000     -2.7533925E-32
   6.190000     -2.5810091E-32
   6.200000     -2.3840364E-32
   6.210000     -2.1611822E-32
   6.220000     -1.9109987E-32
   6.230000     -1.6321044E-32
   6.240000     -1.3233200E-32
   6.250000     -9.8362766E-33
   6.260000     -6.1218578E-33
   6.270000     -2.0799305E-33
   6.280000      2.3001945E-33
   6.290000      7.0258981E-33
   6.300000      1.2106765E-32
   6.310000      1.7550740E-32
   6.320000      2.3363335E-32
   6.330000      2.9549789E-32
   6.340000      3.6114716E-32
   6.350000      4.3060724E-32
   6.360000      5.0389287E-32
   6.370000      5.8101048E-32
   6.380000      6.6195049E-32
   6.390000      7.4668300E-32
   6.400000      8.3516088E-32
   6.410000      9.2731099E-32
   6.420000      1.0230624E-31
   6.430000      1.1223399E-31
   6.440000      1.2250245E-31
   6.450000      1.3309691E-31
   6.460000      1.4400067E-31
   6.470000      1.5519516E-31
   6.480000      1.6665894E-31
   6.490000      1.7836985E-31
   6.500000      1.9030192E-31
   6.510000      2.0242450E-31
   6.520000      2.1470503E-31
   6.530000      2.2710730E-31
   6.540000      2.3959279E-31
   6.550000      2.5211949E-31
   6.560000      2.6464107E-31
   6.570000      2.7710793E-31
   6.580000      2.8946711E-31
   6.590000      3.0166185E-31
   6.600000      3.1363193E-31
   6.610000      3.2531296E-31
   6.620000      3.3663669E-31
   6.630000      3.4753154E-31
   6.640000      3.5792230E-31
   6.650000      3.6773006E-31
   6.660000      3.7687235E-31
   6.670000      3.8526345E-31
   6.680000      3.9281380E-31
   6.690000      3.9943044E-31
   6.700000      4.0501766E-31
   6.710000      4.0947608E-31
   6.720000      4.1270347E-31
   6.730000      4.1459484E-31
   6.740000      4.1504345E-31
   6.750000      4.1394088E-31
   6.760000      4.1117499E-31
   6.770000      4.0663175E-31
   6.780000      4.0019621E-31
   6.790000      3.9175044E-31
   6.800000      3.8117631E-31
   6.810000      3.6835632E-31
   6.820000      3.5317154E-31
   6.830000      3.3550353E-31
   6.840000      3.1523455E-31
   6.850000      2.9224795E-31
   6.860000      2.6642899E-31
   6.870000      2.3766331E-31
   6.880000      2.0584006E-31
   6.890000      1.7085332E-31
   6.900000      1.3259994E-31
   6.910000      9.0981370E-32
   6.920000      4.5904862E-32
   6.930000     -2.7165399E-33
   6.940000     -5.4963283E-32
   6.950000     -1.1090795E-31
   6.960000     -1.7061452E-31
   6.970000     -2.3413793E-31
   6.980000     -3.0152298E-31
   6.990000     -3.7280258E-31
   7.000000     -4.4799792E-31
   7.010000     -5.2711701E-31
   7.020000     -6.1015388E-31
   7.030000     -6.9708818E-31
   7.040000     -7.8788313E-31
   7.050000     -8.8248527E-31
   7.060000     -9.8082355E-31