  -2.600000      0.0000000E+00
  -2.590000      0.0000000E+00
  -2.580000      0.0000000E+00
  -2.570000      0.0000000E+00
  -2.560000      0.0000000E+00
  -2.550000      0.0000000E+00
  -2.540000      0.0000000E+00
  -2.530000      0.0000000E+00
  -2.520000      0.0000000E+00
  -2.510000      0.0000000E+00
  -2.500000      0.0000000E+00
  -2.490000      0.0000000E+00
  -2.480000      0.0000000E+00
  -2.470000      0.0000000E+00
  -2.460000      0.0000000E+00
  -2.450000      0.0000000E+00
  -2.440000      0.0000000E+00
  -2.430000      0.0000000E+00
  -2.420000      0.0000000E+00
  -2.410000      0.0000000E+00
  -2.400000      0.0000000E+00
  -2.390000      0.0000000E+00
  -2.380000      0.0000000E+00
  -2.370000      0.0000000E+00
  -2.360000      0.0000000E+00
  -2.350000      0.0000000E+00
  -2.340000      0.0000000E+00
  -2.330000      0.0000000E+00
  -2.320000      0.0000000E+00
  -2.310000      0.0000000E+00
  -2.300000      0.0000000E+00
  -2.290000      0.0000000E+00
  -2.280000      0.0000000E+00
  -2.270000      0.0000000E+00
  -2.260000      0.0000000E+00
  -2.250000      0.0000000E+00
  -2.240000      0.0000000E+00
  -2.230000      0.0000000E+00
  -2.220000      0.0000000E+00
  -2.210000      0.0000000E+00
  -2.200000      0.0000000E+00
  -2.190000      0.0000000E+00
  -2.180000      0.0000000E+00
  -2.170000      0.0000000E+00
  -2.160000      0.0000000E+00
  -2.150000      0.0000000E+00
  -2.140000      0.0000000E+00
  -2.130000      0.0000000E+00
  -2.120000      0.0000000E+00
  -2.110000      0.0000000E+00
  -2.100000      0.0000000E+00
  -2.090000      0.0000000E+00
  -2.080000      0.0000000E+00
  -2.070000      0.0000000E+00
  -2.060000      0.0000000E+00
  -2.050000      0.0000000E+00
  -2.040000      0.0000000E+00
  -2.030000      0.0000000E+00
  -2.020000      0.0000000E+00
  -2.010000      0.0000000E+00
  -2.000000      0.0000000E+00
  -1.990000      0.0000000E+00
  -1.980000      0.0000000E+00
  -1.970000      0.0000000E+00
  -1.960000      0.0000000E+00
  -1.950000      0.0000000E+00
  -1.940000      0.0000000E+00
  -1.930000      0.0000000E+00
  -1.920000      0.0000000E+00
  -1.910000      0.0000000E+00
  -1.900000      0.0000000E+00
  -1.890000      0.0000000E+00
  -1.880000      0.0000000E+00
  -1.870000      0.0000000E+00
  -1.860000      0.0000000E+00
  -1.850000      0.0000000E+00
  -1.840000      0.0000000E+00
  -1.830000      0.0000000E+00
  -1.820000      0.0000000E+00
  -1.810000      0.0000000E+00
  -1.800000      0.0000000E+00
  -1.790000      0.0000000E+00
  -1.780000      0.0000000E+00
  -1.770000      0.0000000E+00
  -1.760000      0.0000000E+00
  -1.750000      0.0000000E+00
  -1.740000      0.0000000E+00
  -1.730000      0.0000000E+00
  -1.720000      0.0000000E+00
  -1.710000      0.0000000E+00
  -1.700000      0.0000000E+00
  -1.690000      0.0000000E+00
  -1.680000      0.0000000E+00
  -1.670000      0.0000000E+00
  -1.660000      0.0000000E+00
  -1.650000      0.0000000E+00
  -1.640000      0.0000000E+00
  -1.630000      0.0000000E+00
  -1.620000      0.0000000E+00
  -1.610000      0.0000000E+00
  -1.600000      0.0000000E+00
  -1.590000      0.0000000E+00
  -1.580000      0.0000000E+00
  -1.570000      0.0000000E+00
  -1.560000      0.0000000E+00
  -1.550000      0.0000000E+00
  -1.540000      0.0000000E+00
  -1.530000      0.0000000E+00
  -1.520000      0.0000000E+00
  -1.510000      0.0000000E+00
  -1.500000      0.0000000E+00
  -1.490000      0.0000000E+00
  -1.480000      0.0000000E+00
  -1.470000      0.0000000E+00
  -1.460000      0.0000000E+00
  -1.450000      0.0000000E+00
  -1.440000      0.0000000E+00
  -1.430000      0.0000000E+00
  -1.420000      0.0000000E+00
  -1.410000      0.0000000E+00
  -1.400000      0.0000000E+00
  -1.390000      0.0000000E+00
  -1.380000      0.0000000E+00
  -1.370000      0.0000000E+00
  -1.360000      0.0000000E+00
  -1.350000      0.0000000E+00
  -1.340000      0.0000000E+00
  -1.330000      0.0000000E+00
  -1.320000      0.0000000E+00
  -1.310000      0.0000000E+00
  -1.300000      0.0000000E+00
  -1.290000      0.0000000E+00
  -1.280000      0.0000000E+00
  -1.270000      0.0000000E+00
  -1.260000      0.0000000E+00
  -1.250000      0.0000000E+00
  -1.240000      0.0000000E+00
  -1.230000      0.0000000E+00
  -1.220000      0.0000000E+00
  -1.210000      0.0000000E+00
  -1.200000      0.0000000E+00
  -1.190000      0.0000000E+00
  -1.180000      0.0000000E+00
  -1.170000      0.0000000E+00
  -1.160000      0.0000000E+00
  -1.150000      0.0000000E+00
  -1.140000      0.0000000E+00
  -1.130000      0.0000000E+00
  -1.120000      0.0000000E+00
  -1.110000      0.0000000E+00
  -1.100000      0.0000000E+00
  -1.090000      0.0000000E+00
  -1.080000      0.0000000E+00
  -1.070000      0.0000000E+00
  -1.060000      0.0000000E+00
  -1.050000      0.0000000E+00
  -1.040000      0.0000000E+00
  -1.030000      0.0000000E+00
  -1.020000      0.0000000E+00
  -1.010000      0.0000000E+00
  -1.000000      0.0000000E+00
 -0.9900000      0.0000000E+00
 -0.9800000      0.0000000E+00
 -0.9700000      0.0000000E+00
 -0.9600000      0.0000000E+00
 -0.9500000      0.0000000E+00
 -0.9400000      0.0000000E+00
 -0.9300000      0.0000000E+00
 -0.9200000      0.0000000E+00
 -0.9100000      0.0000000E+00
 -0.9000000      0.0000000E+00
 -0.8900000      0.0000000E+00
 -0.8800000      0.0000000E+00
 -0.8700000      0.0000000E+00
 -0.8600000      0.0000000E+00
 -0.8500000      0.0000000E+00
 -0.8400000      0.0000000E+00
 -0.8300000      0.0000000E+00
 -0.8200000      0.0000000E+00
 -0.8100000      0.0000000E+00
 -0.8000000      0.0000000E+00
 -0.7900000      0.0000000E+00
 -0.7800000      0.0000000E+00
 -0.7700000      0.0000000E+00
 -0.7600000      0.0000000E+00
 -0.7500000      0.0000000E+00
 -0.7400000      0.0000000E+00
 -0.7300000      0.0000000E+00
 -0.7200000      0.0000000E+00
 -0.7100000      0.0000000E+00
 -0.7000000      0.0000000E+00
 -0.6900000      0.0000000E+00
 -0.6800000      0.0000000E+00
 -0.6700000      0.0000000E+00
 -0.6600000      0.0000000E+00
 -0.6500000      0.0000000E+00
 -0.6400000      0.0000000E+00
 -0.6300000      0.0000000E+00
 -0.6200000      0.0000000E+00
 -0.6100000      0.0000000E+00
 -0.6000000      0.0000000E+00
 -0.5900000      0.0000000E+00
 -0.5800000      0.0000000E+00
 -0.5700000      0.0000000E+00
 -0.5600000      0.0000000E+00
 -0.5500000      0.0000000E+00
 -0.5400000      0.0000000E+00
 -0.5300000      0.0000000E+00
 -0.5200000      0.0000000E+00
 -0.5100000      0.0000000E+00
 -0.5000000      0.0000000E+00
 -0.4900000      0.0000000E+00
 -0.4800000      0.0000000E+00
 -0.4700000      0.0000000E+00
 -0.4600000      0.0000000E+00
 -0.4500000      0.0000000E+00
 -0.4400000      0.0000000E+00
 -0.4300000      0.0000000E+00
 -0.4200000      0.0000000E+00
 -0.4100000      0.0000000E+00
 -0.4000000      0.0000000E+00
 -0.3900000      0.0000000E+00
 -0.3800000      0.0000000E+00
 -0.3700000      0.0000000E+00
 -0.3600000      0.0000000E+00
 -0.3500000      0.0000000E+00
 -0.3400000      0.0000000E+00
 -0.3300000      0.0000000E+00
 -0.3200000      0.0000000E+00
 -0.3100000      0.0000000E+00
 -0.3000000      0.0000000E+00
 -0.2900000      0.0000000E+00
 -0.2800000      0.0000000E+00
 -0.2700000      0.0000000E+00
 -0.2600000      0.0000000E+00
 -0.2500000      0.0000000E+00
 -0.2400000      0.0000000E+00
 -0.2300000      0.0000000E+00
 -0.2200000      0.0000000E+00
 -0.2100000      0.0000000E+00
 -0.2000000      0.0000000E+00
 -0.1900000      0.0000000E+00
 -0.1800000      0.0000000E+00
 -0.1700000      0.0000000E+00
 -0.1600000      0.0000000E+00
 -0.1500000      0.0000000E+00
 -0.1400000      0.0000000E+00
 -0.1300000      0.0000000E+00
 -0.1200000      0.0000000E+00
 -0.1100000      0.0000000E+00
 -0.1000000      0.0000000E+00
 -9.0000004E-02  0.0000000E+00
 -7.9999998E-02  0.0000000E+00
 -7.0000000E-02  0.0000000E+00
 -5.9999999E-02  0.0000000E+00
 -5.0000001E-02  0.0000000E+00
 -3.9999999E-02  0.0000000E+00
 -2.9999999E-02  0.0000000E+00
 -2.0000000E-02  0.0000000E+00
 -9.9999998E-03  0.0000000E+00
 -3.4694470E-17  0.0000000E+00
  9.9999998E-03  0.0000000E+00
  2.0000000E-02  0.0000000E+00
  2.9999999E-02  0.0000000E+00
  3.9999999E-02  0.0000000E+00
  5.0000001E-02  0.0000000E+00
  5.9999999E-02  0.0000000E+00
  7.0000000E-02  0.0000000E+00
  7.9999998E-02  0.0000000E+00
  9.0000004E-02  0.0000000E+00
  0.1000000      0.0000000E+00
  0.1100000      0.0000000E+00
  0.1200000      0.0000000E+00
  0.1300000      0.0000000E+00
  0.1400000      0.0000000E+00
  0.1500000      0.0000000E+00
  0.1600000      0.0000000E+00
  0.1700000      0.0000000E+00
  0.1800000      0.0000000E+00
  0.1900000      0.0000000E+00
  0.2000000      0.0000000E+00
  0.2100000      0.0000000E+00
  0.2200000      0.0000000E+00
  0.2300000      0.0000000E+00
  0.2400000      0.0000000E+00
  0.2500000      0.0000000E+00
  0.2600000      0.0000000E+00
  0.2700000      0.0000000E+00
  0.2800000      0.0000000E+00
  0.2900000      0.0000000E+00
  0.3000000      0.0000000E+00
  0.3100000      0.0000000E+00
  0.3200000      0.0000000E+00
  0.3300000      0.0000000E+00
  0.3400000      0.0000000E+00
  0.3500000      0.0000000E+00
  0.3600000      0.0000000E+00
  0.3700000      0.0000000E+00
  0.3800000      0.0000000E+00
  0.3900000      0.0000000E+00
  0.4000000      0.0000000E+00
  0.4100000      0.0000000E+00
  0.4200000      0.0000000E+00
  0.4300000      0.0000000E+00
  0.4400000      0.0000000E+00
  0.4500000      0.0000000E+00
  0.4600000      0.0000000E+00
  0.4700000      0.0000000E+00
  0.4800000      0.0000000E+00
  0.4900000      0.0000000E+00
  0.5000000      0.0000000E+00
  0.5100000      0.0000000E+00
  0.5200000      0.0000000E+00
  0.5300000      0.0000000E+00
  0.5400000      0.0000000E+00
  0.5500000      0.0000000E+00
  0.5600000      0.0000000E+00
  0.5700000      0.0000000E+00
  0.5800000      0.0000000E+00
  0.5900000      0.0000000E+00
  0.6000000      0.0000000E+00
  0.6100000      0.0000000E+00
  0.6200000      0.0000000E+00
  0.6300000      0.0000000E+00
  0.6400000      0.0000000E+00
  0.6500000      0.0000000E+00
  0.6600000      0.0000000E+00
  0.6700000      0.0000000E+00
  0.6800000      0.0000000E+00
  0.6900000      0.0000000E+00
  0.7000000      0.0000000E+00
  0.7100000      0.0000000E+00
  0.7200000      0.0000000E+00
  0.7300000      0.0000000E+00
  0.7400000      0.0000000E+00
  0.7500000      0.0000000E+00
  0.7600000      0.0000000E+00
  0.7700000      0.0000000E+00
  0.7800000      0.0000000E+00
  0.7900000      0.0000000E+00
  0.8000000      0.0000000E+00
  0.8100000      0.0000000E+00
  0.8200000      0.0000000E+00
  0.8300000      0.0000000E+00
  0.8400000      0.0000000E+00
  0.8500000      0.0000000E+00
  0.8600000      0.0000000E+00
  0.8700000      0.0000000E+00
  0.8800000      0.0000000E+00
  0.8900000      0.0000000E+00
  0.9000000      0.0000000E+00
  0.9100000      0.0000000E+00
  0.9200000      0.0000000E+00
  0.9300000      0.0000000E+00
  0.9400000      0.0000000E+00
  0.9500000      0.0000000E+00
  0.9600000      0.0000000E+00
  0.9700000      0.0000000E+00
  0.9800000      0.0000000E+00
  0.9900000      0.0000000E+00
   1.000000      0.0000000E+00
   1.010000      0.0000000E+00
   1.020000      0.0000000E+00
   1.030000      0.0000000E+00
   1.040000      0.0000000E+00
   1.050000      0.0000000E+00
   1.060000      0.0000000E+00
   1.070000      0.0000000E+00
   1.080000      0.0000000E+00
   1.090000      0.0000000E+00
   1.100000      0.0000000E+00
   1.110000      0.0000000E+00
   1.120000      0.0000000E+00
   1.130000      0.0000000E+00
   1.140000      0.0000000E+00
   1.150000      0.0000000E+00
   1.160000      0.0000000E+00
   1.170000      0.0000000E+00
   1.180000      0.0000000E+00
   1.190000      0.0000000E+00
   1.200000      0.0000000E+00
   1.210000      0.0000000E+00
   1.220000      0.0000000E+00
   1.230000      0.0000000E+00
   1.240000      0.0000000E+00
   1.250000      0.0000000E+00
   1.260000      0.0000000E+00
   1.270000      0.0000000E+00
   1.280000      0.0000000E+00
   1.290000      0.0000000E+00
   1.300000      0.0000000E+00
   1.310000      0.0000000E+00
   1.320000      0.0000000E+00
   1.330000      0.0000000E+00
   1.340000      0.0000000E+00
   1.350000      0.0000000E+00
   1.360000      0.0000000E+00
   1.370000      0.0000000E+00
   1.380000      0.0000000E+00
   1.390000      0.0000000E+00
   1.400000      0.0000000E+00
   1.410000      0.0000000E+00
   1.420000      0.0000000E+00
   1.430000      0.0000000E+00
   1.440000      0.0000000E+00
   1.450000      0.0000000E+00
   1.460000      0.0000000E+00
   1.470000      0.0000000E+00
   1.480000      0.0000000E+00
   1.490000      0.0000000E+00
   1.500000      0.0000000E+00
   1.510000      0.0000000E+00
   1.520000      0.0000000E+00
   1.530000      0.0000000E+00
   1.540000      0.0000000E+00
   1.550000      0.0000000E+00
   1.560000      0.0000000E+00
   1.570000      0.0000000E+00
   1.580000      0.0000000E+00
   1.590000      0.0000000E+00
   1.600000      0.0000000E+00
   1.610000      0.0000000E+00
   1.620000      0.0000000E+00
   1.630000      0.0000000E+00
   1.640000      0.0000000E+00
   1.650000      0.0000000E+00
   1.660000      0.0000000E+00
   1.670000      0.0000000E+00
   1.680000      0.0000000E+00
   1.690000      0.0000000E+00
   1.700000      0.0000000E+00
   1.710000      0.0000000E+00
   1.720000      0.0000000E+00
   1.730000      0.0000000E+00
   1.740000      0.0000000E+00
   1.750000      0.0000000E+00
   1.760000      0.0000000E+00
   1.770000      0.0000000E+00
   1.780000      0.0000000E+00
   1.790000      0.0000000E+00
   1.800000      0.0000000E+00
   1.810000      0.0000000E+00
   1.820000      0.0000000E+00
   1.830000      0.0000000E+00
   1.840000      0.0000000E+00
   1.850000      0.0000000E+00
   1.860000      0.0000000E+00
   1.870000      0.0000000E+00
   1.880000      0.0000000E+00
   1.890000      0.0000000E+00
   1.900000      0.0000000E+00
   1.910000      0.0000000E+00
   1.920000      0.0000000E+00
   1.930000      0.0000000E+00
   1.940000      0.0000000E+00
   1.950000      0.0000000E+00
   1.960000      0.0000000E+00
   1.970000      0.0000000E+00
   1.980000      0.0000000E+00
   1.990000      0.0000000E+00
   2.000000      0.0000000E+00
   2.010000      0.0000000E+00
   2.020000      0.0000000E+00
   2.030000      0.0000000E+00
   2.040000      0.0000000E+00
   2.050000      0.0000000E+00
   2.060000      0.0000000E+00
   2.070000      0.0000000E+00
   2.080000      0.0000000E+00
   2.090000      0.0000000E+00
   2.100000      0.0000000E+00
   2.110000      0.0000000E+00
   2.120000      0.0000000E+00
   2.130000      0.0000000E+00
   2.140000      0.0000000E+00
   2.150000      0.0000000E+00
   2.160000      0.0000000E+00
   2.170000      0.0000000E+00
   2.180000      0.0000000E+00
   2.190000      0.0000000E+00
   2.200000      0.0000000E+00
   2.210000      0.0000000E+00
   2.220000      0.0000000E+00
   2.230000      0.0000000E+00
   2.240000      0.0000000E+00
   2.250000      0.0000000E+00
   2.260000      0.0000000E+00
   2.270000      0.0000000E+00
   2.280000      0.0000000E+00
   2.290000      0.0000000E+00
   2.300000      0.0000000E+00
   2.310000      0.0000000E+00
   2.320000      0.0000000E+00
   2.330000      0.0000000E+00
   2.340000      0.0000000E+00
   2.350000      0.0000000E+00
   2.360000      0.0000000E+00
   2.370000      0.0000000E+00
   2.380000      0.0000000E+00
   2.390000      0.0000000E+00
   2.400000      0.0000000E+00
   2.410000      0.0000000E+00
   2.420000      0.0000000E+00
   2.430000      0.0000000E+00
   2.440000      0.0000000E+00
   2.450000      0.0000000E+00
   2.460000      0.0000000E+00
   2.470000      0.0000000E+00
   2.480000      0.0000000E+00
   2.490000      0.0000000E+00
   2.500000      0.0000000E+00
   2.510000      0.0000000E+00
   2.520000      0.0000000E+00
   2.530000      0.0000000E+00
   2.540000      0.0000000E+00
   2.550000      0.0000000E+00
   2.560000      0.0000000E+00
   2.570000      0.0000000E+00
   2.580000      0.0000000E+00
   2.590000      0.0000000E+00
   2.600000      0.0000000E+00
   2.610000      0.0000000E+00
   2.620000      0.0000000E+00
   2.630000      0.0000000E+00
   2.640000      0.0000000E+00
   2.650000      0.0000000E+00
   2.660000      0.0000000E+00
   2.670000      0.0000000E+00
   2.680000      0.0000000E+00
   2.690000      0.0000000E+00
   2.700000      0.0000000E+00
   2.710000      0.0000000E+00
   2.720000      0.0000000E+00
   2.730000      0.0000000E+00
   2.740000      0.0000000E+00
   2.750000      0.0000000E+00
   2.760000      0.0000000E+00
   2.770000      0.0000000E+00
   2.780000      0.0000000E+00
   2.790000      0.0000000E+00
   2.800000      0.0000000E+00
   2.810000      0.0000000E+00
   2.820000      0.0000000E+00
   2.830000      0.0000000E+00
   2.840000      0.0000000E+00
   2.850000      0.0000000E+00
   2.860000      0.0000000E+00
   2.870000      0.0000000E+00
   2.880000      0.0000000E+00
   2.890000      0.0000000E+00
   2.900000      0.0000000E+00
   2.910000      0.0000000E+00
   2.920000      0.0000000E+00
   2.930000      0.0000000E+00
   2.940000      0.0000000E+00
   2.950000      0.0000000E+00
   2.960000      0.0000000E+00
   2.970000      0.0000000E+00
   2.980000      0.0000000E+00
   2.990000      0.0000000E+00
   3.000000      0.0000000E+00
   3.010000      0.0000000E+00
   3.020000      0.0000000E+00
   3.030000      0.0000000E+00
   3.040000      0.0000000E+00
   3.050000      0.0000000E+00
   3.060000      0.0000000E+00
   3.070000      0.0000000E+00
   3.080000      0.0000000E+00
   3.090000      0.0000000E+00
   3.100000      0.0000000E+00
   3.110000      0.0000000E+00
   3.120000      0.0000000E+00
   3.130000      0.0000000E+00
   3.140000      0.0000000E+00
   3.150000      0.0000000E+00
   3.160000      0.0000000E+00
   3.170000      0.0000000E+00
   3.180000      0.0000000E+00
   3.190000      0.0000000E+00
   3.200000      0.0000000E+00
   3.210000      0.0000000E+00
   3.220000      0.0000000E+00
   3.230000      0.0000000E+00
   3.240000      0.0000000E+00
   3.250000      0.0000000E+00
   3.260000      0.0000000E+00
   3.270000      0.0000000E+00
   3.280000      0.0000000E+00
   3.290000      0.0000000E+00
   3.300000      0.0000000E+00
   3.310000      0.0000000E+00
   3.320000      0.0000000E+00
   3.330000      0.0000000E+00
   3.340000      0.0000000E+00
   3.350000      0.0000000E+00
   3.360000      0.0000000E+00
   3.370000      1.2069308E-38
   3.380000      1.3323502E-38
   3.390000      1.4509364E-38
   3.400000      1.5558627E-38
   3.410000      1.6478976E-38
   3.420000      1.7250022E-38
   3.430000      1.7720659E-38
   3.440000      1.7982918E-38
   3.450000      1.8560490E-38
   3.460000      1.9642222E-38
   3.470000      2.0914674E-38
   3.480000      2.2242387E-38
   3.490000      2.3422946E-38
   3.500000      2.4502228E-38
   3.510000      2.5531910E-38
   3.520000      2.6708390E-38
   3.530000      2.7432971E-38
   3.540000      2.7491892E-38
   3.550000      2.7586954E-38
   3.560000      2.7303154E-38
   3.570000      2.6762222E-38
   3.580000      2.6272757E-38
   3.590000      2.5599097E-38
   3.600000      2.5227080E-38
   3.610000      2.5083851E-38
   3.620000      2.4392565E-38
   3.630000      2.3152856E-38
   3.640000      2.1453929E-38
   3.650000      1.9232386E-38
   3.660000      1.6425604E-38
   3.670000      1.3111273E-38
   3.680000      0.0000000E+00
   3.690000      0.0000000E+00
   3.700000      0.0000000E+00
   3.710000      0.0000000E+00
   3.720000      0.0000000E+00
   3.730000     -1.9296073E-38
   3.740000     -2.7666413E-38
   3.750000     -3.6776033E-38
   3.760000     -4.7764962E-38
   3.770000     -6.1955811E-38
   3.780000     -7.7911713E-38
   3.790000     -9.3883527E-38
   3.800000     -1.0907236E-37
   3.810000     -1.2328601E-37
   3.820000     -1.3806451E-37
   3.830000     -1.5253979E-37
   3.840000     -1.6335302E-37
   3.850000     -1.7141216E-37
   3.860000     -1.7768491E-37
   3.870000     -1.8253253E-37
   3.880000     -1.8731658E-37
   3.890000     -1.9180124E-37
   3.900000     -1.9778875E-37
   3.910000     -2.0481430E-37
   3.920000     -2.0923899E-37
   3.930000     -2.1014766E-37
   3.940000     -2.0885993E-37
   3.950000     -2.0687988E-37
   3.960000     -2.0543018E-37
   3.970000     -2.0185422E-37
   3.980000     -1.9485398E-37
   3.990000     -1.8536655E-37
   4.000000     -1.6977787E-37
   4.010000     -1.4635827E-37
   4.020000     -1.1803162E-37
   4.030000     -8.5874210E-38
   4.040000     -4.9247654E-38
   4.050000      0.0000000E+00
   4.060000      4.6610413E-38
   4.070000      1.0658171E-37
   4.080000      1.8268051E-37
   4.090000      2.7200891E-37
   4.100000      3.7236724E-37
   4.110000      4.8186726E-37
   4.120000      5.9733887E-37
   4.130000      7.1368924E-37
   4.140000      8.2945408E-37
   4.150000      9.8451293E-37
   4.160000      1.1867764E-36
   4.170000      1.4078033E-36
   4.180000      1.6373195E-36
   4.190000      1.8647637E-36
   4.200000      2.0611173E-36
   4.210000      2.2363217E-36
   4.220000      2.4218319E-36
   4.230000      2.6062428E-36
   4.240000      2.7720749E-36
   4.250000      2.9232788E-36
   4.260000      3.0724720E-36
   4.270000      3.2186709E-36
   4.280000      3.3611788E-36
   4.290000      3.4258281E-36
   4.300000      3.4154654E-36
   4.310000      3.3910748E-36
   4.320000      3.3285047E-36
   4.330000      3.2291204E-36
   4.340000      3.1198089E-36
   4.350000      3.0071582E-36
   4.360000      2.8813218E-36
   4.370000      2.6975341E-36
   4.380000      2.4203263E-36
   4.390000      2.0050225E-36
   4.400000      1.4623747E-36
   4.410000      9.1640095E-37
   4.420000      3.6457284E-37
   4.430000     -2.3127727E-37
   4.440000     -8.7103870E-37
   4.450000     -1.5188718E-36
   4.460000     -2.1326437E-36
   4.470000     -2.6685004E-36
   4.480000     -3.1345790E-36
   4.490000     -3.6205786E-36
   4.500000     -4.1410458E-36
   4.510000     -4.7373513E-36
   4.520000     -5.4090404E-36
   4.530000     -6.1151463E-36
   4.540000     -6.8776966E-36
   4.550000     -7.7277898E-36
   4.560000     -8.7065560E-36
   4.570000     -9.8179119E-36
   4.580000     -1.1013730E-35
   4.590000     -1.2276341E-35
   4.600000     -1.3589063E-35
   4.610000     -1.4817666E-35
   4.620000     -1.6008353E-35
   4.630000     -1.7240415E-35
   4.640000     -1.8491420E-35
   4.650000     -1.9758528E-35
   4.660000     -2.0932244E-35
   4.670000     -2.1977121E-35
   4.680000     -2.2942242E-35
   4.690000     -2.3887490E-35
   4.700000     -2.4720704E-35
   4.710000     -2.5421434E-35
   4.720000     -2.5985362E-35
   4.730000     -2.6440432E-35
   4.740000     -2.6884913E-35
   4.750000     -2.7057357E-35
   4.760000     -2.6517135E-35
   4.770000     -2.5320085E-35
   4.780000     -2.3778556E-35
   4.790000     -2.2024709E-35
   4.800000     -2.0247302E-35
   4.810000     -1.8132886E-35
   4.820000     -1.5487458E-35
   4.830000     -1.2668457E-35
   4.840000     -9.9055438E-36
   4.850000     -7.1690376E-36
   4.860000     -4.3183576E-36
   4.870000     -1.6503834E-36
   4.880000      8.5609525E-37
   4.890000      3.6005491E-36
   4.900000      6.5610306E-36
   4.910000      9.6648788E-36
   4.920000      1.2546611E-35
   4.930000      1.5018624E-35
   4.940000      1.7586935E-35
   4.950000      2.0927606E-35
   4.960000      2.9918828E-35
   4.970000      4.4892175E-35
   4.980000      6.1008145E-35
   4.990000      7.9936182E-35
   5.000000      1.0033223E-34
   5.010000      1.2028536E-34
   5.020000      1.3914329E-34
   5.030000      1.5819806E-34
   5.040000      1.7855581E-34
   5.050000      1.9463333E-34
   5.060000      2.0401717E-34
   5.070000      2.0876199E-34
   5.080000      2.1137847E-34
   5.090000      2.1258682E-34
   5.100000      2.1391169E-34
   5.110000      2.1541258E-34
   5.120000      2.1696177E-34
   5.130000      2.1867627E-34
   5.140000      2.1992356E-34
   5.150000      2.2205198E-34
   5.160000      2.2415768E-34
   5.170000      2.2504084E-34
   5.180000      2.2090165E-34
   5.190000      2.1111686E-34
   5.200000      2.0205435E-34
   5.210000      1.9604909E-34
   5.220000      1.9017600E-34
   5.230000      1.8303959E-34
   5.240000      1.7642405E-34
   5.250000      1.7062354E-34
   5.260000      1.6513324E-34
   5.270000      1.5790082E-34
   5.280000      1.4676763E-34
   5.290000      1.3431792E-34
   5.300000      1.2126345E-34
   5.310000      1.0587924E-34
   5.320000      8.8544301E-35
   5.330000      6.5982633E-35
   5.340000      3.6099044E-35
   5.350000      1.1592784E-36
   5.360000     -4.0042526E-35
   5.370000     -9.0072565E-35
   5.380000     -1.5084149E-34
   5.390000     -2.2107841E-34
   5.400000     -2.9756705E-34
   5.410000     -3.8127983E-34
   5.420000     -4.7292158E-34
   5.430000     -5.6868750E-34
   5.440000     -6.6629270E-34
   5.450000     -7.6760015E-34
   5.460000     -8.7197271E-34
   5.470000     -9.7723805E-34
   5.480000     -1.0824770E-33
   5.490000     -1.1871801E-33
   5.500000     -1.2907102E-33
   5.510000     -1.3913274E-33
   5.520000     -1.4873712E-33
   5.530000     -1.5785150E-33
   5.540000     -1.6678577E-33
   5.550000     -1.7544718E-33
   5.560000     -1.8361650E-33
   5.570000     -1.9136012E-33
   5.580000     -1.9859296E-33
   5.590000     -2.0569436E-33
   5.600000     -2.1259230E-33
   5.610000     -2.1898371E-33
   5.620000     -2.2501855E-33
   5.630000     -2.3068055E-33
   5.640000     -2.3593169E-33
   5.650000     -2.4074198E-33
   5.660000     -2.4510681E-33
   5.670000     -2.4897571E-33
   5.680000     -2.5236477E-33
   5.690000     -2.5499005E-33
   5.700000     -2.5649246E-33
   5.710000     -2.5692653E-33
   5.720000     -2.5613285E-33
   5.730000     -2.5371273E-33
   5.740000     -2.4954834E-33
   5.750000     -2.4352832E-33
   5.760000     -2.3527145E-33
   5.770000     -2.2445117E-33
   5.780000     -2.1085004E-33
   5.790000     -1.9428879E-33
   5.800000     -1.7452407E-33
   5.810000     -1.5136791E-33
   5.820000     -1.2470432E-33
   5.830000     -9.4413961E-34
   5.840000     -6.0411984E-34
   5.850000     -2.2613203E-34
   5.860000      1.9018870E-34
   5.870000      6.4448870E-34
   5.880000      1.1363879E-33
   5.890000      1.6657082E-33
   5.900000      2.2319710E-33
   5.910000      2.8345424E-33
   5.920000      3.4723339E-33
   5.930000      4.1437726E-33
   5.940000      4.8497984E-33
   5.950000      5.5901504E-33
   5.960000      6.3635379E-33
   5.970000      7.1699609E-33
   5.980000      8.0083073E-33
   5.990000      8.8780519E-33
   6.000000      9.7777267E-33
   6.010000      1.0707145E-32
   6.020000      1.1666526E-32
   6.030000      1.2654474E-32
   6.040000      1.3669637E-32
   6.050000      1.4710608E-32
   6.060000      1.5775841E-32
   6.070000      1.6863159E-32
   6.080000      1.7970390E-32
   6.090000      1.9094422E-32
   6.100000      2.0231483E-32
   6.110000      2.1377702E-32
   6.120000      2.2528314E-32
   6.130000      2.3677683E-32
   6.140000      2.4819435E-32
   6.150000      2.5947160E-32
   6.160000      2.7052263E-32
   6.170000      2.8125380E-32
   6.180000      2.9157744E-32
   6.190000      3.0139537E-32
   6.200000      3.1059799E-32
   6.210000      3.1907034E-32
   6.220000      3.2669803E-32
   6.230000      3.3335956E-32
   6.240000      3.3894001E-32
   6.250000      3.4330486E-32
   6.260000      3.4631618E-32
   6.270000      3.4785197E-32
   6.280000      3.4778055E-32
   6.290000      3.4596894E-32
   6.300000      3.4228303E-32
   6.310000      3.3658735E-32
   6.320000      3.2874536E-32
   6.330000      3.1861927E-32
   6.340000      3.0606693E-32
   6.350000      2.9095060E-32
   6.360000      2.7313123E-32
   6.370000      2.5246274E-32
   6.380000      2.2880082E-32
   6.390000      2.0200046E-32
   6.400000      1.7191617E-32
   6.410000      1.3840268E-32
   6.420000      1.0131525E-32
   6.430000      6.0510309E-33
   6.440000      1.5846353E-33
   6.450000     -3.2815159E-33
   6.460000     -8.5609094E-33
   6.470000     -1.4266514E-32
   6.480000     -2.0410612E-32
   6.490000     -2.7004690E-32
   6.500000     -3.4059235E-32
   6.510000     -4.1583545E-32
   6.520000     -4.9585537E-32
   6.530000     -5.8071484E-32
   6.540000     -6.7045819E-32
   6.550000     -7.6510888E-32
   6.560000     -8.6466731E-32
   6.570000     -9.6910852E-32
   6.580000     -1.0783802E-31
   6.590000     -1.1924009E-31
   6.600000     -1.3110575E-31
   6.610000     -1.4342050E-31
   6.620000     -1.5616634E-31
   6.630000     -1.6932176E-31
   6.640000     -1.8286155E-31
   6.650000     -1.9675670E-31
   6.660000     -2.1097432E-31
   6.670000     -2.2547747E-31
   6.680000     -2.4022508E-31
   6.690000     -2.5517180E-31
   6.700000     -2.7026790E-31
   6.710000     -2.8545914E-31
   6.720000     -3.0068664E-31
   6.730000     -3.1588667E-31
   6.740000     -3.3099057E-31
   6.750000     -3.4592471E-31
   6.760000     -3.6061019E-31
   6.770000     -3.7496279E-31
   6.780000     -3.8889293E-31
   6.790000     -4.0230547E-31
   6.800000     -4.1509969E-31
   6.810000     -4.2716924E-31
   6.820000     -4.3840193E-31
   6.830000     -4.4868008E-31
   6.840000     -4.5787997E-31
   6.850000     -4.6587230E-31
   6.860000     -4.7252202E-31
   6.870000     -4.7768841E-31
   6.880000     -4.8122533E-31
   6.890000     -4.8298115E-31
   6.900000     -4.8279913E-31
   6.910000     -4.8051755E-31
   6.920000     -4.7597017E-31
   6.930000     -4.6898642E-31
   6.940000     -4.5939194E-31
   6.950000     -4.4700900E-31
   6.960000     -4.3165709E-31
   6.970000     -4.1315349E-31
   6.980000     -3.9131403E-31
   6.990000     -3.6595354E-31
   7.000000     -3.3688685E-31
   7.010000     -3.0392959E-31
   7.020000     -2.6689884E-31
   7.030000     -2.2561416E-31
   7.040000     -1.7989850E-31
   7.050000     -1.2957923E-31
   7.060000     -7.4489026E-32