  -2.600000      0.0000000E+00
  -2.590000      0.0000000E+00
  -2.580000      0.0000000E+00
  -2.570000      0.0000000E+00
  -2.560000      0.0000000E+00
  -2.550000      0.0000000E+00
  -2.540000      0.0000000E+00
  -2.530000      0.0000000E+00
  -2.520000      0.0000000E+00
  -2.510000      0.0000000E+00
  -2.500000      0.0000000E+00
  -2.490000      0.0000000E+00
  -2.480000      0.0000000E+00
  -2.470000      0.0000000E+00
  -2.460000      0.0000000E+00
  -2.450000      0.0000000E+00
  -2.440000      0.0000000E+00
  -2.430000      0.0000000E+00
  -2.420000      0.0000000E+00
  -2.410000      0.0000000E+00
  -2.400000      0.0000000E+00
  -2.390000      0.0000000E+00
  -2.380000      0.0000000E+00
  -2.370000      0.0000000E+00
  -2.360000      0.0000000E+00
  -2.350000      0.0000000E+00
  -2.340000      0.0000000E+00
  -2.330000      0.0000000E+00
  -2.320000      0.0000000E+00
  -2.310000      0.0000000E+00
  -2.300000      0.0000000E+00
  -2.290000      0.0000000E+00
  -2.280000      0.0000000E+00
  -2.270000      0.0000000E+00
  -2.260000      0.0000000E+00
  -2.250000      0.0000000E+00
  -2.240000      0.0000000E+00
  -2.230000      0.0000000E+00
  -2.220000      0.0000000E+00
  -2.210000      0.0000000E+00
  -2.200000      0.0000000E+00
  -2.190000      0.0000000E+00
  -2.180000      0.0000000E+00
  -2.170000      0.0000000E+00
  -2.160000      0.0000000E+00
  -2.150000      0.0000000E+00
  -2.140000      0.0000000E+00
  -2.130000      0.0000000E+00
  -2.120000      0.0000000E+00
  -2.110000      0.0000000E+00
  -2.100000      0.0000000E+00
  -2.090000      0.0000000E+00
  -2.080000      0.0000000E+00
  -2.070000      0.0000000E+00
  -2.060000      0.0000000E+00
  -2.050000      0.0000000E+00
  -2.040000      0.0000000E+00
  -2.030000      0.0000000E+00
  -2.020000      0.0000000E+00
  -2.010000      0.0000000E+00
  -2.000000      0.0000000E+00
  -1.990000      0.0000000E+00
  -1.980000      0.0000000E+00
  -1.970000      0.0000000E+00
  -1.960000      0.0000000E+00
  -1.950000      0.0000000E+00
  -1.940000      0.0000000E+00
  -1.930000      0.0000000E+00
  -1.920000      0.0000000E+00
  -1.910000      0.0000000E+00
  -1.900000      0.0000000E+00
  -1.890000      0.0000000E+00
  -1.880000      0.0000000E+00
  -1.870000      0.0000000E+00
  -1.860000      0.0000000E+00
  -1.850000      0.0000000E+00
  -1.840000      0.0000000E+00
  -1.830000      0.0000000E+00
  -1.820000      0.0000000E+00
  -1.810000      0.0000000E+00
  -1.800000      0.0000000E+00
  -1.790000      0.0000000E+00
  -1.780000      0.0000000E+00
  -1.770000      0.0000000E+00
  -1.760000      0.0000000E+00
  -1.750000      0.0000000E+00
  -1.740000      0.0000000E+00
  -1.730000      0.0000000E+00
  -1.720000      0.0000000E+00
  -1.710000      0.0000000E+00
  -1.700000      0.0000000E+00
  -1.690000      0.0000000E+00
  -1.680000      0.0000000E+00
  -1.670000      0.0000000E+00
  -1.660000      0.0000000E+00
  -1.650000      0.0000000E+00
  -1.640000      0.0000000E+00
  -1.630000      0.0000000E+00
  -1.620000      0.0000000E+00
  -1.610000      0.0000000E+00
  -1.600000      0.0000000E+00
  -1.590000      0.0000000E+00
  -1.580000      0.0000000E+00
  -1.570000      0.0000000E+00
  -1.560000      0.0000000E+00
  -1.550000      0.0000000E+00
  -1.540000      0.0000000E+00
  -1.530000      0.0000000E+00
  -1.520000      0.0000000E+00
  -1.510000      0.0000000E+00
  -1.500000      0.0000000E+00
  -1.490000      0.0000000E+00
  -1.480000      0.0000000E+00
  -1.470000      0.0000000E+00
  -1.460000      0.0000000E+00
  -1.450000      0.0000000E+00
  -1.440000      0.0000000E+00
  -1.430000      0.0000000E+00
  -1.420000      0.0000000E+00
  -1.410000      0.0000000E+00
  -1.400000      0.0000000E+00
  -1.390000      0.0000000E+00
  -1.380000      0.0000000E+00
  -1.370000      0.0000000E+00
  -1.360000      0.0000000E+00
  -1.350000      0.0000000E+00
  -1.340000      0.0000000E+00
  -1.330000      0.0000000E+00
  -1.320000      0.0000000E+00
  -1.310000      0.0000000E+00
  -1.300000      0.0000000E+00
  -1.290000      0.0000000E+00
  -1.280000      0.0000000E+00
  -1.270000      0.0000000E+00
  -1.260000      0.0000000E+00
  -1.250000      0.0000000E+00
  -1.240000      0.0000000E+00
  -1.230000      0.0000000E+00
  -1.220000      0.0000000E+00
  -1.210000      0.0000000E+00
  -1.200000      0.0000000E+00
  -1.190000      0.0000000E+00
  -1.180000      0.0000000E+00
  -1.170000      0.0000000E+00
  -1.160000      0.0000000E+00
  -1.150000      0.0000000E+00
  -1.140000      0.0000000E+00
  -1.130000      0.0000000E+00
  -1.120000      0.0000000E+00
  -1.110000      0.0000000E+00
  -1.100000      0.0000000E+00
  -1.090000      0.0000000E+00
  -1.080000      0.0000000E+00
  -1.070000      0.0000000E+00
  -1.060000      0.0000000E+00
  -1.050000      0.0000000E+00
  -1.040000      0.0000000E+00
  -1.030000      0.0000000E+00
  -1.020000      0.0000000E+00
  -1.010000      0.0000000E+00
  -1.000000      0.0000000E+00
 -0.9900000      0.0000000E+00
 -0.9800000      0.0000000E+00
 -0.9700000      0.0000000E+00
 -0.9600000      0.0000000E+00
 -0.9500000      0.0000000E+00
 -0.9400000      0.0000000E+00
 -0.9300000      0.0000000E+00
 -0.9200000      0.0000000E+00
 -0.9100000      0.0000000E+00
 -0.9000000      0.0000000E+00
 -0.8900000      0.0000000E+00
 -0.8800000      0.0000000E+00
 -0.8700000      0.0000000E+00
 -0.8600000      0.0000000E+00
 -0.8500000      0.0000000E+00
 -0.8400000      0.0000000E+00
 -0.8300000      0.0000000E+00
 -0.8200000      0.0000000E+00
 -0.8100000      0.0000000E+00
 -0.8000000      0.0000000E+00
 -0.7900000      0.0000000E+00
 -0.7800000      0.0000000E+00
 -0.7700000      0.0000000E+00
 -0.7600000      0.0000000E+00
 -0.7500000      0.0000000E+00
 -0.7400000      0.0000000E+00
 -0.7300000      0.0000000E+00
 -0.7200000      0.0000000E+00
 -0.7100000      0.0000000E+00
 -0.7000000      0.0000000E+00
 -0.6900000      0.0000000E+00
 -0.6800000      0.0000000E+00
 -0.6700000      0.0000000E+00
 -0.6600000      0.0000000E+00
 -0.6500000      0.0000000E+00
 -0.6400000      0.0000000E+00
 -0.6300000      0.0000000E+00
 -0.6200000      0.0000000E+00
 -0.6100000      0.0000000E+00
 -0.6000000      0.0000000E+00
 -0.5900000      0.0000000E+00
 -0.5800000      0.0000000E+00
 -0.5700000      0.0000000E+00
 -0.5600000      0.0000000E+00
 -0.5500000      0.0000000E+00
 -0.5400000      0.0000000E+00
 -0.5300000      0.0000000E+00
 -0.5200000      0.0000000E+00
 -0.5100000      0.0000000E+00
 -0.5000000      0.0000000E+00
 -0.4900000      0.0000000E+00
 -0.4800000      0.0000000E+00
 -0.4700000      0.0000000E+00
 -0.4600000      0.0000000E+00
 -0.4500000      0.0000000E+00
 -0.4400000      0.0000000E+00
 -0.4300000      0.0000000E+00
 -0.4200000      0.0000000E+00
 -0.4100000      0.0000000E+00
 -0.4000000      0.0000000E+00
 -0.3900000      0.0000000E+00
 -0.3800000      0.0000000E+00
 -0.3700000      0.0000000E+00
 -0.3600000      0.0000000E+00
 -0.3500000      0.0000000E+00
 -0.3400000      0.0000000E+00
 -0.3300000      0.0000000E+00
 -0.3200000      0.0000000E+00
 -0.3100000      0.0000000E+00
 -0.3000000      0.0000000E+00
 -0.2900000      0.0000000E+00
 -0.2800000      0.0000000E+00
 -0.2700000      0.0000000E+00
 -0.2600000      0.0000000E+00
 -0.2500000      0.0000000E+00
 -0.2400000      0.0000000E+00
 -0.2300000      0.0000000E+00
 -0.2200000      0.0000000E+00
 -0.2100000      0.0000000E+00
 -0.2000000      0.0000000E+00
 -0.1900000      0.0000000E+00
 -0.1800000      0.0000000E+00
 -0.1700000      0.0000000E+00
 -0.1600000      0.0000000E+00
 -0.1500000      0.0000000E+00
 -0.1400000      0.0000000E+00
 -0.1300000      0.0000000E+00
 -0.1200000      0.0000000E+00
 -0.1100000      0.0000000E+00
 -0.1000000      0.0000000E+00
 -9.0000004E-02  0.0000000E+00
 -7.9999998E-02  0.0000000E+00
 -7.0000000E-02  0.0000000E+00
 -5.9999999E-02  0.0000000E+00
 -5.0000001E-02  0.0000000E+00
 -3.9999999E-02  0.0000000E+00
 -2.9999999E-02  0.0000000E+00
 -2.0000000E-02  0.0000000E+00
 -9.9999998E-03  0.0000000E+00
 -3.4694470E-17  0.0000000E+00
  9.9999998E-03  0.0000000E+00
  2.0000000E-02  0.0000000E+00
  2.9999999E-02  0.0000000E+00
  3.9999999E-02  0.0000000E+00
  5.0000001E-02  0.0000000E+00
  5.9999999E-02  0.0000000E+00
  7.0000000E-02  0.0000000E+00
  7.9999998E-02  0.0000000E+00
  9.0000004E-02  0.0000000E+00
  0.1000000      0.0000000E+00
  0.1100000      0.0000000E+00
  0.1200000      0.0000000E+00
  0.1300000      0.0000000E+00
  0.1400000      0.0000000E+00
  0.1500000      0.0000000E+00
  0.1600000      0.0000000E+00
  0.1700000      0.0000000E+00
  0.1800000      0.0000000E+00
  0.1900000      0.0000000E+00
  0.2000000      0.0000000E+00
  0.2100000      0.0000000E+00
  0.2200000      0.0000000E+00
  0.2300000      0.0000000E+00
  0.2400000      0.0000000E+00
  0.2500000      0.0000000E+00
  0.2600000      0.0000000E+00
  0.2700000      0.0000000E+00
  0.2800000      0.0000000E+00
  0.2900000      0.0000000E+00
  0.3000000      0.0000000E+00
  0.3100000      0.0000000E+00
  0.3200000      0.0000000E+00
  0.3300000      0.0000000E+00
  0.3400000      0.0000000E+00
  0.3500000      0.0000000E+00
  0.3600000      0.0000000E+00
  0.3700000      0.0000000E+00
  0.3800000      0.0000000E+00
  0.3900000      0.0000000E+00
  0.4000000      0.0000000E+00
  0.4100000      0.0000000E+00
  0.4200000      0.0000000E+00
  0.4300000      0.0000000E+00
  0.4400000      0.0000000E+00
  0.4500000      0.0000000E+00
  0.4600000      0.0000000E+00
  0.4700000      0.0000000E+00
  0.4800000      0.0000000E+00
  0.4900000      0.0000000E+00
  0.5000000      0.0000000E+00
  0.5100000      0.0000000E+00
  0.5200000      0.0000000E+00
  0.5300000      0.0000000E+00
  0.5400000      0.0000000E+00
  0.5500000      0.0000000E+00
  0.5600000      0.0000000E+00
  0.5700000      0.0000000E+00
  0.5800000      0.0000000E+00
  0.5900000      0.0000000E+00
  0.6000000      0.0000000E+00
  0.6100000      0.0000000E+00
  0.6200000      0.0000000E+00
  0.6300000      0.0000000E+00
  0.6400000      0.0000000E+00
  0.6500000      0.0000000E+00
  0.6600000      0.0000000E+00
  0.6700000      0.0000000E+00
  0.6800000      0.0000000E+00
  0.6900000      0.0000000E+00
  0.7000000      0.0000000E+00
  0.7100000      0.0000000E+00
  0.7200000      0.0000000E+00
  0.7300000      0.0000000E+00
  0.7400000      0.0000000E+00
  0.7500000      0.0000000E+00
  0.7600000      0.0000000E+00
  0.7700000      0.0000000E+00
  0.7800000      0.0000000E+00
  0.7900000      0.0000000E+00
  0.8000000      0.0000000E+00
  0.8100000      0.0000000E+00
  0.8200000      0.0000000E+00
  0.8300000      0.0000000E+00
  0.8400000      0.0000000E+00
  0.8500000      0.0000000E+00
  0.8600000      0.0000000E+00
  0.8700000      0.0000000E+00
  0.8800000      0.0000000E+00
  0.8900000      0.0000000E+00
  0.9000000      0.0000000E+00
  0.9100000      0.0000000E+00
  0.9200000      0.0000000E+00
  0.9300000      0.0000000E+00
  0.9400000      0.0000000E+00
  0.9500000      0.0000000E+00
  0.9600000      0.0000000E+00
  0.9700000      0.0000000E+00
  0.9800000      0.0000000E+00
  0.9900000      0.0000000E+00
   1.000000      0.0000000E+00
   1.010000      0.0000000E+00
   1.020000      0.0000000E+00
   1.030000      0.0000000E+00
   1.040000      0.0000000E+00
   1.050000      0.0000000E+00
   1.060000      0.0000000E+00
   1.070000      0.0000000E+00
   1.080000      0.0000000E+00
   1.090000      0.0000000E+00
   1.100000      0.0000000E+00
   1.110000      0.0000000E+00
   1.120000      0.0000000E+00
   1.130000      0.0000000E+00
   1.140000      0.0000000E+00
   1.150000      0.0000000E+00
   1.160000      0.0000000E+00
   1.170000      0.0000000E+00
   1.180000      0.0000000E+00
   1.190000      0.0000000E+00
   1.200000      0.0000000E+00
   1.210000      0.0000000E+00
   1.220000      0.0000000E+00
   1.230000      0.0000000E+00
   1.240000      0.0000000E+00
   1.250000      0.0000000E+00
   1.260000      0.0000000E+00
   1.270000      0.0000000E+00
   1.280000      0.0000000E+00
   1.290000      0.0000000E+00
   1.300000      0.0000000E+00
   1.310000      0.0000000E+00
   1.320000      0.0000000E+00
   1.330000      0.0000000E+00
   1.340000      0.0000000E+00
   1.350000      0.0000000E+00
   1.360000      0.0000000E+00
   1.370000      0.0000000E+00
   1.380000      0.0000000E+00
   1.390000      0.0000000E+00
   1.400000      0.0000000E+00
   1.410000      0.0000000E+00
   1.420000      0.0000000E+00
   1.430000      0.0000000E+00
   1.440000      0.0000000E+00
   1.450000      0.0000000E+00
   1.460000      0.0000000E+00
   1.470000      0.0000000E+00
   1.480000      0.0000000E+00
   1.490000      0.0000000E+00
   1.500000      0.0000000E+00
   1.510000      0.0000000E+00
   1.520000      0.0000000E+00
   1.530000      0.0000000E+00
   1.540000      0.0000000E+00
   1.550000      0.0000000E+00
   1.560000      0.0000000E+00
   1.570000      0.0000000E+00
   1.580000      0.0000000E+00
   1.590000      0.0000000E+00
   1.600000      0.0000000E+00
   1.610000      0.0000000E+00
   1.620000      0.0000000E+00
   1.630000      0.0000000E+00
   1.640000      0.0000000E+00
   1.650000      0.0000000E+00
   1.660000      0.0000000E+00
   1.670000      0.0000000E+00
   1.680000      0.0000000E+00
   1.690000      0.0000000E+00
   1.700000      0.0000000E+00
   1.710000      0.0000000E+00
   1.720000      0.0000000E+00
   1.730000      0.0000000E+00
   1.740000      0.0000000E+00
   1.750000      0.0000000E+00
   1.760000      0.0000000E+00
   1.770000      0.0000000E+00
   1.780000      0.0000000E+00
   1.790000      0.0000000E+00
   1.800000      0.0000000E+00
   1.810000      0.0000000E+00
   1.820000      0.0000000E+00
   1.830000      0.0000000E+00
   1.840000      0.0000000E+00
   1.850000      0.0000000E+00
   1.860000      0.0000000E+00
   1.870000      0.0000000E+00
   1.880000      0.0000000E+00
   1.890000      0.0000000E+00
   1.900000      0.0000000E+00
   1.910000      0.0000000E+00
   1.920000      0.0000000E+00
   1.930000      0.0000000E+00
   1.940000      0.0000000E+00
   1.950000      0.0000000E+00
   1.960000      0.0000000E+00
   1.970000      0.0000000E+00
   1.980000      0.0000000E+00
   1.990000      0.0000000E+00
   2.000000      0.0000000E+00
   2.010000      0.0000000E+00
   2.020000      0.0000000E+00
   2.030000      0.0000000E+00
   2.040000      0.0000000E+00
   2.050000      0.0000000E+00
   2.060000      0.0000000E+00
   2.070000      0.0000000E+00
   2.080000      0.0000000E+00
   2.090000      0.0000000E+00
   2.100000      0.0000000E+00
   2.110000      0.0000000E+00
   2.120000      0.0000000E+00
   2.130000      0.0000000E+00
   2.140000      0.0000000E+00
   2.150000      0.0000000E+00
   2.160000      0.0000000E+00
   2.170000      0.0000000E+00
   2.180000      0.0000000E+00
   2.190000      0.0000000E+00
   2.200000      0.0000000E+00
   2.210000      0.0000000E+00
   2.220000      0.0000000E+00
   2.230000      0.0000000E+00
   2.240000      0.0000000E+00
   2.250000      0.0000000E+00
   2.260000      0.0000000E+00
   2.270000      0.0000000E+00
   2.280000      0.0000000E+00
   2.290000      0.0000000E+00
   2.300000      0.0000000E+00
   2.310000      0.0000000E+00
   2.320000      0.0000000E+00
   2.330000      0.0000000E+00
   2.340000      0.0000000E+00
   2.350000      0.0000000E+00
   2.360000      0.0000000E+00
   2.370000      0.0000000E+00
   2.380000      0.0000000E+00
   2.390000      0.0000000E+00
   2.400000      0.0000000E+00
   2.410000      0.0000000E+00
   2.420000      0.0000000E+00
   2.430000      0.0000000E+00
   2.440000      0.0000000E+00
   2.450000      0.0000000E+00
   2.460000      0.0000000E+00
   2.470000      0.0000000E+00
   2.480000      0.0000000E+00
   2.490000      0.0000000E+00
   2.500000      0.0000000E+00
   2.510000      0.0000000E+00
   2.520000      0.0000000E+00
   2.530000      0.0000000E+00
   2.540000      0.0000000E+00
   2.550000      0.0000000E+00
   2.560000      0.0000000E+00
   2.570000      0.0000000E+00
   2.580000      0.0000000E+00
   2.590000      0.0000000E+00
   2.600000      0.0000000E+00
   2.610000      0.0000000E+00
   2.620000      0.0000000E+00
   2.630000      0.0000000E+00
   2.640000      0.0000000E+00
   2.650000      0.0000000E+00
   2.660000      0.0000000E+00
   2.670000      0.0000000E+00
   2.680000      0.0000000E+00
   2.690000      0.0000000E+00
   2.700000      0.0000000E+00
   2.710000      0.0000000E+00
   2.720000      0.0000000E+00
   2.730000      0.0000000E+00
   2.740000      0.0000000E+00
   2.750000      0.0000000E+00
   2.760000      0.0000000E+00
   2.770000      0.0000000E+00
   2.780000      0.0000000E+00
   2.790000      0.0000000E+00
   2.800000      0.0000000E+00
   2.810000      0.0000000E+00
   2.820000      0.0000000E+00
   2.830000      0.0000000E+00
   2.840000      0.0000000E+00
   2.850000      0.0000000E+00
   2.860000      0.0000000E+00
   2.870000      0.0000000E+00
   2.880000      0.0000000E+00
   2.890000      0.0000000E+00
   2.900000      0.0000000E+00
   2.910000      0.0000000E+00
   2.920000      0.0000000E+00
   2.930000      0.0000000E+00
   2.940000      0.0000000E+00
   2.950000      0.0000000E+00
   2.960000      0.0000000E+00
   2.970000      0.0000000E+00
   2.980000      0.0000000E+00
   2.990000      0.0000000E+00
   3.000000      0.0000000E+00
   3.010000      0.0000000E+00
   3.020000      0.0000000E+00
   3.030000      0.0000000E+00
   3.040000      0.0000000E+00
   3.050000      0.0000000E+00
   3.060000      0.0000000E+00
   3.070000      0.0000000E+00
   3.080000      0.0000000E+00
   3.090000      0.0000000E+00
   3.100000      0.0000000E+00
   3.110000      0.0000000E+00
   3.120000      0.0000000E+00
   3.130000      0.0000000E+00
   3.140000      0.0000000E+00
   3.150000      0.0000000E+00
   3.160000      0.0000000E+00
   3.170000      0.0000000E+00
   3.180000      0.0000000E+00
   3.190000      0.0000000E+00
   3.200000      0.0000000E+00
   3.210000      0.0000000E+00
   3.220000      0.0000000E+00
   3.230000      0.0000000E+00
   3.240000      0.0000000E+00
   3.250000      0.0000000E+00
   3.260000      0.0000000E+00
   3.270000      0.0000000E+00
   3.280000      0.0000000E+00
   3.290000      0.0000000E+00
   3.300000      0.0000000E+00
   3.310000     -1.2232785E-38
   3.320000     -1.3237300E-38
   3.330000     -1.4106940E-38
   3.340000     -1.4530543E-38
   3.350000     -1.4562692E-38
   3.360000     -1.4581096E-38
   3.370000     -1.4674234E-38
   3.380000     -1.4950805E-38
   3.390000     -1.5106494E-38
   3.400000     -1.4739321E-38
   3.410000     -1.3945127E-38
   3.420000     -1.3049359E-38
   3.430000     -1.2162606E-38
   3.440000     -1.2274031E-38
   3.450000     -1.2581581E-38
   3.460000     -1.2086740E-38
   3.470000      0.0000000E+00
   3.480000      0.0000000E+00
   3.490000      0.0000000E+00
   3.500000      0.0000000E+00
   3.510000      0.0000000E+00
   3.520000      0.0000000E+00
   3.530000      0.0000000E+00
   3.540000      0.0000000E+00
   3.550000      1.2164479E-38
   3.560000      2.2435597E-38
   3.570000      3.1563416E-38
   3.580000      3.9119183E-38
   3.590000      4.7038081E-38
   3.600000      5.5484570E-38
   3.610000      6.3910370E-38
   3.620000      7.2205726E-38
   3.630000      8.0218239E-38
   3.640000      8.7824391E-38
   3.650000      9.5068886E-38
   3.660000      1.0064146E-37
   3.670000      1.0244781E-37
   3.680000      1.0235374E-37
   3.690000      1.0303233E-37
   3.700000      1.0381306E-37
   3.710000      1.0511327E-37
   3.720000      1.0756331E-37
   3.730000      1.1075220E-37
   3.740000      1.1304640E-37
   3.750000      1.1434113E-37
   3.760000      1.1720713E-37
   3.770000      1.2099461E-37
   3.780000      1.2350872E-37
   3.790000      1.2490057E-37
   3.800000      1.2154486E-37
   3.810000      1.3381787E-37
   3.820000      1.6784502E-37
   3.830000      2.0611793E-37
   3.840000      2.3317140E-37
   3.850000      2.2309039E-37
   3.860000      1.8721721E-37
   3.870000      1.3800894E-37
   3.880000      7.8272407E-38
   3.890000      2.6270196E-38
   3.900000     -2.0195195E-38
   3.910000     -9.1218342E-38
   3.920000     -1.7834310E-37
   3.930000     -2.5648488E-37
   3.940000     -3.2514546E-37
   3.950000     -3.8153460E-37
   3.960000     -4.1810553E-37
   3.970000     -4.2347486E-37
   3.980000     -4.1818571E-37
   3.990000     -4.4025919E-37
   4.000000     -4.8282992E-37
   4.010000     -5.3736729E-37
   4.020000     -5.9905926E-37
   4.030000     -6.5578795E-37
   4.040000     -7.1365162E-37
   4.050000     -7.6770654E-37
   4.060000     -8.1707853E-37
   4.070000     -8.7289729E-37
   4.080000     -9.2999251E-37
   4.090000     -1.0063289E-36
   4.100000     -1.1212903E-36
   4.110000     -1.2886848E-36
   4.120000     -1.5095747E-36
   4.130000     -1.7386644E-36
   4.140000     -1.9641763E-36
   4.150000     -2.1838770E-36
   4.160000     -2.3792346E-36
   4.170000     -2.5396400E-36
   4.180000     -2.6498996E-36
   4.190000     -2.6822540E-36
   4.200000     -2.6886047E-36
   4.210000     -2.7090587E-36
   4.220000     -2.7152637E-36
   4.230000     -2.7031310E-36
   4.240000     -2.6421946E-36
   4.250000     -2.5528187E-36
   4.260000     -2.4807585E-36
   4.270000     -2.4157273E-36
   4.280000     -2.3634844E-36
   4.290000     -2.4107573E-36
   4.300000     -2.6574215E-36
   4.310000     -3.0421279E-36
   4.320000     -3.2653277E-36
   4.330000     -3.2645743E-36
   4.340000     -3.1922036E-36
   4.350000     -3.0161923E-36
   4.360000     -2.7419753E-36
   4.370000     -2.4082158E-36
   4.380000     -2.0463989E-36
   4.390000     -1.6313259E-36
   4.400000     -8.3359161E-37
   4.410000      2.9916435E-37
   4.420000      1.4152356E-36
   4.430000      2.4633426E-36
   4.440000      3.3717037E-36
   4.450000      4.1504267E-36
   4.460000      4.8162021E-36
   4.470000      5.1918107E-36
   4.480000      5.2345153E-36
   4.490000      5.1674435E-36
   4.500000      5.0662727E-36
   4.510000      4.9704976E-36
   4.520000      5.2501711E-36
   4.530000      6.0002128E-36
   4.540000      7.1133279E-36
   4.550000      8.5566590E-36
   4.560000      1.0414068E-35
   4.570000      1.2945443E-35
   4.580000      1.5877656E-35
   4.590000      1.8844812E-35
   4.600000      2.1759557E-35
   4.610000      2.3659626E-35
   4.620000      2.4471775E-35
   4.630000      2.4962248E-35
   4.640000      2.4830447E-35
   4.650000      2.3303983E-35
   4.660000      2.0876839E-35
   4.670000      1.9113718E-35
   4.680000      1.8377168E-35
   4.690000      1.8510485E-35
   4.700000      1.9263428E-35
   4.710000      2.0868361E-35
   4.720000      2.3682389E-35
   4.730000      2.6927060E-35
   4.740000      2.9224798E-35
   4.750000      2.9065455E-35
   4.760000      2.6758548E-35
   4.770000      2.3193845E-35
   4.780000      1.8549143E-35
   4.790000      1.3164538E-35
   4.800000      6.6499310E-36
   4.810000      4.5866091E-37
   4.820000     -4.8468777E-36
   4.830000     -1.0476550E-35
   4.840000     -1.6045208E-35
   4.850000     -1.8810834E-35
   4.860000     -1.5748731E-35
   4.870000     -5.8152629E-36
   4.880000      7.8882752E-36
   4.890000      2.1783856E-35
   4.900000      3.6011373E-35
   4.910000      4.2685093E-35
   4.920000      3.7393440E-35
   4.930000      2.3734862E-35
   4.940000      2.8521610E-36
   4.950000     -2.3272330E-35
   4.960000     -5.5045599E-35
   4.970000     -9.9727127E-35
   4.980000     -1.4962398E-34
   4.990000     -1.9168998E-34
   5.000000     -2.2839968E-34
   5.010000     -2.5203653E-34
   5.020000     -2.4973715E-34
   5.030000     -2.3246381E-34
   5.040000     -2.1458192E-34
   5.050000     -1.9462779E-34
   5.060000     -1.7279439E-34
   5.070000     -1.5157702E-34
   5.080000     -1.3021870E-34
   5.090000     -1.1749740E-34
   5.100000     -1.1885598E-34
   5.110000     -1.2754301E-34
   5.120000     -1.4221326E-34
   5.130000     -1.6164185E-34
   5.140000     -1.9107887E-34
   5.150000     -2.3715495E-34
   5.160000     -2.8697883E-34
   5.170000     -3.2952084E-34
   5.180000     -3.5763399E-34
   5.190000     -3.6911083E-34
   5.200000     -3.6199041E-34
   5.210000     -3.3696618E-34
   5.220000     -3.0428952E-34
   5.230000     -2.6516703E-34
   5.240000     -2.2799448E-34
   5.250000     -1.9787572E-34
   5.260000     -1.8032974E-34
   5.270000     -1.6691638E-34
   5.280000     -1.4533585E-34
   5.290000     -1.2341806E-34
   5.300000     -1.0629139E-34
   5.310000     -9.7232519E-35
   5.320000     -9.0434517E-35
   5.330000     -7.5148103E-35
   5.340000     -4.8556624E-35
   5.350000     -8.5736586E-36
   5.360000      5.0129927E-35
   5.370000      1.2954732E-34
   5.380000      2.2359721E-34
   5.390000      3.2638749E-34
   5.400000      4.3616098E-34
   5.410000      5.5066363E-34
   5.420000      6.6982850E-34
   5.430000      7.9099290E-34
   5.440000      9.0889857E-34
   5.450000      1.0210387E-33
   5.460000      1.1252457E-33
   5.470000      1.2220977E-33
   5.480000      1.3145097E-33
   5.490000      1.4037504E-33
   5.500000      1.4926351E-33
   5.510000      1.5828974E-33
   5.520000      1.6787457E-33
   5.530000      1.7818110E-33
   5.540000      1.8886216E-33
   5.550000      2.0036878E-33
   5.560000      2.1282158E-33
   5.570000      2.2542514E-33
   5.580000      2.3789875E-33
   5.590000      2.5009643E-33
   5.600000      2.6149636E-33
   5.610000      2.7175326E-33
   5.620000      2.8077011E-33
   5.630000      2.8850040E-33
   5.640000      2.9496000E-33
   5.650000      3.0016660E-33
   5.660000      3.0426277E-33
   5.670000      3.0752266E-33
   5.680000      3.0951604E-33
   5.690000      3.1165823E-33
   5.700000      3.1406013E-33
   5.710000      3.1548950E-33
   5.720000      3.1649855E-33
   5.730000      3.1659740E-33
   5.740000      3.1521913E-33
   5.750000      3.1188209E-33
   5.760000      3.0601812E-33
   5.770000      2.9696650E-33
   5.780000      2.8422241E-33
   5.790000      2.6736637E-33
   5.800000      2.4605053E-33
   5.810000      2.2025346E-33
   5.820000      1.9009316E-33
   5.830000      1.5595781E-33
   5.840000      1.1780718E-33
   5.850000      7.5710175E-34
   5.860000      3.0104796E-34
   5.870000     -1.8818273E-34
   5.880000     -7.0974067E-34
   5.890000     -1.2645241E-33
   5.900000     -1.8536786E-33
   5.910000     -2.4812322E-33
   5.920000     -3.1522898E-33
   5.930000     -3.8701370E-33
   5.940000     -4.6385606E-33
   5.950000     -5.4596515E-33
   5.960000     -6.3366764E-33
   5.970000     -7.2713325E-33
   5.980000     -8.2616755E-33
   5.990000     -9.3054403E-33
   6.000000     -1.0398668E-32
   6.010000     -1.1536919E-32
   6.020000     -1.2715760E-32
   6.030000     -1.3929889E-32
   6.040000     -1.5174596E-32
   6.050000     -1.6446795E-32
   6.060000     -1.7744344E-32
   6.070000     -1.9064920E-32
   6.080000     -2.0409030E-32
   6.090000     -2.1777751E-32
   6.100000     -2.3170047E-32
   6.110000     -2.4585237E-32
   6.120000     -2.6021381E-32
   6.130000     -2.7474894E-32
   6.140000     -2.8940145E-32
   6.150000     -3.0409669E-32
   6.160000     -3.1873712E-32
   6.170000     -3.3320654E-32
   6.180000     -3.4737886E-32
   6.190000     -3.6111768E-32
   6.200000     -3.7428301E-32
   6.210000     -3.8673585E-32
   6.220000     -3.9834341E-32
   6.230000     -4.0898058E-32
   6.240000     -4.1853009E-32
   6.250000     -4.2688066E-32
   6.260000     -4.3392478E-32
   6.270000     -4.3955457E-32
   6.280000     -4.4365608E-32
   6.290000     -4.4610448E-32
   6.300000     -4.4675988E-32
   6.310000     -4.4546505E-32
   6.320000     -4.4204421E-32
   6.330000     -4.3630321E-32
   6.340000     -4.2803255E-32
   6.350000     -4.1701197E-32
   6.360000     -4.0301542E-32
   6.370000     -3.8581673E-32
   6.380000     -3.6519512E-32
   6.390000     -3.4093938E-32
   6.400000     -3.1285118E-32
   6.410000     -2.8074605E-32
   6.420000     -2.4445297E-32
   6.430000     -2.0381235E-32
   6.440000     -1.5867252E-32
   6.450000     -1.0888605E-32
   6.460000     -5.4305672E-33
   6.470000      5.2189359E-34
   6.480000      6.9843055E-33
   6.490000      1.3972702E-32
   6.500000      2.1503446E-32
   6.510000      2.9592885E-32
   6.520000      3.8256816E-32
   6.530000      4.7509873E-32
   6.540000      5.7364859E-32
   6.550000      6.7832066E-32
   6.560000      7.8918718E-32
   6.570000      9.0628540E-32
   6.580000      1.0296146E-31
   6.590000      1.1591351E-31
   6.600000      1.2947693E-31
   6.610000      1.4364031E-31
   6.620000      1.5838887E-31
   6.630000      1.7370474E-31
   6.640000      1.8956710E-31
   6.650000      2.0595230E-31
   6.660000      2.2283388E-31
   6.670000      2.4018225E-31
   6.680000      2.5796419E-31
   6.690000      2.7614238E-31
   6.700000      2.9467492E-31
   6.710000      3.1351438E-31
   6.720000      3.3260716E-31
   6.730000      3.5189291E-31
   6.740000      3.7130408E-31
   6.750000      3.9076568E-31
   6.760000      4.1019496E-31
   6.770000      4.2950180E-31
   6.780000      4.4858891E-31
   6.790000      4.6735159E-31
   6.800000      4.8567867E-31
   6.810000      5.0345290E-31
   6.820000      5.2055093E-31
   6.830000      5.3684343E-31
   6.840000      5.5219534E-31
   6.850000      5.6646556E-31
   6.860000      5.7950677E-31
   6.870000      5.9116476E-31
   6.880000      6.0127838E-31
   6.890000      6.0967941E-31
   6.900000      6.1619193E-31
   6.910000      6.2063252E-31
   6.920000      6.2281034E-31
   6.930000      6.2252737E-31
   6.940000      6.1957900E-31
   6.950000      6.1375485E-31
   6.960000      6.0483947E-31
   6.970000      5.9261344E-31
   6.980000      5.7685392E-31
   6.990000      5.5733606E-31
   7.000000      5.3383364E-31
   7.010000      5.0611995E-31
   7.020000      4.7396821E-31
   7.030000      4.3715215E-31
   7.040000      3.9544688E-31
   7.050000      3.4862905E-31
   7.060000      2.9647771E-31