  -2.600000      0.0000000E+00
  -2.590000      0.0000000E+00
  -2.580000      0.0000000E+00
  -2.570000      0.0000000E+00
  -2.560000      0.0000000E+00
  -2.550000      0.0000000E+00
  -2.540000      0.0000000E+00
  -2.530000      0.0000000E+00
  -2.520000      0.0000000E+00
  -2.510000      0.0000000E+00
  -2.500000      0.0000000E+00
  -2.490000      0.0000000E+00
  -2.480000      0.0000000E+00
  -2.470000      0.0000000E+00
  -2.460000      0.0000000E+00
  -2.450000      0.0000000E+00
  -2.440000      0.0000000E+00
  -2.430000      0.0000000E+00
  -2.420000      0.0000000E+00
  -2.410000      0.0000000E+00
  -2.400000      0.0000000E+00
  -2.390000      0.0000000E+00
  -2.380000      0.0000000E+00
  -2.370000      0.0000000E+00
  -2.360000      0.0000000E+00
  -2.350000      0.0000000E+00
  -2.340000      0.0000000E+00
  -2.330000      0.0000000E+00
  -2.320000      0.0000000E+00
  -2.310000      0.0000000E+00
  -2.300000      0.0000000E+00
  -2.290000      0.0000000E+00
  -2.280000      0.0000000E+00
  -2.270000      0.0000000E+00
  -2.260000      0.0000000E+00
  -2.250000      0.0000000E+00
  -2.240000      0.0000000E+00
  -2.230000      0.0000000E+00
  -2.220000      0.0000000E+00
  -2.210000      0.0000000E+00
  -2.200000      0.0000000E+00
  -2.190000      0.0000000E+00
  -2.180000      0.0000000E+00
  -2.170000      0.0000000E+00
  -2.160000      0.0000000E+00
  -2.150000      0.0000000E+00
  -2.140000      0.0000000E+00
  -2.130000      0.0000000E+00
  -2.120000      0.0000000E+00
  -2.110000      0.0000000E+00
  -2.100000      0.0000000E+00
  -2.090000      0.0000000E+00
  -2.080000      0.0000000E+00
  -2.070000      0.0000000E+00
  -2.060000      0.0000000E+00
  -2.050000      0.0000000E+00
  -2.040000      0.0000000E+00
  -2.030000      0.0000000E+00
  -2.020000      0.0000000E+00
  -2.010000      0.0000000E+00
  -2.000000      0.0000000E+00
  -1.990000      0.0000000E+00
  -1.980000      0.0000000E+00
  -1.970000      0.0000000E+00
  -1.960000      0.0000000E+00
  -1.950000      0.0000000E+00
  -1.940000      0.0000000E+00
  -1.930000      0.0000000E+00
  -1.920000      0.0000000E+00
  -1.910000      0.0000000E+00
  -1.900000      0.0000000E+00
  -1.890000      0.0000000E+00
  -1.880000      0.0000000E+00
  -1.870000      0.0000000E+00
  -1.860000      0.0000000E+00
  -1.850000      0.0000000E+00
  -1.840000      0.0000000E+00
  -1.830000      0.0000000E+00
  -1.820000      0.0000000E+00
  -1.810000      0.0000000E+00
  -1.800000      0.0000000E+00
  -1.790000      0.0000000E+00
  -1.780000      0.0000000E+00
  -1.770000      0.0000000E+00
  -1.760000      0.0000000E+00
  -1.750000      0.0000000E+00
  -1.740000      0.0000000E+00
  -1.730000      0.0000000E+00
  -1.720000      0.0000000E+00
  -1.710000      0.0000000E+00
  -1.700000      0.0000000E+00
  -1.690000      0.0000000E+00
  -1.680000      0.0000000E+00
  -1.670000      0.0000000E+00
  -1.660000      0.0000000E+00
  -1.650000      0.0000000E+00
  -1.640000      0.0000000E+00
  -1.630000      0.0000000E+00
  -1.620000      0.0000000E+00
  -1.610000      0.0000000E+00
  -1.600000      0.0000000E+00
  -1.590000      0.0000000E+00
  -1.580000      0.0000000E+00
  -1.570000      0.0000000E+00
  -1.560000      0.0000000E+00
  -1.550000      0.0000000E+00
  -1.540000      0.0000000E+00
  -1.530000      0.0000000E+00
  -1.520000      0.0000000E+00
  -1.510000      0.0000000E+00
  -1.500000      0.0000000E+00
  -1.490000      0.0000000E+00
  -1.480000      0.0000000E+00
  -1.470000      0.0000000E+00
  -1.460000      0.0000000E+00
  -1.450000      0.0000000E+00
  -1.440000      0.0000000E+00
  -1.430000      0.0000000E+00
  -1.420000      0.0000000E+00
  -1.410000      0.0000000E+00
  -1.400000      0.0000000E+00
  -1.390000      0.0000000E+00
  -1.380000      0.0000000E+00
  -1.370000      0.0000000E+00
  -1.360000      0.0000000E+00
  -1.350000      0.0000000E+00
  -1.340000      0.0000000E+00
  -1.330000      0.0000000E+00
  -1.320000      0.0000000E+00
  -1.310000      0.0000000E+00
  -1.300000      0.0000000E+00
  -1.290000      0.0000000E+00
  -1.280000      0.0000000E+00
  -1.270000      0.0000000E+00
  -1.260000      0.0000000E+00
  -1.250000      0.0000000E+00
  -1.240000      0.0000000E+00
  -1.230000      0.0000000E+00
  -1.220000      0.0000000E+00
  -1.210000      0.0000000E+00
  -1.200000      0.0000000E+00
  -1.190000      0.0000000E+00
  -1.180000      0.0000000E+00
  -1.170000      0.0000000E+00
  -1.160000      0.0000000E+00
  -1.150000      0.0000000E+00
  -1.140000      0.0000000E+00
  -1.130000      0.0000000E+00
  -1.120000      0.0000000E+00
  -1.110000      0.0000000E+00
  -1.100000      0.0000000E+00
  -1.090000      0.0000000E+00
  -1.080000      0.0000000E+00
  -1.070000      0.0000000E+00
  -1.060000      0.0000000E+00
  -1.050000      0.0000000E+00
  -1.040000      0.0000000E+00
  -1.030000      0.0000000E+00
  -1.020000      0.0000000E+00
  -1.010000      0.0000000E+00
  -1.000000      0.0000000E+00
 -0.9900000      0.0000000E+00
 -0.9800000      0.0000000E+00
 -0.9700000      0.0000000E+00
 -0.9600000      0.0000000E+00
 -0.9500000      0.0000000E+00
 -0.9400000      0.0000000E+00
 -0.9300000      0.0000000E+00
 -0.9200000      0.0000000E+00
 -0.9100000      0.0000000E+00
 -0.9000000      0.0000000E+00
 -0.8900000      0.0000000E+00
 -0.8800000      0.0000000E+00
 -0.8700000      0.0000000E+00
 -0.8600000      0.0000000E+00
 -0.8500000      0.0000000E+00
 -0.8400000      0.0000000E+00
 -0.8300000      0.0000000E+00
 -0.8200000      0.0000000E+00
 -0.8100000      0.0000000E+00
 -0.8000000      0.0000000E+00
 -0.7900000      0.0000000E+00
 -0.7800000      0.0000000E+00
 -0.7700000      0.0000000E+00
 -0.7600000      0.0000000E+00
 -0.7500000      0.0000000E+00
 -0.7400000      0.0000000E+00
 -0.7300000      0.0000000E+00
 -0.7200000      0.0000000E+00
 -0.7100000      0.0000000E+00
 -0.7000000      0.0000000E+00
 -0.6900000      0.0000000E+00
 -0.6800000      0.0000000E+00
 -0.6700000      0.0000000E+00
 -0.6600000      0.0000000E+00
 -0.6500000      0.0000000E+00
 -0.6400000      0.0000000E+00
 -0.6300000      0.0000000E+00
 -0.6200000      0.0000000E+00
 -0.6100000      0.0000000E+00
 -0.6000000      0.0000000E+00
 -0.5900000      0.0000000E+00
 -0.5800000      0.0000000E+00
 -0.5700000      0.0000000E+00
 -0.5600000      0.0000000E+00
 -0.5500000      0.0000000E+00
 -0.5400000      0.0000000E+00
 -0.5300000      0.0000000E+00
 -0.5200000      0.0000000E+00
 -0.5100000      0.0000000E+00
 -0.5000000      0.0000000E+00
 -0.4900000      0.0000000E+00
 -0.4800000      0.0000000E+00
 -0.4700000      0.0000000E+00
 -0.4600000      0.0000000E+00
 -0.4500000      0.0000000E+00
 -0.4400000      0.0000000E+00
 -0.4300000      0.0000000E+00
 -0.4200000      0.0000000E+00
 -0.4100000      0.0000000E+00
 -0.4000000      0.0000000E+00
 -0.3900000      0.0000000E+00
 -0.3800000      0.0000000E+00
 -0.3700000      0.0000000E+00
 -0.3600000      0.0000000E+00
 -0.3500000      0.0000000E+00
 -0.3400000      0.0000000E+00
 -0.3300000      0.0000000E+00
 -0.3200000      0.0000000E+00
 -0.3100000      0.0000000E+00
 -0.3000000      0.0000000E+00
 -0.2900000      0.0000000E+00
 -0.2800000      0.0000000E+00
 -0.2700000      0.0000000E+00
 -0.2600000      0.0000000E+00
 -0.2500000      0.0000000E+00
 -0.2400000      0.0000000E+00
 -0.2300000      0.0000000E+00
 -0.2200000      0.0000000E+00
 -0.2100000      0.0000000E+00
 -0.2000000      0.0000000E+00
 -0.1900000      0.0000000E+00
 -0.1800000      0.0000000E+00
 -0.1700000      0.0000000E+00
 -0.1600000      0.0000000E+00
 -0.1500000      0.0000000E+00
 -0.1400000      0.0000000E+00
 -0.1300000      0.0000000E+00
 -0.1200000      0.0000000E+00
 -0.1100000      0.0000000E+00
 -0.1000000      0.0000000E+00
 -9.0000004E-02  0.0000000E+00
 -7.9999998E-02  0.0000000E+00
 -7.0000000E-02  0.0000000E+00
 -5.9999999E-02  0.0000000E+00
 -5.0000001E-02  0.0000000E+00
 -3.9999999E-02  0.0000000E+00
 -2.9999999E-02  0.0000000E+00
 -2.0000000E-02  0.0000000E+00
 -9.9999998E-03  0.0000000E+00
 -3.4694470E-17  0.0000000E+00
  9.9999998E-03  0.0000000E+00
  2.0000000E-02  0.0000000E+00
  2.9999999E-02  0.0000000E+00
  3.9999999E-02  0.0000000E+00
  5.0000001E-02  0.0000000E+00
  5.9999999E-02  0.0000000E+00
  7.0000000E-02  0.0000000E+00
  7.9999998E-02  0.0000000E+00
  9.0000004E-02  0.0000000E+00
  0.1000000      0.0000000E+00
  0.1100000      0.0000000E+00
  0.1200000      0.0000000E+00
  0.1300000      0.0000000E+00
  0.1400000      0.0000000E+00
  0.1500000      0.0000000E+00
  0.1600000      0.0000000E+00
  0.1700000      0.0000000E+00
  0.1800000      0.0000000E+00
  0.1900000      0.0000000E+00
  0.2000000      0.0000000E+00
  0.2100000      0.0000000E+00
  0.2200000      0.0000000E+00
  0.2300000      0.0000000E+00
  0.2400000      0.0000000E+00
  0.2500000      0.0000000E+00
  0.2600000      0.0000000E+00
  0.2700000      0.0000000E+00
  0.2800000      0.0000000E+00
  0.2900000      0.0000000E+00
  0.3000000      0.0000000E+00
  0.3100000      0.0000000E+00
  0.3200000      0.0000000E+00
  0.3300000      0.0000000E+00
  0.3400000      0.0000000E+00
  0.3500000      0.0000000E+00
  0.3600000      0.0000000E+00
  0.3700000      0.0000000E+00
  0.3800000      0.0000000E+00
  0.3900000      0.0000000E+00
  0.4000000      0.0000000E+00
  0.4100000      0.0000000E+00
  0.4200000      0.0000000E+00
  0.4300000      0.0000000E+00
  0.4400000      0.0000000E+00
  0.4500000      0.0000000E+00
  0.4600000      0.0000000E+00
  0.4700000      0.0000000E+00
  0.4800000      0.0000000E+00
  0.4900000      0.0000000E+00
  0.5000000      0.0000000E+00
  0.5100000      0.0000000E+00
  0.5200000      0.0000000E+00
  0.5300000      0.0000000E+00
  0.5400000      0.0000000E+00
  0.5500000      0.0000000E+00
  0.5600000      0.0000000E+00
  0.5700000      0.0000000E+00
  0.5800000      0.0000000E+00
  0.5900000      0.0000000E+00
  0.6000000      0.0000000E+00
  0.6100000      0.0000000E+00
  0.6200000      0.0000000E+00
  0.6300000      0.0000000E+00
  0.6400000      0.0000000E+00
  0.6500000      0.0000000E+00
  0.6600000      0.0000000E+00
  0.6700000      0.0000000E+00
  0.6800000      0.0000000E+00
  0.6900000      0.0000000E+00
  0.7000000      0.0000000E+00
  0.7100000      0.0000000E+00
  0.7200000      0.0000000E+00
  0.7300000      0.0000000E+00
  0.7400000      0.0000000E+00
  0.7500000      0.0000000E+00
  0.7600000      0.0000000E+00
  0.7700000      0.0000000E+00
  0.7800000      0.0000000E+00
  0.7900000      0.0000000E+00
  0.8000000      0.0000000E+00
  0.8100000      0.0000000E+00
  0.8200000      0.0000000E+00
  0.8300000      0.0000000E+00
  0.8400000      0.0000000E+00
  0.8500000      0.0000000E+00
  0.8600000      0.0000000E+00
  0.8700000      0.0000000E+00
  0.8800000      0.0000000E+00
  0.8900000      0.0000000E+00
  0.9000000      0.0000000E+00
  0.9100000      0.0000000E+00
  0.9200000      0.0000000E+00
  0.9300000      0.0000000E+00
  0.9400000      0.0000000E+00
  0.9500000      0.0000000E+00
  0.9600000      0.0000000E+00
  0.9700000      0.0000000E+00
  0.9800000      0.0000000E+00
  0.9900000      0.0000000E+00
   1.000000      0.0000000E+00
   1.010000      0.0000000E+00
   1.020000      0.0000000E+00
   1.030000      0.0000000E+00
   1.040000      0.0000000E+00
   1.050000      0.0000000E+00
   1.060000      0.0000000E+00
   1.070000      0.0000000E+00
   1.080000      0.0000000E+00
   1.090000      0.0000000E+00
   1.100000      0.0000000E+00
   1.110000      0.0000000E+00
   1.120000      0.0000000E+00
   1.130000      0.0000000E+00
   1.140000      0.0000000E+00
   1.150000      0.0000000E+00
   1.160000      0.0000000E+00
   1.170000      0.0000000E+00
   1.180000      0.0000000E+00
   1.190000      0.0000000E+00
   1.200000      0.0000000E+00
   1.210000      0.0000000E+00
   1.220000      0.0000000E+00
   1.230000      0.0000000E+00
   1.240000      0.0000000E+00
   1.250000      0.0000000E+00
   1.260000      0.0000000E+00
   1.270000      0.0000000E+00
   1.280000      0.0000000E+00
   1.290000      0.0000000E+00
   1.300000      0.0000000E+00
   1.310000      0.0000000E+00
   1.320000      0.0000000E+00
   1.330000      0.0000000E+00
   1.340000      0.0000000E+00
   1.350000      0.0000000E+00
   1.360000      0.0000000E+00
   1.370000      0.0000000E+00
   1.380000      0.0000000E+00
   1.390000      0.0000000E+00
   1.400000      0.0000000E+00
   1.410000      0.0000000E+00
   1.420000      0.0000000E+00
   1.430000      0.0000000E+00
   1.440000      0.0000000E+00
   1.450000      0.0000000E+00
   1.460000      0.0000000E+00
   1.470000      0.0000000E+00
   1.480000      0.0000000E+00
   1.490000      0.0000000E+00
   1.500000      0.0000000E+00
   1.510000      0.0000000E+00
   1.520000      0.0000000E+00
   1.530000      0.0000000E+00
   1.540000      0.0000000E+00
   1.550000      0.0000000E+00
   1.560000      0.0000000E+00
   1.570000      0.0000000E+00
   1.580000      0.0000000E+00
   1.590000      0.0000000E+00
   1.600000      0.0000000E+00
   1.610000      0.0000000E+00
   1.620000      0.0000000E+00
   1.630000      0.0000000E+00
   1.640000      0.0000000E+00
   1.650000      0.0000000E+00
   1.660000      0.0000000E+00
   1.670000      0.0000000E+00
   1.680000      0.0000000E+00
   1.690000      0.0000000E+00
   1.700000      0.0000000E+00
   1.710000      0.0000000E+00
   1.720000      0.0000000E+00
   1.730000      0.0000000E+00
   1.740000      0.0000000E+00
   1.750000      0.0000000E+00
   1.760000      0.0000000E+00
   1.770000      0.0000000E+00
   1.780000      0.0000000E+00
   1.790000      0.0000000E+00
   1.800000      0.0000000E+00
   1.810000      0.0000000E+00
   1.820000      0.0000000E+00
   1.830000      0.0000000E+00
   1.840000      0.0000000E+00
   1.850000      0.0000000E+00
   1.860000      0.0000000E+00
   1.870000      0.0000000E+00
   1.880000      0.0000000E+00
   1.890000      0.0000000E+00
   1.900000      0.0000000E+00
   1.910000      0.0000000E+00
   1.920000      0.0000000E+00
   1.930000      0.0000000E+00
   1.940000      0.0000000E+00
   1.950000      0.0000000E+00
   1.960000      0.0000000E+00
   1.970000      0.0000000E+00
   1.980000      0.0000000E+00
   1.990000      0.0000000E+00
   2.000000      0.0000000E+00
   2.010000      0.0000000E+00
   2.020000      0.0000000E+00
   2.030000      0.0000000E+00
   2.040000      0.0000000E+00
   2.050000      0.0000000E+00
   2.060000      0.0000000E+00
   2.070000      0.0000000E+00
   2.080000      0.0000000E+00
   2.090000      0.0000000E+00
   2.100000      0.0000000E+00
   2.110000      0.0000000E+00
   2.120000      0.0000000E+00
   2.130000      0.0000000E+00
   2.140000      0.0000000E+00
   2.150000      0.0000000E+00
   2.160000      0.0000000E+00
   2.170000      0.0000000E+00
   2.180000      0.0000000E+00
   2.190000      0.0000000E+00
   2.200000      0.0000000E+00
   2.210000      0.0000000E+00
   2.220000      0.0000000E+00
   2.230000      0.0000000E+00
   2.240000      0.0000000E+00
   2.250000      0.0000000E+00
   2.260000      0.0000000E+00
   2.270000      0.0000000E+00
   2.280000      0.0000000E+00
   2.290000      0.0000000E+00
   2.300000      0.0000000E+00
   2.310000      0.0000000E+00
   2.320000      0.0000000E+00
   2.330000      0.0000000E+00
   2.340000      0.0000000E+00
   2.350000      0.0000000E+00
   2.360000      0.0000000E+00
   2.370000      0.0000000E+00
   2.380000      0.0000000E+00
   2.390000      0.0000000E+00
   2.400000      0.0000000E+00
   2.410000      0.0000000E+00
   2.420000      0.0000000E+00
   2.430000      0.0000000E+00
   2.440000      0.0000000E+00
   2.450000      0.0000000E+00
   2.460000      0.0000000E+00
   2.470000      0.0000000E+00
   2.480000      0.0000000E+00
   2.490000      0.0000000E+00
   2.500000      0.0000000E+00
   2.510000      0.0000000E+00
   2.520000      0.0000000E+00
   2.530000      0.0000000E+00
   2.540000      0.0000000E+00
   2.550000      0.0000000E+00
   2.560000      0.0000000E+00
   2.570000      0.0000000E+00
   2.580000      0.0000000E+00
   2.590000      0.0000000E+00
   2.600000      0.0000000E+00
   2.610000      0.0000000E+00
   2.620000      0.0000000E+00
   2.630000      0.0000000E+00
   2.640000      0.0000000E+00
   2.650000      0.0000000E+00
   2.660000      0.0000000E+00
   2.670000      0.0000000E+00
   2.680000      0.0000000E+00
   2.690000      0.0000000E+00
   2.700000      0.0000000E+00
   2.710000      0.0000000E+00
   2.720000      0.0000000E+00
   2.730000      0.0000000E+00
   2.740000      0.0000000E+00
   2.750000      0.0000000E+00
   2.760000      0.0000000E+00
   2.770000      0.0000000E+00
   2.780000      0.0000000E+00
   2.790000      0.0000000E+00
   2.800000      0.0000000E+00
   2.810000      0.0000000E+00
   2.820000      0.0000000E+00
   2.830000      0.0000000E+00
   2.840000      0.0000000E+00
   2.850000      0.0000000E+00
   2.860000      0.0000000E+00
   2.870000      0.0000000E+00
   2.880000      0.0000000E+00
   2.890000      0.0000000E+00
   2.900000      0.0000000E+00
   2.910000      0.0000000E+00
   2.920000      0.0000000E+00
   2.930000      0.0000000E+00
   2.940000      0.0000000E+00
   2.950000      0.0000000E+00
   2.960000      0.0000000E+00
   2.970000      0.0000000E+00
   2.980000      0.0000000E+00
   2.990000      0.0000000E+00
   3.000000      0.0000000E+00
   3.010000      0.0000000E+00
   3.020000      0.0000000E+00
   3.030000      0.0000000E+00
   3.040000      0.0000000E+00
   3.050000      0.0000000E+00
   3.060000      0.0000000E+00
   3.070000      0.0000000E+00
   3.080000      0.0000000E+00
   3.090000      0.0000000E+00
   3.100000      0.0000000E+00
   3.110000      0.0000000E+00
   3.120000      0.0000000E+00
   3.130000      0.0000000E+00
   3.140000      0.0000000E+00
   3.150000      0.0000000E+00
   3.160000      0.0000000E+00
   3.170000      0.0000000E+00
   3.180000      0.0000000E+00
   3.190000      0.0000000E+00
   3.200000      0.0000000E+00
   3.210000      0.0000000E+00
   3.220000      0.0000000E+00
   3.230000      0.0000000E+00
   3.240000      0.0000000E+00
   3.250000      0.0000000E+00
   3.260000      0.0000000E+00
   3.270000      0.0000000E+00
   3.280000      0.0000000E+00
   3.290000      0.0000000E+00
   3.300000     -1.2806827E-38
   3.310000     -1.4274166E-38
   3.320000     -1.5736140E-38
   3.330000     -1.7174652E-38
   3.340000     -1.8401470E-38
   3.350000     -1.9377852E-38
   3.360000     -2.0388806E-38
   3.370000     -2.1464845E-38
   3.380000     -2.2625254E-38
   3.390000     -2.3906505E-38
   3.400000     -2.4940290E-38
   3.410000     -2.5613031E-38
   3.420000     -2.6117905E-38
   3.430000     -2.6465618E-38
   3.440000     -2.6713572E-38
   3.450000     -2.6768483E-38
   3.460000     -2.6679148E-38
   3.470000     -2.6754198E-38
   3.480000     -2.6731607E-38
   3.490000     -2.5350759E-38
   3.500000     -2.2767436E-38
   3.510000     -1.9445396E-38
   3.520000     -1.5073953E-38
   3.530000      0.0000000E+00
   3.540000      0.0000000E+00
   3.550000      0.0000000E+00
   3.560000      1.9291264E-38
   3.570000      2.8882942E-38
   3.580000      3.7840112E-38
   3.590000      4.7033552E-38
   3.600000      5.6126617E-38
   3.610000      6.5258643E-38
   3.620000      7.4639720E-38
   3.630000      8.4285726E-38
   3.640000      9.4281300E-38
   3.650000      1.0472683E-37
   3.660000      1.1495558E-37
   3.670000      1.2401244E-37
   3.680000      1.3304662E-37
   3.690000      1.4334682E-37
   3.700000      1.5759297E-37
   3.710000      1.7553906E-37
   3.720000      1.9475024E-37
   3.730000      2.1529819E-37
   3.740000      2.3433197E-37
   3.750000      2.5183793E-37
   3.760000      2.6848580E-37
   3.770000      2.8330609E-37
   3.780000      2.9731040E-37
   3.790000      3.1114158E-37
   3.800000      3.2221506E-37
   3.810000      3.4355121E-37
   3.820000      3.7805616E-37
   3.830000      4.1047489E-37
   3.840000      4.3047526E-37
   3.850000      4.2455178E-37
   3.860000      4.0259901E-37
   3.870000      3.7860627E-37
   3.880000      3.5262705E-37
   3.890000      3.3214466E-37
   3.900000      3.1099288E-37
   3.910000      2.6855764E-37
   3.920000      2.2069756E-37
   3.930000      1.8455760E-37
   3.940000      1.4791458E-37
   3.950000      1.1180806E-37
   3.960000      8.6461791E-38
   3.970000      7.6442373E-38
   3.980000      7.3457181E-38
   3.990000      6.4052871E-38
   4.000000      5.0848514E-38
   4.010000      2.2419106E-38
   4.020000     -1.9915894E-38
   4.030000     -6.7415090E-38
   4.040000     -1.1861808E-37
   4.050000     -1.7467453E-37
   4.060000     -2.3822264E-37
   4.070000     -3.1240120E-37
   4.080000     -3.9166207E-37
   4.090000     -4.9078629E-37
   4.100000     -6.3887062E-37
   4.110000     -8.4889952E-37
   4.120000     -1.1131810E-36
   4.130000     -1.3868762E-36
   4.140000     -1.6647874E-36
   4.150000     -1.9357027E-36
   4.160000     -2.1782027E-36
   4.170000     -2.3902968E-36
   4.180000     -2.5819742E-36
   4.190000     -2.7298184E-36
   4.200000     -2.8454387E-36
   4.210000     -2.9586351E-36
   4.220000     -3.0642158E-36
   4.230000     -3.1639312E-36
   4.240000     -3.2527631E-36
   4.250000     -3.3197987E-36
   4.260000     -3.3402816E-36
   4.270000     -3.4766404E-36
   4.280000     -3.7869863E-36
   4.290000     -4.1515330E-36
   4.300000     -4.4709580E-36
   4.310000     -4.7124897E-36
   4.320000     -4.9486519E-36
   4.330000     -5.1907428E-36
   4.340000     -5.2762165E-36
   4.350000     -5.0980851E-36
   4.360000     -4.7393889E-36
   4.370000     -4.2244752E-36
   4.380000     -3.5915654E-36
   4.390000     -2.8913511E-36
   4.400000     -2.1306716E-36
   4.410000     -1.3013575E-36
   4.420000     -4.4845214E-37
   4.430000      4.1045776E-37
   4.440000      1.2936528E-36
   4.450000      2.1399868E-36
   4.460000      2.8467981E-36
   4.470000      3.4753117E-36
   4.480000      4.0639754E-36
   4.490000      4.6983646E-36
   4.500000      5.4250743E-36
   4.510000      6.1722077E-36
   4.520000      7.0579754E-36
   4.530000      8.0912554E-36
   4.540000      9.3956322E-36
   4.550000      1.1073270E-35
   4.560000      1.2911092E-35
   4.570000      1.5101534E-35
   4.580000      1.7610007E-35
   4.590000      2.0100286E-35
   4.600000      2.2546012E-35
   4.610000      2.5115289E-35
   4.620000      2.7572058E-35
   4.630000      2.9400770E-35
   4.640000      3.0780994E-35
   4.650000      3.2041485E-35
   4.660000      3.3260291E-35
   4.670000      3.4318994E-35
   4.680000      3.5109365E-35
   4.690000      3.5663374E-35
   4.700000      3.6009117E-35
   4.710000      3.6101389E-35
   4.720000      3.5933356E-35
   4.730000      3.5559442E-35
   4.740000      3.5063564E-35
   4.750000      3.4588034E-35
   4.760000      3.4038063E-35
   4.770000      3.3467765E-35
   4.780000      3.2930369E-35
   4.790000      3.2224840E-35
   4.800000      3.0691018E-35
   4.810000      2.8173819E-35
   4.820000      2.5205495E-35
   4.830000      2.1890501E-35
   4.840000      1.8268752E-35
   4.850000      1.4281725E-35
   4.860000      1.2460072E-35
   4.870000      1.3135284E-35
   4.880000      1.7624230E-35
   4.890000      2.5896428E-35
   4.900000      3.1259158E-35
   4.910000      3.3089991E-35
   4.920000      3.2642385E-35
   4.930000      2.7274875E-35
   4.940000      1.4323742E-35
   4.950000     -3.8492317E-36
   4.960000     -2.4452642E-35
   4.970000     -4.6582494E-35
   4.980000     -6.9795195E-35
   4.990000     -9.4271880E-35
   5.000000     -1.1743691E-34
   5.010000     -1.4028749E-34
   5.020000     -1.6466032E-34
   5.030000     -1.8970772E-34
   5.040000     -2.1515858E-34
   5.050000     -2.4361698E-34
   5.060000     -2.7459564E-34
   5.070000     -3.0376096E-34
   5.080000     -3.3035117E-34
   5.090000     -3.5550485E-34
   5.100000     -3.7536221E-34
   5.110000     -3.8947852E-34
   5.120000     -4.0233282E-34
   5.130000     -4.1621674E-34
   5.140000     -4.2874076E-34
   5.150000     -4.3401795E-34
   5.160000     -4.3282749E-34
   5.170000     -4.2751696E-34
   5.180000     -4.1906332E-34
   5.190000     -4.1037206E-34
   5.200000     -4.0685650E-34
   5.210000     -4.1023334E-34
   5.220000     -4.1610815E-34
   5.230000     -4.2068018E-34
   5.240000     -4.2441894E-34
   5.250000     -4.3184554E-34
   5.260000     -4.4104452E-34
   5.270000     -4.4770842E-34
   5.280000     -4.5315950E-34
   5.290000     -4.5640253E-34
   5.300000     -4.5723135E-34
   5.310000     -4.5633903E-34
   5.320000     -4.5021443E-34
   5.330000     -4.3513348E-34
   5.340000     -4.1085493E-34
   5.350000     -3.7731284E-34
   5.360000     -3.3458169E-34
   5.370000     -2.8129277E-34
   5.380000     -2.1837411E-34
   5.390000     -1.4679926E-34
   5.400000     -6.4699829E-35
   5.410000      2.9457926E-35
   5.420000      1.3638495E-34
   5.430000      2.5587348E-34
   5.440000      3.8585552E-34
   5.450000      5.2288404E-34
   5.460000      6.7077886E-34
   5.470000      8.3094447E-34
   5.480000      9.9966244E-34
   5.490000      1.1767561E-33
   5.500000      1.3606001E-33
   5.510000      1.5502019E-33
   5.520000      1.7455213E-33
   5.530000      1.9447715E-33
   5.540000      2.1505017E-33
   5.550000      2.3617955E-33
   5.560000      2.5761607E-33
   5.570000      2.7939310E-33
   5.580000      3.0158274E-33
   5.590000      3.2403391E-33
   5.600000      3.4651803E-33
   5.610000      3.6910434E-33
   5.620000      3.9178253E-33
   5.630000      4.1455957E-33
   5.640000      4.3736618E-33
   5.650000      4.6023888E-33
   5.660000      4.8318045E-33
   5.670000      5.0592623E-33
   5.680000      5.2833001E-33
   5.690000      5.5014322E-33
   5.700000      5.7145280E-33
   5.710000      5.9225703E-33
   5.720000      6.1211220E-33
   5.730000      6.3077872E-33
   5.740000      6.4807920E-33
   5.750000      6.6377330E-33
   5.760000      6.7743563E-33
   5.770000      6.8855419E-33
   5.780000      6.9685921E-33
   5.790000      7.0214599E-33
   5.800000      7.0399710E-33
   5.810000      7.0200515E-33
   5.820000      6.9566674E-33
   5.830000      6.8455898E-33
   5.840000      6.6833899E-33
   5.850000      6.4659948E-33
   5.860000      6.1900570E-33
   5.870000      5.8524495E-33
   5.880000      5.4491198E-33
   5.890000      4.9763532E-33
   5.900000      4.4314065E-33
   5.910000      3.8116510E-33
   5.920000      3.1144120E-33
   5.930000      2.3372402E-33
   5.940000      1.4778169E-33
   5.950000      5.3396858E-34
   5.960000     -4.9649066E-34
   5.970000     -1.6153792E-33
   5.980000     -2.8244119E-33
   5.990000     -4.1254871E-33
   6.000000     -5.5202787E-33
   6.010000     -7.0103684E-33
   6.020000     -8.5972050E-33
   6.030000     -1.0282142E-32
   6.040000     -1.2066357E-32
   6.050000     -1.3950789E-32
   6.060000     -1.5936121E-32
   6.070000     -1.8022854E-32
   6.080000     -2.0210806E-32
   6.090000     -2.2499309E-32
   6.100000     -2.4889409E-32
   6.110000     -2.7377158E-32
   6.120000     -2.9958343E-32
   6.130000     -3.2631926E-32
   6.140000     -3.5393676E-32
   6.150000     -3.8238570E-32
   6.160000     -4.1160496E-32
   6.170000     -4.4152358E-32
   6.180000     -4.7206816E-32
   6.190000     -5.0313445E-32
   6.200000     -5.3460596E-32
   6.210000     -5.6637252E-32
   6.220000     -5.9830217E-32
   6.230000     -6.3025005E-32
   6.240000     -6.6205852E-32
   6.250000     -6.9355701E-32
   6.260000     -7.2456091E-32
   6.270000     -7.5487591E-32
   6.280000     -7.8429506E-32
   6.290000     -8.1259632E-32
   6.300000     -8.3954694E-32
   6.310000     -8.6490194E-32
   6.320000     -8.8840513E-32
   6.330000     -9.0978925E-32
   6.340000     -9.2877378E-32
   6.350000     -9.4506460E-32
   6.360000     -9.5836309E-32
   6.370000     -9.6835890E-32
   6.380000     -9.7472550E-32
   6.390000     -9.7712833E-32
   6.400000     -9.7522238E-32
   6.410000     -9.6865237E-32
   6.420000     -9.5705323E-32
   6.430000     -9.4005071E-32
   6.440000     -9.1726146E-32
   6.450000     -8.8829393E-32
   6.460000     -8.5274933E-32
   6.470000     -8.1022247E-32
   6.480000     -7.6030322E-32
   6.490000     -7.0257622E-32
   6.500000     -6.3662664E-32
   6.510000     -5.6203953E-32
   6.520000     -4.7839896E-32
   6.530000     -3.8529405E-32
   6.540000     -2.8232068E-32
   6.550000     -1.6908409E-32
   6.560000     -4.5201519E-33
   6.570000      8.9694612E-33
   6.580000      2.3595354E-32
   6.590000      3.9390275E-32
   6.600000      5.6384450E-32
   6.610000      7.4605229E-32
   6.620000      9.4076723E-32
   6.630000      1.1481941E-31
   6.640000      1.3684977E-31
   6.650000      1.6017991E-31
   6.660000      1.8481717E-31
   6.670000      2.1076365E-31
   6.680000      2.3801591E-31
   6.690000      2.6656587E-31
   6.700000      2.9639620E-31
   6.710000      3.2748269E-31
   6.720000      3.5979677E-31
   6.730000      3.9330080E-31
   6.740000      4.2794897E-31
   6.750000      4.6368691E-31
   6.760000      5.0045125E-31
   6.770000      5.3816924E-31
   6.780000      5.7675818E-31
   6.790000      6.1612507E-31
   6.800000      6.5616617E-31
   6.810000      6.9676652E-31
   6.820000      7.3779950E-31
   6.830000      7.7912650E-31
   6.840000      8.2059653E-31
   6.850000      8.6204558E-31
   6.860000      9.0329678E-31
   6.870000      9.4415913E-31
   6.880000      9.8442799E-31
   6.890000      1.0238846E-30
   6.900000      1.0622958E-30
   6.910000      1.0994136E-30
   6.920000      1.1349752E-30
   6.930000      1.1687031E-30
   6.940000      1.2003046E-30
   6.950000      1.2294723E-30
   6.960000      1.2558837E-30
   6.970000      1.2792016E-30
   6.980000      1.2990748E-30
   6.990000      1.3151374E-30
   7.000000      1.3270103E-30
   7.010000      1.3343007E-30
   7.020000      1.3366038E-30
   7.030000      1.3335025E-30
   7.040000      1.3245686E-30
   7.050000      1.3093636E-30
   7.060000      1.2874402E-30