  -2.600000      0.0000000E+00
  -2.590000      0.0000000E+00
  -2.580000      0.0000000E+00
  -2.570000      0.0000000E+00
  -2.560000      0.0000000E+00
  -2.550000      0.0000000E+00
  -2.540000      0.0000000E+00
  -2.530000      0.0000000E+00
  -2.520000      0.0000000E+00
  -2.510000      0.0000000E+00
  -2.500000      0.0000000E+00
  -2.490000      0.0000000E+00
  -2.480000      0.0000000E+00
  -2.470000      0.0000000E+00
  -2.460000      0.0000000E+00
  -2.450000      0.0000000E+00
  -2.440000      0.0000000E+00
  -2.430000      0.0000000E+00
  -2.420000      0.0000000E+00
  -2.410000      0.0000000E+00
  -2.400000      0.0000000E+00
  -2.390000      0.0000000E+00
  -2.380000      0.0000000E+00
  -2.370000      0.0000000E+00
  -2.360000      0.0000000E+00
  -2.350000      0.0000000E+00
  -2.340000      0.0000000E+00
  -2.330000      0.0000000E+00
  -2.320000      0.0000000E+00
  -2.310000      0.0000000E+00
  -2.300000      0.0000000E+00
  -2.290000      0.0000000E+00
  -2.280000      0.0000000E+00
  -2.270000      0.0000000E+00
  -2.260000      0.0000000E+00
  -2.250000      0.0000000E+00
  -2.240000      0.0000000E+00
  -2.230000      0.0000000E+00
  -2.220000      0.0000000E+00
  -2.210000      0.0000000E+00
  -2.200000      0.0000000E+00
  -2.190000      0.0000000E+00
  -2.180000      0.0000000E+00
  -2.170000      0.0000000E+00
  -2.160000      0.0000000E+00
  -2.150000      0.0000000E+00
  -2.140000      0.0000000E+00
  -2.130000      0.0000000E+00
  -2.120000      0.0000000E+00
  -2.110000      0.0000000E+00
  -2.100000      0.0000000E+00
  -2.090000      0.0000000E+00
  -2.080000      0.0000000E+00
  -2.070000      0.0000000E+00
  -2.060000      0.0000000E+00
  -2.050000      0.0000000E+00
  -2.040000      0.0000000E+00
  -2.030000      0.0000000E+00
  -2.020000      0.0000000E+00
  -2.010000      0.0000000E+00
  -2.000000      0.0000000E+00
  -1.990000      0.0000000E+00
  -1.980000      0.0000000E+00
  -1.970000      0.0000000E+00
  -1.960000      0.0000000E+00
  -1.950000      0.0000000E+00
  -1.940000      0.0000000E+00
  -1.930000      0.0000000E+00
  -1.920000      0.0000000E+00
  -1.910000      0.0000000E+00
  -1.900000      0.0000000E+00
  -1.890000      0.0000000E+00
  -1.880000      0.0000000E+00
  -1.870000      0.0000000E+00
  -1.860000      0.0000000E+00
  -1.850000      0.0000000E+00
  -1.840000      0.0000000E+00
  -1.830000      0.0000000E+00
  -1.820000      0.0000000E+00
  -1.810000      0.0000000E+00
  -1.800000      0.0000000E+00
  -1.790000      0.0000000E+00
  -1.780000      0.0000000E+00
  -1.770000      0.0000000E+00
  -1.760000      0.0000000E+00
  -1.750000      0.0000000E+00
  -1.740000      0.0000000E+00
  -1.730000      0.0000000E+00
  -1.720000      0.0000000E+00
  -1.710000      0.0000000E+00
  -1.700000      0.0000000E+00
  -1.690000      0.0000000E+00
  -1.680000      0.0000000E+00
  -1.670000      0.0000000E+00
  -1.660000      0.0000000E+00
  -1.650000      0.0000000E+00
  -1.640000      0.0000000E+00
  -1.630000      0.0000000E+00
  -1.620000      0.0000000E+00
  -1.610000      0.0000000E+00
  -1.600000      0.0000000E+00
  -1.590000      0.0000000E+00
  -1.580000      0.0000000E+00
  -1.570000      0.0000000E+00
  -1.560000      0.0000000E+00
  -1.550000      0.0000000E+00
  -1.540000      0.0000000E+00
  -1.530000      0.0000000E+00
  -1.520000      0.0000000E+00
  -1.510000      0.0000000E+00
  -1.500000      0.0000000E+00
  -1.490000      0.0000000E+00
  -1.480000      0.0000000E+00
  -1.470000      0.0000000E+00
  -1.460000      0.0000000E+00
  -1.450000      0.0000000E+00
  -1.440000      0.0000000E+00
  -1.430000      0.0000000E+00
  -1.420000      0.0000000E+00
  -1.410000      0.0000000E+00
  -1.400000      0.0000000E+00
  -1.390000      0.0000000E+00
  -1.380000      0.0000000E+00
  -1.370000      0.0000000E+00
  -1.360000      0.0000000E+00
  -1.350000      0.0000000E+00
  -1.340000      0.0000000E+00
  -1.330000      0.0000000E+00
  -1.320000      0.0000000E+00
  -1.310000      0.0000000E+00
  -1.300000      0.0000000E+00
  -1.290000      0.0000000E+00
  -1.280000      0.0000000E+00
  -1.270000      0.0000000E+00
  -1.260000      0.0000000E+00
  -1.250000      0.0000000E+00
  -1.240000      0.0000000E+00
  -1.230000      0.0000000E+00
  -1.220000      0.0000000E+00
  -1.210000      0.0000000E+00
  -1.200000      0.0000000E+00
  -1.190000      0.0000000E+00
  -1.180000      0.0000000E+00
  -1.170000      0.0000000E+00
  -1.160000      0.0000000E+00
  -1.150000      0.0000000E+00
  -1.140000      0.0000000E+00
  -1.130000      0.0000000E+00
  -1.120000      0.0000000E+00
  -1.110000      0.0000000E+00
  -1.100000      0.0000000E+00
  -1.090000      0.0000000E+00
  -1.080000      0.0000000E+00
  -1.070000      0.0000000E+00
  -1.060000      0.0000000E+00
  -1.050000      0.0000000E+00
  -1.040000      0.0000000E+00
  -1.030000      0.0000000E+00
  -1.020000      0.0000000E+00
  -1.010000      0.0000000E+00
  -1.000000      0.0000000E+00
 -0.9900000      0.0000000E+00
 -0.9800000      0.0000000E+00
 -0.9700000      0.0000000E+00
 -0.9600000      0.0000000E+00
 -0.9500000      0.0000000E+00
 -0.9400000      0.0000000E+00
 -0.9300000      0.0000000E+00
 -0.9200000      0.0000000E+00
 -0.9100000      0.0000000E+00
 -0.9000000      0.0000000E+00
 -0.8900000      0.0000000E+00
 -0.8800000      0.0000000E+00
 -0.8700000      0.0000000E+00
 -0.8600000      0.0000000E+00
 -0.8500000      0.0000000E+00
 -0.8400000      0.0000000E+00
 -0.8300000      0.0000000E+00
 -0.8200000      0.0000000E+00
 -0.8100000      0.0000000E+00
 -0.8000000      0.0000000E+00
 -0.7900000      0.0000000E+00
 -0.7800000      0.0000000E+00
 -0.7700000      0.0000000E+00
 -0.7600000      0.0000000E+00
 -0.7500000      0.0000000E+00
 -0.7400000      0.0000000E+00
 -0.7300000      0.0000000E+00
 -0.7200000      0.0000000E+00
 -0.7100000      0.0000000E+00
 -0.7000000      0.0000000E+00
 -0.6900000      0.0000000E+00
 -0.6800000      0.0000000E+00
 -0.6700000      0.0000000E+00
 -0.6600000      0.0000000E+00
 -0.6500000      0.0000000E+00
 -0.6400000      0.0000000E+00
 -0.6300000      0.0000000E+00
 -0.6200000      0.0000000E+00
 -0.6100000      0.0000000E+00
 -0.6000000      0.0000000E+00
 -0.5900000      0.0000000E+00
 -0.5800000      0.0000000E+00
 -0.5700000      0.0000000E+00
 -0.5600000      0.0000000E+00
 -0.5500000      0.0000000E+00
 -0.5400000      0.0000000E+00
 -0.5300000      0.0000000E+00
 -0.5200000      0.0000000E+00
 -0.5100000      0.0000000E+00
 -0.5000000      0.0000000E+00
 -0.4900000      0.0000000E+00
 -0.4800000      0.0000000E+00
 -0.4700000      0.0000000E+00
 -0.4600000      0.0000000E+00
 -0.4500000      0.0000000E+00
 -0.4400000      0.0000000E+00
 -0.4300000      0.0000000E+00
 -0.4200000      0.0000000E+00
 -0.4100000      0.0000000E+00
 -0.4000000      0.0000000E+00
 -0.3900000      0.0000000E+00
 -0.3800000      0.0000000E+00
 -0.3700000      0.0000000E+00
 -0.3600000      0.0000000E+00
 -0.3500000      0.0000000E+00
 -0.3400000      0.0000000E+00
 -0.3300000      0.0000000E+00
 -0.3200000      0.0000000E+00
 -0.3100000      0.0000000E+00
 -0.3000000      0.0000000E+00
 -0.2900000      0.0000000E+00
 -0.2800000      0.0000000E+00
 -0.2700000      0.0000000E+00
 -0.2600000      0.0000000E+00
 -0.2500000      0.0000000E+00
 -0.2400000      0.0000000E+00
 -0.2300000      0.0000000E+00
 -0.2200000      0.0000000E+00
 -0.2100000      0.0000000E+00
 -0.2000000      0.0000000E+00
 -0.1900000      0.0000000E+00
 -0.1800000      0.0000000E+00
 -0.1700000      0.0000000E+00
 -0.1600000      0.0000000E+00
 -0.1500000      0.0000000E+00
 -0.1400000      0.0000000E+00
 -0.1300000      0.0000000E+00
 -0.1200000      0.0000000E+00
 -0.1100000      0.0000000E+00
 -0.1000000      0.0000000E+00
 -9.0000004E-02  0.0000000E+00
 -7.9999998E-02  0.0000000E+00
 -7.0000000E-02  0.0000000E+00
 -5.9999999E-02  0.0000000E+00
 -5.0000001E-02  0.0000000E+00
 -3.9999999E-02  0.0000000E+00
 -2.9999999E-02  0.0000000E+00
 -2.0000000E-02  0.0000000E+00
 -9.9999998E-03  0.0000000E+00
 -3.4694470E-17  0.0000000E+00
  9.9999998E-03  0.0000000E+00
  2.0000000E-02  0.0000000E+00
  2.9999999E-02  0.0000000E+00
  3.9999999E-02  0.0000000E+00
  5.0000001E-02  0.0000000E+00
  5.9999999E-02  0.0000000E+00
  7.0000000E-02  0.0000000E+00
  7.9999998E-02  0.0000000E+00
  9.0000004E-02  0.0000000E+00
  0.1000000      0.0000000E+00
  0.1100000      0.0000000E+00
  0.1200000      0.0000000E+00
  0.1300000      0.0000000E+00
  0.1400000      0.0000000E+00
  0.1500000      0.0000000E+00
  0.1600000      0.0000000E+00
  0.1700000      0.0000000E+00
  0.1800000      0.0000000E+00
  0.1900000      0.0000000E+00
  0.2000000      0.0000000E+00
  0.2100000      0.0000000E+00
  0.2200000      0.0000000E+00
  0.2300000      0.0000000E+00
  0.2400000      0.0000000E+00
  0.2500000      0.0000000E+00
  0.2600000      0.0000000E+00
  0.2700000      0.0000000E+00
  0.2800000      0.0000000E+00
  0.2900000      0.0000000E+00
  0.3000000      0.0000000E+00
  0.3100000      0.0000000E+00
  0.3200000      0.0000000E+00
  0.3300000      0.0000000E+00
  0.3400000      0.0000000E+00
  0.3500000      0.0000000E+00
  0.3600000      0.0000000E+00
  0.3700000      0.0000000E+00
  0.3800000      0.0000000E+00
  0.3900000      0.0000000E+00
  0.4000000      0.0000000E+00
  0.4100000      0.0000000E+00
  0.4200000      0.0000000E+00
  0.4300000      0.0000000E+00
  0.4400000      0.0000000E+00
  0.4500000      0.0000000E+00
  0.4600000      0.0000000E+00
  0.4700000      0.0000000E+00
  0.4800000      0.0000000E+00
  0.4900000      0.0000000E+00
  0.5000000      0.0000000E+00
  0.5100000      0.0000000E+00
  0.5200000      0.0000000E+00
  0.5300000      0.0000000E+00
  0.5400000      0.0000000E+00
  0.5500000      0.0000000E+00
  0.5600000      0.0000000E+00
  0.5700000      0.0000000E+00
  0.5800000      0.0000000E+00
  0.5900000      0.0000000E+00
  0.6000000      0.0000000E+00
  0.6100000      0.0000000E+00
  0.6200000      0.0000000E+00
  0.6300000      0.0000000E+00
  0.6400000      0.0000000E+00
  0.6500000      0.0000000E+00
  0.6600000      0.0000000E+00
  0.6700000      0.0000000E+00
  0.6800000      0.0000000E+00
  0.6900000      0.0000000E+00
  0.7000000      0.0000000E+00
  0.7100000      0.0000000E+00
  0.7200000      0.0000000E+00
  0.7300000      0.0000000E+00
  0.7400000      0.0000000E+00
  0.7500000      0.0000000E+00
  0.7600000      0.0000000E+00
  0.7700000      0.0000000E+00
  0.7800000      0.0000000E+00
  0.7900000      0.0000000E+00
  0.8000000      0.0000000E+00
  0.8100000      0.0000000E+00
  0.8200000      0.0000000E+00
  0.8300000      0.0000000E+00
  0.8400000      0.0000000E+00
  0.8500000      0.0000000E+00
  0.8600000      0.0000000E+00
  0.8700000      0.0000000E+00
  0.8800000      0.0000000E+00
  0.8900000      0.0000000E+00
  0.9000000      0.0000000E+00
  0.9100000      0.0000000E+00
  0.9200000      0.0000000E+00
  0.9300000      0.0000000E+00
  0.9400000      0.0000000E+00
  0.9500000      0.0000000E+00
  0.9600000      0.0000000E+00
  0.9700000      0.0000000E+00
  0.9800000      0.0000000E+00
  0.9900000      0.0000000E+00
   1.000000      0.0000000E+00
   1.010000      0.0000000E+00
   1.020000      0.0000000E+00
   1.030000      0.0000000E+00
   1.040000      0.0000000E+00
   1.050000      0.0000000E+00
   1.060000      0.0000000E+00
   1.070000      0.0000000E+00
   1.080000      0.0000000E+00
   1.090000      0.0000000E+00
   1.100000      0.0000000E+00
   1.110000      0.0000000E+00
   1.120000      0.0000000E+00
   1.130000      0.0000000E+00
   1.140000      0.0000000E+00
   1.150000      0.0000000E+00
   1.160000      0.0000000E+00
   1.170000      0.0000000E+00
   1.180000      0.0000000E+00
   1.190000      0.0000000E+00
   1.200000      0.0000000E+00
   1.210000      0.0000000E+00
   1.220000      0.0000000E+00
   1.230000      0.0000000E+00
   1.240000      0.0000000E+00
   1.250000      0.0000000E+00
   1.260000      0.0000000E+00
   1.270000      0.0000000E+00
   1.280000      0.0000000E+00
   1.290000      0.0000000E+00
   1.300000      0.0000000E+00
   1.310000      0.0000000E+00
   1.320000      0.0000000E+00
   1.330000      0.0000000E+00
   1.340000      0.0000000E+00
   1.350000      0.0000000E+00
   1.360000      0.0000000E+00
   1.370000      0.0000000E+00
   1.380000      0.0000000E+00
   1.390000      0.0000000E+00
   1.400000      0.0000000E+00
   1.410000      0.0000000E+00
   1.420000      0.0000000E+00
   1.430000      0.0000000E+00
   1.440000      0.0000000E+00
   1.450000      0.0000000E+00
   1.460000      0.0000000E+00
   1.470000      0.0000000E+00
   1.480000      0.0000000E+00
   1.490000      0.0000000E+00
   1.500000      0.0000000E+00
   1.510000      0.0000000E+00
   1.520000      0.0000000E+00
   1.530000      0.0000000E+00
   1.540000      0.0000000E+00
   1.550000      0.0000000E+00
   1.560000      0.0000000E+00
   1.570000      0.0000000E+00
   1.580000      0.0000000E+00
   1.590000      0.0000000E+00
   1.600000      0.0000000E+00
   1.610000      0.0000000E+00
   1.620000      0.0000000E+00
   1.630000      0.0000000E+00
   1.640000      0.0000000E+00
   1.650000      0.0000000E+00
   1.660000      0.0000000E+00
   1.670000      0.0000000E+00
   1.680000      0.0000000E+00
   1.690000      0.0000000E+00
   1.700000      0.0000000E+00
   1.710000      0.0000000E+00
   1.720000      0.0000000E+00
   1.730000      0.0000000E+00
   1.740000      0.0000000E+00
   1.750000      0.0000000E+00
   1.760000      0.0000000E+00
   1.770000      0.0000000E+00
   1.780000      0.0000000E+00
   1.790000      0.0000000E+00
   1.800000      0.0000000E+00
   1.810000      0.0000000E+00
   1.820000      0.0000000E+00
   1.830000      0.0000000E+00
   1.840000      0.0000000E+00
   1.850000      0.0000000E+00
   1.860000      0.0000000E+00
   1.870000      0.0000000E+00
   1.880000      0.0000000E+00
   1.890000      0.0000000E+00
   1.900000      0.0000000E+00
   1.910000      0.0000000E+00
   1.920000      0.0000000E+00
   1.930000      0.0000000E+00
   1.940000      0.0000000E+00
   1.950000      0.0000000E+00
   1.960000      0.0000000E+00
   1.970000      0.0000000E+00
   1.980000      0.0000000E+00
   1.990000      0.0000000E+00
   2.000000      0.0000000E+00
   2.010000      0.0000000E+00
   2.020000      0.0000000E+00
   2.030000      0.0000000E+00
   2.040000      0.0000000E+00
   2.050000      0.0000000E+00
   2.060000      0.0000000E+00
   2.070000      0.0000000E+00
   2.080000      0.0000000E+00
   2.090000      0.0000000E+00
   2.100000      0.0000000E+00
   2.110000      0.0000000E+00
   2.120000      0.0000000E+00
   2.130000      0.0000000E+00
   2.140000      0.0000000E+00
   2.150000      0.0000000E+00
   2.160000      0.0000000E+00
   2.170000      0.0000000E+00
   2.180000      0.0000000E+00
   2.190000      0.0000000E+00
   2.200000      0.0000000E+00
   2.210000      0.0000000E+00
   2.220000      0.0000000E+00
   2.230000      0.0000000E+00
   2.240000      0.0000000E+00
   2.250000      0.0000000E+00
   2.260000      0.0000000E+00
   2.270000      0.0000000E+00
   2.280000      0.0000000E+00
   2.290000      0.0000000E+00
   2.300000      0.0000000E+00
   2.310000      0.0000000E+00
   2.320000      0.0000000E+00
   2.330000      0.0000000E+00
   2.340000      0.0000000E+00
   2.350000      0.0000000E+00
   2.360000      0.0000000E+00
   2.370000      0.0000000E+00
   2.380000      0.0000000E+00
   2.390000      0.0000000E+00
   2.400000      0.0000000E+00
   2.410000      0.0000000E+00
   2.420000      0.0000000E+00
   2.430000      0.0000000E+00
   2.440000      0.0000000E+00
   2.450000      0.0000000E+00
   2.460000      0.0000000E+00
   2.470000      0.0000000E+00
   2.480000      0.0000000E+00
   2.490000      0.0000000E+00
   2.500000      0.0000000E+00
   2.510000      0.0000000E+00
   2.520000      0.0000000E+00
   2.530000      0.0000000E+00
   2.540000      0.0000000E+00
   2.550000      0.0000000E+00
   2.560000      0.0000000E+00
   2.570000      0.0000000E+00
   2.580000      0.0000000E+00
   2.590000      0.0000000E+00
   2.600000      0.0000000E+00
   2.610000      0.0000000E+00
   2.620000      0.0000000E+00
   2.630000      0.0000000E+00
   2.640000      0.0000000E+00
   2.650000      0.0000000E+00
   2.660000      0.0000000E+00
   2.670000      0.0000000E+00
   2.680000      0.0000000E+00
   2.690000      0.0000000E+00
   2.700000      0.0000000E+00
   2.710000      0.0000000E+00
   2.720000      0.0000000E+00
   2.730000      0.0000000E+00
   2.740000      0.0000000E+00
   2.750000      0.0000000E+00
   2.760000      0.0000000E+00
   2.770000      0.0000000E+00
   2.780000      0.0000000E+00
   2.790000      0.0000000E+00
   2.800000      0.0000000E+00
   2.810000      0.0000000E+00
   2.820000      0.0000000E+00
   2.830000      0.0000000E+00
   2.840000      0.0000000E+00
   2.850000      0.0000000E+00
   2.860000      1.2814177E-38
   2.870000      1.4395549E-38
   2.880000      1.5937661E-38
   2.890000      1.7405923E-38
   2.900000      1.8767225E-38
   2.910000      1.9990918E-38
   2.920000      2.0853870E-38
   2.930000      2.1434987E-38
   2.940000      2.2020098E-38
   2.950000      2.2604124E-38
   2.960000      2.3182015E-38
   2.970000      2.3487096E-38
   2.980000      2.3431837E-38
   2.990000      2.3200109E-38
   3.000000      2.2806079E-38
   3.010000      2.2257049E-38
   3.020000      2.1551463E-38
   3.030000      2.0685988E-38
   3.040000      1.9654298E-38
   3.050000      1.8451065E-38
   3.060000      1.7027863E-38
   3.070000      1.5354095E-38
   3.080000      1.2447638E-38
   3.090000      0.0000000E+00
   3.100000      0.0000000E+00
   3.110000      0.0000000E+00
   3.120000      0.0000000E+00
   3.130000     -1.7231145E-38
   3.140000     -2.5468468E-38
   3.150000     -3.3770909E-38
   3.160000     -4.1730141E-38
   3.170000     -4.9927760E-38
   3.180000     -5.8292626E-38
   3.190000     -6.6573706E-38
   3.200000     -7.4600108E-38
   3.210000     -8.2445625E-38
   3.220000     -9.0048913E-38
   3.230000     -9.8315807E-38
   3.240000     -1.0716673E-37
   3.250000     -1.1481629E-37
   3.260000     -1.2184331E-37
   3.270000     -1.2942214E-37
   3.280000     -1.3724990E-37
   3.290000     -1.4526340E-37
   3.300000     -1.5338934E-37
   3.310000     -1.6189114E-37
   3.320000     -1.7073372E-37
   3.330000     -1.7951409E-37
   3.340000     -1.8829656E-37
   3.350000     -1.9765180E-37
   3.360000     -2.0646617E-37
   3.370000     -2.1368750E-37
   3.380000     -2.2000390E-37
   3.390000     -2.2533464E-37
   3.400000     -2.2938370E-37
   3.410000     -2.3213749E-37
   3.420000     -2.3340736E-37
   3.430000     -2.3328940E-37
   3.440000     -2.3082442E-37
   3.450000     -2.2517824E-37
   3.460000     -2.1728442E-37
   3.470000     -2.0663830E-37
   3.480000     -1.9240931E-37
   3.490000     -1.7558431E-37
   3.500000     -1.5558425E-37
   3.510000     -1.5204768E-37
   3.520000     -1.6849920E-37
   3.530000     -1.8900312E-37
   3.540000     -2.3800128E-37
   3.550000     -3.1727124E-37
   3.560000     -4.0507821E-37
   3.570000     -4.5548720E-37
   3.580000     -4.5605225E-37
   3.590000     -4.4395104E-37
   3.600000     -4.2162537E-37
   3.610000     -3.9471237E-37
   3.620000     -3.7208887E-37
   3.630000     -3.5710569E-37
   3.640000     -3.5392113E-37
   3.650000     -1.9801269E-37
   3.660000      1.2479354E-37
   3.670000      4.5518945E-37
   3.680000      7.9087958E-37
   3.690000      1.0924152E-36
   3.700000      1.2133412E-36
   3.710000      1.2421600E-36
   3.720000      1.3514539E-36
   3.730000      1.4884534E-36
   3.740000      1.6197218E-36
   3.750000      1.7014522E-36
   3.760000      1.7205208E-36
   3.770000      1.7674292E-36
   3.780000      1.7084667E-36
   3.790000      1.4861480E-36
   3.800000      1.2527272E-36
   3.810000      1.1159194E-36
   3.820000      1.0789317E-36
   3.830000      1.1248130E-36
   3.840000      1.2602458E-36
   3.850000      1.4484924E-36
   3.860000      1.7041621E-36
   3.870000      2.0915093E-36
   3.880000      2.5778073E-36
   3.890000      3.0693059E-36
   3.900000      3.6157841E-36
   3.910000      4.2385809E-36
   3.920000      4.7732869E-36
   3.930000      5.1713418E-36
   3.940000      5.3845942E-36
   3.950000      5.3918607E-36
   3.960000      5.2743181E-36
   3.970000      4.4793972E-36
   3.980000      3.0618525E-36
   3.990000      1.5795214E-36
   4.000000      1.4456431E-37
   4.010000     -1.2920828E-36
   4.020000     -2.1646340E-36
   4.030000     -2.3451853E-36
   4.040000     -2.3668049E-36
   4.050000     -2.0910012E-36
   4.060000     -1.6243861E-36
   4.070000     -1.1602252E-36
   4.080000     -8.6706726E-37
   4.090000     -8.0866885E-37
   4.100000     -8.4641378E-37
   4.110000     -1.1657782E-36
   4.120000     -1.8331992E-36
   4.130000     -2.6709296E-36
   4.140000     -3.6407501E-36
   4.150000     -4.7298111E-36
   4.160000     -6.2301846E-36
   4.170000     -8.1846729E-36
   4.180000     -1.0111968E-35
   4.190000     -1.1694843E-35
   4.200000     -1.2357100E-35
   4.210000     -1.2125345E-35
   4.220000     -1.1823859E-35
   4.230000     -1.2268351E-35
   4.240000     -1.3530566E-35
   4.250000     -1.5170745E-35
   4.260000     -1.7484342E-35
   4.270000     -2.0318196E-35
   4.280000     -2.2505238E-35
   4.290000     -2.3824970E-35
   4.300000     -2.4817134E-35
   4.310000     -2.5171286E-35
   4.320000     -2.4483180E-35
   4.330000     -2.2542597E-35
   4.340000     -2.0015290E-35
   4.350000     -1.7644671E-35
   4.360000     -1.5429234E-35
   4.370000     -1.3891778E-35
   4.380000     -1.3720724E-35
   4.390000     -1.4262044E-35
   4.400000     -1.4677657E-35
   4.410000     -1.5452370E-35
   4.420000     -1.6039798E-35
   4.430000     -1.5775368E-35
   4.440000     -1.4668442E-35
   4.450000     -1.1186650E-35
   4.460000     -5.0507116E-36
   4.470000      2.5320408E-36
   4.480000      1.0370312E-35
   4.490000      1.7448434E-35
   4.500000      2.3052862E-35
   4.510000      2.7467317E-35
   4.520000      3.0534203E-35
   4.530000      3.1360499E-35
   4.540000      3.1244066E-35
   4.550000      3.1252452E-35
   4.560000      3.1749646E-35
   4.570000      3.3881590E-35
   4.580000      3.7168138E-35
   4.590000      4.1147391E-35
   4.600000      4.6473049E-35
   4.610000      5.3505438E-35
   4.620000      6.2393116E-35
   4.630000      7.2463470E-35
   4.640000      8.2207681E-35
   4.650000      9.0145522E-35
   4.660000      9.6096950E-35
   4.670000      1.0112343E-34
   4.680000      1.0528820E-34
   4.690000      1.0814418E-34
   4.700000      1.1174618E-34
   4.710000      1.1641654E-34
   4.720000      1.2137175E-34
   4.730000      1.2515448E-34
   4.740000      1.2802038E-34
   4.750000      1.3189539E-34
   4.760000      1.3628414E-34
   4.770000      1.3994179E-34
   4.780000      1.4071477E-34
   4.790000      1.3852443E-34
   4.800000      1.3605562E-34
   4.810000      1.3388090E-34
   4.820000      1.3123553E-34
   4.830000      1.2871327E-34
   4.840000      1.2636238E-34
   4.850000      1.2364883E-34
   4.860000      1.1900758E-34
   4.870000      1.1319579E-34
   4.880000      1.1102470E-34
   4.890000      1.1274510E-34
   4.900000      1.1152295E-34
   4.910000      1.0595713E-34
   4.920000      9.3516958E-35
   4.930000      7.2324632E-35
   4.940000      4.6558952E-35
   4.950000      1.7469119E-35
   4.960000     -1.3408486E-35
   4.970000     -4.3194461E-35
   4.980000     -7.1567414E-35
   4.990000     -9.8118996E-35
   5.000000     -1.1945127E-34
   5.010000     -1.3381428E-34
   5.020000     -1.4231424E-34
   5.030000     -1.4928896E-34
   5.040000     -1.5982459E-34
   5.050000     -1.8320190E-34
   5.060000     -2.2061152E-34
   5.070000     -2.6553453E-34
   5.080000     -3.1833546E-34
   5.090000     -3.7738716E-34
   5.100000     -4.3837059E-34
   5.110000     -5.0064291E-34
   5.120000     -5.5576303E-34
   5.130000     -5.9120070E-34
   5.140000     -6.1052362E-34
   5.150000     -6.1987716E-34
   5.160000     -6.2012332E-34
   5.170000     -6.1453384E-34
   5.180000     -6.2316735E-34
   5.190000     -6.5088224E-34
   5.200000     -6.8909779E-34
   5.210000     -7.4813658E-34
   5.220000     -8.2941228E-34
   5.230000     -9.3081171E-34
   5.240000     -1.0389578E-33
   5.250000     -1.1356078E-33
   5.260000     -1.2199227E-33
   5.270000     -1.2853111E-33
   5.280000     -1.3245151E-33
   5.290000     -1.3444024E-33
   5.300000     -1.3483119E-33
   5.310000     -1.3367324E-33
   5.320000     -1.3189926E-33
   5.330000     -1.3041090E-33
   5.340000     -1.2960659E-33
   5.350000     -1.3040011E-33
   5.360000     -1.3282350E-33
   5.370000     -1.3610287E-33
   5.380000     -1.4015421E-33
   5.390000     -1.4516782E-33
   5.400000     -1.5042920E-33
   5.410000     -1.5444071E-33
   5.420000     -1.5659851E-33
   5.430000     -1.5672940E-33
   5.440000     -1.5361008E-33
   5.450000     -1.4681886E-33
   5.460000     -1.3729280E-33
   5.470000     -1.2523884E-33
   5.480000     -1.1113534E-33
   5.490000     -9.5404876E-34
   5.500000     -7.8746293E-34
   5.510000     -6.1909573E-34
   5.520000     -4.5752504E-34
   5.530000     -3.1231691E-34
   5.540000     -1.7432912E-34
   5.550000     -4.2085240E-35
   5.560000      8.0545705E-35
   5.570000      2.0040163E-34
   5.580000      3.3352574E-34
   5.590000      4.9896328E-34
   5.600000      7.0639363E-34
   5.610000      9.6375007E-34
   5.620000      1.2695583E-33
   5.630000      1.6188486E-33
   5.640000      2.0087297E-33
   5.650000      2.4346653E-33
   5.660000      2.8908786E-33
   5.670000      3.3726347E-33
   5.680000      3.8697219E-33
   5.690000      4.3697081E-33
   5.700000      4.8686779E-33
   5.710000      5.3631742E-33
   5.720000      5.8523345E-33
   5.730000      6.3391354E-33
   5.740000      6.8280331E-33
   5.750000      7.3270216E-33
   5.760000      7.8432083E-33
   5.770000      8.3843993E-33
   5.780000      8.9586408E-33
   5.790000      9.5680913E-33
   5.800000      1.0214479E-32
   5.810000      1.0893433E-32
   5.820000      1.1598742E-32
   5.830000      1.2321669E-32
   5.840000      1.3046115E-32
   5.850000      1.3761963E-32
   5.860000      1.4461105E-32
   5.870000      1.5132621E-32
   5.880000      1.5768231E-32
   5.890000      1.6363659E-32
   5.900000      1.6918070E-32
   5.910000      1.7430449E-32
   5.920000      1.7903922E-32
   5.930000      1.8346850E-32
   5.940000      1.8762095E-32
   5.950000      1.9151546E-32
   5.960000      1.9518234E-32
   5.970000      1.9860183E-32
   5.980000      2.0172938E-32
   5.990000      2.0450942E-32
   6.000000      2.0677879E-32
   6.010000      2.0837132E-32
   6.020000      2.0917452E-32
   6.030000      2.0903067E-32
   6.040000      2.0776332E-32
   6.050000      2.0522800E-32
   6.060000      2.0133366E-32
   6.070000      1.9601096E-32
   6.080000      1.8922262E-32
   6.090000      1.8094947E-32
   6.100000      1.7120752E-32
   6.110000      1.6001780E-32
   6.120000      1.4736786E-32
   6.130000      1.3323491E-32
   6.140000      1.1764857E-32
   6.150000      1.0053319E-32
   6.160000      8.1755757E-33
   6.170000      6.1259672E-33
   6.180000      3.8912955E-33
   6.190000      1.4515775E-33
   6.200000     -1.2106337E-33
   6.210000     -4.1085978E-33
   6.220000     -7.2545098E-33
   6.230000     -1.0657153E-32
   6.240000     -1.4321306E-32
   6.250000     -1.8247801E-32
   6.260000     -2.2434067E-32
   6.270000     -2.6874190E-32
   6.280000     -3.1560348E-32
   6.290000     -3.6483565E-32
   6.300000     -4.1636386E-32
   6.310000     -4.7012792E-32
   6.320000     -5.2607657E-32
   6.330000     -5.8418255E-32
   6.340000     -6.4444897E-32
   6.350000     -7.0689140E-32
   6.360000     -7.7152114E-32
   6.370000     -8.3835646E-32
   6.380000     -9.0739230E-32
   6.390000     -9.7858958E-32
   6.400000     -1.0518691E-31
   6.410000     -1.1271077E-31
   6.420000     -1.2041259E-31
   6.430000     -1.2826911E-31
   6.440000     -1.3625360E-31
   6.450000     -1.4433533E-31
   6.460000     -1.5248106E-31
   6.470000     -1.6065663E-31
   6.480000     -1.6882718E-31
   6.490000     -1.7695826E-31
   6.500000     -1.8501659E-31
   6.510000     -1.9296951E-31
   6.520000     -2.0078476E-31
   6.530000     -2.0842987E-31
   6.540000     -2.1587312E-31
   6.550000     -2.2307554E-31
   6.560000     -2.2999450E-31
   6.570000     -2.3658766E-31
   6.580000     -2.4280612E-31
   6.590000     -2.4859357E-31
   6.600000     -2.5388821E-31
   6.610000     -2.5862512E-31
   6.620000     -2.6273439E-31
   6.630000     -2.6614321E-31
   6.640000     -2.6877650E-31
   6.650000     -2.7055846E-31
   6.660000     -2.7141384E-31
   6.670000     -2.7126808E-31
   6.680000     -2.7004792E-31
   6.690000     -2.6768146E-31
   6.700000     -2.6409782E-31
   6.710000     -2.5922643E-31
   6.720000     -2.5299615E-31
   6.730000     -2.4533442E-31
   6.740000     -2.3616671E-31
   6.750000     -2.2541623E-31
   6.760000     -2.1300343E-31
   6.770000     -1.9884611E-31
   6.780000     -1.8286020E-31
   6.790000     -1.6496081E-31
   6.800000     -1.4506324E-31
   6.810000     -1.2308443E-31
   6.820000     -9.8944392E-32
   6.830000     -7.2567604E-32
   6.840000     -4.3883814E-32
   6.850000     -1.2828924E-32
   6.860000      2.0654223E-32
   6.870000      5.6616063E-32
   6.880000      9.5100297E-32
   6.890000      1.3614420E-31
   6.900000      1.7977900E-31
   6.910000      2.2603059E-31
   6.920000      2.7491956E-31
   6.930000      3.2646062E-31
   6.940000      3.8066257E-31
   6.950000      4.3752746E-31
   6.960000      4.9704979E-31
   6.970000      5.5921464E-31
   6.980000      6.2399641E-31
   6.990000      6.9135722E-31
   7.000000      7.6124520E-31
   7.010000      8.3359336E-31
   7.020000      9.0831812E-31
   7.030000      9.8531874E-31
   7.040000      1.0644763E-30
   7.050000      1.1456548E-30
   7.060000      1.2286996E-30