  -2.600000      0.0000000E+00
  -2.590000      0.0000000E+00
  -2.580000      0.0000000E+00
  -2.570000      0.0000000E+00
  -2.560000      0.0000000E+00
  -2.550000      0.0000000E+00
  -2.540000      0.0000000E+00
  -2.530000      0.0000000E+00
  -2.520000      0.0000000E+00
  -2.510000      0.0000000E+00
  -2.500000      0.0000000E+00
  -2.490000      0.0000000E+00
  -2.480000      0.0000000E+00
  -2.470000      0.0000000E+00
  -2.460000      0.0000000E+00
  -2.450000      0.0000000E+00
  -2.440000      0.0000000E+00
  -2.430000      0.0000000E+00
  -2.420000      0.0000000E+00
  -2.410000      0.0000000E+00
  -2.400000      0.0000000E+00
  -2.390000      0.0000000E+00
  -2.380000      0.0000000E+00
  -2.370000      0.0000000E+00
  -2.360000      0.0000000E+00
  -2.350000      0.0000000E+00
  -2.340000      0.0000000E+00
  -2.330000      0.0000000E+00
  -2.320000      0.0000000E+00
  -2.310000      0.0000000E+00
  -2.300000      0.0000000E+00
  -2.290000      0.0000000E+00
  -2.280000      0.0000000E+00
  -2.270000      0.0000000E+00
  -2.260000      0.0000000E+00
  -2.250000      0.0000000E+00
  -2.240000      0.0000000E+00
  -2.230000      0.0000000E+00
  -2.220000      0.0000000E+00
  -2.210000      0.0000000E+00
  -2.200000      0.0000000E+00
  -2.190000      0.0000000E+00
  -2.180000      0.0000000E+00
  -2.170000      0.0000000E+00
  -2.160000      0.0000000E+00
  -2.150000      0.0000000E+00
  -2.140000      0.0000000E+00
  -2.130000      0.0000000E+00
  -2.120000      0.0000000E+00
  -2.110000      0.0000000E+00
  -2.100000      0.0000000E+00
  -2.090000      0.0000000E+00
  -2.080000      0.0000000E+00
  -2.070000      0.0000000E+00
  -2.060000      0.0000000E+00
  -2.050000      0.0000000E+00
  -2.040000      0.0000000E+00
  -2.030000      0.0000000E+00
  -2.020000      0.0000000E+00
  -2.010000      0.0000000E+00
  -2.000000      0.0000000E+00
  -1.990000      0.0000000E+00
  -1.980000      0.0000000E+00
  -1.970000      0.0000000E+00
  -1.960000      0.0000000E+00
  -1.950000      0.0000000E+00
  -1.940000      0.0000000E+00
  -1.930000      0.0000000E+00
  -1.920000      0.0000000E+00
  -1.910000      0.0000000E+00
  -1.900000      0.0000000E+00
  -1.890000      0.0000000E+00
  -1.880000      0.0000000E+00
  -1.870000      0.0000000E+00
  -1.860000      0.0000000E+00
  -1.850000      0.0000000E+00
  -1.840000      0.0000000E+00
  -1.830000      0.0000000E+00
  -1.820000      0.0000000E+00
  -1.810000      0.0000000E+00
  -1.800000      0.0000000E+00
  -1.790000      0.0000000E+00
  -1.780000      0.0000000E+00
  -1.770000      0.0000000E+00
  -1.760000      0.0000000E+00
  -1.750000      0.0000000E+00
  -1.740000      0.0000000E+00
  -1.730000      0.0000000E+00
  -1.720000      0.0000000E+00
  -1.710000      0.0000000E+00
  -1.700000      0.0000000E+00
  -1.690000      0.0000000E+00
  -1.680000      0.0000000E+00
  -1.670000      0.0000000E+00
  -1.660000      0.0000000E+00
  -1.650000      0.0000000E+00
  -1.640000      0.0000000E+00
  -1.630000      0.0000000E+00
  -1.620000      0.0000000E+00
  -1.610000      0.0000000E+00
  -1.600000      0.0000000E+00
  -1.590000      0.0000000E+00
  -1.580000      0.0000000E+00
  -1.570000      0.0000000E+00
  -1.560000      0.0000000E+00
  -1.550000      0.0000000E+00
  -1.540000      0.0000000E+00
  -1.530000      0.0000000E+00
  -1.520000      0.0000000E+00
  -1.510000      0.0000000E+00
  -1.500000      0.0000000E+00
  -1.490000      0.0000000E+00
  -1.480000      0.0000000E+00
  -1.470000      0.0000000E+00
  -1.460000      0.0000000E+00
  -1.450000      0.0000000E+00
  -1.440000      0.0000000E+00
  -1.430000      0.0000000E+00
  -1.420000      0.0000000E+00
  -1.410000      0.0000000E+00
  -1.400000      0.0000000E+00
  -1.390000      0.0000000E+00
  -1.380000      0.0000000E+00
  -1.370000      0.0000000E+00
  -1.360000      0.0000000E+00
  -1.350000      0.0000000E+00
  -1.340000      0.0000000E+00
  -1.330000      0.0000000E+00
  -1.320000      0.0000000E+00
  -1.310000      0.0000000E+00
  -1.300000      0.0000000E+00
  -1.290000      0.0000000E+00
  -1.280000      0.0000000E+00
  -1.270000      0.0000000E+00
  -1.260000      0.0000000E+00
  -1.250000      0.0000000E+00
  -1.240000      0.0000000E+00
  -1.230000      0.0000000E+00
  -1.220000      0.0000000E+00
  -1.210000      0.0000000E+00
  -1.200000      0.0000000E+00
  -1.190000      0.0000000E+00
  -1.180000      0.0000000E+00
  -1.170000      0.0000000E+00
  -1.160000      0.0000000E+00
  -1.150000      0.0000000E+00
  -1.140000      0.0000000E+00
  -1.130000      0.0000000E+00
  -1.120000      0.0000000E+00
  -1.110000      0.0000000E+00
  -1.100000      0.0000000E+00
  -1.090000      0.0000000E+00
  -1.080000      0.0000000E+00
  -1.070000      0.0000000E+00
  -1.060000      0.0000000E+00
  -1.050000      0.0000000E+00
  -1.040000      0.0000000E+00
  -1.030000      0.0000000E+00
  -1.020000      0.0000000E+00
  -1.010000      0.0000000E+00
  -1.000000      0.0000000E+00
 -0.9900000      0.0000000E+00
 -0.9800000      0.0000000E+00
 -0.9700000      0.0000000E+00
 -0.9600000      0.0000000E+00
 -0.9500000      0.0000000E+00
 -0.9400000      0.0000000E+00
 -0.9300000      0.0000000E+00
 -0.9200000      0.0000000E+00
 -0.9100000      0.0000000E+00
 -0.9000000      0.0000000E+00
 -0.8900000      0.0000000E+00
 -0.8800000      0.0000000E+00
 -0.8700000      0.0000000E+00
 -0.8600000      0.0000000E+00
 -0.8500000      0.0000000E+00
 -0.8400000      0.0000000E+00
 -0.8300000      0.0000000E+00
 -0.8200000      0.0000000E+00
 -0.8100000      0.0000000E+00
 -0.8000000      0.0000000E+00
 -0.7900000      0.0000000E+00
 -0.7800000      0.0000000E+00
 -0.7700000      0.0000000E+00
 -0.7600000      0.0000000E+00
 -0.7500000      0.0000000E+00
 -0.7400000      0.0000000E+00
 -0.7300000      0.0000000E+00
 -0.7200000      0.0000000E+00
 -0.7100000      0.0000000E+00
 -0.7000000      0.0000000E+00
 -0.6900000      0.0000000E+00
 -0.6800000      0.0000000E+00
 -0.6700000      0.0000000E+00
 -0.6600000      0.0000000E+00
 -0.6500000      0.0000000E+00
 -0.6400000      0.0000000E+00
 -0.6300000      0.0000000E+00
 -0.6200000      0.0000000E+00
 -0.6100000      0.0000000E+00
 -0.6000000      0.0000000E+00
 -0.5900000      0.0000000E+00
 -0.5800000      0.0000000E+00
 -0.5700000      0.0000000E+00
 -0.5600000      0.0000000E+00
 -0.5500000      0.0000000E+00
 -0.5400000      0.0000000E+00
 -0.5300000      0.0000000E+00
 -0.5200000      0.0000000E+00
 -0.5100000      0.0000000E+00
 -0.5000000      0.0000000E+00
 -0.4900000      0.0000000E+00
 -0.4800000      0.0000000E+00
 -0.4700000      0.0000000E+00
 -0.4600000      0.0000000E+00
 -0.4500000      0.0000000E+00
 -0.4400000      0.0000000E+00
 -0.4300000      0.0000000E+00
 -0.4200000      0.0000000E+00
 -0.4100000      0.0000000E+00
 -0.4000000      0.0000000E+00
 -0.3900000      0.0000000E+00
 -0.3800000      0.0000000E+00
 -0.3700000      0.0000000E+00
 -0.3600000      0.0000000E+00
 -0.3500000      0.0000000E+00
 -0.3400000      0.0000000E+00
 -0.3300000      0.0000000E+00
 -0.3200000      0.0000000E+00
 -0.3100000      0.0000000E+00
 -0.3000000      0.0000000E+00
 -0.2900000      0.0000000E+00
 -0.2800000      0.0000000E+00
 -0.2700000      0.0000000E+00
 -0.2600000      0.0000000E+00
 -0.2500000      0.0000000E+00
 -0.2400000      0.0000000E+00
 -0.2300000      0.0000000E+00
 -0.2200000      0.0000000E+00
 -0.2100000      0.0000000E+00
 -0.2000000      0.0000000E+00
 -0.1900000      0.0000000E+00
 -0.1800000      0.0000000E+00
 -0.1700000      0.0000000E+00
 -0.1600000      0.0000000E+00
 -0.1500000      0.0000000E+00
 -0.1400000      0.0000000E+00
 -0.1300000      0.0000000E+00
 -0.1200000      0.0000000E+00
 -0.1100000      0.0000000E+00
 -0.1000000      0.0000000E+00
 -9.0000004E-02  0.0000000E+00
 -7.9999998E-02  0.0000000E+00
 -7.0000000E-02  0.0000000E+00
 -5.9999999E-02  0.0000000E+00
 -5.0000001E-02  0.0000000E+00
 -3.9999999E-02  0.0000000E+00
 -2.9999999E-02  0.0000000E+00
 -2.0000000E-02  0.0000000E+00
 -9.9999998E-03  0.0000000E+00
 -3.4694470E-17  0.0000000E+00
  9.9999998E-03  0.0000000E+00
  2.0000000E-02  0.0000000E+00
  2.9999999E-02  0.0000000E+00
  3.9999999E-02  0.0000000E+00
  5.0000001E-02  0.0000000E+00
  5.9999999E-02  0.0000000E+00
  7.0000000E-02  0.0000000E+00
  7.9999998E-02  0.0000000E+00
  9.0000004E-02  0.0000000E+00
  0.1000000      0.0000000E+00
  0.1100000      0.0000000E+00
  0.1200000      0.0000000E+00
  0.1300000      0.0000000E+00
  0.1400000      0.0000000E+00
  0.1500000      0.0000000E+00
  0.1600000      0.0000000E+00
  0.1700000      0.0000000E+00
  0.1800000      0.0000000E+00
  0.1900000      0.0000000E+00
  0.2000000      0.0000000E+00
  0.2100000      0.0000000E+00
  0.2200000      0.0000000E+00
  0.2300000      0.0000000E+00
  0.2400000      0.0000000E+00
  0.2500000      0.0000000E+00
  0.2600000      0.0000000E+00
  0.2700000      0.0000000E+00
  0.2800000      0.0000000E+00
  0.2900000      0.0000000E+00
  0.3000000      0.0000000E+00
  0.3100000      0.0000000E+00
  0.3200000      0.0000000E+00
  0.3300000      0.0000000E+00
  0.3400000      0.0000000E+00
  0.3500000      0.0000000E+00
  0.3600000     -1.4421053E-38
  0.3700000     -1.9159249E-38
  0.3800000     -2.1422228E-38
  0.3900000     -1.9434709E-38
  0.4000000      0.0000000E+00
  0.4100000      0.0000000E+00
  0.4200000      3.2785328E-38
  0.4300000      5.5296661E-38
  0.4400000      7.9273887E-38
  0.4500000      1.0893407E-37
  0.4600000      1.4264118E-37
  0.4700000      1.7368720E-37
  0.4800000      2.0355188E-37
  0.4900000      2.2721496E-37
  0.5000000      2.3836809E-37
  0.5100000      2.3493793E-37
  0.5200000      2.0529325E-37
  0.5300000      1.4450760E-37
  0.5400000      5.5577745E-38
  0.5500000     -5.4710341E-38
  0.5600000     -1.7007225E-37
  0.5700000     -2.9354311E-37
  0.5800000     -4.4114503E-37
  0.5900000     -6.2144959E-37
  0.6000000     -8.3571727E-37
  0.6100000     -1.0719387E-36
  0.6200000     -1.3356005E-36
  0.6300000     -1.6717796E-36
  0.6400000     -2.1075077E-36
  0.6500000     -2.6071046E-36
  0.6600000     -3.1182850E-36
  0.6700000     -3.6365185E-36
  0.6800000     -4.1569043E-36
  0.6900000     -4.6489865E-36
  0.7000000     -5.1242162E-36
  0.7100000     -5.5742765E-36
  0.7200000     -5.9535643E-36
  0.7300000     -6.3294394E-36
  0.7400000     -6.7318733E-36
  0.7500000     -6.9937846E-36
  0.7600000     -7.0776498E-36
  0.7700000     -7.0274703E-36
  0.7800000     -6.7402914E-36
  0.7900000     -6.1393062E-36
  0.8000000     -5.2633674E-36
  0.8100000     -4.1504751E-36
  0.8200000     -2.8020843E-36
  0.8300000     -1.1619740E-36
  0.8400000      8.3943616E-37
  0.8500000      3.1954168E-36
  0.8600000      5.8179753E-36
  0.8700000      8.7685687E-36
  0.8800000      1.2187263E-35
  0.8900000      1.6062918E-35
  0.9000000      1.9850550E-35
  0.9100000      2.3525865E-35
  0.9200000      2.7131572E-35
  0.9300000      3.0562968E-35
  0.9400000      3.4027373E-35
  0.9500000      3.7354234E-35
  0.9600000      4.1153475E-35
  0.9700000      4.5255838E-35
  0.9800000      4.8970492E-35
  0.9900000      5.2280421E-35
   1.000000      5.5379192E-35
   1.010000      5.8345834E-35
   1.020000      6.1087715E-35
   1.030000      6.3340084E-35
   1.040000      6.4964952E-35
   1.050000      6.5959514E-35
   1.060000      6.6141342E-35
   1.070000      6.5327674E-35
   1.080000      6.3648123E-35
   1.090000      6.1268252E-35
   1.100000      5.8110035E-35
   1.110000      5.4455040E-35
   1.120000      4.9715467E-35
   1.130000      4.3310656E-35
   1.140000      3.5068409E-35
   1.150000      2.5266453E-35
   1.160000      1.4081190E-35
   1.170000      1.1573312E-36
   1.180000     -1.3552755E-35
   1.190000     -2.9375377E-35
   1.200000     -4.6133883E-35
   1.210000     -6.4679998E-35
   1.220000     -8.4630514E-35
   1.230000     -1.0501762E-34
   1.240000     -1.2591045E-34
   1.250000     -1.4690451E-34
   1.260000     -1.6747352E-34
   1.270000     -1.8792330E-34
   1.280000     -2.0833507E-34
   1.290000     -2.2812869E-34
   1.300000     -2.4666197E-34
   1.310000     -2.6423733E-34
   1.320000     -2.8107004E-34
   1.330000     -2.9498845E-34
   1.340000     -3.0464125E-34
   1.350000     -3.1029807E-34
   1.360000     -3.1205011E-34
   1.370000     -3.1133062E-34
   1.380000     -3.0953285E-34
   1.390000     -3.0556347E-34
   1.400000     -2.9825065E-34
   1.410000     -2.8725868E-34
   1.420000     -2.7116451E-34
   1.430000     -2.4898780E-34
   1.440000     -2.2232781E-34
   1.450000     -1.9066986E-34
   1.460000     -1.5492545E-34
   1.470000     -1.1669955E-34
   1.480000     -7.5431329E-35
   1.490000     -3.2198475E-35
   1.500000      1.8804648E-35
   1.510000      8.2292634E-35
   1.520000      1.5550174E-34
   1.530000      2.3335241E-34
   1.540000      3.1668603E-34
   1.550000      4.0687386E-34
   1.560000      4.9877199E-34
   1.570000      5.9316625E-34
   1.580000      6.9117874E-34
   1.590000      7.8869215E-34
   1.600000      8.8254481E-34
   1.610000      9.7184455E-34
   1.620000      1.0530443E-33
   1.630000      1.1242769E-33
   1.640000      1.1832116E-33
   1.650000      1.2262865E-33
   1.660000      1.2525163E-33
   1.670000      1.2586013E-33
   1.680000      1.2423061E-33
   1.690000      1.2007757E-33
   1.700000      1.1341295E-33
   1.710000      1.0415889E-33
   1.720000      9.1788495E-34
   1.730000      7.6265458E-34
   1.740000      5.7435458E-34
   1.750000      3.4985931E-34
   1.760000      8.9576481E-35
   1.770000     -2.0633999E-34
   1.780000     -5.3832347E-34
   1.790000     -9.0658661E-34
   1.800000     -1.3140140E-33
   1.810000     -1.7603325E-33
   1.820000     -2.2427409E-33
   1.830000     -2.7614895E-33
   1.840000     -3.3148151E-33
   1.850000     -3.9003174E-33
   1.860000     -4.5151304E-33
   1.870000     -5.1556227E-33
   1.880000     -5.8182908E-33
   1.890000     -6.4976067E-33
   1.900000     -7.1876866E-33
   1.910000     -7.8818086E-33
   1.920000     -8.5726636E-33
   1.930000     -9.2512603E-33
   1.940000     -9.9073397E-33
   1.950000     -1.0531427E-32
   1.960000     -1.1111784E-32
   1.970000     -1.1635575E-32
   1.980000     -1.2089533E-32
   1.990000     -1.2459726E-32
   2.000000     -1.2731544E-32
   2.010000     -1.2889500E-32
   2.020000     -1.2918260E-32
   2.030000     -1.2800782E-32
   2.040000     -1.2519407E-32
   2.050000     -1.2057681E-32
   2.060000     -1.1399240E-32
   2.070000     -1.0528855E-32
   2.080000     -9.4295916E-33
   2.090000     -8.0850288E-33
   2.100000     -6.4811976E-33
   2.110000     -4.6058918E-33
   2.120000     -2.4465344E-33
   2.130000      8.2679103E-36
   2.140000      2.7662082E-33
   2.150000      5.8337871E-33
   2.160000      9.2157809E-33
   2.170000      1.2912732E-32
   2.180000      1.6922674E-32
   2.190000      2.1241797E-32
   2.200000      2.5861728E-32
   2.210000      3.0770698E-32
   2.220000      3.5952630E-32
   2.230000      4.1387369E-32
   2.240000      4.7050281E-32
   2.250000      5.2911640E-32
   2.260000      5.8936971E-32
   2.270000      6.5086435E-32
   2.280000      7.1314791E-32
   2.290000      7.7571384E-32
   2.300000      8.3799905E-32
   2.310000      8.9938442E-32
   2.320000      9.5919363E-32
   2.330000      1.0166952E-31
   2.340000      1.0711038E-31
   2.350000      1.1215787E-31
   2.360000      1.1672344E-31
   2.370000      1.2071396E-31
   2.380000      1.2403159E-31
   2.390000      1.2657495E-31
   2.400000      1.2823946E-31
   2.410000      1.2891808E-31
   2.420000      1.2850189E-31
   2.430000      1.2688100E-31
   2.440000      1.2394528E-31
   2.450000      1.1958533E-31
   2.460000      1.1369360E-31
   2.470000      1.0616545E-31
   2.480000      9.6900102E-32
   2.490000      8.5801954E-32
   2.500000      7.2781973E-32
   2.510000      5.7758949E-32
   2.520000      4.0660890E-32
   2.530000      2.1426558E-32
   2.540000      6.8016834E-36
   2.550000     -2.3633768E-32
   2.560000     -4.9514872E-32
   2.570000     -7.7639703E-32
   2.580000     -1.0799269E-31
   2.590000     -1.4053760E-31
   2.600000     -1.7521630E-31
   2.610000     -2.1194692E-31
   2.620000     -2.5062191E-31
   2.630000     -2.9110767E-31
   2.640000     -3.3324219E-31
   2.650000     -3.7683267E-31
   2.660000     -4.2165575E-31
   2.670000     -4.6745578E-31
   2.680000     -5.1394395E-31
   2.690000     -5.6079751E-31
   2.700000     -6.0765925E-31
   2.710000     -6.5413726E-31
   2.720000     -6.9980494E-31
   2.730000     -7.4420138E-31
   2.740000     -7.8683210E-31
   2.750000     -8.2716989E-31
   2.760000     -8.6465631E-31
   2.770000     -8.9870342E-31
   2.780000     -9.2869583E-31
   2.790000     -9.5399351E-31
   2.800000     -9.7393412E-31
   2.810000     -9.8783702E-31
   2.820000     -9.9500632E-31
   2.830000     -9.9473548E-31
   2.840000     -9.8631161E-31
   2.850000     -9.6902027E-31
   2.860000     -9.4215073E-31
   2.870000     -9.0500163E-31
   2.880000     -8.5688705E-31
   2.890000     -7.9714250E-31
   2.900000     -7.2513214E-31
   2.910000     -6.4025571E-31
   2.920000     -5.4195570E-31
   2.930000     -4.2972509E-31
   2.940000     -3.0311558E-31
   2.950000     -1.6174666E-31
   2.960000     -5.3133873E-33
   2.970000      1.6640426E-31
   2.980000      3.5353223E-31
   2.990000      5.5609328E-31
   3.000000      7.7399683E-31
   3.010000      1.0070299E-30
   3.020000      1.2548476E-30
   3.030000      1.5169625E-30
   3.040000      1.7927370E-30
   3.050000      2.0813722E-30
   3.060000      2.3819014E-30
   3.070000      2.6931804E-30
   3.080000      3.0138808E-30
   3.090000      3.3424834E-30
   3.100000      3.6772706E-30
   3.110000      4.0163238E-30
   3.120000      4.3575184E-30
   3.130000      4.6985224E-30
   3.140000      5.0367920E-30
   3.150000      5.3695769E-30
   3.160000      5.6939197E-30
   3.170000      6.0066580E-30
   3.180000      6.3044335E-30
   3.190000      6.5836967E-30
   3.200000      6.8407151E-30
   3.210000      7.0715874E-30
   3.220000      7.2722520E-30
   3.230000      7.4385057E-30
   3.240000      7.5660180E-30
   3.250000      7.6503512E-30
   3.260000      7.6869807E-30
   3.270000      7.6713168E-30
   3.280000      7.5987318E-30
   3.290000      7.4645840E-30
   3.300000      7.2642496E-30
   3.310000      6.9931547E-30
   3.320000      6.6468055E-30
   3.330000      6.2208244E-30
   3.340000      5.7109924E-30
   3.350000      5.1132831E-30
   3.360000      4.4239096E-30
   3.370000      3.6393685E-30
   3.380000      2.7564859E-30
   3.390000      1.7724649E-30
   3.400000      6.8494199E-31
   3.410000     -5.0796769E-31
   3.420000     -1.8076116E-30
   3.430000     -3.2147435E-30
   3.440000     -4.7294652E-30
   3.450000     -6.3511760E-30
   3.460000     -8.0785118E-30
   3.470000     -9.9092842E-30
   3.480000     -1.1840427E-29
   3.490000     -1.3867935E-29
   3.500000     -1.5986822E-29
   3.510000     -1.8191049E-29
   3.520000     -2.0473491E-29
   3.530000     -2.2825879E-29
   3.540000     -2.5238764E-29
   3.550000     -2.7701475E-29
   3.560000     -3.0202081E-29
   3.570000     -3.2727373E-29
   3.580000     -3.5262823E-29
   3.590000     -3.7792590E-29
   3.600000     -4.0299485E-29
   3.610000     -4.2764980E-29
   3.620000     -4.5169205E-29
   3.630000     -4.7490965E-29
   3.640000     -4.9707755E-29
   3.650000     -5.1795785E-29
   3.660000     -5.3730027E-29
   3.670000     -5.5484248E-29
   3.680000     -5.7031077E-29
   3.690000     -5.8342033E-29
   3.700000     -5.9387657E-29
   3.710000     -6.0137560E-29
   3.720000     -6.0560548E-29
   3.730000     -6.0624700E-29
   3.740000     -6.0297532E-29
   3.750000     -5.9546101E-29
   3.760000     -5.8337176E-29
   3.770000     -5.6637405E-29
   3.780000     -5.4413455E-29
   3.790000     -5.1632298E-29
   3.800000     -4.8261328E-29
   3.810000     -4.4268640E-29
   3.820000     -3.9623264E-29
   3.830000     -3.4295426E-29
   3.840000     -2.8256814E-29
   3.850000     -2.1480903E-29
   3.860000     -1.3943215E-29
   3.870000     -5.6216390E-30
   3.880000      3.5032019E-30
   3.890000      1.3447633E-29
   3.900000      2.4224582E-29
   3.910000      3.5843187E-29
   3.920000      4.8308462E-29
   3.930000      6.1620893E-29
   3.940000      7.5776105E-29
   3.950000      9.0764408E-29
   3.960000      1.0657044E-28
   3.970000      1.2317284E-28
   3.980000      1.4054379E-28
   3.990000      1.5864867E-28
   4.000000      1.7744570E-28
   4.010000      1.9688556E-28
   4.020000      2.1691099E-28
   4.030000      2.3745657E-28
   4.040000      2.5844822E-28
   4.050000      2.7980310E-28
   4.060000      3.0142905E-28
   4.070000      3.2322451E-28
   4.080000      3.4507823E-28
   4.090000      3.6686895E-28
   4.100000      3.8846539E-28
   4.110000      4.0972590E-28
   4.120000      4.3049826E-28
   4.130000      4.5061980E-28
   4.140000      4.6991732E-28
   4.150000      4.8820706E-28
   4.160000      5.0529459E-28
   4.170000      5.2097512E-28
   4.180000      5.3503364E-28
   4.190000      5.4724505E-28
   4.200000      5.5737457E-28
   4.210000      5.6517815E-28
   4.220000      5.7040272E-28
   4.230000      5.7278697E-28
   4.240000      5.7206205E-28
   4.250000      5.6795202E-28
   4.260000      5.6017473E-28
   4.270000      5.4844298E-28
   4.280000      5.3246537E-28
   4.290000      5.1194728E-28
   4.300000      4.8659241E-28
   4.310000      4.5610378E-28
   4.320000      4.2018553E-28
   4.330000      3.7854396E-28
   4.340000      3.3088969E-28
   4.350000      2.7693912E-28
   4.360000      2.1641636E-28
   4.370000      1.4905536E-28
   4.380000      7.4601793E-29
   4.390000     -7.1847569E-30
   4.400000     -9.6528313E-29
   4.410000     -1.9363448E-28
   4.420000     -2.9868776E-28
   4.430000     -4.1184861E-28
   4.440000     -5.3325124E-28
   4.450000     -6.6300018E-28
   4.460000     -8.0116760E-28
   4.470000     -9.4779086E-28
   4.480000     -1.1028690E-27
   4.490000     -1.2663592E-27
   4.500000     -1.4381742E-27
   4.510000     -1.6181787E-27
   4.520000     -1.8061854E-27
   4.530000     -2.0019524E-27
   4.540000     -2.2051792E-27
   4.550000     -2.4155036E-27
   4.560000     -2.6324984E-27
   4.570000     -2.8556667E-27
   4.580000     -3.0844396E-27
   4.590000     -3.3181724E-27
   4.600000     -3.5561418E-27
   4.610000     -3.7975421E-27
   4.620000     -4.0414819E-27
   4.630000     -4.2869810E-27
   4.640000     -4.5329689E-27
   4.650000     -4.7782807E-27
   4.660000     -5.0216555E-27
   4.670000     -5.2617331E-27
   4.680000     -5.4970536E-27
   4.690000     -5.7260547E-27
   4.700000     -5.9470710E-27
   4.710000     -6.1583320E-27
   4.720000     -6.3579631E-27
   4.730000     -6.5439833E-27
   4.740000     -6.7143072E-27
   4.750000     -6.8667453E-27
   4.760000     -6.9990035E-27
   4.770000     -7.1086868E-27
   4.780000     -7.1933021E-27
   4.790000     -7.2502580E-27
   4.800000     -7.2768713E-27
   4.810000     -7.2703701E-27
   4.820000     -7.2278980E-27
   4.830000     -7.1465190E-27
   4.840000     -7.0232271E-27
   4.850000     -6.8549509E-27
   4.860000     -6.6385603E-27
   4.870000     -6.3708796E-27
   4.880000     -6.0486961E-27
   4.890000     -5.6687687E-27
   4.900000     -5.2278402E-27
   4.910000     -4.7226541E-27
   4.920000     -4.1499650E-27
   4.930000     -3.5065534E-27
   4.940000     -2.7892450E-27
   4.950000     -1.9949264E-27
   4.960000     -1.1205626E-27
   4.970000     -1.6321906E-28
   4.980000      8.7991887E-28
   4.990000      2.0115217E-27
   5.000000      3.2340967E-27
   5.010000      4.5499625E-27
   5.020000      5.9612173E-27
   5.030000      7.4697177E-27
   5.040000      9.0770557E-27
   5.050000      1.0784524E-26
   5.060000      1.2593078E-26
   5.070000      1.4503319E-26
   5.080000      1.6515458E-26
   5.090000      1.8629282E-26
   5.100000      2.0844119E-26
   5.110000      2.3158807E-26
   5.120000      2.5571655E-26
   5.130000      2.8080410E-26
   5.140000      3.0682218E-26
   5.150000      3.3373599E-26
   5.160000      3.6150386E-26
   5.170000      3.9007714E-26
   5.180000      4.1939969E-26
   5.190000      4.4940746E-26
   5.200000      4.8002836E-26
   5.210000      5.1118165E-26
   5.220000      5.4277772E-26
   5.230000      5.7471753E-26
   5.240000      6.0689263E-26
   5.250000      6.3918459E-26
   5.260000      6.7146472E-26
   5.270000      7.0359373E-26
   5.280000      7.3542156E-26
   5.290000      7.6678722E-26
   5.300000      7.9751835E-26
   5.310000      8.2743103E-26
   5.320000      8.5632984E-26
   5.330000      8.8400751E-26
   5.340000      9.1024503E-26
   5.350000      9.3481139E-26
   5.360000      9.5746365E-26
   5.370000      9.7794717E-26
   5.380000      9.9599556E-26
   5.390000      1.0113307E-25
   5.400000      1.0236632E-25
   5.410000      1.0326924E-25
   5.420000      1.0381074E-25
   5.430000      1.0395865E-25
   5.440000      1.0367985E-25
   5.450000      1.0294028E-25
   5.460000      1.0170500E-25
   5.470000      9.9938311E-26
   5.480000      9.7603800E-26
   5.490000      9.4664455E-26
   5.500000      9.1082774E-26
   5.510000      8.6820774E-26
   5.520000      8.1840270E-26
   5.530000      7.6102909E-26
   5.540000      6.9570315E-26
   5.550000      6.2204308E-26
   5.560000      5.3966967E-26
   5.570000      4.4820917E-26
   5.580000      3.4729450E-26
   5.590000      2.3656728E-26
   5.600000      1.1568036E-26
   5.610000     -1.5700341E-27
   5.620000     -1.5789322E-26
   5.630000     -3.1119845E-26
   5.640000     -4.7589578E-26
   5.650000     -6.5224166E-26
   5.660000     -8.4046560E-26
   5.670000     -1.0407679E-25
   5.680000     -1.2533171E-25
   5.690000     -1.4782456E-25
   5.700000     -1.7156472E-25
   5.710000     -1.9655735E-25
   5.720000     -2.2280297E-25
   5.730000     -2.5029728E-25
   5.740000     -2.7903065E-25
   5.750000     -3.0898774E-25
   5.760000     -3.4014726E-25
   5.770000     -3.7248146E-25
   5.780000     -4.0595581E-25
   5.790000     -4.4052853E-25
   5.800000     -4.7615028E-25
   5.810000     -5.1276373E-25
   5.820000     -5.5030335E-25
   5.830000     -5.8869465E-25
   5.840000     -6.2785415E-25
   5.850000     -6.6768896E-25
   5.860000     -7.0809624E-25
   5.870000     -7.4896293E-25
   5.880000     -7.9016558E-25
   5.890000     -8.3156983E-25
   5.900000     -8.7303029E-25
   5.910000     -9.1438988E-25
   5.920000     -9.5548016E-25
   5.930000     -9.9612070E-25
   5.940000     -1.0361188E-24
   5.950000     -1.0752694E-24
   5.960000     -1.1133553E-24
   5.970000     -1.1501464E-24
   5.980000     -1.1854003E-24
   5.990000     -1.2188620E-24
   6.000000     -1.2502637E-24
   6.010000     -1.2793252E-24
   6.020000     -1.3057542E-24
   6.030000     -1.3292459E-24
   6.040000     -1.3494839E-24
   6.050000     -1.3661401E-24
   6.060000     -1.3788750E-24
   6.070000     -1.3873386E-24
   6.080000     -1.3911708E-24
   6.090000     -1.3900016E-24
   6.100000     -1.3834525E-24
   6.110000     -1.3711367E-24
   6.120000     -1.3526600E-24
   6.130000     -1.3276223E-24
   6.140000     -1.2956178E-24
   6.150000     -1.2562367E-24
   6.160000     -1.2090670E-24
   6.170000     -1.1536946E-24
   6.180000     -1.0897050E-24
   6.190000     -1.0166859E-24
   6.200000     -9.3422756E-25
   6.210000     -8.4192590E-25
   6.220000     -7.3938296E-25
   6.230000     -6.2620947E-25
   6.240000     -5.0202709E-25
   6.250000     -3.6647039E-25
   6.260000     -2.1918959E-25
   6.270000     -5.9852485E-26
   6.280000      1.1185297E-25
   6.290000      2.9621623E-25
   6.300000      4.9350093E-25
   6.310000      7.0394235E-25
   6.320000      9.2774421E-25
   6.330000      1.1650763E-24
   6.340000      1.4160707E-24
   6.350000      1.6808188E-24
   6.360000      1.9593692E-24
   6.370000      2.2517220E-24
   6.380000      2.5578274E-24
   6.390000      2.8775827E-24
   6.400000      3.2108266E-24
   6.410000      3.5573367E-24
   6.420000      3.9168269E-24
   6.430000      4.2889433E-24
   6.440000      4.6732609E-24
   6.450000      5.0692789E-24
   6.460000      5.4764179E-24
   6.470000      5.8940184E-24
   6.480000      6.3213337E-24
   6.490000      6.7575308E-24
   6.500000      7.2016840E-24
   6.510000      7.6527712E-24
   6.520000      8.1096747E-24
   6.530000      8.5711781E-24
   6.540000      9.0359583E-24
   6.550000      9.5025901E-24
   6.560000      9.9695366E-24
   6.570000      1.0435153E-23
   6.580000      1.0897683E-23
   6.590000      1.1355255E-23
   6.600000      1.1805888E-23
   6.610000      1.2247484E-23
   6.620000      1.2677828E-23
   6.630000      1.3094590E-23
   6.640000      1.3495326E-23
   6.650000      1.3877475E-23
   6.660000      1.4238367E-23
   6.670000      1.4575215E-23
   6.680000      1.4885127E-23
   6.690000      1.5165103E-23
   6.700000      1.5412040E-23
   6.710000      1.5622735E-23
   6.720000      1.5793891E-23
   6.730000      1.5922119E-23
   6.740000      1.6003945E-23
   6.750000      1.6035821E-23
   6.760000      1.6014130E-23
   6.770000      1.5935188E-23
   6.780000      1.5795255E-23
   6.790000      1.5590555E-23
   6.800000      1.5317268E-23
   6.810000      1.4971559E-23
   6.820000      1.4549580E-23
   6.830000      1.4047480E-23
   6.840000      1.3461421E-23
   6.850000      1.2787599E-23
   6.860000      1.2022252E-23
   6.870000      1.1161676E-23
   6.880000      1.0202245E-23
   6.890000      9.1404256E-24
   6.900000      7.9727987E-24
   6.910000      6.6960762E-24
   6.920000      5.3071185E-24
   6.930000      3.8029635E-24
   6.940000      2.1808379E-24
   6.950000      4.3818684E-25
   6.960000     -1.4273037E-24
   6.970000     -3.4176768E-24
   6.980000     -5.5346974E-24
   6.990000     -7.7798275E-24
   7.000000     -1.0154180E-23
   7.010000     -1.2658499E-23
   7.020000     -1.5293143E-23
   7.030000     -1.8058064E-23
   7.040000     -2.0952767E-23
   7.050000     -2.3976275E-23
   7.060000     -2.7127125E-23