  -2.600000      0.0000000E+00
  -2.590000      0.0000000E+00
  -2.580000      0.0000000E+00
  -2.570000      0.0000000E+00
  -2.560000      0.0000000E+00
  -2.550000      0.0000000E+00
  -2.540000      0.0000000E+00
  -2.530000      0.0000000E+00
  -2.520000      0.0000000E+00
  -2.510000      0.0000000E+00
  -2.500000      0.0000000E+00
  -2.490000      0.0000000E+00
  -2.480000      0.0000000E+00
  -2.470000      0.0000000E+00
  -2.460000      0.0000000E+00
  -2.450000      0.0000000E+00
  -2.440000      0.0000000E+00
  -2.430000      0.0000000E+00
  -2.420000      0.0000000E+00
  -2.410000      0.0000000E+00
  -2.400000      0.0000000E+00
  -2.390000      0.0000000E+00
  -2.380000      0.0000000E+00
  -2.370000      0.0000000E+00
  -2.360000      0.0000000E+00
  -2.350000      0.0000000E+00
  -2.340000      0.0000000E+00
  -2.330000      0.0000000E+00
  -2.320000      0.0000000E+00
  -2.310000      0.0000000E+00
  -2.300000      0.0000000E+00
  -2.290000      0.0000000E+00
  -2.280000      0.0000000E+00
  -2.270000      0.0000000E+00
  -2.260000      0.0000000E+00
  -2.250000      0.0000000E+00
  -2.240000      0.0000000E+00
  -2.230000      0.0000000E+00
  -2.220000      0.0000000E+00
  -2.210000      0.0000000E+00
  -2.200000      0.0000000E+00
  -2.190000      0.0000000E+00
  -2.180000      0.0000000E+00
  -2.170000      0.0000000E+00
  -2.160000      0.0000000E+00
  -2.150000      0.0000000E+00
  -2.140000      0.0000000E+00
  -2.130000      0.0000000E+00
  -2.120000      0.0000000E+00
  -2.110000      0.0000000E+00
  -2.100000      0.0000000E+00
  -2.090000      0.0000000E+00
  -2.080000      0.0000000E+00
  -2.070000      0.0000000E+00
  -2.060000      0.0000000E+00
  -2.050000      0.0000000E+00
  -2.040000      0.0000000E+00
  -2.030000      0.0000000E+00
  -2.020000      0.0000000E+00
  -2.010000      0.0000000E+00
  -2.000000      0.0000000E+00
  -1.990000      0.0000000E+00
  -1.980000      0.0000000E+00
  -1.970000      0.0000000E+00
  -1.960000      0.0000000E+00
  -1.950000      0.0000000E+00
  -1.940000      0.0000000E+00
  -1.930000      0.0000000E+00
  -1.920000      0.0000000E+00
  -1.910000      0.0000000E+00
  -1.900000      0.0000000E+00
  -1.890000      0.0000000E+00
  -1.880000      0.0000000E+00
  -1.870000      0.0000000E+00
  -1.860000      0.0000000E+00
  -1.850000      0.0000000E+00
  -1.840000      0.0000000E+00
  -1.830000      0.0000000E+00
  -1.820000      0.0000000E+00
  -1.810000      0.0000000E+00
  -1.800000      0.0000000E+00
  -1.790000      0.0000000E+00
  -1.780000      0.0000000E+00
  -1.770000      0.0000000E+00
  -1.760000      0.0000000E+00
  -1.750000      0.0000000E+00
  -1.740000      0.0000000E+00
  -1.730000      0.0000000E+00
  -1.720000      0.0000000E+00
  -1.710000      0.0000000E+00
  -1.700000      0.0000000E+00
  -1.690000      0.0000000E+00
  -1.680000      0.0000000E+00
  -1.670000      0.0000000E+00
  -1.660000      0.0000000E+00
  -1.650000      0.0000000E+00
  -1.640000      0.0000000E+00
  -1.630000      0.0000000E+00
  -1.620000      0.0000000E+00
  -1.610000      0.0000000E+00
  -1.600000      0.0000000E+00
  -1.590000      0.0000000E+00
  -1.580000      0.0000000E+00
  -1.570000      0.0000000E+00
  -1.560000      0.0000000E+00
  -1.550000      0.0000000E+00
  -1.540000      0.0000000E+00
  -1.530000      0.0000000E+00
  -1.520000      0.0000000E+00
  -1.510000      0.0000000E+00
  -1.500000      0.0000000E+00
  -1.490000      0.0000000E+00
  -1.480000      0.0000000E+00
  -1.470000      0.0000000E+00
  -1.460000      0.0000000E+00
  -1.450000      0.0000000E+00
  -1.440000      0.0000000E+00
  -1.430000      0.0000000E+00
  -1.420000      0.0000000E+00
  -1.410000      0.0000000E+00
  -1.400000      0.0000000E+00
  -1.390000      0.0000000E+00
  -1.380000      0.0000000E+00
  -1.370000      0.0000000E+00
  -1.360000      0.0000000E+00
  -1.350000      0.0000000E+00
  -1.340000      0.0000000E+00
  -1.330000      0.0000000E+00
  -1.320000      0.0000000E+00
  -1.310000      0.0000000E+00
  -1.300000      0.0000000E+00
  -1.290000      0.0000000E+00
  -1.280000      0.0000000E+00
  -1.270000      0.0000000E+00
  -1.260000      0.0000000E+00
  -1.250000      0.0000000E+00
  -1.240000      0.0000000E+00
  -1.230000      0.0000000E+00
  -1.220000      0.0000000E+00
  -1.210000      0.0000000E+00
  -1.200000      0.0000000E+00
  -1.190000      0.0000000E+00
  -1.180000      0.0000000E+00
  -1.170000      0.0000000E+00
  -1.160000      0.0000000E+00
  -1.150000      0.0000000E+00
  -1.140000      0.0000000E+00
  -1.130000      0.0000000E+00
  -1.120000      0.0000000E+00
  -1.110000      0.0000000E+00
  -1.100000      0.0000000E+00
  -1.090000      0.0000000E+00
  -1.080000      0.0000000E+00
  -1.070000      0.0000000E+00
  -1.060000      0.0000000E+00
  -1.050000      0.0000000E+00
  -1.040000      0.0000000E+00
  -1.030000      0.0000000E+00
  -1.020000      0.0000000E+00
  -1.010000      0.0000000E+00
  -1.000000      0.0000000E+00
 -0.9900000      0.0000000E+00
 -0.9800000      0.0000000E+00
 -0.9700000      0.0000000E+00
 -0.9600000      0.0000000E+00
 -0.9500000      0.0000000E+00
 -0.9400000      0.0000000E+00
 -0.9300000      0.0000000E+00
 -0.9200000      0.0000000E+00
 -0.9100000      0.0000000E+00
 -0.9000000      0.0000000E+00
 -0.8900000      0.0000000E+00
 -0.8800000      0.0000000E+00
 -0.8700000      0.0000000E+00
 -0.8600000      0.0000000E+00
 -0.8500000      0.0000000E+00
 -0.8400000      0.0000000E+00
 -0.8300000      0.0000000E+00
 -0.8200000      0.0000000E+00
 -0.8100000      0.0000000E+00
 -0.8000000      0.0000000E+00
 -0.7900000      0.0000000E+00
 -0.7800000      0.0000000E+00
 -0.7700000      0.0000000E+00
 -0.7600000      0.0000000E+00
 -0.7500000      0.0000000E+00
 -0.7400000      0.0000000E+00
 -0.7300000      0.0000000E+00
 -0.7200000      0.0000000E+00
 -0.7100000      0.0000000E+00
 -0.7000000      0.0000000E+00
 -0.6900000      0.0000000E+00
 -0.6800000      0.0000000E+00
 -0.6700000      0.0000000E+00
 -0.6600000      0.0000000E+00
 -0.6500000      0.0000000E+00
 -0.6400000      0.0000000E+00
 -0.6300000      0.0000000E+00
 -0.6200000      0.0000000E+00
 -0.6100000      0.0000000E+00
 -0.6000000      0.0000000E+00
 -0.5900000      0.0000000E+00
 -0.5800000      0.0000000E+00
 -0.5700000      0.0000000E+00
 -0.5600000      0.0000000E+00
 -0.5500000      0.0000000E+00
 -0.5400000      0.0000000E+00
 -0.5300000      0.0000000E+00
 -0.5200000      0.0000000E+00
 -0.5100000      0.0000000E+00
 -0.5000000      0.0000000E+00
 -0.4900000      0.0000000E+00
 -0.4800000      0.0000000E+00
 -0.4700000      0.0000000E+00
 -0.4600000      0.0000000E+00
 -0.4500000      0.0000000E+00
 -0.4400000      0.0000000E+00
 -0.4300000      0.0000000E+00
 -0.4200000      0.0000000E+00
 -0.4100000      0.0000000E+00
 -0.4000000      0.0000000E+00
 -0.3900000      0.0000000E+00
 -0.3800000      0.0000000E+00
 -0.3700000      0.0000000E+00
 -0.3600000      0.0000000E+00
 -0.3500000      0.0000000E+00
 -0.3400000      0.0000000E+00
 -0.3300000      0.0000000E+00
 -0.3200000      0.0000000E+00
 -0.3100000      0.0000000E+00
 -0.3000000      0.0000000E+00
 -0.2900000      0.0000000E+00
 -0.2800000      0.0000000E+00
 -0.2700000      0.0000000E+00
 -0.2600000      0.0000000E+00
 -0.2500000      0.0000000E+00
 -0.2400000      0.0000000E+00
 -0.2300000      0.0000000E+00
 -0.2200000      0.0000000E+00
 -0.2100000      0.0000000E+00
 -0.2000000      0.0000000E+00
 -0.1900000      0.0000000E+00
 -0.1800000      0.0000000E+00
 -0.1700000      0.0000000E+00
 -0.1600000      0.0000000E+00
 -0.1500000      0.0000000E+00
 -0.1400000      0.0000000E+00
 -0.1300000      0.0000000E+00
 -0.1200000      0.0000000E+00
 -0.1100000      0.0000000E+00
 -0.1000000      0.0000000E+00
 -9.0000004E-02  0.0000000E+00
 -7.9999998E-02  0.0000000E+00
 -7.0000000E-02  0.0000000E+00
 -5.9999999E-02  0.0000000E+00
 -5.0000001E-02  0.0000000E+00
 -3.9999999E-02  0.0000000E+00
 -2.9999999E-02  0.0000000E+00
 -2.0000000E-02  0.0000000E+00
 -9.9999998E-03  0.0000000E+00
 -3.4694470E-17  0.0000000E+00
  9.9999998E-03  0.0000000E+00
  2.0000000E-02  0.0000000E+00
  2.9999999E-02  0.0000000E+00
  3.9999999E-02  0.0000000E+00
  5.0000001E-02  0.0000000E+00
  5.9999999E-02  0.0000000E+00
  7.0000000E-02  0.0000000E+00
  7.9999998E-02  0.0000000E+00
  9.0000004E-02  0.0000000E+00
  0.1000000      0.0000000E+00
  0.1100000      0.0000000E+00
  0.1200000      0.0000000E+00
  0.1300000      0.0000000E+00
  0.1400000      0.0000000E+00
  0.1500000      0.0000000E+00
  0.1600000      0.0000000E+00
  0.1700000      0.0000000E+00
  0.1800000      0.0000000E+00
  0.1900000      0.0000000E+00
  0.2000000      0.0000000E+00
  0.2100000      0.0000000E+00
  0.2200000      0.0000000E+00
  0.2300000      0.0000000E+00
  0.2400000      0.0000000E+00
  0.2500000      0.0000000E+00
  0.2600000      0.0000000E+00
  0.2700000      0.0000000E+00
  0.2800000      0.0000000E+00
  0.2900000      0.0000000E+00
  0.3000000      0.0000000E+00
  0.3100000      0.0000000E+00
  0.3200000      0.0000000E+00
  0.3300000      0.0000000E+00
  0.3400000      0.0000000E+00
  0.3500000      0.0000000E+00
  0.3600000      0.0000000E+00
  0.3700000      0.0000000E+00
  0.3800000      0.0000000E+00
  0.3900000      0.0000000E+00
  0.4000000      0.0000000E+00
  0.4100000      0.0000000E+00
  0.4200000      0.0000000E+00
  0.4300000      0.0000000E+00
  0.4400000      0.0000000E+00
  0.4500000      0.0000000E+00
  0.4600000      0.0000000E+00
  0.4700000      0.0000000E+00
  0.4800000      0.0000000E+00
  0.4900000      0.0000000E+00
  0.5000000      0.0000000E+00
  0.5100000      0.0000000E+00
  0.5200000      0.0000000E+00
  0.5300000      0.0000000E+00
  0.5400000      0.0000000E+00
  0.5500000      0.0000000E+00
  0.5600000      0.0000000E+00
  0.5700000      0.0000000E+00
  0.5800000      0.0000000E+00
  0.5900000      0.0000000E+00
  0.6000000      0.0000000E+00
  0.6100000      0.0000000E+00
  0.6200000      0.0000000E+00
  0.6300000      0.0000000E+00
  0.6400000      0.0000000E+00
  0.6500000      0.0000000E+00
  0.6600000      0.0000000E+00
  0.6700000      0.0000000E+00
  0.6800000      0.0000000E+00
  0.6900000      0.0000000E+00
  0.7000000      0.0000000E+00
  0.7100000      0.0000000E+00
  0.7200000      0.0000000E+00
  0.7300000      0.0000000E+00
  0.7400000      0.0000000E+00
  0.7500000      0.0000000E+00
  0.7600000      0.0000000E+00
  0.7700000      0.0000000E+00
  0.7800000      0.0000000E+00
  0.7900000      0.0000000E+00
  0.8000000      0.0000000E+00
  0.8100000      0.0000000E+00
  0.8200000      0.0000000E+00
  0.8300000      0.0000000E+00
  0.8400000      0.0000000E+00
  0.8500000      0.0000000E+00
  0.8600000      0.0000000E+00
  0.8700000      0.0000000E+00
  0.8800000      0.0000000E+00
  0.8900000      0.0000000E+00
  0.9000000      0.0000000E+00
  0.9100000      0.0000000E+00
  0.9200000      0.0000000E+00
  0.9300000      0.0000000E+00
  0.9400000      0.0000000E+00
  0.9500000      0.0000000E+00
  0.9600000      0.0000000E+00
  0.9700000      0.0000000E+00
  0.9800000      0.0000000E+00
  0.9900000      0.0000000E+00
   1.000000      0.0000000E+00
   1.010000      0.0000000E+00
   1.020000      0.0000000E+00
   1.030000      0.0000000E+00
   1.040000      0.0000000E+00
   1.050000      0.0000000E+00
   1.060000      0.0000000E+00
   1.070000      0.0000000E+00
   1.080000      0.0000000E+00
   1.090000      0.0000000E+00
   1.100000      0.0000000E+00
   1.110000      0.0000000E+00
   1.120000      0.0000000E+00
   1.130000      0.0000000E+00
   1.140000      0.0000000E+00
   1.150000      0.0000000E+00
   1.160000      0.0000000E+00
   1.170000      0.0000000E+00
   1.180000      0.0000000E+00
   1.190000      0.0000000E+00
   1.200000      0.0000000E+00
   1.210000      0.0000000E+00
   1.220000      0.0000000E+00
   1.230000      0.0000000E+00
   1.240000      0.0000000E+00
   1.250000      0.0000000E+00
   1.260000      0.0000000E+00
   1.270000      0.0000000E+00
   1.280000      0.0000000E+00
   1.290000      0.0000000E+00
   1.300000      0.0000000E+00
   1.310000      0.0000000E+00
   1.320000      0.0000000E+00
   1.330000      0.0000000E+00
   1.340000      0.0000000E+00
   1.350000      0.0000000E+00
   1.360000      0.0000000E+00
   1.370000      0.0000000E+00
   1.380000      0.0000000E+00
   1.390000      0.0000000E+00
   1.400000      0.0000000E+00
   1.410000      0.0000000E+00
   1.420000      0.0000000E+00
   1.430000      0.0000000E+00
   1.440000      0.0000000E+00
   1.450000      0.0000000E+00
   1.460000      0.0000000E+00
   1.470000      0.0000000E+00
   1.480000      0.0000000E+00
   1.490000      0.0000000E+00
   1.500000      0.0000000E+00
   1.510000      0.0000000E+00
   1.520000      0.0000000E+00
   1.530000      0.0000000E+00
   1.540000      0.0000000E+00
   1.550000      0.0000000E+00
   1.560000      0.0000000E+00
   1.570000      0.0000000E+00
   1.580000      0.0000000E+00
   1.590000      0.0000000E+00
   1.600000      0.0000000E+00
   1.610000      0.0000000E+00
   1.620000      0.0000000E+00
   1.630000      0.0000000E+00
   1.640000      0.0000000E+00
   1.650000      0.0000000E+00
   1.660000      0.0000000E+00
   1.670000      0.0000000E+00
   1.680000      0.0000000E+00
   1.690000      0.0000000E+00
   1.700000      0.0000000E+00
   1.710000      0.0000000E+00
   1.720000      0.0000000E+00
   1.730000      0.0000000E+00
   1.740000      0.0000000E+00
   1.750000      0.0000000E+00
   1.760000      0.0000000E+00
   1.770000      0.0000000E+00
   1.780000      0.0000000E+00
   1.790000      0.0000000E+00
   1.800000      0.0000000E+00
   1.810000      0.0000000E+00
   1.820000      0.0000000E+00
   1.830000      0.0000000E+00
   1.840000      0.0000000E+00
   1.850000      0.0000000E+00
   1.860000      0.0000000E+00
   1.870000      0.0000000E+00
   1.880000      0.0000000E+00
   1.890000      0.0000000E+00
   1.900000      0.0000000E+00
   1.910000      0.0000000E+00
   1.920000      0.0000000E+00
   1.930000      0.0000000E+00
   1.940000      0.0000000E+00
   1.950000      0.0000000E+00
   1.960000      0.0000000E+00
   1.970000      0.0000000E+00
   1.980000      0.0000000E+00
   1.990000      0.0000000E+00
   2.000000      0.0000000E+00
   2.010000      0.0000000E+00
   2.020000      0.0000000E+00
   2.030000      0.0000000E+00
   2.040000      0.0000000E+00
   2.050000      0.0000000E+00
   2.060000      0.0000000E+00
   2.070000      0.0000000E+00
   2.080000      0.0000000E+00
   2.090000      0.0000000E+00
   2.100000      0.0000000E+00
   2.110000      0.0000000E+00
   2.120000      0.0000000E+00
   2.130000      0.0000000E+00
   2.140000      0.0000000E+00
   2.150000      0.0000000E+00
   2.160000      0.0000000E+00
   2.170000      0.0000000E+00
   2.180000      0.0000000E+00
   2.190000      0.0000000E+00
   2.200000      0.0000000E+00
   2.210000      0.0000000E+00
   2.220000      0.0000000E+00
   2.230000      0.0000000E+00
   2.240000      0.0000000E+00
   2.250000      0.0000000E+00
   2.260000      0.0000000E+00
   2.270000      0.0000000E+00
   2.280000      0.0000000E+00
   2.290000      0.0000000E+00
   2.300000      0.0000000E+00
   2.310000      0.0000000E+00
   2.320000      0.0000000E+00
   2.330000      0.0000000E+00
   2.340000      0.0000000E+00
   2.350000      0.0000000E+00
   2.360000      0.0000000E+00
   2.370000      0.0000000E+00
   2.380000      0.0000000E+00
   2.390000      0.0000000E+00
   2.400000      0.0000000E+00
   2.410000      0.0000000E+00
   2.420000      0.0000000E+00
   2.430000      0.0000000E+00
   2.440000      0.0000000E+00
   2.450000      0.0000000E+00
   2.460000      0.0000000E+00
   2.470000      0.0000000E+00
   2.480000      0.0000000E+00
   2.490000      0.0000000E+00
   2.500000      0.0000000E+00
   2.510000      0.0000000E+00
   2.520000      0.0000000E+00
   2.530000      0.0000000E+00
   2.540000      0.0000000E+00
   2.550000      0.0000000E+00
   2.560000      0.0000000E+00
   2.570000      0.0000000E+00
   2.580000      0.0000000E+00
   2.590000      0.0000000E+00
   2.600000      0.0000000E+00
   2.610000      0.0000000E+00
   2.620000      0.0000000E+00
   2.630000      0.0000000E+00
   2.640000      0.0000000E+00
   2.650000      0.0000000E+00
   2.660000      0.0000000E+00
   2.670000      0.0000000E+00
   2.680000      0.0000000E+00
   2.690000      0.0000000E+00
   2.700000      0.0000000E+00
   2.710000      0.0000000E+00
   2.720000      0.0000000E+00
   2.730000      0.0000000E+00
   2.740000      0.0000000E+00
   2.750000      0.0000000E+00
   2.760000      0.0000000E+00
   2.770000      0.0000000E+00
   2.780000      0.0000000E+00
   2.790000      0.0000000E+00
   2.800000      0.0000000E+00
   2.810000      0.0000000E+00
   2.820000      0.0000000E+00
   2.830000      0.0000000E+00
   2.840000      0.0000000E+00
   2.850000      0.0000000E+00
   2.860000      0.0000000E+00
   2.870000      0.0000000E+00
   2.880000      0.0000000E+00
   2.890000      0.0000000E+00
   2.900000      0.0000000E+00
   2.910000      0.0000000E+00
   2.920000      0.0000000E+00
   2.930000      0.0000000E+00
   2.940000      0.0000000E+00
   2.950000      0.0000000E+00
   2.960000      0.0000000E+00
   2.970000      0.0000000E+00
   2.980000      0.0000000E+00
   2.990000      0.0000000E+00
   3.000000      0.0000000E+00
   3.010000      0.0000000E+00
   3.020000      0.0000000E+00
   3.030000      0.0000000E+00
   3.040000      0.0000000E+00
   3.050000      0.0000000E+00
   3.060000      0.0000000E+00
   3.070000      0.0000000E+00
   3.080000      0.0000000E+00
   3.090000      0.0000000E+00
   3.100000      0.0000000E+00
   3.110000      0.0000000E+00
   3.120000      0.0000000E+00
   3.130000      0.0000000E+00
   3.140000      0.0000000E+00
   3.150000      0.0000000E+00
   3.160000      0.0000000E+00
   3.170000      0.0000000E+00
   3.180000      0.0000000E+00
   3.190000      0.0000000E+00
   3.200000      0.0000000E+00
   3.210000      0.0000000E+00
   3.220000      0.0000000E+00
   3.230000      0.0000000E+00
   3.240000      0.0000000E+00
   3.250000      0.0000000E+00
   3.260000      0.0000000E+00
   3.270000      0.0000000E+00
   3.280000      0.0000000E+00
   3.290000      0.0000000E+00
   3.300000      0.0000000E+00
   3.310000      0.0000000E+00
   3.320000      0.0000000E+00
   3.330000      0.0000000E+00
   3.340000      0.0000000E+00
   3.350000      0.0000000E+00
   3.360000      0.0000000E+00
   3.370000      0.0000000E+00
   3.380000      0.0000000E+00
   3.390000      0.0000000E+00
   3.400000      0.0000000E+00
   3.410000      0.0000000E+00
   3.420000      0.0000000E+00
   3.430000      0.0000000E+00
   3.440000      0.0000000E+00
   3.450000      0.0000000E+00
   3.460000      0.0000000E+00
   3.470000      0.0000000E+00
   3.480000      0.0000000E+00
   3.490000      0.0000000E+00
   3.500000      0.0000000E+00
   3.510000      0.0000000E+00
   3.520000      0.0000000E+00
   3.530000      0.0000000E+00
   3.540000      0.0000000E+00
   3.550000      0.0000000E+00
   3.560000      0.0000000E+00
   3.570000      0.0000000E+00
   3.580000      0.0000000E+00
   3.590000      0.0000000E+00
   3.600000      0.0000000E+00
   3.610000      0.0000000E+00
   3.620000      0.0000000E+00
   3.630000      0.0000000E+00
   3.640000      0.0000000E+00
   3.650000      0.0000000E+00
   3.660000      0.0000000E+00
   3.670000      0.0000000E+00
   3.680000      0.0000000E+00
   3.690000      0.0000000E+00
   3.700000      0.0000000E+00
   3.710000      0.0000000E+00
   3.720000      0.0000000E+00
   3.730000      0.0000000E+00
   3.740000      0.0000000E+00
   3.750000      0.0000000E+00
   3.760000      0.0000000E+00
   3.770000      0.0000000E+00
   3.780000      0.0000000E+00
   3.790000      0.0000000E+00
   3.800000      0.0000000E+00
   3.810000      0.0000000E+00
   3.820000      0.0000000E+00
   3.830000      0.0000000E+00
   3.840000      0.0000000E+00
   3.850000      0.0000000E+00
   3.860000      0.0000000E+00
   3.870000      0.0000000E+00
   3.880000      0.0000000E+00
   3.890000      0.0000000E+00
   3.900000      0.0000000E+00
   3.910000      0.0000000E+00
   3.920000      0.0000000E+00
   3.930000      0.0000000E+00
   3.940000      0.0000000E+00
   3.950000      0.0000000E+00
   3.960000      0.0000000E+00
   3.970000     -1.3669650E-38
   3.980000     -1.7755483E-38
   3.990000     -2.2166102E-38
   4.000000     -2.6857015E-38
   4.010000     -3.1721538E-38
   4.020000     -3.6626083E-38
   4.030000     -4.1458424E-38
   4.040000     -4.6108437E-38
   4.050000     -5.0468117E-38
   4.060000     -5.4435345E-38
   4.070000     -5.7917168E-38
   4.080000     -6.0837317E-38
   4.090000     -6.2263805E-38
   4.100000     -6.2490658E-38
   4.110000     -6.2710545E-38
   4.120000     -6.2920616E-38
   4.130000     -6.3118390E-38
   4.140000     -6.3301708E-38
   4.150000     -6.3463311E-38
   4.160000     -6.3600268E-38
   4.170000     -6.3715814E-38
   4.180000     -6.3795032E-38
   4.190000     -6.3847642E-38
   4.200000     -6.2707428E-38
   4.210000     -6.0203039E-38
   4.220000     -5.7424331E-38
   4.230000     -5.4444733E-38
   4.240000     -5.1256572E-38
   4.250000     -4.7841501E-38
   4.260000     -4.4155991E-38
   4.270000     -4.0142997E-38
   4.280000     -3.5728610E-38
   4.290000     -3.0838513E-38
   4.300000     -2.5431210E-38
   4.310000     -1.9466485E-38
   4.320000     -1.2935261E-38
   4.330000      0.0000000E+00
   4.340000      0.0000000E+00
   4.350000      0.0000000E+00
   4.360000      1.9651095E-38
   4.370000      3.1547090E-38
   4.380000      4.4389215E-38
   4.390000      5.8173942E-38
   4.400000      7.2861551E-38
   4.410000      8.8372888E-38
   4.420000      1.0462527E-37
   4.430000      1.2151691E-37
   4.440000      1.3895070E-37
   4.450000      1.5683710E-37
   4.460000      1.7510104E-37
   4.470000      1.9367685E-37
   4.480000      2.1256769E-37
   4.490000      2.3182418E-37
   4.500000      2.5148043E-37
   4.510000      2.7155570E-37
   4.520000      2.9202618E-37
   4.530000      3.1174117E-37
   4.540000      3.3070191E-37
   4.550000      3.5004469E-37
   4.560000      3.6967101E-37
   4.570000      3.8941869E-37
   4.580000      4.0904265E-37
   4.590000      4.2843631E-37
   4.600000      4.4756029E-37
   4.610000      4.6616940E-37
   4.620000      4.8392190E-37
   4.630000      5.0052982E-37
   4.640000      5.1438658E-37
   4.650000      5.2491331E-37
   4.660000      5.3295407E-37
   4.670000      5.3546000E-37
   4.680000      5.3160824E-37
   4.690000      5.2545105E-37
   4.700000      5.1480975E-37
   4.710000      4.9952057E-37
   4.720000      4.8523432E-37
   4.730000      4.7040823E-37
   4.740000      4.5177593E-37
   4.750000      4.3260263E-37
   4.760000      4.1297723E-37
   4.770000      3.8985971E-37
   4.780000      3.5888011E-37
   4.790000      3.1940386E-37
   4.800000      3.8132425E-37
   4.810000      5.5406817E-37
   4.820000      7.4133442E-37
   4.830000      9.4542670E-37
   4.840000      1.1667521E-36
   4.850000      1.4043592E-36
   4.860000      1.5919524E-36
   4.870000      1.7180760E-36
   4.880000      1.8322466E-36
   4.890000      1.9405267E-36
   4.900000      1.2815525E-36
   4.910000     -2.9255455E-37
   4.920000     -2.0344658E-36
   4.930000     -3.6090572E-36
   4.940000     -4.9091400E-36
   4.950000     -5.9893701E-36
   4.960000     -6.2741172E-36
   4.970000     -5.8907054E-36
   4.980000     -5.4191671E-36
   4.990000     -4.8454966E-36
   5.000000     -4.2234779E-36
   5.010000     -3.5460487E-36
   5.020000     -2.7825806E-36
   5.030000     -1.9620517E-36
   5.040000     -2.0469750E-36
   5.050000     -3.1753357E-36
   5.060000     -4.5048859E-36
   5.070000     -5.8889440E-36
   5.080000     -7.1069503E-36
   5.090000     -8.0749668E-36
   5.100000     -8.2238586E-36
   5.110000     -7.6647268E-36
   5.120000     -7.1315350E-36
   5.130000     -6.4266875E-36
   5.140000     -5.5520125E-36
   5.150000     -4.6891061E-36
   5.160000     -4.8164425E-36
   5.170000     -5.8858600E-36
   5.180000     -7.8800323E-36
   5.190000     -1.1225131E-35
   5.200000     -1.4809177E-35
   5.210000     -1.6691872E-35
   5.220000     -1.7011594E-35
   5.230000     -1.7428464E-35
   5.240000     -1.8043975E-35
   5.250000     -1.8822461E-35
   5.260000     -1.9573931E-35
   5.270000     -2.0346751E-35
   5.280000     -1.9641367E-35
   5.290000     -1.6864127E-35
   5.300000     -1.3413718E-35
   5.310000     -1.0121636E-35
   5.320000     -7.2899139E-36
   5.330000     -4.7652639E-36
   5.340000     -3.2438912E-36
   5.350000     -2.6153664E-36
   5.360000     -2.1394767E-36
   5.370000     -1.7730584E-36
   5.380000     -7.5637544E-37
   5.390000      1.1760348E-36
   5.400000      3.6054989E-36
   5.410000      6.5482310E-36
   5.420000      9.9065934E-36
   5.430000      1.3628566E-35
   5.440000      1.7520841E-35
   5.450000      2.1411951E-35
   5.460000      2.5201284E-35
   5.470000      2.8750003E-35
   5.480000      3.2011458E-35
   5.490000      3.4841805E-35
   5.500000      3.7289356E-35
   5.510000      3.9514745E-35
   5.520000      4.1629857E-35
   5.530000      4.3811616E-35
   5.540000      4.6349619E-35
   5.550000      4.9532548E-35
   5.560000      5.3130393E-35
   5.570000      5.6835060E-35
   5.580000      6.0606750E-35
   5.590000      6.4421286E-35
   5.600000      6.8223138E-35
   5.610000      7.2379968E-35
   5.620000      7.7059486E-35
   5.630000      8.1870914E-35
   5.640000      8.6621639E-35
   5.650000      9.1259877E-35
   5.660000      9.5666959E-35
   5.670000      9.9757077E-35
   5.680000      1.0345518E-34
   5.690000      1.0640896E-34
   5.700000      1.0870236E-34
   5.710000      1.0954814E-34
   5.720000      1.0946834E-34
   5.730000      1.0997182E-34
   5.740000      1.1099780E-34
   5.750000      1.1238478E-34
   5.760000      1.1336928E-34
   5.770000      1.1375430E-34
   5.780000      1.1340447E-34
   5.790000      1.1477419E-34
   5.800000      1.1829560E-34
   5.810000      1.2564410E-34
   5.820000      1.3780349E-34
   5.830000      1.5084222E-34
   5.840000      1.6507286E-34
   5.850000      1.7334734E-34
   5.860000      1.6896811E-34
   5.870000      1.5670380E-34
   5.880000      1.4085018E-34
   5.890000      1.1358981E-34
   5.900000      7.6313036E-35
   5.910000      3.9976703E-35
   5.920000      6.5535625E-36
   5.930000     -2.0427196E-35
   5.940000     -3.3632914E-35
   5.950000     -3.6546168E-35
   5.960000     -3.7692327E-35
   5.970000     -3.5525724E-35
   5.980000     -3.0548114E-35
   5.990000     -2.0526442E-35
   6.000000     -1.0039416E-35
   6.010000     -1.3520299E-35
   6.020000     -3.1797234E-35
   6.030000     -6.0491737E-35
   6.040000     -1.0014988E-34
   6.050000     -1.4821264E-34
   6.060000     -2.0015565E-34
   6.070000     -2.5301157E-34
   6.080000     -3.0335007E-34
   6.090000     -3.4765119E-34
   6.100000     -3.8439395E-34
   6.110000     -4.1047413E-34
   6.120000     -4.2614448E-34
   6.130000     -4.3633005E-34
   6.140000     -4.4632198E-34
   6.150000     -4.6159927E-34
   6.160000     -4.8427787E-34
   6.170000     -5.2014110E-34
   6.180000     -5.7036239E-34
   6.190000     -6.3210804E-34
   6.200000     -7.0463374E-34
   6.210000     -7.8123281E-34
   6.220000     -8.4304012E-34
   6.230000     -8.8965297E-34
   6.240000     -9.3637648E-34
   6.250000     -9.8178418E-34
   6.260000     -1.0134480E-33
   6.270000     -1.0357474E-33
   6.280000     -1.0618563E-33
   6.290000     -1.0757837E-33
   6.300000     -1.0726976E-33
   6.310000     -1.0639330E-33
   6.320000     -1.0579825E-33
   6.330000     -1.0554770E-33
   6.340000     -1.0560461E-33
   6.350000     -1.0657195E-33
   6.360000     -1.0829681E-33
   6.370000     -1.1049854E-33
   6.380000     -1.1195305E-33
   6.390000     -1.1223566E-33
   6.400000     -1.1195368E-33
   6.410000     -1.1093802E-33
   6.420000     -1.0917679E-33
   6.430000     -1.0656695E-33
   6.440000     -1.0271032E-33
   6.450000     -9.7658519E-34
   6.460000     -9.1589441E-34
   6.470000     -8.4796682E-34
   6.480000     -7.7636755E-34
   6.490000     -7.0094044E-34
   6.500000     -6.2298120E-34
   6.510000     -5.4385918E-34
   6.520000     -4.6364987E-34
   6.530000     -3.8200589E-34
   6.540000     -2.9747932E-34
   6.550000     -2.0786684E-34
   6.560000     -1.1035591E-34
   6.570000     -4.7815145E-36
   6.580000      1.1568882E-34
   6.590000      2.5645303E-34
   6.600000      4.1251931E-34
   6.610000      5.8257904E-34
   6.620000      7.6583218E-34
   6.630000      9.6110163E-34
   6.640000      1.1607456E-33
   6.650000      1.3653771E-33
   6.660000      1.5774611E-33
   6.670000      1.7911937E-33
   6.680000      2.0061198E-33
   6.690000      2.2209886E-33
   6.700000      2.4360585E-33
   6.710000      2.6563393E-33
   6.720000      2.8852323E-33
   6.730000      3.1232007E-33
   6.740000      3.3722652E-33
   6.750000      3.6333924E-33
   6.760000      3.9067606E-33
   6.770000      4.1915767E-33
   6.780000      4.4881520E-33
   6.790000      4.7936788E-33
   6.800000      5.1034884E-33
   6.810000      5.4075594E-33
   6.820000      5.7169418E-33
   6.830000      6.0332997E-33
   6.840000      6.3419309E-33
   6.850000      6.6437016E-33
   6.860000      6.9365591E-33
   6.870000      7.2219251E-33
   6.880000      7.4995548E-33
   6.890000      7.7704798E-33
   6.900000      8.0348022E-33
   6.910000      8.2914501E-33
   6.920000      8.5443760E-33
   6.930000      8.7917485E-33
   6.940000      9.0294864E-33
   6.950000      9.2585315E-33
   6.960000      9.4770786E-33
   6.970000      9.6803561E-33
   6.980000      9.8644613E-33
   6.990000      1.0024210E-32
   7.000000      1.0154282E-32
   7.010000      1.0251945E-32
   7.020000      1.0314376E-32
   7.030000      1.0339401E-32
   7.040000      1.0325836E-32
   7.050000      1.0273593E-32
   7.060000      1.0182774E-32