  -2.600000      0.0000000E+00
  -2.590000      0.0000000E+00
  -2.580000      0.0000000E+00
  -2.570000      0.0000000E+00
  -2.560000      0.0000000E+00
  -2.550000      0.0000000E+00
  -2.540000      0.0000000E+00
  -2.530000      0.0000000E+00
  -2.520000      0.0000000E+00
  -2.510000      0.0000000E+00
  -2.500000      0.0000000E+00
  -2.490000      0.0000000E+00
  -2.480000      0.0000000E+00
  -2.470000      0.0000000E+00
  -2.460000      0.0000000E+00
  -2.450000      0.0000000E+00
  -2.440000      0.0000000E+00
  -2.430000      0.0000000E+00
  -2.420000      0.0000000E+00
  -2.410000      0.0000000E+00
  -2.400000      0.0000000E+00
  -2.390000      0.0000000E+00
  -2.380000      0.0000000E+00
  -2.370000      0.0000000E+00
  -2.360000      0.0000000E+00
  -2.350000      0.0000000E+00
  -2.340000      0.0000000E+00
  -2.330000      0.0000000E+00
  -2.320000      0.0000000E+00
  -2.310000      0.0000000E+00
  -2.300000      0.0000000E+00
  -2.290000      0.0000000E+00
  -2.280000      0.0000000E+00
  -2.270000      0.0000000E+00
  -2.260000      0.0000000E+00
  -2.250000      0.0000000E+00
  -2.240000      0.0000000E+00
  -2.230000      0.0000000E+00
  -2.220000      0.0000000E+00
  -2.210000      0.0000000E+00
  -2.200000      0.0000000E+00
  -2.190000      0.0000000E+00
  -2.180000      0.0000000E+00
  -2.170000      0.0000000E+00
  -2.160000      0.0000000E+00
  -2.150000      0.0000000E+00
  -2.140000      0.0000000E+00
  -2.130000      0.0000000E+00
  -2.120000      0.0000000E+00
  -2.110000      0.0000000E+00
  -2.100000      0.0000000E+00
  -2.090000      0.0000000E+00
  -2.080000      0.0000000E+00
  -2.070000      0.0000000E+00
  -2.060000      0.0000000E+00
  -2.050000      0.0000000E+00
  -2.040000      0.0000000E+00
  -2.030000      0.0000000E+00
  -2.020000      0.0000000E+00
  -2.010000      0.0000000E+00
  -2.000000      0.0000000E+00
  -1.990000      0.0000000E+00
  -1.980000      0.0000000E+00
  -1.970000      0.0000000E+00
  -1.960000      0.0000000E+00
  -1.950000      0.0000000E+00
  -1.940000      0.0000000E+00
  -1.930000      0.0000000E+00
  -1.920000      0.0000000E+00
  -1.910000      0.0000000E+00
  -1.900000      0.0000000E+00
  -1.890000      0.0000000E+00
  -1.880000      0.0000000E+00
  -1.870000      0.0000000E+00
  -1.860000      0.0000000E+00
  -1.850000      0.0000000E+00
  -1.840000      0.0000000E+00
  -1.830000      0.0000000E+00
  -1.820000      0.0000000E+00
  -1.810000      0.0000000E+00
  -1.800000      0.0000000E+00
  -1.790000      0.0000000E+00
  -1.780000      0.0000000E+00
  -1.770000      0.0000000E+00
  -1.760000      0.0000000E+00
  -1.750000      0.0000000E+00
  -1.740000      0.0000000E+00
  -1.730000      0.0000000E+00
  -1.720000      0.0000000E+00
  -1.710000      0.0000000E+00
  -1.700000      0.0000000E+00
  -1.690000      0.0000000E+00
  -1.680000      0.0000000E+00
  -1.670000      0.0000000E+00
  -1.660000      0.0000000E+00
  -1.650000      0.0000000E+00
  -1.640000      0.0000000E+00
  -1.630000      0.0000000E+00
  -1.620000      0.0000000E+00
  -1.610000      0.0000000E+00
  -1.600000      0.0000000E+00
  -1.590000      0.0000000E+00
  -1.580000      0.0000000E+00
  -1.570000      0.0000000E+00
  -1.560000      0.0000000E+00
  -1.550000      0.0000000E+00
  -1.540000      0.0000000E+00
  -1.530000      0.0000000E+00
  -1.520000      0.0000000E+00
  -1.510000      0.0000000E+00
  -1.500000      0.0000000E+00
  -1.490000      0.0000000E+00
  -1.480000      0.0000000E+00
  -1.470000      0.0000000E+00
  -1.460000      0.0000000E+00
  -1.450000      0.0000000E+00
  -1.440000      0.0000000E+00
  -1.430000      0.0000000E+00
  -1.420000      0.0000000E+00
  -1.410000      0.0000000E+00
  -1.400000      0.0000000E+00
  -1.390000      0.0000000E+00
  -1.380000      0.0000000E+00
  -1.370000      0.0000000E+00
  -1.360000      0.0000000E+00
  -1.350000      0.0000000E+00
  -1.340000      0.0000000E+00
  -1.330000      0.0000000E+00
  -1.320000      0.0000000E+00
  -1.310000      0.0000000E+00
  -1.300000      0.0000000E+00
  -1.290000      0.0000000E+00
  -1.280000      0.0000000E+00
  -1.270000      0.0000000E+00
  -1.260000      0.0000000E+00
  -1.250000      0.0000000E+00
  -1.240000      0.0000000E+00
  -1.230000      0.0000000E+00
  -1.220000      0.0000000E+00
  -1.210000      0.0000000E+00
  -1.200000      0.0000000E+00
  -1.190000      0.0000000E+00
  -1.180000      0.0000000E+00
  -1.170000      0.0000000E+00
  -1.160000      0.0000000E+00
  -1.150000      0.0000000E+00
  -1.140000      0.0000000E+00
  -1.130000      0.0000000E+00
  -1.120000      0.0000000E+00
  -1.110000      0.0000000E+00
  -1.100000      0.0000000E+00
  -1.090000      0.0000000E+00
  -1.080000      0.0000000E+00
  -1.070000      0.0000000E+00
  -1.060000      0.0000000E+00
  -1.050000      0.0000000E+00
  -1.040000      0.0000000E+00
  -1.030000      0.0000000E+00
  -1.020000      0.0000000E+00
  -1.010000      0.0000000E+00
  -1.000000      0.0000000E+00
 -0.9900000      0.0000000E+00
 -0.9800000      0.0000000E+00
 -0.9700000      0.0000000E+00
 -0.9600000      0.0000000E+00
 -0.9500000      0.0000000E+00
 -0.9400000      0.0000000E+00
 -0.9300000      0.0000000E+00
 -0.9200000      0.0000000E+00
 -0.9100000      0.0000000E+00
 -0.9000000      0.0000000E+00
 -0.8900000      0.0000000E+00
 -0.8800000      0.0000000E+00
 -0.8700000      0.0000000E+00
 -0.8600000      0.0000000E+00
 -0.8500000      0.0000000E+00
 -0.8400000      0.0000000E+00
 -0.8300000      0.0000000E+00
 -0.8200000      0.0000000E+00
 -0.8100000      0.0000000E+00
 -0.8000000      0.0000000E+00
 -0.7900000      0.0000000E+00
 -0.7800000      0.0000000E+00
 -0.7700000      0.0000000E+00
 -0.7600000      0.0000000E+00
 -0.7500000      0.0000000E+00
 -0.7400000      0.0000000E+00
 -0.7300000      0.0000000E+00
 -0.7200000      0.0000000E+00
 -0.7100000      0.0000000E+00
 -0.7000000      0.0000000E+00
 -0.6900000      0.0000000E+00
 -0.6800000      0.0000000E+00
 -0.6700000      0.0000000E+00
 -0.6600000      0.0000000E+00
 -0.6500000      0.0000000E+00
 -0.6400000      0.0000000E+00
 -0.6300000      0.0000000E+00
 -0.6200000      0.0000000E+00
 -0.6100000      0.0000000E+00
 -0.6000000      0.0000000E+00
 -0.5900000      0.0000000E+00
 -0.5800000      0.0000000E+00
 -0.5700000      0.0000000E+00
 -0.5600000      0.0000000E+00
 -0.5500000      0.0000000E+00
 -0.5400000      0.0000000E+00
 -0.5300000      0.0000000E+00
 -0.5200000      0.0000000E+00
 -0.5100000      0.0000000E+00
 -0.5000000      0.0000000E+00
 -0.4900000      0.0000000E+00
 -0.4800000      0.0000000E+00
 -0.4700000      0.0000000E+00
 -0.4600000      0.0000000E+00
 -0.4500000      0.0000000E+00
 -0.4400000      0.0000000E+00
 -0.4300000      0.0000000E+00
 -0.4200000      0.0000000E+00
 -0.4100000      0.0000000E+00
 -0.4000000      0.0000000E+00
 -0.3900000      0.0000000E+00
 -0.3800000      0.0000000E+00
 -0.3700000      0.0000000E+00
 -0.3600000      0.0000000E+00
 -0.3500000      0.0000000E+00
 -0.3400000      0.0000000E+00
 -0.3300000      0.0000000E+00
 -0.3200000      0.0000000E+00
 -0.3100000      0.0000000E+00
 -0.3000000      0.0000000E+00
 -0.2900000      0.0000000E+00
 -0.2800000      0.0000000E+00
 -0.2700000      0.0000000E+00
 -0.2600000      0.0000000E+00
 -0.2500000      0.0000000E+00
 -0.2400000      0.0000000E+00
 -0.2300000      0.0000000E+00
 -0.2200000      0.0000000E+00
 -0.2100000      0.0000000E+00
 -0.2000000      0.0000000E+00
 -0.1900000      0.0000000E+00
 -0.1800000      0.0000000E+00
 -0.1700000      0.0000000E+00
 -0.1600000      0.0000000E+00
 -0.1500000      0.0000000E+00
 -0.1400000      0.0000000E+00
 -0.1300000      0.0000000E+00
 -0.1200000      0.0000000E+00
 -0.1100000      0.0000000E+00
 -0.1000000      0.0000000E+00
 -9.0000004E-02  0.0000000E+00
 -7.9999998E-02  0.0000000E+00
 -7.0000000E-02  0.0000000E+00
 -5.9999999E-02  0.0000000E+00
 -5.0000001E-02  0.0000000E+00
 -3.9999999E-02  0.0000000E+00
 -2.9999999E-02  0.0000000E+00
 -2.0000000E-02  0.0000000E+00
 -9.9999998E-03  0.0000000E+00
 -3.4694470E-17  0.0000000E+00
  9.9999998E-03  0.0000000E+00
  2.0000000E-02  0.0000000E+00
  2.9999999E-02  0.0000000E+00
  3.9999999E-02  0.0000000E+00
  5.0000001E-02  0.0000000E+00
  5.9999999E-02  0.0000000E+00
  7.0000000E-02  0.0000000E+00
  7.9999998E-02  0.0000000E+00
  9.0000004E-02  0.0000000E+00
  0.1000000      0.0000000E+00
  0.1100000      0.0000000E+00
  0.1200000      0.0000000E+00
  0.1300000      0.0000000E+00
  0.1400000      0.0000000E+00
  0.1500000      0.0000000E+00
  0.1600000      0.0000000E+00
  0.1700000      0.0000000E+00
  0.1800000      0.0000000E+00
  0.1900000      0.0000000E+00
  0.2000000      0.0000000E+00
  0.2100000      0.0000000E+00
  0.2200000      0.0000000E+00
  0.2300000      0.0000000E+00
  0.2400000      0.0000000E+00
  0.2500000      0.0000000E+00
  0.2600000      0.0000000E+00
  0.2700000      0.0000000E+00
  0.2800000      0.0000000E+00
  0.2900000      0.0000000E+00
  0.3000000      1.4601966E-38
  0.3100000      1.7908653E-38
  0.3200000      1.9861427E-38
  0.3300000      2.1187379E-38
  0.3400000      2.1602462E-38
  0.3500000      2.1377541E-38
  0.3600000      2.3258949E-38
  0.3700000      2.6617782E-38
  0.3800000      2.7349246E-38
  0.3900000      2.2118258E-38
  0.4000000      0.0000000E+00
  0.4100000      0.0000000E+00
  0.4200000      0.0000000E+00
  0.4300000     -1.6836598E-38
  0.4400000     -3.3632626E-38
  0.4500000     -4.1100790E-38
  0.4600000     -3.7247023E-38
  0.4700000     -2.6953421E-38
  0.4800000      0.0000000E+00
  0.4900000      0.0000000E+00
  0.5000000      2.1248319E-38
  0.5100000      2.7638835E-38
  0.5200000      0.0000000E+00
  0.5300000     -8.2960019E-38
  0.5400000     -2.1099030E-37
  0.5500000     -3.8529412E-37
  0.5600000     -5.7844143E-37
  0.5700000     -7.8924250E-37
  0.5800000     -1.0174064E-36
  0.5900000     -1.2419986E-36
  0.6000000     -1.4596122E-36
  0.6100000     -1.7072102E-36
  0.6200000     -1.9565190E-36
  0.6300000     -2.1587659E-36
  0.6400000     -2.0536847E-36
  0.6500000     -1.6851819E-36
  0.6600000     -1.5255666E-36
  0.6700000     -1.4817036E-36
  0.6800000     -1.3881732E-36
  0.6900000     -1.3229520E-36
  0.7000000     -1.2501736E-36
  0.7100000     -1.1653567E-36
  0.7200000     -1.2445346E-36
  0.7300000     -1.6354071E-36
  0.7400000     -2.1748089E-36
  0.7500000     -2.7499169E-36
  0.7600000     -3.3332719E-36
  0.7700000     -3.6687380E-36
  0.7800000     -3.7048760E-36
  0.7900000     -3.3638714E-36
  0.8000000     -2.5440929E-36
  0.8100000     -1.0229313E-36
  0.8200000      1.3223622E-36
  0.8300000      4.2403648E-36
  0.8400000      7.4519182E-36
  0.8500000      1.0719337E-35
  0.8600000      1.4021993E-35
  0.8700000      1.7314311E-35
  0.8800000      2.0590811E-35
  0.8900000      2.3568607E-35
  0.9000000      2.5957329E-35
  0.9100000      2.7957770E-35
  0.9200000      2.9575533E-35
  0.9300000      3.0987719E-35
  0.9400000      3.2472110E-35
  0.9500000      3.3827235E-35
  0.9600000      3.5072602E-35
  0.9700000      3.6217693E-35
  0.9800000      3.6456511E-35
  0.9900000      3.5516666E-35
   1.000000      3.4061441E-35
   1.010000      3.1582460E-35
   1.020000      2.7465489E-35
   1.030000      2.2828468E-35
   1.040000      1.8137802E-35
   1.050000      1.3114575E-35
   1.060000      9.3921805E-36
   1.070000      7.2417225E-36
   1.080000      5.6909359E-36
   1.090000      4.2429545E-36
   1.100000      1.7191436E-36
   1.110000     -2.2023237E-36
   1.120000     -7.0914667E-36
   1.130000     -1.3558716E-35
   1.140000     -2.2292143E-35
   1.150000     -3.3411708E-35
   1.160000     -4.6980179E-35
   1.170000     -6.2463853E-35
   1.180000     -7.8732740E-35
   1.190000     -9.3229743E-35
   1.200000     -1.0501994E-34
   1.210000     -1.1683854E-34
   1.220000     -1.2792626E-34
   1.230000     -1.3629107E-34
   1.240000     -1.4270904E-34
   1.250000     -1.4990163E-34
   1.260000     -1.6045017E-34
   1.270000     -1.7050194E-34
   1.280000     -1.8052533E-34
   1.290000     -1.9420957E-34
   1.300000     -2.0319028E-34
   1.310000     -2.0317038E-34
   1.320000     -1.9866238E-34
   1.330000     -1.8784224E-34
   1.340000     -1.7029855E-34
   1.350000     -1.4710917E-34
   1.360000     -1.1824473E-34
   1.370000     -8.3934469E-35
   1.380000     -5.0996848E-35
   1.390000     -2.1332739E-35
   1.400000      1.2552724E-35
   1.410000      5.6559944E-35
   1.420000      9.1996581E-35
   1.430000      1.1177258E-34
   1.440000      1.2627538E-34
   1.450000      1.3161429E-34
   1.460000      1.3126407E-34
   1.470000      1.3398032E-34
   1.480000      1.4735077E-34
   1.490000      1.7577413E-34
   1.500000      2.1206650E-34
   1.510000      2.5435445E-34
   1.520000      3.0985595E-34
   1.530000      3.7622092E-34
   1.540000      4.5420587E-34
   1.550000      5.4027695E-34
   1.560000      6.2929815E-34
   1.570000      7.1695885E-34
   1.580000      7.8422591E-34
   1.590000      8.1862180E-34
   1.600000      8.2769239E-34
   1.610000      8.1124557E-34
   1.620000      7.6094112E-34
   1.630000      6.8135937E-34
   1.640000      5.7336505E-34
   1.650000      4.4653688E-34
   1.660000      3.2186443E-34
   1.670000      2.0758872E-34
   1.680000      1.1213869E-34
   1.690000      2.4764770E-35
   1.700000     -6.6125908E-35
   1.710000     -1.6023402E-34
   1.720000     -2.7159724E-34
   1.730000     -4.1065955E-34
   1.740000     -5.8329100E-34
   1.750000     -7.9909527E-34
   1.760000     -1.0627694E-33
   1.770000     -1.3760040E-33
   1.780000     -1.7367705E-33
   1.790000     -2.1402876E-33
   1.800000     -2.5782380E-33
   1.810000     -3.0387681E-33
   1.820000     -3.5104111E-33
   1.830000     -3.9811455E-33
   1.840000     -4.4392537E-33
   1.850000     -4.8749980E-33
   1.860000     -5.2820585E-33
   1.870000     -5.6563477E-33
   1.880000     -5.9966129E-33
   1.890000     -6.3042827E-33
   1.900000     -6.5800214E-33
   1.910000     -6.8241818E-33
   1.920000     -7.0387911E-33
   1.930000     -7.2257307E-33
   1.940000     -7.3804449E-33
   1.950000     -7.4945082E-33
   1.960000     -7.5566566E-33
   1.970000     -7.5509415E-33
   1.980000     -7.4599355E-33
   1.990000     -7.2642862E-33
   2.000000     -6.9438435E-33
   2.010000     -6.4798935E-33
   2.020000     -5.8557732E-33
   2.030000     -5.0584732E-33
   2.040000     -4.0790341E-33
   2.050000     -2.9127242E-33
   2.060000     -1.5558281E-33
   2.070000     -1.2224389E-35
   2.080000      1.7109138E-33
   2.090000      3.6100574E-33
   2.100000      5.6791967E-33
   2.110000      7.9140429E-33
   2.120000      1.0311613E-32
   2.130000      1.2869972E-32
   2.140000      1.5589471E-32
   2.150000      1.8470884E-32
   2.160000      2.1514477E-32
   2.170000      2.4719750E-32
   2.180000      2.8083095E-32
   2.190000      3.1596151E-32
   2.200000      3.5244706E-32
   2.210000      3.9008953E-32
   2.220000      4.2862330E-32
   2.230000      4.6769917E-32
   2.240000      5.0691566E-32
   2.250000      5.4582123E-32
   2.260000      5.8391436E-32
   2.270000      6.2066537E-32
   2.280000      6.5553982E-32
   2.290000      6.8799915E-32
   2.300000      7.1750165E-32
   2.310000      7.4351599E-32
   2.320000      7.6551848E-32
   2.330000      7.8299144E-32
   2.340000      7.9541118E-32
   2.350000      8.0223875E-32
   2.360000      8.0293535E-32
   2.370000      7.9688825E-32
   2.380000      7.8344489E-32
   2.390000      7.6195985E-32
   2.400000      7.3173630E-32
   2.410000      6.9205543E-32
   2.420000      6.4219037E-32
   2.430000      5.8142501E-32
   2.440000      5.0907457E-32
   2.450000      4.2450680E-32
   2.460000      3.2716074E-32
   2.470000      2.1656598E-32
   2.480000      9.2355087E-33
   2.490000     -4.5727252E-33
   2.500000     -1.9781949E-32
   2.510000     -3.6394319E-32
   2.520000     -5.4400538E-32
   2.530000     -7.3780191E-32
   2.540000     -9.4502052E-32
   2.550000     -1.1652437E-31
   2.560000     -1.3979444E-31
   2.570000     -1.6424810E-31
   2.580000     -1.8980871E-31
   2.590000     -2.1638535E-31
   2.600000     -2.4387123E-31
   2.610000     -2.7214152E-31
   2.620000     -3.0105102E-31
   2.630000     -3.3043240E-31
   2.640000     -3.6009459E-31
   2.650000     -3.8982188E-31
   2.660000     -4.1937336E-31
   2.670000     -4.4848302E-31
   2.680000     -4.7686110E-31
   2.690000     -5.0419478E-31
   2.700000     -5.3015077E-31
   2.710000     -5.5437748E-31
   2.720000     -5.7650682E-31
   2.730000     -5.9615676E-31
   2.740000     -6.1293289E-31
   2.750000     -6.2643081E-31
   2.760000     -6.3623688E-31
   2.770000     -6.4192947E-31
   2.780000     -6.4308075E-31
   2.790000     -6.3925715E-31
   2.800000     -6.3002096E-31
   2.810000     -6.1493199E-31
   2.820000     -5.9355021E-31
   2.830000     -5.6543874E-31
   2.840000     -5.3016761E-31
   2.850000     -4.8731844E-31
   2.860000     -4.3648997E-31
   2.870000     -3.7730371E-31
   2.880000     -3.0941017E-31
   2.890000     -2.3249548E-31
   2.900000     -1.4628773E-31
   2.910000     -5.0562832E-32
   2.920000      5.4849101E-32
   2.930000      1.7005842E-31
   2.940000      2.9511084E-31
   2.950000      4.2998286E-31
   2.960000      5.7457712E-31
   2.970000      7.2871744E-31
   2.980000      8.9214463E-31
   2.990000      1.0645117E-30
   3.000000      1.2453783E-30
   3.010000      1.4342065E-30
   3.020000      1.6303542E-30
   3.030000      1.8330700E-30
   3.040000      2.0414869E-30
   3.050000      2.2546168E-30
   3.060000      2.4713456E-30
   3.070000      2.6904297E-30
   3.080000      2.9104932E-30
   3.090000      3.1300229E-30
   3.100000      3.3473708E-30
   3.110000      3.5607548E-30
   3.120000      3.7682591E-30
   3.130000      3.9678381E-30
   3.140000      4.1573229E-30
   3.150000      4.3344257E-30
   3.160000      4.4967478E-30
   3.170000      4.6417861E-30
   3.180000      4.7669418E-30
   3.190000      4.8695284E-30
   3.200000      4.9467827E-30
   3.210000      4.9958747E-30
   3.220000      5.0139186E-30
   3.230000      4.9979849E-30
   3.240000      4.9451163E-30
   3.250000      4.8523425E-30
   3.260000      4.7166995E-30
   3.270000      4.5352487E-30
   3.280000      4.3050978E-30
   3.290000      4.0234253E-30
   3.300000      3.6875092E-30
   3.310000      3.2947519E-30
   3.320000      2.8427098E-30
   3.330000      2.3291262E-30
   3.340000      1.7519636E-30
   3.350000      1.1094314E-30
   3.360000      4.0002129E-31
   3.370000     -3.7745363E-31
   3.380000     -1.2238280E-30
   3.390000     -2.1395536E-30
   3.400000     -3.1246633E-30
   3.410000     -4.1787304E-30
   3.420000     -5.3008348E-30
   3.430000     -6.4895285E-30
   3.440000     -7.7427966E-30
   3.450000     -9.0580262E-30
   3.460000     -1.0431964E-29
   3.470000     -1.1860685E-29
   3.480000     -1.3339560E-29
   3.490000     -1.4863220E-29
   3.500000     -1.6425525E-29
   3.510000     -1.8019539E-29
   3.520000     -1.9637507E-29
   3.530000     -2.1270829E-29
   3.540000     -2.2910058E-29
   3.550000     -2.4544873E-29
   3.560000     -2.6164074E-29
   3.570000     -2.7755572E-29
   3.580000     -2.9306404E-29
   3.590000     -3.0802740E-29
   3.600000     -3.2229887E-29
   3.610000     -3.3572296E-29
   3.620000     -3.4813588E-29
   3.630000     -3.5936595E-29
   3.640000     -3.6923381E-29
   3.650000     -3.7755281E-29
   3.660000     -3.8412947E-29
   3.670000     -3.8876419E-29
   3.680000     -3.9125171E-29
   3.690000     -3.9138198E-29
   3.700000     -3.8894083E-29
   3.710000     -3.8371106E-29
   3.720000     -3.7547328E-29
   3.730000     -3.6400720E-29
   3.740000     -3.4909283E-29
   3.750000     -3.3051173E-29
   3.760000     -3.0804870E-29
   3.770000     -2.8149320E-29
   3.780000     -2.5064084E-29
   3.790000     -2.1529551E-29
   3.800000     -1.7527120E-29
   3.810000     -1.3039351E-29
   3.820000     -8.0502171E-30
   3.830000     -2.5453115E-30
   3.840000      3.4879686E-30
   3.850000      1.0060172E-29
   3.860000      1.7179546E-29
   3.870000      2.4851782E-29
   3.880000      3.3079779E-29
   3.890000      4.1863392E-29
   3.900000      5.1199162E-29
   3.910000      6.1080074E-29
   3.920000      7.1495226E-29
   3.930000      8.2429621E-29
   3.940000      9.3863867E-29
   3.950000      1.0577393E-28
   3.960000      1.1813083E-28
   3.970000      1.3090044E-28
   3.980000      1.4404321E-28
   3.990000      1.5751388E-28
   4.000000      1.7126120E-28
   4.010000      1.8522787E-28
   4.020000      1.9935019E-28
   4.030000      2.1355783E-28
   4.040000      2.2777376E-28
   4.050000      2.4191399E-28
   4.060000      2.5588738E-28
   4.070000      2.6959567E-28
   4.080000      2.8293326E-28
   4.090000      2.9578719E-28
   4.100000      3.0803704E-28
   4.110000      3.1955492E-28
   4.120000      3.3020555E-28
   4.130000      3.3984637E-28
   4.140000      3.4832761E-28
   4.150000      3.5549246E-28
   4.160000      3.6117720E-28
   4.170000      3.6521169E-28
   4.180000      3.6741957E-28
   4.190000      3.6761862E-28
   4.200000      3.6562112E-28
   4.210000      3.6123467E-28
   4.220000      3.5426251E-28
   4.230000      3.4450438E-28
   4.240000      3.3175703E-28
   4.250000      3.1581503E-28
   4.260000      2.9647181E-28
   4.270000      2.7352055E-28
   4.280000      2.4675506E-28
   4.290000      2.1597102E-28
   4.300000      1.8096729E-28
   4.310000      1.4154694E-28
   4.320000      9.7518644E-29
   4.330000      4.8698075E-29
   4.340000     -5.0902776E-30
   4.350000     -6.4011809E-29
   4.360000     -1.2821994E-28
   4.370000     -1.9785423E-28
   4.380000     -2.7303878E-28
   4.390000     -3.5388005E-28
   4.400000     -4.4046523E-28
   4.410000     -5.3285989E-28
   4.420000     -6.3110529E-28
   4.430000     -7.3521668E-28
   4.440000     -8.4518136E-28
   4.450000     -9.6095555E-28
   4.460000     -1.0824621E-27
   4.470000     -1.2095882E-27
   4.480000     -1.3421829E-27
   4.490000     -1.4800540E-27
   4.500000     -1.6229658E-27
   4.510000     -1.7706368E-27
   4.520000     -1.9227373E-27
   4.530000     -2.0788858E-27
   4.540000     -2.2386463E-27
   4.550000     -2.4015279E-27
   4.560000     -2.5669798E-27
   4.570000     -2.7343897E-27
   4.580000     -2.9030815E-27
   4.590000     -3.0723143E-27
   4.600000     -3.2412777E-27
   4.610000     -3.4090917E-27
   4.620000     -3.5748041E-27
   4.630000     -3.7373892E-27
   4.640000     -3.8957461E-27
   4.650000     -4.0486984E-27
   4.660000     -4.1949920E-27
   4.670000     -4.3332927E-27
   4.680000     -4.4621898E-27
   4.690000     -4.5801934E-27
   4.700000     -4.6857348E-27
   4.710000     -4.7771664E-27
   4.720000     -4.8527641E-27
   4.730000     -4.9107262E-27
   4.740000     -4.9491785E-27
   4.750000     -4.9661737E-27
   4.760000     -4.9596949E-27
   4.770000     -4.9276589E-27
   4.780000     -4.8679216E-27
   4.790000     -4.7782788E-27
   4.800000     -4.6564726E-27
   4.810000     -4.5002011E-27
   4.820000     -4.3071205E-27
   4.830000     -4.0748525E-27
   4.840000     -3.8009926E-27
   4.850000     -3.4831175E-27
   4.860000     -3.1187976E-27
   4.870000     -2.7056065E-27
   4.880000     -2.2411282E-27
   4.890000     -1.7229743E-27
   4.900000     -1.1487944E-27
   4.910000     -5.1628881E-28
   4.920000      1.7677614E-28
   4.930000      9.3255290E-28
   4.940000      1.7530981E-27
   4.950000      2.6403531E-27
   4.960000      3.5961237E-27
   4.970000      4.6220647E-27
   4.980000      5.7196618E-27
   4.990000      6.8902023E-27
   5.000000      8.1347622E-27
   5.010000      9.4541775E-27
   5.020000      1.0849019E-26
   5.030000      1.2319582E-26
   5.040000      1.3865850E-26
   5.050000      1.5487460E-26
   5.060000      1.7183697E-26
   5.070000      1.8953451E-26
   5.080000      2.0795196E-26
   5.090000      2.2706959E-26
   5.100000      2.4686293E-26
   5.110000      2.6730250E-26
   5.120000      2.8835353E-26
   5.130000      3.0997559E-26
   5.140000      3.3212227E-26
   5.150000      3.5474104E-26
   5.160000      3.7777292E-26
   5.170000      4.0115201E-26
   5.180000      4.2480554E-26
   5.190000      4.4865327E-26
   5.200000      4.7260752E-26
   5.210000      4.9657266E-26
   5.220000      5.2044488E-26
   5.230000      5.4411206E-26
   5.240000      5.6745372E-26
   5.250000      5.9034048E-26
   5.260000      6.1263406E-26
   5.270000      6.3418722E-26
   5.280000      6.5484342E-26
   5.290000      6.7443694E-26
   5.300000      6.9279281E-26
   5.310000      7.0972626E-26
   5.320000      7.2504354E-26
   5.330000      7.3854132E-26
   5.340000      7.5000716E-26
   5.350000      7.5921952E-26
   5.360000      7.6594795E-26
   5.370000      7.6995320E-26
   5.380000      7.7098778E-26
   5.390000      7.6879592E-26
   5.400000      7.6311433E-26
   5.410000      7.5367247E-26
   5.420000      7.4019324E-26
   5.430000      7.2239290E-26
   5.440000      6.9998266E-26
   5.450000      6.7266872E-26
   5.460000      6.4015372E-26
   5.470000      6.0213697E-26
   5.480000      5.5831569E-26
   5.490000      5.0838662E-26
   5.500000      4.5204651E-26
   5.510000      3.8899363E-26
   5.520000      3.1892895E-26
   5.530000      2.4155798E-26
   5.540000      1.5659220E-26
   5.550000      6.3750685E-27
   5.560000     -3.7238684E-27
   5.570000     -1.4663735E-26
   5.580000     -2.6469340E-26
   5.590000     -3.9163949E-26
   5.600000     -5.2769168E-26
   5.610000     -6.7304706E-26
   5.620000     -8.2788123E-26
   5.630000     -9.9234591E-26
   5.640000     -1.1665653E-25
   5.650000     -1.3506354E-25
   5.660000     -1.5446203E-25
   5.670000     -1.7485490E-25
   5.680000     -1.9624128E-25
   5.690000     -2.1861626E-25
   5.700000     -2.4197063E-25
   5.710000     -2.6629057E-25
   5.720000     -2.9155727E-25
   5.730000     -3.1774671E-25
   5.740000     -3.4482920E-25
   5.750000     -3.7276919E-25
   5.760000     -4.0152500E-25
   5.770000     -4.3104844E-25
   5.780000     -4.6128454E-25
   5.790000     -4.9217101E-25
   5.800000     -5.2363808E-25
   5.810000     -5.5560824E-25
   5.820000     -5.8799577E-25
   5.830000     -6.2070672E-25
   5.840000     -6.5363831E-25
   5.850000     -6.8667901E-25
   5.860000     -7.1970798E-25
   5.870000     -7.5259495E-25
   5.880000     -7.8520015E-25
   5.890000     -8.1737374E-25
   5.900000     -8.4895593E-25
   5.910000     -8.7977693E-25
   5.920000     -9.0965641E-25
   5.930000     -9.3840369E-25
   5.940000     -9.6581739E-25
   5.950000     -9.9168631E-25
   5.960000     -1.0157885E-24
   5.970000     -1.0378914E-24
   5.980000     -1.0577521E-24
   5.990000     -1.0751175E-24
   6.000000     -1.0897247E-24
   6.010000     -1.1013009E-24
   6.020000     -1.1095642E-24
   6.030000     -1.1142233E-24
   6.040000     -1.1149784E-24
   6.050000     -1.1115216E-24
   6.060000     -1.1035371E-24
   6.070000     -1.0907024E-24
   6.080000     -1.0726884E-24
   6.090000     -1.0491607E-24
   6.100000     -1.0197802E-24
   6.110000     -9.8420387E-25
   6.120000     -9.4208609E-25
   6.130000     -8.9308008E-25
   6.140000     -8.3683765E-25
   6.150000     -7.7301146E-25
   6.160000     -7.0125726E-25
   6.170000     -6.2123408E-25
   6.180000     -5.3260615E-25
   6.190000     -4.3504412E-25
   6.200000     -3.2822725E-25
   6.210000     -2.1184514E-25
   6.220000     -8.5599611E-26
   6.230000      5.0793062E-26
   6.240000      1.9760049E-25
   6.250000      3.5507167E-25
   6.260000      5.2343495E-25
   6.270000      7.0289523E-25
   6.280000      8.9363199E-25
   6.290000      1.0957963E-24
   6.300000      1.3095086E-24
   6.310000      1.5348553E-24
   6.320000      1.7718871E-24
   6.330000      2.0206157E-24
   6.340000      2.2810114E-24
   6.350000      2.5529990E-24
   6.360000      2.8364541E-24
   6.370000      3.1312023E-24
   6.380000      3.4370169E-24
   6.390000      3.7536128E-24
   6.400000      4.0806445E-24
   6.410000      4.4177063E-24
   6.420000      4.7643231E-24
   6.430000      5.1199506E-24
   6.440000      5.4839733E-24
   6.450000      5.8556999E-24
   6.460000      6.2343618E-24
   6.470000      6.6191086E-24
   6.480000      7.0090071E-24
   6.490000      7.4030383E-24
   6.500000      7.8000941E-24
   6.510000      8.1989753E-24
   6.520000      8.5983906E-24
   6.530000      8.9969547E-24
   6.540000      9.3931822E-24
   6.550000      9.7854890E-24
   6.560000      1.0172193E-23
   6.570000      1.0551515E-23
   6.580000      1.0921569E-23
   6.590000      1.1280369E-23
   6.600000      1.1625825E-23
   6.610000      1.1955748E-23
   6.620000      1.2267846E-23
   6.630000      1.2559724E-23
   6.640000      1.2828894E-23
   6.650000      1.3072764E-23
   6.660000      1.3288651E-23
   6.670000      1.3473779E-23
   6.680000      1.3625283E-23
   6.690000      1.3740217E-23
   6.700000      1.3815547E-23
   6.710000      1.3848174E-23
   6.720000      1.3834924E-23
   6.730000      1.3772566E-23
   6.740000      1.3657808E-23
   6.750000      1.3487311E-23
   6.760000      1.3257689E-23
   6.770000      1.2965531E-23
   6.780000      1.2607403E-23
   6.790000      1.2179856E-23
   6.800000      1.1679442E-23
   6.810000      1.1102723E-23
   6.820000      1.0446287E-23
   6.830000      9.7067528E-24
   6.840000      8.8808020E-24
   6.850000      7.9651775E-24
   6.860000      6.9567064E-24
   6.870000      5.8523066E-24
   6.880000      4.6490101E-24
   6.890000      3.3439932E-24
   6.900000      1.9345883E-24
   6.910000      4.1829566E-25
   6.920000     -1.2071974E-24
   6.930000     -2.9439920E-24
   6.940000     -4.7939464E-24
   6.950000     -6.7586715E-24
   6.960000     -8.8394965E-24
   6.970000     -1.1037448E-23
   6.980000     -1.3353233E-23
   6.990000     -1.5787215E-23
   7.000000     -1.8339372E-23
   7.010000     -2.1009295E-23
   7.020000     -2.3796150E-23
   7.030000     -2.6698641E-23
   7.040000     -2.9715002E-23
   7.050000     -3.2842949E-23
   7.060000     -3.6079702E-23