  -2.600000      0.0000000E+00
  -2.590000      0.0000000E+00
  -2.580000      0.0000000E+00
  -2.570000      0.0000000E+00
  -2.560000      0.0000000E+00
  -2.550000      0.0000000E+00
  -2.540000      0.0000000E+00
  -2.530000      0.0000000E+00
  -2.520000      0.0000000E+00
  -2.510000      0.0000000E+00
  -2.500000      0.0000000E+00
  -2.490000      0.0000000E+00
  -2.480000      0.0000000E+00
  -2.470000      0.0000000E+00
  -2.460000      0.0000000E+00
  -2.450000      0.0000000E+00
  -2.440000      0.0000000E+00
  -2.430000      0.0000000E+00
  -2.420000      0.0000000E+00
  -2.410000      0.0000000E+00
  -2.400000      0.0000000E+00
  -2.390000      0.0000000E+00
  -2.380000      0.0000000E+00
  -2.370000      0.0000000E+00
  -2.360000      0.0000000E+00
  -2.350000      0.0000000E+00
  -2.340000      0.0000000E+00
  -2.330000      0.0000000E+00
  -2.320000      0.0000000E+00
  -2.310000      0.0000000E+00
  -2.300000      0.0000000E+00
  -2.290000      0.0000000E+00
  -2.280000      0.0000000E+00
  -2.270000      0.0000000E+00
  -2.260000      0.0000000E+00
  -2.250000      0.0000000E+00
  -2.240000      0.0000000E+00
  -2.230000      0.0000000E+00
  -2.220000      0.0000000E+00
  -2.210000      0.0000000E+00
  -2.200000      0.0000000E+00
  -2.190000      0.0000000E+00
  -2.180000      0.0000000E+00
  -2.170000      0.0000000E+00
  -2.160000      0.0000000E+00
  -2.150000      0.0000000E+00
  -2.140000      0.0000000E+00
  -2.130000      0.0000000E+00
  -2.120000      0.0000000E+00
  -2.110000      0.0000000E+00
  -2.100000      0.0000000E+00
  -2.090000      0.0000000E+00
  -2.080000      0.0000000E+00
  -2.070000      0.0000000E+00
  -2.060000      0.0000000E+00
  -2.050000      0.0000000E+00
  -2.040000      0.0000000E+00
  -2.030000      0.0000000E+00
  -2.020000      0.0000000E+00
  -2.010000      0.0000000E+00
  -2.000000      0.0000000E+00
  -1.990000      0.0000000E+00
  -1.980000      0.0000000E+00
  -1.970000      0.0000000E+00
  -1.960000      0.0000000E+00
  -1.950000      0.0000000E+00
  -1.940000      0.0000000E+00
  -1.930000      0.0000000E+00
  -1.920000      0.0000000E+00
  -1.910000      0.0000000E+00
  -1.900000      0.0000000E+00
  -1.890000      0.0000000E+00
  -1.880000      0.0000000E+00
  -1.870000      0.0000000E+00
  -1.860000      0.0000000E+00
  -1.850000      0.0000000E+00
  -1.840000      0.0000000E+00
  -1.830000      0.0000000E+00
  -1.820000      0.0000000E+00
  -1.810000      0.0000000E+00
  -1.800000      0.0000000E+00
  -1.790000      0.0000000E+00
  -1.780000      0.0000000E+00
  -1.770000      0.0000000E+00
  -1.760000      0.0000000E+00
  -1.750000      0.0000000E+00
  -1.740000      0.0000000E+00
  -1.730000      0.0000000E+00
  -1.720000      0.0000000E+00
  -1.710000      0.0000000E+00
  -1.700000      0.0000000E+00
  -1.690000      0.0000000E+00
  -1.680000      0.0000000E+00
  -1.670000      0.0000000E+00
  -1.660000      0.0000000E+00
  -1.650000      0.0000000E+00
  -1.640000      0.0000000E+00
  -1.630000      0.0000000E+00
  -1.620000      0.0000000E+00
  -1.610000      0.0000000E+00
  -1.600000      0.0000000E+00
  -1.590000      0.0000000E+00
  -1.580000      0.0000000E+00
  -1.570000      0.0000000E+00
  -1.560000      0.0000000E+00
  -1.550000      0.0000000E+00
  -1.540000      0.0000000E+00
  -1.530000      0.0000000E+00
  -1.520000      0.0000000E+00
  -1.510000      0.0000000E+00
  -1.500000      0.0000000E+00
  -1.490000      0.0000000E+00
  -1.480000      0.0000000E+00
  -1.470000      0.0000000E+00
  -1.460000      0.0000000E+00
  -1.450000      0.0000000E+00
  -1.440000      0.0000000E+00
  -1.430000      0.0000000E+00
  -1.420000      0.0000000E+00
  -1.410000      0.0000000E+00
  -1.400000      0.0000000E+00
  -1.390000      0.0000000E+00
  -1.380000      0.0000000E+00
  -1.370000      0.0000000E+00
  -1.360000      0.0000000E+00
  -1.350000      0.0000000E+00
  -1.340000      0.0000000E+00
  -1.330000      0.0000000E+00
  -1.320000      0.0000000E+00
  -1.310000      0.0000000E+00
  -1.300000      0.0000000E+00
  -1.290000      0.0000000E+00
  -1.280000      0.0000000E+00
  -1.270000      0.0000000E+00
  -1.260000      0.0000000E+00
  -1.250000      0.0000000E+00
  -1.240000      0.0000000E+00
  -1.230000      0.0000000E+00
  -1.220000      0.0000000E+00
  -1.210000      0.0000000E+00
  -1.200000      0.0000000E+00
  -1.190000      0.0000000E+00
  -1.180000      0.0000000E+00
  -1.170000      0.0000000E+00
  -1.160000      0.0000000E+00
  -1.150000     -1.7161653E-38
  -1.140000     -3.3337025E-38
  -1.130000     -5.4020454E-38
  -1.120000     -7.7769739E-38
  -1.110000     -9.9695065E-38
  -1.100000     -1.2094072E-37
  -1.090000     -1.3565698E-37
  -1.080000     -1.2160879E-37
  -1.070000     -6.5102180E-38
  -1.060000      3.0385941E-38
  -1.050000      1.5679430E-37
  -1.040000      3.0592081E-37
  -1.030000      4.7996943E-37
  -1.020000      6.8700597E-37
  -1.010000      9.1546860E-37
  -1.000000      1.1214623E-36
 -0.9900000      1.2913534E-36
 -0.9800000      1.4235234E-36
 -0.9700000      1.4673510E-36
 -0.9600000      1.3739917E-36
 -0.9500000      1.1094154E-36
 -0.9400000      6.4448389E-37
 -0.9300000     -6.2478383E-38
 -0.9200000     -1.0703840E-36
 -0.9100000     -2.4200153E-36
 -0.9000000     -4.1085282E-36
 -0.8900000     -6.1134588E-36
 -0.8800000     -8.3010062E-36
 -0.8700000     -1.0516588E-35
 -0.8600000     -1.2577593E-35
 -0.8500000     -1.4364478E-35
 -0.8400000     -1.5529535E-35
 -0.8300000     -1.5461997E-35
 -0.8200000     -1.3895203E-35
 -0.8100000     -1.0352713E-35
 -0.8000000     -4.6504993E-36
 -0.7900000      2.5750142E-36
 -0.7800000      1.1405778E-35
 -0.7700000      2.2349028E-35
 -0.7600000      3.5214289E-35
 -0.7500000      4.9635875E-35
 -0.7400000      6.5365280E-35
 -0.7300000      8.1528747E-35
 -0.7200000      9.6818203E-35
 -0.7100000      1.0963462E-34
 -0.7000000      1.1852052E-34
 -0.6900000      1.2211618E-34
 -0.6800000      1.1811562E-34
 -0.6700000      1.0433713E-34
 -0.6600000      7.8518402E-35
 -0.6500000      3.8639573E-35
 -0.6400000     -1.7049030E-35
 -0.6300000     -8.9965174E-35
 -0.6200000     -1.7925413E-34
 -0.6100000     -2.8305957E-34
 -0.6000000     -3.9824670E-34
 -0.5900000     -5.1998167E-34
 -0.5800000     -6.4019401E-34
 -0.5700000     -7.5095828E-34
 -0.5600000     -8.4340269E-34
 -0.5500000     -9.0448000E-34
 -0.5400000     -9.2372541E-34
 -0.5300000     -8.8539401E-34
 -0.5200000     -7.7761495E-34
 -0.5100000     -5.8973592E-34
 -0.5000000     -3.0889122E-34
 -0.4900000      7.2177902E-35
 -0.4800000      5.5870842E-34
 -0.4700000      1.1497980E-33
 -0.4600000      1.8350402E-33
 -0.4500000      2.5964911E-33
 -0.4400000      3.4066825E-33
 -0.4300000      4.2248376E-33
 -0.4200000      5.0000515E-33
 -0.4100000      5.6735283E-33
 -0.4000000      6.1778759E-33
 -0.3900000      6.4328443E-33
 -0.3800000      6.3534955E-33
 -0.3700000      5.8567349E-33
 -0.3600000      4.8628530E-33
 -0.3500000      3.3000226E-33
 -0.3400000      1.1132325E-33
 -0.3300000     -1.7273348E-33
 -0.3200000     -5.2187078E-33
 -0.3100000     -9.3183641E-33
 -0.3000000     -1.3936784E-32
 -0.2900000     -1.8929919E-32
 -0.2800000     -2.4094859E-32
 -0.2700000     -2.9166657E-32
 -0.2600000     -3.3818934E-32
 -0.2500000     -3.7667902E-32
 -0.2400000     -4.0279116E-32
 -0.2300000     -4.1183824E-32
 -0.2200000     -3.9894365E-32
 -0.2100000     -3.5925761E-32
 -0.2000000     -2.8824206E-32
 -0.1900000     -1.8200474E-32
 -0.1800000     -3.7681849E-33
 -0.1700000      1.4621062E-32
 -0.1600000      3.6935370E-32
 -0.1500000      6.2924007E-32
 -0.1400000      9.2082926E-32
 -0.1300000      1.2362312E-31
 -0.1200000      1.5644931E-31
 -0.1100000      1.8914985E-31
 -0.1000000      2.2000082E-31
 -9.0000004E-02  2.4698660E-31
 -7.9999998E-02  2.6784055E-31
 -7.0000000E-02  2.8010667E-31
 -5.9999999E-02  2.8122322E-31
 -5.0000001E-02  2.6862902E-31
 -3.9999999E-02  2.3989134E-31
 -2.9999999E-02  1.9285299E-31
 -2.0000000E-02  1.2579565E-31
 -9.9999998E-03  3.7613862E-32
 -3.4694470E-17 -7.2006699E-32
  9.9999998E-03 -2.0241432E-31
  2.0000000E-02 -3.5182931E-31
  2.9999999E-02 -5.1720548E-31
  3.9999999E-02 -6.9412626E-31
  5.0000001E-02 -8.7674754E-31
  5.9999999E-02 -1.0577993E-30
  7.0000000E-02 -1.2286588E-30
  7.9999998E-02 -1.3795037E-30
  9.0000004E-02 -1.4995593E-30
  0.1000000     -1.5774446E-30
  0.1100000     -1.6016237E-30
  0.1200000     -1.5609657E-30
  0.1300000     -1.4454137E-30
  0.1400000     -1.2467566E-30
  0.1500000     -9.5950056E-31
  0.1600000     -5.8182621E-31
  0.1700000     -1.1661509E-31
  0.1800000      4.2746706E-31
  0.1900000      1.0348534E-30
  0.2000000      1.6819524E-30
  0.2100000      2.3360353E-30
  0.2200000      2.9541636E-30
  0.2300000      3.4821806E-30
  0.2400000      3.8537967E-30
  0.2500000      3.9897839E-30
  0.2600000      3.7972951E-30
  0.2700000      3.1693412E-30
  0.2800000      1.9844220E-30
  0.2900000      1.0632252E-31
  0.3000000     -2.6159030E-30
  0.3100000     -6.3477959E-30
  0.3200000     -1.1269179E-29
  0.3300000     -1.7573679E-29
  0.3400000     -2.5468106E-29
  0.3500000     -3.5171676E-29
  0.3600000     -4.6915088E-29
  0.3700000     -6.0939535E-29
  0.3800000     -7.7495503E-29
  0.3900000     -9.6841487E-29
  0.4000000     -1.1924265E-28
  0.4100000     -1.4496922E-28
  0.4200000     -1.7429478E-28
  0.4300000     -2.0749440E-28
  0.4400000     -2.4484261E-28
  0.4500000     -2.8661112E-28
  0.4600000     -3.3306621E-28
  0.4700000     -3.8446596E-28
  0.4800000     -4.4105702E-28
  0.4900000     -5.0307149E-28
  0.5000000     -5.7072295E-28
  0.5100000     -6.4420257E-28
  0.5200000     -7.2367497E-28
  0.5300000     -8.0927364E-28
  0.5400000     -9.0109659E-28
  0.5500000     -9.9920202E-28
  0.5600000     -1.1036036E-27
  0.5700000     -1.2142673E-27
  0.5800000     -1.3311073E-27
  0.5900000     -1.4539831E-27
  0.6000000     -1.5826982E-27
  0.6100000     -1.7169989E-27
  0.6200000     -1.8565749E-27
  0.6300000     -2.0010614E-27
  0.6400000     -2.1500437E-27
  0.6500000     -2.3030602E-27
  0.6600000     -2.4596117E-27
  0.6700000     -2.6191690E-27
  0.6800000     -2.7811857E-27
  0.6900000     -2.9451078E-27
  0.7000000     -3.1103896E-27
  0.7100000     -3.2765083E-27
  0.7200000     -3.4429800E-27
  0.7300000     -3.6093753E-27
  0.7400000     -3.7753388E-27
  0.7500000     -3.9406025E-27
  0.7600000     -4.1050018E-27
  0.7700000     -4.2684932E-27
  0.7800000     -4.4311627E-27
  0.7900000     -4.5932381E-27
  0.8000000     -4.7550987E-27
  0.8100000     -4.9172805E-27
  0.8200000     -5.0804799E-27
  0.8300000     -5.2455518E-27
  0.8400000     -5.4135102E-27
  0.8500000     -5.5855227E-27
  0.8600000     -5.7629070E-27
  0.8700000     -5.9471184E-27
  0.8800000     -6.1397402E-27
  0.8900000     -6.3424756E-27
  0.9000000     -6.5571359E-27
  0.9100000     -6.7856321E-27
  0.9200000     -7.0299663E-27
  0.9300000     -7.2922225E-27
  0.9400000     -7.5745631E-27
  0.9500000     -7.8792252E-27
  0.9600000     -8.2085176E-27
  0.9700000     -8.5648231E-27
  0.9800000     -8.9505992E-27
  0.9900000     -9.3683827E-27
   1.000000     -9.8207944E-27
   1.010000     -1.0310540E-26
   1.020000     -1.0840409E-26
   1.030000     -1.1413289E-26
   1.040000     -1.2032143E-26
   1.050000     -1.2700010E-26
   1.060000     -1.3419995E-26
   1.070000     -1.4195253E-26
   1.080000     -1.5028959E-26
   1.090000     -1.5924282E-26
   1.100000     -1.6884340E-26
   1.110000     -1.7912170E-26
   1.120000     -1.9010659E-26
   1.130000     -2.0182515E-26
   1.140000     -2.1430215E-26
   1.150000     -2.2755924E-26
   1.160000     -2.4161474E-26
   1.170000     -2.5648289E-26
   1.180000     -2.7217344E-26
   1.190000     -2.8869144E-26
   1.200000     -3.0603692E-26
   1.210000     -3.2420461E-26
   1.220000     -3.4318414E-26
   1.230000     -3.6295989E-26
   1.240000     -3.8351086E-26
   1.250000     -4.0481152E-26
   1.260000     -4.2683196E-26
   1.270000     -4.4953800E-26
   1.280000     -4.7289207E-26
   1.290000     -4.9685353E-26
   1.300000     -5.2137913E-26
   1.310000     -5.4642275E-26
   1.320000     -5.7193667E-26
   1.330000     -5.9787146E-26
   1.340000     -6.2417565E-26
   1.350000     -6.5079527E-26
   1.360000     -6.7767392E-26
   1.370000     -7.0475200E-26
   1.380000     -7.3196511E-26
   1.390000     -7.5924386E-26
   1.400000     -7.8651220E-26
   1.410000     -8.1368562E-26
   1.420000     -8.4067058E-26
   1.430000     -8.6736224E-26
   1.440000     -8.9364290E-26
   1.450000     -9.1938090E-26
   1.460000     -9.4442828E-26
   1.470000     -9.6862074E-26
   1.480000     -9.9177682E-26
   1.490000     -1.0136966E-25
   1.500000     -1.0341609E-25
   1.510000     -1.0529317E-25
   1.520000     -1.0697546E-25
   1.530000     -1.0843554E-25
   1.540000     -1.0964423E-25
   1.550000     -1.1057092E-25
   1.560000     -1.1118349E-25
   1.570000     -1.1144831E-25
   1.580000     -1.1133047E-25
   1.590000     -1.1079391E-25
   1.600000     -1.0980139E-25
   1.610000     -1.0831455E-25
   1.620000     -1.0629377E-25
   1.630000     -1.0369829E-25
   1.640000     -1.0048608E-25
   1.650000     -9.6613478E-26
   1.660000     -9.2035027E-26
   1.670000     -8.6703277E-26
   1.680000     -8.0568829E-26
   1.690000     -7.3579571E-26
   1.700000     -6.5680497E-26
   1.710000     -5.6813688E-26
   1.720000     -4.6917684E-26
   1.730000     -3.5927511E-26
   1.740000     -2.3774639E-26
   1.750000     -1.0386693E-26
   1.760000      4.3120208E-27
   1.770000      2.0400849E-26
   1.780000      3.7962375E-26
   1.790000      5.7081858E-26
   1.800000      7.7846717E-26
   1.810000      1.0034582E-25
   1.820000      1.2466926E-25
   1.830000      1.5090738E-25
   1.840000      1.7914974E-25
   1.850000      2.0948448E-25
   1.860000      2.4199738E-25
   1.870000      2.7677131E-25
   1.880000      3.1388536E-25
   1.890000      3.5341407E-25
   1.900000      3.9542720E-25
   1.910000      4.3998964E-25
   1.920000      4.8716046E-25
   1.930000      5.3699275E-25
   1.940000      5.8953454E-25
   1.950000      6.4482807E-25
   1.960000      7.0291057E-25
   1.970000      7.6381388E-25
   1.980000      8.2756548E-25
   1.990000      8.9418794E-25
   2.000000      9.6370039E-25
   2.010000      1.0361172E-24
   2.020000      1.1114487E-24
   2.030000      1.1897015E-24
   2.040000      1.2708764E-24
   2.050000      1.3549696E-24
   2.060000      1.4419712E-24
   2.070000      1.5318641E-24
   2.080000      1.6246235E-24
   2.090000      1.7202151E-24
   2.100000      1.8185934E-24
   2.110000      1.9197001E-24
   2.120000      2.0234625E-24
   2.130000      2.1297941E-24
   2.140000      2.2385922E-24
   2.150000      2.3497366E-24
   2.160000      2.4630890E-24
   2.170000      2.5784926E-24
   2.180000      2.6957726E-24
   2.190000      2.8147362E-24
   2.200000      2.9351741E-24
   2.210000      3.0568607E-24
   2.220000      3.1795565E-24
   2.230000      3.3030101E-24
   2.240000      3.4269609E-24
   2.250000      3.5511398E-24
   2.260000      3.6752734E-24
   2.270000      3.7990855E-24
   2.280000      3.9223000E-24
   2.290000      4.0446437E-24
   2.300000      4.1658447E-24
   2.310000      4.2856379E-24
   2.320000      4.4037643E-24
   2.330000      4.5199718E-24
   2.340000      4.6340155E-24
   2.350000      4.7456551E-24
   2.360000      4.8546555E-24
   2.370000      4.9607857E-24
   2.380000      5.0638192E-24
   2.390000      5.1635289E-24
   2.400000      5.2596863E-24
   2.410000      5.3520627E-24
   2.420000      5.4404266E-24
   2.430000      5.5245424E-24
   2.440000      5.6041712E-24
   2.450000      5.6790704E-24
   2.460000      5.7489966E-24
   2.470000      5.8137065E-24
   2.480000      5.8729602E-24
   2.490000      5.9265234E-24
   2.500000      5.9741746E-24
   2.510000      6.0157054E-24
   2.520000      6.0509272E-24
   2.530000      6.0796741E-24
   2.540000      6.1018111E-24
   2.550000      6.1172329E-24
   2.560000      6.1258717E-24
   2.570000      6.1276972E-24
   2.580000      6.1227183E-24
   2.590000      6.1109808E-24
   2.600000      6.0925696E-24
   2.610000      6.0676037E-24
   2.620000      6.0362335E-24
   2.630000      5.9986364E-24
   2.640000      5.9550084E-24
   2.650000      5.9055547E-24
   2.660000      5.8504844E-24
   2.670000      5.7900024E-24
   2.680000      5.7242997E-24
   2.690000      5.6535440E-24
   2.700000      5.5778741E-24
   2.710000      5.4973910E-24
   2.720000      5.4121514E-24
   2.730000      5.3221676E-24
   2.740000      5.2273986E-24
   2.750000      5.1277509E-24
   2.760000      5.0230773E-24
   2.770000      4.9131788E-24
   2.780000      4.7978067E-24
   2.790000      4.6766625E-24
   2.800000      4.5494058E-24
   2.810000      4.4156529E-24
   2.820000      4.2749800E-24
   2.830000      4.1269250E-24
   2.840000      3.9709881E-24
   2.850000      3.8066345E-24
   2.860000      3.6332859E-24
   2.870000      3.4503206E-24
   2.880000      3.2570627E-24
   2.890000      3.0527748E-24
   2.900000      2.8366460E-24
   2.910000      2.6077793E-24
   2.920000      2.3651868E-24
   2.930000      2.1077705E-24
   2.940000      1.8343038E-24
   2.950000      1.5434248E-24
   2.960000      1.2336236E-24
   2.970000      9.0323854E-25
   2.980000      5.5044604E-25
   2.990000      1.7325568E-25
   3.000000     -2.3048060E-25
   3.010000     -6.6306293E-25
   3.020000     -1.1269317E-24
   3.030000     -1.6246541E-24
   3.040000     -2.1589001E-24
   3.050000     -2.7324160E-24
   3.060000     -3.3479967E-24
   3.070000     -4.0084543E-24
   3.080000     -4.7165784E-24
   3.090000     -5.4750962E-24
   3.100000     -6.2866436E-24
   3.110000     -7.1537173E-24
   3.120000     -8.0786393E-24
   3.130000     -9.0635243E-24
   3.140000     -1.0110235E-23
   3.150000     -1.1220353E-23
   3.160000     -1.2395148E-23
   3.170000     -1.3635543E-23
   3.180000     -1.4942086E-23
   3.190000     -1.6314923E-23
   3.200000     -1.7753775E-23
   3.210000     -1.9257901E-23
   3.220000     -2.0826070E-23
   3.230000     -2.2456529E-23
   3.240000     -2.4146960E-23
   3.250000     -2.5894444E-23
   3.260000     -2.7695398E-23
   3.270000     -2.9545536E-23
   3.280000     -3.1439793E-23
   3.290000     -3.3372265E-23
   3.300000     -3.5336122E-23
   3.310000     -3.7323534E-23
   3.320000     -3.9325574E-23
   3.330000     -4.1332134E-23
   3.340000     -4.3331817E-23
   3.350000     -4.5311858E-23
   3.360000     -4.7258009E-23
   3.370000     -4.9154466E-23
   3.380000     -5.0983771E-23
   3.390000     -5.2726737E-23
   3.400000     -5.4362380E-23
   3.410000     -5.5867861E-23
   3.420000     -5.7218442E-23
   3.430000     -5.8387445E-23
   3.440000     -5.9346258E-23
   3.450000     -6.0064324E-23
   3.460000     -6.0509121E-23
   3.470000     -6.0646244E-23
   3.480000     -6.0439418E-23
   3.490000     -5.9850536E-23
   3.500000     -5.8839778E-23
   3.510000     -5.7365624E-23
   3.520000     -5.5384978E-23
   3.530000     -5.2853264E-23
   3.540000     -4.9724516E-23
   3.550000     -4.5951489E-23
   3.560000     -4.1485794E-23
   3.570000     -3.6278006E-23
   3.580000     -3.0277823E-23
   3.590000     -2.3434229E-23
   3.600000     -1.5695637E-23
   3.610000     -7.0100799E-24
   3.620000      2.6745678E-24
   3.630000      1.3410355E-23
   3.640000      2.5248992E-23
   3.650000      3.8241572E-23
   3.660000      5.2438210E-23
   3.670000      6.7887691E-23
   3.680000      8.4637038E-23
   3.690000      1.0273106E-22
   3.700000      1.2221185E-22
   3.710000      1.4311820E-22
   3.720000      1.6548503E-22
   3.730000      1.8934272E-22
   3.740000      2.1471643E-22
   3.750000      2.4162534E-22
   3.760000      2.7008192E-22
   3.770000      3.0009099E-22
   3.780000      3.3164909E-22
   3.790000      3.6474338E-22
   3.800000      3.9935090E-22
   3.810000      4.3543754E-22
   3.820000      4.7295723E-22
   3.830000      5.1185077E-22
   3.840000      5.5204527E-22
   3.850000      5.9345266E-22
   3.860000      6.3596916E-22
   3.870000      6.7947404E-22
   3.880000      7.2382878E-22
   3.890000      7.6887589E-22
   3.900000      8.1443812E-22
   3.910000      8.6031742E-22
   3.920000      9.0629379E-22
   3.930000      9.5212437E-22
   3.940000      9.9754226E-22
   3.950000      1.0422560E-21
   3.960000      1.0859477E-21
   3.970000      1.1282729E-21
   3.980000      1.1688592E-21
   3.990000      1.2073051E-21
   4.000000      1.2431794E-21
   4.010000      1.2760197E-21
   4.020000      1.3053328E-21
   4.030000      1.3305925E-21
   4.040000      1.3512401E-21
   4.050000      1.3666830E-21
   4.060000      1.3762946E-21
   4.070000      1.3794142E-21
   4.080000      1.3753465E-21
   4.090000      1.3633616E-21
   4.100000      1.3426957E-21
   4.110000      1.3125508E-21
   4.120000      1.2720960E-21
   4.130000      1.2204681E-21
   4.140000      1.1567726E-21
   4.150000      1.0800851E-21
   4.160000      9.8945311E-22
   4.170000      8.8389782E-22
   4.180000      7.6241647E-22
   4.190000      6.2398494E-22
   4.200000      4.6756011E-22
   4.210000      2.9208331E-22
   4.220000      9.6483886E-23
   4.230000     -1.2031710E-22
   4.240000     -3.5940266E-22
   4.250000     -6.2185549E-22
   4.260000     -9.0875312E-22
   4.270000     -1.2211626E-21
   4.280000     -1.5601343E-21
   4.290000     -1.9266965E-21
   4.300000     -2.3218483E-21
   4.310000     -2.7465527E-21
   4.320000     -3.2017290E-21
   4.330000     -3.6882449E-21
   4.340000     -4.2069085E-21
   4.350000     -4.7584574E-21
   4.360000     -5.3435508E-21
   4.370000     -5.9627585E-21
   4.380000     -6.6165515E-21
   4.390000     -7.3052876E-21
   4.400000     -8.0292039E-21
   4.410000     -8.7883998E-21
   4.420000     -9.5828284E-21
   4.430000     -1.0412280E-20
   4.440000     -1.1276370E-20
   4.450000     -1.2174523E-20
   4.460000     -1.3105961E-20
   4.470000     -1.4069685E-20
   4.480000     -1.5064460E-20
   4.490000     -1.6088805E-20
   4.500000     -1.7140966E-20
   4.510000     -1.8218910E-20
   4.520000     -1.9320304E-20
   4.530000     -2.0442497E-20
   4.540000     -2.1582511E-20
   4.550000     -2.2737012E-20
   4.560000     -2.3902308E-20
   4.570000     -2.5074321E-20
   4.580000     -2.6248578E-20
   4.590000     -2.7420194E-20
   4.600000     -2.8583850E-20
   4.610000     -2.9733789E-20
   4.620000     -3.0863795E-20
   4.630000     -3.1967173E-20
   4.640000     -3.3036757E-20
   4.650000     -3.4064878E-20
   4.660000     -3.5043348E-20
   4.670000     -3.5963483E-20
   4.680000     -3.6816051E-20
   4.690000     -3.7591300E-20
   4.700000     -3.8278930E-20
   4.710000     -3.8868099E-20
   4.720000     -3.9347421E-20
   4.730000     -3.9704960E-20
   4.740000     -3.9928241E-20
   4.750000     -4.0004248E-20
   4.760000     -3.9919426E-20
   4.770000     -3.9659698E-20
   4.780000     -3.9210487E-20
   4.790000     -3.8556714E-20
   4.800000     -3.7682830E-20
   4.810000     -3.6572841E-20
   4.820000     -3.5210316E-20
   4.830000     -3.3578453E-20
   4.840000     -3.1660076E-20
   4.850000     -2.9437700E-20
   4.860000     -2.6893561E-20
   4.870000     -2.4009675E-20
   4.880000     -2.0767880E-20
   4.890000     -1.7149903E-20
   4.900000     -1.3137425E-20
   4.910000     -8.7121441E-21
   4.920000     -3.8558604E-21
   4.930000      1.4494574E-21
   4.940000      7.2215856E-21
   4.950000      1.3477940E-20
   4.960000      2.0235487E-20
   4.970000      2.7510641E-20
   4.980000      3.5319158E-20
   4.990000      4.3676009E-20
   5.000000      5.2595265E-20
   5.010000      6.2089954E-20
   5.020000      7.2171961E-20
   5.030000      8.2851845E-20
   5.040000      9.4138698E-20
   5.050000      1.0604003E-19
   5.060000      1.1856158E-19
   5.070000      1.3170714E-19
   5.080000      1.4547837E-19
   5.090000      1.5987470E-19
   5.100000      1.7489306E-19
   5.110000      1.9052773E-19
   5.120000      2.0677014E-19
   5.130000      2.2360868E-19
   5.140000      2.4102854E-19
   5.150000      2.5901137E-19
   5.160000      2.7753525E-19
   5.170000      2.9657439E-19
   5.180000      3.1609893E-19
   5.190000      3.3607469E-19
   5.200000      3.5646307E-19
   5.210000      3.7722075E-19
   5.220000      3.9829948E-19
   5.230000      4.1964591E-19
   5.240000      4.4120144E-19
   5.250000      4.6290185E-19
   5.260000      4.8467733E-19
   5.270000      5.0645214E-19
   5.280000      5.2814443E-19
   5.290000      5.4966622E-19
   5.300000      5.7092311E-19
   5.310000      5.9181418E-19
   5.320000      6.1223163E-19
   5.330000      6.3206122E-19
   5.340000      6.5118165E-19
   5.350000      6.6946462E-19
   5.360000      6.8677487E-19
   5.370000      7.0297003E-19
   5.380000      7.1790070E-19
   5.390000      7.3141026E-19
   5.400000      7.4333516E-19
   5.410000      7.5350488E-19
   5.420000      7.6174184E-19
   5.430000      7.6786163E-19
   5.440000      7.7167343E-19
   5.450000      7.7297986E-19
   5.460000      7.7157738E-19
   5.470000      7.6725644E-19
   5.480000      7.5980194E-19
   5.490000      7.4899348E-19
   5.500000      7.3460576E-19
   5.510000      7.1640924E-19
   5.520000      6.9417038E-19
   5.530000      6.6765237E-19
   5.540000      6.3661552E-19
   5.550000      6.0081804E-19
   5.560000      5.6001694E-19
   5.570000      5.1396857E-19
   5.580000      4.6242943E-19
   5.590000      4.0515736E-19
   5.600000      3.4191226E-19
   5.610000      2.7245701E-19
   5.620000      1.9655872E-19
   5.630000      1.1398986E-19
   5.640000      2.4529619E-20
   5.650000     -7.2035146E-20
   5.660000     -1.7590838E-19
   5.670000     -2.8728329E-19
   5.680000     -4.0634102E-19
   5.690000     -5.3324917E-19
   5.700000     -6.6816000E-19
   5.710000     -8.1120905E-19
   5.720000     -9.6251315E-19
   5.730000     -1.1221688E-18
   5.740000     -1.2902502E-18
   5.750000     -1.4668073E-18
   5.760000     -1.6518644E-18
   5.770000     -1.8454170E-18
   5.780000     -2.0474312E-18
   5.790000     -2.2578404E-18
   5.800000     -2.4765440E-18
   5.810000     -2.7034047E-18
   5.820000     -2.9382473E-18
   5.830000     -3.1808546E-18
   5.840000     -3.4309673E-18
   5.850000     -3.6882813E-18
   5.860000     -3.9524435E-18
   5.870000     -4.2230527E-18
   5.880000     -4.4996557E-18
   5.890000     -4.7817446E-18
   5.900000     -5.0687556E-18
   5.910000     -5.3600671E-18
   5.920000     -5.6549979E-18
   5.930000     -5.9528045E-18
   5.940000     -6.2526785E-18
   5.950000     -6.5537458E-18
   5.960000     -6.8550662E-18
   5.970000     -7.1556293E-18
   5.980000     -7.4543565E-18
   5.990000     -7.7500934E-18
   6.000000     -8.0416167E-18
   6.010000     -8.3276268E-18
   6.020000     -8.6067514E-18
   6.030000     -8.8775430E-18
   6.040000     -9.1384772E-18
   6.050000     -9.3879548E-18
   6.060000     -9.6243010E-18
   6.070000     -9.8457662E-18
   6.080000     -1.0050529E-17
   6.090000     -1.0236691E-17
   6.100000     -1.0402283E-17
   6.110000     -1.0545266E-17
   6.120000     -1.0663533E-17
   6.130000     -1.0754910E-17
   6.140000     -1.0817161E-17
   6.150000     -1.0847988E-17
   6.160000     -1.0845041E-17
   6.170000     -1.0805913E-17
   6.180000     -1.0728151E-17
   6.190000     -1.0609259E-17
   6.200000     -1.0446704E-17
   6.210000     -1.0237921E-17
   6.220000     -9.9803212E-18
   6.230000     -9.6712973E-18
   6.240000     -9.3082287E-18
   6.250000     -8.8884957E-18
   6.260000     -8.4094837E-18
   6.270000     -7.8685961E-18
   6.280000     -7.2632562E-18
   6.290000     -6.5909255E-18
   6.300000     -5.8491103E-18
   6.310000     -5.0353755E-18
   6.320000     -4.1473541E-18
   6.330000     -3.1827641E-18
   6.340000     -2.1394175E-18
   6.350000     -1.0152345E-18
   6.360000      1.9174056E-19
   6.370000      1.4833256E-18
   6.380000      2.8611847E-18
   6.390000      4.3268106E-18
   6.400000      5.8815118E-18
   6.410000      7.5263956E-18
   6.420000      9.2623491E-18
   6.430000      1.1090020E-17
   6.440000      1.3009801E-17
   6.450000      1.5021810E-17
   6.460000      1.7125873E-17
   6.470000      1.9321506E-17
   6.480000      2.1607893E-17
   6.490000      2.3983864E-17
   6.500000      2.6447884E-17
   6.510000      2.8998027E-17
   6.520000      3.1631956E-17
   6.530000      3.4346911E-17
   6.540000      3.7139675E-17
   6.550000      4.0006577E-17
   6.560000      4.2943449E-17
   6.570000      4.5945625E-17
   6.580000      4.9007914E-17
   6.590000      5.2124588E-17
   6.600000      5.5289361E-17
   6.610000      5.8495367E-17
   6.620000      6.1735169E-17
   6.630000      6.5000719E-17
   6.640000      6.8283343E-17
   6.650000      7.1573748E-17
   6.660000      7.4862009E-17
   6.670000      7.8137545E-17
   6.680000      8.1389120E-17
   6.690000      8.4604827E-17
   6.700000      8.7772102E-17
   6.710000      9.0877715E-17
   6.720000      9.3907744E-17
   6.730000      9.6847610E-17
   6.740000      9.9682067E-17
   6.750000      1.0239521E-16
   6.760000      1.0497046E-16
   6.770000      1.0739062E-16
   6.780000      1.0963787E-16
   6.790000      1.1169373E-16
   6.800000      1.1353921E-16
   6.810000      1.1515466E-16
   6.820000      1.1651996E-16
   6.830000      1.1761443E-16
   6.840000      1.1841691E-16
   6.850000      1.1890581E-16
   6.860000      1.1905914E-16
   6.870000      1.1885452E-16
   6.880000      1.1826930E-16
   6.890000      1.1728054E-16
   6.900000      1.1586508E-16
   6.910000      1.1399966E-16
   6.920000      1.1166093E-16
   6.930000      1.0882550E-16
   6.940000      1.0547003E-16
   6.950000      1.0157137E-16
   6.960000      9.7106557E-17
   6.970000      9.2052914E-17
   6.980000      8.6388195E-17
   6.990000      8.0090625E-17
   7.000000      7.3139005E-17
   7.010000      6.5512857E-17
   7.020000      5.7192485E-17
   7.030000      4.8159114E-17
   7.040000      3.8394984E-17
   7.050000      2.7883481E-17
   7.060000      1.6609249E-17