  -2.600000      0.0000000E+00
  -2.590000      0.0000000E+00
  -2.580000      0.0000000E+00
  -2.570000      0.0000000E+00
  -2.560000      0.0000000E+00
  -2.550000      0.0000000E+00
  -2.540000      0.0000000E+00
  -2.530000      0.0000000E+00
  -2.520000      0.0000000E+00
  -2.510000      0.0000000E+00
  -2.500000      0.0000000E+00
  -2.490000      0.0000000E+00
  -2.480000      0.0000000E+00
  -2.470000      0.0000000E+00
  -2.460000      0.0000000E+00
  -2.450000      0.0000000E+00
  -2.440000      0.0000000E+00
  -2.430000      0.0000000E+00
  -2.420000      0.0000000E+00
  -2.410000      0.0000000E+00
  -2.400000      0.0000000E+00
  -2.390000      0.0000000E+00
  -2.380000      0.0000000E+00
  -2.370000      0.0000000E+00
  -2.360000      0.0000000E+00
  -2.350000      0.0000000E+00
  -2.340000      0.0000000E+00
  -2.330000      0.0000000E+00
  -2.320000      0.0000000E+00
  -2.310000      0.0000000E+00
  -2.300000      0.0000000E+00
  -2.290000      0.0000000E+00
  -2.280000      0.0000000E+00
  -2.270000      0.0000000E+00
  -2.260000      0.0000000E+00
  -2.250000      0.0000000E+00
  -2.240000      0.0000000E+00
  -2.230000      0.0000000E+00
  -2.220000      0.0000000E+00
  -2.210000      0.0000000E+00
  -2.200000      0.0000000E+00
  -2.190000      0.0000000E+00
  -2.180000      0.0000000E+00
  -2.170000      0.0000000E+00
  -2.160000      0.0000000E+00
  -2.150000      0.0000000E+00
  -2.140000      0.0000000E+00
  -2.130000      0.0000000E+00
  -2.120000      0.0000000E+00
  -2.110000      0.0000000E+00
  -2.100000      0.0000000E+00
  -2.090000      0.0000000E+00
  -2.080000      0.0000000E+00
  -2.070000      0.0000000E+00
  -2.060000      0.0000000E+00
  -2.050000      0.0000000E+00
  -2.040000      0.0000000E+00
  -2.030000      0.0000000E+00
  -2.020000      0.0000000E+00
  -2.010000      0.0000000E+00
  -2.000000      0.0000000E+00
  -1.990000      0.0000000E+00
  -1.980000      0.0000000E+00
  -1.970000      0.0000000E+00
  -1.960000      0.0000000E+00
  -1.950000      0.0000000E+00
  -1.940000      0.0000000E+00
  -1.930000      0.0000000E+00
  -1.920000      0.0000000E+00
  -1.910000      0.0000000E+00
  -1.900000      0.0000000E+00
  -1.890000      0.0000000E+00
  -1.880000      0.0000000E+00
  -1.870000      0.0000000E+00
  -1.860000      0.0000000E+00
  -1.850000      0.0000000E+00
  -1.840000      0.0000000E+00
  -1.830000      0.0000000E+00
  -1.820000      0.0000000E+00
  -1.810000      0.0000000E+00
  -1.800000      0.0000000E+00
  -1.790000      0.0000000E+00
  -1.780000      0.0000000E+00
  -1.770000      0.0000000E+00
  -1.760000      0.0000000E+00
  -1.750000      0.0000000E+00
  -1.740000      0.0000000E+00
  -1.730000      0.0000000E+00
  -1.720000      0.0000000E+00
  -1.710000      0.0000000E+00
  -1.700000      0.0000000E+00
  -1.690000      0.0000000E+00
  -1.680000      0.0000000E+00
  -1.670000      0.0000000E+00
  -1.660000      0.0000000E+00
  -1.650000      0.0000000E+00
  -1.640000      0.0000000E+00
  -1.630000      0.0000000E+00
  -1.620000      0.0000000E+00
  -1.610000      0.0000000E+00
  -1.600000      0.0000000E+00
  -1.590000      0.0000000E+00
  -1.580000      0.0000000E+00
  -1.570000      0.0000000E+00
  -1.560000      0.0000000E+00
  -1.550000      0.0000000E+00
  -1.540000      0.0000000E+00
  -1.530000      0.0000000E+00
  -1.520000      0.0000000E+00
  -1.510000      0.0000000E+00
  -1.500000      0.0000000E+00
  -1.490000      0.0000000E+00
  -1.480000      0.0000000E+00
  -1.470000      0.0000000E+00
  -1.460000      0.0000000E+00
  -1.450000      0.0000000E+00
  -1.440000      0.0000000E+00
  -1.430000      0.0000000E+00
  -1.420000      0.0000000E+00
  -1.410000      0.0000000E+00
  -1.400000      0.0000000E+00
  -1.390000      0.0000000E+00
  -1.380000      0.0000000E+00
  -1.370000      0.0000000E+00
  -1.360000      0.0000000E+00
  -1.350000      0.0000000E+00
  -1.340000      0.0000000E+00
  -1.330000      0.0000000E+00
  -1.320000      0.0000000E+00
  -1.310000      0.0000000E+00
  -1.300000      0.0000000E+00
  -1.290000      0.0000000E+00
  -1.280000      0.0000000E+00
  -1.270000      0.0000000E+00
  -1.260000      0.0000000E+00
  -1.250000      0.0000000E+00
  -1.240000      0.0000000E+00
  -1.230000      0.0000000E+00
  -1.220000      0.0000000E+00
  -1.210000      0.0000000E+00
  -1.200000      0.0000000E+00
  -1.190000      0.0000000E+00
  -1.180000      0.0000000E+00
  -1.170000      0.0000000E+00
  -1.160000      0.0000000E+00
  -1.150000      0.0000000E+00
  -1.140000      0.0000000E+00
  -1.130000      0.0000000E+00
  -1.120000      0.0000000E+00
  -1.110000      0.0000000E+00
  -1.100000      0.0000000E+00
  -1.090000      0.0000000E+00
  -1.080000      0.0000000E+00
  -1.070000      0.0000000E+00
  -1.060000      0.0000000E+00
  -1.050000      0.0000000E+00
  -1.040000      0.0000000E+00
  -1.030000      0.0000000E+00
  -1.020000      0.0000000E+00
  -1.010000      0.0000000E+00
  -1.000000      0.0000000E+00
 -0.9900000      0.0000000E+00
 -0.9800000      0.0000000E+00
 -0.9700000      0.0000000E+00
 -0.9600000      0.0000000E+00
 -0.9500000      0.0000000E+00
 -0.9400000      0.0000000E+00
 -0.9300000      0.0000000E+00
 -0.9200000      0.0000000E+00
 -0.9100000      0.0000000E+00
 -0.9000000      0.0000000E+00
 -0.8900000      0.0000000E+00
 -0.8800000      0.0000000E+00
 -0.8700000      0.0000000E+00
 -0.8600000      0.0000000E+00
 -0.8500000      0.0000000E+00
 -0.8400000      0.0000000E+00
 -0.8300000      0.0000000E+00
 -0.8200000      0.0000000E+00
 -0.8100000      0.0000000E+00
 -0.8000000      0.0000000E+00
 -0.7900000      0.0000000E+00
 -0.7800000      0.0000000E+00
 -0.7700000      0.0000000E+00
 -0.7600000      0.0000000E+00
 -0.7500000      0.0000000E+00
 -0.7400000      0.0000000E+00
 -0.7300000      0.0000000E+00
 -0.7200000      0.0000000E+00
 -0.7100000      0.0000000E+00
 -0.7000000      0.0000000E+00
 -0.6900000      0.0000000E+00
 -0.6800000      0.0000000E+00
 -0.6700000      0.0000000E+00
 -0.6600000      0.0000000E+00
 -0.6500000      0.0000000E+00
 -0.6400000      0.0000000E+00
 -0.6300000      0.0000000E+00
 -0.6200000      0.0000000E+00
 -0.6100000      0.0000000E+00
 -0.6000000      0.0000000E+00
 -0.5900000      0.0000000E+00
 -0.5800000      0.0000000E+00
 -0.5700000      0.0000000E+00
 -0.5600000      0.0000000E+00
 -0.5500000      0.0000000E+00
 -0.5400000      0.0000000E+00
 -0.5300000      0.0000000E+00
 -0.5200000      0.0000000E+00
 -0.5100000      0.0000000E+00
 -0.5000000      0.0000000E+00
 -0.4900000      0.0000000E+00
 -0.4800000      0.0000000E+00
 -0.4700000      0.0000000E+00
 -0.4600000      0.0000000E+00
 -0.4500000      0.0000000E+00
 -0.4400000      0.0000000E+00
 -0.4300000      0.0000000E+00
 -0.4200000      0.0000000E+00
 -0.4100000      0.0000000E+00
 -0.4000000      0.0000000E+00
 -0.3900000      0.0000000E+00
 -0.3800000      0.0000000E+00
 -0.3700000      0.0000000E+00
 -0.3600000      0.0000000E+00
 -0.3500000      0.0000000E+00
 -0.3400000      0.0000000E+00
 -0.3300000      0.0000000E+00
 -0.3200000      0.0000000E+00
 -0.3100000      0.0000000E+00
 -0.3000000      0.0000000E+00
 -0.2900000      0.0000000E+00
 -0.2800000      0.0000000E+00
 -0.2700000      0.0000000E+00
 -0.2600000      0.0000000E+00
 -0.2500000      0.0000000E+00
 -0.2400000      0.0000000E+00
 -0.2300000      0.0000000E+00
 -0.2200000      0.0000000E+00
 -0.2100000      0.0000000E+00
 -0.2000000      0.0000000E+00
 -0.1900000      0.0000000E+00
 -0.1800000      0.0000000E+00
 -0.1700000      0.0000000E+00
 -0.1600000      0.0000000E+00
 -0.1500000      0.0000000E+00
 -0.1400000      0.0000000E+00
 -0.1300000      0.0000000E+00
 -0.1200000      0.0000000E+00
 -0.1100000      0.0000000E+00
 -0.1000000      0.0000000E+00
 -9.0000004E-02  0.0000000E+00
 -7.9999998E-02  0.0000000E+00
 -7.0000000E-02  0.0000000E+00
 -5.9999999E-02  0.0000000E+00
 -5.0000001E-02  0.0000000E+00
 -3.9999999E-02  0.0000000E+00
 -2.9999999E-02  0.0000000E+00
 -2.0000000E-02  0.0000000E+00
 -9.9999998E-03  0.0000000E+00
 -3.4694470E-17  0.0000000E+00
  9.9999998E-03  0.0000000E+00
  2.0000000E-02  0.0000000E+00
  2.9999999E-02  0.0000000E+00
  3.9999999E-02  0.0000000E+00
  5.0000001E-02  0.0000000E+00
  5.9999999E-02  0.0000000E+00
  7.0000000E-02  0.0000000E+00
  7.9999998E-02  0.0000000E+00
  9.0000004E-02  0.0000000E+00
  0.1000000      0.0000000E+00
  0.1100000      0.0000000E+00
  0.1200000      0.0000000E+00
  0.1300000      0.0000000E+00
  0.1400000      0.0000000E+00
  0.1500000      0.0000000E+00
  0.1600000      0.0000000E+00
  0.1700000      0.0000000E+00
  0.1800000      0.0000000E+00
  0.1900000      0.0000000E+00
  0.2000000      0.0000000E+00
  0.2100000      0.0000000E+00
  0.2200000      0.0000000E+00
  0.2300000      0.0000000E+00
  0.2400000      0.0000000E+00
  0.2500000      0.0000000E+00
  0.2600000      0.0000000E+00
  0.2700000      0.0000000E+00
  0.2800000      0.0000000E+00
  0.2900000      0.0000000E+00
  0.3000000      0.0000000E+00
  0.3100000      0.0000000E+00
  0.3200000      0.0000000E+00
  0.3300000      0.0000000E+00
  0.3400000      0.0000000E+00
  0.3500000      0.0000000E+00
  0.3600000      0.0000000E+00
  0.3700000      0.0000000E+00
  0.3800000      0.0000000E+00
  0.3900000      0.0000000E+00
  0.4000000      0.0000000E+00
  0.4100000     -1.8194211E-38
  0.4200000     -2.8439882E-38
  0.4300000     -4.0447597E-38
  0.4400000     -5.3824446E-38
  0.4500000     -7.1100494E-38
  0.4600000     -9.2471731E-38
  0.4700000     -1.1420222E-37
  0.4800000     -1.3632689E-37
  0.4900000     -1.6052088E-37
  0.5000000     -1.8724751E-37
  0.5100000     -2.0962717E-37
  0.5200000     -2.2391420E-37
  0.5300000     -2.2333904E-37
  0.5400000     -2.0313850E-37
  0.5500000     -1.7020204E-37
  0.5600000     -1.2460747E-37
  0.5700000     -4.9766930E-38
  0.5800000      5.4988689E-38
  0.5900000      1.6489540E-37
  0.6000000      2.8743786E-37
  0.6100000      4.3613121E-37
  0.6200000      6.0888024E-37
  0.6300000      7.8150348E-37
  0.6400000      9.4391249E-37
  0.6500000      1.0971165E-36
  0.6600000      1.2386214E-36
  0.6700000      1.3756963E-36
  0.6800000      1.5012940E-36
  0.6900000      1.6156357E-36
  0.7000000      1.6852041E-36
  0.7100000      1.7685832E-36
  0.7200000      1.9026249E-36
  0.7300000      2.0498945E-36
  0.7400000      2.2094863E-36
  0.7500000      2.3848394E-36
  0.7600000      2.5658344E-36
  0.7700000      2.7257799E-36
  0.7800000      2.8445039E-36
  0.7900000      2.9085914E-36
  0.8000000      2.8254069E-36
  0.8100000      2.4865766E-36
  0.8200000      1.8656376E-36
  0.8300000      9.2018593E-37
  0.8400000     -3.1671103E-37
  0.8500000     -1.7905662E-36
  0.8600000     -3.5997585E-36
  0.8700000     -5.7429625E-36
  0.8800000     -8.1665418E-36
  0.8900000     -1.0838482E-35
  0.9000000     -1.3644403E-35
  0.9100000     -1.6513860E-35
  0.9200000     -1.9388418E-35
  0.9300000     -2.2224984E-35
  0.9400000     -2.4929494E-35
  0.9500000     -2.7459273E-35
  0.9600000     -2.9867899E-35
  0.9700000     -3.2059700E-35
  0.9800000     -3.3815816E-35
  0.9900000     -3.5144893E-35
   1.000000     -3.6183788E-35
   1.010000     -3.6894328E-35
   1.020000     -3.7205564E-35
   1.030000     -3.6961580E-35
   1.040000     -3.6191999E-35
   1.050000     -3.5294531E-35
   1.060000     -3.4156514E-35
   1.070000     -3.2656240E-35
   1.080000     -3.0760259E-35
   1.090000     -2.7903481E-35
   1.100000     -2.4050363E-35
   1.110000     -1.9397491E-35
   1.120000     -1.4668948E-35
   1.130000     -1.0039588E-35
   1.140000     -4.6194291E-36
   1.150000      1.5975708E-36
   1.160000      8.3828453E-36
   1.170000      1.6329331E-35
   1.180000      2.5782049E-35
   1.190000      3.6728754E-35
   1.200000      4.9199880E-35
   1.210000      6.2676584E-35
   1.220000      7.4480378E-35
   1.230000      8.4230008E-35
   1.240000      9.4923522E-35
   1.250000      1.0655246E-34
   1.260000      1.1944265E-34
   1.270000      1.3667685E-34
   1.280000      1.5290030E-34
   1.290000      1.6112130E-34
   1.300000      1.6389133E-34
   1.310000      1.6448400E-34
   1.320000      1.6283386E-34
   1.330000      1.6670732E-34
   1.340000      1.7822478E-34
   1.350000      1.8957907E-34
   1.360000      2.0286264E-34
   1.370000      2.2022370E-34
   1.380000      2.3941245E-34
   1.390000      2.5951407E-34
   1.400000      2.8207107E-34
   1.410000      3.0506556E-34
   1.420000      3.2587018E-34
   1.430000      3.4412000E-34
   1.440000      3.6165268E-34
   1.450000      3.7972132E-34
   1.460000      3.9596481E-34
   1.470000      4.0978527E-34
   1.480000      4.2168417E-34
   1.490000      4.3079260E-34
   1.500000      4.3510487E-34
   1.510000      4.3244187E-34
   1.520000      4.2249825E-34
   1.530000      4.0796666E-34
   1.540000      3.8720288E-34
   1.550000      3.5647048E-34
   1.560000      3.1687473E-34
   1.570000      2.7071718E-34
   1.580000      2.1582983E-34
   1.590000      1.4888171E-34
   1.600000      7.1441146E-35
   1.610000     -1.2425812E-35
   1.620000     -1.0294888E-34
   1.630000     -2.0171811E-34
   1.640000     -3.0745121E-34
   1.650000     -4.1930738E-34
   1.660000     -5.3692550E-34
   1.670000     -6.6049655E-34
   1.680000     -7.9203395E-34
   1.690000     -9.3049277E-34
   1.700000     -1.0745813E-33
   1.710000     -1.2254122E-33
   1.720000     -1.3812012E-33
   1.730000     -1.5425489E-33
   1.740000     -1.7097755E-33
   1.750000     -1.8810444E-33
   1.760000     -2.0564987E-33
   1.770000     -2.2369143E-33
   1.780000     -2.4198402E-33
   1.790000     -2.6046312E-33
   1.800000     -2.7918678E-33
   1.810000     -2.9780587E-33
   1.820000     -3.1616419E-33
   1.830000     -3.3409963E-33
   1.840000     -3.5123551E-33
   1.850000     -3.6727362E-33
   1.860000     -3.8200260E-33
   1.870000     -3.9502903E-33
   1.880000     -4.0588659E-33
   1.890000     -4.1415524E-33
   1.900000     -4.1937410E-33
   1.910000     -4.2101928E-33
   1.920000     -4.1853182E-33
   1.930000     -4.1138607E-33
   1.940000     -3.9905634E-33
   1.950000     -3.8099590E-33
   1.960000     -3.5661428E-33
   1.970000     -3.2532611E-33
   1.980000     -2.8677142E-33
   1.990000     -2.4028083E-33
   2.000000     -1.8534284E-33
   2.010000     -1.2181169E-33
   2.020000     -4.9080429E-34
   2.030000      3.3321647E-34
   2.040000      1.2559028E-33
   2.050000      2.2797967E-33
   2.060000      3.4068883E-33
   2.070000      4.6384912E-33
   2.080000      5.9751675E-33
   2.090000      7.4167735E-33
   2.100000      8.9616604E-33
   2.110000      1.0607334E-32
   2.120000      1.2350640E-32
   2.130000      1.4187018E-32
   2.140000      1.6110368E-32
   2.150000      1.8113040E-32
   2.160000      2.0186305E-32
   2.170000      2.2319486E-32
   2.180000      2.4499984E-32
   2.190000      2.6713703E-32
   2.200000      2.8944494E-32
   2.210000      3.1173887E-32
   2.220000      3.3381786E-32
   2.230000      3.5545042E-32
   2.240000      3.7638330E-32
   2.250000      3.9634834E-32
   2.260000      4.1505016E-32
   2.270000      4.3216968E-32
   2.280000      4.4736488E-32
   2.290000      4.6027195E-32
   2.300000      4.7050516E-32
   2.310000      4.7765813E-32
   2.320000      4.8130622E-32
   2.330000      4.8100650E-32
   2.340000      4.7630085E-32
   2.350000      4.6672033E-32
   2.360000      4.5178471E-32
   2.370000      4.3100940E-32
   2.380000      4.0390773E-32
   2.390000      3.6999214E-32
   2.400000      3.2878177E-32
   2.410000      2.7980606E-32
   2.420000      2.2261004E-32
   2.430000      1.5675900E-32
   2.440000      8.1844926E-33
   2.450000     -2.5076738E-34
   2.460000     -9.6636120E-33
   2.470000     -2.0083233E-32
   2.480000     -3.1533620E-32
   2.490000     -4.4032816E-32
   2.500000     -5.7592170E-32
   2.510000     -7.2215608E-32
   2.520000     -8.7898807E-32
   2.530000     -1.0462847E-31
   2.540000     -1.2238147E-31
   2.550000     -1.4112409E-31
   2.560000     -1.6081134E-31
   2.570000     -1.8138605E-31
   2.580000     -2.0277828E-31
   2.590000     -2.2490461E-31
   2.600000     -2.4766747E-31
   2.610000     -2.7095474E-31
   2.620000     -2.9463914E-31
   2.630000     -3.1857766E-31
   2.640000     -3.4261146E-31
   2.650000     -3.6656552E-31
   2.660000     -3.9024851E-31
   2.670000     -4.1345282E-31
   2.680000     -4.3595437E-31
   2.690000     -4.5751307E-31
   2.700000     -4.7787325E-31
   2.710000     -4.9676372E-31
   2.720000     -5.1389872E-31
   2.730000     -5.2897862E-31
   2.740000     -5.4169079E-31
   2.750000     -5.5171070E-31
   2.760000     -5.5870330E-31
   2.770000     -5.6232457E-31
   2.780000     -5.6222291E-31
   2.790000     -5.5804140E-31
   2.800000     -5.4941943E-31
   2.810000     -5.3599552E-31
   2.820000     -5.1740940E-31
   2.830000     -4.9330495E-31
   2.840000     -4.6333309E-31
   2.850000     -4.2715495E-31
   2.860000     -3.8444515E-31
   2.870000     -3.3489582E-31
   2.880000     -2.7821976E-31
   2.890000     -2.1415478E-31
   2.900000     -1.4246783E-31
   2.910000     -6.2959236E-32
   2.920000      2.4532896E-32
   2.930000      1.2012787E-31
   2.940000      2.2389827E-31
   2.950000      3.3586514E-31
   2.960000      4.5599283E-31
   2.970000      5.8418505E-31
   2.980000      7.2027988E-31
   2.990000      8.6404571E-31
   3.000000      1.0151768E-30
   3.010000      1.1732892E-30
   3.020000      1.3379170E-30
   3.030000      1.5085091E-30
   3.040000      1.6844255E-30
   3.050000      1.8649348E-30
   3.060000      2.0492118E-30
   3.070000      2.2363359E-30
   3.080000      2.4252890E-30
   3.090000      2.6149553E-30
   3.100000      2.8041203E-30
   3.110000      2.9914714E-30
   3.120000      3.1755993E-30
   3.130000      3.3549989E-30
   3.140000      3.5280719E-30
   3.150000      3.6931298E-30
   3.160000      3.8483989E-30
   3.170000      3.9920232E-30
   3.180000      4.1220720E-30
   3.190000      4.2365448E-30
   3.200000      4.3333807E-30
   3.210000      4.4104650E-30
   3.220000      4.4656413E-30
   3.230000      4.4967222E-30
   3.240000      4.5014994E-30
   3.250000      4.4777589E-30
   3.260000      4.4232946E-30
   3.270000      4.3359243E-30
   3.280000      4.2135070E-30
   3.290000      4.0539603E-30
   3.300000      3.8552803E-30
   3.310000      3.6155626E-30
   3.320000      3.3330211E-30
   3.330000      3.0060140E-30
   3.340000      2.6330650E-30
   3.350000      2.2128886E-30
   3.360000      1.7444146E-30
   3.370000      1.2268138E-30
   3.380000      6.5952394E-31
   3.390000      4.2275106E-32
   3.400000     -6.2488363E-31
   3.410000     -1.3415561E-30
   3.420000     -2.1069749E-30
   3.430000     -2.9199776E-30
   3.440000     -3.7789777E-30
   3.450000     -4.6819428E-30
   3.460000     -5.6263711E-30
   3.470000     -6.6092695E-30
   3.480000     -7.6271332E-30
   3.490000     -8.6759262E-30
   3.500000     -9.7510623E-30
   3.510000     -1.0847391E-29
   3.520000     -1.1959186E-29
   3.530000     -1.3080129E-29
   3.540000     -1.4203308E-29
   3.550000     -1.5321208E-29
   3.560000     -1.6425707E-29
   3.570000     -1.7508078E-29
   3.580000     -1.8559001E-29
   3.590000     -1.9568562E-29
   3.600000     -2.0526266E-29
   3.610000     -2.1421066E-29
   3.620000     -2.2241366E-29
   3.630000     -2.2975068E-29
   3.640000     -2.3609598E-29
   3.650000     -2.4131940E-29
   3.660000     -2.4528690E-29
   3.670000     -2.4786106E-29
   3.680000     -2.4890157E-29
   3.690000     -2.4826600E-29
   3.700000     -2.4581043E-29
   3.710000     -2.4139034E-29
   3.720000     -2.3486139E-29
   3.730000     -2.2608051E-29
   3.740000     -2.1490670E-29
   3.750000     -2.0120226E-29
   3.760000     -1.8483384E-29
   3.770000     -1.6567394E-29
   3.780000     -1.4360187E-29
   3.790000     -1.1850528E-29
   3.800000     -9.0281562E-30
   3.810000     -5.8839338E-30
   3.820000     -2.4100010E-30
   3.830000      1.4000676E-30
   3.840000      5.5510958E-30
   3.850000      1.0046132E-29
   3.860000      1.4886296E-29
   3.870000      2.0070600E-29
   3.880000      2.5595753E-29
   3.890000      3.1456018E-29
   3.900000      3.7642987E-29
   3.910000      4.4145432E-29
   3.920000      5.0949123E-29
   3.930000      5.8036641E-29
   3.940000      6.5387217E-29
   3.950000      7.2976519E-29
   3.960000      8.0776529E-29
   3.970000      8.8755368E-29
   3.980000      9.6877147E-29
   3.990000      1.0510179E-28
   4.000000      1.1338491E-28
   4.010000      1.2167770E-28
   4.020000      1.2992680E-28
   4.030000      1.3807421E-28
   4.040000      1.4605722E-28
   4.050000      1.5380832E-28
   4.060000      1.6125519E-28
   4.070000      1.6832068E-28
   4.080000      1.7492279E-28
   4.090000      1.8097473E-28
   4.100000      1.8638496E-28
   4.110000      1.9105734E-28
   4.120000      1.9489119E-28
   4.130000      1.9778153E-28
   4.140000      1.9961924E-28
   4.150000      2.0029131E-28
   4.160000      1.9968109E-28
   4.170000      1.9766866E-28
   4.180000      1.9413120E-28
   4.190000      1.8894333E-28
   4.200000      1.8197774E-28
   4.210000      1.7310554E-28
   4.220000      1.6219688E-28
   4.230000      1.4912153E-28
   4.240000      1.3374961E-28
   4.250000      1.1595226E-28
   4.260000      9.5602482E-29
   4.270000      7.2575889E-29
   4.280000      4.6751528E-29
   4.290000      1.8012970E-29
   4.300000     -1.3750795E-29
   4.310000     -4.8644257E-29
   4.320000     -8.6764281E-29
   4.330000     -1.2819900E-28
   4.340000     -1.7302645E-28
   4.350000     -2.2131347E-28
   4.360000     -2.7311432E-28
   4.370000     -3.2846918E-28
   4.380000     -3.8740288E-28
   4.390000     -4.4992319E-28
   4.400000     -5.1601956E-28
   4.410000     -5.8566143E-28
   4.420000     -6.5879664E-28
   4.430000     -7.3534971E-28
   4.440000     -8.1522024E-28
   4.450000     -8.9828156E-28
   4.460000     -9.8437833E-28
   4.470000     -1.0733254E-27
   4.480000     -1.1649056E-27
   4.490000     -1.2588690E-27
   4.500000     -1.3549301E-27
   4.510000     -1.4527672E-27
   4.520000     -1.5520201E-27
   4.530000     -1.6522886E-27
   4.540000     -1.7531317E-27
   4.550000     -1.8540646E-27
   4.560000     -1.9545599E-27
   4.570000     -2.0540432E-27
   4.580000     -2.1518951E-27
   4.590000     -2.2474478E-27
   4.600000     -2.3399854E-27
   4.610000     -2.4287427E-27
   4.620000     -2.5129049E-27
   4.630000     -2.5916068E-27
   4.640000     -2.6639336E-27
   4.650000     -2.7289191E-27
   4.660000     -2.7855474E-27
   4.670000     -2.8327535E-27
   4.680000     -2.8694226E-27
   4.690000     -2.8943927E-27
   4.700000     -2.9064548E-27
   4.710000     -2.9043547E-27
   4.720000     -2.8867958E-27
   4.730000     -2.8524409E-27
   4.740000     -2.7999141E-27
   4.750000     -2.7278053E-27
   4.760000     -2.6346735E-27
   4.770000     -2.5190497E-27
   4.780000     -2.3794421E-27
   4.790000     -2.2143422E-27
   4.800000     -2.0222274E-27
   4.810000     -1.8015692E-27
   4.820000     -1.5508397E-27
   4.830000     -1.2685171E-27
   4.840000     -9.5309381E-28
   4.850000     -6.0308561E-28
   4.860000     -2.1703993E-28
   4.870000      2.0645620E-28
   4.880000      6.6876405E-28
   4.890000      1.1711861E-27
   4.900000      1.7149518E-27
   4.910000      2.3012055E-27
   4.920000      2.9309975E-27
   4.930000      3.6052684E-27
   4.940000      4.3248379E-27
   4.950000      5.0903885E-27
   4.960000      5.9024507E-27
   4.970000      6.7613915E-27
   4.980000      7.6673952E-27
   4.990000      8.6204501E-27
   5.000000      9.6203275E-27
   5.010000      1.0666567E-26
   5.020000      1.1758465E-26
   5.030000      1.2895043E-26
   5.040000      1.4075044E-26
   5.050000      1.5296904E-26
   5.060000      1.6558736E-26
   5.070000      1.7858318E-26
   5.080000      1.9193060E-26
   5.090000      2.0559995E-26
   5.100000      2.1955763E-26
   5.110000      2.3376585E-26
   5.120000      2.4818240E-26
   5.130000      2.6276057E-26
   5.140000      2.7744894E-26
   5.150000      2.9219124E-26
   5.160000      3.0692600E-26
   5.170000      3.2158667E-26
   5.180000      3.3610128E-26
   5.190000      3.5039226E-26
   5.200000      3.6437664E-26
   5.210000      3.7796554E-26
   5.220000      3.9106420E-26
   5.230000      4.0357206E-26
   5.240000      4.1538247E-26
   5.250000      4.2638283E-26
   5.260000      4.3645440E-26
   5.270000      4.4547237E-26
   5.280000      4.5330601E-26
   5.290000      4.5981858E-26
   5.300000      4.6486741E-26
   5.310000      4.6830404E-26
   5.320000      4.6997442E-26
   5.330000      4.6971912E-26
   5.340000      4.6737343E-26
   5.350000      4.6276769E-26
   5.360000      4.5572760E-26
   5.370000      4.4607453E-26
   5.380000      4.3362584E-26
   5.390000      4.1819560E-26
   5.400000      3.9959475E-26
   5.410000      3.7763178E-26
   5.420000      3.5211340E-26
   5.430000      3.2284508E-26
   5.440000      2.8963179E-26
   5.450000      2.5227889E-26
   5.460000      2.1059266E-26
   5.470000      1.6438129E-26
   5.480000      1.1345612E-26
   5.490000      5.7632294E-27
   5.500000     -3.2700446E-28
   5.510000     -6.9424205E-27
   5.520000     -1.4099633E-26
   5.530000     -2.1814426E-26
   5.540000     -3.0101555E-26
   5.550000     -3.8974625E-26
   5.560000     -4.8445967E-26
   5.570000     -5.8526435E-26
   5.580000     -6.9225305E-26
   5.590000     -8.0550082E-26
   5.600000     -9.2506286E-26
   5.610000     -1.0509731E-25
   5.620000     -1.1832433E-25
   5.630000     -1.3218597E-25
   5.640000     -1.4667811E-25
   5.650000     -1.6179381E-25
   5.660000     -1.7752299E-25
   5.670000     -1.9385235E-25
   5.680000     -2.1076500E-25
   5.690000     -2.2824034E-25
   5.700000     -2.4625393E-25
   5.710000     -2.6477707E-25
   5.720000     -2.8377669E-25
   5.730000     -3.0321523E-25
   5.740000     -3.2305027E-25
   5.750000     -3.4323446E-25
   5.760000     -3.6371517E-25
   5.770000     -3.8443445E-25
   5.780000     -4.0532866E-25
   5.790000     -4.2632834E-25
   5.800000     -4.4735814E-25
   5.810000     -4.6833656E-25
   5.820000     -4.8917580E-25
   5.830000     -5.0978154E-25
   5.840000     -5.3005285E-25
   5.850000     -5.4988220E-25
   5.860000     -5.6915511E-25
   5.870000     -5.8775033E-25
   5.880000     -6.0553954E-25
   5.890000     -6.2238754E-25
   5.900000     -6.3815204E-25
   5.910000     -6.5268369E-25
   5.920000     -6.6582626E-25
   5.930000     -6.7741665E-25
   5.940000     -6.8728486E-25
   5.950000     -6.9525437E-25
   5.960000     -7.0114214E-25
   5.970000     -7.0475872E-25
   5.980000     -7.0590863E-25
   5.990000     -7.0439076E-25
   6.000000     -6.9999858E-25
   6.010000     -6.9252053E-25
   6.020000     -6.8174025E-25
   6.030000     -6.6743751E-25
   6.040000     -6.4938833E-25
   6.050000     -6.2736565E-25
   6.060000     -6.0114021E-25
   6.070000     -5.7048084E-25
   6.080000     -5.3515569E-25
   6.090000     -4.9493291E-25
   6.100000     -4.4958105E-25
   6.110000     -3.9887036E-25
   6.120000     -3.4257404E-25
   6.130000     -2.8046897E-25
   6.140000     -2.1233675E-25
   6.150000     -1.3796510E-25
   6.160000     -5.7149158E-26
   6.170000      3.0307272E-26
   6.180000      1.2459037E-25
   6.190000      2.2587496E-25
   6.200000      3.3432263E-25
   6.210000      4.5008040E-25
   6.220000      5.7327917E-25
   6.230000      7.0403164E-25
   6.240000      8.4243107E-25
   6.250000      9.8854911E-25
   6.260000      1.1424340E-24
   6.270000      1.3041088E-24
   6.280000      1.4735690E-24
   6.290000      1.6507813E-24
   6.300000      1.8356805E-24
   6.310000      2.0281683E-24
   6.320000      2.2281112E-24
   6.330000      2.4353377E-24
   6.340000      2.6496367E-24
   6.350000      2.8707552E-24
   6.360000      3.0983962E-24
   6.370000      3.3322171E-24
   6.380000      3.5718261E-24
   6.390000      3.8167816E-24
   6.400000      4.0665894E-24
   6.410000      4.3207012E-24
   6.420000      4.5785124E-24
   6.430000      4.8393591E-24
   6.440000      5.1025192E-24
   6.450000      5.3672065E-24
   6.460000      5.6325738E-24
   6.470000      5.8977071E-24
   6.480000      6.1616265E-24
   6.490000      6.4232841E-24
   6.500000      6.6815651E-24
   6.510000      6.9352825E-24
   6.520000      7.1831812E-24
   6.530000      7.4239345E-24
   6.540000      7.6561452E-24
   6.550000      7.8783428E-24
   6.560000      8.0889900E-24
   6.570000      8.2864750E-24
   6.580000      8.4691176E-24
   6.590000      8.6351697E-24
   6.600000      8.7828144E-24
   6.610000      8.9101697E-24
   6.620000      9.0152925E-24
   6.630000      9.0961737E-24
   6.640000      9.1507471E-24
   6.650000      9.1768946E-24
   6.660000      9.1724439E-24
   6.670000      9.1351742E-24
   6.680000      9.0628214E-24
   6.690000      8.9530877E-24
   6.700000      8.8036372E-24
   6.710000      8.6121089E-24
   6.720000      8.3761251E-24
   6.730000      8.0932908E-24
   6.740000      7.7612049E-24
   6.750000      7.3774698E-24
   6.760000      6.9397009E-24
   6.770000      6.4455284E-24
   6.780000      5.8926150E-24
   6.790000      5.2786612E-24
   6.800000      4.6014174E-24
   6.810000      3.8586966E-24
   6.820000      3.0483877E-24
   6.830000      2.1684629E-24
   6.840000      1.2169913E-24
   6.850000      1.9215468E-25
   6.860000     -9.0773564E-25
   6.870000     -2.0842305E-24
   6.880000     -3.3387244E-24
   6.890000     -4.6724405E-24
   6.900000     -6.0864161E-24
   6.910000     -7.5814810E-24
   6.920000     -9.1582531E-24
   6.930000     -1.0817108E-23
   6.940000     -1.2558169E-23
   6.950000     -1.4381283E-23
   6.960000     -1.6286014E-23
   6.970000     -1.8271620E-23
   6.980000     -2.0337014E-23
   6.990000     -2.2480778E-23
   7.000000     -2.4701130E-23
   7.010000     -2.6995906E-23
   7.020000     -2.9362545E-23
   7.030000     -3.1798071E-23
   7.040000     -3.4299060E-23
   7.050000     -3.6861637E-23
   7.060000     -3.9481463E-23