  -2.600000      0.0000000E+00
  -2.590000      0.0000000E+00
  -2.580000      0.0000000E+00
  -2.570000      0.0000000E+00
  -2.560000      0.0000000E+00
  -2.550000      0.0000000E+00
  -2.540000      0.0000000E+00
  -2.530000      0.0000000E+00
  -2.520000      0.0000000E+00
  -2.510000      0.0000000E+00
  -2.500000      0.0000000E+00
  -2.490000      0.0000000E+00
  -2.480000      0.0000000E+00
  -2.470000      0.0000000E+00
  -2.460000      0.0000000E+00
  -2.450000      0.0000000E+00
  -2.440000      0.0000000E+00
  -2.430000      0.0000000E+00
  -2.420000      0.0000000E+00
  -2.410000      0.0000000E+00
  -2.400000      0.0000000E+00
  -2.390000      0.0000000E+00
  -2.380000      0.0000000E+00
  -2.370000      0.0000000E+00
  -2.360000      0.0000000E+00
  -2.350000      0.0000000E+00
  -2.340000      0.0000000E+00
  -2.330000      0.0000000E+00
  -2.320000      0.0000000E+00
  -2.310000      0.0000000E+00
  -2.300000      0.0000000E+00
  -2.290000      0.0000000E+00
  -2.280000      0.0000000E+00
  -2.270000      0.0000000E+00
  -2.260000      0.0000000E+00
  -2.250000      0.0000000E+00
  -2.240000      0.0000000E+00
  -2.230000      0.0000000E+00
  -2.220000      0.0000000E+00
  -2.210000      0.0000000E+00
  -2.200000      0.0000000E+00
  -2.190000      0.0000000E+00
  -2.180000      0.0000000E+00
  -2.170000      0.0000000E+00
  -2.160000      0.0000000E+00
  -2.150000      0.0000000E+00
  -2.140000      0.0000000E+00
  -2.130000      0.0000000E+00
  -2.120000      0.0000000E+00
  -2.110000      0.0000000E+00
  -2.100000      0.0000000E+00
  -2.090000      0.0000000E+00
  -2.080000      0.0000000E+00
  -2.070000      0.0000000E+00
  -2.060000      0.0000000E+00
  -2.050000      0.0000000E+00
  -2.040000      0.0000000E+00
  -2.030000      0.0000000E+00
  -2.020000      0.0000000E+00
  -2.010000      0.0000000E+00
  -2.000000      0.0000000E+00
  -1.990000      0.0000000E+00
  -1.980000      0.0000000E+00
  -1.970000      0.0000000E+00
  -1.960000      0.0000000E+00
  -1.950000      0.0000000E+00
  -1.940000      0.0000000E+00
  -1.930000      0.0000000E+00
  -1.920000      0.0000000E+00
  -1.910000      0.0000000E+00
  -1.900000      0.0000000E+00
  -1.890000      0.0000000E+00
  -1.880000      0.0000000E+00
  -1.870000      0.0000000E+00
  -1.860000      0.0000000E+00
  -1.850000      0.0000000E+00
  -1.840000      0.0000000E+00
  -1.830000      0.0000000E+00
  -1.820000      0.0000000E+00
  -1.810000      0.0000000E+00
  -1.800000      0.0000000E+00
  -1.790000      0.0000000E+00
  -1.780000      0.0000000E+00
  -1.770000      0.0000000E+00
  -1.760000      0.0000000E+00
  -1.750000      0.0000000E+00
  -1.740000      0.0000000E+00
  -1.730000      0.0000000E+00
  -1.720000      0.0000000E+00
  -1.710000      0.0000000E+00
  -1.700000      0.0000000E+00
  -1.690000      0.0000000E+00
  -1.680000      0.0000000E+00
  -1.670000      0.0000000E+00
  -1.660000      0.0000000E+00
  -1.650000      0.0000000E+00
  -1.640000      0.0000000E+00
  -1.630000      0.0000000E+00
  -1.620000      0.0000000E+00
  -1.610000      0.0000000E+00
  -1.600000      0.0000000E+00
  -1.590000      0.0000000E+00
  -1.580000      0.0000000E+00
  -1.570000      0.0000000E+00
  -1.560000      0.0000000E+00
  -1.550000      0.0000000E+00
  -1.540000      0.0000000E+00
  -1.530000      0.0000000E+00
  -1.520000      0.0000000E+00
  -1.510000      0.0000000E+00
  -1.500000      0.0000000E+00
  -1.490000      0.0000000E+00
  -1.480000      0.0000000E+00
  -1.470000      0.0000000E+00
  -1.460000      0.0000000E+00
  -1.450000      0.0000000E+00
  -1.440000      0.0000000E+00
  -1.430000      0.0000000E+00
  -1.420000      0.0000000E+00
  -1.410000      0.0000000E+00
  -1.400000      0.0000000E+00
  -1.390000      0.0000000E+00
  -1.380000      0.0000000E+00
  -1.370000      0.0000000E+00
  -1.360000      0.0000000E+00
  -1.350000      0.0000000E+00
  -1.340000      0.0000000E+00
  -1.330000      0.0000000E+00
  -1.320000      0.0000000E+00
  -1.310000      0.0000000E+00
  -1.300000      0.0000000E+00
  -1.290000      0.0000000E+00
  -1.280000      0.0000000E+00
  -1.270000      0.0000000E+00
  -1.260000      0.0000000E+00
  -1.250000      0.0000000E+00
  -1.240000      0.0000000E+00
  -1.230000      0.0000000E+00
  -1.220000      0.0000000E+00
  -1.210000      0.0000000E+00
  -1.200000      0.0000000E+00
  -1.190000      0.0000000E+00
  -1.180000      0.0000000E+00
  -1.170000      0.0000000E+00
  -1.160000      0.0000000E+00
  -1.150000      1.6179234E-38
  -1.140000      3.0770482E-38
  -1.130000      4.9516456E-38
  -1.120000      7.0354745E-38
  -1.110000      9.3678338E-38
  -1.100000      1.1485678E-37
  -1.090000      1.2287362E-37
  -1.080000      1.0851567E-37
  -1.070000      7.0390927E-38
  -1.060000      0.0000000E+00
  -1.050000     -7.8686804E-38
  -1.040000     -1.9456164E-37
  -1.030000     -3.3937514E-37
  -1.020000     -5.1067280E-37
  -1.010000     -7.1504700E-37
  -1.000000     -9.1608428E-37
 -0.9900000     -1.0815352E-36
 -0.9800000     -1.2056181E-36
 -0.9700000     -1.2558218E-36
 -0.9600000     -1.1958491E-36
 -0.9500000     -9.9635191E-37
 -0.9400000     -6.2181124E-37
 -0.9300000     -3.6747830E-38
 -0.9200000      8.1648133E-37
 -0.9100000      1.9871953E-36
 -0.9000000      3.4058227E-36
 -0.8900000      5.0401071E-36
 -0.8800000      6.8295268E-36
 -0.8700000      8.6992917E-36
 -0.8600000      1.0524364E-35
 -0.8500000      1.2043983E-35
 -0.8400000      1.3092731E-35
 -0.8300000      1.3237968E-35
 -0.8200000      1.1918084E-35
 -0.8100000      8.8244771E-36
 -0.8000000      3.9534159E-36
 -0.7900000     -1.7388988E-36
 -0.7800000     -8.4807570E-36
 -0.7700000     -1.7216481E-35
 -0.7600000     -2.7785369E-35
 -0.7500000     -3.9947103E-35
 -0.7400000     -5.3271378E-35
 -0.7300000     -6.6962724E-35
 -0.7200000     -7.9974540E-35
 -0.7100000     -9.0600269E-35
 -0.7000000     -9.7758415E-35
 -0.6900000     -1.0074744E-34
 -0.6800000     -9.7686772E-35
 -0.6700000     -8.6641476E-35
 -0.6600000     -6.5592757E-35
 -0.6500000     -3.3118865E-35
 -0.6400000      1.2536464E-35
 -0.6300000      7.2641585E-35
 -0.6200000      1.4558160E-34
 -0.6100000      2.3042697E-34
 -0.6000000      3.2590090E-34
 -0.5900000      4.2639056E-34
 -0.5800000      5.2398170E-34
 -0.5700000      6.1295905E-34
 -0.5600000      6.8825984E-34
 -0.5500000      7.4069075E-34
 -0.5400000      7.5833753E-34
 -0.5300000      7.2946574E-34
 -0.5200000      6.4386082E-34
 -0.5100000      4.9329492E-34
 -0.5000000      2.6655407E-34
 -0.4900000     -4.5356059E-35
 -0.4800000     -4.4472055E-34
 -0.4700000     -9.3195607E-34
 -0.4600000     -1.4992642E-33
 -0.4500000     -2.1306309E-33
 -0.4400000     -2.8029284E-33
 -0.4300000     -3.4864578E-33
 -0.4200000     -4.1408824E-33
 -0.4100000     -4.7147683E-33
 -0.4000000     -5.1497430E-33
 -0.3900000     -5.3794736E-33
 -0.3800000     -5.3330768E-33
 -0.3700000     -4.9430346E-33
 -0.3600000     -4.1414135E-33
 -0.3500000     -2.8641170E-33
 -0.3400000     -1.0651840E-33
 -0.3300000      1.2840783E-33
 -0.3200000      4.1828578E-33
 -0.3100000      7.5979672E-33
 -0.3000000      1.1458690E-32
 -0.2900000      1.5646456E-32
 -0.2800000      1.9994167E-32
 -0.2700000      2.4282106E-32
 -0.2600000      2.8236582E-32
 -0.2500000      3.1538534E-32
 -0.2400000      3.3826014E-32
 -0.2300000      3.4701363E-32
 -0.2200000      3.3751208E-32
 -0.2100000      3.0564328E-32
 -0.2000000      2.4752961E-32
 -0.1900000      1.5983172E-32
 -0.1800000      4.0057332E-33
 -0.1700000     -1.1314841E-32
 -0.1600000     -2.9962916E-32
 -0.1500000     -5.1738820E-32
 -0.1400000     -7.6228757E-32
 -0.1300000     -1.0277810E-31
 -0.1200000     -1.3047187E-31
 -0.1100000     -1.5812510E-31
 -0.1000000     -1.8428518E-31
 -9.0000004E-02 -2.0724781E-31
 -7.9999998E-02 -2.2508979E-31
 -7.0000000E-02 -2.3572080E-31
 -5.9999999E-02 -2.3695298E-31
 -5.0000001E-02 -2.2659022E-31
 -3.9999999E-02 -2.0253610E-31
 -2.9999999E-02 -1.6291898E-31
 -2.0000000E-02 -1.0623116E-31
 -9.9999998E-03 -3.1477658E-32
 -3.4694470E-17  6.1670348E-32
  9.9999998E-03  1.7272418E-31
  2.0000000E-02  3.0023724E-31
  2.9999999E-02  4.4168293E-31
  3.9999999E-02  5.9336129E-31
  5.0000001E-02  7.5034569E-31
  5.9999999E-02  9.0647842E-31
  7.0000000E-02  1.0544267E-30
  7.9999998E-02  1.1858083E-30
  9.0000004E-02  1.2913958E-30
  0.1000000      1.3614061E-30
  0.1100000      1.3858801E-30
  0.1200000      1.3551567E-30
  0.1300000      1.2604408E-30
  0.1400000      1.0944604E-30
  0.1500000      8.5220717E-31
  0.1600000      5.3175551E-31
  0.1700000      1.3514058E-31
  0.1800000     -3.3071734E-31
  0.1900000     -8.5305841E-31
  0.2000000     -1.4123220E-30
  0.2100000     -1.9812009E-30
  0.2200000     -2.5237309E-30
  0.2300000     -2.9944410E-30
  0.2400000     -3.3375884E-30
  0.2500000     -3.4864933E-30
  0.2600000     -3.3629972E-30
  0.2700000     -2.8770615E-30
  0.2800000     -1.9265128E-30
  0.2900000     -3.9694789E-31
  0.3000000      1.8381980E-30
  0.3100000      4.9174220E-30
  0.3200000      8.9907646E-30
  0.3300000      1.4219260E-29
  0.3400000      2.0774246E-29
  0.3500000      2.8836549E-29
  0.3600000      3.8595516E-29
  0.3700000      5.0247973E-29
  0.3800000      6.3997027E-29
  0.3900000      8.0050833E-29
  0.4000000      9.8621197E-29
  0.4100000      1.1992214E-28
  0.4200000      1.4416834E-28
  0.4300000      1.7157335E-28
  0.4400000      2.0234790E-28
  0.4500000      2.3669795E-28
  0.4600000      2.7482250E-28
  0.4700000      3.1691129E-28
  0.4800000      3.6314252E-28
  0.4900000      4.1367998E-28
  0.5000000      4.6867019E-28
  0.5100000      5.2823973E-28
  0.5200000      5.9249164E-28
  0.5300000      6.6150258E-28
  0.5400000      7.3531938E-28
  0.5500000      8.1395596E-28
  0.5600000      8.9739043E-28
  0.5700000      9.8556210E-28
  0.5800000      1.0783700E-27
  0.5900000      1.1756698E-27
  0.6000000      1.2772745E-27
  0.6100000      1.3829535E-27
  0.6200000      1.4924339E-27
  0.6300000      1.6054033E-27
  0.6400000      1.7215131E-27
  0.6500000      1.8403834E-27
  0.6600000      1.9616101E-27
  0.6700000      2.0847726E-27
  0.6800000      2.2094436E-27
  0.6900000      2.3352001E-27
  0.7000000      2.4616349E-27
  0.7100000      2.5883705E-27
  0.7200000      2.7150728E-27
  0.7300000      2.8414647E-27
  0.7400000      2.9673427E-27
  0.7500000      3.0925894E-27
  0.7600000      3.2171855E-27
  0.7700000      3.3412250E-27
  0.7800000      3.4649259E-27
  0.7900000      3.5886396E-27
  0.8000000      3.7128571E-27
  0.8100000      3.8382131E-27
  0.8200000      3.9654921E-27
  0.8300000      4.0956264E-27
  0.8400000      4.2296946E-27
  0.8500000      4.3689189E-27
  0.8600000      4.5146548E-27
  0.8700000      4.6683837E-27
  0.8800000      4.8317087E-27
  0.8900000      5.0063405E-27
  0.9000000      5.1940871E-27
  0.9100000      5.3968424E-27
  0.9200000      5.6165783E-27
  0.9300000      5.8553320E-27
  0.9400000      6.1152051E-27
  0.9500000      6.3983510E-27
  0.9600000      6.7069701E-27
  0.9700000      7.0433145E-27
  0.9800000      7.4096803E-27
  0.9900000      7.8084002E-27
   1.000000      8.2418608E-27
   1.010000      8.7124888E-27
   1.020000      9.2227516E-27
   1.030000      9.7751630E-27
   1.040000      1.0372271E-26
   1.050000      1.1016646E-26
   1.060000      1.1710885E-26
   1.070000      1.2457587E-26
   1.080000      1.3259320E-26
   1.090000      1.4118626E-26
   1.100000      1.5037971E-26
   1.110000      1.6019710E-26
   1.120000      1.7066054E-26
   1.130000      1.8179028E-26
   1.140000      1.9360431E-26
   1.150000      2.0611774E-26
   1.160000      2.1934267E-26
   1.170000      2.3328762E-26
   1.180000      2.4795727E-26
   1.190000      2.6335200E-26
   1.200000      2.7946772E-26
   1.210000      2.9629613E-26
   1.220000      3.1382406E-26
   1.230000      3.3203387E-26
   1.240000      3.5090370E-26
   1.250000      3.7040767E-26
   1.260000      3.9051619E-26
   1.270000      4.1119658E-26
   1.280000      4.3241324E-26
   1.290000      4.5412821E-26
   1.300000      4.7630201E-26
   1.310000      4.9889372E-26
   1.320000      5.2186206E-26
   1.330000      5.4516495E-26
   1.340000      5.6876002E-26
   1.350000      5.9260556E-26
   1.360000      6.1665929E-26
   1.370000      6.4087898E-26
   1.380000      6.6522175E-26
   1.390000      6.8964371E-26
   1.400000      7.1409951E-26
   1.410000      7.3854138E-26
   1.420000      7.6291878E-26
   1.430000      7.8717644E-26
   1.440000      8.1125562E-26
   1.450000      8.3509148E-26
   1.460000      8.5861285E-26
   1.470000      8.8174157E-26
   1.480000      9.0439304E-26
   1.490000      9.2647504E-26
   1.500000      9.4788719E-26
   1.510000      9.6852244E-26
   1.520000      9.8826725E-26
   1.530000      1.0070012E-25
   1.540000      1.0245993E-25
   1.550000      1.0409323E-25
   1.560000      1.0558662E-25
   1.570000      1.0692662E-25
   1.580000      1.0809941E-25
   1.590000      1.0909107E-25
   1.600000      1.0988770E-25
   1.610000      1.1047534E-25
   1.620000      1.1083986E-25
   1.630000      1.1096699E-25
   1.640000      1.1084207E-25
   1.650000      1.1045018E-25
   1.660000      1.0977576E-25
   1.670000      1.0880227E-25
   1.680000      1.0751207E-25
   1.690000      1.0588584E-25
   1.700000      1.0390266E-25
   1.710000      1.0153951E-25
   1.720000      9.8770716E-26
   1.730000      9.5567960E-26
   1.740000      9.1899991E-26
   1.750000      8.7732278E-26
   1.760000      8.3026932E-26
   1.770000      7.7742667E-26
   1.780000      7.1834716E-26
   1.790000      6.5254919E-26
   1.800000      5.7951941E-26
   1.810000      4.9871543E-26
   1.820000      4.0956401E-26
   1.830000      3.1146768E-26
   1.840000      2.0380822E-26
   1.850000      8.5946950E-27
   1.860000     -4.2768683E-27
   1.870000     -1.8300290E-26
   1.880000     -3.3543044E-26
   1.890000     -5.0073494E-26
   1.900000     -6.7960324E-26
   1.910000     -8.7272458E-26
   1.920000     -1.0807979E-25
   1.930000     -1.3045330E-25
   1.940000     -1.5446459E-25
   1.950000     -1.8018668E-25
   1.960000     -2.0769428E-25
   1.970000     -2.3706367E-25
   1.980000     -2.6837368E-25
   1.990000     -3.0170602E-25
   2.000000     -3.3714490E-25
   2.010000     -3.7477793E-25
   2.020000     -4.1469639E-25
   2.030000     -4.5699457E-25
   2.040000     -5.0176888E-25
   2.050000     -5.4911868E-25
   2.060000     -5.9914528E-25
   2.070000     -6.5195035E-25
   2.080000     -7.0763560E-25
   2.090000     -7.6630160E-25
   2.100000     -8.2804629E-25
   2.110000     -8.9296343E-25
   2.120000     -9.6114191E-25
   2.130000     -1.0326634E-24
   2.140000     -1.1076012E-24
   2.150000     -1.1860183E-24
   2.160000     -1.2679666E-24
   2.170000     -1.3534866E-24
   2.180000     -1.4426055E-24
   2.190000     -1.5353361E-24
   2.200000     -1.6316776E-24
   2.210000     -1.7316152E-24
   2.220000     -1.8351190E-24
   2.230000     -1.9421464E-24
   2.240000     -2.0526384E-24
   2.250000     -2.1665229E-24
   2.260000     -2.2837152E-24
   2.270000     -2.4041183E-24
   2.280000     -2.5276220E-24
   2.290000     -2.6541038E-24
   2.300000     -2.7834277E-24
   2.310000     -2.9154451E-24
   2.320000     -3.0499936E-24
   2.330000     -3.1868967E-24
   2.340000     -3.3259614E-24
   2.350000     -3.4669754E-24
   2.360000     -3.6097084E-24
   2.370000     -3.7539082E-24
   2.380000     -3.8993000E-24
   2.390000     -4.0455824E-24
   2.400000     -4.1924273E-24
   2.410000     -4.3394769E-24
   2.420000     -4.4863435E-24
   2.430000     -4.6326070E-24
   2.440000     -4.7778142E-24
   2.450000     -4.9214819E-24
   2.460000     -5.0630955E-24
   2.470000     -5.2021105E-24
   2.480000     -5.3379571E-24
   2.490000     -5.4700404E-24
   2.500000     -5.5977444E-24
   2.510000     -5.7204387E-24
   2.520000     -5.8374816E-24
   2.530000     -5.9482254E-24
   2.540000     -6.0520225E-24
   2.550000     -6.1482293E-24
   2.560000     -6.2362113E-24
   2.570000     -6.3153502E-24
   2.580000     -6.3850481E-24
   2.590000     -6.4447313E-24
   2.600000     -6.4938549E-24
   2.610000     -6.5319060E-24
   2.620000     -6.5584062E-24
   2.630000     -6.5729161E-24
   2.640000     -6.5750373E-24
   2.650000     -6.5644121E-24
   2.660000     -6.5407270E-24
   2.670000     -6.5037148E-24
   2.680000     -6.4531583E-24
   2.690000     -6.3888918E-24
   2.700000     -6.3108044E-24
   2.710000     -6.2188449E-24
   2.720000     -6.1130267E-24
   2.730000     -5.9934342E-24
   2.740000     -5.8602307E-24
   2.750000     -5.7136647E-24
   2.760000     -5.5540797E-24
   2.770000     -5.3819235E-24
   2.780000     -5.1977615E-24
   2.790000     -5.0022841E-24
   2.800000     -4.7963141E-24
   2.810000     -4.5808238E-24
   2.820000     -4.3569399E-24
   2.830000     -4.1259528E-24
   2.840000     -3.8893241E-24
   2.850000     -3.6486860E-24
   2.860000     -3.4058529E-24
   2.870000     -3.1628159E-24
   2.880000     -2.9217455E-24
   2.890000     -2.6849871E-24
   2.900000     -2.4550495E-24
   2.910000     -2.2345976E-24
   2.920000     -2.0264486E-24
   2.930000     -1.8335545E-24
   2.940000     -1.6589832E-24
   2.950000     -1.5059061E-24
   2.960000     -1.3775802E-24
   2.970000     -1.2773293E-24
   2.980000     -1.2085256E-24
   2.990000     -1.1745741E-24
   3.000000     -1.1788903E-24
   3.010000     -1.2248780E-24
   3.020000     -1.3159141E-24
   3.030000     -1.4553264E-24
   3.040000     -1.6463753E-24
   3.050000     -1.8922326E-24
   3.060000     -2.1959602E-24
   3.070000     -2.5604891E-24
   3.080000     -2.9885911E-24
   3.090000     -3.4828540E-24
   3.100000     -4.0456519E-24
   3.110000     -4.6791072E-24
   3.120000     -5.3850592E-24
   3.130000     -6.1650186E-24
   3.140000     -7.0201253E-24
   3.150000     -7.9510987E-24
   3.160000     -8.9581822E-24
   3.170000     -1.0041083E-23
   3.180000     -1.1198920E-23
   3.190000     -1.2430154E-23
   3.200000     -1.3732525E-23
   3.210000     -1.5102982E-23
   3.220000     -1.6537620E-23
   3.230000     -1.8031617E-23
   3.240000     -1.9579160E-23
   3.250000     -2.1173382E-23
   3.260000     -2.2806316E-23
   3.270000     -2.4468828E-23
   3.280000     -2.6150569E-23
   3.290000     -2.7839939E-23
   3.300000     -2.9524038E-23
   3.310000     -3.1188645E-23
   3.320000     -3.2818179E-23
   3.330000     -3.4395689E-23
   3.340000     -3.5902843E-23
   3.350000     -3.7319899E-23
   3.360000     -3.8625729E-23
   3.370000     -3.9797818E-23
   3.380000     -4.0812252E-23
   3.390000     -4.1643743E-23
   3.400000     -4.2265662E-23
   3.410000     -4.2650046E-23
   3.420000     -4.2767627E-23
   3.430000     -4.2587890E-23
   3.440000     -4.2079078E-23
   3.450000     -4.1208279E-23
   3.460000     -3.9941479E-23
   3.470000     -3.8243633E-23
   3.480000     -3.6078749E-23
   3.490000     -3.3410001E-23
   3.500000     -3.0199839E-23
   3.510000     -2.6410126E-23
   3.520000     -2.2002310E-23
   3.530000     -1.6937591E-23
   3.540000     -1.1177119E-23
   3.550000     -4.6822236E-24
   3.560000      2.5853104E-24
   3.570000      1.0662992E-23
   3.580000      1.9587330E-23
   3.590000      2.9393475E-23
   3.600000      4.0114899E-23
   3.610000      5.1782994E-23
   3.620000      6.4426693E-23
   3.630000      7.8072024E-23
   3.640000      9.2741726E-23
   3.650000      1.0845474E-22
   3.660000      1.2522576E-22
   3.670000      1.4306472E-22
   3.680000      1.6197634E-22
   3.690000      1.8195955E-22
   3.700000      2.0300697E-22
   3.710000      2.2510443E-22
   3.720000      2.4823032E-22
   3.730000      2.7235510E-22
   3.740000      2.9744072E-22
   3.750000      3.2343999E-22
   3.760000      3.5029599E-22
   3.770000      3.7794152E-22
   3.780000      4.0629838E-22
   3.790000      4.3527689E-22
   3.800000      4.6477509E-22
   3.810000      4.9467829E-22
   3.820000      5.2485827E-22
   3.830000      5.5517269E-22
   3.840000      5.8546454E-22
   3.850000      6.1556137E-22
   3.860000      6.4527484E-22
   3.870000      6.7440004E-22
   3.880000      7.0271492E-22
   3.890000      7.2997982E-22
   3.900000      7.5593706E-22
   3.910000      7.8031026E-22
   3.920000      8.0280418E-22
   3.930000      8.2310449E-22
   3.940000      8.4087726E-22
   3.950000      8.5576903E-22
   3.960000      8.6740651E-22
   3.970000      8.7539710E-22
   3.980000      8.7932853E-22
   3.990000      8.7876934E-22
   4.000000      8.7326897E-22
   4.010000      8.6235861E-22
   4.020000      8.4555166E-22
   4.030000      8.2234445E-22
   4.040000      7.9221704E-22
   4.050000      7.5463439E-22
   4.060000      7.0904762E-22
   4.070000      6.5489511E-22
   4.080000      5.9160408E-22
   4.090000      5.1859241E-22
   4.100000      4.3527037E-22
   4.110000      3.4104277E-22
   4.120000      2.3531130E-22
   4.130000      1.1747696E-22
   4.140000     -1.3057261E-23
   4.150000     -1.5688333E-22
   4.160000     -3.1458503E-22
   4.170000     -4.8673470E-22
   4.180000     -6.7388931E-22
   4.190000     -8.7658607E-22
   4.200000     -1.0953391E-21
   4.210000     -1.3306342E-21
   4.220000     -1.5829242E-21
   4.230000     -1.8526235E-21
   4.240000     -2.1401037E-21
   4.250000     -2.4456863E-21
   4.260000     -2.7696382E-21
   4.270000     -3.1121637E-21
   4.280000     -3.4734001E-21
   4.290000     -3.8534092E-21
   4.300000     -4.2521700E-21
   4.310000     -4.6695739E-21
   4.320000     -5.1054137E-21
   4.330000     -5.5593783E-21
   4.340000     -6.0310441E-21
   4.350000     -6.5198659E-21
   4.360000     -7.0251690E-21
   4.370000     -7.5461417E-21
   4.380000     -8.0818252E-21
   4.390000     -8.6311062E-21
   4.400000     -9.1927078E-21
   4.410000     -9.7651773E-21
   4.420000     -1.0346882E-20
   4.430000     -1.0936001E-20
   4.440000     -1.1530508E-20
   4.450000     -1.2128175E-20
   4.460000     -1.2726550E-20
   4.470000     -1.3322959E-20
   4.480000     -1.3914495E-20
   4.490000     -1.4498004E-20
   4.500000     -1.5070089E-20
   4.510000     -1.5627090E-20
   4.520000     -1.6165083E-20
   4.530000     -1.6679879E-20
   4.540000     -1.7167009E-20
   4.550000     -1.7621723E-20
   4.560000     -1.8038985E-20
   4.570000     -1.8413473E-20
   4.580000     -1.8739575E-20
   4.590000     -1.9011378E-20
   4.600000     -1.9222684E-20
   4.610000     -1.9366999E-20
   4.620000     -1.9437549E-20
   4.630000     -1.9427261E-20
   4.640000     -1.9328786E-20
   4.650000     -1.9134505E-20
   4.660000     -1.8836528E-20
   4.670000     -1.8426716E-20
   4.680000     -1.7896683E-20
   4.690000     -1.7237812E-20
   4.700000     -1.6441281E-20
   4.710000     -1.5498069E-20
   4.720000     -1.4398983E-20
   4.730000     -1.3134684E-20
   4.740000     -1.1695703E-20
   4.750000     -1.0072474E-20
   4.760000     -8.2553724E-21
   4.770000     -6.2347410E-21
   4.780000     -4.0009288E-21
   4.790000     -1.5443331E-21
   4.800000      1.1445640E-21
   4.810000      4.0751433E-21
   4.820000      7.2565986E-21
   4.830000      1.0697891E-20
   4.840000      1.4407688E-20
   4.850000      1.8394300E-20
   4.860000      2.2665628E-20
   4.870000      2.7229083E-20
   4.880000      3.2091525E-20
   4.890000      3.7259191E-20
   4.900000      4.2737608E-20
   4.910000      4.8531520E-20
   4.920000      5.4644811E-20
   4.930000      6.1080386E-20
   4.940000      6.7840119E-20
   4.950000      7.4924753E-20
   4.960000      8.2333771E-20
   4.970000      9.0065344E-20
   4.980000      9.8116171E-20
   4.990000      1.0648144E-19
   5.000000      1.1515467E-19
   5.010000      1.2412761E-19
   5.020000      1.3339015E-19
   5.030000      1.4293021E-19
   5.040000      1.5273358E-19
   5.050000      1.6278386E-19
   5.060000      1.7306231E-19
   5.070000      1.8354776E-19
   5.080000      1.9421645E-19
   5.090000      2.0504198E-19
   5.100000      2.1599516E-19
   5.110000      2.2704389E-19
   5.120000      2.3815308E-19
   5.130000      2.4928453E-19
   5.140000      2.6039682E-19
   5.150000      2.7144516E-19
   5.160000      2.8238147E-19
   5.170000      2.9315410E-19
   5.180000      3.0370781E-19
   5.190000      3.1398375E-19
   5.200000      3.2391933E-19
   5.210000      3.3344824E-19
   5.220000      3.4250026E-19
   5.230000      3.5100138E-19
   5.240000      3.5887370E-19
   5.250000      3.6603546E-19
   5.260000      3.7240095E-19
   5.270000      3.7788058E-19
   5.280000      3.8238104E-19
   5.290000      3.8580510E-19
   5.300000      3.8805193E-19
   5.310000      3.8901699E-19
   5.320000      3.8859229E-19
   5.330000      3.8666638E-19
   5.340000      3.8312460E-19
   5.350000      3.7784925E-19
   5.360000      3.7071981E-19
   5.370000      3.6161307E-19
   5.380000      3.5040338E-19
   5.390000      3.3696309E-19
   5.400000      3.2116277E-19
   5.410000      3.0287159E-19
   5.420000      2.8195746E-19
   5.430000      2.5828774E-19
   5.440000      2.3172948E-19
   5.450000      2.0215011E-19
   5.460000      1.6941763E-19
   5.470000      1.3340138E-19
   5.480000      9.3972545E-20
   5.490000      5.1004819E-20
   5.500000      4.3748835E-21
   5.510000     -4.6036818E-20
   5.520000     -1.0034522E-19
   5.530000     -1.5865994E-19
   5.540000     -2.2108470E-19
   5.550000     -2.8771616E-19
   5.560000     -3.5864339E-19
   5.570000     -4.3394665E-19
   5.580000     -5.1369658E-19
   5.590000     -5.9795336E-19
   5.600000     -6.8676531E-19
   5.610000     -7.8016837E-19
   5.620000     -8.7818457E-19
   5.630000     -9.8082124E-19
   5.640000     -1.0880697E-18
   5.650000     -1.1999041E-18
   5.660000     -1.3162801E-18
   5.670000     -1.4371342E-18
   5.680000     -1.5623823E-18
   5.690000     -1.6919177E-18
   5.700000     -1.8256110E-18
   5.710000     -1.9633084E-18
   5.720000     -2.1048303E-18
   5.730000     -2.2499699E-18
   5.740000     -2.3984927E-18
   5.750000     -2.5501341E-18
   5.760000     -2.7045996E-18
   5.770000     -2.8615621E-18
   5.780000     -3.0206618E-18
   5.790000     -3.1815048E-18
   5.800000     -3.3436619E-18
   5.810000     -3.5066676E-18
   5.820000     -3.6700188E-18
   5.830000     -3.8331736E-18
   5.840000     -3.9955516E-18
   5.850000     -4.1565321E-18
   5.860000     -4.3154538E-18
   5.870000     -4.4716127E-18
   5.880000     -4.6242651E-18
   5.890000     -4.7726229E-18
   5.900000     -4.9158562E-18
   5.910000     -5.0530917E-18
   5.920000     -5.1834136E-18
   5.930000     -5.3058619E-18
   5.940000     -5.4194355E-18
   5.950000     -5.5230899E-18
   5.960000     -5.6157399E-18
   5.970000     -5.6962581E-18
   5.980000     -5.7634781E-18
   5.990000     -5.8161939E-18
   6.000000     -5.8531631E-18
   6.010000     -5.8731068E-18
   6.020000     -5.8747124E-18
   6.030000     -5.8566340E-18
   6.040000     -5.8174984E-18
   6.050000     -5.7559036E-18
   6.060000     -5.6704253E-18
   6.070000     -5.5596161E-18
   6.080000     -5.4220138E-18
   6.090000     -5.2561397E-18
   6.100000     -5.0605061E-18
   6.110000     -4.8336212E-18
   6.120000     -4.5739912E-18
   6.130000     -4.2801261E-18
   6.140000     -3.9505464E-18
   6.150000     -3.5837881E-18
   6.160000     -3.1784084E-18
   6.170000     -2.7329905E-18
   6.180000     -2.2461533E-18
   6.190000     -1.7165571E-18
   6.200000     -1.1429090E-18
   6.210000     -5.2397311E-19
   6.220000      1.4142176E-19
   6.230000      8.5437474E-19
   6.240000      1.6159037E-18
   6.250000      2.4269359E-18
   6.260000      3.2882996E-18
   6.270000      4.2007147E-18
   6.280000      5.1647805E-18
   6.290000      6.1809690E-18
   6.300000      7.2496127E-18
   6.310000      8.3708933E-18
   6.320000      9.5448330E-18
   6.330000      1.0771280E-17
   6.340000      1.2049904E-17
   6.350000      1.3380177E-17
   6.360000      1.4761367E-17
   6.370000      1.6192527E-17
   6.380000      1.7672477E-17
   6.390000      1.9199802E-17
   6.400000      2.0772831E-17
   6.410000      2.2389633E-17
   6.420000      2.4048005E-17
   6.430000      2.5745456E-17
   6.440000      2.7479196E-17
   6.450000      2.9246135E-17
   6.460000      3.1042861E-17
   6.470000      3.2865633E-17
   6.480000      3.4710378E-17
   6.490000      3.6572679E-17
   6.500000      3.8447759E-17
   6.510000      4.0330478E-17
   6.520000      4.2215328E-17
   6.530000      4.4096429E-17
   6.540000      4.5967512E-17
   6.550000      4.7821922E-17
   6.560000      4.9652611E-17
   6.570000      5.1452143E-17
   6.580000      5.3212681E-17
   6.590000      5.4925990E-17
   6.600000      5.6583442E-17
   6.610000      5.8176016E-17
   6.620000      5.9694290E-17
   6.630000      6.1128455E-17
   6.640000      6.2468349E-17
   6.650000      6.3703389E-17
   6.660000      6.4822677E-17
   6.670000      6.5814930E-17
   6.680000      6.6668554E-17
   6.690000      6.7371598E-17
   6.700000      6.7911839E-17
   6.710000      6.8276745E-17
   6.720000      6.8453517E-17
   6.730000      6.8429132E-17
   6.740000      6.8190328E-17
   6.750000      6.7723685E-17
   6.760000      6.7015599E-17
   6.770000      6.6052351E-17
   6.780000      6.4820143E-17
   6.790000      6.3305092E-17
   6.800000      6.1493348E-17
   6.810000      5.9371080E-17
   6.820000      5.6924518E-17
   6.830000      5.4140037E-17
   6.840000      5.1004188E-17
   6.850000      4.7503755E-17
   6.860000      4.3625800E-17
   6.870000      3.9357747E-17
   6.880000      3.4687412E-17
   6.890000      2.9603100E-17
   6.900000      2.4093637E-17
   6.910000      1.8148475E-17
   6.920000      1.1757745E-17
   6.930000      4.9123142E-18
   6.940000     -2.3961050E-18
   6.950000     -1.0174906E-17
   6.960000     -1.8430489E-17
   6.970000     -2.7168183E-17
   6.980000     -3.6392165E-17
   6.990000     -4.6105380E-17
   7.000000     -5.6309447E-17
   7.010000     -6.7004574E-17
   7.020000     -7.8189453E-17
   7.030000     -8.9861203E-17
   7.040000     -1.0201527E-16
   7.050000     -1.1464531E-16
   7.060000     -1.2774314E-16