  -2.600000      0.0000000E+00
  -2.590000      0.0000000E+00
  -2.580000      0.0000000E+00
  -2.570000      0.0000000E+00
  -2.560000      0.0000000E+00
  -2.550000      0.0000000E+00
  -2.540000      0.0000000E+00
  -2.530000      0.0000000E+00
  -2.520000      0.0000000E+00
  -2.510000      0.0000000E+00
  -2.500000      0.0000000E+00
  -2.490000      0.0000000E+00
  -2.480000      0.0000000E+00
  -2.470000      0.0000000E+00
  -2.460000      0.0000000E+00
  -2.450000      0.0000000E+00
  -2.440000      0.0000000E+00
  -2.430000      0.0000000E+00
  -2.420000      0.0000000E+00
  -2.410000      0.0000000E+00
  -2.400000      0.0000000E+00
  -2.390000      0.0000000E+00
  -2.380000      0.0000000E+00
  -2.370000      0.0000000E+00
  -2.360000      0.0000000E+00
  -2.350000      0.0000000E+00
  -2.340000      0.0000000E+00
  -2.330000      0.0000000E+00
  -2.320000      0.0000000E+00
  -2.310000      0.0000000E+00
  -2.300000      0.0000000E+00
  -2.290000      0.0000000E+00
  -2.280000      0.0000000E+00
  -2.270000      0.0000000E+00
  -2.260000      0.0000000E+00
  -2.250000      0.0000000E+00
  -2.240000      0.0000000E+00
  -2.230000      0.0000000E+00
  -2.220000      0.0000000E+00
  -2.210000      0.0000000E+00
  -2.200000      0.0000000E+00
  -2.190000      0.0000000E+00
  -2.180000      0.0000000E+00
  -2.170000      0.0000000E+00
  -2.160000      0.0000000E+00
  -2.150000      0.0000000E+00
  -2.140000      0.0000000E+00
  -2.130000      0.0000000E+00
  -2.120000      0.0000000E+00
  -2.110000      0.0000000E+00
  -2.100000      0.0000000E+00
  -2.090000      0.0000000E+00
  -2.080000      0.0000000E+00
  -2.070000      0.0000000E+00
  -2.060000      0.0000000E+00
  -2.050000      0.0000000E+00
  -2.040000      0.0000000E+00
  -2.030000      0.0000000E+00
  -2.020000      0.0000000E+00
  -2.010000      0.0000000E+00
  -2.000000      0.0000000E+00
  -1.990000      0.0000000E+00
  -1.980000      0.0000000E+00
  -1.970000      0.0000000E+00
  -1.960000      0.0000000E+00
  -1.950000      0.0000000E+00
  -1.940000      0.0000000E+00
  -1.930000      0.0000000E+00
  -1.920000      0.0000000E+00
  -1.910000      0.0000000E+00
  -1.900000      0.0000000E+00
  -1.890000      0.0000000E+00
  -1.880000      0.0000000E+00
  -1.870000      0.0000000E+00
  -1.860000      0.0000000E+00
  -1.850000      0.0000000E+00
  -1.840000      0.0000000E+00
  -1.830000      0.0000000E+00
  -1.820000      0.0000000E+00
  -1.810000      0.0000000E+00
  -1.800000      0.0000000E+00
  -1.790000      0.0000000E+00
  -1.780000      0.0000000E+00
  -1.770000      0.0000000E+00
  -1.760000      0.0000000E+00
  -1.750000      0.0000000E+00
  -1.740000      0.0000000E+00
  -1.730000      0.0000000E+00
  -1.720000      0.0000000E+00
  -1.710000      0.0000000E+00
  -1.700000      0.0000000E+00
  -1.690000      0.0000000E+00
  -1.680000      0.0000000E+00
  -1.670000      0.0000000E+00
  -1.660000      0.0000000E+00
  -1.650000      0.0000000E+00
  -1.640000      0.0000000E+00
  -1.630000      0.0000000E+00
  -1.620000      0.0000000E+00
  -1.610000      0.0000000E+00
  -1.600000      0.0000000E+00
  -1.590000      0.0000000E+00
  -1.580000      0.0000000E+00
  -1.570000      0.0000000E+00
  -1.560000      0.0000000E+00
  -1.550000      0.0000000E+00
  -1.540000      0.0000000E+00
  -1.530000      0.0000000E+00
  -1.520000      0.0000000E+00
  -1.510000      0.0000000E+00
  -1.500000      0.0000000E+00
  -1.490000      0.0000000E+00
  -1.480000      0.0000000E+00
  -1.470000      0.0000000E+00
  -1.460000      0.0000000E+00
  -1.450000      0.0000000E+00
  -1.440000      0.0000000E+00
  -1.430000      0.0000000E+00
  -1.420000      0.0000000E+00
  -1.410000      0.0000000E+00
  -1.400000      0.0000000E+00
  -1.390000      0.0000000E+00
  -1.380000      0.0000000E+00
  -1.370000      0.0000000E+00
  -1.360000      0.0000000E+00
  -1.350000      0.0000000E+00
  -1.340000      0.0000000E+00
  -1.330000      0.0000000E+00
  -1.320000      0.0000000E+00
  -1.310000      0.0000000E+00
  -1.300000      0.0000000E+00
  -1.290000      0.0000000E+00
  -1.280000      0.0000000E+00
  -1.270000      0.0000000E+00
  -1.260000      0.0000000E+00
  -1.250000      0.0000000E+00
  -1.240000      0.0000000E+00
  -1.230000      0.0000000E+00
  -1.220000      0.0000000E+00
  -1.210000      0.0000000E+00
  -1.200000      1.7133791E-38
  -1.190000      2.6672438E-38
  -1.180000      3.4035665E-38
  -1.170000      3.9202947E-38
  -1.160000      4.4575439E-38
  -1.150000      1.7516562E-38
  -1.140000     -5.1435232E-38
  -1.130000     -1.3609200E-37
  -1.120000     -2.2707461E-37
  -1.110000     -2.9461251E-37
  -1.100000     -3.2777183E-37
  -1.090000     -3.2571685E-37
  -1.080000     -2.7451305E-37
  -1.070000     -1.6329822E-37
  -1.060000      2.2921986E-38
  -1.050000      2.9017992E-37
  -1.040000      5.7477227E-37
  -1.030000      8.0696900E-37
  -1.020000      9.5004395E-37
  -1.010000      9.9638697E-37
  -1.000000      9.5191465E-37
 -0.9900000      7.8836442E-37
 -0.9800000      4.7560913E-37
 -0.9700000      4.0192348E-38
 -0.9600000     -4.4754590E-37
 -0.9500000     -9.9614788E-37
 -0.9400000     -1.5971791E-36
 -0.9300000     -2.2142227E-36
 -0.9200000     -2.8648042E-36
 -0.9100000     -3.5898578E-36
 -0.9000000     -4.4618979E-36
 -0.8900000     -5.6817312E-36
 -0.8800000     -7.2065710E-36
 -0.8700000     -7.5750660E-36
 -0.8600000     -6.5231635E-36
 -0.8500000     -4.6842621E-36
 -0.8400000     -1.2054420E-36
 -0.8300000      2.5013157E-36
 -0.8200000      6.3422490E-36
 -0.8100000      1.1416058E-35
 -0.8000000      1.7267009E-35
 -0.7900000      2.3096692E-35
 -0.7800000      2.9152587E-35
 -0.7700000      3.5199811E-35
 -0.7600000      3.9241540E-35
 -0.7500000      4.1987149E-35
 -0.7400000      4.3930580E-35
 -0.7300000      4.3774793E-35
 -0.7200000      4.1481847E-35
 -0.7100000      3.6440308E-35
 -0.7000000      2.6980167E-35
 -0.6900000      1.1576312E-35
 -0.6800000     -1.0510314E-35
 -0.6700000     -3.9208333E-35
 -0.6600000     -8.0135568E-35
 -0.6500000     -1.3449133E-34
 -0.6400000     -1.9092097E-34
 -0.6300000     -2.4454867E-34
 -0.6200000     -2.9732897E-34
 -0.6100000     -3.4778667E-34
 -0.6000000     -3.8248155E-34
 -0.5900000     -3.9118317E-34
 -0.5800000     -3.7250831E-34
 -0.5700000     -3.2147227E-34
 -0.5600000     -2.3515468E-34
 -0.5500000     -1.1496013E-34
 -0.5400000      3.9237364E-35
 -0.5300000      2.2882187E-34
 -0.5200000      4.5165152E-34
 -0.5100000      7.1025224E-34
 -0.5000000      1.0043619E-33
 -0.4900000      1.3175193E-33
 -0.4800000      1.6295232E-33
 -0.4700000      1.9268114E-33
 -0.4600000      2.1845473E-33
 -0.4500000      2.3742686E-33
 -0.4400000      2.4648195E-33
 -0.4300000      2.4208764E-33
 -0.4200000      2.2050597E-33
 -0.4100000      1.7751168E-33
 -0.4000000      1.1050167E-33
 -0.3900000      1.7344690E-34
 -0.3800000     -1.0371933E-33
 -0.3700000     -2.5233944E-33
 -0.3600000     -4.2645906E-33
 -0.3500000     -6.2173498E-33
 -0.3400000     -8.3095894E-33
 -0.3300000     -1.0442619E-32
 -0.3200000     -1.2489679E-32
 -0.3100000     -1.4294342E-32
 -0.3000000     -1.5679759E-32
 -0.2900000     -1.6448794E-32
 -0.2800000     -1.6386590E-32
 -0.2700000     -1.5276197E-32
 -0.2600000     -1.2909079E-32
 -0.2500000     -9.0980544E-33
 -0.2400000     -3.6945475E-33
 -0.2300000      3.3961093E-33
 -0.2200000      1.2195213E-32
 -0.2100000      2.2627507E-32
 -0.2000000      3.4507412E-32
 -0.1900000      4.7522921E-32
 -0.1800000      6.1221321E-32
 -0.1700000      7.5001206E-32
 -0.1600000      8.8110366E-32
 -0.1500000      9.9650136E-32
 -0.1400000      1.0859214E-31
 -0.1300000      1.1380283E-31
 -0.1200000      1.1407764E-31
 -0.1100000      1.0819095E-31
 -0.1000000      9.4953701E-32
 -9.0000004E-02  7.3285073E-32
 -7.9999998E-02  4.2294254E-32
 -7.0000000E-02  1.3671484E-33
 -5.9999999E-02 -4.9738898E-32
 -5.0000001E-02 -1.1080105E-31
 -3.9999999E-02 -1.8104022E-31
 -2.9999999E-02 -2.5903732E-31
 -2.0000000E-02 -3.4266488E-31
 -9.9999998E-03 -4.2903940E-31
 -3.4694470E-17 -5.1450095E-31
  9.9999998E-03 -5.9462706E-31
  2.0000000E-02 -6.6428709E-31
  2.9999999E-02 -7.1774425E-31
  3.9999999E-02 -7.4880984E-31
  5.0000001E-02 -7.5105400E-31
  5.9999999E-02 -7.1807729E-31
  7.0000000E-02 -6.4384454E-31
  7.9999998E-02 -5.2308055E-31
  9.0000004E-02 -3.5172538E-31
  0.1000000     -1.2744804E-31
  0.1100000      1.4978901E-31
  0.1200000      4.7712126E-31
  0.1300000      8.4814062E-31
  0.1400000      1.2522283E-30
  0.1500000      1.6738759E-30
  0.1600000      2.0920117E-30
  0.1700000      2.4793344E-30
  0.1800000      2.8016823E-30
  0.1900000      3.0174387E-30
  0.2000000      3.0769966E-30
  0.2100000      2.9222916E-30
  0.2200000      2.4864008E-30
  0.2300000      1.6932287E-30
  0.2400000      4.5730092E-31
  0.2500000     -1.3163584E-30
  0.2600000     -3.7322559E-30
  0.2700000     -6.9043392E-30
  0.2800000     -1.0955810E-29
  0.2900000     -1.6018837E-29
  0.3000000     -2.2234153E-29
  0.3100000     -2.9750550E-29
  0.3200000     -3.8724258E-29
  0.3300000     -4.9318218E-29
  0.3400000     -6.1701228E-29
  0.3500000     -7.6046969E-29
  0.3600000     -9.2532869E-29
  0.3700000     -1.1133880E-28
  0.3800000     -1.3264572E-28
  0.3900000     -1.5663398E-28
  0.4000000     -1.8348153E-28
  0.4100000     -2.1336184E-28
  0.4200000     -2.4644180E-28
  0.4300000     -2.8287919E-28
  0.4400000     -3.2282007E-28
  0.4500000     -3.6639587E-28
  0.4600000     -4.1372071E-28
  0.4700000     -4.6488800E-28
  0.4800000     -5.1996733E-28
  0.4900000     -5.7900166E-28
  0.5000000     -6.4200384E-28
  0.5100000     -7.0895451E-28
  0.5200000     -7.7979907E-28
  0.5300000     -8.5444566E-28
  0.5400000     -9.3276408E-28
  0.5500000     -1.0145849E-27
  0.5600000     -1.0996993E-27
  0.5700000     -1.1878603E-27
  0.5800000     -1.2787850E-27
  0.5900000     -1.3721576E-27
  0.6000000     -1.4676333E-27
  0.6100000     -1.5648449E-27
  0.6200000     -1.6634089E-27
  0.6300000     -1.7629331E-27
  0.6400000     -1.8630270E-27
  0.6500000     -1.9633092E-27
  0.6600000     -2.0634213E-27
  0.6700000     -2.1630366E-27
  0.6800000     -2.2618713E-27
  0.6900000     -2.3596973E-27
  0.7000000     -2.4563534E-27
  0.7100000     -2.5517553E-27
  0.7200000     -2.6459067E-27
  0.7300000     -2.7389066E-27
  0.7400000     -2.8309579E-27
  0.7500000     -2.9223757E-27
  0.7600000     -3.0135879E-27
  0.7700000     -3.1051406E-27
  0.7800000     -3.1976989E-27
  0.7900000     -3.2920464E-27
  0.8000000     -3.3890820E-27
  0.8100000     -3.4898170E-27
  0.8200000     -3.5953699E-27
  0.8300000     -3.7069629E-27
  0.8400000     -3.8259134E-27
  0.8500000     -3.9536299E-27
  0.8600000     -4.0915985E-27
  0.8700000     -4.2413811E-27
  0.8800000     -4.4046099E-27
  0.8900000     -4.5829753E-27
  0.9000000     -4.7782218E-27
  0.9100000     -4.9921437E-27
  0.9200000     -5.2265833E-27
  0.9300000     -5.4834172E-27
  0.9400000     -5.7645568E-27
  0.9500000     -6.0719375E-27
  0.9600000     -6.4075192E-27
  0.9700000     -6.7732737E-27
  0.9800000     -7.1711770E-27
  0.9900000     -7.6032009E-27
   1.000000     -8.0712943E-27
   1.010000     -8.5773740E-27
   1.020000     -9.1233050E-27
   1.030000     -9.7108685E-27
   1.040000     -1.0341753E-26
   1.050000     -1.1017532E-26
   1.060000     -1.1739627E-26
   1.070000     -1.2509289E-26
   1.080000     -1.3327560E-26
   1.090000     -1.4195255E-26
   1.100000     -1.5112937E-26
   1.110000     -1.6080913E-26
   1.120000     -1.7099209E-26
   1.130000     -1.8167516E-26
   1.140000     -1.9285235E-26
   1.150000     -2.0451495E-26
   1.160000     -2.1665102E-26
   1.170000     -2.2924561E-26
   1.180000     -2.4228119E-26
   1.190000     -2.5573797E-26
   1.200000     -2.6959402E-26
   1.210000     -2.8382562E-26
   1.220000     -2.9840762E-26
   1.230000     -3.1331364E-26
   1.240000     -3.2851675E-26
   1.250000     -3.4398958E-26
   1.260000     -3.5970409E-26
   1.270000     -3.7563233E-26
   1.280000     -3.9174648E-26
   1.290000     -4.0801840E-26
   1.300000     -4.2441872E-26
   1.310000     -4.4091790E-26
   1.320000     -4.5748509E-26
   1.330000     -4.7408728E-26
   1.340000     -4.9068905E-26
   1.350000     -5.0725134E-26
   1.360000     -5.2373073E-26
   1.370000     -5.4007889E-26
   1.380000     -5.5624185E-26
   1.390000     -5.7215853E-26
   1.400000     -5.8776023E-26
   1.410000     -6.0296891E-26
   1.420000     -6.1769824E-26
   1.430000     -6.3185226E-26
   1.440000     -6.4532471E-26
   1.450000     -6.5800034E-26
   1.460000     -6.6975425E-26
   1.470000     -6.8044991E-26
   1.480000     -6.8994120E-26
   1.490000     -6.9807275E-26
   1.500000     -7.0467934E-26
   1.510000     -7.0958618E-26
   1.520000     -7.1260869E-26
   1.530000     -7.1355298E-26
   1.540000     -7.1221604E-26
   1.550000     -7.0838477E-26
   1.560000     -7.0183642E-26
   1.570000     -6.9233761E-26
   1.580000     -6.7964293E-26
   1.590000     -6.6349501E-26
   1.600000     -6.4361886E-26
   1.610000     -6.1972611E-26
   1.620000     -5.9151336E-26
   1.630000     -5.5865773E-26
   1.640000     -5.2081602E-26
   1.650000     -4.7762329E-26
   1.660000     -4.2869225E-26
   1.670000     -3.7361392E-26
   1.680000     -3.1195175E-26
   1.690000     -2.4324662E-26
   1.700000     -1.6702134E-26
   1.710000     -8.2777540E-27
   1.720000      1.0002938E-27
   1.730000      1.1185716E-26
   1.740000      2.2333694E-26
   1.750000      3.4500120E-26
   1.760000      4.7741492E-26
   1.770000      6.2114205E-26
   1.780000      7.7674006E-26
   1.790000      9.4476299E-26
   1.800000      1.1257516E-25
   1.810000      1.3202250E-25
   1.820000      1.5286897E-25
   1.830000      1.7516267E-25
   1.840000      1.9894835E-25
   1.850000      2.2426825E-25
   1.860000      2.5116205E-25
   1.870000      2.7966566E-25
   1.880000      3.0981242E-25
   1.890000      3.4163224E-25
   1.900000      3.7515131E-25
   1.910000      4.1039360E-25
   1.920000      4.4737988E-25
   1.930000      4.8612809E-25
   1.940000      5.2665360E-25
   1.950000      5.6896829E-25
   1.960000      6.1308140E-25
   1.970000      6.5899848E-25
   1.980000      7.0672126E-25
   1.990000      7.5624732E-25
   2.000000      8.0757002E-25
   2.010000      8.6067782E-25
   2.020000      9.1555433E-25
   2.030000      9.7217699E-25
   2.040000      1.0305161E-24
   2.050000      1.0905343E-24
   2.060000      1.1521869E-24
   2.070000      1.2154201E-24
   2.080000      1.2801701E-24
   2.090000      1.3463648E-24
   2.100000      1.4139222E-24
   2.110000      1.4827509E-24
   2.120000      1.5527499E-24
   2.130000      1.6238097E-24
   2.140000      1.6958141E-24
   2.150000      1.7686398E-24
   2.160000      1.8421567E-24
   2.170000      1.9162295E-24
   2.180000      1.9907191E-24
   2.190000      2.0654838E-24
   2.200000      2.1403816E-24
   2.210000      2.2152705E-24
   2.220000      2.2900066E-24
   2.230000      2.3644494E-24
   2.240000      2.4384621E-24
   2.250000      2.5119102E-24
   2.260000      2.5846631E-24
   2.270000      2.6565940E-24
   2.280000      2.7275793E-24
   2.290000      2.7974964E-24
   2.300000      2.8662263E-24
   2.310000      2.9336540E-24
   2.320000      2.9996635E-24
   2.330000      3.0641397E-24
   2.340000      3.1269709E-24
   2.350000      3.1880433E-24
   2.360000      3.2472408E-24
   2.370000      3.3044502E-24
   2.380000      3.3595574E-24
   2.390000      3.4124478E-24
   2.400000      3.4630071E-24
   2.410000      3.5111236E-24
   2.420000      3.5566910E-24
   2.430000      3.5996078E-24
   2.440000      3.6397821E-24
   2.450000      3.6771284E-24
   2.460000      3.7115736E-24
   2.470000      3.7430566E-24
   2.480000      3.7715345E-24
   2.490000      3.7969777E-24
   2.500000      3.8193754E-24
   2.510000      3.8387325E-24
   2.520000      3.8550706E-24
   2.530000      3.8684275E-24
   2.540000      3.8788547E-24
   2.550000      3.8864140E-24
   2.560000      3.8911732E-24
   2.570000      3.8932072E-24
   2.580000      3.8925911E-24
   2.590000      3.8893931E-24
   2.600000      3.8836743E-24
   2.610000      3.8754815E-24
   2.620000      3.8648449E-24
   2.630000      3.8517747E-24
   2.640000      3.8362554E-24
   2.650000      3.8182430E-24
   2.660000      3.7976596E-24
   2.670000      3.7743934E-24
   2.680000      3.7482994E-24
   2.690000      3.7191979E-24
   2.700000      3.6868708E-24
   2.710000      3.6510636E-24
   2.720000      3.6114881E-24
   2.730000      3.5678179E-24
   2.740000      3.5196899E-24
   2.750000      3.4667045E-24
   2.760000      3.4084266E-24
   2.770000      3.3443809E-24
   2.780000      3.2740540E-24
   2.790000      3.1968912E-24
   2.800000      3.1122908E-24
   2.810000      3.0195961E-24
   2.820000      2.9180963E-24
   2.830000      2.8070191E-24
   2.840000      2.6855221E-24
   2.850000      2.5526882E-24
   2.860000      2.4075187E-24
   2.870000      2.2489275E-24
   2.880000      2.0757332E-24
   2.890000      1.8866583E-24
   2.900000      1.6803232E-24
   2.910000      1.4552448E-24
   2.920000      1.2098438E-24
   2.930000      9.4244059E-25
   2.940000      6.5126019E-25
   2.950000      3.3444594E-25
   2.960000     -9.9379441E-27
   2.970000     -3.8388767E-25
   2.980000     -7.8944713E-25
   2.990000     -1.2286984E-24
   3.000000     -1.7037348E-24
   3.010000     -2.2166402E-24
   3.020000     -2.7694780E-24
   3.030000     -3.3642650E-24
   3.040000     -4.0029449E-24
   3.050000     -4.6873740E-24
   3.060000     -5.4193005E-24
   3.070000     -6.2003406E-24
   3.080000     -7.0319511E-24
   3.090000     -7.9154122E-24
   3.100000     -8.8518090E-24
   3.110000     -9.8420061E-24
   3.120000     -1.0886629E-23
   3.130000     -1.1986045E-23
   3.140000     -1.3140335E-23
   3.150000     -1.4349262E-23
   3.160000     -1.5612250E-23
   3.170000     -1.6928352E-23
   3.180000     -1.8296210E-23
   3.190000     -1.9714025E-23
   3.200000     -2.1179502E-23
   3.210000     -2.2689815E-23
   3.220000     -2.4241555E-23
   3.230000     -2.5830674E-23
   3.240000     -2.7452435E-23
   3.250000     -2.9101353E-23
   3.260000     -3.0771138E-23
   3.270000     -3.2454627E-23
   3.280000     -3.4143730E-23
   3.290000     -3.5829368E-23
   3.300000     -3.7501435E-23
   3.310000     -3.9148712E-23
   3.320000     -4.0758865E-23
   3.330000     -4.2318377E-23
   3.340000     -4.3812502E-23
   3.350000     -4.5225247E-23
   3.360000     -4.6539354E-23
   3.370000     -4.7736255E-23
   3.380000     -4.8796096E-23
   3.390000     -4.9697707E-23
   3.400000     -5.0418628E-23
   3.410000     -5.0935102E-23
   3.420000     -5.1222092E-23
   3.430000     -5.1253312E-23
   3.440000     -5.1001255E-23
   3.450000     -5.0437239E-23
   3.460000     -4.9531418E-23
   3.470000     -4.8252867E-23
   3.480000     -4.6569608E-23
   3.490000     -4.4448690E-23
   3.500000     -4.1856221E-23
   3.510000     -3.8757494E-23
   3.520000     -3.5117049E-23
   3.530000     -3.0898779E-23
   3.540000     -2.6066044E-23
   3.550000     -2.0581801E-23
   3.560000     -1.4408743E-23
   3.570000     -7.5094809E-24
   3.580000      1.5328410E-25
   3.590000      8.6165423E-24
   3.600000      1.7916719E-23
   3.610000      2.8089421E-23
   3.620000      3.9169175E-23
   3.630000      5.1189093E-23
   3.640000      6.4180543E-23
   3.650000      7.8172771E-23
   3.660000      9.3192506E-23
   3.670000      1.0926357E-22
   3.680000      1.2640643E-22
   3.690000      1.4463771E-22
   3.700000      1.6396978E-22
   3.710000      1.8441020E-22
   3.720000      2.0596122E-22
   3.730000      2.2861924E-22
   3.740000      2.5237438E-22
   3.750000      2.7720971E-22
   3.760000      3.0310088E-22
   3.770000      3.3001553E-22
   3.780000      3.5791255E-22
   3.790000      3.8674170E-22
   3.800000      4.1644275E-22
   3.810000      4.4694516E-22
   3.820000      4.7816729E-22
   3.830000      5.1001567E-22
   3.840000      5.4238456E-22
   3.850000      5.7515528E-22
   3.860000      6.0819550E-22
   3.870000      6.4135851E-22
   3.880000      6.7448274E-22
   3.890000      7.0739099E-22
   3.900000      7.3988978E-22
   3.910000      7.7176885E-22
   3.920000      8.0280054E-22
   3.930000      8.3273904E-22
   3.940000      8.6131999E-22
   3.950000      8.8825980E-22
   3.960000      9.1325556E-22
   3.970000      9.3598415E-22
   3.980000      9.5610204E-22
   3.990000      9.7324544E-22
   4.000000      9.8702943E-22
   4.010000      9.9704839E-22
   4.020000      1.0028756E-21
   4.030000      1.0040639E-21
   4.040000      1.0001452E-21
   4.050000      9.9063118E-22
   4.060000      9.7501390E-22
   4.070000      9.5276586E-22
   4.080000      9.2334127E-22
   4.090000      8.8617701E-22
   4.100000      8.4069303E-22
   4.110000      7.8629399E-22
   4.120000      7.2237036E-22
   4.130000      6.4830013E-22
   4.140000      5.6345035E-22
   4.150000      4.6717888E-22
   4.160000      3.5883700E-22
   4.170000      2.3777136E-22
   4.180000      1.0332620E-22
   4.190000     -4.5154158E-23
   4.200000     -2.0832212E-22
   4.210000     -3.8682326E-22
   4.220000     -5.8129340E-22
   4.230000     -7.9235497E-22
   4.240000     -1.0206129E-21
   4.250000     -1.2666504E-21
   4.260000     -1.5310244E-21
   4.270000     -1.8142601E-21
   4.280000     -2.1168469E-21
   4.290000     -2.4392332E-21
   4.300000     -2.7818199E-21
   4.310000     -3.1449546E-21
   4.320000     -3.5289266E-21
   4.330000     -3.9339579E-21
   4.340000     -4.3601991E-21
   4.350000     -4.8077195E-21
   4.360000     -5.2765027E-21
   4.370000     -5.7664368E-21
   4.380000     -6.2773073E-21
   4.390000     -6.8087886E-21
   4.400000     -7.3604389E-21
   4.410000     -7.9316855E-21
   4.420000     -8.5218223E-21
   4.430000     -9.1299955E-21
   4.440000     -9.7552011E-21
   4.450000     -1.0396272E-20
   4.460000     -1.1051870E-20
   4.470000     -1.1720476E-20
   4.480000     -1.2400383E-20
   4.490000     -1.3089681E-20
   4.500000     -1.3786257E-20
   4.510000     -1.4487782E-20
   4.520000     -1.5191702E-20
   4.530000     -1.5895229E-20
   4.540000     -1.6595332E-20
   4.550000     -1.7288734E-20
   4.560000     -1.7971896E-20
   4.570000     -1.8641019E-20
   4.580000     -1.9292031E-20
   4.590000     -1.9920582E-20
   4.600000     -2.0522041E-20
   4.610000     -2.1091485E-20
   4.620000     -2.1623705E-20
   4.630000     -2.2113187E-20
   4.640000     -2.2554126E-20
   4.650000     -2.2940416E-20
   4.660000     -2.3265650E-20
   4.670000     -2.3523122E-20
   4.680000     -2.3705830E-20
   4.690000     -2.3806483E-20
   4.700000     -2.3817496E-20
   4.710000     -2.3731007E-20
   4.720000     -2.3538880E-20
   4.730000     -2.3232721E-20
   4.740000     -2.2803880E-20
   4.750000     -2.2243470E-20
   4.760000     -2.1542387E-20
   4.770000     -2.0691328E-20
   4.780000     -1.9680806E-20
   4.790000     -1.8501172E-20
   4.800000     -1.7142646E-20
   4.810000     -1.5595339E-20
   4.820000     -1.3849299E-20
   4.830000     -1.1894520E-20
   4.840000     -9.7209878E-21
   4.850000     -7.3187301E-21
   4.860000     -4.6778461E-21
   4.870000     -1.7885477E-21
   4.880000      1.3587856E-21
   4.890000      4.7735575E-21
   4.900000      8.4648971E-21
   4.910000      1.2441611E-20
   4.920000      1.6712126E-20
   4.930000      2.1284404E-20
   4.940000      2.6165896E-20
   4.950000      3.1363451E-20
   4.960000      3.6883256E-20
   4.970000      4.2730774E-20
   4.980000      4.8910624E-20
   4.990000      5.5426523E-20
   5.000000      6.2281201E-20
   5.010000      6.9476328E-20
   5.020000      7.7012402E-20
   5.030000      8.4888648E-20
   5.040000      9.3102939E-20
   5.050000      1.0165168E-19
   5.060000      1.1052970E-19
   5.070000      1.1973015E-19
   5.080000      1.2924450E-19
   5.090000      1.3906223E-19
   5.100000      1.4917091E-19
   5.110000      1.5955597E-19
   5.120000      1.7020067E-19
   5.130000      1.8108595E-19
   5.140000      1.9219036E-19
   5.150000      2.0348992E-19
   5.160000      2.1495799E-19
   5.170000      2.2656526E-19
   5.180000      2.3827956E-19
   5.190000      2.5006575E-19
   5.200000      2.6188574E-19
   5.210000      2.7369824E-19
   5.220000      2.8545887E-19
   5.230000      2.9711992E-19
   5.240000      3.0863024E-19
   5.250000      3.1993534E-19
   5.260000      3.3097722E-19
   5.270000      3.4169435E-19
   5.280000      3.5202157E-19
   5.290000      3.6189025E-19
   5.300000      3.7122798E-19
   5.310000      3.7995880E-19
   5.320000      3.8800302E-19
   5.330000      3.9527741E-19
   5.340000      4.0169511E-19
   5.350000      4.0716583E-19
   5.360000      4.1159559E-19
   5.370000      4.1488709E-19
   5.380000      4.1693977E-19
   5.390000      4.1764990E-19
   5.400000      4.1691069E-19
   5.410000      4.1461237E-19
   5.420000      4.1064242E-19
   5.430000      4.0488601E-19
   5.440000      3.9722601E-19
   5.450000      3.8754329E-19
   5.460000      3.7571694E-19
   5.470000      3.6162473E-19
   5.480000      3.4514331E-19
   5.490000      3.2614842E-19
   5.500000      3.0451571E-19
   5.510000      2.8012076E-19
   5.520000      2.5283970E-19
   5.530000      2.2254976E-19
   5.540000      1.8912988E-19
   5.550000      1.5246085E-19
   5.560000      1.1242614E-19
   5.570000      6.8912611E-20
   5.580000      2.1810930E-20
   5.590000     -2.8983591E-20
   5.600000     -8.3570348E-20
   5.610000     -1.4204269E-19
   5.620000     -2.0448722E-19
   5.630000     -2.7098284E-19
   5.640000     -3.4160016E-19
   5.650000     -4.1640037E-19
   5.660000     -4.9543455E-19
   5.670000     -5.7874260E-19
   5.680000     -6.6635230E-19
   5.690000     -7.5827838E-19
   5.700000     -8.5452172E-19
   5.710000     -9.5506791E-19
   5.720000     -1.0598866E-18
   5.730000     -1.1689304E-18
   5.740000     -1.2821338E-18
   5.750000     -1.3994123E-18
   5.760000     -1.5206608E-18
   5.770000     -1.6457534E-18
   5.780000     -1.7745413E-18
   5.790000     -1.9068523E-18
   5.800000     -2.0424897E-18
   5.810000     -2.1812314E-18
   5.820000     -2.3228280E-18
   5.830000     -2.4670027E-18
   5.840000     -2.6134505E-18
   5.850000     -2.7618361E-18
   5.860000     -2.9117936E-18
   5.870000     -3.0629264E-18
   5.880000     -3.2148044E-18
   5.890000     -3.3669651E-18
   5.900000     -3.5189119E-18
   5.910000     -3.6701148E-18
   5.920000     -3.8200069E-18
   5.930000     -3.9679871E-18
   5.940000     -4.1134182E-18
   5.950000     -4.2556267E-18
   5.960000     -4.3939024E-18
   5.970000     -4.5274986E-18
   5.980000     -4.6556322E-18
   5.990000     -4.7774838E-18
   6.000000     -4.8921964E-18
   6.010000     -4.9988791E-18
   6.020000     -5.0966055E-18
   6.030000     -5.1844136E-18
   6.040000     -5.2613083E-18
   6.050000     -5.3262623E-18
   6.060000     -5.3782167E-18
   6.070000     -5.4160821E-18
   6.080000     -5.4387419E-18
   6.090000     -5.4450533E-18
   6.100000     -5.4338487E-18
   6.110000     -5.4039412E-18
   6.120000     -5.3541213E-18
   6.130000     -5.2831633E-18
   6.140000     -5.1898284E-18
   6.150000     -5.0728683E-18
   6.160000     -4.9310267E-18
   6.170000     -4.7630445E-18
   6.180000     -4.5676624E-18
   6.190000     -4.3436263E-18
   6.200000     -4.0896905E-18
   6.210000     -3.8046234E-18
   6.220000     -3.4872131E-18
   6.230000     -3.1362720E-18
   6.240000     -2.7506450E-18
   6.250000     -2.3292118E-18
   6.260000     -1.8708954E-18
   6.270000     -1.3746688E-18
   6.280000     -8.3955854E-19
   6.290000     -2.6465305E-19
   6.300000      3.5089040E-19
   6.310000      1.0078374E-18
   6.320000      1.7068679E-18
   6.330000      2.4485731E-18
   6.340000      3.2334436E-18
   6.350000      4.0618601E-18
   6.360000      4.9340848E-18
   6.370000      5.8502576E-18
   6.380000      6.8103852E-18
   6.390000      7.8143289E-18
   6.400000      8.8618010E-18
   6.410000      9.9523518E-18
   6.420000      1.1085361E-17
   6.430000      1.2260032E-17
   6.440000      1.3475379E-17
   6.450000      1.4730219E-17
   6.460000      1.6023162E-17
   6.470000      1.7352605E-17
   6.480000      1.8716723E-17
   6.490000      2.0113462E-17
   6.500000      2.1540524E-17
   6.510000      2.2995361E-17
   6.520000      2.4475179E-17
   6.530000      2.5976911E-17
   6.540000      2.7497224E-17
   6.550000      2.9032511E-17
   6.560000      3.0578875E-17
   6.570000      3.2132149E-17
   6.580000      3.3687850E-17
   6.590000      3.5241209E-17
   6.600000      3.6787157E-17
   6.610000      3.8320313E-17
   6.620000      3.9835003E-17
   6.630000      4.1325235E-17
   6.640000      4.2784716E-17
   6.650000      4.4206848E-17
   6.660000      4.5584713E-17
   6.670000      4.6911103E-17
   6.680000      4.8178513E-17
   6.690000      4.9379139E-17
   6.700000      5.0504905E-17
   6.710000      5.1547434E-17
   6.720000      5.2498093E-17
   6.730000      5.3347995E-17
   6.740000      5.4087990E-17
   6.750000      5.4708713E-17
   6.760000      5.5200568E-17
   6.770000      5.5553761E-17
   6.780000      5.5758306E-17
   6.790000      5.5804059E-17
   6.800000      5.5680750E-17
   6.810000      5.5377965E-17
   6.820000      5.4885224E-17
   6.830000      5.4191977E-17
   6.840000      5.3287630E-17
   6.850000      5.2161596E-17
   6.860000      5.0803312E-17
   6.870000      4.9202268E-17
   6.880000      4.7348080E-17
   6.890000      4.5230491E-17
   6.900000      4.2839419E-17
   6.910000      4.0165022E-17
   6.920000      3.7197717E-17
   6.930000      3.3928232E-17
   6.940000      3.0347678E-17
   6.950000      2.6447563E-17
   6.960000      2.2219851E-17
   6.970000      1.7657019E-17
   6.980000      1.2752132E-17
   6.990000      7.4988819E-18
   7.000000      1.8916403E-18
   7.010000     -4.0744646E-18
   7.020000     -1.0403487E-17
   7.030000     -1.7098617E-17
   7.040000     -2.4162124E-17
   7.050000     -3.1595285E-17
   7.060000     -3.9398331E-17