  -2.600000      0.0000000E+00
  -2.590000      0.0000000E+00
  -2.580000      0.0000000E+00
  -2.570000      0.0000000E+00
  -2.560000      0.0000000E+00
  -2.550000      0.0000000E+00
  -2.540000      0.0000000E+00
  -2.530000      0.0000000E+00
  -2.520000      0.0000000E+00
  -2.510000      0.0000000E+00
  -2.500000      0.0000000E+00
  -2.490000      0.0000000E+00
  -2.480000      0.0000000E+00
  -2.470000      0.0000000E+00
  -2.460000      0.0000000E+00
  -2.450000      0.0000000E+00
  -2.440000      0.0000000E+00
  -2.430000      0.0000000E+00
  -2.420000      0.0000000E+00
  -2.410000      0.0000000E+00
  -2.400000      0.0000000E+00
  -2.390000      0.0000000E+00
  -2.380000      0.0000000E+00
  -2.370000      0.0000000E+00
  -2.360000      0.0000000E+00
  -2.350000      0.0000000E+00
  -2.340000      0.0000000E+00
  -2.330000      0.0000000E+00
  -2.320000      0.0000000E+00
  -2.310000      0.0000000E+00
  -2.300000      0.0000000E+00
  -2.290000      0.0000000E+00
  -2.280000      0.0000000E+00
  -2.270000      0.0000000E+00
  -2.260000      0.0000000E+00
  -2.250000      0.0000000E+00
  -2.240000      0.0000000E+00
  -2.230000      0.0000000E+00
  -2.220000      0.0000000E+00
  -2.210000      0.0000000E+00
  -2.200000      0.0000000E+00
  -2.190000      0.0000000E+00
  -2.180000      0.0000000E+00
  -2.170000      0.0000000E+00
  -2.160000      0.0000000E+00
  -2.150000      0.0000000E+00
  -2.140000      0.0000000E+00
  -2.130000      0.0000000E+00
  -2.120000      0.0000000E+00
  -2.110000      0.0000000E+00
  -2.100000      0.0000000E+00
  -2.090000      0.0000000E+00
  -2.080000      0.0000000E+00
  -2.070000      0.0000000E+00
  -2.060000      0.0000000E+00
  -2.050000      0.0000000E+00
  -2.040000      0.0000000E+00
  -2.030000      0.0000000E+00
  -2.020000      0.0000000E+00
  -2.010000      0.0000000E+00
  -2.000000      0.0000000E+00
  -1.990000      0.0000000E+00
  -1.980000      0.0000000E+00
  -1.970000      0.0000000E+00
  -1.960000      0.0000000E+00
  -1.950000      0.0000000E+00
  -1.940000      0.0000000E+00
  -1.930000      0.0000000E+00
  -1.920000      0.0000000E+00
  -1.910000      0.0000000E+00
  -1.900000      0.0000000E+00
  -1.890000      0.0000000E+00
  -1.880000      0.0000000E+00
  -1.870000      0.0000000E+00
  -1.860000      0.0000000E+00
  -1.850000      0.0000000E+00
  -1.840000      0.0000000E+00
  -1.830000      0.0000000E+00
  -1.820000      0.0000000E+00
  -1.810000      0.0000000E+00
  -1.800000      0.0000000E+00
  -1.790000      0.0000000E+00
  -1.780000      0.0000000E+00
  -1.770000      0.0000000E+00
  -1.760000      0.0000000E+00
  -1.750000      0.0000000E+00
  -1.740000      0.0000000E+00
  -1.730000      0.0000000E+00
  -1.720000      0.0000000E+00
  -1.710000      0.0000000E+00
  -1.700000      0.0000000E+00
  -1.690000      0.0000000E+00
  -1.680000      0.0000000E+00
  -1.670000      0.0000000E+00
  -1.660000      0.0000000E+00
  -1.650000      0.0000000E+00
  -1.640000      0.0000000E+00
  -1.630000      0.0000000E+00
  -1.620000      0.0000000E+00
  -1.610000      0.0000000E+00
  -1.600000      0.0000000E+00
  -1.590000      0.0000000E+00
  -1.580000      0.0000000E+00
  -1.570000      0.0000000E+00
  -1.560000      0.0000000E+00
  -1.550000      0.0000000E+00
  -1.540000      0.0000000E+00
  -1.530000      0.0000000E+00
  -1.520000      0.0000000E+00
  -1.510000      0.0000000E+00
  -1.500000      0.0000000E+00
  -1.490000      0.0000000E+00
  -1.480000      0.0000000E+00
  -1.470000      0.0000000E+00
  -1.460000      0.0000000E+00
  -1.450000      0.0000000E+00
  -1.440000      0.0000000E+00
  -1.430000      0.0000000E+00
  -1.420000      0.0000000E+00
  -1.410000      0.0000000E+00
  -1.400000      0.0000000E+00
  -1.390000      0.0000000E+00
  -1.380000      0.0000000E+00
  -1.370000      0.0000000E+00
  -1.360000      0.0000000E+00
  -1.350000      0.0000000E+00
  -1.340000      0.0000000E+00
  -1.330000      0.0000000E+00
  -1.320000      0.0000000E+00
  -1.310000      0.0000000E+00
  -1.300000      0.0000000E+00
  -1.290000      0.0000000E+00
  -1.280000      0.0000000E+00
  -1.270000      0.0000000E+00
  -1.260000      0.0000000E+00
  -1.250000      0.0000000E+00
  -1.240000      0.0000000E+00
  -1.230000      0.0000000E+00
  -1.220000      0.0000000E+00
  -1.210000      0.0000000E+00
  -1.200000      0.0000000E+00
  -1.190000      0.0000000E+00
  -1.180000      0.0000000E+00
  -1.170000      0.0000000E+00
  -1.160000      0.0000000E+00
  -1.150000      0.0000000E+00
  -1.140000      0.0000000E+00
  -1.130000      0.0000000E+00
  -1.120000      0.0000000E+00
  -1.110000      0.0000000E+00
  -1.100000      0.0000000E+00
  -1.090000      0.0000000E+00
  -1.080000      0.0000000E+00
  -1.070000      0.0000000E+00
  -1.060000      0.0000000E+00
  -1.050000      0.0000000E+00
  -1.040000      0.0000000E+00
  -1.030000      0.0000000E+00
  -1.020000      0.0000000E+00
  -1.010000      0.0000000E+00
  -1.000000      0.0000000E+00
 -0.9900000      0.0000000E+00
 -0.9800000      0.0000000E+00
 -0.9700000      0.0000000E+00
 -0.9600000      0.0000000E+00
 -0.9500000      0.0000000E+00
 -0.9400000      0.0000000E+00
 -0.9300000      0.0000000E+00
 -0.9200000      0.0000000E+00
 -0.9100000      0.0000000E+00
 -0.9000000      0.0000000E+00
 -0.8900000      0.0000000E+00
 -0.8800000      0.0000000E+00
 -0.8700000      0.0000000E+00
 -0.8600000      0.0000000E+00
 -0.8500000      0.0000000E+00
 -0.8400000      0.0000000E+00
 -0.8300000      0.0000000E+00
 -0.8200000      0.0000000E+00
 -0.8100000      0.0000000E+00
 -0.8000000      0.0000000E+00
 -0.7900000      0.0000000E+00
 -0.7800000      0.0000000E+00
 -0.7700000      0.0000000E+00
 -0.7600000      0.0000000E+00
 -0.7500000      0.0000000E+00
 -0.7400000      0.0000000E+00
 -0.7300000      0.0000000E+00
 -0.7200000      0.0000000E+00
 -0.7100000      0.0000000E+00
 -0.7000000      0.0000000E+00
 -0.6900000      0.0000000E+00
 -0.6800000      0.0000000E+00
 -0.6700000      0.0000000E+00
 -0.6600000      0.0000000E+00
 -0.6500000      0.0000000E+00
 -0.6400000      0.0000000E+00
 -0.6300000      0.0000000E+00
 -0.6200000      0.0000000E+00
 -0.6100000      0.0000000E+00
 -0.6000000      0.0000000E+00
 -0.5900000      0.0000000E+00
 -0.5800000      0.0000000E+00
 -0.5700000      0.0000000E+00
 -0.5600000      0.0000000E+00
 -0.5500000      0.0000000E+00
 -0.5400000      0.0000000E+00
 -0.5300000      0.0000000E+00
 -0.5200000      0.0000000E+00
 -0.5100000      0.0000000E+00
 -0.5000000      0.0000000E+00
 -0.4900000      0.0000000E+00
 -0.4800000      0.0000000E+00
 -0.4700000      0.0000000E+00
 -0.4600000      0.0000000E+00
 -0.4500000      0.0000000E+00
 -0.4400000      0.0000000E+00
 -0.4300000      0.0000000E+00
 -0.4200000      0.0000000E+00
 -0.4100000      0.0000000E+00
 -0.4000000      0.0000000E+00
 -0.3900000      0.0000000E+00
 -0.3800000      0.0000000E+00
 -0.3700000      0.0000000E+00
 -0.3600000      0.0000000E+00
 -0.3500000      0.0000000E+00
 -0.3400000      0.0000000E+00
 -0.3300000      0.0000000E+00
 -0.3200000      0.0000000E+00
 -0.3100000      0.0000000E+00
 -0.3000000      0.0000000E+00
 -0.2900000      0.0000000E+00
 -0.2800000      0.0000000E+00
 -0.2700000      0.0000000E+00
 -0.2600000      0.0000000E+00
 -0.2500000      0.0000000E+00
 -0.2400000      0.0000000E+00
 -0.2300000      0.0000000E+00
 -0.2200000      0.0000000E+00
 -0.2100000      0.0000000E+00
 -0.2000000      0.0000000E+00
 -0.1900000      0.0000000E+00
 -0.1800000      0.0000000E+00
 -0.1700000      0.0000000E+00
 -0.1600000      0.0000000E+00
 -0.1500000      0.0000000E+00
 -0.1400000      0.0000000E+00
 -0.1300000      0.0000000E+00
 -0.1200000      0.0000000E+00
 -0.1100000      0.0000000E+00
 -0.1000000      0.0000000E+00
 -9.0000004E-02  0.0000000E+00
 -7.9999998E-02  0.0000000E+00
 -7.0000000E-02  0.0000000E+00
 -5.9999999E-02  0.0000000E+00
 -5.0000001E-02  0.0000000E+00
 -3.9999999E-02  0.0000000E+00
 -2.9999999E-02  0.0000000E+00
 -2.0000000E-02  0.0000000E+00
 -9.9999998E-03  0.0000000E+00
 -3.4694470E-17  0.0000000E+00
  9.9999998E-03  0.0000000E+00
  2.0000000E-02  0.0000000E+00
  2.9999999E-02  0.0000000E+00
  3.9999999E-02  0.0000000E+00
  5.0000001E-02  0.0000000E+00
  5.9999999E-02  0.0000000E+00
  7.0000000E-02  0.0000000E+00
  7.9999998E-02  0.0000000E+00
  9.0000004E-02  0.0000000E+00
  0.1000000      0.0000000E+00
  0.1100000      0.0000000E+00
  0.1200000      0.0000000E+00
  0.1300000      0.0000000E+00
  0.1400000      0.0000000E+00
  0.1500000      0.0000000E+00
  0.1600000      0.0000000E+00
  0.1700000      0.0000000E+00
  0.1800000      0.0000000E+00
  0.1900000      0.0000000E+00
  0.2000000      0.0000000E+00
  0.2100000      0.0000000E+00
  0.2200000      0.0000000E+00
  0.2300000      0.0000000E+00
  0.2400000      0.0000000E+00
  0.2500000      0.0000000E+00
  0.2600000      0.0000000E+00
  0.2700000      0.0000000E+00
  0.2800000      0.0000000E+00
  0.2900000      0.0000000E+00
  0.3000000      0.0000000E+00
  0.3100000      0.0000000E+00
  0.3200000      0.0000000E+00
  0.3300000      0.0000000E+00
  0.3400000      0.0000000E+00
  0.3500000      0.0000000E+00
  0.3600000      0.0000000E+00
  0.3700000      0.0000000E+00
  0.3800000      0.0000000E+00
  0.3900000      0.0000000E+00
  0.4000000      0.0000000E+00
  0.4100000      0.0000000E+00
  0.4200000      0.0000000E+00
  0.4300000      0.0000000E+00
  0.4400000      0.0000000E+00
  0.4500000      0.0000000E+00
  0.4600000      0.0000000E+00
  0.4700000      0.0000000E+00
  0.4800000      0.0000000E+00
  0.4900000      0.0000000E+00
  0.5000000      0.0000000E+00
  0.5100000      0.0000000E+00
  0.5200000      0.0000000E+00
  0.5300000      0.0000000E+00
  0.5400000      0.0000000E+00
  0.5500000      0.0000000E+00
  0.5600000      0.0000000E+00
  0.5700000      0.0000000E+00
  0.5800000      0.0000000E+00
  0.5900000      0.0000000E+00
  0.6000000      0.0000000E+00
  0.6100000      0.0000000E+00
  0.6200000      0.0000000E+00
  0.6300000      0.0000000E+00
  0.6400000      0.0000000E+00
  0.6500000      0.0000000E+00
  0.6600000      0.0000000E+00
  0.6700000      0.0000000E+00
  0.6800000      0.0000000E+00
  0.6900000      0.0000000E+00
  0.7000000      0.0000000E+00
  0.7100000      0.0000000E+00
  0.7200000      0.0000000E+00
  0.7300000      0.0000000E+00
  0.7400000      0.0000000E+00
  0.7500000      0.0000000E+00
  0.7600000      0.0000000E+00
  0.7700000      0.0000000E+00
  0.7800000      0.0000000E+00
  0.7900000      0.0000000E+00
  0.8000000      0.0000000E+00
  0.8100000      0.0000000E+00
  0.8200000      0.0000000E+00
  0.8300000      0.0000000E+00
  0.8400000      0.0000000E+00
  0.8500000      0.0000000E+00
  0.8600000      0.0000000E+00
  0.8700000      0.0000000E+00
  0.8800000      0.0000000E+00
  0.8900000      0.0000000E+00
  0.9000000      0.0000000E+00
  0.9100000      0.0000000E+00
  0.9200000      0.0000000E+00
  0.9300000      0.0000000E+00
  0.9400000      0.0000000E+00
  0.9500000      0.0000000E+00
  0.9600000      0.0000000E+00
  0.9700000      0.0000000E+00
  0.9800000      0.0000000E+00
  0.9900000      0.0000000E+00
   1.000000      0.0000000E+00
   1.010000      0.0000000E+00
   1.020000      0.0000000E+00
   1.030000      0.0000000E+00
   1.040000      0.0000000E+00
   1.050000      0.0000000E+00
   1.060000      0.0000000E+00
   1.070000      0.0000000E+00
   1.080000      0.0000000E+00
   1.090000      0.0000000E+00
   1.100000      0.0000000E+00
   1.110000      0.0000000E+00
   1.120000      0.0000000E+00
   1.130000      0.0000000E+00
   1.140000      0.0000000E+00
   1.150000      0.0000000E+00
   1.160000      0.0000000E+00
   1.170000      0.0000000E+00
   1.180000      0.0000000E+00
   1.190000      0.0000000E+00
   1.200000      0.0000000E+00
   1.210000      0.0000000E+00
   1.220000      0.0000000E+00
   1.230000      0.0000000E+00
   1.240000      0.0000000E+00
   1.250000      0.0000000E+00
   1.260000      0.0000000E+00
   1.270000      0.0000000E+00
   1.280000      0.0000000E+00
   1.290000      0.0000000E+00
   1.300000      0.0000000E+00
   1.310000      0.0000000E+00
   1.320000      0.0000000E+00
   1.330000      0.0000000E+00
   1.340000      0.0000000E+00
   1.350000      0.0000000E+00
   1.360000      0.0000000E+00
   1.370000      0.0000000E+00
   1.380000      0.0000000E+00
   1.390000      0.0000000E+00
   1.400000      0.0000000E+00
   1.410000      0.0000000E+00
   1.420000      0.0000000E+00
   1.430000      0.0000000E+00
   1.440000      0.0000000E+00
   1.450000      0.0000000E+00
   1.460000      0.0000000E+00
   1.470000      0.0000000E+00
   1.480000      0.0000000E+00
   1.490000      0.0000000E+00
   1.500000      0.0000000E+00
   1.510000      0.0000000E+00
   1.520000      0.0000000E+00
   1.530000      0.0000000E+00
   1.540000      0.0000000E+00
   1.550000      0.0000000E+00
   1.560000      0.0000000E+00
   1.570000      0.0000000E+00
   1.580000      0.0000000E+00
   1.590000      0.0000000E+00
   1.600000      0.0000000E+00
   1.610000      0.0000000E+00
   1.620000      0.0000000E+00
   1.630000      0.0000000E+00
   1.640000      0.0000000E+00
   1.650000      0.0000000E+00
   1.660000      0.0000000E+00
   1.670000      0.0000000E+00
   1.680000      0.0000000E+00
   1.690000      0.0000000E+00
   1.700000      0.0000000E+00
   1.710000      0.0000000E+00
   1.720000      0.0000000E+00
   1.730000      0.0000000E+00
   1.740000      0.0000000E+00
   1.750000      0.0000000E+00
   1.760000      0.0000000E+00
   1.770000      0.0000000E+00
   1.780000      0.0000000E+00
   1.790000      0.0000000E+00
   1.800000      0.0000000E+00
   1.810000      0.0000000E+00
   1.820000      0.0000000E+00
   1.830000      0.0000000E+00
   1.840000      0.0000000E+00
   1.850000      0.0000000E+00
   1.860000      0.0000000E+00
   1.870000      0.0000000E+00
   1.880000      0.0000000E+00
   1.890000      0.0000000E+00
   1.900000      0.0000000E+00
   1.910000      0.0000000E+00
   1.920000      0.0000000E+00
   1.930000      0.0000000E+00
   1.940000      0.0000000E+00
   1.950000      0.0000000E+00
   1.960000      0.0000000E+00
   1.970000      0.0000000E+00
   1.980000      0.0000000E+00
   1.990000      0.0000000E+00
   2.000000      0.0000000E+00
   2.010000      0.0000000E+00
   2.020000      0.0000000E+00
   2.030000      0.0000000E+00
   2.040000      0.0000000E+00
   2.050000      0.0000000E+00
   2.060000      0.0000000E+00
   2.070000      0.0000000E+00
   2.080000      0.0000000E+00
   2.090000      0.0000000E+00
   2.100000      0.0000000E+00
   2.110000      0.0000000E+00
   2.120000      0.0000000E+00
   2.130000      0.0000000E+00
   2.140000      0.0000000E+00
   2.150000      0.0000000E+00
   2.160000      0.0000000E+00
   2.170000      0.0000000E+00
   2.180000      0.0000000E+00
   2.190000      0.0000000E+00
   2.200000      0.0000000E+00
   2.210000      0.0000000E+00
   2.220000      0.0000000E+00
   2.230000      0.0000000E+00
   2.240000      0.0000000E+00
   2.250000      0.0000000E+00
   2.260000      0.0000000E+00
   2.270000      0.0000000E+00
   2.280000      0.0000000E+00
   2.290000      0.0000000E+00
   2.300000      0.0000000E+00
   2.310000      0.0000000E+00
   2.320000      0.0000000E+00
   2.330000      0.0000000E+00
   2.340000      0.0000000E+00
   2.350000      0.0000000E+00
   2.360000      0.0000000E+00
   2.370000      0.0000000E+00
   2.380000      0.0000000E+00
   2.390000      0.0000000E+00
   2.400000      0.0000000E+00
   2.410000      0.0000000E+00
   2.420000      0.0000000E+00
   2.430000      0.0000000E+00
   2.440000      0.0000000E+00
   2.450000      0.0000000E+00
   2.460000      0.0000000E+00
   2.470000      0.0000000E+00
   2.480000      0.0000000E+00
   2.490000      0.0000000E+00
   2.500000      0.0000000E+00
   2.510000      0.0000000E+00
   2.520000      0.0000000E+00
   2.530000      0.0000000E+00
   2.540000      0.0000000E+00
   2.550000      0.0000000E+00
   2.560000      0.0000000E+00
   2.570000      0.0000000E+00
   2.580000      0.0000000E+00
   2.590000      0.0000000E+00
   2.600000      0.0000000E+00
   2.610000      0.0000000E+00
   2.620000      0.0000000E+00
   2.630000      0.0000000E+00
   2.640000      0.0000000E+00
   2.650000      0.0000000E+00
   2.660000      0.0000000E+00
   2.670000      0.0000000E+00
   2.680000      0.0000000E+00
   2.690000      0.0000000E+00
   2.700000      0.0000000E+00
   2.710000      0.0000000E+00
   2.720000      0.0000000E+00
   2.730000      0.0000000E+00
   2.740000      0.0000000E+00
   2.750000      0.0000000E+00
   2.760000      0.0000000E+00
   2.770000      0.0000000E+00
   2.780000      0.0000000E+00
   2.790000      0.0000000E+00
   2.800000      0.0000000E+00
   2.810000      0.0000000E+00
   2.820000      0.0000000E+00
   2.830000      0.0000000E+00
   2.840000      0.0000000E+00
   2.850000      0.0000000E+00
   2.860000      0.0000000E+00
   2.870000      0.0000000E+00
   2.880000      0.0000000E+00
   2.890000      0.0000000E+00
   2.900000      0.0000000E+00
   2.910000      0.0000000E+00
   2.920000      0.0000000E+00
   2.930000      0.0000000E+00
   2.940000      0.0000000E+00
   2.950000      0.0000000E+00
   2.960000      0.0000000E+00
   2.970000      0.0000000E+00
   2.980000      0.0000000E+00
   2.990000      0.0000000E+00
   3.000000      0.0000000E+00
   3.010000      0.0000000E+00
   3.020000      0.0000000E+00
   3.030000      0.0000000E+00
   3.040000      0.0000000E+00
   3.050000      0.0000000E+00
   3.060000      0.0000000E+00
   3.070000      0.0000000E+00
   3.080000      0.0000000E+00
   3.090000      0.0000000E+00
   3.100000      0.0000000E+00
   3.110000      0.0000000E+00
   3.120000      0.0000000E+00
   3.130000      0.0000000E+00
   3.140000      0.0000000E+00
   3.150000      0.0000000E+00
   3.160000      0.0000000E+00
   3.170000      0.0000000E+00
   3.180000      0.0000000E+00
   3.190000      0.0000000E+00
   3.200000      0.0000000E+00
   3.210000      0.0000000E+00
   3.220000      0.0000000E+00
   3.230000      0.0000000E+00
   3.240000      0.0000000E+00
   3.250000      0.0000000E+00
   3.260000      0.0000000E+00
   3.270000      0.0000000E+00
   3.280000      0.0000000E+00
   3.290000      0.0000000E+00
   3.300000      0.0000000E+00
   3.310000      0.0000000E+00
   3.320000      0.0000000E+00
   3.330000      0.0000000E+00
   3.340000      0.0000000E+00
   3.350000      0.0000000E+00
   3.360000      0.0000000E+00
   3.370000      0.0000000E+00
   3.380000      0.0000000E+00
   3.390000      0.0000000E+00
   3.400000      0.0000000E+00
   3.410000      0.0000000E+00
   3.420000      0.0000000E+00
   3.430000      0.0000000E+00
   3.440000      0.0000000E+00
   3.450000      0.0000000E+00
   3.460000      0.0000000E+00
   3.470000      0.0000000E+00
   3.480000      0.0000000E+00
   3.490000      0.0000000E+00
   3.500000      0.0000000E+00
   3.510000      0.0000000E+00
   3.520000      0.0000000E+00
   3.530000      0.0000000E+00
   3.540000      0.0000000E+00
   3.550000      0.0000000E+00
   3.560000      0.0000000E+00
   3.570000      0.0000000E+00
   3.580000      0.0000000E+00
   3.590000      0.0000000E+00
   3.600000      0.0000000E+00
   3.610000      0.0000000E+00
   3.620000      0.0000000E+00
   3.630000      0.0000000E+00
   3.640000      0.0000000E+00
   3.650000      0.0000000E+00
   3.660000      0.0000000E+00
   3.670000      0.0000000E+00
   3.680000      0.0000000E+00
   3.690000      0.0000000E+00
   3.700000      0.0000000E+00
   3.710000      0.0000000E+00
   3.720000      0.0000000E+00
   3.730000      0.0000000E+00
   3.740000      0.0000000E+00
   3.750000      0.0000000E+00
   3.760000      0.0000000E+00
   3.770000      0.0000000E+00
   3.780000      0.0000000E+00
   3.790000      0.0000000E+00
   3.800000      0.0000000E+00
   3.810000      0.0000000E+00
   3.820000      0.0000000E+00
   3.830000      0.0000000E+00
   3.840000      0.0000000E+00
   3.850000      0.0000000E+00
   3.860000      0.0000000E+00
   3.870000      0.0000000E+00
   3.880000      0.0000000E+00
   3.890000      0.0000000E+00
   3.900000      0.0000000E+00
   3.910000      0.0000000E+00
   3.920000      0.0000000E+00
   3.930000      0.0000000E+00
   3.940000      0.0000000E+00
   3.950000      0.0000000E+00
   3.960000      0.0000000E+00
   3.970000      0.0000000E+00
   3.980000      0.0000000E+00
   3.990000      0.0000000E+00
   4.000000      0.0000000E+00
   4.010000     -1.1930875E-38
   4.020000     -1.5650344E-38
   4.030000     -1.9120879E-38
   4.040000     -2.2198747E-38
   4.050000     -2.3679702E-38
   4.060000     -2.3814910E-38
   4.070000     -2.3959510E-38
   4.080000     -2.4102608E-38
   4.090000     -2.4233237E-38
   4.100000     -2.4342149E-38
   4.110000     -2.5885186E-38
   4.120000     -2.9143777E-38
   4.130000     -3.2882337E-38
   4.140000     -3.6944746E-38
   4.150000     -4.1106247E-38
   4.160000     -4.5133018E-38
   4.170000     -4.8781929E-38
   4.180000     -5.0515582E-38
   4.190000     -5.0593007E-38
   4.200000     -5.0692734E-38
   4.210000     -5.0881371E-38
   4.220000     -5.1135685E-38
   4.230000     -5.1303095E-38
   4.240000     -5.1385570E-38
   4.250000     -5.1464603E-38
   4.260000     -5.1541899E-38
   4.270000     -5.1612619E-38
   4.280000     -5.1592009E-38
   4.290000     -5.1468482E-38
   4.300000     -5.1239151E-38
   4.310000     -5.2299570E-38
   4.320000     -5.3351530E-38
   4.330000     -4.9459900E-38
   4.340000     -4.1689380E-38
   4.350000     -3.3387461E-38
   4.360000     -2.4547392E-38
   4.370000     -1.3168230E-38
   4.380000      0.0000000E+00
   4.390000      1.9738697E-38
   4.400000      3.9693211E-38
   4.410000      6.1223694E-38
   4.420000      8.3639458E-38
   4.430000      1.0631055E-37
   4.440000      1.2871158E-37
   4.450000      1.5040178E-37
   4.460000      1.7121937E-37
   4.470000      1.9124249E-37
   4.480000      2.0952446E-37
   4.490000      2.2726243E-37
   4.500000      2.4776538E-37
   4.510000      2.7111807E-37
   4.520000      2.9585850E-37
   4.530000      3.2219506E-37
   4.540000      3.5136306E-37
   4.550000      3.8312809E-37
   4.560000      4.1652106E-37
   4.570000      4.5103529E-37
   4.580000      4.8604214E-37
   4.590000      5.2092125E-37
   4.600000      5.5507948E-37
   4.610000      5.8792152E-37
   4.620000      6.1871246E-37
   4.630000      6.4698582E-37
   4.640000      6.7252448E-37
   4.650000      6.9513655E-37
   4.660000      7.1186016E-37
   4.670000      7.2388523E-37
   4.680000      7.3552838E-37
   4.690000      7.4714862E-37
   4.700000      7.5907239E-37
   4.710000      7.7165099E-37
   4.720000      7.8018864E-37
   4.730000      7.8356897E-37
   4.740000      7.8477575E-37
   4.750000      7.8256309E-37
   4.760000      7.7612196E-37
   4.770000      7.6453373E-37
   4.780000      7.4678670E-37
   4.790000      7.3415928E-37
   4.800000      8.0158927E-37
   4.810000      1.0934194E-36
   4.820000      1.5439147E-36
   4.830000      2.0072908E-36
   4.840000      2.4888431E-36
   4.850000      2.9874853E-36
   4.860000      3.2208660E-36
   4.870000      3.1610980E-36
   4.880000      3.0569429E-36
   4.890000      2.9218242E-36
   4.900000      2.6795476E-36
   4.910000      2.3108056E-36
   4.920000      1.8964430E-36
   4.930000      1.4552077E-36
   4.940000      6.7139443E-37
   4.950000     -4.5084049E-37
   4.960000     -1.4639258E-36
   4.970000     -2.3674567E-36
   4.980000     -3.2672024E-36
   4.990000     -4.1418031E-36
   5.000000     -4.9752246E-36
   5.010000     -5.9201914E-36
   5.020000     -6.7184029E-36
   5.030000     -7.2005235E-36
   5.040000     -7.4306066E-36
   5.050000     -7.4655744E-36
   5.060000     -7.5473180E-36
   5.070000     -7.6914868E-36
   5.080000     -7.9895454E-36
   5.090000     -8.3879981E-36
   5.100000     -8.4527722E-36
   5.110000     -8.0999589E-36
   5.120000     -7.6010174E-36
   5.130000     -7.1793432E-36
   5.140000     -6.9103499E-36
   5.150000     -6.7071890E-36
   5.160000     -6.6379077E-36
   5.170000     -6.7994399E-36
   5.180000     -7.4674053E-36
   5.190000     -8.5981084E-36
   5.200000     -9.9352978E-36
   5.210000     -1.1391752E-35
   5.220000     -1.2959775E-35
   5.230000     -1.4741803E-35
   5.240000     -1.6169284E-35
   5.250000     -1.7107924E-35
   5.260000     -1.7980257E-35
   5.270000     -1.8777914E-35
   5.280000     -1.9425777E-35
   5.290000     -1.9634692E-35
   5.300000     -1.9489035E-35
   5.310000     -1.9216839E-35
   5.320000     -1.8627659E-35
   5.330000     -1.7721186E-35
   5.340000     -1.6690315E-35
   5.350000     -1.5571526E-35
   5.360000     -1.4325713E-35
   5.370000     -1.2953619E-35
   5.380000     -1.1403940E-35
   5.390000     -9.6740064E-36
   5.400000     -7.7948219E-36
   5.410000     -5.7614186E-36
   5.420000     -3.6078877E-36
   5.430000     -1.3413959E-36
   5.440000      1.0038478E-36
   5.450000      3.3606866E-36
   5.460000      5.7913649E-36
   5.470000      8.4184494E-36
   5.480000      1.1266900E-35
   5.490000      1.4353532E-35
   5.500000      1.7706072E-35
   5.510000      2.1185351E-35
   5.520000      2.4816052E-35
   5.530000      2.8840823E-35
   5.540000      3.3231621E-35
   5.550000      3.7874528E-35
   5.560000      4.2756902E-35
   5.570000      4.7914593E-35
   5.580000      5.3309415E-35
   5.590000      5.8727520E-35
   5.600000      6.4087665E-35
   5.610000      6.9570376E-35
   5.620000      7.4997584E-35
   5.630000      8.0192919E-35
   5.640000      8.2388109E-35
   5.650000      8.1499566E-35
   5.660000      8.0420223E-35
   5.670000      7.9309169E-35
   5.680000      7.8418388E-35
   5.690000      8.0613709E-35
   5.700000      8.5599912E-35
   5.710000      9.0364492E-35
   5.720000      9.9065039E-35
   5.730000      1.1487668E-34
   5.740000      1.3419015E-34
   5.750000      1.4972987E-34
   5.760000      1.5965857E-34
   5.770000      1.6505587E-34
   5.780000      1.6690850E-34
   5.790000      1.6806532E-34
   5.800000      1.6863996E-34
   5.810000      1.6855870E-34
   5.820000      1.6942273E-34
   5.830000      1.7125388E-34
   5.840000      1.7232114E-34
   5.850000      1.7328447E-34
   5.860000      1.7404905E-34
   5.870000      1.7619489E-34
   5.880000      1.7941741E-34
   5.890000      1.8125620E-34
   5.900000      1.8194772E-34
   5.910000      1.8109658E-34
   5.920000      1.7635796E-34
   5.930000      1.6741775E-34
   5.940000      1.5624634E-34
   5.950000      1.4337707E-34
   5.960000      1.2968178E-34
   5.970000      1.1538811E-34
   5.980000      9.9853906E-35
   5.990000      8.2972837E-35
   6.000000      6.4807673E-35
   6.010000      4.8145548E-35
   6.020000      3.5144317E-35
   6.030000      2.2793821E-35
   6.040000      5.6170457E-36
   6.050000     -1.6998739E-35
   6.060000     -4.5849098E-35
   6.070000     -8.0932269E-35
   6.080000     -1.1865975E-34
   6.090000     -1.5801054E-34
   6.100000     -2.0046474E-34
   6.110000     -2.4577700E-34
   6.120000     -2.9575369E-34
   6.130000     -3.4995277E-34
   6.140000     -4.0232171E-34
   6.150000     -4.5215937E-34
   6.160000     -4.9312346E-34
   6.170000     -5.2850084E-34
   6.180000     -5.7300055E-34
   6.190000     -6.2812348E-34
   6.200000     -6.8594944E-34
   6.210000     -7.3432953E-34
   6.220000     -7.8001994E-34
   6.230000     -8.3147491E-34
   6.240000     -8.8276200E-34
   6.250000     -9.3347053E-34
   6.260000     -9.8439708E-34
   6.270000     -1.0362320E-33
   6.280000     -1.0890652E-33
   6.290000     -1.1420131E-33
   6.300000     -1.1951083E-33
   6.310000     -1.2487242E-33
   6.320000     -1.3012682E-33
   6.330000     -1.3521719E-33
   6.340000     -1.4029276E-33
   6.350000     -1.4494619E-33
   6.360000     -1.4898102E-33
   6.370000     -1.5270386E-33
   6.380000     -1.5612348E-33
   6.390000     -1.5946578E-33
   6.400000     -1.6275511E-33
   6.410000     -1.6572650E-33
   6.420000     -1.6828796E-33
   6.430000     -1.7042618E-33
   6.440000     -1.7209983E-33
   6.450000     -1.7328625E-33
   6.460000     -1.7391777E-33
   6.470000     -1.7388546E-33
   6.480000     -1.7312132E-33
   6.490000     -1.7159284E-33
   6.500000     -1.6926303E-33
   6.510000     -1.6605004E-33
   6.520000     -1.6188379E-33
   6.530000     -1.5671202E-33
   6.540000     -1.5052104E-33
   6.550000     -1.4339826E-33
   6.560000     -1.3527898E-33
   6.570000     -1.2606180E-33
   6.580000     -1.1568341E-33
   6.590000     -1.0407969E-33
   6.600000     -9.1269698E-34
   6.610000     -7.7100381E-34
   6.620000     -6.1552525E-34
   6.630000     -4.4792359E-34
   6.640000     -2.6750796E-34
   6.650000     -7.3109332E-35
   6.660000      1.3551221E-34
   6.670000      3.5749316E-34
   6.680000      5.9299939E-34
   6.690000      8.4297510E-34
   6.700000      1.1072251E-33
   6.710000      1.3824627E-33
   6.720000      1.6698389E-33
   6.730000      1.9742474E-33
   6.740000      2.2958714E-33
   6.750000      2.6348669E-33
   6.760000      2.9914452E-33
   6.770000      3.3619484E-33
   6.780000      3.7453715E-33
   6.790000      4.1432822E-33
   6.800000      4.5541722E-33
   6.810000      4.9792853E-33
   6.820000      5.4228901E-33
   6.830000      5.8794301E-33
   6.840000      6.3459136E-33
   6.850000      6.8242538E-33
   6.860000      7.3144379E-33
   6.870000      7.8157510E-33
   6.880000      8.3229504E-33
   6.890000      8.8346849E-33
   6.900000      9.3502325E-33
   6.910000      9.8716818E-33
   6.920000      1.0398480E-32
   6.930000      1.0925824E-32
   6.940000      1.1451312E-32
   6.950000      1.1973322E-32
   6.960000      1.2489617E-32
   6.970000      1.2997362E-32
   6.980000      1.3493898E-32
   6.990000      1.3976454E-32
   7.000000      1.4441797E-32
   7.010000      1.4886842E-32
   7.020000      1.5308854E-32
   7.030000      1.5704992E-32
   7.040000      1.6071989E-32
   7.050000      1.6406439E-32
   7.060000      1.6705125E-32