  -2.600000      0.0000000E+00
  -2.590000      0.0000000E+00
  -2.580000      0.0000000E+00
  -2.570000      0.0000000E+00
  -2.560000      0.0000000E+00
  -2.550000      0.0000000E+00
  -2.540000      0.0000000E+00
  -2.530000      0.0000000E+00
  -2.520000      0.0000000E+00
  -2.510000      0.0000000E+00
  -2.500000      0.0000000E+00
  -2.490000      0.0000000E+00
  -2.480000      0.0000000E+00
  -2.470000      0.0000000E+00
  -2.460000      0.0000000E+00
  -2.450000      0.0000000E+00
  -2.440000      0.0000000E+00
  -2.430000      0.0000000E+00
  -2.420000      0.0000000E+00
  -2.410000      0.0000000E+00
  -2.400000      0.0000000E+00
  -2.390000      0.0000000E+00
  -2.380000      0.0000000E+00
  -2.370000      0.0000000E+00
  -2.360000      0.0000000E+00
  -2.350000      0.0000000E+00
  -2.340000      0.0000000E+00
  -2.330000      0.0000000E+00
  -2.320000      0.0000000E+00
  -2.310000      0.0000000E+00
  -2.300000      0.0000000E+00
  -2.290000      0.0000000E+00
  -2.280000      0.0000000E+00
  -2.270000      0.0000000E+00
  -2.260000      0.0000000E+00
  -2.250000      0.0000000E+00
  -2.240000      0.0000000E+00
  -2.230000      0.0000000E+00
  -2.220000      0.0000000E+00
  -2.210000      0.0000000E+00
  -2.200000      0.0000000E+00
  -2.190000      0.0000000E+00
  -2.180000      0.0000000E+00
  -2.170000      0.0000000E+00
  -2.160000      0.0000000E+00
  -2.150000      0.0000000E+00
  -2.140000      0.0000000E+00
  -2.130000      0.0000000E+00
  -2.120000      0.0000000E+00
  -2.110000      0.0000000E+00
  -2.100000      0.0000000E+00
  -2.090000      0.0000000E+00
  -2.080000      0.0000000E+00
  -2.070000      0.0000000E+00
  -2.060000      0.0000000E+00
  -2.050000      0.0000000E+00
  -2.040000      0.0000000E+00
  -2.030000      0.0000000E+00
  -2.020000      0.0000000E+00
  -2.010000      0.0000000E+00
  -2.000000      0.0000000E+00
  -1.990000      0.0000000E+00
  -1.980000      0.0000000E+00
  -1.970000      0.0000000E+00
  -1.960000      0.0000000E+00
  -1.950000      0.0000000E+00
  -1.940000      0.0000000E+00
  -1.930000      0.0000000E+00
  -1.920000      0.0000000E+00
  -1.910000      0.0000000E+00
  -1.900000      0.0000000E+00
  -1.890000      0.0000000E+00
  -1.880000      0.0000000E+00
  -1.870000      0.0000000E+00
  -1.860000      0.0000000E+00
  -1.850000      0.0000000E+00
  -1.840000      0.0000000E+00
  -1.830000      0.0000000E+00
  -1.820000      0.0000000E+00
  -1.810000      0.0000000E+00
  -1.800000      0.0000000E+00
  -1.790000      0.0000000E+00
  -1.780000      0.0000000E+00
  -1.770000      0.0000000E+00
  -1.760000      0.0000000E+00
  -1.750000      0.0000000E+00
  -1.740000      0.0000000E+00
  -1.730000      0.0000000E+00
  -1.720000      0.0000000E+00
  -1.710000      0.0000000E+00
  -1.700000      0.0000000E+00
  -1.690000      0.0000000E+00
  -1.680000      0.0000000E+00
  -1.670000      0.0000000E+00
  -1.660000      0.0000000E+00
  -1.650000      0.0000000E+00
  -1.640000      0.0000000E+00
  -1.630000      0.0000000E+00
  -1.620000      0.0000000E+00
  -1.610000      0.0000000E+00
  -1.600000      0.0000000E+00
  -1.590000      0.0000000E+00
  -1.580000      0.0000000E+00
  -1.570000      0.0000000E+00
  -1.560000      0.0000000E+00
  -1.550000      0.0000000E+00
  -1.540000      0.0000000E+00
  -1.530000      0.0000000E+00
  -1.520000      0.0000000E+00
  -1.510000      0.0000000E+00
  -1.500000      0.0000000E+00
  -1.490000      0.0000000E+00
  -1.480000      0.0000000E+00
  -1.470000      0.0000000E+00
  -1.460000      0.0000000E+00
  -1.450000      0.0000000E+00
  -1.440000      0.0000000E+00
  -1.430000      0.0000000E+00
  -1.420000      0.0000000E+00
  -1.410000      0.0000000E+00
  -1.400000      0.0000000E+00
  -1.390000      0.0000000E+00
  -1.380000      0.0000000E+00
  -1.370000      0.0000000E+00
  -1.360000      0.0000000E+00
  -1.350000      0.0000000E+00
  -1.340000      0.0000000E+00
  -1.330000      0.0000000E+00
  -1.320000      0.0000000E+00
  -1.310000      0.0000000E+00
  -1.300000      0.0000000E+00
  -1.290000      0.0000000E+00
  -1.280000      0.0000000E+00
  -1.270000      0.0000000E+00
  -1.260000      0.0000000E+00
  -1.250000      0.0000000E+00
  -1.240000      0.0000000E+00
  -1.230000      0.0000000E+00
  -1.220000      0.0000000E+00
  -1.210000      0.0000000E+00
  -1.200000      0.0000000E+00
  -1.190000      0.0000000E+00
  -1.180000      0.0000000E+00
  -1.170000      0.0000000E+00
  -1.160000      0.0000000E+00
  -1.150000      0.0000000E+00
  -1.140000      0.0000000E+00
  -1.130000      0.0000000E+00
  -1.120000      0.0000000E+00
  -1.110000      0.0000000E+00
  -1.100000      0.0000000E+00
  -1.090000      0.0000000E+00
  -1.080000      0.0000000E+00
  -1.070000      0.0000000E+00
  -1.060000      0.0000000E+00
  -1.050000      0.0000000E+00
  -1.040000      0.0000000E+00
  -1.030000      0.0000000E+00
  -1.020000      0.0000000E+00
  -1.010000      0.0000000E+00
  -1.000000      0.0000000E+00
 -0.9900000      0.0000000E+00
 -0.9800000      0.0000000E+00
 -0.9700000      0.0000000E+00
 -0.9600000      0.0000000E+00
 -0.9500000      0.0000000E+00
 -0.9400000      0.0000000E+00
 -0.9300000      0.0000000E+00
 -0.9200000      0.0000000E+00
 -0.9100000      0.0000000E+00
 -0.9000000      0.0000000E+00
 -0.8900000      0.0000000E+00
 -0.8800000      0.0000000E+00
 -0.8700000      0.0000000E+00
 -0.8600000      0.0000000E+00
 -0.8500000      0.0000000E+00
 -0.8400000      0.0000000E+00
 -0.8300000      0.0000000E+00
 -0.8200000      0.0000000E+00
 -0.8100000      0.0000000E+00
 -0.8000000      0.0000000E+00
 -0.7900000      0.0000000E+00
 -0.7800000      0.0000000E+00
 -0.7700000      0.0000000E+00
 -0.7600000      0.0000000E+00
 -0.7500000      0.0000000E+00
 -0.7400000      0.0000000E+00
 -0.7300000      0.0000000E+00
 -0.7200000      0.0000000E+00
 -0.7100000      0.0000000E+00
 -0.7000000      0.0000000E+00
 -0.6900000      0.0000000E+00
 -0.6800000      0.0000000E+00
 -0.6700000      0.0000000E+00
 -0.6600000      0.0000000E+00
 -0.6500000      0.0000000E+00
 -0.6400000      0.0000000E+00
 -0.6300000      0.0000000E+00
 -0.6200000      0.0000000E+00
 -0.6100000      0.0000000E+00
 -0.6000000      0.0000000E+00
 -0.5900000      0.0000000E+00
 -0.5800000      0.0000000E+00
 -0.5700000      0.0000000E+00
 -0.5600000      0.0000000E+00
 -0.5500000      0.0000000E+00
 -0.5400000      0.0000000E+00
 -0.5300000      0.0000000E+00
 -0.5200000      0.0000000E+00
 -0.5100000      0.0000000E+00
 -0.5000000      0.0000000E+00
 -0.4900000      0.0000000E+00
 -0.4800000      0.0000000E+00
 -0.4700000      0.0000000E+00
 -0.4600000      0.0000000E+00
 -0.4500000      0.0000000E+00
 -0.4400000      0.0000000E+00
 -0.4300000      0.0000000E+00
 -0.4200000      0.0000000E+00
 -0.4100000      0.0000000E+00
 -0.4000000      0.0000000E+00
 -0.3900000      0.0000000E+00
 -0.3800000      0.0000000E+00
 -0.3700000      0.0000000E+00
 -0.3600000      0.0000000E+00
 -0.3500000      0.0000000E+00
 -0.3400000      0.0000000E+00
 -0.3300000      0.0000000E+00
 -0.3200000      0.0000000E+00
 -0.3100000      0.0000000E+00
 -0.3000000      0.0000000E+00
 -0.2900000      0.0000000E+00
 -0.2800000      0.0000000E+00
 -0.2700000      0.0000000E+00
 -0.2600000      0.0000000E+00
 -0.2500000      0.0000000E+00
 -0.2400000      0.0000000E+00
 -0.2300000      0.0000000E+00
 -0.2200000      0.0000000E+00
 -0.2100000      0.0000000E+00
 -0.2000000      0.0000000E+00
 -0.1900000      0.0000000E+00
 -0.1800000      0.0000000E+00
 -0.1700000      0.0000000E+00
 -0.1600000      0.0000000E+00
 -0.1500000      0.0000000E+00
 -0.1400000      0.0000000E+00
 -0.1300000      0.0000000E+00
 -0.1200000      0.0000000E+00
 -0.1100000      0.0000000E+00
 -0.1000000      0.0000000E+00
 -9.0000004E-02  0.0000000E+00
 -7.9999998E-02  0.0000000E+00
 -7.0000000E-02  0.0000000E+00
 -5.9999999E-02  0.0000000E+00
 -5.0000001E-02  0.0000000E+00
 -3.9999999E-02  0.0000000E+00
 -2.9999999E-02  0.0000000E+00
 -2.0000000E-02  0.0000000E+00
 -9.9999998E-03  0.0000000E+00
 -3.4694470E-17  0.0000000E+00
  9.9999998E-03  0.0000000E+00
  2.0000000E-02  0.0000000E+00
  2.9999999E-02  0.0000000E+00
  3.9999999E-02  0.0000000E+00
  5.0000001E-02  0.0000000E+00
  5.9999999E-02  0.0000000E+00
  7.0000000E-02  0.0000000E+00
  7.9999998E-02  0.0000000E+00
  9.0000004E-02  0.0000000E+00
  0.1000000      0.0000000E+00
  0.1100000      0.0000000E+00
  0.1200000      0.0000000E+00
  0.1300000      0.0000000E+00
  0.1400000      0.0000000E+00
  0.1500000      0.0000000E+00
  0.1600000      0.0000000E+00
  0.1700000      0.0000000E+00
  0.1800000      0.0000000E+00
  0.1900000      0.0000000E+00
  0.2000000      0.0000000E+00
  0.2100000      0.0000000E+00
  0.2200000      0.0000000E+00
  0.2300000      0.0000000E+00
  0.2400000      0.0000000E+00
  0.2500000      0.0000000E+00
  0.2600000      0.0000000E+00
  0.2700000      0.0000000E+00
  0.2800000      0.0000000E+00
  0.2900000      0.0000000E+00
  0.3000000      0.0000000E+00
  0.3100000      0.0000000E+00
  0.3200000      0.0000000E+00
  0.3300000      0.0000000E+00
  0.3400000      0.0000000E+00
  0.3500000      0.0000000E+00
  0.3600000      0.0000000E+00
  0.3700000      0.0000000E+00
  0.3800000      0.0000000E+00
  0.3900000      0.0000000E+00
  0.4000000      0.0000000E+00
  0.4100000      0.0000000E+00
  0.4200000      0.0000000E+00
  0.4300000      0.0000000E+00
  0.4400000      0.0000000E+00
  0.4500000      0.0000000E+00
  0.4600000      0.0000000E+00
  0.4700000      0.0000000E+00
  0.4800000      0.0000000E+00
  0.4900000      0.0000000E+00
  0.5000000      0.0000000E+00
  0.5100000      0.0000000E+00
  0.5200000      0.0000000E+00
  0.5300000      0.0000000E+00
  0.5400000      0.0000000E+00
  0.5500000      0.0000000E+00
  0.5600000      0.0000000E+00
  0.5700000      0.0000000E+00
  0.5800000      0.0000000E+00
  0.5900000      0.0000000E+00
  0.6000000      0.0000000E+00
  0.6100000      0.0000000E+00
  0.6200000      0.0000000E+00
  0.6300000      0.0000000E+00
  0.6400000      0.0000000E+00
  0.6500000      0.0000000E+00
  0.6600000      0.0000000E+00
  0.6700000      0.0000000E+00
  0.6800000      0.0000000E+00
  0.6900000      0.0000000E+00
  0.7000000      0.0000000E+00
  0.7100000      0.0000000E+00
  0.7200000      0.0000000E+00
  0.7300000      0.0000000E+00
  0.7400000      0.0000000E+00
  0.7500000      0.0000000E+00
  0.7600000      0.0000000E+00
  0.7700000      0.0000000E+00
  0.7800000      0.0000000E+00
  0.7900000      0.0000000E+00
  0.8000000      0.0000000E+00
  0.8100000      0.0000000E+00
  0.8200000      0.0000000E+00
  0.8300000      0.0000000E+00
  0.8400000      0.0000000E+00
  0.8500000      0.0000000E+00
  0.8600000      0.0000000E+00
  0.8700000      0.0000000E+00
  0.8800000      0.0000000E+00
  0.8900000      0.0000000E+00
  0.9000000      0.0000000E+00
  0.9100000      0.0000000E+00
  0.9200000      0.0000000E+00
  0.9300000      0.0000000E+00
  0.9400000      0.0000000E+00
  0.9500000      0.0000000E+00
  0.9600000      0.0000000E+00
  0.9700000      0.0000000E+00
  0.9800000      0.0000000E+00
  0.9900000      0.0000000E+00
   1.000000      0.0000000E+00
   1.010000      0.0000000E+00
   1.020000      0.0000000E+00
   1.030000      0.0000000E+00
   1.040000      0.0000000E+00
   1.050000      0.0000000E+00
   1.060000      0.0000000E+00
   1.070000      0.0000000E+00
   1.080000      0.0000000E+00
   1.090000      0.0000000E+00
   1.100000      0.0000000E+00
   1.110000      0.0000000E+00
   1.120000      0.0000000E+00
   1.130000      0.0000000E+00
   1.140000      0.0000000E+00
   1.150000      0.0000000E+00
   1.160000      0.0000000E+00
   1.170000      0.0000000E+00
   1.180000      0.0000000E+00
   1.190000      0.0000000E+00
   1.200000      0.0000000E+00
   1.210000      0.0000000E+00
   1.220000      0.0000000E+00
   1.230000      0.0000000E+00
   1.240000      0.0000000E+00
   1.250000      0.0000000E+00
   1.260000      0.0000000E+00
   1.270000      0.0000000E+00
   1.280000      0.0000000E+00
   1.290000      0.0000000E+00
   1.300000      0.0000000E+00
   1.310000      0.0000000E+00
   1.320000      0.0000000E+00
   1.330000      0.0000000E+00
   1.340000      0.0000000E+00
   1.350000      0.0000000E+00
   1.360000      0.0000000E+00
   1.370000      0.0000000E+00
   1.380000      0.0000000E+00
   1.390000      0.0000000E+00
   1.400000      0.0000000E+00
   1.410000      0.0000000E+00
   1.420000      0.0000000E+00
   1.430000      0.0000000E+00
   1.440000      0.0000000E+00
   1.450000      0.0000000E+00
   1.460000      0.0000000E+00
   1.470000      0.0000000E+00
   1.480000      0.0000000E+00
   1.490000      0.0000000E+00
   1.500000      0.0000000E+00
   1.510000      0.0000000E+00
   1.520000      0.0000000E+00
   1.530000      0.0000000E+00
   1.540000      0.0000000E+00
   1.550000      0.0000000E+00
   1.560000      0.0000000E+00
   1.570000      0.0000000E+00
   1.580000      0.0000000E+00
   1.590000      0.0000000E+00
   1.600000      0.0000000E+00
   1.610000      0.0000000E+00
   1.620000      0.0000000E+00
   1.630000      0.0000000E+00
   1.640000      0.0000000E+00
   1.650000      0.0000000E+00
   1.660000      0.0000000E+00
   1.670000      0.0000000E+00
   1.680000      0.0000000E+00
   1.690000      0.0000000E+00
   1.700000      0.0000000E+00
   1.710000      0.0000000E+00
   1.720000      0.0000000E+00
   1.730000      0.0000000E+00
   1.740000      0.0000000E+00
   1.750000      0.0000000E+00
   1.760000      0.0000000E+00
   1.770000      0.0000000E+00
   1.780000      0.0000000E+00
   1.790000      0.0000000E+00
   1.800000      0.0000000E+00
   1.810000      0.0000000E+00
   1.820000      0.0000000E+00
   1.830000      0.0000000E+00
   1.840000      0.0000000E+00
   1.850000      0.0000000E+00
   1.860000      0.0000000E+00
   1.870000      0.0000000E+00
   1.880000      0.0000000E+00
   1.890000      0.0000000E+00
   1.900000      0.0000000E+00
   1.910000      0.0000000E+00
   1.920000      0.0000000E+00
   1.930000      0.0000000E+00
   1.940000      0.0000000E+00
   1.950000      0.0000000E+00
   1.960000      0.0000000E+00
   1.970000      0.0000000E+00
   1.980000      0.0000000E+00
   1.990000      0.0000000E+00
   2.000000      0.0000000E+00
   2.010000      0.0000000E+00
   2.020000      0.0000000E+00
   2.030000      0.0000000E+00
   2.040000      0.0000000E+00
   2.050000      0.0000000E+00
   2.060000      0.0000000E+00
   2.070000      0.0000000E+00
   2.080000      0.0000000E+00
   2.090000      0.0000000E+00
   2.100000      0.0000000E+00
   2.110000      0.0000000E+00
   2.120000      0.0000000E+00
   2.130000      0.0000000E+00
   2.140000      0.0000000E+00
   2.150000      0.0000000E+00
   2.160000     -1.1935034E-38
   2.170000     -1.7423152E-38
   2.180000     -2.2887974E-38
   2.190000     -2.8034924E-38
   2.200000     -3.2618565E-38
   2.210000     -3.4742752E-38
   2.220000     -3.4742752E-38
   2.230000     -3.4742752E-38
   2.240000     -3.4742752E-38
   2.250000     -3.4742752E-38
   2.260000     -3.6786220E-38
   2.270000     -4.1185888E-38
   2.280000     -4.6111063E-38
   2.290000     -5.1347505E-38
   2.300000     -5.6646947E-38
   2.310000     -6.1711234E-38
   2.320000     -6.6143333E-38
   2.330000     -6.8143126E-38
   2.340000     -6.8143126E-38
   2.350000     -6.8143126E-38
   2.360000     -6.8143126E-38
   2.370000     -6.6185602E-38
   2.380000     -6.3391127E-38
   2.390000     -6.1307010E-38
   2.400000     -5.8384775E-38
   2.410000     -4.9309361E-38
   2.420000     -3.3894857E-38
   2.430000     -1.7441427E-38
   2.440000      0.0000000E+00
   2.450000      1.7455134E-38
   2.460000      3.5706447E-38
   2.470000      5.4636302E-38
   2.480000      7.4435181E-38
   2.490000      9.7058304E-38
   2.500000      1.2074027E-37
   2.510000      1.4366846E-37
   2.520000      1.6782591E-37
   2.530000      1.9359994E-37
   2.540000      2.2121642E-37
   2.550000      2.5241049E-37
   2.560000      2.8761810E-37
   2.570000      3.2244070E-37
   2.580000      3.5522667E-37
   2.590000      3.8711836E-37
   2.600000      4.1724453E-37
   2.610000      4.4475330E-37
   2.620000      4.6711852E-37
   2.630000      4.8494577E-37
   2.640000      5.0085905E-37
   2.650000      5.1479136E-37
   2.660000      5.3232208E-37
   2.670000      5.4833692E-37
   2.680000      5.5898455E-37
   2.690000      5.6736436E-37
   2.700000      5.7115383E-37
   2.710000      5.7298157E-37
   2.720000      5.7320780E-37
   2.730000      5.7134333E-37
   2.740000      5.8207862E-37
   2.750000      6.0385888E-37
   2.760000      6.2170806E-37
   2.770000      6.3435463E-37
   2.780000      6.4032107E-37
   2.790000      5.8853576E-37
   2.800000      4.7482256E-37
   2.810000      3.4755868E-37
   2.820000      2.0194014E-37
   2.830000      3.8160429E-38
   2.840000     -1.3651962E-37
   2.850000     -3.1989931E-37
   2.860000     -5.0996587E-37
   2.870000     -7.0485447E-37
   2.880000     -9.0298068E-37
   2.890000     -1.1025320E-36
   2.900000     -1.2519069E-36
   2.910000     -1.3444707E-36
   2.920000     -1.4272759E-36
   2.930000     -1.5080029E-36
   2.940000     -1.5936016E-36
   2.950000     -1.6831838E-36
   2.960000     -1.7748406E-36
   2.970000     -1.8755536E-36
   2.980000     -1.9946987E-36
   2.990000     -2.1316039E-36
   3.000000     -2.4988266E-36
   3.010000     -3.1288619E-36
   3.020000     -4.0218961E-36
   3.030000     -5.2182238E-36
   3.040000     -6.3910187E-36
   3.050000     -7.0683543E-36
   3.060000     -7.0577796E-36
   3.070000     -6.7359320E-36
   3.080000     -6.3751792E-36
   3.090000     -5.4303523E-36
   3.100000     -4.2287721E-36
   3.110000     -3.2910333E-36
   3.120000     -2.5032010E-36
   3.130000     -1.9180381E-36
   3.140000     -1.3607187E-36
   3.150000     -8.0362893E-37
   3.160000     -2.5383165E-37
   3.170000     -4.0990685E-38
   3.180000     -1.8780091E-37
   3.190000     -3.9377375E-37
   3.200000     -6.3127846E-37
   3.210000     -9.8581020E-37
   3.220000     -1.4188120E-36
   3.230000     -2.0239822E-36
   3.240000     -2.6824105E-36
   3.250000     -2.7525026E-36
   3.260000     -2.3964336E-36
   3.270000     -2.0606779E-36
   3.280000     -1.8897914E-36
   3.290000     -1.8175174E-36
   3.300000     -1.6005056E-36
   3.310000     -1.5428765E-36
   3.320000     -1.4690649E-36
   3.330000     -7.0360106E-37
   3.340000      5.3441815E-37
   3.350000      1.9296964E-36
   3.360000      3.5824880E-36
   3.370000      5.6033668E-36
   3.380000      8.0626386E-36
   3.390000      1.0598656E-35
   3.400000      1.2830030E-35
   3.410000      1.5027786E-35
   3.420000      1.7507520E-35
   3.430000      2.0886972E-35
   3.440000      2.4798224E-35
   3.450000      2.7916731E-35
   3.460000      3.0253138E-35
   3.470000      3.2199141E-35
   3.480000      3.3869654E-35
   3.490000      3.5283685E-35
   3.500000      3.6717286E-35
   3.510000      3.8128296E-35
   3.520000      3.8988100E-35
   3.530000      3.9250287E-35
   3.540000      3.9191934E-35
   3.550000      3.9004435E-35
   3.560000      3.8769689E-35
   3.570000      3.8632840E-35
   3.580000      3.8647135E-35
   3.590000      3.8853105E-35
   3.600000      3.9191352E-35
   3.610000      3.9271874E-35
   3.620000      3.9012738E-35
   3.630000      3.8641900E-35
   3.640000      3.8590432E-35
   3.650000      3.8699162E-35
   3.660000      3.8708771E-35
   3.670000      3.8881599E-35
   3.680000      3.8995891E-35
   3.690000      3.8518321E-35
   3.700000      3.7652668E-35
   3.710000      3.6710267E-35
   3.720000      3.4933170E-35
   3.730000      3.1979533E-35
   3.740000      2.6548959E-35
   3.750000      1.8946621E-35
   3.760000      1.0984060E-35
   3.770000      2.3914040E-36
   3.780000     -6.7546772E-36
   3.790000     -1.5050310E-35
   3.800000     -2.2679041E-35
   3.810000     -3.0996538E-35
   3.820000     -3.7351815E-35
   3.830000     -4.0419101E-35
   3.840000     -4.2028168E-35
   3.850000     -4.5662299E-35
   3.860000     -5.1871070E-35
   3.870000     -6.0368247E-35
   3.880000     -7.1195979E-35
   3.890000     -8.3593220E-35
   3.900000     -9.7590195E-35
   3.910000     -1.1170280E-34
   3.920000     -1.2668999E-34
   3.930000     -1.4257447E-34
   3.940000     -1.5776871E-34
   3.950000     -1.7215492E-34
   3.960000     -1.8615104E-34
   3.970000     -1.9840164E-34
   3.980000     -2.0920112E-34
   3.990000     -2.1760322E-34
   4.000000     -2.2343227E-34
   4.010000     -2.2808757E-34
   4.020000     -2.3193821E-34
   4.030000     -2.3574142E-34
   4.040000     -2.4107139E-34
   4.050000     -2.4874659E-34
   4.060000     -2.5740966E-34
   4.070000     -2.7000945E-34
   4.080000     -2.8571731E-34
   4.090000     -3.0079110E-34
   4.100000     -3.1496781E-34
   4.110000     -3.2748641E-34
   4.120000     -3.3478070E-34
   4.130000     -3.3825392E-34
   4.140000     -3.4190532E-34
   4.150000     -3.4432498E-34
   4.160000     -3.4727852E-34
   4.170000     -3.4819702E-34
   4.180000     -3.4430122E-34
   4.190000     -3.3696044E-34
   4.200000     -3.2604932E-34
   4.210000     -3.1043580E-34
   4.220000     -2.8943440E-34
   4.230000     -2.6325609E-34
   4.240000     -2.3227550E-34
   4.250000     -1.9859208E-34
   4.260000     -1.6287459E-34
   4.270000     -1.2550592E-34
   4.280000     -8.7500998E-35
   4.290000     -4.9578724E-35
   4.300000     -9.3524918E-36
   4.310000      3.6836899E-35
   4.320000      8.8744824E-35
   4.330000      1.4554320E-34
   4.340000      2.0612016E-34
   4.350000      2.7047232E-34
   4.360000      3.3940850E-34
   4.370000      4.1166276E-34
   4.380000      4.8765135E-34
   4.390000      5.6788825E-34
   4.400000      6.5195222E-34
   4.410000      7.4088300E-34
   4.420000      8.3417138E-34
   4.430000      9.3082273E-34
   4.440000      1.0298801E-33
   4.450000      1.1320919E-33
   4.460000      1.2406215E-33
   4.470000      1.3552845E-33
   4.480000      1.4752353E-33
   4.490000      1.5993885E-33
   4.500000      1.7259559E-33
   4.510000      1.8565690E-33
   4.520000      1.9915591E-33
   4.530000      2.1259280E-33
   4.540000      2.2616798E-33
   4.550000      2.4036132E-33
   4.560000      2.5461399E-33
   4.570000      2.6860296E-33
   4.580000      2.8247991E-33
   4.590000      2.9585264E-33
   4.600000      3.0877202E-33
   4.610000      3.2147184E-33
   4.620000      3.3369823E-33
   4.630000      3.4545299E-33
   4.640000      3.5681077E-33
   4.650000      3.6778684E-33
   4.660000      3.7816443E-33
   4.670000      3.8774192E-33
   4.680000      3.9636299E-33
   4.690000      4.0396003E-33
   4.700000      4.1058971E-33
   4.710000      4.1600301E-33
   4.720000      4.1982186E-33
   4.730000      4.2192096E-33
   4.740000      4.2229300E-33
   4.750000      4.2068867E-33
   4.760000      4.1711477E-33
   4.770000      4.1170893E-33
   4.780000      4.0403743E-33
   4.790000      3.9370880E-33
   4.800000      3.8070522E-33
   4.810000      3.6491242E-33
   4.820000      3.4603769E-33
   4.830000      3.2375866E-33
   4.840000      2.9791082E-33
   4.850000      2.6834855E-33
   4.860000      2.3490286E-33
   4.870000      1.9740896E-33
   4.880000      1.5555682E-33
   4.890000      1.0888958E-33
   4.900000      5.7443893E-34
   4.910000      1.4551726E-35
   4.920000     -5.9536227E-34
   4.930000     -1.2581569E-33
   4.940000     -1.9740260E-33
   4.950000     -2.7446322E-33
   4.960000     -3.5705711E-33
   4.970000     -4.4526117E-33
   4.980000     -5.3923812E-33
   4.990000     -6.3911055E-33
   5.000000     -7.4486184E-33
   5.010000     -8.5654056E-33
   5.020000     -9.7421210E-33
   5.030000     -1.0978335E-32
   5.040000     -1.2273269E-32
   5.050000     -1.3627625E-32
   5.060000     -1.5041266E-32
   5.070000     -1.6512584E-32
   5.080000     -1.8040925E-32
   5.090000     -1.9624499E-32
   5.100000     -2.1260574E-32
   5.110000     -2.2947060E-32
   5.120000     -2.4681629E-32
   5.130000     -2.6460963E-32
   5.140000     -2.8280795E-32
   5.150000     -3.0136889E-32
   5.160000     -3.2024610E-32
   5.170000     -3.3939111E-32
   5.180000     -3.5874774E-32
   5.190000     -3.7824813E-32
   5.200000     -3.9782270E-32
   5.210000     -4.1738942E-32
   5.220000     -4.3686369E-32
   5.230000     -4.5616348E-32
   5.240000     -4.7519148E-32
   5.250000     -4.9383699E-32
   5.260000     -5.1198750E-32
   5.270000     -5.2953017E-32
   5.280000     -5.4633762E-32
   5.290000     -5.6227457E-32
   5.300000     -5.7720569E-32
   5.310000     -5.9098078E-32
   5.320000     -6.0344326E-32
   5.330000     -6.1443583E-32
   5.340000     -6.2379277E-32
   5.350000     -6.3134068E-32
   5.360000     -6.3689689E-32
   5.370000     -6.4027978E-32
   5.380000     -6.4130664E-32
   5.390000     -6.3977279E-32
   5.400000     -6.3547001E-32
   5.410000     -6.2819188E-32
   5.420000     -6.1772211E-32
   5.430000     -6.0384369E-32
   5.440000     -5.8633864E-32
   5.450000     -5.6497233E-32
   5.460000     -5.3950935E-32
   5.470000     -5.0972315E-32
   5.480000     -4.7538041E-32
   5.490000     -4.3624376E-32
   5.500000     -3.9207474E-32
   5.510000     -3.4264306E-32
   5.520000     -2.8771970E-32
   5.530000     -2.2707475E-32
   5.540000     -1.6048667E-32
   5.550000     -8.7733961E-33
   5.560000     -8.6074435E-34
   5.570000      7.7091226E-33
   5.580000      1.6955364E-32
   5.590000      2.6895784E-32
   5.600000      3.7547115E-32
   5.610000      4.8924348E-32
   5.620000      6.1040777E-32
   5.630000      7.3907867E-32
   5.640000      8.7534950E-32
   5.650000      1.0192910E-31
   5.660000      1.1709495E-31
   5.670000      1.3303454E-31
   5.680000      1.4974672E-31
   5.690000      1.6722721E-31
   5.700000      1.8546839E-31
   5.710000      2.0445956E-31
   5.720000      2.2418631E-31
   5.730000      2.4462924E-31
   5.740000      2.6576585E-31
   5.750000      2.8756915E-31
   5.760000      3.1000687E-31
   5.770000      3.3304207E-31
   5.780000      3.5663271E-31
   5.790000      3.8073174E-31
   5.800000      4.0528633E-31
   5.810000      4.3023766E-31
   5.820000      4.5552099E-31
   5.830000      4.8106547E-31
   5.840000      5.0679351E-31
   5.850000      5.3262105E-31
   5.860000      5.5845710E-31
   5.870000      5.8420358E-31
   5.880000      6.0975530E-31
   5.890000      6.3499984E-31
   5.900000      6.5981725E-31
   5.910000      6.8408044E-31
   5.920000      7.0765442E-31
   5.930000      7.3039652E-31
   5.940000      7.5215652E-31
   5.950000      7.7277680E-31
   5.960000      7.9209210E-31
   5.970000      8.0992943E-31
   5.980000      8.2610875E-31
   5.990000      8.4044244E-31
   6.000000      8.5273605E-31
   6.010000      8.6278774E-31
   6.020000      8.7038943E-31
   6.030000      8.7532670E-31
   6.040000      8.7737883E-31
   6.050000      8.7631966E-31
   6.060000      8.7191795E-31
   6.070000      8.6393747E-31
   6.080000      8.5213786E-31
   6.090000      8.3627527E-31
   6.100000      8.1610294E-31
   6.110000      7.9137186E-31
   6.120000      7.6183112E-31
   6.130000      7.2722927E-31
   6.140000      6.8731493E-31
   6.150000      6.4183769E-31
   6.160000      5.9054904E-31
   6.170000      5.3320353E-31
   6.180000      4.6955987E-31
   6.190000      3.9938149E-31
   6.200000      3.2243902E-31
   6.210000      2.3851044E-31
   6.220000      1.4738313E-31
   6.230000      4.8854956E-32
   6.240000     -5.7264354E-32
   6.250000     -1.7115145E-31
   6.260000     -2.9296782E-31
   6.270000     -4.2285795E-31
   6.280000     -5.6094783E-31
   6.290000     -7.0734329E-31
   6.300000     -8.6212778E-31
   6.310000     -1.0253613E-30
   6.320000     -1.1970774E-30
   6.330000     -1.3772822E-30
   6.340000     -1.5659525E-30
   6.350000     -1.7630331E-30
   6.360000     -1.9684353E-30
   6.370000     -2.1820344E-30
   6.380000     -2.4036689E-30
   6.390000     -2.6331367E-30
   6.400000     -2.8701948E-30
   6.410000     -3.1145562E-30
   6.420000     -3.3658880E-30
   6.430000     -3.6238095E-30
   6.440000     -3.8878902E-30
   6.450000     -4.1576494E-30
   6.460000     -4.4325518E-30
   6.470000     -4.7120077E-30
   6.480000     -4.9953695E-30
   6.490000     -5.2819325E-30
   6.500000     -5.5709318E-30
   6.510000     -5.8615403E-30
   6.520000     -6.1528688E-30
   6.530000     -6.4439637E-30
   6.540000     -6.7338079E-30
   6.550000     -7.0213154E-30
   6.560000     -7.3053359E-30
   6.570000     -7.5846514E-30
   6.580000     -7.8579762E-30
   6.590000     -8.1239562E-30
   6.600000     -8.3811701E-30
   6.610000     -8.6281293E-30
   6.620000     -8.8632771E-30
   6.630000     -9.0849915E-30
   6.640000     -9.2915851E-30
   6.650000     -9.4813065E-30
   6.660000     -9.6523411E-30
   6.670000     -9.8028172E-30
   6.680000     -9.9308012E-30
   6.690000     -1.0034307E-29
   6.700000     -1.0111296E-29
   6.710000     -1.0159681E-29
   6.720000     -1.0177329E-29
   6.730000     -1.0162066E-29
   6.740000     -1.0111683E-29
   6.750000     -1.0023938E-29
   6.760000     -9.8965641E-30
   6.770000     -9.7272741E-30
   6.780000     -9.5137667E-30
   6.790000     -9.2537323E-30
   6.800000     -8.9448620E-30
   6.810000     -8.5848545E-30
   6.820000     -8.1714258E-30
   6.830000     -7.7023129E-30
   6.840000     -7.1752897E-30
   6.850000     -6.5881677E-30
   6.860000     -5.9388156E-30
   6.870000     -5.2251630E-30
   6.880000     -4.4452148E-30
   6.890000     -3.5970594E-30
   6.900000     -2.6788818E-30
   6.910000     -1.6889753E-30
   6.920000     -6.2575660E-31
   6.930000      5.1222387E-31
   6.940000      1.7262695E-30
   6.950000      3.0175162E-30
   6.960000      4.3869325E-30
   6.970000      5.8352916E-30
   6.980000      7.3631612E-30
   6.990000      8.9708922E-30
   7.000000      1.0658597E-29
   7.010000      1.2426143E-29
   7.020000      1.4273125E-29
   7.030000      1.6198863E-29
   7.040000      1.8202375E-29
   7.050000      2.0282365E-29
   7.060000      2.2437215E-29