  -2.600000      0.0000000E+00
  -2.590000      0.0000000E+00
  -2.580000      0.0000000E+00
  -2.570000      0.0000000E+00
  -2.560000      0.0000000E+00
  -2.550000      0.0000000E+00
  -2.540000      0.0000000E+00
  -2.530000      0.0000000E+00
  -2.520000      0.0000000E+00
  -2.510000      0.0000000E+00
  -2.500000      0.0000000E+00
  -2.490000      0.0000000E+00
  -2.480000      0.0000000E+00
  -2.470000      0.0000000E+00
  -2.460000      0.0000000E+00
  -2.450000      0.0000000E+00
  -2.440000      0.0000000E+00
  -2.430000      0.0000000E+00
  -2.420000      0.0000000E+00
  -2.410000      0.0000000E+00
  -2.400000      0.0000000E+00
  -2.390000      0.0000000E+00
  -2.380000      0.0000000E+00
  -2.370000      0.0000000E+00
  -2.360000      0.0000000E+00
  -2.350000      0.0000000E+00
  -2.340000      0.0000000E+00
  -2.330000      0.0000000E+00
  -2.320000      0.0000000E+00
  -2.310000      0.0000000E+00
  -2.300000      0.0000000E+00
  -2.290000      0.0000000E+00
  -2.280000      0.0000000E+00
  -2.270000      0.0000000E+00
  -2.260000      0.0000000E+00
  -2.250000      0.0000000E+00
  -2.240000      0.0000000E+00
  -2.230000      0.0000000E+00
  -2.220000      0.0000000E+00
  -2.210000      0.0000000E+00
  -2.200000      0.0000000E+00
  -2.190000      0.0000000E+00
  -2.180000      0.0000000E+00
  -2.170000      0.0000000E+00
  -2.160000      0.0000000E+00
  -2.150000      0.0000000E+00
  -2.140000      0.0000000E+00
  -2.130000      0.0000000E+00
  -2.120000      0.0000000E+00
  -2.110000      0.0000000E+00
  -2.100000      0.0000000E+00
  -2.090000      0.0000000E+00
  -2.080000      0.0000000E+00
  -2.070000      0.0000000E+00
  -2.060000      0.0000000E+00
  -2.050000      0.0000000E+00
  -2.040000      0.0000000E+00
  -2.030000      0.0000000E+00
  -2.020000      0.0000000E+00
  -2.010000      0.0000000E+00
  -2.000000      0.0000000E+00
  -1.990000      0.0000000E+00
  -1.980000      0.0000000E+00
  -1.970000      0.0000000E+00
  -1.960000      0.0000000E+00
  -1.950000      0.0000000E+00
  -1.940000      0.0000000E+00
  -1.930000      0.0000000E+00
  -1.920000      0.0000000E+00
  -1.910000      0.0000000E+00
  -1.900000      0.0000000E+00
  -1.890000      0.0000000E+00
  -1.880000      0.0000000E+00
  -1.870000      0.0000000E+00
  -1.860000      0.0000000E+00
  -1.850000      0.0000000E+00
  -1.840000      0.0000000E+00
  -1.830000      0.0000000E+00
  -1.820000      0.0000000E+00
  -1.810000      0.0000000E+00
  -1.800000      0.0000000E+00
  -1.790000      0.0000000E+00
  -1.780000      0.0000000E+00
  -1.770000      0.0000000E+00
  -1.760000      0.0000000E+00
  -1.750000      0.0000000E+00
  -1.740000      0.0000000E+00
  -1.730000      0.0000000E+00
  -1.720000      0.0000000E+00
  -1.710000      0.0000000E+00
  -1.700000      0.0000000E+00
  -1.690000      0.0000000E+00
  -1.680000      0.0000000E+00
  -1.670000      0.0000000E+00
  -1.660000      0.0000000E+00
  -1.650000      0.0000000E+00
  -1.640000      0.0000000E+00
  -1.630000      0.0000000E+00
  -1.620000      0.0000000E+00
  -1.610000      0.0000000E+00
  -1.600000      0.0000000E+00
  -1.590000      0.0000000E+00
  -1.580000      0.0000000E+00
  -1.570000      0.0000000E+00
  -1.560000      0.0000000E+00
  -1.550000      0.0000000E+00
  -1.540000      0.0000000E+00
  -1.530000      0.0000000E+00
  -1.520000      0.0000000E+00
  -1.510000      0.0000000E+00
  -1.500000      0.0000000E+00
  -1.490000      0.0000000E+00
  -1.480000      0.0000000E+00
  -1.470000      0.0000000E+00
  -1.460000      0.0000000E+00
  -1.450000      0.0000000E+00
  -1.440000      0.0000000E+00
  -1.430000      0.0000000E+00
  -1.420000      0.0000000E+00
  -1.410000      0.0000000E+00
  -1.400000      0.0000000E+00
  -1.390000      0.0000000E+00
  -1.380000      0.0000000E+00
  -1.370000      0.0000000E+00
  -1.360000      0.0000000E+00
  -1.350000      0.0000000E+00
  -1.340000      0.0000000E+00
  -1.330000      0.0000000E+00
  -1.320000      0.0000000E+00
  -1.310000      0.0000000E+00
  -1.300000      0.0000000E+00
  -1.290000      0.0000000E+00
  -1.280000      0.0000000E+00
  -1.270000      0.0000000E+00
  -1.260000      0.0000000E+00
  -1.250000      0.0000000E+00
  -1.240000      0.0000000E+00
  -1.230000      0.0000000E+00
  -1.220000      0.0000000E+00
  -1.210000      0.0000000E+00
  -1.200000      0.0000000E+00
  -1.190000      0.0000000E+00
  -1.180000      0.0000000E+00
  -1.170000      0.0000000E+00
  -1.160000      0.0000000E+00
  -1.150000      0.0000000E+00
  -1.140000      0.0000000E+00
  -1.130000      0.0000000E+00
  -1.120000      0.0000000E+00
  -1.110000      0.0000000E+00
  -1.100000      0.0000000E+00
  -1.090000      0.0000000E+00
  -1.080000      0.0000000E+00
  -1.070000      0.0000000E+00
  -1.060000      0.0000000E+00
  -1.050000      0.0000000E+00
  -1.040000      0.0000000E+00
  -1.030000      0.0000000E+00
  -1.020000      0.0000000E+00
  -1.010000      0.0000000E+00
  -1.000000      0.0000000E+00
 -0.9900000      0.0000000E+00
 -0.9800000      0.0000000E+00
 -0.9700000      0.0000000E+00
 -0.9600000      0.0000000E+00
 -0.9500000      0.0000000E+00
 -0.9400000      0.0000000E+00
 -0.9300000      0.0000000E+00
 -0.9200000      0.0000000E+00
 -0.9100000      0.0000000E+00
 -0.9000000      0.0000000E+00
 -0.8900000      0.0000000E+00
 -0.8800000      0.0000000E+00
 -0.8700000      0.0000000E+00
 -0.8600000      0.0000000E+00
 -0.8500000      0.0000000E+00
 -0.8400000      0.0000000E+00
 -0.8300000      0.0000000E+00
 -0.8200000      0.0000000E+00
 -0.8100000      0.0000000E+00
 -0.8000000      0.0000000E+00
 -0.7900000      0.0000000E+00
 -0.7800000      0.0000000E+00
 -0.7700000      0.0000000E+00
 -0.7600000      0.0000000E+00
 -0.7500000      0.0000000E+00
 -0.7400000      0.0000000E+00
 -0.7300000      0.0000000E+00
 -0.7200000      0.0000000E+00
 -0.7100000      0.0000000E+00
 -0.7000000      0.0000000E+00
 -0.6900000      0.0000000E+00
 -0.6800000      0.0000000E+00
 -0.6700000      0.0000000E+00
 -0.6600000      0.0000000E+00
 -0.6500000      0.0000000E+00
 -0.6400000      0.0000000E+00
 -0.6300000      0.0000000E+00
 -0.6200000      0.0000000E+00
 -0.6100000      0.0000000E+00
 -0.6000000      0.0000000E+00
 -0.5900000      0.0000000E+00
 -0.5800000      0.0000000E+00
 -0.5700000      0.0000000E+00
 -0.5600000      0.0000000E+00
 -0.5500000      0.0000000E+00
 -0.5400000      0.0000000E+00
 -0.5300000      0.0000000E+00
 -0.5200000      0.0000000E+00
 -0.5100000      0.0000000E+00
 -0.5000000      0.0000000E+00
 -0.4900000      0.0000000E+00
 -0.4800000      0.0000000E+00
 -0.4700000      0.0000000E+00
 -0.4600000      0.0000000E+00
 -0.4500000      0.0000000E+00
 -0.4400000      0.0000000E+00
 -0.4300000      0.0000000E+00
 -0.4200000      0.0000000E+00
 -0.4100000      0.0000000E+00
 -0.4000000      0.0000000E+00
 -0.3900000      0.0000000E+00
 -0.3800000      0.0000000E+00
 -0.3700000      0.0000000E+00
 -0.3600000      0.0000000E+00
 -0.3500000      0.0000000E+00
 -0.3400000      0.0000000E+00
 -0.3300000      0.0000000E+00
 -0.3200000      0.0000000E+00
 -0.3100000      0.0000000E+00
 -0.3000000      0.0000000E+00
 -0.2900000      0.0000000E+00
 -0.2800000      0.0000000E+00
 -0.2700000      0.0000000E+00
 -0.2600000      0.0000000E+00
 -0.2500000      0.0000000E+00
 -0.2400000      0.0000000E+00
 -0.2300000      0.0000000E+00
 -0.2200000      0.0000000E+00
 -0.2100000      0.0000000E+00
 -0.2000000      0.0000000E+00
 -0.1900000      0.0000000E+00
 -0.1800000      0.0000000E+00
 -0.1700000      0.0000000E+00
 -0.1600000      0.0000000E+00
 -0.1500000      0.0000000E+00
 -0.1400000      0.0000000E+00
 -0.1300000      0.0000000E+00
 -0.1200000      0.0000000E+00
 -0.1100000      0.0000000E+00
 -0.1000000      0.0000000E+00
 -9.0000004E-02  0.0000000E+00
 -7.9999998E-02  0.0000000E+00
 -7.0000000E-02  0.0000000E+00
 -5.9999999E-02  0.0000000E+00
 -5.0000001E-02  0.0000000E+00
 -3.9999999E-02  0.0000000E+00
 -2.9999999E-02  0.0000000E+00
 -2.0000000E-02  0.0000000E+00
 -9.9999998E-03  0.0000000E+00
 -3.4694470E-17  0.0000000E+00
  9.9999998E-03  0.0000000E+00
  2.0000000E-02  0.0000000E+00
  2.9999999E-02  0.0000000E+00
  3.9999999E-02  0.0000000E+00
  5.0000001E-02  0.0000000E+00
  5.9999999E-02  0.0000000E+00
  7.0000000E-02  0.0000000E+00
  7.9999998E-02  0.0000000E+00
  9.0000004E-02  0.0000000E+00
  0.1000000      0.0000000E+00
  0.1100000      0.0000000E+00
  0.1200000      0.0000000E+00
  0.1300000      0.0000000E+00
  0.1400000      0.0000000E+00
  0.1500000      0.0000000E+00
  0.1600000      0.0000000E+00
  0.1700000      0.0000000E+00
  0.1800000      0.0000000E+00
  0.1900000      0.0000000E+00
  0.2000000      0.0000000E+00
  0.2100000      0.0000000E+00
  0.2200000      0.0000000E+00
  0.2300000      0.0000000E+00
  0.2400000      0.0000000E+00
  0.2500000      0.0000000E+00
  0.2600000      0.0000000E+00
  0.2700000      0.0000000E+00
  0.2800000      0.0000000E+00
  0.2900000      0.0000000E+00
  0.3000000      0.0000000E+00
  0.3100000      0.0000000E+00
  0.3200000      0.0000000E+00
  0.3300000      0.0000000E+00
  0.3400000      0.0000000E+00
  0.3500000      0.0000000E+00
  0.3600000      0.0000000E+00
  0.3700000      0.0000000E+00
  0.3800000      0.0000000E+00
  0.3900000      0.0000000E+00
  0.4000000      0.0000000E+00
  0.4100000      0.0000000E+00
  0.4200000      0.0000000E+00
  0.4300000      0.0000000E+00
  0.4400000      0.0000000E+00
  0.4500000      0.0000000E+00
  0.4600000      0.0000000E+00
  0.4700000      0.0000000E+00
  0.4800000      0.0000000E+00
  0.4900000      0.0000000E+00
  0.5000000      0.0000000E+00
  0.5100000      0.0000000E+00
  0.5200000      0.0000000E+00
  0.5300000      0.0000000E+00
  0.5400000      0.0000000E+00
  0.5500000      0.0000000E+00
  0.5600000      0.0000000E+00
  0.5700000      0.0000000E+00
  0.5800000      0.0000000E+00
  0.5900000      0.0000000E+00
  0.6000000      0.0000000E+00
  0.6100000      0.0000000E+00
  0.6200000      0.0000000E+00
  0.6300000      0.0000000E+00
  0.6400000      0.0000000E+00
  0.6500000      0.0000000E+00
  0.6600000      0.0000000E+00
  0.6700000      0.0000000E+00
  0.6800000      0.0000000E+00
  0.6900000      0.0000000E+00
  0.7000000      0.0000000E+00
  0.7100000      0.0000000E+00
  0.7200000      0.0000000E+00
  0.7300000      0.0000000E+00
  0.7400000      0.0000000E+00
  0.7500000      0.0000000E+00
  0.7600000      0.0000000E+00
  0.7700000      0.0000000E+00
  0.7800000      0.0000000E+00
  0.7900000      0.0000000E+00
  0.8000000      0.0000000E+00
  0.8100000      0.0000000E+00
  0.8200000      0.0000000E+00
  0.8300000      0.0000000E+00
  0.8400000      0.0000000E+00
  0.8500000      0.0000000E+00
  0.8600000      0.0000000E+00
  0.8700000      0.0000000E+00
  0.8800000      0.0000000E+00
  0.8900000      0.0000000E+00
  0.9000000      0.0000000E+00
  0.9100000      0.0000000E+00
  0.9200000      0.0000000E+00
  0.9300000      0.0000000E+00
  0.9400000      0.0000000E+00
  0.9500000      0.0000000E+00
  0.9600000      0.0000000E+00
  0.9700000      0.0000000E+00
  0.9800000      0.0000000E+00
  0.9900000      0.0000000E+00
   1.000000      0.0000000E+00
   1.010000      0.0000000E+00
   1.020000      0.0000000E+00
   1.030000      0.0000000E+00
   1.040000      0.0000000E+00
   1.050000      0.0000000E+00
   1.060000      0.0000000E+00
   1.070000      0.0000000E+00
   1.080000      0.0000000E+00
   1.090000      0.0000000E+00
   1.100000      0.0000000E+00
   1.110000      0.0000000E+00
   1.120000      0.0000000E+00
   1.130000      0.0000000E+00
   1.140000      0.0000000E+00
   1.150000      0.0000000E+00
   1.160000      0.0000000E+00
   1.170000      0.0000000E+00
   1.180000      0.0000000E+00
   1.190000      0.0000000E+00
   1.200000      0.0000000E+00
   1.210000      0.0000000E+00
   1.220000      0.0000000E+00
   1.230000      0.0000000E+00
   1.240000      0.0000000E+00
   1.250000      0.0000000E+00
   1.260000      0.0000000E+00
   1.270000      0.0000000E+00
   1.280000      0.0000000E+00
   1.290000      0.0000000E+00
   1.300000      0.0000000E+00
   1.310000      0.0000000E+00
   1.320000      0.0000000E+00
   1.330000      0.0000000E+00
   1.340000      0.0000000E+00
   1.350000      0.0000000E+00
   1.360000      0.0000000E+00
   1.370000      0.0000000E+00
   1.380000      0.0000000E+00
   1.390000      0.0000000E+00
   1.400000      0.0000000E+00
   1.410000      0.0000000E+00
   1.420000      0.0000000E+00
   1.430000      0.0000000E+00
   1.440000      0.0000000E+00
   1.450000      0.0000000E+00
   1.460000      0.0000000E+00
   1.470000      0.0000000E+00
   1.480000      0.0000000E+00
   1.490000      0.0000000E+00
   1.500000      0.0000000E+00
   1.510000      0.0000000E+00
   1.520000      0.0000000E+00
   1.530000      0.0000000E+00
   1.540000      0.0000000E+00
   1.550000      0.0000000E+00
   1.560000      0.0000000E+00
   1.570000      0.0000000E+00
   1.580000      0.0000000E+00
   1.590000      0.0000000E+00
   1.600000      0.0000000E+00
   1.610000      0.0000000E+00
   1.620000      0.0000000E+00
   1.630000      0.0000000E+00
   1.640000      0.0000000E+00
   1.650000      0.0000000E+00
   1.660000      0.0000000E+00
   1.670000      0.0000000E+00
   1.680000      0.0000000E+00
   1.690000      0.0000000E+00
   1.700000      0.0000000E+00
   1.710000      0.0000000E+00
   1.720000      0.0000000E+00
   1.730000      0.0000000E+00
   1.740000      0.0000000E+00
   1.750000      0.0000000E+00
   1.760000      0.0000000E+00
   1.770000      0.0000000E+00
   1.780000      0.0000000E+00
   1.790000      0.0000000E+00
   1.800000      0.0000000E+00
   1.810000      0.0000000E+00
   1.820000      0.0000000E+00
   1.830000      0.0000000E+00
   1.840000      0.0000000E+00
   1.850000      0.0000000E+00
   1.860000      0.0000000E+00
   1.870000      0.0000000E+00
   1.880000      0.0000000E+00
   1.890000      0.0000000E+00
   1.900000      0.0000000E+00
   1.910000      0.0000000E+00
   1.920000      0.0000000E+00
   1.930000      0.0000000E+00
   1.940000      0.0000000E+00
   1.950000      0.0000000E+00
   1.960000      0.0000000E+00
   1.970000      0.0000000E+00
   1.980000      0.0000000E+00
   1.990000      0.0000000E+00
   2.000000      0.0000000E+00
   2.010000      0.0000000E+00
   2.020000      0.0000000E+00
   2.030000      0.0000000E+00
   2.040000      0.0000000E+00
   2.050000      0.0000000E+00
   2.060000      0.0000000E+00
   2.070000      0.0000000E+00
   2.080000      0.0000000E+00
   2.090000      0.0000000E+00
   2.100000     -1.5634528E-38
   2.110000     -2.1350843E-38
   2.120000     -2.7503089E-38
   2.130000     -3.4015057E-38
   2.140000     -4.0806526E-38
   2.150000     -4.7743119E-38
   2.160000     -5.4634217E-38
   2.170000     -6.1285060E-38
   2.180000     -6.7473990E-38
   2.190000     -7.2970768E-38
   2.200000     -7.7562991E-38
   2.210000     -7.9606673E-38
   2.220000     -7.9606673E-38
   2.230000     -7.9606673E-38
   2.240000     -7.9606673E-38
   2.250000     -7.9606673E-38
   2.260000     -7.7720435E-38
   2.270000     -7.3331697E-38
   2.280000     -6.7797975E-38
   2.290000     -6.1248744E-38
   2.300000     -5.3772396E-38
   2.310000     -4.5462646E-38
   2.320000     -3.6399473E-38
   2.330000     -2.8634657E-38
   2.340000     -2.2726640E-38
   2.350000     -1.7224693E-38
   2.360000     -1.2502557E-38
   2.370000      0.0000000E+00
   2.380000      0.0000000E+00
   2.390000      0.0000000E+00
   2.400000      0.0000000E+00
   2.410000      1.6292436E-38
   2.420000      2.5600795E-38
   2.430000      3.5991692E-38
   2.440000      4.7691489E-38
   2.450000      6.0929836E-38
   2.460000      7.5931005E-38
   2.470000      9.2887468E-38
   2.480000      1.1190600E-37
   2.490000      1.3472037E-37
   2.500000      1.6039721E-37
   2.510000      1.8457079E-37
   2.520000      2.0714900E-37
   2.530000      2.2965363E-37
   2.540000      2.5384096E-37
   2.550000      2.8004479E-37
   2.560000      3.0651915E-37
   2.570000      3.3274029E-37
   2.580000      3.5805974E-37
   2.590000      3.8186343E-37
   2.600000      4.0356216E-37
   2.610000      4.2258556E-37
   2.620000      4.3579073E-37
   2.630000      4.4257795E-37
   2.640000      4.4756007E-37
   2.650000      4.4902558E-37
   2.660000      4.4606088E-37
   2.670000      4.4012247E-37
   2.680000      4.2949874E-37
   2.690000      4.1408222E-37
   2.700000      3.9377671E-37
   2.710000      3.7303765E-37
   2.720000      3.5222529E-37
   2.730000      3.2719490E-37
   2.740000      2.9791749E-37
   2.750000      2.5832016E-37
   2.760000      2.0811121E-37
   2.770000      1.5314309E-37
   2.780000      9.3582512E-38
   2.790000      2.0063679E-37
   2.800000      4.8509513E-37
   2.810000      7.8137981E-37
   2.820000      1.0872517E-36
   2.830000      1.4044379E-36
   2.840000      1.7312880E-36
   2.850000      2.0645767E-36
   2.860000      2.4022047E-36
   2.870000      2.7434735E-36
   2.880000      3.0848149E-36
   2.890000      3.5140573E-36
   2.900000      2.9327337E-36
   2.910000      1.0956153E-36
   2.920000     -9.6669953E-37
   2.930000     -3.0692187E-36
   2.940000     -5.0212083E-36
   2.950000     -5.8758478E-36
   2.960000     -5.7451547E-36
   2.970000     -5.6013109E-36
   2.980000     -5.4482886E-36
   2.990000     -5.2804338E-36
   3.000000     -5.1000150E-36
   3.010000     -4.9188957E-36
   3.020000     -4.6021242E-36
   3.030000     -4.1267572E-36
   3.040000     -3.6374881E-36
   3.050000     -3.0203231E-36
   3.060000     -2.4720141E-36
   3.070000     -2.4228372E-36
   3.080000     -2.9696322E-36
   3.090000     -3.8833518E-36
   3.100000     -4.8907880E-36
   3.110000     -5.9795857E-36
   3.120000     -7.1725460E-36
   3.130000     -8.4514952E-36
   3.140000     -9.8343167E-36
   3.150000     -1.2396070E-35
   3.160000     -1.6312754E-35
   3.170000     -1.7515215E-35
   3.180000     -1.5273689E-35
   3.190000     -1.2206502E-35
   3.200000     -8.5518513E-36
   3.210000     -3.6932671E-36
   3.220000      1.7512956E-36
   3.230000      6.4085184E-36
   3.240000      9.9368288E-36
   3.250000      9.9855246E-36
   3.260000      7.2160387E-36
   3.270000      4.3489585E-36
   3.280000      1.4010022E-36
   3.290000     -1.6232679E-36
   3.300000     -4.6065983E-36
   3.310000     -7.0375334E-36
   3.320000     -7.1732347E-36
   3.330000     -4.7700089E-36
   3.340000     -8.8229966E-37
   3.350000      5.0315563E-36
   3.360000      1.2055903E-35
   3.370000      1.7894487E-35
   3.380000      2.1143867E-35
   3.390000      2.1708323E-35
   3.400000      1.9879749E-35
   3.410000      1.6914625E-35
   3.420000      1.4040026E-35
   3.430000      1.2052689E-35
   3.440000      1.0893839E-35
   3.450000      9.9377099E-36
   3.460000      9.5987322E-36
   3.470000      1.0017732E-35
   3.480000      1.2233942E-35
   3.490000      1.6675168E-35
   3.500000      2.0621398E-35
   3.510000      2.3077261E-35
   3.520000      2.4998816E-35
   3.530000      2.5348029E-35
   3.540000      2.4690240E-35
   3.550000      2.5178865E-35
   3.560000      2.6876011E-35
   3.570000      2.8695502E-35
   3.580000      3.0062671E-35
   3.590000      3.0422652E-35
   3.600000      2.9411133E-35
   3.610000      2.7081404E-35
   3.620000      2.3570639E-35
   3.630000      1.8719386E-35
   3.640000      1.3026740E-35
   3.650000      5.4120269E-36
   3.660000     -4.5109556E-36
   3.670000     -1.4582821E-35
   3.680000     -2.3537218E-35
   3.690000     -3.0877599E-35
   3.700000     -3.6291322E-35
   3.710000     -3.8088123E-35
   3.720000     -3.8959140E-35
   3.730000     -4.0707240E-35
   3.740000     -4.1086386E-35
   3.750000     -4.0622571E-35
   3.760000     -3.5541293E-35
   3.770000     -2.5916164E-35
   3.780000     -1.8389961E-35
   3.790000     -1.5722403E-35
   3.800000     -2.0275975E-35
   3.810000     -3.0352501E-35
   3.820000     -4.0776303E-35
   3.830000     -5.1594226E-35
   3.840000     -6.2457780E-35
   3.850000     -7.2311792E-35
   3.860000     -8.1060851E-35
   3.870000     -8.9590503E-35
   3.880000     -9.6254574E-35
   3.890000     -1.0351821E-34
   3.900000     -1.1486929E-34
   3.910000     -1.2369709E-34
   3.920000     -1.2873253E-34
   3.930000     -1.3240571E-34
   3.940000     -1.3650476E-34
   3.950000     -1.4131117E-34
   3.960000     -1.4444537E-34
   3.970000     -1.3662229E-34
   3.980000     -1.1817129E-34
   3.990000     -1.0250171E-34
   4.000000     -8.9911870E-35
   4.010000     -8.3132671E-35
   4.020000     -8.4128575E-35
   4.030000     -8.7821740E-35
   4.040000     -9.2851243E-35
   4.050000     -1.0081338E-34
   4.060000     -1.0937567E-34
   4.070000     -1.1356516E-34
   4.080000     -1.1310151E-34
   4.090000     -1.0724137E-34
   4.100000     -9.6514928E-35
   4.110000     -8.3083573E-35
   4.120000     -6.9001536E-35
   4.130000     -5.4282068E-35
   4.140000     -4.0126128E-35
   4.150000     -2.9335251E-35
   4.160000     -2.2935528E-35
   4.170000     -1.8732455E-35
   4.180000     -1.3352035E-35
   4.190000     -6.1262864E-36
   4.200000      2.3575374E-36
   4.210000      1.7788906E-35
   4.220000      4.3447497E-35
   4.230000      7.7121929E-35
   4.240000      1.1867963E-34
   4.250000      1.6928699E-34
   4.260000      2.2419164E-34
   4.270000      2.7837940E-34
   4.280000      3.2235871E-34
   4.290000      3.4800701E-34
   4.300000      3.6678303E-34
   4.310000      3.9117302E-34
   4.320000      4.2254696E-34
   4.330000      4.5581075E-34
   4.340000      4.8870576E-34
   4.350000      5.2455214E-34
   4.360000      5.6909791E-34
   4.370000      6.2313924E-34
   4.380000      6.8749917E-34
   4.390000      7.5785838E-34
   4.400000      8.2992491E-34
   4.410000      9.0526335E-34
   4.420000      9.8333023E-34
   4.430000      1.0631167E-33
   4.440000      1.1401819E-33
   4.450000      1.2126384E-33
   4.460000      1.2802623E-33
   4.470000      1.3360087E-33
   4.480000      1.3795845E-33
   4.490000      1.4182225E-33
   4.500000      1.4543328E-33
   4.510000      1.4875405E-33
   4.520000      1.5188945E-33
   4.530000      1.5534859E-33
   4.540000      1.5910836E-33
   4.550000      1.6358787E-33
   4.560000      1.6858822E-33
   4.570000      1.7314130E-33
   4.580000      1.7723064E-33
   4.590000      1.8051097E-33
   4.600000      1.8273842E-33
   4.610000      1.8429738E-33
   4.620000      1.8550667E-33
   4.630000      1.8578257E-33
   4.640000      1.8454712E-33
   4.650000      1.8177621E-33
   4.660000      1.7725524E-33
   4.670000      1.7104607E-33
   4.680000      1.6313325E-33
   4.690000      1.5341121E-33
   4.700000      1.4135429E-33
   4.710000      1.2758722E-33
   4.720000      1.1327350E-33
   4.730000      9.8086637E-34
   4.740000      8.1754457E-34
   4.750000      6.4082120E-34
   4.760000      4.4878786E-34
   4.770000      2.4039525E-34
   4.780000      1.1895842E-35
   4.790000     -2.4273924E-34
   4.800000     -5.2545511E-34
   4.810000     -8.3589807E-34
   4.820000     -1.1764197E-33
   4.830000     -1.5480469E-33
   4.840000     -1.9497967E-33
   4.850000     -2.3837284E-33
   4.860000     -2.8486388E-33
   4.870000     -3.3402370E-33
   4.880000     -3.8574361E-33
   4.890000     -4.4012705E-33
   4.900000     -4.9655427E-33
   4.910000     -5.5465429E-33
   4.920000     -6.1482895E-33
   4.930000     -6.7710098E-33
   4.940000     -7.4155664E-33
   4.950000     -8.0862286E-33
   4.960000     -8.7827722E-33
   4.970000     -9.5037006E-33
   4.980000     -1.0251147E-32
   4.990000     -1.1026597E-32
   5.000000     -1.1830625E-32
   5.010000     -1.2658492E-32
   5.020000     -1.3506129E-32
   5.030000     -1.4371869E-32
   5.040000     -1.5250796E-32
   5.050000     -1.6138954E-32
   5.060000     -1.7031281E-32
   5.070000     -1.7921377E-32
   5.080000     -1.8805005E-32
   5.090000     -1.9676556E-32
   5.100000     -2.0531796E-32
   5.110000     -2.1367208E-32
   5.120000     -2.2177683E-32
   5.130000     -2.2960119E-32
   5.140000     -2.3705597E-32
   5.150000     -2.4414996E-32
   5.160000     -2.5090748E-32
   5.170000     -2.5722191E-32
   5.180000     -2.6303637E-32
   5.190000     -2.6827902E-32
   5.200000     -2.7285334E-32
   5.210000     -2.7667431E-32
   5.220000     -2.7965105E-32
   5.230000     -2.8168271E-32
   5.240000     -2.8265590E-32
   5.250000     -2.8247849E-32
   5.260000     -2.8105841E-32
   5.270000     -2.7828254E-32
   5.280000     -2.7406148E-32
   5.290000     -2.6829436E-32
   5.300000     -2.6088687E-32
   5.310000     -2.5175421E-32
   5.320000     -2.4079924E-32
   5.330000     -2.2793588E-32
   5.340000     -2.1306959E-32
   5.350000     -1.9610740E-32
   5.360000     -1.7694210E-32
   5.370000     -1.5543713E-32
   5.380000     -1.3148879E-32
   5.390000     -1.0498975E-32
   5.400000     -7.5808299E-33
   5.410000     -4.3820677E-33
   5.420000     -8.9063690E-34
   5.430000      2.9054642E-33
   5.440000      7.0168836E-33
   5.450000      1.1452773E-32
   5.460000      1.6221894E-32
   5.470000      2.1330866E-32
   5.480000      2.6784961E-32
   5.490000      3.2588068E-32
   5.500000      3.8743527E-32
   5.510000      4.5253870E-32
   5.520000      5.2120226E-32
   5.530000      5.9342810E-32
   5.540000      6.6921446E-32
   5.550000      7.4855809E-32
   5.560000      8.3143421E-32
   5.570000      9.1780953E-32
   5.580000      1.0076429E-31
   5.590000      1.1008762E-31
   5.600000      1.1974357E-31
   5.610000      1.2972133E-31
   5.620000      1.4000817E-31
   5.630000      1.5058957E-31
   5.640000      1.6144660E-31
   5.650000      1.7255733E-31
   5.660000      1.8389718E-31
   5.670000      1.9543828E-31
   5.680000      2.0714966E-31
   5.690000      2.1899742E-31
   5.700000      2.3094472E-31
   5.710000      2.4295214E-31
   5.720000      2.5497782E-31
   5.730000      2.6697628E-31
   5.740000      2.7890038E-31
   5.750000      2.9070036E-31
   5.760000      3.0232156E-31
   5.770000      3.1370686E-31
   5.780000      3.2479532E-31
   5.790000      3.3552081E-31
   5.800000      3.4581398E-31
   5.810000      3.5560141E-31
   5.820000      3.6480428E-31
   5.830000      3.7334025E-31
   5.840000      3.8112195E-31
   5.850000      3.8805685E-31
   5.860000      3.9404980E-31
   5.870000      3.9900270E-31
   5.880000      4.0281398E-31
   5.890000      4.0537934E-31
   5.900000      4.0659184E-31
   5.910000      4.0634221E-31
   5.920000      4.0451949E-31
   5.930000      4.0101059E-31
   5.940000      3.9570055E-31
   5.950000      3.8847194E-31
   5.960000      3.7920559E-31
   5.970000      3.6778103E-31
   5.980000      3.5407580E-31
   5.990000      3.3796600E-31
   6.000000      3.1932678E-31
   6.010000      2.9803246E-31
   6.020000      2.7395737E-31
   6.030000      2.4697656E-31
   6.040000      2.1696638E-31
   6.050000      1.8380554E-31
   6.060000      1.4737582E-31
   6.070000      1.0756289E-31
   6.080000      6.4257176E-32
   6.090000      1.7354730E-32
   6.100000     -3.3242301E-32
   6.110000     -8.7625005E-32
   6.120000     -1.4587689E-31
   6.130000     -2.0807343E-31
   6.140000     -2.7428195E-31
   6.150000     -3.4456062E-31
   6.160000     -4.1895747E-31
   6.170000     -4.9751021E-31
   6.180000     -5.8024550E-31
   6.190000     -6.6717697E-31
   6.200000     -7.5830454E-31
   6.210000     -8.5361334E-31
   6.220000     -9.5307220E-31
   6.230000     -1.0566324E-30
   6.240000     -1.1642260E-30
   6.250000     -1.2757649E-30
   6.260000     -1.3911396E-30
   6.270000     -1.5102179E-30
   6.280000     -1.6328437E-30
   6.290000     -1.7588369E-30
   6.300000     -1.8879921E-30
   6.310000     -2.0200780E-30
   6.320000     -2.1548374E-30
   6.330000     -2.2919864E-30
   6.340000     -2.4312135E-30
   6.350000     -2.5721772E-30
   6.360000     -2.7145076E-30
   6.370000     -2.8578041E-30
   6.380000     -3.0016354E-30
   6.390000     -3.1455375E-30
   6.400000     -3.2890129E-30
   6.410000     -3.4315302E-30
   6.420000     -3.5725226E-30
   6.430000     -3.7113870E-30
   6.440000     -3.8474855E-30
   6.450000     -3.9801430E-30
   6.460000     -4.1086480E-30
   6.470000     -4.2322532E-30
   6.480000     -4.3501758E-30
   6.490000     -4.4615980E-30
   6.500000     -4.5656686E-30
   6.510000     -4.6615028E-30
   6.520000     -4.7481843E-30
   6.530000     -4.8247641E-30
   6.540000     -4.8902634E-30
   6.550000     -4.9436752E-30
   6.560000     -4.9839636E-30
   6.570000     -5.0100645E-30
   6.580000     -5.0208885E-30
   6.590000     -5.0153239E-30
   6.600000     -4.9922346E-30
   6.610000     -4.9504645E-30
   6.620000     -4.8888404E-30
   6.630000     -4.8061736E-30
   6.640000     -4.7012642E-30
   6.650000     -4.5729066E-30
   6.660000     -4.4198907E-30
   6.670000     -4.2410068E-30
   6.680000     -4.0350512E-30
   6.690000     -3.8008303E-30
   6.700000     -3.5371614E-30
   6.710000     -3.2428850E-30
   6.720000     -2.9168647E-30
   6.730000     -2.5579929E-30
   6.740000     -2.1651965E-30
   6.750000     -1.7374444E-30
   6.760000     -1.2737486E-30
   6.770000     -7.7316998E-31
   6.780000     -2.3482940E-31
   6.790000      3.4209020E-31
   6.800000      9.5833287E-31
   6.810000      1.6145658E-30
   6.820000      2.3113685E-30
   6.830000      3.0492260E-30
   6.840000      3.8285249E-30
   6.850000      4.6495379E-30
   6.860000      5.5124155E-30
   6.870000      6.4171820E-30
   6.880000      7.3637284E-30
   6.890000      8.3517982E-30
   6.900000      9.3809806E-30
   6.910000      1.0450703E-29
   6.920000      1.1560224E-29
   6.930000      1.2708629E-29
   6.940000      1.3894813E-29
   6.950000      1.5117479E-29
   6.960000      1.6375126E-29
   6.970000      1.7666050E-29
   6.980000      1.8988323E-29
   6.990000      2.0339799E-29
   7.000000      2.1718092E-29
   7.010000      2.3120574E-29
   7.020000      2.4544364E-29
   7.030000      2.5986317E-29
   7.040000      2.7443030E-29
   7.050000      2.8910821E-29
   7.060000      3.0385737E-29