  -2.600000      0.0000000E+00
  -2.590000      0.0000000E+00
  -2.580000      0.0000000E+00
  -2.570000      0.0000000E+00
  -2.560000      0.0000000E+00
  -2.550000      0.0000000E+00
  -2.540000      0.0000000E+00
  -2.530000      0.0000000E+00
  -2.520000      0.0000000E+00
  -2.510000      0.0000000E+00
  -2.500000      0.0000000E+00
  -2.490000      0.0000000E+00
  -2.480000      0.0000000E+00
  -2.470000      0.0000000E+00
  -2.460000      0.0000000E+00
  -2.450000      0.0000000E+00
  -2.440000      0.0000000E+00
  -2.430000      0.0000000E+00
  -2.420000      0.0000000E+00
  -2.410000      0.0000000E+00
  -2.400000      0.0000000E+00
  -2.390000      0.0000000E+00
  -2.380000      0.0000000E+00
  -2.370000      0.0000000E+00
  -2.360000      0.0000000E+00
  -2.350000      0.0000000E+00
  -2.340000      0.0000000E+00
  -2.330000      0.0000000E+00
  -2.320000      0.0000000E+00
  -2.310000      0.0000000E+00
  -2.300000      0.0000000E+00
  -2.290000      0.0000000E+00
  -2.280000      0.0000000E+00
  -2.270000      0.0000000E+00
  -2.260000      0.0000000E+00
  -2.250000      0.0000000E+00
  -2.240000      0.0000000E+00
  -2.230000      0.0000000E+00
  -2.220000      0.0000000E+00
  -2.210000      0.0000000E+00
  -2.200000      0.0000000E+00
  -2.190000      0.0000000E+00
  -2.180000      0.0000000E+00
  -2.170000      0.0000000E+00
  -2.160000      0.0000000E+00
  -2.150000      0.0000000E+00
  -2.140000      0.0000000E+00
  -2.130000      0.0000000E+00
  -2.120000      0.0000000E+00
  -2.110000      0.0000000E+00
  -2.100000      0.0000000E+00
  -2.090000      0.0000000E+00
  -2.080000      0.0000000E+00
  -2.070000      0.0000000E+00
  -2.060000      0.0000000E+00
  -2.050000      0.0000000E+00
  -2.040000      0.0000000E+00
  -2.030000      0.0000000E+00
  -2.020000      0.0000000E+00
  -2.010000      0.0000000E+00
  -2.000000      0.0000000E+00
  -1.990000      0.0000000E+00
  -1.980000      0.0000000E+00
  -1.970000      0.0000000E+00
  -1.960000      0.0000000E+00
  -1.950000      0.0000000E+00
  -1.940000      0.0000000E+00
  -1.930000      0.0000000E+00
  -1.920000      0.0000000E+00
  -1.910000      0.0000000E+00
  -1.900000      0.0000000E+00
  -1.890000      0.0000000E+00
  -1.880000      0.0000000E+00
  -1.870000      0.0000000E+00
  -1.860000      0.0000000E+00
  -1.850000      0.0000000E+00
  -1.840000      0.0000000E+00
  -1.830000      0.0000000E+00
  -1.820000      0.0000000E+00
  -1.810000      0.0000000E+00
  -1.800000      0.0000000E+00
  -1.790000      0.0000000E+00
  -1.780000      0.0000000E+00
  -1.770000      0.0000000E+00
  -1.760000      0.0000000E+00
  -1.750000      0.0000000E+00
  -1.740000      0.0000000E+00
  -1.730000      0.0000000E+00
  -1.720000      0.0000000E+00
  -1.710000      0.0000000E+00
  -1.700000      0.0000000E+00
  -1.690000      0.0000000E+00
  -1.680000      0.0000000E+00
  -1.670000      0.0000000E+00
  -1.660000      0.0000000E+00
  -1.650000      0.0000000E+00
  -1.640000      0.0000000E+00
  -1.630000      0.0000000E+00
  -1.620000      0.0000000E+00
  -1.610000      0.0000000E+00
  -1.600000      0.0000000E+00
  -1.590000      0.0000000E+00
  -1.580000      0.0000000E+00
  -1.570000      0.0000000E+00
  -1.560000      0.0000000E+00
  -1.550000      0.0000000E+00
  -1.540000      0.0000000E+00
  -1.530000      0.0000000E+00
  -1.520000      0.0000000E+00
  -1.510000      0.0000000E+00
  -1.500000      0.0000000E+00
  -1.490000      0.0000000E+00
  -1.480000      0.0000000E+00
  -1.470000      0.0000000E+00
  -1.460000      0.0000000E+00
  -1.450000      0.0000000E+00
  -1.440000      0.0000000E+00
  -1.430000      0.0000000E+00
  -1.420000      0.0000000E+00
  -1.410000      0.0000000E+00
  -1.400000      0.0000000E+00
  -1.390000      0.0000000E+00
  -1.380000      0.0000000E+00
  -1.370000      0.0000000E+00
  -1.360000      0.0000000E+00
  -1.350000      0.0000000E+00
  -1.340000      0.0000000E+00
  -1.330000      0.0000000E+00
  -1.320000      0.0000000E+00
  -1.310000      0.0000000E+00
  -1.300000      0.0000000E+00
  -1.290000      0.0000000E+00
  -1.280000      0.0000000E+00
  -1.270000      0.0000000E+00
  -1.260000      0.0000000E+00
  -1.250000      0.0000000E+00
  -1.240000      0.0000000E+00
  -1.230000      0.0000000E+00
  -1.220000      0.0000000E+00
  -1.210000      0.0000000E+00
  -1.200000      0.0000000E+00
  -1.190000      0.0000000E+00
  -1.180000      0.0000000E+00
  -1.170000      0.0000000E+00
  -1.160000      0.0000000E+00
  -1.150000      0.0000000E+00
  -1.140000      0.0000000E+00
  -1.130000      0.0000000E+00
  -1.120000      0.0000000E+00
  -1.110000      0.0000000E+00
  -1.100000      0.0000000E+00
  -1.090000      0.0000000E+00
  -1.080000      0.0000000E+00
  -1.070000      0.0000000E+00
  -1.060000      0.0000000E+00
  -1.050000      0.0000000E+00
  -1.040000      0.0000000E+00
  -1.030000      0.0000000E+00
  -1.020000      0.0000000E+00
  -1.010000      0.0000000E+00
  -1.000000      0.0000000E+00
 -0.9900000      0.0000000E+00
 -0.9800000      0.0000000E+00
 -0.9700000      0.0000000E+00
 -0.9600000      0.0000000E+00
 -0.9500000      0.0000000E+00
 -0.9400000      0.0000000E+00
 -0.9300000      0.0000000E+00
 -0.9200000      0.0000000E+00
 -0.9100000      0.0000000E+00
 -0.9000000      0.0000000E+00
 -0.8900000      0.0000000E+00
 -0.8800000      0.0000000E+00
 -0.8700000      0.0000000E+00
 -0.8600000      0.0000000E+00
 -0.8500000      0.0000000E+00
 -0.8400000      0.0000000E+00
 -0.8300000      0.0000000E+00
 -0.8200000      0.0000000E+00
 -0.8100000      0.0000000E+00
 -0.8000000      0.0000000E+00
 -0.7900000      0.0000000E+00
 -0.7800000      0.0000000E+00
 -0.7700000      0.0000000E+00
 -0.7600000      0.0000000E+00
 -0.7500000      0.0000000E+00
 -0.7400000      0.0000000E+00
 -0.7300000      0.0000000E+00
 -0.7200000      0.0000000E+00
 -0.7100000      0.0000000E+00
 -0.7000000      0.0000000E+00
 -0.6900000      0.0000000E+00
 -0.6800000      0.0000000E+00
 -0.6700000      0.0000000E+00
 -0.6600000      0.0000000E+00
 -0.6500000      0.0000000E+00
 -0.6400000      0.0000000E+00
 -0.6300000      0.0000000E+00
 -0.6200000      0.0000000E+00
 -0.6100000      0.0000000E+00
 -0.6000000      0.0000000E+00
 -0.5900000      0.0000000E+00
 -0.5800000      0.0000000E+00
 -0.5700000      0.0000000E+00
 -0.5600000      0.0000000E+00
 -0.5500000      0.0000000E+00
 -0.5400000      0.0000000E+00
 -0.5300000      0.0000000E+00
 -0.5200000      0.0000000E+00
 -0.5100000      0.0000000E+00
 -0.5000000      0.0000000E+00
 -0.4900000      0.0000000E+00
 -0.4800000      0.0000000E+00
 -0.4700000      0.0000000E+00
 -0.4600000      0.0000000E+00
 -0.4500000      0.0000000E+00
 -0.4400000      0.0000000E+00
 -0.4300000      0.0000000E+00
 -0.4200000      0.0000000E+00
 -0.4100000      0.0000000E+00
 -0.4000000      0.0000000E+00
 -0.3900000      0.0000000E+00
 -0.3800000      0.0000000E+00
 -0.3700000      0.0000000E+00
 -0.3600000      0.0000000E+00
 -0.3500000      0.0000000E+00
 -0.3400000      0.0000000E+00
 -0.3300000      0.0000000E+00
 -0.3200000      0.0000000E+00
 -0.3100000      0.0000000E+00
 -0.3000000      0.0000000E+00
 -0.2900000      0.0000000E+00
 -0.2800000      0.0000000E+00
 -0.2700000      0.0000000E+00
 -0.2600000      0.0000000E+00
 -0.2500000      0.0000000E+00
 -0.2400000      0.0000000E+00
 -0.2300000      0.0000000E+00
 -0.2200000      0.0000000E+00
 -0.2100000      0.0000000E+00
 -0.2000000      0.0000000E+00
 -0.1900000      0.0000000E+00
 -0.1800000      0.0000000E+00
 -0.1700000      0.0000000E+00
 -0.1600000      0.0000000E+00
 -0.1500000      0.0000000E+00
 -0.1400000      0.0000000E+00
 -0.1300000      0.0000000E+00
 -0.1200000      0.0000000E+00
 -0.1100000      0.0000000E+00
 -0.1000000      0.0000000E+00
 -9.0000004E-02  0.0000000E+00
 -7.9999998E-02  0.0000000E+00
 -7.0000000E-02  0.0000000E+00
 -5.9999999E-02  0.0000000E+00
 -5.0000001E-02  0.0000000E+00
 -3.9999999E-02  0.0000000E+00
 -2.9999999E-02  0.0000000E+00
 -2.0000000E-02  0.0000000E+00
 -9.9999998E-03  0.0000000E+00
 -3.4694470E-17  0.0000000E+00
  9.9999998E-03  0.0000000E+00
  2.0000000E-02  0.0000000E+00
  2.9999999E-02  0.0000000E+00
  3.9999999E-02  0.0000000E+00
  5.0000001E-02  0.0000000E+00
  5.9999999E-02  0.0000000E+00
  7.0000000E-02  0.0000000E+00
  7.9999998E-02  0.0000000E+00
  9.0000004E-02  0.0000000E+00
  0.1000000      0.0000000E+00
  0.1100000      0.0000000E+00
  0.1200000      0.0000000E+00
  0.1300000      0.0000000E+00
  0.1400000      0.0000000E+00
  0.1500000      0.0000000E+00
  0.1600000      0.0000000E+00
  0.1700000      0.0000000E+00
  0.1800000      0.0000000E+00
  0.1900000      0.0000000E+00
  0.2000000      0.0000000E+00
  0.2100000      0.0000000E+00
  0.2200000      0.0000000E+00
  0.2300000      0.0000000E+00
  0.2400000      0.0000000E+00
  0.2500000      0.0000000E+00
  0.2600000      0.0000000E+00
  0.2700000      0.0000000E+00
  0.2800000      0.0000000E+00
  0.2900000      0.0000000E+00
  0.3000000      0.0000000E+00
  0.3100000      0.0000000E+00
  0.3200000      0.0000000E+00
  0.3300000      0.0000000E+00
  0.3400000      0.0000000E+00
  0.3500000      0.0000000E+00
  0.3600000      0.0000000E+00
  0.3700000      0.0000000E+00
  0.3800000      0.0000000E+00
  0.3900000      0.0000000E+00
  0.4000000      0.0000000E+00
  0.4100000      0.0000000E+00
  0.4200000      0.0000000E+00
  0.4300000      0.0000000E+00
  0.4400000      0.0000000E+00
  0.4500000      0.0000000E+00
  0.4600000      0.0000000E+00
  0.4700000      0.0000000E+00
  0.4800000      0.0000000E+00
  0.4900000      0.0000000E+00
  0.5000000      0.0000000E+00
  0.5100000      0.0000000E+00
  0.5200000      0.0000000E+00
  0.5300000      0.0000000E+00
  0.5400000      0.0000000E+00
  0.5500000      0.0000000E+00
  0.5600000      0.0000000E+00
  0.5700000      0.0000000E+00
  0.5800000      0.0000000E+00
  0.5900000      0.0000000E+00
  0.6000000      0.0000000E+00
  0.6100000      0.0000000E+00
  0.6200000      0.0000000E+00
  0.6300000      0.0000000E+00
  0.6400000      0.0000000E+00
  0.6500000      0.0000000E+00
  0.6600000      0.0000000E+00
  0.6700000      0.0000000E+00
  0.6800000      0.0000000E+00
  0.6900000      0.0000000E+00
  0.7000000      0.0000000E+00
  0.7100000      0.0000000E+00
  0.7200000      0.0000000E+00
  0.7300000      0.0000000E+00
  0.7400000      0.0000000E+00
  0.7500000      0.0000000E+00
  0.7600000      0.0000000E+00
  0.7700000      0.0000000E+00
  0.7800000      0.0000000E+00
  0.7900000      0.0000000E+00
  0.8000000      0.0000000E+00
  0.8100000      0.0000000E+00
  0.8200000      0.0000000E+00
  0.8300000      0.0000000E+00
  0.8400000      0.0000000E+00
  0.8500000      0.0000000E+00
  0.8600000      0.0000000E+00
  0.8700000      0.0000000E+00
  0.8800000      0.0000000E+00
  0.8900000      0.0000000E+00
  0.9000000      0.0000000E+00
  0.9100000      0.0000000E+00
  0.9200000      0.0000000E+00
  0.9300000      0.0000000E+00
  0.9400000      0.0000000E+00
  0.9500000      0.0000000E+00
  0.9600000      0.0000000E+00
  0.9700000      0.0000000E+00
  0.9800000      0.0000000E+00
  0.9900000      0.0000000E+00
   1.000000      0.0000000E+00
   1.010000      0.0000000E+00
   1.020000      0.0000000E+00
   1.030000      0.0000000E+00
   1.040000      0.0000000E+00
   1.050000      0.0000000E+00
   1.060000      0.0000000E+00
   1.070000      0.0000000E+00
   1.080000      0.0000000E+00
   1.090000      0.0000000E+00
   1.100000      0.0000000E+00
   1.110000      0.0000000E+00
   1.120000      0.0000000E+00
   1.130000      0.0000000E+00
   1.140000      0.0000000E+00
   1.150000      0.0000000E+00
   1.160000      0.0000000E+00
   1.170000      0.0000000E+00
   1.180000      0.0000000E+00
   1.190000      0.0000000E+00
   1.200000      0.0000000E+00
   1.210000      0.0000000E+00
   1.220000      0.0000000E+00
   1.230000      0.0000000E+00
   1.240000      0.0000000E+00
   1.250000      0.0000000E+00
   1.260000      0.0000000E+00
   1.270000      0.0000000E+00
   1.280000      0.0000000E+00
   1.290000      0.0000000E+00
   1.300000      0.0000000E+00
   1.310000      0.0000000E+00
   1.320000      0.0000000E+00
   1.330000      0.0000000E+00
   1.340000      0.0000000E+00
   1.350000      0.0000000E+00
   1.360000      0.0000000E+00
   1.370000      0.0000000E+00
   1.380000      0.0000000E+00
   1.390000      0.0000000E+00
   1.400000      0.0000000E+00
   1.410000      0.0000000E+00
   1.420000      0.0000000E+00
   1.430000      0.0000000E+00
   1.440000      0.0000000E+00
   1.450000      0.0000000E+00
   1.460000      0.0000000E+00
   1.470000      0.0000000E+00
   1.480000      0.0000000E+00
   1.490000      0.0000000E+00
   1.500000      0.0000000E+00
   1.510000      0.0000000E+00
   1.520000      0.0000000E+00
   1.530000      0.0000000E+00
   1.540000      0.0000000E+00
   1.550000      0.0000000E+00
   1.560000      0.0000000E+00
   1.570000      0.0000000E+00
   1.580000      0.0000000E+00
   1.590000      0.0000000E+00
   1.600000      0.0000000E+00
   1.610000      0.0000000E+00
   1.620000      0.0000000E+00
   1.630000      0.0000000E+00
   1.640000      0.0000000E+00
   1.650000      0.0000000E+00
   1.660000      0.0000000E+00
   1.670000      0.0000000E+00
   1.680000      0.0000000E+00
   1.690000      0.0000000E+00
   1.700000      0.0000000E+00
   1.710000      0.0000000E+00
   1.720000      0.0000000E+00
   1.730000      0.0000000E+00
   1.740000      0.0000000E+00
   1.750000      0.0000000E+00
   1.760000      0.0000000E+00
   1.770000      0.0000000E+00
   1.780000      0.0000000E+00
   1.790000      0.0000000E+00
   1.800000      0.0000000E+00
   1.810000      0.0000000E+00
   1.820000      0.0000000E+00
   1.830000      0.0000000E+00
   1.840000      0.0000000E+00
   1.850000      0.0000000E+00
   1.860000      0.0000000E+00
   1.870000      0.0000000E+00
   1.880000      0.0000000E+00
   1.890000      0.0000000E+00
   1.900000      0.0000000E+00
   1.910000      0.0000000E+00
   1.920000      0.0000000E+00
   1.930000      0.0000000E+00
   1.940000      0.0000000E+00
   1.950000      0.0000000E+00
   1.960000      0.0000000E+00
   1.970000      0.0000000E+00
   1.980000      0.0000000E+00
   1.990000      0.0000000E+00
   2.000000      0.0000000E+00
   2.010000      0.0000000E+00
   2.020000      0.0000000E+00
   2.030000      0.0000000E+00
   2.040000      0.0000000E+00
   2.050000      0.0000000E+00
   2.060000      0.0000000E+00
   2.070000      0.0000000E+00
   2.080000      0.0000000E+00
   2.090000      0.0000000E+00
   2.100000      0.0000000E+00
   2.110000      0.0000000E+00
   2.120000      0.0000000E+00
   2.130000      0.0000000E+00
   2.140000      0.0000000E+00
   2.150000      0.0000000E+00
   2.160000      0.0000000E+00
   2.170000      0.0000000E+00
   2.180000      0.0000000E+00
   2.190000      0.0000000E+00
   2.200000      0.0000000E+00
   2.210000      0.0000000E+00
   2.220000      0.0000000E+00
   2.230000      0.0000000E+00
   2.240000      0.0000000E+00
   2.250000      0.0000000E+00
   2.260000      0.0000000E+00
   2.270000      0.0000000E+00
   2.280000      0.0000000E+00
   2.290000      0.0000000E+00
   2.300000      0.0000000E+00
   2.310000      0.0000000E+00
   2.320000      0.0000000E+00
   2.330000      0.0000000E+00
   2.340000      0.0000000E+00
   2.350000      0.0000000E+00
   2.360000      0.0000000E+00
   2.370000      0.0000000E+00
   2.380000      0.0000000E+00
   2.390000      0.0000000E+00
   2.400000      0.0000000E+00
   2.410000      0.0000000E+00
   2.420000      0.0000000E+00
   2.430000     -1.3994793E-38
   2.440000     -1.7666692E-38
   2.450000     -2.1494872E-38
   2.460000     -2.5449671E-38
   2.470000     -2.9498193E-38
   2.480000     -3.3608386E-38
   2.490000     -3.7749790E-38
   2.500000     -4.1893838E-38
   2.510000     -4.6008832E-38
   2.520000     -5.0056539E-38
   2.530000     -5.3994810E-38
   2.540000     -5.7777077E-38
   2.550000     -6.1354659E-38
   2.560000     -6.4674134E-38
   2.570000     -6.7681006E-38
   2.580000     -7.0320649E-38
   2.590000     -7.2528692E-38
   2.600000     -7.3515895E-38
   2.610000     -7.3515895E-38
   2.620000     -7.3515895E-38
   2.630000     -7.3515895E-38
   2.640000     -7.2688860E-38
   2.650000     -7.0526421E-38
   2.660000     -6.7301669E-38
   2.670000     -6.2924114E-38
   2.680000     -5.7306605E-38
   2.690000     -5.0371114E-38
   2.700000     -4.2052813E-38
   2.710000     -3.2299638E-38
   2.720000     -2.1071244E-38
   2.730000      0.0000000E+00
   2.740000      0.0000000E+00
   2.750000      3.1811930E-38
   2.760000      5.6013263E-38
   2.770000      8.3359518E-38
   2.780000      1.1699966E-37
   2.790000      1.6324138E-37
   2.800000      2.2003686E-37
   2.810000      2.7863053E-37
   2.820000      3.3935666E-37
   2.830000      4.0431555E-37
   2.840000      4.7834455E-37
   2.850000      5.6151478E-37
   2.860000      6.4791732E-37
   2.870000      7.2932818E-37
   2.880000      8.0359099E-37
   2.890000      8.7594660E-37
   2.900000      9.3138358E-37
   2.910000      9.7046560E-37
   2.920000      1.0089646E-36
   2.930000      1.0485092E-36
   2.940000      1.0902766E-36
   2.950000      1.1261230E-36
   2.960000      1.1585240E-36
   2.970000      1.1919503E-36
   2.980000      1.2172735E-36
   2.990000      1.2343578E-36
   3.000000      1.2470846E-36
   3.010000      1.2599937E-36
   3.020000      1.2676124E-36
   3.030000      1.2438035E-36
   3.040000      1.1832788E-36
   3.050000      1.0856661E-36
   3.060000      9.4944468E-37
   3.070000      7.9337160E-37
   3.080000      6.2700985E-37
   3.090000      4.4334016E-37
   3.100000      2.3198812E-37
   3.110000      0.0000000E+00
   3.120000     -2.6403665E-37
   3.130000     -5.2552047E-37
   3.140000     -7.6187876E-37
   3.150000     -9.6127048E-37
   3.160000     -1.1323409E-36
   3.170000     -1.2887702E-36
   3.180000     -1.4702499E-36
   3.190000     -1.8833319E-36
   3.200000     -2.3578626E-36
   3.210000     -2.7373580E-36
   3.220000     -3.1619901E-36
   3.230000     -3.5780602E-36
   3.240000     -3.9941302E-36
   3.250000     -4.4616529E-36
   3.260000     -4.9787746E-36
   3.270000     -5.5040310E-36
   3.280000     -5.9969400E-36
   3.290000     -6.4527817E-36
   3.300000     -6.8491501E-36
   3.310000     -7.1877512E-36
   3.320000     -7.1791179E-36
   3.330000     -6.8356295E-36
   3.340000     -6.4708338E-36
   3.350000     -6.0926581E-36
   3.360000     -5.7076719E-36
   3.370000     -5.2941262E-36
   3.380000     -4.9456937E-36
   3.390000     -4.6068222E-36
   3.400000     -4.0067199E-36
   3.410000     -3.0882477E-36
   3.420000     -2.0376905E-36
   3.430000     -9.3025035E-37
   3.440000      3.3733485E-37
   3.450000      1.8335958E-36
   3.460000      3.5323526E-36
   3.470000      4.9637785E-36
   3.480000      5.8278957E-36
   3.490000      6.2280789E-36
   3.500000      6.4235077E-36
   3.510000      6.6681646E-36
   3.520000      7.2213221E-36
   3.530000      8.1095945E-36
   3.540000      9.0489403E-36
   3.550000      1.0210848E-35
   3.560000      1.1607233E-35
   3.570000      1.3031567E-35
   3.580000      1.4445587E-35
   3.590000      1.6057860E-35
   3.600000      1.7856900E-35
   3.610000      1.9636345E-35
   3.620000      2.1219391E-35
   3.630000      2.2593778E-35
   3.640000      2.3377023E-35
   3.650000      2.3490480E-35
   3.660000      2.3263791E-35
   3.670000      2.2328429E-35
   3.680000      2.0883650E-35
   3.690000      1.9348565E-35
   3.700000      1.7597849E-35
   3.710000      1.5931626E-35
   3.720000      1.4524138E-35
   3.730000      1.3235874E-35
   3.740000      1.1726896E-35
   3.750000      1.0025518E-35
   3.760000      8.6028680E-36
   3.770000      7.4843232E-36
   3.780000      6.5629793E-36
   3.790000      5.5622432E-36
   3.800000      3.9644907E-36
   3.810000      9.6534586E-37
   3.820000     -4.2042929E-36
   3.830000     -1.1170114E-35
   3.840000     -1.9422002E-35
   3.850000     -2.8729863E-35
   3.860000     -3.8034543E-35
   3.870000     -4.7008120E-35
   3.880000     -5.5907183E-35
   3.890000     -6.5072348E-35
   3.900000     -7.3888470E-35
   3.910000     -8.1958279E-35
   3.920000     -8.9806942E-35
   3.930000     -9.6683940E-35
   3.940000     -1.0217395E-34
   3.950000     -1.0678072E-34
   3.960000     -1.1037492E-34
   3.970000     -1.1294791E-34
   3.980000     -1.1403510E-34
   3.990000     -1.1398274E-34
   4.000000     -1.1353731E-34
   4.010000     -1.1226692E-34
   4.020000     -1.1065867E-34
   4.030000     -1.0940814E-34
   4.040000     -1.0856090E-34
   4.050000     -1.0772908E-34
   4.060000     -1.0706333E-34
   4.070000     -1.0630062E-34
   4.080000     -1.0580439E-34
   4.090000     -1.0705850E-34
   4.100000     -1.0972711E-34
   4.110000     -1.1215191E-34
   4.120000     -1.1339815E-34
   4.130000     -1.1424067E-34
   4.140000     -1.1475488E-34
   4.150000     -1.1430978E-34
   4.160000     -1.1285640E-34
   4.170000     -1.0948539E-34
   4.180000     -1.0448906E-34
   4.190000     -9.8338264E-35
   4.200000     -8.9813233E-35
   4.210000     -7.8969487E-35
   4.220000     -6.5397572E-35
   4.230000     -4.8626000E-35
   4.240000     -3.1543734E-35
   4.250000     -1.3459560E-35
   4.260000      6.9936002E-36
   4.270000      2.9008994E-35
   4.280000      5.3365205E-35
   4.290000      8.2365207E-35
   4.300000      1.1395023E-34
   4.310000      1.4593710E-34
   4.320000      1.7964688E-34
   4.330000      2.1363572E-34
   4.340000      2.4730204E-34
   4.350000      2.7920353E-34
   4.360000      3.0781201E-34
   4.370000      3.3403764E-34
   4.380000      3.5838010E-34
   4.390000      3.8207547E-34
   4.400000      4.0592143E-34
   4.410000      4.3249463E-34
   4.420000      4.6533987E-34
   4.430000      5.0338649E-34
   4.440000      5.4436804E-34
   4.450000      5.8749986E-34
   4.460000      6.3404411E-34
   4.470000      6.8453426E-34
   4.480000      7.3688430E-34
   4.490000      7.9078986E-34
   4.500000      8.4778278E-34
   4.510000      9.0605369E-34
   4.520000      9.6378369E-34
   4.530000      1.0239675E-33
   4.540000      1.0870103E-33
   4.550000      1.1482499E-33
   4.560000      1.2073329E-33
   4.570000      1.2666507E-33
   4.580000      1.3242094E-33
   4.590000      1.3745192E-33
   4.600000      1.4195646E-33
   4.610000      1.4593259E-33
   4.620000      1.4910970E-33
   4.630000      1.5141955E-33
   4.640000      1.5280282E-33
   4.650000      1.5359713E-33
   4.660000      1.5376326E-33
   4.670000      1.5302281E-33
   4.680000      1.5126214E-33
   4.690000      1.4881818E-33
   4.700000      1.4588213E-33
   4.710000      1.4236208E-33
   4.720000      1.3824697E-33
   4.730000      1.3332935E-33
   4.740000      1.2740528E-33
   4.750000      1.2060342E-33
   4.760000      1.1299727E-33
   4.770000      1.0444717E-33
   4.780000      9.4746718E-34
   4.790000      8.3731298E-34
   4.800000      7.1353334E-34
   4.810000      5.7422697E-34
   4.820000      4.1787226E-34
   4.830000      2.4358027E-34
   4.840000      4.9973594E-35
   4.850000     -1.6351350E-34
   4.860000     -3.9934964E-34
   4.870000     -6.5947019E-34
   4.880000     -9.4264802E-34
   4.890000     -1.2494548E-33
   4.900000     -1.5800508E-33
   4.910000     -1.9338524E-33
   4.920000     -2.3127853E-33
   4.930000     -2.7157027E-33
   4.940000     -3.1397057E-33
   4.950000     -3.5863940E-33
   4.960000     -4.0562302E-33
   4.970000     -4.5464503E-33
   4.980000     -5.0554074E-33
   4.990000     -5.5828594E-33
   5.000000     -6.1282161E-33
   5.010000     -6.6901703E-33
   5.020000     -7.2669582E-33
   5.030000     -7.8566663E-33
   5.040000     -8.4570067E-33
   5.050000     -9.0655498E-33
   5.060000     -9.6807514E-33
   5.070000     -1.0302631E-32
   5.080000     -1.0928348E-32
   5.090000     -1.1554021E-32
   5.100000     -1.2181849E-32
   5.110000     -1.2809171E-32
   5.120000     -1.3431334E-32
   5.130000     -1.4046842E-32
   5.140000     -1.4651794E-32
   5.150000     -1.5245503E-32
   5.160000     -1.5825259E-32
   5.170000     -1.6385762E-32
   5.180000     -1.6923370E-32
   5.190000     -1.7433168E-32
   5.200000     -1.7910947E-32
   5.210000     -1.8351459E-32
   5.220000     -1.8748725E-32
   5.230000     -1.9097446E-32
   5.240000     -1.9390946E-32
   5.250000     -1.9622708E-32
   5.260000     -1.9786531E-32
   5.270000     -1.9876740E-32
   5.280000     -1.9884927E-32
   5.290000     -1.9802442E-32
   5.300000     -1.9622778E-32
   5.310000     -1.9338177E-32
   5.320000     -1.8941296E-32
   5.330000     -1.8424869E-32
   5.340000     -1.7780940E-32
   5.350000     -1.7001971E-32
   5.360000     -1.6080272E-32
   5.370000     -1.5009682E-32
   5.380000     -1.3781963E-32
   5.390000     -1.2388100E-32
   5.400000     -1.0822148E-32
   5.410000     -9.0775972E-33
   5.420000     -7.1477837E-33
   5.430000     -5.0257629E-33
   5.440000     -2.7054173E-33
   5.450000     -1.8103462E-34
   5.460000      2.5533161E-33
   5.470000      5.5032487E-33
   5.480000      8.6744621E-33
   5.490000      1.2071595E-32
   5.500000      1.5698936E-32
   5.510000      1.9560236E-32
   5.520000      2.3658306E-32
   5.530000      2.7996102E-32
   5.540000      3.2575643E-32
   5.550000      3.7398171E-32
   5.560000      4.2463767E-32
   5.570000      4.7771476E-32
   5.580000      5.3319595E-32
   5.590000      5.9105020E-32
   5.600000      6.5123186E-32
   5.610000      7.1368811E-32
   5.620000      7.7834500E-32
   5.630000      8.4510838E-32
   5.640000      9.1387427E-32
   5.650000      9.8452518E-32
   5.660000      1.0569149E-31
   5.670000      1.1308753E-31
   5.680000      1.2062279E-31
   5.690000      1.2827689E-31
   5.700000      1.3602745E-31
   5.710000      1.4384973E-31
   5.720000      1.5171673E-31
   5.730000      1.5959909E-31
   5.740000      1.6746507E-31
   5.750000      1.7528065E-31
   5.760000      1.8300932E-31
   5.770000      1.9061196E-31
   5.780000      1.9804703E-31
   5.790000      2.0527047E-31
   5.800000      2.1223579E-31
   5.810000      2.1889395E-31
   5.820000      2.2519345E-31
   5.830000      2.3108000E-31
   5.840000      2.3649684E-31
   5.850000      2.4138501E-31
   5.860000      2.4568295E-31
   5.870000      2.4932668E-31
   5.880000      2.5224959E-31
   5.890000      2.5438325E-31
   5.900000      2.5565697E-31
   5.910000      2.5599829E-31
   5.920000      2.5533113E-31
   5.930000      2.5357759E-31
   5.940000      2.5065959E-31
   5.950000      2.4649675E-31
   5.960000      2.4100754E-31
   5.970000      2.3410896E-31
   5.980000      2.2571732E-31
   5.990000      2.1574831E-31
   6.000000      2.0411728E-31
   6.010000      1.9073971E-31
   6.020000      1.7553148E-31
   6.030000      1.5840934E-31
   6.040000      1.3929119E-31
   6.050000      1.1809666E-31
   6.060000      9.4747478E-32
   6.070000      6.9168010E-32
   6.080000      4.1285768E-32
   6.090000      1.1031911E-32
   6.100000     -2.1658238E-32
   6.110000     -5.6844485E-32
   6.120000     -9.4581263E-32
   6.130000     -1.3491681E-31
   6.140000     -1.7789313E-31
   6.150000     -2.2354498E-31
   6.160000     -2.7189866E-31
   6.170000     -3.2297201E-31
   6.180000     -3.7677378E-31
   6.190000     -4.3330259E-31
   6.200000     -4.9254629E-31
   6.210000     -5.5448116E-31
   6.220000     -6.1907170E-31
   6.230000     -6.8626926E-31
   6.240000     -7.5601153E-31
   6.250000     -8.2822191E-31
   6.260000     -9.0280853E-31
   6.270000     -9.7966404E-31
   6.280000     -1.0586640E-30
   6.290000     -1.1396667E-30
   6.300000     -1.2225123E-30
   6.310000     -1.3070224E-30
   6.320000     -1.3929985E-30
   6.330000     -1.4802223E-30
   6.340000     -1.5684544E-30
   6.350000     -1.6574341E-30
   6.360000     -1.7468783E-30
   6.370000     -1.8364812E-30
   6.380000     -1.9259143E-30
   6.390000     -2.0148253E-30
   6.400000     -2.1028381E-30
   6.410000     -2.1895521E-30
   6.420000     -2.2745430E-30
   6.430000     -2.3573614E-30
   6.440000     -2.4375335E-30
   6.450000     -2.5145611E-30
   6.460000     -2.5879219E-30
   6.470000     -2.6570690E-30
   6.480000     -2.7214325E-30
   6.490000     -2.7804182E-30
   6.500000     -2.8334106E-30
   6.510000     -2.8797708E-30
   6.520000     -2.9188396E-30
   6.530000     -2.9499379E-30
   6.540000     -2.9723669E-30
   6.550000     -2.9854105E-30
   6.560000     -2.9883368E-30
   6.570000     -2.9803986E-30
   6.580000     -2.9608357E-30
   6.590000     -2.9288771E-30
   6.600000     -2.8837429E-30
   6.610000     -2.8246465E-30
   6.620000     -2.7507965E-30
   6.630000     -2.6613993E-30
   6.640000     -2.5556626E-30
   6.650000     -2.4327978E-30
   6.660000     -2.2920236E-30
   6.670000     -2.1325681E-30
   6.680000     -1.9536727E-30
   6.690000     -1.7545970E-30
   6.700000     -1.5346222E-30
   6.710000     -1.2930538E-30
   6.720000     -1.0292265E-30
   6.730000     -7.4250980E-31
   6.740000     -4.3231156E-31
   6.750000     -9.8082244E-32
   6.760000      2.6067911E-31
   6.770000      6.4441992E-31
   6.780000      1.0535290E-30
   6.790000      1.4883313E-30
   6.800000      1.9490821E-30
   6.810000      2.4359623E-30
   6.820000      2.9490703E-30
   6.830000      3.4884185E-30
   6.840000      4.0539272E-30
   6.850000      4.6454179E-30
   6.860000      5.2626073E-30
   6.870000      5.9051002E-30
   6.880000      6.5723856E-30
   6.890000      7.2638299E-30
   6.900000      7.9786719E-30
   6.910000      8.7160134E-30
   6.920000      9.4748162E-30
   6.930000      1.0253899E-29
   6.940000      1.1051925E-29
   6.950000      1.1867402E-29
   6.960000      1.2698675E-29
   6.970000      1.3543920E-29
   6.980000      1.4401147E-29
   6.990000      1.5268187E-29
   7.000000      1.6142686E-29
   7.010000      1.7022111E-29
   7.020000      1.7903738E-29
   7.030000      1.8784656E-29
   7.040000      1.9661759E-29
   7.050000      2.0531749E-29
   7.060000      2.1391131E-29