  -2.600000      0.0000000E+00
  -2.590000      0.0000000E+00
  -2.580000      0.0000000E+00
  -2.570000      0.0000000E+00
  -2.560000      0.0000000E+00
  -2.550000      0.0000000E+00
  -2.540000      0.0000000E+00
  -2.530000      0.0000000E+00
  -2.520000      0.0000000E+00
  -2.510000      0.0000000E+00
  -2.500000      0.0000000E+00
  -2.490000      0.0000000E+00
  -2.480000      0.0000000E+00
  -2.470000      0.0000000E+00
  -2.460000      0.0000000E+00
  -2.450000      0.0000000E+00
  -2.440000      0.0000000E+00
  -2.430000      0.0000000E+00
  -2.420000      0.0000000E+00
  -2.410000      0.0000000E+00
  -2.400000      0.0000000E+00
  -2.390000      0.0000000E+00
  -2.380000      0.0000000E+00
  -2.370000      0.0000000E+00
  -2.360000      0.0000000E+00
  -2.350000      0.0000000E+00
  -2.340000      0.0000000E+00
  -2.330000      0.0000000E+00
  -2.320000      0.0000000E+00
  -2.310000      0.0000000E+00
  -2.300000      0.0000000E+00
  -2.290000      0.0000000E+00
  -2.280000      0.0000000E+00
  -2.270000      0.0000000E+00
  -2.260000      0.0000000E+00
  -2.250000      0.0000000E+00
  -2.240000      0.0000000E+00
  -2.230000      0.0000000E+00
  -2.220000      0.0000000E+00
  -2.210000      0.0000000E+00
  -2.200000      0.0000000E+00
  -2.190000      0.0000000E+00
  -2.180000      0.0000000E+00
  -2.170000      0.0000000E+00
  -2.160000      0.0000000E+00
  -2.150000      0.0000000E+00
  -2.140000      0.0000000E+00
  -2.130000      0.0000000E+00
  -2.120000      0.0000000E+00
  -2.110000      0.0000000E+00
  -2.100000      0.0000000E+00
  -2.090000      0.0000000E+00
  -2.080000      0.0000000E+00
  -2.070000      0.0000000E+00
  -2.060000      0.0000000E+00
  -2.050000      0.0000000E+00
  -2.040000      0.0000000E+00
  -2.030000      0.0000000E+00
  -2.020000      0.0000000E+00
  -2.010000      0.0000000E+00
  -2.000000      0.0000000E+00
  -1.990000      0.0000000E+00
  -1.980000      0.0000000E+00
  -1.970000      0.0000000E+00
  -1.960000      0.0000000E+00
  -1.950000      0.0000000E+00
  -1.940000      0.0000000E+00
  -1.930000      0.0000000E+00
  -1.920000      0.0000000E+00
  -1.910000      0.0000000E+00
  -1.900000      0.0000000E+00
  -1.890000      0.0000000E+00
  -1.880000      0.0000000E+00
  -1.870000      0.0000000E+00
  -1.860000      0.0000000E+00
  -1.850000      0.0000000E+00
  -1.840000      0.0000000E+00
  -1.830000      0.0000000E+00
  -1.820000      0.0000000E+00
  -1.810000      0.0000000E+00
  -1.800000      0.0000000E+00
  -1.790000      0.0000000E+00
  -1.780000      0.0000000E+00
  -1.770000      0.0000000E+00
  -1.760000      0.0000000E+00
  -1.750000      0.0000000E+00
  -1.740000      0.0000000E+00
  -1.730000      0.0000000E+00
  -1.720000      0.0000000E+00
  -1.710000      0.0000000E+00
  -1.700000      0.0000000E+00
  -1.690000      0.0000000E+00
  -1.680000      0.0000000E+00
  -1.670000      0.0000000E+00
  -1.660000      0.0000000E+00
  -1.650000      0.0000000E+00
  -1.640000      0.0000000E+00
  -1.630000      0.0000000E+00
  -1.620000      0.0000000E+00
  -1.610000      0.0000000E+00
  -1.600000      0.0000000E+00
  -1.590000      0.0000000E+00
  -1.580000      0.0000000E+00
  -1.570000      0.0000000E+00
  -1.560000      0.0000000E+00
  -1.550000      0.0000000E+00
  -1.540000      0.0000000E+00
  -1.530000      0.0000000E+00
  -1.520000      0.0000000E+00
  -1.510000      0.0000000E+00
  -1.500000      0.0000000E+00
  -1.490000      0.0000000E+00
  -1.480000      0.0000000E+00
  -1.470000      0.0000000E+00
  -1.460000      0.0000000E+00
  -1.450000      0.0000000E+00
  -1.440000      0.0000000E+00
  -1.430000      0.0000000E+00
  -1.420000      0.0000000E+00
  -1.410000      0.0000000E+00
  -1.400000      0.0000000E+00
  -1.390000      0.0000000E+00
  -1.380000      0.0000000E+00
  -1.370000      0.0000000E+00
  -1.360000      0.0000000E+00
  -1.350000      0.0000000E+00
  -1.340000      0.0000000E+00
  -1.330000      0.0000000E+00
  -1.320000      0.0000000E+00
  -1.310000      0.0000000E+00
  -1.300000      0.0000000E+00
  -1.290000      0.0000000E+00
  -1.280000      0.0000000E+00
  -1.270000      0.0000000E+00
  -1.260000      0.0000000E+00
  -1.250000      0.0000000E+00
  -1.240000      0.0000000E+00
  -1.230000      0.0000000E+00
  -1.220000      0.0000000E+00
  -1.210000      0.0000000E+00
  -1.200000      0.0000000E+00
  -1.190000      0.0000000E+00
  -1.180000      0.0000000E+00
  -1.170000      0.0000000E+00
  -1.160000      0.0000000E+00
  -1.150000      0.0000000E+00
  -1.140000      0.0000000E+00
  -1.130000      0.0000000E+00
  -1.120000      0.0000000E+00
  -1.110000      0.0000000E+00
  -1.100000      0.0000000E+00
  -1.090000      0.0000000E+00
  -1.080000      0.0000000E+00
  -1.070000      0.0000000E+00
  -1.060000      0.0000000E+00
  -1.050000      0.0000000E+00
  -1.040000      0.0000000E+00
  -1.030000      0.0000000E+00
  -1.020000      0.0000000E+00
  -1.010000      0.0000000E+00
  -1.000000      0.0000000E+00
 -0.9900000      0.0000000E+00
 -0.9800000      0.0000000E+00
 -0.9700000      0.0000000E+00
 -0.9600000      0.0000000E+00
 -0.9500000      0.0000000E+00
 -0.9400000      0.0000000E+00
 -0.9300000      0.0000000E+00
 -0.9200000      0.0000000E+00
 -0.9100000      0.0000000E+00
 -0.9000000      0.0000000E+00
 -0.8900000      0.0000000E+00
 -0.8800000      0.0000000E+00
 -0.8700000      0.0000000E+00
 -0.8600000      0.0000000E+00
 -0.8500000      0.0000000E+00
 -0.8400000      0.0000000E+00
 -0.8300000      0.0000000E+00
 -0.8200000      0.0000000E+00
 -0.8100000      0.0000000E+00
 -0.8000000      0.0000000E+00
 -0.7900000      0.0000000E+00
 -0.7800000      0.0000000E+00
 -0.7700000      0.0000000E+00
 -0.7600000      0.0000000E+00
 -0.7500000      0.0000000E+00
 -0.7400000      0.0000000E+00
 -0.7300000      0.0000000E+00
 -0.7200000      0.0000000E+00
 -0.7100000      0.0000000E+00
 -0.7000000      0.0000000E+00
 -0.6900000      0.0000000E+00
 -0.6800000      0.0000000E+00
 -0.6700000      0.0000000E+00
 -0.6600000      0.0000000E+00
 -0.6500000      0.0000000E+00
 -0.6400000      0.0000000E+00
 -0.6300000      0.0000000E+00
 -0.6200000      0.0000000E+00
 -0.6100000      0.0000000E+00
 -0.6000000      0.0000000E+00
 -0.5900000      0.0000000E+00
 -0.5800000      0.0000000E+00
 -0.5700000      0.0000000E+00
 -0.5600000      0.0000000E+00
 -0.5500000      0.0000000E+00
 -0.5400000      0.0000000E+00
 -0.5300000      0.0000000E+00
 -0.5200000      0.0000000E+00
 -0.5100000      0.0000000E+00
 -0.5000000      0.0000000E+00
 -0.4900000      0.0000000E+00
 -0.4800000      0.0000000E+00
 -0.4700000      0.0000000E+00
 -0.4600000      0.0000000E+00
 -0.4500000      0.0000000E+00
 -0.4400000      0.0000000E+00
 -0.4300000      0.0000000E+00
 -0.4200000      0.0000000E+00
 -0.4100000      0.0000000E+00
 -0.4000000      0.0000000E+00
 -0.3900000      0.0000000E+00
 -0.3800000      0.0000000E+00
 -0.3700000      0.0000000E+00
 -0.3600000      0.0000000E+00
 -0.3500000      0.0000000E+00
 -0.3400000      0.0000000E+00
 -0.3300000      0.0000000E+00
 -0.3200000      0.0000000E+00
 -0.3100000      0.0000000E+00
 -0.3000000      0.0000000E+00
 -0.2900000      0.0000000E+00
 -0.2800000      0.0000000E+00
 -0.2700000      0.0000000E+00
 -0.2600000      0.0000000E+00
 -0.2500000      0.0000000E+00
 -0.2400000      0.0000000E+00
 -0.2300000      0.0000000E+00
 -0.2200000      0.0000000E+00
 -0.2100000      0.0000000E+00
 -0.2000000      0.0000000E+00
 -0.1900000      0.0000000E+00
 -0.1800000      0.0000000E+00
 -0.1700000      0.0000000E+00
 -0.1600000      0.0000000E+00
 -0.1500000      0.0000000E+00
 -0.1400000      0.0000000E+00
 -0.1300000      0.0000000E+00
 -0.1200000      0.0000000E+00
 -0.1100000      0.0000000E+00
 -0.1000000      0.0000000E+00
 -9.0000004E-02  0.0000000E+00
 -7.9999998E-02  0.0000000E+00
 -7.0000000E-02  0.0000000E+00
 -5.9999999E-02  0.0000000E+00
 -5.0000001E-02  0.0000000E+00
 -3.9999999E-02  0.0000000E+00
 -2.9999999E-02  0.0000000E+00
 -2.0000000E-02  0.0000000E+00
 -9.9999998E-03  0.0000000E+00
 -3.4694470E-17  0.0000000E+00
  9.9999998E-03  0.0000000E+00
  2.0000000E-02  0.0000000E+00
  2.9999999E-02  0.0000000E+00
  3.9999999E-02  0.0000000E+00
  5.0000001E-02  0.0000000E+00
  5.9999999E-02  0.0000000E+00
  7.0000000E-02  0.0000000E+00
  7.9999998E-02  0.0000000E+00
  9.0000004E-02  0.0000000E+00
  0.1000000      0.0000000E+00
  0.1100000      0.0000000E+00
  0.1200000      0.0000000E+00
  0.1300000      0.0000000E+00
  0.1400000      0.0000000E+00
  0.1500000      0.0000000E+00
  0.1600000      0.0000000E+00
  0.1700000      0.0000000E+00
  0.1800000      0.0000000E+00
  0.1900000      0.0000000E+00
  0.2000000      0.0000000E+00
  0.2100000      0.0000000E+00
  0.2200000      0.0000000E+00
  0.2300000      0.0000000E+00
  0.2400000      0.0000000E+00
  0.2500000      0.0000000E+00
  0.2600000      0.0000000E+00
  0.2700000      0.0000000E+00
  0.2800000      0.0000000E+00
  0.2900000      0.0000000E+00
  0.3000000      0.0000000E+00
  0.3100000      0.0000000E+00
  0.3200000      0.0000000E+00
  0.3300000      0.0000000E+00
  0.3400000      0.0000000E+00
  0.3500000      0.0000000E+00
  0.3600000      0.0000000E+00
  0.3700000     -1.8460398E-38
  0.3800000     -2.3747452E-38
  0.3900000     -1.8141941E-38
  0.4000000      0.0000000E+00
  0.4100000      3.9881946E-38
  0.4200000      8.1999048E-38
  0.4300000      1.3278472E-37
  0.4400000      1.8773520E-37
  0.4500000      2.5307556E-37
  0.4600000      3.2767066E-37
  0.4700000      4.0529838E-37
  0.4800000      4.9822187E-37
  0.4900000      6.1146531E-37
  0.5000000      7.2157660E-37
  0.5100000      8.2458949E-37
  0.5200000      9.3149345E-37
  0.5300000      1.0154047E-36
  0.5400000      1.0590159E-36
  0.5500000      1.0513653E-36
  0.5600000      9.9226577E-37
  0.5700000      8.8573004E-37
  0.5800000      6.9954236E-37
  0.5900000      4.5762565E-37
  0.6000000      1.4432523E-37
  0.6100000     -2.7735645E-37
  0.6200000     -7.8356736E-37
  0.6300000     -1.3499906E-36
  0.6400000     -1.9277845E-36
  0.6500000     -2.5375009E-36
  0.6600000     -3.2269078E-36
  0.6700000     -3.9772533E-36
  0.6800000     -4.7765277E-36
  0.6900000     -5.6545831E-36
  0.7000000     -6.6103126E-36
  0.7100000     -7.6112319E-36
  0.7200000     -8.8626929E-36
  0.7300000     -1.0432040E-35
  0.7400000     -1.2163914E-35
  0.7500000     -1.4094710E-35
  0.7600000     -1.5970659E-35
  0.7700000     -1.7604721E-35
  0.7800000     -1.9274379E-35
  0.7900000     -2.1068206E-35
  0.8000000     -2.2824537E-35
  0.8100000     -2.4568228E-35
  0.8200000     -2.6147443E-35
  0.8300000     -2.7619649E-35
  0.8400000     -2.9161828E-35
  0.8500000     -3.0607663E-35
  0.8600000     -3.1933679E-35
  0.8700000     -3.3065545E-35
  0.8800000     -3.3892811E-35
  0.8900000     -3.4250002E-35
  0.9000000     -3.4288464E-35
  0.9100000     -3.3830056E-35
  0.9200000     -3.2273938E-35
  0.9300000     -2.9709024E-35
  0.9400000     -2.6085571E-35
  0.9500000     -2.1332454E-35
  0.9600000     -1.5672934E-35
  0.9700000     -8.9710387E-36
  0.9800000     -6.7543187E-37
  0.9900000      8.8721806E-36
   1.000000      1.9134128E-35
   1.010000      3.0516927E-35
   1.020000      4.2842436E-35
   1.030000      5.5889407E-35
   1.040000      6.9765705E-35
   1.050000      8.4371893E-35
   1.060000      9.9409411E-35
   1.070000      1.1451071E-34
   1.080000      1.2985814E-34
   1.090000      1.4499220E-34
   1.100000      1.5974299E-34
   1.110000      1.7447899E-34
   1.120000      1.8902460E-34
   1.130000      2.0365389E-34
   1.140000      2.1832952E-34
   1.150000      2.3343302E-34
   1.160000      2.4913473E-34
   1.170000      2.6507572E-34
   1.180000      2.8210781E-34
   1.190000      2.9943152E-34
   1.200000      3.1610292E-34
   1.210000      3.3223249E-34
   1.220000      3.4712096E-34
   1.230000      3.6292408E-34
   1.240000      3.8018256E-34
   1.250000      3.9620740E-34
   1.260000      4.0822412E-34
   1.270000      4.1547191E-34
   1.280000      4.1685041E-34
   1.290000      4.1003419E-34
   1.300000      4.0060195E-34
   1.310000      3.9087680E-34
   1.320000      3.7679675E-34
   1.330000      3.5527758E-34
   1.340000      3.2633234E-34
   1.350000      2.9631930E-34
   1.360000      2.6523944E-34
   1.370000      2.3057570E-34
   1.380000      1.9282405E-34
   1.390000      1.5028293E-34
   1.400000      1.0338283E-34
   1.410000      5.1125263E-35
   1.420000     -8.8748410E-36
   1.430000     -7.5331819E-35
   1.440000     -1.4506469E-34
   1.450000     -2.1886332E-34
   1.460000     -2.9559082E-34
   1.470000     -3.7688766E-34
   1.480000     -4.6740346E-34
   1.490000     -5.6473476E-34
   1.500000     -6.6693651E-34
   1.510000     -7.7352487E-34
   1.520000     -8.8834679E-34
   1.530000     -1.0098988E-33
   1.540000     -1.1337516E-33
   1.550000     -1.2588739E-33
   1.560000     -1.3879402E-33
   1.570000     -1.5218970E-33
   1.580000     -1.6587228E-33
   1.590000     -1.7988002E-33
   1.600000     -1.9399226E-33
   1.610000     -2.0792010E-33
   1.620000     -2.2167261E-33
   1.630000     -2.3537792E-33
   1.640000     -2.4887702E-33
   1.650000     -2.6202061E-33
   1.660000     -2.7430370E-33
   1.670000     -2.8539431E-33
   1.680000     -2.9541958E-33
   1.690000     -3.0423704E-33
   1.700000     -3.1175837E-33
   1.710000     -3.1767007E-33
   1.720000     -3.2139121E-33
   1.730000     -3.2278252E-33
   1.740000     -3.2167914E-33
   1.750000     -3.1757240E-33
   1.760000     -3.1044758E-33
   1.770000     -3.0009923E-33
   1.780000     -2.8590372E-33
   1.790000     -2.6779730E-33
   1.800000     -2.4545920E-33
   1.810000     -2.1836514E-33
   1.820000     -1.8623408E-33
   1.830000     -1.4882753E-33
   1.840000     -1.0572871E-33
   1.850000     -5.6466928E-34
   1.860000     -6.9543735E-36
   1.870000      6.1826517E-34
   1.880000      1.3151802E-33
   1.890000      2.0877457E-33
   1.900000      2.9372127E-33
   1.910000      3.8657006E-33
   1.920000      4.8752519E-33
   1.930000      5.9661859E-33
   1.940000      7.1387640E-33
   1.950000      8.3922553E-33
   1.960000      9.7243850E-33
   1.970000      1.1131864E-32
   1.980000      1.2609222E-32
   1.990000      1.4149965E-32
   2.000000      1.5746458E-32
   2.010000      1.7388190E-32
   2.020000      1.9063143E-32
   2.030000      2.0757983E-32
   2.040000      2.2455679E-32
   2.050000      2.4137079E-32
   2.060000      2.5780413E-32
   2.070000      2.7361662E-32
   2.080000      2.8855401E-32
   2.090000      3.0232698E-32
   2.100000      3.1462544E-32
   2.110000      3.2509257E-32
   2.120000      3.3336029E-32
   2.130000      3.3906179E-32
   2.140000      3.4179170E-32
   2.150000      3.4113034E-32
   2.160000      3.3663998E-32
   2.170000      3.2787138E-32
   2.180000      3.1436598E-32
   2.190000      2.9565661E-32
   2.200000      2.7127524E-32
   2.210000      2.4074331E-32
   2.220000      2.0358409E-32
   2.230000      1.5933439E-32
   2.240000      1.0753416E-32
   2.250000      4.7738482E-33
   2.260000     -2.0480910E-33
   2.270000     -9.7530781E-33
   2.280000     -1.8378889E-32
   2.290000     -2.7959518E-32
   2.300000     -3.8525296E-32
   2.310000     -5.0100945E-32
   2.320000     -6.2704977E-32
   2.330000     -7.6349886E-32
   2.340000     -9.1039798E-32
   2.350000     -1.0676987E-31
   2.360000     -1.2352505E-31
   2.370000     -1.4127867E-31
   2.380000     -1.5999147E-31
   2.390000     -1.7961049E-31
   2.400000     -2.0006759E-31
   2.410000     -2.2127830E-31
   2.420000     -2.4314083E-31
   2.430000     -2.6553503E-31
   2.440000     -2.8832126E-31
   2.450000     -3.1134031E-31
   2.460000     -3.3441232E-31
   2.470000     -3.5733613E-31
   2.480000     -3.7988971E-31
   2.490000     -4.0183000E-31
   2.500000     -4.2289434E-31
   2.510000     -4.4279739E-31
   2.520000     -4.6123441E-31
   2.530000     -4.7788463E-31
   2.540000     -4.9240946E-31
   2.550000     -5.0445428E-31
   2.560000     -5.1364984E-31
   2.570000     -5.1961486E-31
   2.580000     -5.2195772E-31
   2.590000     -5.2027836E-31
   2.600000     -5.1417092E-31
   2.610000     -5.0322575E-31
   2.620000     -4.8703218E-31
   2.630000     -4.6518092E-31
   2.640000     -4.3726707E-31
   2.650000     -4.0289302E-31
   2.660000     -3.6167178E-31
   2.670000     -3.1323029E-31
   2.680000     -2.5721328E-31
   2.690000     -1.9328721E-31
   2.700000     -1.2114487E-31
   2.710000     -4.0510060E-32
   2.720000      4.8857169E-32
   2.730000      1.4715495E-31
   2.740000      2.5453379E-31
   2.750000      3.7108991E-31
   2.760000      4.9685875E-31
   2.770000      6.3180785E-31
   2.780000      7.7582980E-31
   2.790000      9.2873476E-31
   2.800000      1.0902436E-30
   2.810000      1.2599803E-30
   2.820000      1.4374654E-30
   2.830000      1.6221092E-30
   2.840000      1.8132061E-30
   2.850000      2.0099293E-30
   2.860000      2.2113262E-30
   2.870000      2.4163159E-30
   2.880000      2.6236848E-30
   2.890000      2.8320875E-30
   2.900000      3.0400460E-30
   2.910000      3.2459507E-30
   2.920000      3.4480627E-30
   2.930000      3.6445204E-30
   2.940000      3.8333401E-30
   2.950000      4.0124264E-30
   2.960000      4.1795779E-30
   2.970000      4.3324975E-30
   2.980000      4.4687999E-30
   2.990000      4.5860251E-30
   3.000000      4.6816479E-30
   3.010000      4.7530924E-30
   3.020000      4.7977443E-30
   3.030000      4.8129678E-30
   3.040000      4.7961178E-30
   3.050000      4.7445593E-30
   3.060000      4.6556836E-30
   3.070000      4.5269281E-30
   3.080000      4.3557975E-30
   3.090000      4.1398838E-30
   3.100000      3.8768921E-30
   3.110000      3.5646635E-30
   3.120000      3.2012059E-30
   3.130000      2.7847211E-30
   3.140000      2.3136368E-30
   3.150000      1.7866403E-30
   3.160000      1.2027139E-30
   3.170000      5.6117188E-31
   3.180000     -1.3830302E-31
   3.190000     -8.9561752E-31
   3.200000     -1.7102296E-30
   3.210000     -2.5811087E-30
   3.220000     -3.5066953E-30
   3.230000     -4.4848642E-30
   3.240000     -5.5128853E-30
   3.250000     -6.5873944E-30
   3.260000     -7.7043577E-30
   3.270000     -8.8590468E-30
   3.280000     -1.0046018E-29
   3.290000     -1.1259091E-29
   3.300000     -1.2491337E-29
   3.310000     -1.3735076E-29
   3.320000     -1.4981871E-29
   3.330000     -1.6222534E-29
   3.340000     -1.7447144E-29
   3.350000     -1.8645057E-29
   3.360000     -1.9804930E-29
   3.370000     -2.0914761E-29
   3.380000     -2.1961907E-29
   3.390000     -2.2933146E-29
   3.400000     -2.3814706E-29
   3.410000     -2.4592327E-29
   3.420000     -2.5251316E-29
   3.430000     -2.5776610E-29
   3.440000     -2.6152844E-29
   3.450000     -2.6364425E-29
   3.460000     -2.6395616E-29
   3.470000     -2.6230624E-29
   3.480000     -2.5853693E-29
   3.490000     -2.5249203E-29
   3.500000     -2.4401796E-29
   3.510000     -2.3296483E-29
   3.520000     -2.1918791E-29
   3.530000     -2.0254886E-29
   3.540000     -1.8291750E-29
   3.550000     -1.6017327E-29
   3.560000     -1.3420710E-29
   3.570000     -1.0492329E-29
   3.580000     -7.2241384E-30
   3.590000     -3.6098352E-30
   3.600000      3.5494249E-31
   3.610000      4.6723843E-30
   3.620000      9.3422837E-30
   3.630000      1.4361822E-29
   3.640000      1.9725346E-29
   3.650000      2.5424135E-29
   3.660000      3.1446205E-29
   3.670000      3.7776078E-29
   3.680000      4.4394620E-29
   3.690000      5.1278842E-29
   3.700000      5.8401749E-29
   3.710000      6.5732182E-29
   3.720000      7.3234702E-29
   3.730000      8.0869479E-29
   3.740000      8.8592242E-29
   3.750000      9.6354179E-29
   3.760000      1.0410194E-28
   3.770000      1.1177764E-28
   3.780000      1.1931880E-28
   3.790000      1.2665846E-28
   3.800000      1.3372522E-28
   3.810000      1.4044336E-28
   3.820000      1.4673288E-28
   3.830000      1.5250975E-28
   3.840000      1.5768597E-28
   3.850000      1.6216985E-28
   3.860000      1.6586619E-28
   3.870000      1.6867660E-28
   3.880000      1.7049976E-28
   3.890000      1.7123180E-28
   3.900000      1.7076662E-28
   3.910000      1.6899645E-28
   3.920000      1.6581223E-28
   3.930000      1.6110422E-28
   3.940000      1.5476259E-28
   3.950000      1.4667814E-28
   3.960000      1.3674290E-28
   3.970000      1.2485113E-28
   3.980000      1.1089997E-28
   3.990000      9.4790576E-29
   4.000000      7.6429025E-29
   4.010000      5.5727307E-29
   4.020000      3.2604513E-29
   4.030000      6.9880066E-30
   4.040000     -2.1185440E-29
   4.050000     -5.1968373E-29
   4.060000     -8.5401415E-29
   4.070000     -1.2151202E-28
   4.080000     -1.6031317E-28
   4.090000     -2.0180205E-28
   4.100000     -2.4595888E-28
   4.110000     -2.9274554E-28
   4.120000     -3.4210438E-28
   4.130000     -3.9395708E-28
   4.140000     -4.4820343E-28
   4.150000     -5.0472023E-28
   4.160000     -5.6336012E-28
   4.170000     -6.2395079E-28
   4.180000     -6.8629358E-28
   4.190000     -7.5016310E-28
   4.200000     -8.1530585E-28
   4.210000     -8.8143959E-28
   4.220000     -9.4825279E-28
   4.230000     -1.0154036E-27
   4.240000     -1.0825197E-27
   4.250000     -1.1491970E-27
   4.260000     -1.2150004E-27
   4.270000     -1.2794625E-27
   4.280000     -1.3420835E-27
   4.290000     -1.4023319E-27
   4.300000     -1.4596436E-27
   4.310000     -1.5134232E-27
   4.320000     -1.5630436E-27
   4.330000     -1.6078476E-27
   4.340000     -1.6471479E-27
   4.350000     -1.6802296E-27
   4.360000     -1.7063502E-27
   4.370000     -1.7247429E-27
   4.380000     -1.7346175E-27
   4.390000     -1.7351637E-27
   4.400000     -1.7255535E-27
   4.410000     -1.7049445E-27
   4.420000     -1.6724833E-27
   4.430000     -1.6273093E-27
   4.440000     -1.5685588E-27
   4.450000     -1.4953694E-27
   4.460000     -1.4068853E-27
   4.470000     -1.3022617E-27
   4.480000     -1.1806706E-27
   4.490000     -1.0413058E-27
   4.500000     -8.8338959E-28
   4.510000     -7.0617861E-28
   4.520000     -5.0897008E-28
   4.530000     -2.9110797E-28
   4.540000     -5.1990659E-29
   4.550000      2.0892276E-28
   4.560000      4.9210534E-28
   4.570000      7.9795466E-28
   4.580000      1.1267855E-27
   4.590000      1.4788219E-27
   4.600000      1.8541892E-27
   4.610000      2.2529059E-27
   4.620000      2.6748756E-27
   4.630000      3.1198786E-27
   4.640000      3.5875638E-27
   4.650000      4.0774379E-27
   4.660000      4.5888594E-27
   4.670000      5.1210277E-27
   4.680000      5.6729749E-27
   4.690000      6.2435579E-27
   4.700000      6.8314468E-27
   4.710000      7.4351196E-27
   4.720000      8.0528524E-27
   4.730000      8.6827131E-27
   4.740000      9.3225486E-27
   4.750000      9.9699839E-27
   4.760000      1.0622413E-26
   4.770000      1.1276993E-26
   4.780000      1.1930641E-26
   4.790000      1.2580026E-26
   4.800000      1.3221571E-26
   4.810000      1.3851445E-26
   4.820000      1.4465569E-26
   4.830000      1.5059610E-26
   4.840000      1.5628983E-26
   4.850000      1.6168857E-26
   4.860000      1.6674158E-26
   4.870000      1.7139569E-26
   4.880000      1.7559543E-26
   4.890000      1.7928308E-26
   4.900000      1.8239874E-26
   4.910000      1.8488049E-26
   4.920000      1.8666443E-26
   4.930000      1.8768491E-26
   4.940000      1.8787464E-26
   4.950000      1.8716478E-26
   4.960000      1.8548533E-26
   4.970000      1.8276510E-26
   4.980000      1.7893208E-26
   4.990000      1.7391368E-26
   5.000000      1.6763695E-26
   5.010000      1.6002889E-26
   5.020000      1.5101673E-26
   5.030000      1.4052830E-26
   5.040000      1.2849241E-26
   5.050000      1.1483920E-26
   5.060000      9.9500559E-27
   5.070000      8.2410550E-27
   5.080000      6.3505911E-27
   5.090000      4.2726544E-27
   5.100000      2.0015984E-27
   5.110000     -4.6779798E-28
   5.120000     -3.1402823E-27
   5.130000     -6.0200637E-27
   5.140000     -9.1107541E-27
   5.150000     -1.2415308E-26
   5.160000     -1.5935952E-26
   5.170000     -1.9674128E-26
   5.180000     -2.3630421E-26
   5.190000     -2.7804490E-26
   5.200000     -3.2194991E-26
   5.210000     -3.6799529E-26
   5.220000     -4.1614576E-26
   5.230000     -4.6635389E-26
   5.240000     -5.1855963E-26
   5.250000     -5.7268941E-26
   5.260000     -6.2865558E-26
   5.270000     -6.8635570E-26
   5.280000     -7.4567194E-26
   5.290000     -8.0647001E-26
   5.300000     -8.6859903E-26
   5.310000     -9.3189063E-26
   5.320000     -9.9615839E-26
   5.330000     -1.0611971E-25
   5.340000     -1.1267827E-25
   5.350000     -1.1926708E-25
   5.360000     -1.2585970E-25
   5.370000     -1.3242763E-25
   5.380000     -1.3894026E-25
   5.390000     -1.4536479E-25
   5.400000     -1.5166630E-25
   5.410000     -1.5780764E-25
   5.420000     -1.6374943E-25
   5.430000     -1.6945008E-25
   5.440000     -1.7486581E-25
   5.450000     -1.7995062E-25
   5.460000     -1.8465633E-25
   5.470000     -1.8893258E-25
   5.480000     -1.9272695E-25
   5.490000     -1.9598496E-25
   5.500000     -1.9865020E-25
   5.510000     -2.0066439E-25
   5.520000     -2.0196740E-25
   5.530000     -2.0249754E-25
   5.540000     -2.0219155E-25
   5.550000     -2.0098480E-25
   5.560000     -1.9881147E-25
   5.570000     -1.9560478E-25
   5.580000     -1.9129706E-25
   5.590000     -1.8582008E-25
   5.600000     -1.7910528E-25
   5.610000     -1.7108397E-25
   5.620000     -1.6168767E-25
   5.630000     -1.5084830E-25
   5.640000     -1.3849863E-25
   5.650000     -1.2457254E-25
   5.660000     -1.0900539E-25
   5.670000     -9.1734342E-26
   5.680000     -7.2698826E-26
   5.690000     -5.1840974E-26
   5.700000     -2.9105966E-26
   5.710000     -4.4425153E-27
   5.720000      2.2196574E-26
   5.730000      5.0853971E-26
   5.740000      8.1567324E-26
   5.750000      1.1436870E-25
   5.760000      1.4928401E-25
   5.770000      1.8633240E-25
   5.780000      2.2552567E-25
   5.790000      2.6686775E-25
   5.800000      3.1035395E-25
   5.810000      3.5597040E-25
   5.820000      4.0369341E-25
   5.830000      4.5348867E-25
   5.840000      5.0531087E-25
   5.850000      5.5910265E-25
   5.860000      6.1479441E-25
   5.870000      6.7230326E-25
   5.880000      7.3153231E-25
   5.890000      7.9237050E-25
   5.900000      8.5469154E-25
   5.910000      9.1835341E-25
   5.920000      9.8319778E-25
   5.930000      1.0490492E-24
   5.940000      1.1157152E-24
   5.950000      1.1829847E-24
   5.960000      1.2506286E-24
   5.970000      1.3183988E-24
   5.980000      1.3860275E-24
   5.990000      1.4532277E-24
   6.000000      1.5196920E-24
   6.010000      1.5850929E-24
   6.020000      1.6490825E-24
   6.030000      1.7112919E-24
   6.040000      1.7713319E-24
   6.050000      1.8287926E-24
   6.060000      1.8832433E-24
   6.070000      1.9342333E-24
   6.080000      1.9812916E-24
   6.090000      2.0239276E-24
   6.100000      2.0616314E-24
   6.110000      2.0938745E-24
   6.120000      2.1201106E-24
   6.130000      2.1397765E-24
   6.140000      2.1522930E-24
   6.150000      2.1570658E-24
   6.160000      2.1534873E-24
   6.170000      2.1409377E-24
   6.180000      2.1187869E-24
   6.190000      2.0863957E-24
   6.200000      2.0431182E-24
   6.210000      1.9883040E-24
   6.220000      1.9213001E-24
   6.230000      1.8414536E-24
   6.240000      1.7481144E-24
   6.250000      1.6406374E-24
   6.260000      1.5183864E-24
   6.270000      1.3807365E-24
   6.280000      1.2270783E-24
   6.290000      1.0568201E-24
   6.300000      8.6939374E-25
   6.310000      6.6425692E-25
   6.320000      4.4089742E-25
   6.330000      1.9883772E-25
   6.340000     -6.2361248E-26
   6.350000     -3.4309417E-25
   6.360000     -6.4370769E-25
   6.370000     -9.6449517E-25
   6.380000     -1.3056917E-24
   6.390000     -1.6674691E-24
   6.400000     -2.0499300E-24
   6.410000     -2.4531034E-24
   6.420000     -2.8769377E-24
   6.430000     -3.3212969E-24
   6.440000     -3.7859533E-24
   6.450000     -4.2705829E-24
   6.460000     -4.7747593E-24
   6.470000     -5.2979465E-24
   6.480000     -5.8394971E-24
   6.490000     -6.3986417E-24
   6.500000     -6.9744857E-24
   6.510000     -7.5660060E-24
   6.520000     -8.1720405E-24
   6.530000     -8.7912852E-24
   6.540000     -9.4222903E-24
   6.550000     -1.0063457E-23
   6.560000     -1.0713025E-23
   6.570000     -1.1369077E-23
   6.580000     -1.2029529E-23
   6.590000     -1.2692131E-23
   6.600000     -1.3354459E-23
   6.610000     -1.4013918E-23
   6.620000     -1.4667734E-23
   6.630000     -1.5312956E-23
   6.640000     -1.5946452E-23
   6.650000     -1.6564915E-23
   6.660000     -1.7164853E-23
   6.670000     -1.7742599E-23
   6.680000     -1.8294308E-23
   6.690000     -1.8815959E-23
   6.700000     -1.9303365E-23
   6.710000     -1.9752167E-23
   6.720000     -2.0157843E-23
   6.730000     -2.0515723E-23
   6.740000     -2.0820980E-23
   6.750000     -2.1068654E-23
   6.760000     -2.1253647E-23
   6.770000     -2.1370747E-23
   6.780000     -2.1414628E-23
   6.790000     -2.1379871E-23
   6.800000     -2.1260974E-23
   6.810000     -2.1052369E-23
   6.820000     -2.0748443E-23
   6.830000     -2.0343544E-23
   6.840000     -1.9832018E-23
   6.850000     -1.9208212E-23
   6.860000     -1.8466506E-23
   6.870000     -1.7601342E-23
   6.880000     -1.6607237E-23
   6.890000     -1.5478819E-23
   6.900000     -1.4210850E-23
   6.910000     -1.2798253E-23
   6.920000     -1.1236156E-23
   6.930000     -9.5199150E-24
   6.940000     -7.6451421E-24
   6.950000     -5.6077483E-24
   6.960000     -3.4039810E-24
   6.970000     -1.0304565E-24
   6.980000      1.5158031E-24
   6.990000      4.2373249E-24
   7.000000      7.1361486E-24
   7.010000      1.0213787E-23
   7.020000      1.3471177E-23
   7.030000      1.6908647E-23
   7.040000      2.0525866E-23
   7.050000      2.4321804E-23
   7.060000      2.8294689E-23