  -2.600000      0.0000000E+00
  -2.590000      0.0000000E+00
  -2.580000      0.0000000E+00
  -2.570000      0.0000000E+00
  -2.560000      0.0000000E+00
  -2.550000      0.0000000E+00
  -2.540000      0.0000000E+00
  -2.530000      0.0000000E+00
  -2.520000      0.0000000E+00
  -2.510000      0.0000000E+00
  -2.500000      0.0000000E+00
  -2.490000      0.0000000E+00
  -2.480000      0.0000000E+00
  -2.470000      0.0000000E+00
  -2.460000      0.0000000E+00
  -2.450000      0.0000000E+00
  -2.440000      0.0000000E+00
  -2.430000      0.0000000E+00
  -2.420000      0.0000000E+00
  -2.410000      0.0000000E+00
  -2.400000      0.0000000E+00
  -2.390000      0.0000000E+00
  -2.380000      0.0000000E+00
  -2.370000      0.0000000E+00
  -2.360000      0.0000000E+00
  -2.350000      0.0000000E+00
  -2.340000      0.0000000E+00
  -2.330000      0.0000000E+00
  -2.320000      0.0000000E+00
  -2.310000      0.0000000E+00
  -2.300000      0.0000000E+00
  -2.290000      0.0000000E+00
  -2.280000      0.0000000E+00
  -2.270000      0.0000000E+00
  -2.260000      0.0000000E+00
  -2.250000      0.0000000E+00
  -2.240000      0.0000000E+00
  -2.230000      0.0000000E+00
  -2.220000      0.0000000E+00
  -2.210000      0.0000000E+00
  -2.200000      0.0000000E+00
  -2.190000      0.0000000E+00
  -2.180000      0.0000000E+00
  -2.170000      0.0000000E+00
  -2.160000      0.0000000E+00
  -2.150000      0.0000000E+00
  -2.140000      0.0000000E+00
  -2.130000      0.0000000E+00
  -2.120000      0.0000000E+00
  -2.110000      0.0000000E+00
  -2.100000      0.0000000E+00
  -2.090000      0.0000000E+00
  -2.080000      0.0000000E+00
  -2.070000      0.0000000E+00
  -2.060000      0.0000000E+00
  -2.050000      0.0000000E+00
  -2.040000      0.0000000E+00
  -2.030000      0.0000000E+00
  -2.020000      0.0000000E+00
  -2.010000      0.0000000E+00
  -2.000000      0.0000000E+00
  -1.990000      0.0000000E+00
  -1.980000      0.0000000E+00
  -1.970000      0.0000000E+00
  -1.960000      0.0000000E+00
  -1.950000      0.0000000E+00
  -1.940000      0.0000000E+00
  -1.930000      0.0000000E+00
  -1.920000      0.0000000E+00
  -1.910000      0.0000000E+00
  -1.900000      0.0000000E+00
  -1.890000      0.0000000E+00
  -1.880000      0.0000000E+00
  -1.870000      0.0000000E+00
  -1.860000      0.0000000E+00
  -1.850000      0.0000000E+00
  -1.840000      0.0000000E+00
  -1.830000      0.0000000E+00
  -1.820000      0.0000000E+00
  -1.810000      0.0000000E+00
  -1.800000      0.0000000E+00
  -1.790000      0.0000000E+00
  -1.780000      0.0000000E+00
  -1.770000      0.0000000E+00
  -1.760000      0.0000000E+00
  -1.750000      0.0000000E+00
  -1.740000      0.0000000E+00
  -1.730000      0.0000000E+00
  -1.720000      0.0000000E+00
  -1.710000      0.0000000E+00
  -1.700000      0.0000000E+00
  -1.690000      0.0000000E+00
  -1.680000      0.0000000E+00
  -1.670000      0.0000000E+00
  -1.660000      0.0000000E+00
  -1.650000      0.0000000E+00
  -1.640000      0.0000000E+00
  -1.630000      0.0000000E+00
  -1.620000      0.0000000E+00
  -1.610000      0.0000000E+00
  -1.600000      0.0000000E+00
  -1.590000      0.0000000E+00
  -1.580000      0.0000000E+00
  -1.570000      0.0000000E+00
  -1.560000      0.0000000E+00
  -1.550000      0.0000000E+00
  -1.540000      0.0000000E+00
  -1.530000      0.0000000E+00
  -1.520000      0.0000000E+00
  -1.510000      0.0000000E+00
  -1.500000      0.0000000E+00
  -1.490000      0.0000000E+00
  -1.480000      0.0000000E+00
  -1.470000      0.0000000E+00
  -1.460000      0.0000000E+00
  -1.450000      0.0000000E+00
  -1.440000      0.0000000E+00
  -1.430000      0.0000000E+00
  -1.420000      0.0000000E+00
  -1.410000      0.0000000E+00
  -1.400000      0.0000000E+00
  -1.390000      0.0000000E+00
  -1.380000      0.0000000E+00
  -1.370000      0.0000000E+00
  -1.360000      0.0000000E+00
  -1.350000      0.0000000E+00
  -1.340000      0.0000000E+00
  -1.330000      0.0000000E+00
  -1.320000      0.0000000E+00
  -1.310000      0.0000000E+00
  -1.300000      0.0000000E+00
  -1.290000      0.0000000E+00
  -1.280000      0.0000000E+00
  -1.270000      0.0000000E+00
  -1.260000      0.0000000E+00
  -1.250000      0.0000000E+00
  -1.240000      0.0000000E+00
  -1.230000      0.0000000E+00
  -1.220000      0.0000000E+00
  -1.210000      0.0000000E+00
  -1.200000      0.0000000E+00
  -1.190000      0.0000000E+00
  -1.180000      0.0000000E+00
  -1.170000      0.0000000E+00
  -1.160000      0.0000000E+00
  -1.150000      0.0000000E+00
  -1.140000      0.0000000E+00
  -1.130000      0.0000000E+00
  -1.120000      0.0000000E+00
  -1.110000      0.0000000E+00
  -1.100000      0.0000000E+00
  -1.090000      0.0000000E+00
  -1.080000      0.0000000E+00
  -1.070000      0.0000000E+00
  -1.060000      0.0000000E+00
  -1.050000      0.0000000E+00
  -1.040000      0.0000000E+00
  -1.030000      0.0000000E+00
  -1.020000      0.0000000E+00
  -1.010000      0.0000000E+00
  -1.000000      0.0000000E+00
 -0.9900000      0.0000000E+00
 -0.9800000      0.0000000E+00
 -0.9700000      0.0000000E+00
 -0.9600000      0.0000000E+00
 -0.9500000      0.0000000E+00
 -0.9400000      0.0000000E+00
 -0.9300000      0.0000000E+00
 -0.9200000      0.0000000E+00
 -0.9100000      0.0000000E+00
 -0.9000000      0.0000000E+00
 -0.8900000      0.0000000E+00
 -0.8800000      0.0000000E+00
 -0.8700000      0.0000000E+00
 -0.8600000      0.0000000E+00
 -0.8500000      0.0000000E+00
 -0.8400000      0.0000000E+00
 -0.8300000      0.0000000E+00
 -0.8200000      0.0000000E+00
 -0.8100000      0.0000000E+00
 -0.8000000      0.0000000E+00
 -0.7900000      0.0000000E+00
 -0.7800000      0.0000000E+00
 -0.7700000      0.0000000E+00
 -0.7600000      0.0000000E+00
 -0.7500000      0.0000000E+00
 -0.7400000      0.0000000E+00
 -0.7300000      0.0000000E+00
 -0.7200000      0.0000000E+00
 -0.7100000      0.0000000E+00
 -0.7000000      0.0000000E+00
 -0.6900000      0.0000000E+00
 -0.6800000      0.0000000E+00
 -0.6700000      0.0000000E+00
 -0.6600000      0.0000000E+00
 -0.6500000      0.0000000E+00
 -0.6400000      0.0000000E+00
 -0.6300000      0.0000000E+00
 -0.6200000      0.0000000E+00
 -0.6100000      0.0000000E+00
 -0.6000000      0.0000000E+00
 -0.5900000      0.0000000E+00
 -0.5800000      0.0000000E+00
 -0.5700000      0.0000000E+00
 -0.5600000      0.0000000E+00
 -0.5500000      0.0000000E+00
 -0.5400000      0.0000000E+00
 -0.5300000      0.0000000E+00
 -0.5200000      0.0000000E+00
 -0.5100000      0.0000000E+00
 -0.5000000      0.0000000E+00
 -0.4900000      0.0000000E+00
 -0.4800000      0.0000000E+00
 -0.4700000      0.0000000E+00
 -0.4600000      0.0000000E+00
 -0.4500000      0.0000000E+00
 -0.4400000      0.0000000E+00
 -0.4300000      0.0000000E+00
 -0.4200000      0.0000000E+00
 -0.4100000      0.0000000E+00
 -0.4000000      0.0000000E+00
 -0.3900000      0.0000000E+00
 -0.3800000      0.0000000E+00
 -0.3700000      0.0000000E+00
 -0.3600000      0.0000000E+00
 -0.3500000      0.0000000E+00
 -0.3400000      0.0000000E+00
 -0.3300000      0.0000000E+00
 -0.3200000      0.0000000E+00
 -0.3100000      0.0000000E+00
 -0.3000000      0.0000000E+00
 -0.2900000      0.0000000E+00
 -0.2800000      0.0000000E+00
 -0.2700000      0.0000000E+00
 -0.2600000      0.0000000E+00
 -0.2500000      0.0000000E+00
 -0.2400000      0.0000000E+00
 -0.2300000      0.0000000E+00
 -0.2200000      0.0000000E+00
 -0.2100000      0.0000000E+00
 -0.2000000      0.0000000E+00
 -0.1900000      0.0000000E+00
 -0.1800000      0.0000000E+00
 -0.1700000      0.0000000E+00
 -0.1600000      0.0000000E+00
 -0.1500000      0.0000000E+00
 -0.1400000      0.0000000E+00
 -0.1300000      0.0000000E+00
 -0.1200000      0.0000000E+00
 -0.1100000      0.0000000E+00
 -0.1000000      0.0000000E+00
 -9.0000004E-02  0.0000000E+00
 -7.9999998E-02  0.0000000E+00
 -7.0000000E-02  0.0000000E+00
 -5.9999999E-02  0.0000000E+00
 -5.0000001E-02  0.0000000E+00
 -3.9999999E-02  0.0000000E+00
 -2.9999999E-02  0.0000000E+00
 -2.0000000E-02  0.0000000E+00
 -9.9999998E-03  0.0000000E+00
 -3.4694470E-17  0.0000000E+00
  9.9999998E-03  0.0000000E+00
  2.0000000E-02  0.0000000E+00
  2.9999999E-02  0.0000000E+00
  3.9999999E-02  0.0000000E+00
  5.0000001E-02  0.0000000E+00
  5.9999999E-02  0.0000000E+00
  7.0000000E-02  0.0000000E+00
  7.9999998E-02  0.0000000E+00
  9.0000004E-02  0.0000000E+00
  0.1000000      0.0000000E+00
  0.1100000      0.0000000E+00
  0.1200000      0.0000000E+00
  0.1300000      0.0000000E+00
  0.1400000      0.0000000E+00
  0.1500000      0.0000000E+00
  0.1600000      0.0000000E+00
  0.1700000      0.0000000E+00
  0.1800000      0.0000000E+00
  0.1900000      0.0000000E+00
  0.2000000      0.0000000E+00
  0.2100000      0.0000000E+00
  0.2200000      0.0000000E+00
  0.2300000      0.0000000E+00
  0.2400000      0.0000000E+00
  0.2500000      0.0000000E+00
  0.2600000      0.0000000E+00
  0.2700000      0.0000000E+00
  0.2800000      0.0000000E+00
  0.2900000      0.0000000E+00
  0.3000000      0.0000000E+00
  0.3100000      0.0000000E+00
  0.3200000      0.0000000E+00
  0.3300000      0.0000000E+00
  0.3400000      0.0000000E+00
  0.3500000      0.0000000E+00
  0.3600000      0.0000000E+00
  0.3700000      0.0000000E+00
  0.3800000      0.0000000E+00
  0.3900000      0.0000000E+00
  0.4000000      0.0000000E+00
  0.4100000      0.0000000E+00
  0.4200000      0.0000000E+00
  0.4300000      0.0000000E+00
  0.4400000      0.0000000E+00
  0.4500000      0.0000000E+00
  0.4600000      0.0000000E+00
  0.4700000      0.0000000E+00
  0.4800000      0.0000000E+00
  0.4900000      0.0000000E+00
  0.5000000      0.0000000E+00
  0.5100000      0.0000000E+00
  0.5200000      0.0000000E+00
  0.5300000      0.0000000E+00
  0.5400000      0.0000000E+00
  0.5500000      0.0000000E+00
  0.5600000      0.0000000E+00
  0.5700000      0.0000000E+00
  0.5800000      0.0000000E+00
  0.5900000      0.0000000E+00
  0.6000000      0.0000000E+00
  0.6100000      0.0000000E+00
  0.6200000      0.0000000E+00
  0.6300000      0.0000000E+00
  0.6400000      0.0000000E+00
  0.6500000      0.0000000E+00
  0.6600000      0.0000000E+00
  0.6700000      0.0000000E+00
  0.6800000      0.0000000E+00
  0.6900000      0.0000000E+00
  0.7000000      0.0000000E+00
  0.7100000      0.0000000E+00
  0.7200000      0.0000000E+00
  0.7300000      0.0000000E+00
  0.7400000     -1.1946403E-38
  0.7500000     -2.0603277E-38
  0.7600000     -3.0676015E-38
  0.7700000     -4.2148070E-38
  0.7800000     -5.5242862E-38
  0.7900000     -6.9831069E-38
  0.8000000     -8.2670472E-38
  0.8100000     -9.6448459E-38
  0.8200000     -1.1219923E-37
  0.8300000     -1.2596640E-37
  0.8400000     -1.3836523E-37
  0.8500000     -1.4582112E-37
  0.8600000     -1.4639714E-37
  0.8700000     -1.4577814E-37
  0.8800000     -1.4785401E-37
  0.8900000     -1.4487737E-37
  0.9000000     -1.0048039E-37
  0.9100000     -4.9091476E-38
  0.9200000     -3.9675538E-38
  0.9300000     -4.5400652E-38
  0.9400000     -6.3572040E-38
  0.9500000     -9.8734145E-38
  0.9600000     -1.5030365E-37
  0.9700000     -2.1525693E-37
  0.9800000     -2.7425191E-37
  0.9900000     -2.8268717E-37
   1.000000     -2.5439688E-37
   1.010000     -2.1841205E-37
   1.020000     -1.5411024E-37
   1.030000     -6.4800693E-38
   1.040000      5.8077734E-38
   1.050000      1.6423692E-37
   1.060000      2.9020048E-37
   1.070000      4.7009182E-37
   1.080000      8.6583295E-37
   1.090000      1.5380437E-36
   1.100000      2.2958196E-36
   1.110000      3.0788087E-36
   1.120000      3.8390348E-36
   1.130000      4.4592117E-36
   1.140000      5.1217108E-36
   1.150000      5.9782135E-36
   1.160000      6.8155878E-36
   1.170000      7.4757602E-36
   1.180000      7.9181648E-36
   1.190000      8.2242547E-36
   1.200000      8.3673243E-36
   1.210000      8.3986539E-36
   1.220000      8.4554154E-36
   1.230000      7.6308984E-36
   1.240000      5.5402414E-36
   1.250000      2.7193771E-36
   1.260000     -7.1796439E-37
   1.270000     -4.5338966E-36
   1.280000     -8.5230766E-36
   1.290000     -1.2096019E-35
   1.300000     -1.5322674E-35
   1.310000     -1.8585211E-35
   1.320000     -2.1550103E-35
   1.330000     -2.4648880E-35
   1.340000     -2.8727687E-35
   1.350000     -3.3580375E-35
   1.360000     -3.8418275E-35
   1.370000     -4.3040289E-35
   1.380000     -4.7333108E-35
   1.390000     -5.1749279E-35
   1.400000     -5.6196993E-35
   1.410000     -6.0196033E-35
   1.420000     -6.3639336E-35
   1.430000     -6.6302663E-35
   1.440000     -6.8125063E-35
   1.450000     -6.8895672E-35
   1.460000     -6.9493510E-35
   1.470000     -7.0044069E-35
   1.480000     -6.9207769E-35
   1.490000     -6.6984495E-35
   1.500000     -6.3808686E-35
   1.510000     -5.8324247E-35
   1.520000     -5.0422641E-35
   1.530000     -4.0561885E-35
   1.540000     -2.8220867E-35
   1.550000     -1.3780604E-35
   1.560000      3.7510079E-36
   1.570000      2.5696241E-35
   1.580000      5.1181294E-35
   1.590000      8.0416648E-35
   1.600000      1.1375673E-34
   1.610000      1.4890923E-34
   1.620000      1.8569646E-34
   1.630000      2.2308307E-34
   1.640000      2.5951731E-34
   1.650000      2.9503290E-34
   1.660000      3.2820819E-34
   1.670000      3.6081932E-34
   1.680000      3.9468017E-34
   1.690000      4.3005093E-34
   1.700000      4.6729546E-34
   1.710000      5.0725479E-34
   1.720000      5.4844255E-34
   1.730000      5.8926260E-34
   1.740000      6.3256014E-34
   1.750000      6.7543598E-34
   1.760000      7.1480728E-34
   1.770000      7.4311079E-34
   1.780000      7.5010581E-34
   1.790000      7.4104835E-34
   1.800000      7.2052982E-34
   1.810000      6.7483652E-34
   1.820000      6.0008486E-34
   1.830000      5.0490623E-34
   1.840000      3.9613002E-34
   1.850000      2.8514676E-34
   1.860000      1.7641440E-34
   1.870000      6.8392683E-35
   1.880000     -3.6958446E-35
   1.890000     -1.4357843E-34
   1.900000     -2.6145421E-34
   1.910000     -4.0231285E-34
   1.920000     -5.7205832E-34
   1.930000     -7.7433330E-34
   1.940000     -1.0102322E-33
   1.950000     -1.2736749E-33
   1.960000     -1.5586500E-33
   1.970000     -1.8633571E-33
   1.980000     -2.1791228E-33
   1.990000     -2.4979744E-33
   2.000000     -2.8216662E-33
   2.010000     -3.1317241E-33
   2.020000     -3.4146506E-33
   2.030000     -3.6770448E-33
   2.040000     -3.9129816E-33
   2.050000     -4.1157246E-33
   2.060000     -4.2891526E-33
   2.070000     -4.4343956E-33
   2.080000     -4.5530298E-33
   2.090000     -4.6475237E-33
   2.100000     -4.7158773E-33
   2.110000     -4.7569049E-33
   2.120000     -4.7694497E-33
   2.130000     -4.7428824E-33
   2.140000     -4.6754876E-33
   2.150000     -4.5606264E-33
   2.160000     -4.3827480E-33
   2.170000     -4.1343598E-33
   2.180000     -3.8057324E-33
   2.190000     -3.3887838E-33
   2.200000     -2.8788948E-33
   2.210000     -2.2730384E-33
   2.220000     -1.5723029E-33
   2.230000     -7.8037892E-34
   2.240000      9.9605043E-35
   2.250000      1.0629909E-33
   2.260000      2.1010141E-33
   2.270000      3.2050724E-33
   2.280000      4.3683317E-33
   2.290000      5.5852163E-33
   2.300000      6.8567100E-33
   2.310000      8.1714982E-33
   2.320000      9.5213198E-33
   2.330000      1.0910752E-32
   2.340000      1.2336530E-32
   2.350000      1.3794132E-32
   2.360000      1.5277527E-32
   2.370000      1.6777815E-32
   2.380000      1.8283582E-32
   2.390000      1.9779742E-32
   2.400000      2.1246837E-32
   2.410000      2.2666865E-32
   2.420000      2.4021326E-32
   2.430000      2.5284299E-32
   2.440000      2.6427179E-32
   2.450000      2.7426978E-32
   2.460000      2.8265587E-32
   2.470000      2.8926683E-32
   2.480000      2.9381499E-32
   2.490000      2.9607785E-32
   2.500000      2.9593538E-32
   2.510000      2.9322248E-32
   2.520000      2.8782432E-32
   2.530000      2.7960079E-32
   2.540000      2.6842311E-32
   2.550000      2.5417382E-32
   2.560000      2.3669205E-32
   2.570000      2.1581443E-32
   2.580000      1.9140472E-32
   2.590000      1.6331430E-32
   2.600000      1.3139549E-32
   2.610000      9.5525681E-33
   2.620000      5.5618552E-33
   2.630000      1.1625345E-33
   2.640000     -3.6459930E-33
   2.650000     -8.8580846E-33
   2.660000     -1.4462261E-32
   2.670000     -2.0441975E-32
   2.680000     -2.6774864E-32
   2.690000     -3.3433134E-32
   2.700000     -4.0384652E-32
   2.710000     -4.7593730E-32
   2.720000     -5.5021576E-32
   2.730000     -6.2626460E-32
   2.740000     -7.0364422E-32
   2.750000     -7.8189118E-32
   2.760000     -8.6051729E-32
   2.770000     -9.3900581E-32
   2.780000     -1.0168077E-31
   2.790000     -1.0933327E-31
   2.800000     -1.1679451E-31
   2.810000     -1.2399603E-31
   2.820000     -1.3086412E-31
   2.830000     -1.3731984E-31
   2.840000     -1.4327943E-31
   2.850000     -1.4865500E-31
   2.860000     -1.5335539E-31
   2.870000     -1.5728989E-31
   2.880000     -1.6036146E-31
   2.890000     -1.6247346E-31
   2.900000     -1.6353653E-31
   2.910000     -1.6346147E-31
   2.920000     -1.6216263E-31
   2.930000     -1.5955843E-31
   2.940000     -1.5557188E-31
   2.950000     -1.5013079E-31
   2.960000     -1.4316857E-31
   2.970000     -1.3462323E-31
   2.980000     -1.2443715E-31
   2.990000     -1.1255776E-31
   3.000000     -9.8939761E-32
   3.010000     -8.3544188E-32
   3.020000     -6.6337601E-32
   3.030000     -4.7295651E-32
   3.040000     -2.6404374E-32
   3.050000     -3.6611587E-33
   3.060000      2.0924261E-32
   3.070000      4.7327615E-32
   3.080000      7.5509114E-32
   3.090000      1.0541242E-31
   3.100000      1.3696396E-31
   3.110000      1.7007253E-31
   3.120000      2.0462930E-31
   3.130000      2.4050788E-31
   3.140000      2.7756478E-31
   3.150000      3.1563975E-31
   3.160000      3.5455644E-31
   3.170000      3.9412257E-31
   3.180000      4.3413028E-31
   3.190000      4.7435636E-31
   3.200000      5.1456193E-31
   3.210000      5.5449253E-31
   3.220000      5.9387780E-31
   3.230000      6.3243115E-31
   3.240000      6.6984977E-31
   3.250000      7.0581472E-31
   3.260000      7.3999119E-31
   3.270000      7.7202942E-31
   3.280000      8.0156621E-31
   3.290000      8.2822530E-31
   3.300000      8.5161989E-31
   3.310000      8.7135569E-31
   3.320000      8.8703255E-31
   3.330000      8.9824649E-31
   3.340000      9.0459321E-31
   3.350000      9.0566968E-31
   3.360000      9.0107717E-31
   3.370000      8.9042315E-31
   3.380000      8.7332347E-31
   3.390000      8.4940441E-31
   3.400000      8.1830422E-31
   3.410000      7.7967578E-31
   3.420000      7.3318832E-31
   3.430000      6.7852980E-31
   3.440000      6.1540961E-31
   3.450000      5.4356133E-31
   3.460000      4.6274595E-31
   3.470000      3.7275565E-31
   3.480000      2.7341719E-31
   3.490000      1.6459587E-31
   3.500000      4.6199585E-32
   3.510000     -8.1817451E-32
   3.520000     -2.1945097E-31
   3.530000     -3.6664299E-31
   3.540000     -5.2327865E-31
   3.550000     -6.8918340E-31
   3.560000     -8.6412038E-31
   3.570000     -1.0477881E-30
   3.580000     -1.2398183E-30
   3.590000     -1.4397743E-30
   3.600000     -1.6471484E-30
   3.610000     -1.8613611E-30
   3.620000     -2.0817582E-30
   3.630000     -2.3076094E-30
   3.640000     -2.5381065E-30
   3.650000     -2.7723607E-30
   3.660000     -3.0094015E-30
   3.670000     -3.2481749E-30
   3.680000     -3.4875413E-30
   3.690000     -3.7262757E-30
   3.700000     -3.9630669E-30
   3.710000     -4.1965167E-30
   3.720000     -4.4251419E-30
   3.730000     -4.6473758E-30
   3.740000     -4.8615697E-30
   3.750000     -5.0659951E-30
   3.760000     -5.2588491E-30
   3.770000     -5.4382559E-30
   3.780000     -5.6022714E-30
   3.790000     -5.7488885E-30
   3.800000     -5.8760405E-30
   3.810000     -5.9816085E-30
   3.820000     -6.0634233E-30
   3.830000     -6.1192738E-30
   3.840000     -6.1469131E-30
   3.850000     -6.1440633E-30
   3.860000     -6.1084242E-30
   3.870000     -6.0376798E-30
   3.880000     -5.9295091E-30
   3.890000     -5.7815928E-30
   3.900000     -5.5916261E-30
   3.910000     -5.3573300E-30
   3.920000     -5.0764606E-30
   3.930000     -4.7468260E-30
   3.940000     -4.3662957E-30
   3.950000     -3.9328182E-30
   3.960000     -3.4444328E-30
   3.970000     -2.8992848E-30
   3.980000     -2.2956427E-30
   3.990000     -1.6319113E-30
   4.000000     -9.0664958E-31
   4.010000     -1.1858480E-31
   4.020000      7.3337066E-31
   4.030000      1.6501022E-30
   4.040000      2.6322747E-30
   4.050000      3.6803178E-30
   4.060000      4.7944059E-30
   4.070000      5.9744386E-30
   4.080000      7.2200202E-30
   4.090000      8.5304433E-30
   4.100000      9.9046665E-30
   4.110000      1.1341297E-29
   4.120000      1.2838566E-29
   4.130000      1.4394312E-29
   4.140000      1.6005960E-29
   4.150000      1.7670501E-29
   4.160000      1.9384477E-29
   4.170000      2.1143956E-29
   4.180000      2.2944521E-29
   4.190000      2.4781249E-29
   4.200000      2.6648695E-29
   4.210000      2.8540885E-29
   4.220000      3.0451288E-29
   4.230000      3.2372806E-29
   4.240000      3.4297770E-29
   4.250000      3.6217913E-29
   4.260000      3.8124370E-29
   4.270000      4.0007662E-29
   4.280000      4.1857686E-29
   4.290000      4.3663712E-29
   4.300000      4.5414379E-29
   4.310000      4.7097684E-29
   4.320000      4.8700984E-29
   4.330000      5.0211010E-29
   4.340000      5.1613851E-29
   4.350000      5.2894980E-29
   4.360000      5.4039247E-29
   4.370000      5.5030914E-29
   4.380000      5.5853648E-29
   4.390000      5.6490553E-29
   4.400000      5.6924212E-29
   4.410000      5.7136690E-29
   4.420000      5.7109565E-29
   4.430000      5.6823979E-29
   4.440000      5.6260681E-29
   4.450000      5.5400055E-29
   4.460000      5.4222180E-29
   4.470000      5.2706871E-29
   4.480000      5.0833771E-29
   4.490000      4.8582377E-29
   4.500000      4.5932135E-29
   4.510000      4.2862507E-29
   4.520000      3.9353062E-29
   4.530000      3.5383564E-29
   4.540000      3.0934079E-29
   4.550000      2.5985044E-29
   4.560000      2.0517416E-29
   4.570000      1.4512765E-29
   4.580000      7.9534038E-30
   4.590000      8.2252236E-31
   4.600000     -6.8956710E-30
   4.610000     -1.5215826E-29
   4.620000     -2.4151301E-29
   4.630000     -3.3713981E-29
   4.640000     -4.3914128E-29
   4.650000     -5.4760201E-29
   4.660000     -6.6258701E-29
   4.670000     -7.8413967E-29
   4.680000     -9.1227991E-29
   4.690000     -1.0470021E-28
   4.700000     -1.1882730E-28
   4.710000     -1.3360302E-28
   4.720000     -1.4901793E-28
   4.730000     -1.6505923E-28
   4.740000     -1.8171048E-28
   4.750000     -1.9895144E-28
   4.760000     -2.1675781E-28
   4.770000     -2.3510096E-28
   4.780000     -2.5394780E-28
   4.790000     -2.7326050E-28
   4.800000     -2.9299620E-28
   4.810000     -3.1310688E-28
   4.820000     -3.3353914E-28
   4.830000     -3.5423386E-28
   4.840000     -3.7512621E-28
   4.850000     -3.9614525E-28
   4.860000     -4.1721382E-28
   4.870000     -4.3824834E-28
   4.880000     -4.5915860E-28
   4.890000     -4.7984766E-28
   4.900000     -5.0021177E-28
   4.910000     -5.2013999E-28
   4.920000     -5.3951446E-28
   4.930000     -5.5820990E-28
   4.940000     -5.7609389E-28
   4.950000     -5.9302662E-28
   4.960000     -6.0886094E-28
   4.970000     -6.2344240E-28
   4.980000     -6.3660935E-28
   4.990000     -6.4819296E-28
   5.000000     -6.5801737E-28
   5.010000     -6.6589981E-28
   5.020000     -6.7165088E-28
   5.030000     -6.7507480E-28
   5.040000     -6.7596968E-28
   5.050000     -6.7412782E-28
   5.060000     -6.6933615E-28
   5.070000     -6.6137672E-28
   5.080000     -6.5002712E-28
   5.090000     -6.3506120E-28
   5.100000     -6.1624958E-28
   5.110000     -5.9336043E-28
   5.120000     -5.6616014E-28
   5.130000     -5.3441431E-28
   5.140000     -4.9788852E-28
   5.150000     -4.5634939E-28
   5.160000     -4.0956557E-28
   5.170000     -3.5730888E-28
   5.180000     -2.9935540E-28
   5.190000     -2.3548699E-28
   5.200000     -1.6549254E-28
   5.210000     -8.9169220E-29
   5.220000     -6.3240603E-30
   5.230000      8.3224428E-29
   5.240000      1.7964452E-28
   5.250000      2.8308970E-28
   5.260000      3.9369689E-28
   5.270000      5.1158458E-28
   5.280000      6.3685063E-28
   5.290000      7.6957069E-28
   5.300000      9.0979573E-28
   5.310000      1.0575501E-27
   5.320000      1.2128296E-27
   5.330000      1.3755989E-27
   5.340000      1.5457895E-27
   5.350000      1.7232971E-27
   5.360000      1.9079803E-27
   5.370000      2.0996573E-27
   5.380000      2.2981040E-27
   5.390000      2.5030508E-27
   5.400000      2.7141821E-27
   5.410000      2.9311315E-27
   5.420000      3.1534821E-27
   5.430000      3.3807624E-27
   5.440000      3.6124448E-27
   5.450000      3.8479433E-27
   5.460000      4.0866111E-27
   5.470000      4.3277406E-27
   5.480000      4.5705584E-27
   5.490000      4.8142263E-27
   5.500000      5.0578387E-27
   5.510000      5.3004204E-27
   5.520000      5.5409270E-27
   5.530000      5.7782428E-27
   5.540000      6.0111802E-27
   5.550000      6.2384788E-27
   5.560000      6.4588056E-27
   5.570000      6.6707542E-27
   5.580000      6.8728451E-27
   5.590000      7.0635276E-27
   5.600000      7.2411792E-27
   5.610000      7.4041075E-27
   5.620000      7.5505513E-27
   5.630000      7.6786827E-27
   5.640000      7.7866103E-27
   5.650000      7.8723804E-27
   5.660000      7.9339817E-27
   5.670000      7.9693479E-27
   5.680000      7.9763614E-27
   5.690000      7.9528588E-27
   5.700000      7.8966379E-27
   5.710000      7.8054613E-27
   5.720000      7.6770603E-27
   5.730000      7.5091485E-27
   5.740000      7.2994232E-27
   5.750000      7.0455756E-27
   5.760000      6.7452985E-27
   5.770000      6.3962988E-27
   5.780000      5.9963016E-27
   5.790000      5.5430652E-27
   5.800000      5.0343913E-27
   5.810000      4.4681328E-27
   5.820000      3.8422102E-27
   5.830000      3.1546230E-27
   5.840000      2.4034622E-27
   5.850000      1.5869254E-27
   5.860000      7.0333074E-28
   5.870000     -2.4886811E-28
   5.880000     -1.2710661E-27
   5.890000     -2.3644913E-27
   5.900000     -3.5301880E-27
   5.910000     -4.7689985E-27
   5.920000     -6.0815487E-27
   5.930000     -7.4682302E-27
   5.940000     -8.9291821E-27
   5.950000     -1.0464269E-26
   5.960000     -1.2073069E-26
   5.970000     -1.3754851E-26
   5.980000     -1.5508560E-26
   5.990000     -1.7332792E-26
   6.000000     -1.9225785E-26
   6.010000     -2.1185391E-26
   6.020000     -2.3209063E-26
   6.030000     -2.5293839E-26
   6.040000     -2.7436317E-26
   6.050000     -2.9632645E-26
   6.060000     -3.1878495E-26
   6.070000     -3.4169060E-26
   6.080000     -3.6499032E-26
   6.090000     -3.8862579E-26
   6.100000     -4.1253355E-26
   6.110000     -4.3664468E-26
   6.120000     -4.6088477E-26
   6.130000     -4.8517377E-26
   6.140000     -5.0942600E-26
   6.150000     -5.3355002E-26
   6.160000     -5.5744850E-26
   6.170000     -5.8101837E-26
   6.180000     -6.0415073E-26
   6.190000     -6.2673070E-26
   6.200000     -6.4863774E-26
   6.210000     -6.6974537E-26
   6.220000     -6.8992160E-26
   6.230000     -7.0902874E-26
   6.240000     -7.2692374E-26
   6.250000     -7.4345820E-26
   6.260000     -7.5847867E-26
   6.270000     -7.7182669E-26
   6.280000     -7.8333950E-26
   6.290000     -7.9284964E-26
   6.300000     -8.0018580E-26
   6.310000     -8.0517301E-26
   6.320000     -8.0763290E-26
   6.330000     -8.0738422E-26
   6.340000     -8.0424363E-26
   6.350000     -7.9802574E-26
   6.360000     -7.8854370E-26
   6.370000     -7.7561001E-26
   6.380000     -7.5903691E-26
   6.390000     -7.3863727E-26
   6.400000     -7.1422523E-26
   6.410000     -6.8561670E-26
   6.420000     -6.5263036E-26
   6.430000     -6.1508847E-26
   6.440000     -5.7281773E-26
   6.450000     -5.2565013E-26
   6.460000     -4.7342378E-26
   6.470000     -4.1598407E-26
   6.480000     -3.5318452E-26
   6.490000     -2.8488796E-26
   6.500000     -2.1096760E-26
   6.510000     -1.3130785E-26
   6.520000     -4.5805917E-27
   6.530000      4.5627360E-27
   6.540000      1.4306624E-26
   6.550000      2.4656900E-26
   6.560000      3.5617649E-26
   6.570000      4.7191105E-26
   6.580000      5.9377523E-26
   6.590000      7.2175060E-26
   6.600000      8.5579643E-26
   6.610000      9.9584858E-26
   6.620000      1.1418179E-25
   6.630000      1.2935894E-25
   6.640000      1.4510214E-25
   6.650000      1.6139427E-25
   6.660000      1.7821530E-25
   6.670000      1.9554214E-25
   6.680000      2.1334847E-25
   6.690000      2.3160473E-25
   6.700000      2.5027788E-25
   6.710000      2.6933144E-25
   6.720000      2.8872529E-25
   6.730000      3.0841565E-25
   6.740000      3.2835507E-25
   6.750000      3.4849222E-25
   6.760000      3.6877189E-25
   6.770000      3.8913500E-25
   6.780000      4.0951848E-25
   6.790000      4.2985524E-25
   6.800000      4.5007419E-25
   6.810000      4.7010026E-25
   6.820000      4.8985437E-25
   6.830000      5.0925355E-25
   6.840000      5.2821076E-25
   6.850000      5.4663515E-25
   6.860000      5.6443215E-25
   6.870000      5.8150324E-25
   6.880000      5.9774653E-25
   6.890000      6.1305640E-25
   6.900000      6.2732408E-25
   6.910000      6.4043742E-25
   6.920000      6.5228137E-25
   6.930000      6.6273807E-25
   6.940000      6.7168711E-25
   6.950000      6.7900566E-25
   6.960000      6.8456896E-25
   6.970000      6.8825042E-25
   6.980000      6.8992192E-25
   6.990000      6.8945442E-25
   7.000000      6.8671786E-25
   7.010000      6.8158208E-25
   7.020000      6.7391667E-25
   7.030000      6.6359181E-25
   7.040000      6.5047848E-25
   7.050000      6.3444907E-25
   7.060000      6.1537792E-25