  -2.600000      0.0000000E+00
  -2.590000      0.0000000E+00
  -2.580000      0.0000000E+00
  -2.570000      0.0000000E+00
  -2.560000      0.0000000E+00
  -2.550000      0.0000000E+00
  -2.540000      0.0000000E+00
  -2.530000      0.0000000E+00
  -2.520000      0.0000000E+00
  -2.510000      0.0000000E+00
  -2.500000      0.0000000E+00
  -2.490000      0.0000000E+00
  -2.480000      0.0000000E+00
  -2.470000      0.0000000E+00
  -2.460000      0.0000000E+00
  -2.450000      0.0000000E+00
  -2.440000      0.0000000E+00
  -2.430000      0.0000000E+00
  -2.420000      0.0000000E+00
  -2.410000      0.0000000E+00
  -2.400000      0.0000000E+00
  -2.390000      0.0000000E+00
  -2.380000      0.0000000E+00
  -2.370000      0.0000000E+00
  -2.360000      0.0000000E+00
  -2.350000      0.0000000E+00
  -2.340000      0.0000000E+00
  -2.330000      0.0000000E+00
  -2.320000      0.0000000E+00
  -2.310000      0.0000000E+00
  -2.300000      0.0000000E+00
  -2.290000      0.0000000E+00
  -2.280000      0.0000000E+00
  -2.270000      0.0000000E+00
  -2.260000      0.0000000E+00
  -2.250000      0.0000000E+00
  -2.240000      0.0000000E+00
  -2.230000      0.0000000E+00
  -2.220000      0.0000000E+00
  -2.210000      0.0000000E+00
  -2.200000      0.0000000E+00
  -2.190000      0.0000000E+00
  -2.180000      0.0000000E+00
  -2.170000      0.0000000E+00
  -2.160000      0.0000000E+00
  -2.150000      0.0000000E+00
  -2.140000      0.0000000E+00
  -2.130000      0.0000000E+00
  -2.120000      0.0000000E+00
  -2.110000      0.0000000E+00
  -2.100000      0.0000000E+00
  -2.090000      0.0000000E+00
  -2.080000      0.0000000E+00
  -2.070000      0.0000000E+00
  -2.060000      0.0000000E+00
  -2.050000      0.0000000E+00
  -2.040000      0.0000000E+00
  -2.030000      0.0000000E+00
  -2.020000      0.0000000E+00
  -2.010000      0.0000000E+00
  -2.000000      0.0000000E+00
  -1.990000      0.0000000E+00
  -1.980000      0.0000000E+00
  -1.970000      0.0000000E+00
  -1.960000      0.0000000E+00
  -1.950000      0.0000000E+00
  -1.940000      0.0000000E+00
  -1.930000      0.0000000E+00
  -1.920000      0.0000000E+00
  -1.910000      0.0000000E+00
  -1.900000      0.0000000E+00
  -1.890000      0.0000000E+00
  -1.880000      0.0000000E+00
  -1.870000      0.0000000E+00
  -1.860000      0.0000000E+00
  -1.850000      0.0000000E+00
  -1.840000      0.0000000E+00
  -1.830000      0.0000000E+00
  -1.820000      0.0000000E+00
  -1.810000      0.0000000E+00
  -1.800000      0.0000000E+00
  -1.790000      0.0000000E+00
  -1.780000      0.0000000E+00
  -1.770000      0.0000000E+00
  -1.760000      0.0000000E+00
  -1.750000      0.0000000E+00
  -1.740000      0.0000000E+00
  -1.730000      0.0000000E+00
  -1.720000      0.0000000E+00
  -1.710000      0.0000000E+00
  -1.700000      0.0000000E+00
  -1.690000      0.0000000E+00
  -1.680000      0.0000000E+00
  -1.670000      0.0000000E+00
  -1.660000      0.0000000E+00
  -1.650000      0.0000000E+00
  -1.640000      0.0000000E+00
  -1.630000      0.0000000E+00
  -1.620000      0.0000000E+00
  -1.610000      0.0000000E+00
  -1.600000      0.0000000E+00
  -1.590000      0.0000000E+00
  -1.580000      0.0000000E+00
  -1.570000      0.0000000E+00
  -1.560000      0.0000000E+00
  -1.550000      0.0000000E+00
  -1.540000      0.0000000E+00
  -1.530000      0.0000000E+00
  -1.520000      0.0000000E+00
  -1.510000      0.0000000E+00
  -1.500000      0.0000000E+00
  -1.490000      0.0000000E+00
  -1.480000      0.0000000E+00
  -1.470000      0.0000000E+00
  -1.460000      0.0000000E+00
  -1.450000      0.0000000E+00
  -1.440000      0.0000000E+00
  -1.430000      0.0000000E+00
  -1.420000      0.0000000E+00
  -1.410000      0.0000000E+00
  -1.400000      0.0000000E+00
  -1.390000      0.0000000E+00
  -1.380000      0.0000000E+00
  -1.370000      0.0000000E+00
  -1.360000      0.0000000E+00
  -1.350000      0.0000000E+00
  -1.340000      0.0000000E+00
  -1.330000      0.0000000E+00
  -1.320000      0.0000000E+00
  -1.310000      0.0000000E+00
  -1.300000      0.0000000E+00
  -1.290000      0.0000000E+00
  -1.280000      0.0000000E+00
  -1.270000      0.0000000E+00
  -1.260000      0.0000000E+00
  -1.250000      0.0000000E+00
  -1.240000      0.0000000E+00
  -1.230000      0.0000000E+00
  -1.220000      0.0000000E+00
  -1.210000      0.0000000E+00
  -1.200000      0.0000000E+00
  -1.190000      0.0000000E+00
  -1.180000      0.0000000E+00
  -1.170000      0.0000000E+00
  -1.160000      0.0000000E+00
  -1.150000      0.0000000E+00
  -1.140000      0.0000000E+00
  -1.130000      0.0000000E+00
  -1.120000      0.0000000E+00
  -1.110000      0.0000000E+00
  -1.100000      0.0000000E+00
  -1.090000      0.0000000E+00
  -1.080000      0.0000000E+00
  -1.070000      0.0000000E+00
  -1.060000      0.0000000E+00
  -1.050000      0.0000000E+00
  -1.040000      0.0000000E+00
  -1.030000      0.0000000E+00
  -1.020000      0.0000000E+00
  -1.010000      0.0000000E+00
  -1.000000      0.0000000E+00
 -0.9900000      0.0000000E+00
 -0.9800000      0.0000000E+00
 -0.9700000      0.0000000E+00
 -0.9600000      0.0000000E+00
 -0.9500000      0.0000000E+00
 -0.9400000      0.0000000E+00
 -0.9300000      0.0000000E+00
 -0.9200000      0.0000000E+00
 -0.9100000      0.0000000E+00
 -0.9000000      0.0000000E+00
 -0.8900000      0.0000000E+00
 -0.8800000      0.0000000E+00
 -0.8700000      0.0000000E+00
 -0.8600000      0.0000000E+00
 -0.8500000      0.0000000E+00
 -0.8400000      0.0000000E+00
 -0.8300000      0.0000000E+00
 -0.8200000      0.0000000E+00
 -0.8100000      0.0000000E+00
 -0.8000000      0.0000000E+00
 -0.7900000      0.0000000E+00
 -0.7800000      0.0000000E+00
 -0.7700000      0.0000000E+00
 -0.7600000      0.0000000E+00
 -0.7500000      0.0000000E+00
 -0.7400000      0.0000000E+00
 -0.7300000      0.0000000E+00
 -0.7200000      0.0000000E+00
 -0.7100000      0.0000000E+00
 -0.7000000      0.0000000E+00
 -0.6900000      0.0000000E+00
 -0.6800000      0.0000000E+00
 -0.6700000      0.0000000E+00
 -0.6600000      0.0000000E+00
 -0.6500000      0.0000000E+00
 -0.6400000      0.0000000E+00
 -0.6300000      0.0000000E+00
 -0.6200000      0.0000000E+00
 -0.6100000      0.0000000E+00
 -0.6000000      0.0000000E+00
 -0.5900000      0.0000000E+00
 -0.5800000      0.0000000E+00
 -0.5700000      0.0000000E+00
 -0.5600000      0.0000000E+00
 -0.5500000      0.0000000E+00
 -0.5400000      0.0000000E+00
 -0.5300000      0.0000000E+00
 -0.5200000      0.0000000E+00
 -0.5100000      0.0000000E+00
 -0.5000000      0.0000000E+00
 -0.4900000      0.0000000E+00
 -0.4800000      0.0000000E+00
 -0.4700000      0.0000000E+00
 -0.4600000      0.0000000E+00
 -0.4500000      0.0000000E+00
 -0.4400000      0.0000000E+00
 -0.4300000      0.0000000E+00
 -0.4200000      0.0000000E+00
 -0.4100000      0.0000000E+00
 -0.4000000      0.0000000E+00
 -0.3900000      0.0000000E+00
 -0.3800000      0.0000000E+00
 -0.3700000      0.0000000E+00
 -0.3600000      0.0000000E+00
 -0.3500000      0.0000000E+00
 -0.3400000      0.0000000E+00
 -0.3300000      0.0000000E+00
 -0.3200000      0.0000000E+00
 -0.3100000      0.0000000E+00
 -0.3000000      0.0000000E+00
 -0.2900000      0.0000000E+00
 -0.2800000      0.0000000E+00
 -0.2700000      0.0000000E+00
 -0.2600000      0.0000000E+00
 -0.2500000      0.0000000E+00
 -0.2400000      0.0000000E+00
 -0.2300000      0.0000000E+00
 -0.2200000      0.0000000E+00
 -0.2100000      0.0000000E+00
 -0.2000000      0.0000000E+00
 -0.1900000      0.0000000E+00
 -0.1800000      0.0000000E+00
 -0.1700000      0.0000000E+00
 -0.1600000      0.0000000E+00
 -0.1500000      0.0000000E+00
 -0.1400000      0.0000000E+00
 -0.1300000      0.0000000E+00
 -0.1200000      0.0000000E+00
 -0.1100000      0.0000000E+00
 -0.1000000      0.0000000E+00
 -9.0000004E-02  0.0000000E+00
 -7.9999998E-02  0.0000000E+00
 -7.0000000E-02  0.0000000E+00
 -5.9999999E-02  0.0000000E+00
 -5.0000001E-02  0.0000000E+00
 -3.9999999E-02  0.0000000E+00
 -2.9999999E-02  0.0000000E+00
 -2.0000000E-02  0.0000000E+00
 -9.9999998E-03  0.0000000E+00
 -3.4694470E-17  0.0000000E+00
  9.9999998E-03  0.0000000E+00
  2.0000000E-02  0.0000000E+00
  2.9999999E-02  0.0000000E+00
  3.9999999E-02  0.0000000E+00
  5.0000001E-02  0.0000000E+00
  5.9999999E-02  0.0000000E+00
  7.0000000E-02  0.0000000E+00
  7.9999998E-02  0.0000000E+00
  9.0000004E-02  0.0000000E+00
  0.1000000      0.0000000E+00
  0.1100000      0.0000000E+00
  0.1200000      0.0000000E+00
  0.1300000      0.0000000E+00
  0.1400000      0.0000000E+00
  0.1500000      0.0000000E+00
  0.1600000      0.0000000E+00
  0.1700000      0.0000000E+00
  0.1800000      0.0000000E+00
  0.1900000      0.0000000E+00
  0.2000000      0.0000000E+00
  0.2100000      0.0000000E+00
  0.2200000      0.0000000E+00
  0.2300000      0.0000000E+00
  0.2400000      0.0000000E+00
  0.2500000      0.0000000E+00
  0.2600000      0.0000000E+00
  0.2700000      0.0000000E+00
  0.2800000      0.0000000E+00
  0.2900000      0.0000000E+00
  0.3000000      0.0000000E+00
  0.3100000      0.0000000E+00
  0.3200000      0.0000000E+00
  0.3300000      0.0000000E+00
  0.3400000      0.0000000E+00
  0.3500000      0.0000000E+00
  0.3600000      0.0000000E+00
  0.3700000      0.0000000E+00
  0.3800000      0.0000000E+00
  0.3900000      0.0000000E+00
  0.4000000      0.0000000E+00
  0.4100000      0.0000000E+00
  0.4200000      0.0000000E+00
  0.4300000      0.0000000E+00
  0.4400000      0.0000000E+00
  0.4500000      0.0000000E+00
  0.4600000      0.0000000E+00
  0.4700000      0.0000000E+00
  0.4800000      0.0000000E+00
  0.4900000      0.0000000E+00
  0.5000000      0.0000000E+00
  0.5100000      0.0000000E+00
  0.5200000      0.0000000E+00
  0.5300000      0.0000000E+00
  0.5400000      0.0000000E+00
  0.5500000      0.0000000E+00
  0.5600000      0.0000000E+00
  0.5700000      0.0000000E+00
  0.5800000      0.0000000E+00
  0.5900000      0.0000000E+00
  0.6000000      0.0000000E+00
  0.6100000      0.0000000E+00
  0.6200000      0.0000000E+00
  0.6300000      0.0000000E+00
  0.6400000      0.0000000E+00
  0.6500000      0.0000000E+00
  0.6600000      0.0000000E+00
  0.6700000      0.0000000E+00
  0.6800000      0.0000000E+00
  0.6900000      0.0000000E+00
  0.7000000      0.0000000E+00
  0.7100000      0.0000000E+00
  0.7200000      0.0000000E+00
  0.7300000      0.0000000E+00
  0.7400000      0.0000000E+00
  0.7500000      0.0000000E+00
  0.7600000      0.0000000E+00
  0.7700000      0.0000000E+00
  0.7800000      0.0000000E+00
  0.7900000      0.0000000E+00
  0.8000000      0.0000000E+00
  0.8100000      0.0000000E+00
  0.8200000      0.0000000E+00
  0.8300000      0.0000000E+00
  0.8400000      0.0000000E+00
  0.8500000      0.0000000E+00
  0.8600000      0.0000000E+00
  0.8700000      0.0000000E+00
  0.8800000      0.0000000E+00
  0.8900000      0.0000000E+00
  0.9000000      0.0000000E+00
  0.9100000      0.0000000E+00
  0.9200000      0.0000000E+00
  0.9300000      1.2605868E-38
  0.9400000      0.0000000E+00
  0.9500000      0.0000000E+00
  0.9600000      0.0000000E+00
  0.9700000      0.0000000E+00
  0.9800000      0.0000000E+00
  0.9900000     -1.2295196E-38
   1.000000      0.0000000E+00
   1.010000      0.0000000E+00
   1.020000      1.2139939E-38
   1.030000      2.3487759E-38
   1.040000      3.2218724E-38
   1.050000      3.1425990E-38
   1.060000      1.8319008E-38
   1.070000      0.0000000E+00
   1.080000     -3.4817878E-38
   1.090000     -7.3316322E-38
   1.100000     -1.1126359E-37
   1.110000     -1.5084998E-37
   1.120000     -2.0814123E-37
   1.130000     -2.8106742E-37
   1.140000     -3.6627168E-37
   1.150000     -5.0809526E-37
   1.160000     -7.4279168E-37
   1.170000     -1.0307193E-36
   1.180000     -1.3192613E-36
   1.190000     -1.6180304E-36
   1.200000     -1.8132156E-36
   1.210000     -1.8472080E-36
   1.220000     -1.8213953E-36
   1.230000     -1.8408163E-36
   1.240000     -1.8937597E-36
   1.250000     -1.8614686E-36
   1.260000     -1.6825743E-36
   1.270000     -1.3906154E-36
   1.280000     -9.5977923E-37
   1.290000     -4.7921264E-37
   1.300000      2.3603639E-38
   1.310000      6.5766542E-37
   1.320000      1.3973163E-36
   1.330000      2.2153970E-36
   1.340000      3.1601728E-36
   1.350000      4.0371637E-36
   1.360000      4.6928362E-36
   1.370000      5.3045955E-36
   1.380000      5.8161048E-36
   1.390000      6.1793896E-36
   1.400000      6.4058788E-36
   1.410000      6.5183522E-36
   1.420000      6.5085158E-36
   1.430000      6.3660990E-36
   1.440000      6.1816689E-36
   1.450000      5.8960598E-36
   1.460000      5.4524029E-36
   1.470000      4.8647849E-36
   1.480000      4.1321557E-36
   1.490000      3.3041310E-36
   1.500000      2.4592335E-36
   1.510000      1.6490018E-36
   1.520000      8.5100959E-37
   1.530000      2.4701125E-37
   1.540000     -3.8332741E-37
   1.550000     -1.3137373E-36
   1.560000     -2.4385155E-36
   1.570000     -3.7875631E-36
   1.580000     -5.3518337E-36
   1.590000     -7.2160243E-36
   1.600000     -9.6337968E-36
   1.610000     -1.2709483E-35
   1.620000     -1.6407324E-35
   1.630000     -2.0765017E-35
   1.640000     -2.5597164E-35
   1.650000     -3.1063887E-35
   1.660000     -3.7387680E-35
   1.670000     -4.4445858E-35
   1.680000     -5.1767170E-35
   1.690000     -5.8986266E-35
   1.700000     -6.5728754E-35
   1.710000     -7.2303154E-35
   1.720000     -7.8838552E-35
   1.730000     -8.4597275E-35
   1.740000     -8.9420871E-35
   1.750000     -9.2301217E-35
   1.760000     -9.3319529E-35
   1.770000     -9.1468137E-35
   1.780000     -8.5078935E-35
   1.790000     -7.2191683E-35
   1.800000     -5.3830122E-35
   1.810000     -3.3519259E-35
   1.820000     -1.0910119E-35
   1.830000      1.4409769E-35
   1.840000      3.5190831E-35
   1.850000      5.0899095E-35
   1.860000      6.8776303E-35
   1.870000      8.7076535E-35
   1.880000      1.0442675E-34
   1.890000      1.2262612E-34
   1.900000      1.4383549E-34
   1.910000      1.6828957E-34
   1.920000      1.9356216E-34
   1.930000      2.1715607E-34
   1.940000      2.4002118E-34
   1.950000      2.6240090E-34
   1.960000      2.8350830E-34
   1.970000      3.0554172E-34
   1.980000      3.2688535E-34
   1.990000      3.4698047E-34
   2.000000      3.6994226E-34
   2.010000      3.9250464E-34
   2.020000      4.1443307E-34
   2.030000      4.3572715E-34
   2.040000      4.5320891E-34
   2.050000      4.7191617E-34
   2.060000      4.8939255E-34
   2.070000      4.9971551E-34
   2.080000      5.0679207E-34
   2.090000      5.1249322E-34
   2.100000      5.1153712E-34
   2.110000      5.0229801E-34
   2.120000      4.8562252E-34
   2.130000      4.6129365E-34
   2.140000      4.2838210E-34
   2.150000      3.8686038E-34
   2.160000      3.3576254E-34
   2.170000      2.7316186E-34
   2.180000      2.0012369E-34
   2.190000      1.1227121E-34
   2.200000      1.0284444E-35
   2.210000     -1.0197059E-34
   2.220000     -2.2719280E-34
   2.230000     -3.6472102E-34
   2.240000     -5.1413859E-34
   2.250000     -6.7489250E-34
   2.260000     -8.4768259E-34
   2.270000     -1.0321051E-33
   2.280000     -1.2256694E-33
   2.290000     -1.4276422E-33
   2.300000     -1.6364290E-33
   2.310000     -1.8489382E-33
   2.320000     -2.0646805E-33
   2.330000     -2.2836088E-33
   2.340000     -2.5024379E-33
   2.350000     -2.7179384E-33
   2.360000     -2.9287089E-33
   2.370000     -3.1327446E-33
   2.380000     -3.3272841E-33
   2.390000     -3.5103472E-33
   2.400000     -3.6785310E-33
   2.410000     -3.8303968E-33
   2.420000     -3.9634114E-33
   2.430000     -4.0729854E-33
   2.440000     -4.1567541E-33
   2.450000     -4.2123789E-33
   2.460000     -4.2364140E-33
   2.470000     -4.2264341E-33
   2.480000     -4.1794132E-33
   2.490000     -4.0920336E-33
   2.500000     -3.9609538E-33
   2.510000     -3.7832724E-33
   2.520000     -3.5566679E-33
   2.530000     -3.2778899E-33
   2.540000     -2.9440603E-33
   2.550000     -2.5525136E-33
   2.560000     -2.1007597E-33
   2.570000     -1.5870408E-33
   2.580000     -1.0100868E-33
   2.590000     -3.6797682E-34
   2.600000      3.4063590E-34
   2.610000      1.1160522E-33
   2.620000      1.9581001E-33
   2.630000      2.8655479E-33
   2.640000      3.8376581E-33
   2.650000      4.8729079E-33
   2.660000      5.9679969E-33
   2.670000      7.1193286E-33
   2.680000      8.3224258E-33
   2.690000      9.5720946E-33
   2.700000      1.0861545E-32
   2.710000      1.2183521E-32
   2.720000      1.3531223E-32
   2.730000      1.4894407E-32
   2.740000      1.6262008E-32
   2.750000      1.7624094E-32
   2.760000      1.8968908E-32
   2.770000      2.0283747E-32
   2.780000      2.1555279E-32
   2.790000      2.2769418E-32
   2.800000      2.3911404E-32
   2.810000      2.4966192E-32
   2.820000      2.5918169E-32
   2.830000      2.6751451E-32
   2.840000      2.7449321E-32
   2.850000      2.7994877E-32
   2.860000      2.8371679E-32
   2.870000      2.8562832E-32
   2.880000      2.8551559E-32
   2.890000      2.8321221E-32
   2.900000      2.7855023E-32
   2.910000      2.7137486E-32
   2.920000      2.6153674E-32
   2.930000      2.4888425E-32
   2.940000      2.3327865E-32
   2.950000      2.1459074E-32
   2.960000      1.9270377E-32
   2.970000      1.6751453E-32
   2.980000      1.3893404E-32
   2.990000      1.0689065E-32
   3.000000      7.1331929E-33
   3.010000      3.2225939E-33
   3.020000     -1.0436976E-33
   3.030000     -5.6641500E-33
   3.040000     -1.0634754E-32
   3.050000     -1.5948431E-32
   3.060000     -2.1595085E-32
   3.070000     -2.7561781E-32
   3.080000     -3.3832097E-32
   3.090000     -4.0386119E-32
   3.100000     -4.7200286E-32
   3.110000     -5.4247319E-32
   3.120000     -6.1496075E-32
   3.130000     -6.8911440E-32
   3.140000     -7.6454311E-32
   3.150000     -8.4081548E-32
   3.160000     -9.1745976E-32
   3.170000     -9.9396440E-32
   3.180000     -1.0697799E-31
   3.190000     -1.1443153E-31
   3.200000     -1.2169425E-31
   3.210000     -1.2870014E-31
   3.220000     -1.3537964E-31
   3.230000     -1.4166007E-31
   3.240000     -1.4746585E-31
   3.250000     -1.5271882E-31
   3.260000     -1.5733847E-31
   3.270000     -1.6124282E-31
   3.280000     -1.6434737E-31
   3.290000     -1.6656643E-31
   3.300000     -1.6781444E-31
   3.310000     -1.6800504E-31
   3.320000     -1.6705219E-31
   3.330000     -1.6487055E-31
   3.340000     -1.6137598E-31
   3.350000     -1.5648625E-31
   3.360000     -1.5012164E-31
   3.370000     -1.4220559E-31
   3.380000     -1.3266539E-31
   3.390000     -1.2143285E-31
   3.400000     -1.0844502E-31
   3.410000     -9.3645005E-32
   3.420000     -7.6982678E-32
   3.430000     -5.8415439E-32
   3.440000     -3.7909032E-32
   3.450000     -1.5438395E-32
   3.460000      9.0116328E-33
   3.470000      3.5445416E-32
   3.480000      6.3855733E-32
   3.490000      9.4222984E-32
   3.500000      1.2651439E-31
   3.510000      1.6068313E-31
   3.520000      1.9666763E-31
   3.530000      2.3439085E-31
   3.540000      2.7375940E-31
   3.550000      3.1466303E-31
   3.560000      3.5697387E-31
   3.570000      4.0054599E-31
   3.580000      4.4521468E-31
   3.590000      4.9079612E-31
   3.600000      5.3708694E-31
   3.610000      5.8386395E-31
   3.620000      6.3088373E-31
   3.630000      6.7788277E-31
   3.640000      7.2457707E-31
   3.650000      7.7066232E-31
   3.660000      8.1581405E-31
   3.670000      8.5968773E-31
   3.680000      9.0191948E-31
   3.690000      9.4212590E-31
   3.700000      9.7990507E-31
   3.710000      1.0148373E-30
   3.720000      1.0464856E-30
   3.730000      1.0743971E-30
   3.740000      1.0981036E-30
   3.750000      1.1171230E-30
   3.760000      1.1309612E-30
   3.770000      1.1391130E-30
   3.780000      1.1410641E-30
   3.790000      1.1362930E-30
   3.800000      1.1242729E-30
   3.810000      1.1044740E-30
   3.820000      1.0763657E-30
   3.830000      1.0394194E-30
   3.840000      9.9311095E-31
   3.850000      9.3692373E-31
   3.860000      8.7035144E-31
   3.870000      7.9290141E-31
   3.880000      7.0409761E-31
   3.890000      6.0348502E-31
   3.900000      4.9063211E-31
   3.910000      3.6513582E-31
   3.920000      2.2662480E-31
   3.930000      7.4763845E-32
   3.940000     -9.0741716E-32
   3.950000     -2.7014193E-31
   3.960000     -4.6363782E-31
   3.970000     -6.7137617E-31
   3.980000     -8.9344501E-31
   3.990000     -1.1298691E-30
   4.000000     -1.3806040E-30
   4.010000     -1.6455326E-30
   4.020000     -1.9244590E-30
   4.030000     -2.2171031E-30
   4.040000     -2.5230967E-30
   4.050000     -2.8419773E-30
   4.060000     -3.1731844E-30
   4.070000     -3.5160529E-30
   4.080000     -3.8698090E-30
   4.090000     -4.2335653E-30
   4.100000     -4.6063155E-30
   4.110000     -4.9869315E-30
   4.120000     -5.3741563E-30
   4.130000     -5.7666018E-30
   4.140000     -6.1627449E-30
   4.150000     -6.5609218E-30
   4.160000     -6.9593275E-30
   4.170000     -7.3560104E-30
   4.180000     -7.7488708E-30
   4.190000     -8.1356577E-30
   4.200000     -8.5139675E-30
   4.210000     -8.8812439E-30
   4.220000     -9.2347747E-30
   4.230000     -9.5716935E-30
   4.240000     -9.8889800E-30
   4.250000     -1.0183461E-29
   4.260000     -1.0451807E-29
   4.270000     -1.0690545E-29
   4.280000     -1.0896055E-29
   4.290000     -1.1064573E-29
   4.300000     -1.1192200E-29
   4.310000     -1.1274907E-29
   4.320000     -1.1308538E-29
   4.330000     -1.1288823E-29
   4.340000     -1.1211384E-29
   4.350000     -1.1071747E-29
   4.360000     -1.0865353E-29
   4.370000     -1.0587569E-29
   4.380000     -1.0233701E-29
   4.390000     -9.7990142E-30
   4.400000     -9.2787445E-30
   4.410000     -8.6681179E-30
   4.420000     -7.9623707E-30
   4.430000     -7.1567692E-30
   4.440000     -6.2466353E-30
   4.450000     -5.2273643E-30
   4.460000     -4.0944556E-30
   4.470000     -2.8435413E-30
   4.480000     -1.4704075E-30
   4.490000      2.8968345E-32
   4.500000      1.6583861E-30
   4.510000      3.4213965E-30
   4.520000      5.3212587E-30
   4.530000      7.3609012E-30
   4.540000      9.5428933E-30
   4.550000      1.1869397E-29
   4.560000      1.4342126E-29
   4.570000      1.6962311E-29
   4.580000      1.9730644E-29
   4.590000      2.2647239E-29
   4.600000      2.5711577E-29
   4.610000      2.8922475E-29
   4.620000      3.2278029E-29
   4.630000      3.5775548E-29
   4.640000      3.9411526E-29
   4.650000      4.3181576E-29
   4.660000      4.7080387E-29
   4.670000      5.1101656E-29
   4.680000      5.5238054E-29
   4.690000      5.9481155E-29
   4.700000      6.3821406E-29
   4.710000      6.8248042E-29
   4.720000      7.2749061E-29
   4.730000      7.7311143E-29
   4.740000      8.1919653E-29
   4.750000      8.6558532E-29
   4.760000      9.1210273E-29
   4.770000      9.5855887E-29
   4.780000      1.0047485E-28
   4.790000      1.0504507E-28
   4.800000      1.0954284E-28
   4.810000      1.1394282E-28
   4.820000      1.1821797E-28
   4.830000      1.2233960E-28
   4.840000      1.2627726E-28
   4.850000      1.2999880E-28
   4.860000      1.3347033E-28
   4.870000      1.3665619E-28
   4.880000      1.3951905E-28
   4.890000      1.4201980E-28
   4.900000      1.4411766E-28
   4.910000      1.4577021E-28
   4.920000      1.4693337E-28
   4.930000      1.4756149E-28
   4.940000      1.4760741E-28
   4.950000      1.4702254E-28
   4.960000      1.4575693E-28
   4.970000      1.4375933E-28
   4.980000      1.4097737E-28
   4.990000      1.3735764E-28
   5.000000      1.3284581E-28
   5.010000      1.2738682E-28
   5.020000      1.2092504E-28
   5.030000      1.1340438E-28
   5.040000      1.0476861E-28
   5.050000      9.4961491E-29
   5.060000      8.3927014E-29
   5.070000      7.1609650E-29
   5.080000      5.7954657E-29
   5.090000      4.2908323E-29
   5.100000      2.6418273E-29
   5.110000      8.4337909E-30
   5.120000     -1.1093836E-29
   5.130000     -3.2210877E-29
   5.140000     -5.4960895E-29
   5.150000     -7.9384359E-29
   5.160000     -1.0551811E-28
   5.170000     -1.3339495E-28
   5.180000     -1.6304320E-28
   5.190000     -1.9448636E-28
   5.200000     -2.2774249E-28
   5.210000     -2.6282362E-28
   5.220000     -2.9973544E-28
   5.230000     -3.3847651E-28
   5.240000     -3.7903791E-28
   5.250000     -4.2140272E-28
   5.260000     -4.6554522E-28
   5.270000     -5.1143055E-28
   5.280000     -5.5901383E-28
   5.290000     -6.0823988E-28
   5.300000     -6.5904239E-28
   5.310000     -7.1134348E-28
   5.320000     -7.6505294E-28
   5.330000     -8.2006781E-28
   5.340000     -8.7627174E-28
   5.350000     -9.3353397E-28
   5.360000     -9.9170967E-28
   5.370000     -1.0506383E-27
   5.380000     -1.1101441E-27
   5.390000     -1.1700349E-27
   5.400000     -1.2301017E-27
   5.410000     -1.2901184E-27
   5.420000     -1.3498413E-27
   5.430000     -1.4090088E-27
   5.440000     -1.4673409E-27
   5.450000     -1.5245390E-27
   5.460000     -1.5802854E-27
   5.470000     -1.6342434E-27
   5.480000     -1.6860569E-27
   5.490000     -1.7353509E-27
   5.500000     -1.7817309E-27
   5.510000     -1.8247830E-27
   5.520000     -1.8640745E-27
   5.530000     -1.8991535E-27
   5.540000     -1.9295505E-27
   5.550000     -1.9547771E-27
   5.560000     -1.9743276E-27
   5.570000     -1.9876801E-27
   5.580000     -1.9942962E-27
   5.590000     -1.9936225E-27
   5.600000     -1.9850914E-27
   5.610000     -1.9681230E-27
   5.620000     -1.9421251E-27
   5.630000     -1.9064954E-27
   5.640000     -1.8606232E-27
   5.650000     -1.8038907E-27
   5.660000     -1.7356756E-27
   5.670000     -1.6553522E-27
   5.680000     -1.5622942E-27
   5.690000     -1.4558770E-27
   5.700000     -1.3354800E-27
   5.710000     -1.2004898E-27
   5.720000     -1.0503029E-27
   5.730000     -8.8432800E-28
   5.740000     -7.0199054E-28
   5.750000     -5.0273512E-28
   5.760000     -2.8602910E-28
   5.770000     -5.1366706E-29
   5.780000      2.0172701E-28
   5.790000      4.7369167E-28
   5.800000      7.6492887E-28
   5.810000      1.0757973E-27
   5.820000      1.4066069E-27
   5.830000      1.7576152E-27
   5.840000      2.1290233E-27
   5.850000      2.5209685E-27
   5.860000      2.9335218E-27
   5.870000      3.3666819E-27
   5.880000      3.8203694E-27
   5.890000      4.2944220E-27
   5.900000      4.7885898E-27
   5.910000      5.3025281E-27
   5.920000      5.8357931E-27
   5.930000      6.3878362E-27
   5.940000      6.9579997E-27
   5.950000      7.5455093E-27
   5.960000      8.1494693E-27
   5.970000      8.7688600E-27
   5.980000      9.4025287E-27
   5.990000      1.0049185E-26
   6.000000      1.0707399E-26
   6.010000      1.1375594E-26
   6.020000      1.2052042E-26
   6.030000      1.2734863E-26
   6.040000      1.3422014E-26
   6.050000      1.4111290E-26
   6.060000      1.4800326E-26
   6.070000      1.5486580E-26
   6.080000      1.6167342E-26
   6.090000      1.6839731E-26
   6.100000      1.7500687E-26
   6.110000      1.8146978E-26
   6.120000      1.8775192E-26
   6.130000      1.9381742E-26
   6.140000      1.9962869E-26
   6.150000      2.0514634E-26
   6.160000      2.1032927E-26
   6.170000      2.1513473E-26
   6.180000      2.1951825E-26
   6.190000      2.2343387E-26
   6.200000      2.2683395E-26
   6.210000      2.2966944E-26
   6.220000      2.3188990E-26
   6.230000      2.3344351E-26
   6.240000      2.3427722E-26
   6.250000      2.3433693E-26
   6.260000      2.3356743E-26
   6.270000      2.3191269E-26
   6.280000      2.2931595E-26
   6.290000      2.2571982E-26
   6.300000      2.2106653E-26
   6.310000      2.1529803E-26
   6.320000      2.0835622E-26
   6.330000      2.0018319E-26
   6.340000      1.9072131E-26
   6.350000      1.7991357E-26
   6.360000      1.6770383E-26
   6.370000      1.5403699E-26
   6.380000      1.3885926E-26
   6.390000      1.2211851E-26
   6.400000      1.0376451E-26
   6.410000      8.3749249E-27
   6.420000      6.2027243E-27
   6.430000      3.8555877E-27
   6.440000      1.3295775E-27
   6.450000     -1.3788957E-27
   6.460000     -4.2730280E-27
   6.470000     -7.3555948E-27
   6.480000     -1.0628900E-26
   6.490000     -1.4094744E-26
   6.500000     -1.7754385E-26
   6.510000     -2.1608496E-26
   6.520000     -2.5657125E-26
   6.530000     -2.9899668E-26
   6.540000     -3.4334813E-26
   6.550000     -3.8960487E-26
   6.560000     -4.3773842E-26
   6.570000     -4.8771196E-26
   6.580000     -5.3947985E-26
   6.590000     -5.9298761E-26
   6.600000     -6.4817095E-26
   6.610000     -7.0495581E-26
   6.620000     -7.6325775E-26
   6.630000     -8.2298173E-26
   6.640000     -8.8402144E-26
   6.650000     -9.4625949E-26
   6.660000     -1.0095666E-25
   6.670000     -1.0738014E-25
   6.680000     -1.1388102E-25
   6.690000     -1.2044268E-25
   6.700000     -1.2704721E-25
   6.710000     -1.3367535E-25
   6.720000     -1.4030659E-25
   6.730000     -1.4691903E-25
   6.740000     -1.5348944E-25
   6.750000     -1.5999322E-25
   6.760000     -1.6640439E-25
   6.770000     -1.7269564E-25
   6.780000     -1.7883829E-25
   6.790000     -1.8480232E-25
   6.800000     -1.9055633E-25
   6.810000     -1.9606766E-25
   6.820000     -2.0130233E-25
   6.830000     -2.0622515E-25
   6.840000     -2.1079968E-25
   6.850000     -2.1498829E-25
   6.860000     -2.1875226E-25
   6.870000     -2.2205185E-25
   6.880000     -2.2484621E-25
   6.890000     -2.2709368E-25
   6.900000     -2.2875167E-25
   6.910000     -2.2977687E-25
   6.920000     -2.3012530E-25
   6.930000     -2.2975239E-25
   6.940000     -2.2861315E-25
   6.950000     -2.2666225E-25
   6.960000     -2.2385417E-25
   6.970000     -2.2014327E-25
   6.980000     -2.1548409E-25
   6.990000     -2.0983126E-25
   7.000000     -2.0313986E-25
   7.010000     -1.9536554E-25
   7.020000     -1.8646468E-25
   7.030000     -1.7639454E-25
   7.040000     -1.6511351E-25
   7.050000     -1.5258127E-25
   7.060000     -1.3875903E-25