  -2.600000      0.0000000E+00
  -2.590000      0.0000000E+00
  -2.580000      0.0000000E+00
  -2.570000      0.0000000E+00
  -2.560000      0.0000000E+00
  -2.550000      0.0000000E+00
  -2.540000      0.0000000E+00
  -2.530000      0.0000000E+00
  -2.520000      0.0000000E+00
  -2.510000      0.0000000E+00
  -2.500000      0.0000000E+00
  -2.490000      0.0000000E+00
  -2.480000      0.0000000E+00
  -2.470000      0.0000000E+00
  -2.460000      0.0000000E+00
  -2.450000      0.0000000E+00
  -2.440000      0.0000000E+00
  -2.430000      0.0000000E+00
  -2.420000      0.0000000E+00
  -2.410000      0.0000000E+00
  -2.400000      0.0000000E+00
  -2.390000      0.0000000E+00
  -2.380000      0.0000000E+00
  -2.370000      0.0000000E+00
  -2.360000      0.0000000E+00
  -2.350000      0.0000000E+00
  -2.340000      0.0000000E+00
  -2.330000      0.0000000E+00
  -2.320000      0.0000000E+00
  -2.310000      0.0000000E+00
  -2.300000      0.0000000E+00
  -2.290000      0.0000000E+00
  -2.280000      0.0000000E+00
  -2.270000      0.0000000E+00
  -2.260000      0.0000000E+00
  -2.250000      0.0000000E+00
  -2.240000      0.0000000E+00
  -2.230000      0.0000000E+00
  -2.220000      0.0000000E+00
  -2.210000      0.0000000E+00
  -2.200000      0.0000000E+00
  -2.190000      0.0000000E+00
  -2.180000      0.0000000E+00
  -2.170000      0.0000000E+00
  -2.160000      0.0000000E+00
  -2.150000      0.0000000E+00
  -2.140000      0.0000000E+00
  -2.130000      0.0000000E+00
  -2.120000      0.0000000E+00
  -2.110000      0.0000000E+00
  -2.100000      0.0000000E+00
  -2.090000      0.0000000E+00
  -2.080000      0.0000000E+00
  -2.070000      0.0000000E+00
  -2.060000      0.0000000E+00
  -2.050000      0.0000000E+00
  -2.040000      0.0000000E+00
  -2.030000      0.0000000E+00
  -2.020000      0.0000000E+00
  -2.010000      0.0000000E+00
  -2.000000      0.0000000E+00
  -1.990000      0.0000000E+00
  -1.980000      0.0000000E+00
  -1.970000      0.0000000E+00
  -1.960000      0.0000000E+00
  -1.950000      0.0000000E+00
  -1.940000      0.0000000E+00
  -1.930000      0.0000000E+00
  -1.920000      0.0000000E+00
  -1.910000      0.0000000E+00
  -1.900000      0.0000000E+00
  -1.890000      0.0000000E+00
  -1.880000      0.0000000E+00
  -1.870000      0.0000000E+00
  -1.860000      0.0000000E+00
  -1.850000      0.0000000E+00
  -1.840000      0.0000000E+00
  -1.830000      0.0000000E+00
  -1.820000      0.0000000E+00
  -1.810000      0.0000000E+00
  -1.800000      0.0000000E+00
  -1.790000      0.0000000E+00
  -1.780000      0.0000000E+00
  -1.770000      0.0000000E+00
  -1.760000      0.0000000E+00
  -1.750000      0.0000000E+00
  -1.740000      0.0000000E+00
  -1.730000      0.0000000E+00
  -1.720000      0.0000000E+00
  -1.710000      0.0000000E+00
  -1.700000      0.0000000E+00
  -1.690000      0.0000000E+00
  -1.680000      0.0000000E+00
  -1.670000      0.0000000E+00
  -1.660000      0.0000000E+00
  -1.650000      0.0000000E+00
  -1.640000      0.0000000E+00
  -1.630000      0.0000000E+00
  -1.620000      0.0000000E+00
  -1.610000      0.0000000E+00
  -1.600000      0.0000000E+00
  -1.590000      0.0000000E+00
  -1.580000      0.0000000E+00
  -1.570000      0.0000000E+00
  -1.560000      0.0000000E+00
  -1.550000      0.0000000E+00
  -1.540000      0.0000000E+00
  -1.530000      0.0000000E+00
  -1.520000      0.0000000E+00
  -1.510000      0.0000000E+00
  -1.500000      0.0000000E+00
  -1.490000      0.0000000E+00
  -1.480000      0.0000000E+00
  -1.470000      0.0000000E+00
  -1.460000      0.0000000E+00
  -1.450000      0.0000000E+00
  -1.440000      0.0000000E+00
  -1.430000      0.0000000E+00
  -1.420000      0.0000000E+00
  -1.410000      0.0000000E+00
  -1.400000      0.0000000E+00
  -1.390000      0.0000000E+00
  -1.380000      0.0000000E+00
  -1.370000      0.0000000E+00
  -1.360000      0.0000000E+00
  -1.350000      0.0000000E+00
  -1.340000      0.0000000E+00
  -1.330000      0.0000000E+00
  -1.320000      0.0000000E+00
  -1.310000      0.0000000E+00
  -1.300000      0.0000000E+00
  -1.290000      0.0000000E+00
  -1.280000      0.0000000E+00
  -1.270000      0.0000000E+00
  -1.260000      0.0000000E+00
  -1.250000      0.0000000E+00
  -1.240000      0.0000000E+00
  -1.230000      0.0000000E+00
  -1.220000      0.0000000E+00
  -1.210000      0.0000000E+00
  -1.200000      0.0000000E+00
  -1.190000      0.0000000E+00
  -1.180000      0.0000000E+00
  -1.170000      0.0000000E+00
  -1.160000      0.0000000E+00
  -1.150000      0.0000000E+00
  -1.140000      0.0000000E+00
  -1.130000      0.0000000E+00
  -1.120000      0.0000000E+00
  -1.110000      0.0000000E+00
  -1.100000      0.0000000E+00
  -1.090000      0.0000000E+00
  -1.080000      0.0000000E+00
  -1.070000      0.0000000E+00
  -1.060000      0.0000000E+00
  -1.050000      0.0000000E+00
  -1.040000      0.0000000E+00
  -1.030000      0.0000000E+00
  -1.020000      0.0000000E+00
  -1.010000      0.0000000E+00
  -1.000000      0.0000000E+00
 -0.9900000      0.0000000E+00
 -0.9800000      0.0000000E+00
 -0.9700000      0.0000000E+00
 -0.9600000      0.0000000E+00
 -0.9500000      0.0000000E+00
 -0.9400000      0.0000000E+00
 -0.9300000      0.0000000E+00
 -0.9200000      0.0000000E+00
 -0.9100000      0.0000000E+00
 -0.9000000      0.0000000E+00
 -0.8900000      0.0000000E+00
 -0.8800000      0.0000000E+00
 -0.8700000      0.0000000E+00
 -0.8600000      0.0000000E+00
 -0.8500000      0.0000000E+00
 -0.8400000      0.0000000E+00
 -0.8300000      0.0000000E+00
 -0.8200000      0.0000000E+00
 -0.8100000      0.0000000E+00
 -0.8000000      0.0000000E+00
 -0.7900000      0.0000000E+00
 -0.7800000      0.0000000E+00
 -0.7700000      0.0000000E+00
 -0.7600000      0.0000000E+00
 -0.7500000      0.0000000E+00
 -0.7400000      0.0000000E+00
 -0.7300000      0.0000000E+00
 -0.7200000      0.0000000E+00
 -0.7100000      0.0000000E+00
 -0.7000000      0.0000000E+00
 -0.6900000      0.0000000E+00
 -0.6800000      0.0000000E+00
 -0.6700000      0.0000000E+00
 -0.6600000      0.0000000E+00
 -0.6500000      0.0000000E+00
 -0.6400000      0.0000000E+00
 -0.6300000      0.0000000E+00
 -0.6200000      0.0000000E+00
 -0.6100000      0.0000000E+00
 -0.6000000      0.0000000E+00
 -0.5900000      0.0000000E+00
 -0.5800000      0.0000000E+00
 -0.5700000      0.0000000E+00
 -0.5600000      0.0000000E+00
 -0.5500000      0.0000000E+00
 -0.5400000      0.0000000E+00
 -0.5300000      0.0000000E+00
 -0.5200000      0.0000000E+00
 -0.5100000      0.0000000E+00
 -0.5000000      0.0000000E+00
 -0.4900000      0.0000000E+00
 -0.4800000      0.0000000E+00
 -0.4700000      0.0000000E+00
 -0.4600000      0.0000000E+00
 -0.4500000      0.0000000E+00
 -0.4400000      0.0000000E+00
 -0.4300000      0.0000000E+00
 -0.4200000      0.0000000E+00
 -0.4100000      0.0000000E+00
 -0.4000000      0.0000000E+00
 -0.3900000      0.0000000E+00
 -0.3800000      0.0000000E+00
 -0.3700000      0.0000000E+00
 -0.3600000      0.0000000E+00
 -0.3500000      0.0000000E+00
 -0.3400000      0.0000000E+00
 -0.3300000      0.0000000E+00
 -0.3200000      0.0000000E+00
 -0.3100000      0.0000000E+00
 -0.3000000      0.0000000E+00
 -0.2900000      0.0000000E+00
 -0.2800000      0.0000000E+00
 -0.2700000      0.0000000E+00
 -0.2600000      0.0000000E+00
 -0.2500000      0.0000000E+00
 -0.2400000      0.0000000E+00
 -0.2300000      0.0000000E+00
 -0.2200000      0.0000000E+00
 -0.2100000      0.0000000E+00
 -0.2000000      0.0000000E+00
 -0.1900000      0.0000000E+00
 -0.1800000      0.0000000E+00
 -0.1700000      0.0000000E+00
 -0.1600000      0.0000000E+00
 -0.1500000      0.0000000E+00
 -0.1400000      0.0000000E+00
 -0.1300000      0.0000000E+00
 -0.1200000      0.0000000E+00
 -0.1100000      0.0000000E+00
 -0.1000000      0.0000000E+00
 -9.0000004E-02  0.0000000E+00
 -7.9999998E-02  0.0000000E+00
 -7.0000000E-02  0.0000000E+00
 -5.9999999E-02  0.0000000E+00
 -5.0000001E-02  0.0000000E+00
 -3.9999999E-02  0.0000000E+00
 -2.9999999E-02  0.0000000E+00
 -2.0000000E-02  0.0000000E+00
 -9.9999998E-03  0.0000000E+00
 -3.4694470E-17  0.0000000E+00
  9.9999998E-03  0.0000000E+00
  2.0000000E-02  0.0000000E+00
  2.9999999E-02  0.0000000E+00
  3.9999999E-02  0.0000000E+00
  5.0000001E-02  0.0000000E+00
  5.9999999E-02  0.0000000E+00
  7.0000000E-02  0.0000000E+00
  7.9999998E-02  0.0000000E+00
  9.0000004E-02  0.0000000E+00
  0.1000000      0.0000000E+00
  0.1100000      0.0000000E+00
  0.1200000      0.0000000E+00
  0.1300000      0.0000000E+00
  0.1400000      0.0000000E+00
  0.1500000      0.0000000E+00
  0.1600000      0.0000000E+00
  0.1700000      0.0000000E+00
  0.1800000      0.0000000E+00
  0.1900000      0.0000000E+00
  0.2000000      0.0000000E+00
  0.2100000      0.0000000E+00
  0.2200000      0.0000000E+00
  0.2300000      0.0000000E+00
  0.2400000      0.0000000E+00
  0.2500000      0.0000000E+00
  0.2600000      0.0000000E+00
  0.2700000      0.0000000E+00
  0.2800000      0.0000000E+00
  0.2900000      0.0000000E+00
  0.3000000      0.0000000E+00
  0.3100000     -1.1789392E-38
  0.3200000     -1.2268693E-38
  0.3300000      0.0000000E+00
  0.3400000      0.0000000E+00
  0.3500000      0.0000000E+00
  0.3600000      0.0000000E+00
  0.3700000      0.0000000E+00
  0.3800000      0.0000000E+00
  0.3900000      0.0000000E+00
  0.4000000      0.0000000E+00
  0.4100000      0.0000000E+00
  0.4200000      0.0000000E+00
  0.4300000      2.4688883E-38
  0.4400000      4.7349909E-38
  0.4500000      7.5574784E-38
  0.4600000      1.1075022E-37
  0.4700000      1.5448385E-37
  0.4800000      2.0778776E-37
  0.4900000      2.6840345E-37
  0.5000000      3.4444403E-37
  0.5100000      4.3842306E-37
  0.5200000      5.4630789E-37
  0.5300000      6.6826448E-37
  0.5400000      7.9610120E-37
  0.5500000      9.1655556E-37
  0.5600000      1.0168705E-36
  0.5700000      1.0940644E-36
  0.5800000      1.1247291E-36
  0.5900000      1.0951794E-36
  0.6000000      1.0159465E-36
  0.6100000      8.7814859E-37
  0.6200000      6.7888364E-37
  0.6300000      4.1937903E-37
  0.6400000      9.7889890E-38
  0.6500000     -2.7731432E-37
  0.6600000     -6.9659269E-37
  0.6700000     -1.1748014E-36
  0.6800000     -1.7155455E-36
  0.6900000     -2.3283753E-36
  0.7000000     -3.0262982E-36
  0.7100000     -3.7799756E-36
  0.7200000     -4.5839756E-36
  0.7300000     -5.5805999E-36
  0.7400000     -7.0615707E-36
  0.7500000     -8.7981232E-36
  0.7600000     -1.0498906E-35
  0.7700000     -1.2317681E-35
  0.7800000     -1.4246773E-35
  0.7900000     -1.6227240E-35
  0.8000000     -1.8295983E-35
  0.8100000     -2.0082014E-35
  0.8200000     -2.1487009E-35
  0.8300000     -2.2756229E-35
  0.8400000     -2.3818210E-35
  0.8500000     -2.4528159E-35
  0.8600000     -2.4823975E-35
  0.8700000     -2.4732599E-35
  0.8800000     -2.4155740E-35
  0.8900000     -2.2746493E-35
  0.9000000     -2.0058573E-35
  0.9100000     -1.6434913E-35
  0.9200000     -1.2606063E-35
  0.9300000     -8.6358147E-36
  0.9400000     -4.4900006E-36
  0.9500000      1.3392940E-37
  0.9600000      5.7230647E-36
  0.9700000      1.2048892E-35
  0.9800000      1.8584065E-35
  0.9900000      2.5305119E-35
   1.000000      3.2379962E-35
   1.010000      3.9411014E-35
   1.020000      4.6770159E-35
   1.030000      5.4992897E-35
   1.040000      6.3820739E-35
   1.050000      7.3557007E-35
   1.060000      8.4029617E-35
   1.070000      9.4630928E-35
   1.080000      1.0523529E-34
   1.090000      1.1540567E-34
   1.100000      1.2494644E-34
   1.110000      1.3429921E-34
   1.120000      1.4331580E-34
   1.130000      1.5338264E-34
   1.140000      1.6476245E-34
   1.150000      1.7578624E-34
   1.160000      1.8612364E-34
   1.170000      1.9532294E-34
   1.180000      2.0259631E-34
   1.190000      2.0727832E-34
   1.200000      2.0978513E-34
   1.210000      2.1038155E-34
   1.220000      2.0849183E-34
   1.230000      2.0375564E-34
   1.240000      1.9615640E-34
   1.250000      1.8591961E-34
   1.260000      1.7298543E-34
   1.270000      1.5743637E-34
   1.280000      1.3967162E-34
   1.290000      1.1943132E-34
   1.300000      9.5847158E-35
   1.310000      6.9058491E-35
   1.320000      3.9265357E-35
   1.330000      6.7738070E-36
   1.340000     -2.7839228E-35
   1.350000     -6.4587841E-35
   1.360000     -1.0273493E-34
   1.370000     -1.4124090E-34
   1.380000     -1.8183731E-34
   1.390000     -2.2363211E-34
   1.400000     -2.6723925E-34
   1.410000     -3.1368106E-34
   1.420000     -3.5996091E-34
   1.430000     -4.0475503E-34
   1.440000     -4.4427106E-34
   1.450000     -4.7828872E-34
   1.460000     -5.0644590E-34
   1.470000     -5.2701260E-34
   1.480000     -5.4580067E-34
   1.490000     -5.6323523E-34
   1.500000     -5.7255253E-34
   1.510000     -5.7524322E-34
   1.520000     -5.7855486E-34
   1.530000     -5.8118750E-34
   1.540000     -5.7686986E-34
   1.550000     -5.6481994E-34
   1.560000     -5.4802451E-34
   1.570000     -5.2699781E-34
   1.580000     -4.9949932E-34
   1.590000     -4.6414799E-34
   1.600000     -4.2068293E-34
   1.610000     -3.7000030E-34
   1.620000     -3.1290594E-34
   1.630000     -2.4987949E-34
   1.640000     -1.7831672E-34
   1.650000     -9.6851539E-35
   1.660000     -6.0382413E-36
   1.670000      9.2384971E-35
   1.680000      1.9722486E-34
   1.690000      3.0786948E-34
   1.700000      4.2349103E-34
   1.710000      5.4498797E-34
   1.720000      6.6617193E-34
   1.730000      7.8348636E-34
   1.740000      8.9601478E-34
   1.750000      1.0017625E-33
   1.760000      1.0986467E-33
   1.770000      1.1831185E-33
   1.780000      1.2526528E-33
   1.790000      1.3047346E-33
   1.800000      1.3334741E-33
   1.810000      1.3361905E-33
   1.820000      1.3107468E-33
   1.830000      1.2478583E-33
   1.840000      1.1454767E-33
   1.850000      1.0032804E-33
   1.860000      8.1728118E-34
   1.870000      5.8173172E-34
   1.880000      2.9602483E-34
   1.890000     -3.9186292E-35
   1.900000     -4.2699603E-34
   1.910000     -8.6774809E-34
   1.920000     -1.3636994E-33
   1.930000     -1.9120137E-33
   1.940000     -2.5124394E-33
   1.950000     -3.1663311E-33
   1.960000     -3.8690882E-33
   1.970000     -4.6176709E-33
   1.980000     -5.4084932E-33
   1.990000     -6.2356331E-33
   2.000000     -7.0944287E-33
   2.010000     -7.9797817E-33
   2.020000     -8.8831476E-33
   2.030000     -9.7966331E-33
   2.040000     -1.0711559E-32
   2.050000     -1.1617940E-32
   2.060000     -1.2505579E-32
   2.070000     -1.3363324E-32
   2.080000     -1.4178792E-32
   2.090000     -1.4939399E-32
   2.100000     -1.5631132E-32
   2.110000     -1.6238767E-32
   2.120000     -1.6746680E-32
   2.130000     -1.7137936E-32
   2.140000     -1.7395136E-32
   2.150000     -1.7500450E-32
   2.160000     -1.7434349E-32
   2.170000     -1.7177306E-32
   2.180000     -1.6709654E-32
   2.190000     -1.6011096E-32
   2.200000     -1.5061759E-32
   2.210000     -1.3842247E-32
   2.220000     -1.2333451E-32
   2.230000     -1.0517262E-32
   2.240000     -8.3774639E-33
   2.250000     -5.8995038E-33
   2.260000     -3.0709632E-33
   2.270000      1.1760708E-34
   2.280000      3.6724831E-33
   2.290000      7.5963288E-33
   2.300000      1.1887499E-32
   2.310000      1.6539889E-32
   2.320000      2.1542331E-32
   2.330000      2.6878613E-32
   2.340000      3.2526005E-32
   2.350000      3.8455663E-32
   2.360000      4.4632939E-32
   2.370000      5.1016725E-32
   2.380000      5.7559221E-32
   2.390000      6.4205372E-32
   2.400000      7.0893371E-32
   2.410000      7.7554515E-32
   2.420000      8.4113374E-32
   2.430000      9.0487774E-32
   2.440000      9.6588896E-32
   2.450000      1.0232154E-31
   2.460000      1.0758432E-31
   2.470000      1.1227114E-31
   2.480000      1.1626741E-31
   2.490000      1.1945314E-31
   2.500000      1.2170609E-31
   2.510000      1.2289798E-31
   2.520000      1.2289638E-31
   2.530000      1.2156523E-31
   2.540000      1.1876558E-31
   2.550000      1.1435605E-31
   2.560000      1.0819400E-31
   2.570000      1.0013686E-31
   2.580000      9.0043102E-32
   2.590000      7.7773686E-32
   2.600000      6.3193859E-32
   2.610000      4.6175017E-32
   2.620000      2.6596809E-32
   2.630000      4.3495238E-33
   2.640000     -2.0663454E-32
   2.650000     -4.8522835E-32
   2.660000     -7.9290562E-32
   2.670000     -1.1300687E-31
   2.680000     -1.4968713E-31
   2.690000     -1.8931871E-31
   2.700000     -2.3185775E-31
   2.710000     -2.7722621E-31
   2.720000     -3.2530859E-31
   2.730000     -3.7594933E-31
   2.740000     -4.2895002E-31
   2.750000     -4.8406674E-31
   2.760000     -5.4100825E-31
   2.770000     -5.9943309E-31
   2.780000     -6.5895011E-31
   2.790000     -7.1911586E-31
   2.800000     -7.7943227E-31
   2.810000     -8.3934820E-31
   2.820000     -8.9825852E-31
   2.830000     -9.5550434E-31
   2.840000     -1.0103733E-30
   2.850000     -1.0621008E-30
   2.860000     -1.1098707E-30
   2.870000     -1.1528171E-30
   2.880000     -1.1900258E-30
   2.890000     -1.2205372E-30
   2.900000     -1.2433481E-30
   2.910000     -1.2574150E-30
   2.920000     -1.2616576E-30
   2.930000     -1.2549625E-30
   2.940000     -1.2361880E-30
   2.950000     -1.2041694E-30
   2.960000     -1.1577245E-30
   2.970000     -1.0956614E-30
   2.980000     -1.0167847E-30
   2.990000     -9.1990661E-31
   3.000000     -8.0385466E-31
   3.010000     -6.6748401E-31
   3.020000     -5.0968918E-31
   3.030000     -3.2941769E-31
   3.040000     -1.2568451E-31
   3.050000      1.0241224E-31
   3.060000      3.5567511E-31
   3.070000      6.3478905E-31
   3.080000      9.4030323E-31
   3.090000      1.2726129E-30
   3.100000      1.6319392E-30
   3.110000      2.0183101E-30
   3.120000      2.4315409E-30
   3.130000      2.8712157E-30
   3.140000      3.3366672E-30
   3.150000      3.8269605E-30
   3.160000      4.3408746E-30
   3.170000      4.8768876E-30
   3.180000      5.4331605E-30
   3.190000      6.0075254E-30
   3.200000      6.5974724E-30
   3.210000      7.2001387E-30
   3.220000      7.8123031E-30
   3.230000      8.4303739E-30
   3.240000      9.0503887E-30
   3.250000      9.6680073E-30
   3.260000      1.0278510E-29
   3.270000      1.0876798E-29
   3.280000      1.1457396E-29
   3.290000      1.2014457E-29
   3.300000      1.2541763E-29
   3.310000      1.3032738E-29
   3.320000      1.3480455E-29
   3.330000      1.3877654E-29
   3.340000      1.4216756E-29
   3.350000      1.4489877E-29
   3.360000      1.4688866E-29
   3.370000      1.4805320E-29
   3.380000      1.4830622E-29
   3.390000      1.4755980E-29
   3.400000      1.4572475E-29
   3.410000      1.4271097E-29
   3.420000      1.3842819E-29
   3.430000      1.3278643E-29
   3.440000      1.2569680E-29
   3.450000      1.1707219E-29
   3.460000      1.0682809E-29
   3.470000      9.4883489E-30
   3.480000      8.1161787E-30
   3.490000      6.5591750E-30
   3.500000      4.8108564E-30
   3.510000      2.8654885E-30
   3.520000      7.1819023E-31
   3.530000     -1.6349509E-30
   3.540000     -4.1967702E-30
   3.550000     -6.9689158E-30
   3.560000     -9.9517344E-30
   3.570000     -1.3144159E-29
   3.580000     -1.6543601E-29
   3.590000     -2.0145856E-29
   3.600000     -2.3944991E-29
   3.610000     -2.7933249E-29
   3.620000     -3.2100955E-29
   3.630000     -3.6436437E-29
   3.640000     -4.0925921E-29
   3.650000     -4.5553485E-29
   3.660000     -5.0300960E-29
   3.670000     -5.5147872E-29
   3.680000     -6.0071392E-29
   3.690000     -6.5046268E-29
   3.700000     -7.0044802E-29
   3.710000     -7.5036776E-29
   3.720000     -7.9989486E-29
   3.730000     -8.4867668E-29
   3.740000     -8.9633538E-29
   3.750000     -9.4246790E-29
   3.760000     -9.8664609E-29
   3.770000     -1.0284175E-28
   3.780000     -1.0673058E-28
   3.790000     -1.1028120E-28
   3.800000     -1.1344151E-28
   3.810000     -1.1615738E-28
   3.820000     -1.1837287E-28
   3.830000     -1.2003031E-28
   3.840000     -1.2107066E-28
   3.850000     -1.2143370E-28
   3.860000     -1.2105833E-28
   3.870000     -1.1988295E-28
   3.880000     -1.1784574E-28
   3.890000     -1.1488516E-28
   3.900000     -1.1094029E-28
   3.910000     -1.0595132E-28
   3.920000     -9.9860039E-29
   3.930000     -9.2610370E-29
   3.940000     -8.4148845E-29
   3.950000     -7.4425203E-29
   3.960000     -6.3392965E-29
   3.970000     -5.1010006E-29
   3.980000     -3.7239183E-29
   3.990000     -2.2048934E-29
   4.000000     -5.4139106E-30
   4.010000      1.2684409E-29
   4.020000      3.2257030E-29
   4.030000      5.3306810E-29
   4.040000      7.5827834E-29
   4.050000      9.9804687E-29
   4.060000      1.2521194E-28
   4.070000      1.5201334E-28
   4.080000      1.8016122E-28
   4.090000      2.0959583E-28
   4.100000      2.4024476E-28
   4.110000      2.7202225E-28
   4.120000      3.0482854E-28
   4.130000      3.3854931E-28
   4.140000      3.7305518E-28
   4.150000      4.0820104E-28
   4.160000      4.4382564E-28
   4.170000      4.7975098E-28
   4.180000      5.1578214E-28
   4.190000      5.5170690E-28
   4.200000      5.8729539E-28
   4.210000      6.2229989E-28
   4.220000      6.5645505E-28
   4.230000      6.8947762E-28
   4.240000      7.2106668E-28
   4.250000      7.5090410E-28
   4.260000      7.7865487E-28
   4.270000      8.0396751E-28
   4.280000      8.2647509E-28
   4.290000      8.4579563E-28
   4.300000      8.6153366E-28
   4.310000      8.7328077E-28
   4.320000      8.8061779E-28
   4.330000      8.8311534E-28
   4.340000      8.8033613E-28
   4.350000      8.7183623E-28
   4.360000      8.5716777E-28
   4.370000      8.3588017E-28
   4.380000      8.0752326E-28
   4.390000      7.7164911E-28
   4.400000      7.2781470E-28
   4.410000      6.7558488E-28
   4.420000      6.1453516E-28
   4.430000      5.4425461E-28
   4.440000      4.6434937E-28
   4.450000      3.7444558E-28
   4.460000      2.7419339E-28
   4.470000      1.6327036E-28
   4.480000      4.1385391E-29
   4.490000     -9.1717105E-29
   4.500000     -2.3625306E-28
   4.510000     -3.9239446E-28
   4.520000     -5.6026477E-28
   4.530000     -7.3993444E-28
   4.540000     -9.3141564E-28
   4.550000     -1.1346575E-27
   4.560000     -1.3495420E-27
   4.570000     -1.5758777E-27
   4.580000     -1.8133952E-27
   4.590000     -2.0617415E-27
   4.600000     -2.3204761E-27
   4.610000     -2.5890650E-27
   4.620000     -2.8668756E-27
   4.630000     -3.1531728E-27
   4.640000     -3.4471138E-27
   4.650000     -3.7477426E-27
   4.660000     -4.0539885E-27
   4.670000     -4.3646603E-27
   4.680000     -4.6784428E-27
   4.690000     -4.9938936E-27
   4.700000     -5.3094414E-27
   4.710000     -5.6233834E-27
   4.720000     -5.9338814E-27
   4.730000     -6.2389622E-27
   4.740000     -6.5365176E-27
   4.750000     -6.8243009E-27
   4.760000     -7.0999315E-27
   4.770000     -7.3608896E-27
   4.780000     -7.6045244E-27
   4.790000     -7.8280517E-27
   4.800000     -8.0285594E-27
   4.810000     -8.2030079E-27
   4.820000     -8.3482376E-27
   4.830000     -8.4609739E-27
   4.840000     -8.5378308E-27
   4.850000     -8.5753209E-27
   4.860000     -8.5698629E-27
   4.870000     -8.5177888E-27
   4.880000     -8.4153578E-27
   4.890000     -8.2587643E-27
   4.900000     -8.0441541E-27
   4.910000     -7.7676352E-27
   4.920000     -7.4252950E-27
   4.930000     -7.0132177E-27
   4.940000     -6.5275027E-27
   4.950000     -5.9642823E-27
   4.960000     -5.3197448E-27
   4.970000     -4.5901567E-27
   4.980000     -3.7718872E-27
   4.990000     -2.8614321E-27
   5.000000     -1.8554421E-27
   5.010000     -7.5075123E-28
   5.020000      4.5559322E-28
   5.030000      1.7663023E-27
   5.040000      3.1838114E-27
   5.050000      4.7102484E-27
   5.060000      6.3473963E-27
   5.070000      8.0966603E-27
   5.080000      9.9590315E-27
   5.090000      1.1935049E-26
   5.100000      1.4024765E-26
   5.110000      1.6227705E-26
   5.120000      1.8542829E-26
   5.130000      2.0968485E-26
   5.140000      2.3502377E-26
   5.150000      2.6141525E-26
   5.160000      2.8882228E-26
   5.170000      3.1720008E-26
   5.180000      3.4649591E-26
   5.190000      3.7664851E-26
   5.200000      4.0758770E-26
   5.210000      4.3923405E-26
   5.220000      4.7149856E-26
   5.230000      5.0428214E-26
   5.240000      5.3747528E-26
   5.250000      5.7095786E-26
   5.260000      6.0459871E-26
   5.270000      6.3825522E-26
   5.280000      6.7177318E-26
   5.290000      7.0498663E-26
   5.300000      7.3771733E-26
   5.310000      7.6977479E-26
   5.320000      8.0095612E-26
   5.330000      8.3104610E-26
   5.340000      8.5981672E-26
   5.350000      8.8702743E-26
   5.360000      9.1242530E-26
   5.370000      9.3574502E-26
   5.380000      9.5670918E-26
   5.390000      9.7502820E-26
   5.400000      9.9040106E-26
   5.410000      1.0025154E-25
   5.420000      1.0110484E-25
   5.430000      1.0156667E-25
   5.440000      1.0160276E-25
   5.450000      1.0117799E-25
   5.460000      1.0025637E-25
   5.470000      9.8801254E-26
   5.480000      9.6775379E-26
   5.490000      9.4140984E-26
   5.500000      9.0859939E-26
   5.510000      8.6893855E-26
   5.520000      8.2204249E-26
   5.530000      7.6752696E-26
   5.540000      7.0500986E-26
   5.550000      6.3411302E-26
   5.560000      5.5446395E-26
   5.570000      4.6569821E-26
   5.580000      3.6746142E-26
   5.590000      2.5941112E-26
   5.600000      1.4121981E-26
   5.610000      1.2577011E-27
   5.620000     -1.2680782E-26
   5.630000     -2.7720289E-26
   5.640000     -4.3885072E-26
   5.650000     -6.1196538E-26
   5.660000     -7.9672942E-26
   5.670000     -9.9329026E-26
   5.680000     -1.2017571E-25
   5.690000     -1.4221976E-25
   5.700000     -1.6546344E-25
   5.710000     -1.8990408E-25
   5.720000     -2.1553376E-25
   5.730000     -2.4233896E-25
   5.740000     -2.7030013E-25
   5.750000     -2.9939128E-25
   5.760000     -3.2957968E-25
   5.770000     -3.6082540E-25
   5.780000     -3.9308096E-25
   5.790000     -4.2629087E-25
   5.800000     -4.6039145E-25
   5.810000     -4.9531013E-25
   5.820000     -5.3096531E-25
   5.830000     -5.6726603E-25
   5.840000     -6.0411151E-25
   5.850000     -6.4139071E-25
   5.860000     -6.7898224E-25
   5.870000     -7.1675394E-25
   5.880000     -7.5456256E-25
   5.890000     -7.9225355E-25
   5.900000     -8.2966079E-25
   5.910000     -8.6660650E-25
   5.920000     -9.0290071E-25
   5.930000     -9.3834157E-25
   5.940000     -9.7271500E-25
   5.950000     -1.0057946E-24
   5.960000     -1.0373418E-24
   5.970000     -1.0671058E-24
   5.980000     -1.0948234E-24
   5.990000     -1.1202198E-24
   6.000000     -1.1430079E-24
   6.010000     -1.1628895E-24
   6.020000     -1.1795549E-24
   6.030000     -1.1926836E-24
   6.040000     -1.2019448E-24
   6.050000     -1.2069978E-24
   6.060000     -1.2074932E-24
   6.070000     -1.2030726E-24
   6.080000     -1.1933703E-24
   6.090000     -1.1780139E-24
   6.100000     -1.1566251E-24
   6.110000     -1.1288211E-24
   6.120000     -1.0942159E-24
   6.130000     -1.0524211E-24
   6.140000     -1.0030479E-24
   6.150000     -9.4570834E-25
   6.160000     -8.8001674E-25
   6.170000     -8.0559171E-25
   6.180000     -7.2205799E-25
   6.190000     -6.2904819E-25
   6.200000     -5.2620493E-25
   6.210000     -4.1318325E-25
   6.220000     -2.8965284E-25
   6.230000     -1.5530036E-25
   6.240000     -9.8318832E-27
   6.250000      1.4702448E-25
   6.260000      3.1551540E-25
   6.270000      4.9586017E-25
   6.280000      6.8824712E-25
   6.290000      8.9283129E-25
   6.300000      1.1097303E-24
   6.310000      1.3390218E-24
   6.320000      1.5807404E-24
   6.330000      1.8348741E-24
   6.340000      2.1013604E-24
   6.350000      2.3800835E-24
   6.360000      2.6708702E-24
   6.370000      2.9734867E-24
   6.380000      3.2876350E-24
   6.390000      3.6129494E-24
   6.400000      3.9489919E-24
   6.410000      4.2952506E-24
   6.420000      4.6511342E-24
   6.430000      5.0159701E-24
   6.440000      5.3889995E-24
   6.450000      5.7693764E-24
   6.460000      6.1561620E-24
   6.470000      6.5483221E-24
   6.480000      6.9447259E-24
   6.490000      7.3441420E-24
   6.500000      7.7452352E-24
   6.510000      8.1465666E-24
   6.520000      8.5465885E-24
   6.530000      8.9436458E-24
   6.540000      9.3359708E-24
   6.550000      9.7216875E-24
   6.560000      1.0098803E-23
   6.570000      1.0465217E-23
   6.580000      1.0818711E-23
   6.590000      1.1156958E-23
   6.600000      1.1477521E-23
   6.610000      1.1777850E-23
   6.620000      1.2055286E-23
   6.630000      1.2307068E-23
   6.640000      1.2530332E-23
   6.650000      1.2722114E-23
   6.660000      1.2879357E-23
   6.670000      1.2998914E-23
   6.680000      1.3077556E-23
   6.690000      1.3111977E-23
   6.700000      1.3098799E-23
   6.710000      1.3034586E-23
   6.720000      1.2915846E-23
   6.730000      1.2739047E-23
   6.740000      1.2500621E-23
   6.750000      1.2196982E-23
   6.760000      1.1824533E-23
   6.770000      1.1379682E-23
   6.780000      1.0858857E-23
   6.790000      1.0258516E-23
   6.800000      9.5751700E-24
   6.810000      8.8053940E-24
   6.820000      7.9458480E-24
   6.830000      6.9932945E-24
   6.840000      5.9446199E-24
   6.850000      4.7968510E-24
   6.860000      3.5471793E-24
   6.870000      2.1929840E-24
   6.880000      7.3185343E-25
   6.890000     -8.3839328E-25
   6.900000     -2.5196791E-24
   6.910000     -4.3136409E-24
   6.920000     -6.2216083E-24
   6.930000     -8.2445770E-24
   6.940000     -1.0383177E-23
   6.950000     -1.2637649E-23
   6.960000     -1.5007818E-23
   6.970000     -1.7493060E-23
   6.980000     -2.0092273E-23
   6.990000     -2.2803856E-23
   7.000000     -2.5625675E-23
   7.010000     -2.8555032E-23
   7.020000     -3.1588638E-23
   7.030000     -3.4722590E-23
   7.040000     -3.7952332E-23
   7.050000     -4.1272638E-23
   7.060000     -4.4677585E-23