  -2.600000      0.0000000E+00
  -2.590000      0.0000000E+00
  -2.580000      0.0000000E+00
  -2.570000      0.0000000E+00
  -2.560000      0.0000000E+00
  -2.550000      0.0000000E+00
  -2.540000      0.0000000E+00
  -2.530000      0.0000000E+00
  -2.520000      0.0000000E+00
  -2.510000      0.0000000E+00
  -2.500000      0.0000000E+00
  -2.490000      0.0000000E+00
  -2.480000      0.0000000E+00
  -2.470000      0.0000000E+00
  -2.460000      0.0000000E+00
  -2.450000      0.0000000E+00
  -2.440000      0.0000000E+00
  -2.430000      0.0000000E+00
  -2.420000      0.0000000E+00
  -2.410000      0.0000000E+00
  -2.400000      0.0000000E+00
  -2.390000      0.0000000E+00
  -2.380000      0.0000000E+00
  -2.370000      0.0000000E+00
  -2.360000      0.0000000E+00
  -2.350000      0.0000000E+00
  -2.340000      0.0000000E+00
  -2.330000      0.0000000E+00
  -2.320000      0.0000000E+00
  -2.310000      0.0000000E+00
  -2.300000      0.0000000E+00
  -2.290000      0.0000000E+00
  -2.280000      0.0000000E+00
  -2.270000      0.0000000E+00
  -2.260000      0.0000000E+00
  -2.250000      0.0000000E+00
  -2.240000      0.0000000E+00
  -2.230000      0.0000000E+00
  -2.220000      0.0000000E+00
  -2.210000      0.0000000E+00
  -2.200000      0.0000000E+00
  -2.190000      0.0000000E+00
  -2.180000      0.0000000E+00
  -2.170000      0.0000000E+00
  -2.160000      0.0000000E+00
  -2.150000      0.0000000E+00
  -2.140000      0.0000000E+00
  -2.130000      0.0000000E+00
  -2.120000      0.0000000E+00
  -2.110000      0.0000000E+00
  -2.100000      0.0000000E+00
  -2.090000      0.0000000E+00
  -2.080000      0.0000000E+00
  -2.070000      0.0000000E+00
  -2.060000      0.0000000E+00
  -2.050000      0.0000000E+00
  -2.040000      0.0000000E+00
  -2.030000      0.0000000E+00
  -2.020000      0.0000000E+00
  -2.010000      0.0000000E+00
  -2.000000      0.0000000E+00
  -1.990000      0.0000000E+00
  -1.980000      0.0000000E+00
  -1.970000      0.0000000E+00
  -1.960000      0.0000000E+00
  -1.950000      0.0000000E+00
  -1.940000      0.0000000E+00
  -1.930000      0.0000000E+00
  -1.920000      0.0000000E+00
  -1.910000      0.0000000E+00
  -1.900000      0.0000000E+00
  -1.890000      0.0000000E+00
  -1.880000      0.0000000E+00
  -1.870000      0.0000000E+00
  -1.860000      0.0000000E+00
  -1.850000      0.0000000E+00
  -1.840000      0.0000000E+00
  -1.830000      0.0000000E+00
  -1.820000      0.0000000E+00
  -1.810000      0.0000000E+00
  -1.800000      0.0000000E+00
  -1.790000      0.0000000E+00
  -1.780000      0.0000000E+00
  -1.770000      0.0000000E+00
  -1.760000      0.0000000E+00
  -1.750000      0.0000000E+00
  -1.740000      0.0000000E+00
  -1.730000      0.0000000E+00
  -1.720000      0.0000000E+00
  -1.710000      0.0000000E+00
  -1.700000      0.0000000E+00
  -1.690000      0.0000000E+00
  -1.680000      0.0000000E+00
  -1.670000      0.0000000E+00
  -1.660000      0.0000000E+00
  -1.650000      0.0000000E+00
  -1.640000      0.0000000E+00
  -1.630000      0.0000000E+00
  -1.620000      0.0000000E+00
  -1.610000      0.0000000E+00
  -1.600000      0.0000000E+00
  -1.590000      0.0000000E+00
  -1.580000      0.0000000E+00
  -1.570000      0.0000000E+00
  -1.560000      0.0000000E+00
  -1.550000      0.0000000E+00
  -1.540000      0.0000000E+00
  -1.530000      0.0000000E+00
  -1.520000      0.0000000E+00
  -1.510000      0.0000000E+00
  -1.500000      0.0000000E+00
  -1.490000      0.0000000E+00
  -1.480000      0.0000000E+00
  -1.470000      0.0000000E+00
  -1.460000      0.0000000E+00
  -1.450000      0.0000000E+00
  -1.440000      0.0000000E+00
  -1.430000      0.0000000E+00
  -1.420000      0.0000000E+00
  -1.410000      0.0000000E+00
  -1.400000      0.0000000E+00
  -1.390000      0.0000000E+00
  -1.380000      0.0000000E+00
  -1.370000      0.0000000E+00
  -1.360000      0.0000000E+00
  -1.350000      0.0000000E+00
  -1.340000      0.0000000E+00
  -1.330000      0.0000000E+00
  -1.320000      0.0000000E+00
  -1.310000      0.0000000E+00
  -1.300000      0.0000000E+00
  -1.290000      0.0000000E+00
  -1.280000      0.0000000E+00
  -1.270000      0.0000000E+00
  -1.260000      0.0000000E+00
  -1.250000      0.0000000E+00
  -1.240000      0.0000000E+00
  -1.230000      0.0000000E+00
  -1.220000      0.0000000E+00
  -1.210000      0.0000000E+00
  -1.200000      0.0000000E+00
  -1.190000      0.0000000E+00
  -1.180000      0.0000000E+00
  -1.170000      0.0000000E+00
  -1.160000      0.0000000E+00
  -1.150000      0.0000000E+00
  -1.140000      0.0000000E+00
  -1.130000      0.0000000E+00
  -1.120000      0.0000000E+00
  -1.110000      0.0000000E+00
  -1.100000      0.0000000E+00
  -1.090000      0.0000000E+00
  -1.080000      0.0000000E+00
  -1.070000      0.0000000E+00
  -1.060000      0.0000000E+00
  -1.050000      0.0000000E+00
  -1.040000      0.0000000E+00
  -1.030000      0.0000000E+00
  -1.020000      0.0000000E+00
  -1.010000      0.0000000E+00
  -1.000000      0.0000000E+00
 -0.9900000      0.0000000E+00
 -0.9800000      0.0000000E+00
 -0.9700000      0.0000000E+00
 -0.9600000      0.0000000E+00
 -0.9500000      0.0000000E+00
 -0.9400000      0.0000000E+00
 -0.9300000      0.0000000E+00
 -0.9200000      0.0000000E+00
 -0.9100000      0.0000000E+00
 -0.9000000      0.0000000E+00
 -0.8900000      0.0000000E+00
 -0.8800000      0.0000000E+00
 -0.8700000      0.0000000E+00
 -0.8600000      0.0000000E+00
 -0.8500000      0.0000000E+00
 -0.8400000      0.0000000E+00
 -0.8300000      0.0000000E+00
 -0.8200000      0.0000000E+00
 -0.8100000      0.0000000E+00
 -0.8000000      0.0000000E+00
 -0.7900000      0.0000000E+00
 -0.7800000      0.0000000E+00
 -0.7700000      0.0000000E+00
 -0.7600000      0.0000000E+00
 -0.7500000      0.0000000E+00
 -0.7400000      0.0000000E+00
 -0.7300000      0.0000000E+00
 -0.7200000      0.0000000E+00
 -0.7100000      0.0000000E+00
 -0.7000000      0.0000000E+00
 -0.6900000      0.0000000E+00
 -0.6800000      0.0000000E+00
 -0.6700000      0.0000000E+00
 -0.6600000      0.0000000E+00
 -0.6500000      0.0000000E+00
 -0.6400000      0.0000000E+00
 -0.6300000      0.0000000E+00
 -0.6200000      0.0000000E+00
 -0.6100000      0.0000000E+00
 -0.6000000      0.0000000E+00
 -0.5900000      0.0000000E+00
 -0.5800000      0.0000000E+00
 -0.5700000      0.0000000E+00
 -0.5600000      0.0000000E+00
 -0.5500000      0.0000000E+00
 -0.5400000      0.0000000E+00
 -0.5300000      0.0000000E+00
 -0.5200000      0.0000000E+00
 -0.5100000      0.0000000E+00
 -0.5000000      0.0000000E+00
 -0.4900000      0.0000000E+00
 -0.4800000      0.0000000E+00
 -0.4700000      0.0000000E+00
 -0.4600000      0.0000000E+00
 -0.4500000      0.0000000E+00
 -0.4400000      0.0000000E+00
 -0.4300000      0.0000000E+00
 -0.4200000      0.0000000E+00
 -0.4100000      0.0000000E+00
 -0.4000000      0.0000000E+00
 -0.3900000      0.0000000E+00
 -0.3800000      0.0000000E+00
 -0.3700000      0.0000000E+00
 -0.3600000      0.0000000E+00
 -0.3500000      0.0000000E+00
 -0.3400000      0.0000000E+00
 -0.3300000      0.0000000E+00
 -0.3200000      0.0000000E+00
 -0.3100000      0.0000000E+00
 -0.3000000      0.0000000E+00
 -0.2900000      0.0000000E+00
 -0.2800000      0.0000000E+00
 -0.2700000      0.0000000E+00
 -0.2600000      0.0000000E+00
 -0.2500000      0.0000000E+00
 -0.2400000      0.0000000E+00
 -0.2300000      0.0000000E+00
 -0.2200000      0.0000000E+00
 -0.2100000      0.0000000E+00
 -0.2000000      0.0000000E+00
 -0.1900000      0.0000000E+00
 -0.1800000      0.0000000E+00
 -0.1700000      0.0000000E+00
 -0.1600000      0.0000000E+00
 -0.1500000      0.0000000E+00
 -0.1400000      0.0000000E+00
 -0.1300000      0.0000000E+00
 -0.1200000      0.0000000E+00
 -0.1100000      0.0000000E+00
 -0.1000000      0.0000000E+00
 -9.0000004E-02  0.0000000E+00
 -7.9999998E-02  0.0000000E+00
 -7.0000000E-02  0.0000000E+00
 -5.9999999E-02  0.0000000E+00
 -5.0000001E-02  0.0000000E+00
 -3.9999999E-02  0.0000000E+00
 -2.9999999E-02  0.0000000E+00
 -2.0000000E-02  0.0000000E+00
 -9.9999998E-03  0.0000000E+00
 -3.4694470E-17  0.0000000E+00
  9.9999998E-03  0.0000000E+00
  2.0000000E-02  0.0000000E+00
  2.9999999E-02  0.0000000E+00
  3.9999999E-02  0.0000000E+00
  5.0000001E-02  0.0000000E+00
  5.9999999E-02  0.0000000E+00
  7.0000000E-02  0.0000000E+00
  7.9999998E-02  0.0000000E+00
  9.0000004E-02  0.0000000E+00
  0.1000000      0.0000000E+00
  0.1100000      0.0000000E+00
  0.1200000      0.0000000E+00
  0.1300000      0.0000000E+00
  0.1400000      0.0000000E+00
  0.1500000      0.0000000E+00
  0.1600000      0.0000000E+00
  0.1700000      0.0000000E+00
  0.1800000      0.0000000E+00
  0.1900000      0.0000000E+00
  0.2000000      0.0000000E+00
  0.2100000      0.0000000E+00
  0.2200000      0.0000000E+00
  0.2300000      0.0000000E+00
  0.2400000      0.0000000E+00
  0.2500000      0.0000000E+00
  0.2600000      0.0000000E+00
  0.2700000      0.0000000E+00
  0.2800000      0.0000000E+00
  0.2900000      0.0000000E+00
  0.3000000      0.0000000E+00
  0.3100000      0.0000000E+00
  0.3200000     -1.2548780E-38
  0.3300000     -1.3338386E-38
  0.3400000      0.0000000E+00
  0.3500000      0.0000000E+00
  0.3600000      0.0000000E+00
  0.3700000      0.0000000E+00
  0.3800000      0.0000000E+00
  0.3900000      0.0000000E+00
  0.4000000      0.0000000E+00
  0.4100000      0.0000000E+00
  0.4200000      0.0000000E+00
  0.4300000      0.0000000E+00
  0.4400000     -1.3552204E-38
  0.4500000     -1.7182506E-38
  0.4600000     -1.8046355E-38
  0.4700000     -3.7437491E-38
  0.4800000     -8.3955580E-38
  0.4900000     -1.5491761E-37
  0.5000000     -2.5166989E-37
  0.5100000     -3.6977726E-37
  0.5200000     -5.2177772E-37
  0.5300000     -6.9877073E-37
  0.5400000     -8.1589919E-37
  0.5500000     -7.6929286E-37
  0.5600000     -5.3490266E-37
  0.5700000     -1.6458958E-37
  0.5800000      3.0287833E-37
  0.5900000      8.5810693E-37
  0.6000000      1.3968967E-36
  0.6100000      1.8717073E-36
  0.6200000      2.3212885E-36
  0.6300000      2.7431704E-36
  0.6400000      3.0835479E-36
  0.6500000      3.3108677E-36
  0.6600000      3.5217747E-36
  0.6700000      3.7097756E-36
  0.6800000      3.8476999E-36
  0.6900000      3.9780274E-36
  0.7000000      4.1152641E-36
  0.7100000      4.2846884E-36
  0.7200000      4.4691335E-36
  0.7300000      4.7026583E-36
  0.7400000      5.5782283E-36
  0.7500000      7.2519277E-36
  0.7600000      9.3296090E-36
  0.7700000      1.1638294E-35
  0.7800000      1.3648985E-35
  0.7900000      1.4857567E-35
  0.8000000      1.5663640E-35
  0.8100000      1.6474608E-35
  0.8200000      1.6815886E-35
  0.8300000      1.6703865E-35
  0.8400000      1.6352916E-35
  0.8500000      1.5415272E-35
  0.8600000      1.3888691E-35
  0.8700000      1.2122479E-35
  0.8800000      9.9614989E-36
  0.8900000      7.3883242E-36
  0.9000000      3.9498296E-36
  0.9100000     -4.8696338E-38
  0.9200000     -3.6181761E-36
  0.9300000     -6.7919775E-36
  0.9400000     -9.6376223E-36
  0.9500000     -1.2474690E-35
  0.9600000     -1.5825690E-35
  0.9700000     -1.9936417E-35
  0.9800000     -2.4628799E-35
  0.9900000     -2.9474683E-35
   1.000000     -3.5084543E-35
   1.010000     -4.2112570E-35
   1.020000     -5.0886548E-35
   1.030000     -6.1629166E-35
   1.040000     -7.3674200E-35
   1.050000     -8.6639846E-35
   1.060000     -9.7801888E-35
   1.070000     -1.0603784E-34
   1.080000     -1.1302858E-34
   1.090000     -1.1988970E-34
   1.100000     -1.2759996E-34
   1.110000     -1.3627295E-34
   1.120000     -1.4593900E-34
   1.130000     -1.5604801E-34
   1.140000     -1.6518816E-34
   1.150000     -1.7289577E-34
   1.160000     -1.7985383E-34
   1.170000     -1.8639639E-34
   1.180000     -1.9198298E-34
   1.190000     -1.9447528E-34
   1.200000     -1.9315744E-34
   1.210000     -1.8936601E-34
   1.220000     -1.8408456E-34
   1.230000     -1.7698505E-34
   1.240000     -1.6764150E-34
   1.250000     -1.6078458E-34
   1.260000     -1.5938273E-34
   1.270000     -1.5932023E-34
   1.280000     -1.5338101E-34
   1.290000     -1.4042141E-34
   1.300000     -1.2418903E-34
   1.310000     -1.0440361E-34
   1.320000     -8.0824948E-35
   1.330000     -5.0175684E-35
   1.340000     -2.2112092E-35
   1.350000      2.2142661E-36
   1.360000      3.1182797E-35
   1.370000      6.3436391E-35
   1.380000      1.0268119E-34
   1.390000      1.3952832E-34
   1.400000      1.6840959E-34
   1.410000      1.9714875E-34
   1.420000      2.3032329E-34
   1.430000      2.6936784E-34
   1.440000      3.0865998E-34
   1.450000      3.4863677E-34
   1.460000      3.9534974E-34
   1.470000      4.5877024E-34
   1.480000      5.3327674E-34
   1.490000      6.0834326E-34
   1.500000      6.8521903E-34
   1.510000      7.6199745E-34
   1.520000      8.3816825E-34
   1.530000      9.1222852E-34
   1.540000      9.8208815E-34
   1.550000      1.0501312E-33
   1.560000      1.1238004E-33
   1.570000      1.1999704E-33
   1.580000      1.2671574E-33
   1.590000      1.3201324E-33
   1.600000      1.3675784E-33
   1.610000      1.4166585E-33
   1.620000      1.4495314E-33
   1.630000      1.4557020E-33
   1.640000      1.4479311E-33
   1.650000      1.4414613E-33
   1.660000      1.4421785E-33
   1.670000      1.4467700E-33
   1.680000      1.4541855E-33
   1.690000      1.4606862E-33
   1.700000      1.4611500E-33
   1.710000      1.4553423E-33
   1.720000      1.4346373E-33
   1.730000      1.3915093E-33
   1.740000      1.3200294E-33
   1.750000      1.2101159E-33
   1.760000      1.0641545E-33
   1.770000      8.8241376E-34
   1.780000      6.6268223E-34
   1.790000      4.0899443E-34
   1.800000      1.2145265E-34
   1.810000     -2.0152303E-34
   1.820000     -5.5817027E-34
   1.830000     -9.4164701E-34
   1.840000     -1.3489895E-33
   1.850000     -1.7841244E-33
   1.860000     -2.2458112E-33
   1.870000     -2.7350499E-33
   1.880000     -3.2565873E-33
   1.890000     -3.8158890E-33
   1.900000     -4.4166100E-33
   1.910000     -5.0603669E-33
   1.920000     -5.7516512E-33
   1.930000     -6.4905854E-33
   1.940000     -7.2671985E-33
   1.950000     -8.0881865E-33
   1.960000     -8.9545435E-33
   1.970000     -9.8463866E-33
   1.980000     -1.0750420E-32
   1.990000     -1.1653635E-32
   2.000000     -1.2541107E-32
   2.010000     -1.3395499E-32
   2.020000     -1.4199647E-32
   2.030000     -1.4937575E-32
   2.040000     -1.5593654E-32
   2.050000     -1.6153200E-32
   2.060000     -1.6605070E-32
   2.070000     -1.6930441E-32
   2.080000     -1.7110131E-32
   2.090000     -1.7130886E-32
   2.100000     -1.6973465E-32
   2.110000     -1.6617875E-32
   2.120000     -1.6041288E-32
   2.130000     -1.5216391E-32
   2.140000     -1.4115498E-32
   2.150000     -1.2708296E-32
   2.160000     -1.0962259E-32
   2.170000     -8.8466147E-33
   2.180000     -6.3304360E-33
   2.190000     -3.3846971E-33
   2.200000      1.5519305E-35
   2.210000      3.8946012E-33
   2.220000      8.2730161E-33
   2.230000      1.3167622E-32
   2.240000      1.8588521E-32
   2.250000      2.4535469E-32
   2.260000      3.1023444E-32
   2.270000      3.8060432E-32
   2.280000      4.5638556E-32
   2.290000      5.3755439E-32
   2.300000      6.2399942E-32
   2.310000      7.1567440E-32
   2.320000      8.1247948E-32
   2.330000      9.1415463E-32
   2.340000      1.0204138E-31
   2.350000      1.1308877E-31
   2.360000      1.2451117E-31
   2.370000      1.3624970E-31
   2.380000      1.4823353E-31
   2.390000      1.6038021E-31
   2.400000      1.7259392E-31
   2.410000      1.8476586E-31
   2.420000      1.9677552E-31
   2.430000      2.0848998E-31
   2.440000      2.1976596E-31
   2.450000      2.3045073E-31
   2.460000      2.4038248E-31
   2.470000      2.4939239E-31
   2.480000      2.5730415E-31
   2.490000      2.6393488E-31
   2.500000      2.6909560E-31
   2.510000      2.7259143E-31
   2.520000      2.7422172E-31
   2.530000      2.7378035E-31
   2.540000      2.7105618E-31
   2.550000      2.6583372E-31
   2.560000      2.5789406E-31
   2.570000      2.4701631E-31
   2.580000      2.3297934E-31
   2.590000      2.1556380E-31
   2.600000      1.9455465E-31
   2.610000      1.6974361E-31
   2.620000      1.4093222E-31
   2.630000      1.0793443E-31
   2.640000      7.0579490E-32
   2.650000      2.8714641E-32
   2.660000     -1.7792105E-32
   2.670000     -6.9049526E-32
   2.680000     -1.2514071E-31
   2.690000     -1.8612049E-31
   2.700000     -2.5201275E-31
   2.710000     -3.2280772E-31
   2.720000     -3.9845958E-31
   2.730000     -4.7888116E-31
   2.740000     -5.6394153E-31
   2.750000     -6.5346375E-31
   2.760000     -7.4721869E-31
   2.770000     -8.4492164E-31
   2.780000     -9.4622857E-31
   2.790000     -1.0507322E-30
   2.800000     -1.1579594E-30
   2.810000     -1.2673682E-30
   2.820000     -1.3783460E-30
   2.830000     -1.4902101E-30
   2.840000     -1.6022059E-30
   2.850000     -1.7135095E-30
   2.860000     -1.8232280E-30
   2.870000     -1.9304030E-30
   2.880000     -2.0340132E-30
   2.890000     -2.1329783E-30
   2.900000     -2.2261629E-30
   2.910000     -2.3123806E-30
   2.920000     -2.3903984E-30
   2.930000     -2.4589418E-30
   2.940000     -2.5166994E-30
   2.950000     -2.5623279E-30
   2.960000     -2.5944584E-30
   2.970000     -2.6117024E-30
   2.980000     -2.6126581E-30
   2.990000     -2.5959187E-30
   3.000000     -2.5600819E-30
   3.010000     -2.5037588E-30
   3.020000     -2.4255846E-30
   3.030000     -2.3242316E-30
   3.040000     -2.1984212E-30
   3.050000     -2.0469385E-30
   3.060000     -1.8686469E-30
   3.070000     -1.6625045E-30
   3.080000     -1.4275813E-30
   3.090000     -1.1630747E-30
   3.100000     -8.6832921E-31
   3.110000     -5.4285326E-31
   3.120000     -1.8633976E-31
   3.130000      2.0131448E-31
   3.140000      6.1998962E-31
   3.150000      1.0693227E-30
   3.160000      1.5486873E-30
   3.170000      2.0571740E-30
   3.180000      2.5935714E-30
   3.190000      3.1563487E-30
   3.200000      3.7436369E-30
   3.210000      4.3532126E-30
   3.220000      4.9824846E-30
   3.230000      5.6284840E-30
   3.240000      6.2878543E-30
   3.250000      6.9568449E-30
   3.260000      7.6313078E-30
   3.270000      8.3066968E-30
   3.280000      8.9780753E-30
   3.290000      9.6401190E-30
   3.300000      1.0287124E-29
   3.310000      1.0913022E-29
   3.320000      1.1511395E-29
   3.330000      1.2075488E-29
   3.340000      1.2598235E-29
   3.350000      1.3072278E-29
   3.360000      1.3489993E-29
   3.370000      1.3843515E-29
   3.380000      1.4124775E-29
   3.390000      1.4325521E-29
   3.400000      1.4437373E-29
   3.410000      1.4451846E-29
   3.420000      1.4360408E-29
   3.430000      1.4154527E-29
   3.440000      1.3825727E-29
   3.450000      1.3365645E-29
   3.460000      1.2766105E-29
   3.470000      1.2019186E-29
   3.480000      1.1117306E-29
   3.490000      1.0053306E-29
   3.500000      8.8205425E-30
   3.510000      7.4129766E-30
   3.520000      5.8252813E-30
   3.530000      4.0529499E-30
   3.540000      2.0924033E-30
   3.550000     -5.8897098E-32
   3.560000     -2.4023354E-30
   3.570000     -4.9380170E-30
   3.580000     -7.6646505E-30
   3.590000     -1.0579441E-29
   3.600000     -1.3677970E-29
   3.610000     -1.6954085E-29
   3.620000     -2.0399787E-29
   3.630000     -2.4005135E-29
   3.640000     -2.7758139E-29
   3.650000     -3.1644681E-29
   3.660000     -3.5648428E-29
   3.670000     -3.9750758E-29
   3.680000     -4.3930715E-29
   3.690000     -4.8164923E-29
   3.700000     -5.2427581E-29
   3.710000     -5.6690404E-29
   3.720000     -6.0922611E-29
   3.730000     -6.5090925E-29
   3.740000     -6.9159579E-29
   3.750000     -7.3090299E-29
   3.760000     -7.6842366E-29
   3.770000     -8.0372662E-29
   3.780000     -8.3635681E-29
   3.790000     -8.6583653E-29
   3.800000     -8.9166566E-29
   3.810000     -9.1332329E-29
   3.820000     -9.3026888E-29
   3.830000     -9.4194363E-29
   3.840000     -9.4777203E-29
   3.850000     -9.4716410E-29
   3.860000     -9.3951750E-29
   3.870000     -9.2422056E-29
   3.880000     -9.0065476E-29
   3.890000     -8.6819814E-29
   3.900000     -8.2622918E-29
   3.910000     -7.7413043E-29
   3.920000     -7.1129311E-29
   3.930000     -6.3712182E-29
   3.940000     -5.5103895E-29
   3.950000     -4.5249095E-29
   3.960000     -3.4095355E-29
   3.970000     -2.1593749E-29
   3.980000     -7.6995030E-30
   3.990000      7.6273454E-30
   4.000000      2.4421309E-29
   4.010000      4.2710807E-29
   4.020000      6.2517419E-29
   4.030000      8.3855237E-29
   4.040000      1.0673011E-28
   4.050000      1.3113897E-28
   4.060000      1.5706910E-28
   4.070000      1.8449750E-28
   4.080000      2.1339017E-28
   4.090000      2.4370130E-28
   4.100000      2.7537274E-28
   4.110000      3.0833330E-28
   4.120000      3.4249794E-28
   4.130000      3.7776738E-28
   4.140000      4.1402732E-28
   4.150000      4.5114779E-28
   4.160000      4.8898259E-28
   4.170000      5.2736892E-28
   4.180000      5.6612658E-28
   4.190000      6.0505766E-28
   4.200000      6.4394609E-28
   4.210000      6.8255723E-28
   4.220000      7.2063753E-28
   4.230000      7.5791429E-28
   4.240000      7.9409553E-28
   4.250000      8.2886979E-28
   4.260000      8.6190632E-28
   4.270000      8.9285496E-28
   4.280000      9.2134697E-28
   4.290000      9.4699468E-28
   4.300000      9.6939228E-28
   4.310000      9.8811704E-28
   4.320000      1.0027293E-27
   4.330000      1.0127740E-27
   4.340000      1.0177823E-27
   4.350000      1.0172721E-27
   4.360000      1.0107497E-27
   4.370000      9.9771250E-28
   4.380000      9.7765000E-28
   4.390000      9.5004603E-28
   4.400000      9.1438146E-28
   4.410000      8.7013611E-28
   4.420000      8.1679199E-28
   4.430000      7.5383541E-28
   4.440000      6.8076029E-28
   4.450000      5.9707160E-28
   4.460000      5.0228831E-28
   4.470000      3.9594717E-28
   4.480000      2.7760590E-28
   4.490000      1.4684719E-28
   4.500000      3.2829564E-30
   4.510000     -1.5344174E-28
   4.520000     -3.2364458E-28
   4.530000     -5.0760127E-28
   4.540000     -7.0554070E-28
   4.550000     -9.1764043E-28
   4.560000     -1.1440213E-27
   4.570000     -1.3847428E-27
   4.580000     -1.6397980E-27
   4.590000     -1.9091075E-27
   4.600000     -2.1925135E-27
   4.610000     -2.4897758E-27
   4.620000     -2.8005641E-27
   4.630000     -3.1244533E-27
   4.640000     -3.4609173E-27
   4.650000     -3.8093250E-27
   4.660000     -4.1689323E-27
   4.670000     -4.5388768E-27
   4.680000     -4.9181745E-27
   4.690000     -5.3057105E-27
   4.700000     -5.7002392E-27
   4.710000     -6.1003750E-27
   4.720000     -6.5045919E-27
   4.730000     -6.9112150E-27
   4.740000     -7.3184205E-27
   4.750000     -7.7242309E-27
   4.760000     -8.1265122E-27
   4.770000     -8.5229726E-27
   4.780000     -8.9111592E-27
   4.790000     -9.2884620E-27
   4.800000     -9.6521061E-27
   4.810000     -9.9991548E-27
   4.820000     -1.0326513E-26
   4.830000     -1.0630925E-26
   4.840000     -1.0908981E-26
   4.850000     -1.1157116E-26
   4.860000     -1.1371617E-26
   4.870000     -1.1548624E-26
   4.880000     -1.1684141E-26
   4.890000     -1.1774039E-26
   4.900000     -1.1814066E-26
   4.910000     -1.1799858E-26
   4.920000     -1.1726944E-26
   4.930000     -1.1590762E-26
   4.940000     -1.1386669E-26
   4.950000     -1.1109954E-26
   4.960000     -1.0755859E-26
   4.970000     -1.0319589E-26
   4.980000     -9.7963413E-27
   4.990000     -9.1813187E-27
   5.000000     -8.4697484E-27
   5.010000     -7.6569135E-27
   5.020000     -6.7381764E-27
   5.030000     -5.7090052E-27
   5.040000     -4.5649994E-27
   5.050000     -3.3019268E-27
   5.060000     -1.9157495E-27
   5.070000     -4.0266195E-28
   5.080000      1.2408739E-27
   5.090000      3.0180948E-27
   5.100000      4.9318944E-27
   5.110000      6.9847871E-27
   5.120000      9.1788627E-27
   5.130000      1.1515753E-26
   5.140000      1.3996576E-26
   5.150000      1.6621899E-26
   5.160000      1.9391691E-26
   5.170000      2.2305282E-26
   5.180000      2.5361305E-26
   5.190000      2.8557661E-26
   5.200000      3.1891465E-26
   5.210000      3.5358995E-26
   5.220000      3.8955649E-26
   5.230000      4.2675887E-26
   5.240000      4.6513196E-26
   5.250000      5.0460018E-26
   5.260000      5.4507737E-26
   5.270000      5.8646601E-26
   5.280000      6.2865681E-26
   5.290000      6.7152845E-26
   5.300000      7.1494686E-26
   5.310000      7.5876494E-26
   5.320000      8.0282208E-26
   5.330000      8.4694406E-26
   5.340000      8.9094216E-26
   5.350000      9.3461325E-26
   5.360000      9.7773960E-26
   5.370000      1.0200882E-25
   5.380000      1.0614112E-25
   5.390000      1.1014452E-25
   5.400000      1.1399114E-25
   5.410000      1.1765154E-25
   5.420000      1.2109480E-25
   5.430000      1.2428840E-25
   5.440000      1.2719839E-25
   5.450000      1.2978928E-25
   5.460000      1.3202417E-25
   5.470000      1.3386477E-25
   5.480000      1.3527144E-25
   5.490000      1.3620323E-25
   5.500000      1.3661803E-25
   5.510000      1.3647253E-25
   5.520000      1.3572243E-25
   5.530000      1.3432253E-25
   5.540000      1.3222677E-25
   5.550000      1.2938845E-25
   5.560000      1.2576030E-25
   5.570000      1.2129472E-25
   5.580000      1.1594383E-25
   5.590000      1.0965973E-25
   5.600000      1.0239466E-25
   5.610000      9.4101270E-26
   5.620000      8.4732764E-26
   5.630000      7.4243170E-26
   5.640000      6.2587608E-26
   5.650000      4.9722550E-26
   5.660000      3.5606109E-26
   5.670000      2.0198306E-26
   5.680000      3.4614203E-27
   5.690000     -1.4639685E-26
   5.700000     -3.4137256E-26
   5.710000     -5.5060273E-26
   5.720000     -7.7434019E-26
   5.730000     -1.0127981E-25
   5.740000     -1.2661448E-25
   5.750000     -1.5345002E-25
   5.760000     -1.8179308E-25
   5.770000     -2.1164470E-25
   5.780000     -2.4299970E-25
   5.790000     -2.7584622E-25
   5.800000     -3.1016546E-25
   5.810000     -3.4593109E-25
   5.820000     -3.8310870E-25
   5.830000     -4.2165557E-25
   5.840000     -4.6151992E-25
   5.850000     -5.0264067E-25
   5.860000     -5.4494689E-25
   5.870000     -5.8835712E-25
   5.880000     -6.3277935E-25
   5.890000     -6.7811026E-25
   5.900000     -7.2423500E-25
   5.910000     -7.7102673E-25
   5.920000     -8.1834586E-25
   5.930000     -8.6604000E-25
   5.940000     -9.1394378E-25
   5.950000     -9.6187812E-25
   5.960000     -1.0096503E-24
   5.970000     -1.0570530E-24
   5.980000     -1.1038652E-24
   5.990000     -1.1498507E-24
   6.000000     -1.1947590E-24
   6.010000     -1.2383252E-24
   6.020000     -1.2802689E-24
   6.030000     -1.3202952E-24
   6.040000     -1.3580945E-24
   6.050000     -1.3933424E-24
   6.060000     -1.4257005E-24
   6.070000     -1.4548155E-24
   6.080000     -1.4803208E-24
   6.090000     -1.5018362E-24
   6.100000     -1.5189685E-24
   6.110000     -1.5313125E-24
   6.120000     -1.5384513E-24
   6.130000     -1.5399575E-24
   6.140000     -1.5353938E-24
   6.150000     -1.5243144E-24
   6.160000     -1.5062660E-24
   6.170000     -1.4807880E-24
   6.180000     -1.4474158E-24
   6.190000     -1.4056807E-24
   6.200000     -1.3551120E-24
   6.210000     -1.2952387E-24
   6.220000     -1.2255915E-24
   6.230000     -1.1457050E-24
   6.240000     -1.0551192E-24
   6.250000     -9.5338189E-25
   6.260000     -8.4005147E-25
   6.270000     -7.1469881E-25
   6.280000     -5.7691050E-25
   6.290000     -4.2629121E-25
   6.300000     -2.6246711E-25
   6.310000     -8.5088392E-26
   6.320000      1.0616721E-25
   6.330000      3.1159133E-25
   6.340000      5.3144169E-25
   6.350000      7.6593922E-25
   6.360000      1.0152631E-24
   6.370000      1.2795479E-24
   6.380000      1.5588795E-24
   6.390000      1.8532903E-24
   6.400000      2.1627566E-24
   6.410000      2.4871950E-24
   6.420000      2.8264575E-24
   6.430000      3.1803263E-24
   6.440000      3.5485117E-24
   6.450000      3.9306462E-24
   6.460000      4.3262812E-24
   6.470000      4.7348832E-24
   6.480000      5.1558300E-24
   6.490000      5.5884027E-24
   6.500000      6.0317859E-24
   6.510000      6.4850634E-24
   6.520000      6.9472132E-24
   6.530000      7.4171061E-24
   6.540000      7.8935008E-24
   6.550000      8.3750380E-24
   6.560000      8.8602435E-24
   6.570000      9.3475197E-24
   6.580000      9.8351454E-24
   6.590000      1.0321272E-23
   6.600000      1.0803927E-23
   6.610000      1.1281005E-23
   6.620000      1.1750273E-23
   6.630000      1.2209365E-23
   6.640000      1.2655786E-23
   6.650000      1.3086908E-23
   6.660000      1.3499974E-23
   6.670000      1.3892095E-23
   6.680000      1.4260261E-23
   6.690000      1.4601336E-23
   6.700000      1.4912062E-23
   6.710000      1.5189061E-23
   6.720000      1.5428845E-23
   6.730000      1.5627816E-23
   6.740000      1.5782279E-23
   6.750000      1.5888443E-23
   6.760000      1.5942431E-23
   6.770000      1.5940288E-23
   6.780000      1.5877997E-23
   6.790000      1.5751478E-23
   6.800000      1.5556608E-23
   6.810000      1.5289230E-23
   6.820000      1.4945162E-23
   6.830000      1.4520223E-23
   6.840000      1.4010230E-23
   6.850000      1.3411035E-23
   6.860000      1.2718531E-23
   6.870000      1.1928681E-23
   6.880000      1.1037527E-23
   6.890000      1.0041210E-23
   6.900000      8.9359955E-24
   6.910000      7.7183011E-24
   6.920000      6.3847132E-24
   6.930000      4.9320085E-24
   6.940000      3.3571861E-24
   6.950000      1.6574936E-24
   6.960000     -1.6954752E-25
   6.970000     -2.1261211E-24
   6.980000     -4.2140796E-24
   6.990000     -6.4349127E-24
   7.000000     -8.7897241E-24
   7.010000     -1.1279198E-23
   7.020000     -1.3903563E-23
   7.030000     -1.6662565E-23
   7.040000     -1.9555437E-23
   7.050000     -2.2580867E-23
   7.060000     -2.5736963E-23