  -2.600000      0.0000000E+00
  -2.590000      0.0000000E+00
  -2.580000      0.0000000E+00
  -2.570000      0.0000000E+00
  -2.560000      0.0000000E+00
  -2.550000      0.0000000E+00
  -2.540000      0.0000000E+00
  -2.530000      0.0000000E+00
  -2.520000      0.0000000E+00
  -2.510000      0.0000000E+00
  -2.500000      0.0000000E+00
  -2.490000      0.0000000E+00
  -2.480000      0.0000000E+00
  -2.470000      0.0000000E+00
  -2.460000      0.0000000E+00
  -2.450000      0.0000000E+00
  -2.440000      0.0000000E+00
  -2.430000      0.0000000E+00
  -2.420000      0.0000000E+00
  -2.410000      0.0000000E+00
  -2.400000      0.0000000E+00
  -2.390000      0.0000000E+00
  -2.380000      0.0000000E+00
  -2.370000      0.0000000E+00
  -2.360000      0.0000000E+00
  -2.350000      0.0000000E+00
  -2.340000      0.0000000E+00
  -2.330000      0.0000000E+00
  -2.320000      0.0000000E+00
  -2.310000      0.0000000E+00
  -2.300000      0.0000000E+00
  -2.290000      0.0000000E+00
  -2.280000      0.0000000E+00
  -2.270000      0.0000000E+00
  -2.260000      0.0000000E+00
  -2.250000      0.0000000E+00
  -2.240000      0.0000000E+00
  -2.230000      0.0000000E+00
  -2.220000      0.0000000E+00
  -2.210000      0.0000000E+00
  -2.200000      0.0000000E+00
  -2.190000      0.0000000E+00
  -2.180000      0.0000000E+00
  -2.170000      0.0000000E+00
  -2.160000      0.0000000E+00
  -2.150000      0.0000000E+00
  -2.140000      0.0000000E+00
  -2.130000      0.0000000E+00
  -2.120000      0.0000000E+00
  -2.110000      0.0000000E+00
  -2.100000      0.0000000E+00
  -2.090000      0.0000000E+00
  -2.080000      0.0000000E+00
  -2.070000      0.0000000E+00
  -2.060000      0.0000000E+00
  -2.050000      0.0000000E+00
  -2.040000      0.0000000E+00
  -2.030000      0.0000000E+00
  -2.020000      0.0000000E+00
  -2.010000      0.0000000E+00
  -2.000000      0.0000000E+00
  -1.990000      0.0000000E+00
  -1.980000      0.0000000E+00
  -1.970000      0.0000000E+00
  -1.960000      0.0000000E+00
  -1.950000      0.0000000E+00
  -1.940000      0.0000000E+00
  -1.930000      0.0000000E+00
  -1.920000      0.0000000E+00
  -1.910000      0.0000000E+00
  -1.900000      0.0000000E+00
  -1.890000      0.0000000E+00
  -1.880000      0.0000000E+00
  -1.870000      0.0000000E+00
  -1.860000      0.0000000E+00
  -1.850000      0.0000000E+00
  -1.840000      0.0000000E+00
  -1.830000      0.0000000E+00
  -1.820000      0.0000000E+00
  -1.810000      0.0000000E+00
  -1.800000      0.0000000E+00
  -1.790000      0.0000000E+00
  -1.780000      0.0000000E+00
  -1.770000      0.0000000E+00
  -1.760000      0.0000000E+00
  -1.750000      0.0000000E+00
  -1.740000      0.0000000E+00
  -1.730000      0.0000000E+00
  -1.720000      0.0000000E+00
  -1.710000      0.0000000E+00
  -1.700000      0.0000000E+00
  -1.690000      0.0000000E+00
  -1.680000      0.0000000E+00
  -1.670000      0.0000000E+00
  -1.660000      0.0000000E+00
  -1.650000      0.0000000E+00
  -1.640000      0.0000000E+00
  -1.630000      0.0000000E+00
  -1.620000      0.0000000E+00
  -1.610000      0.0000000E+00
  -1.600000      0.0000000E+00
  -1.590000      0.0000000E+00
  -1.580000      0.0000000E+00
  -1.570000      0.0000000E+00
  -1.560000      0.0000000E+00
  -1.550000      0.0000000E+00
  -1.540000      0.0000000E+00
  -1.530000      0.0000000E+00
  -1.520000      0.0000000E+00
  -1.510000      0.0000000E+00
  -1.500000      0.0000000E+00
  -1.490000      0.0000000E+00
  -1.480000      0.0000000E+00
  -1.470000      0.0000000E+00
  -1.460000      0.0000000E+00
  -1.450000      0.0000000E+00
  -1.440000      0.0000000E+00
  -1.430000      0.0000000E+00
  -1.420000      0.0000000E+00
  -1.410000      0.0000000E+00
  -1.400000      0.0000000E+00
  -1.390000      0.0000000E+00
  -1.380000      0.0000000E+00
  -1.370000      0.0000000E+00
  -1.360000      0.0000000E+00
  -1.350000      0.0000000E+00
  -1.340000      0.0000000E+00
  -1.330000      0.0000000E+00
  -1.320000      0.0000000E+00
  -1.310000      0.0000000E+00
  -1.300000      0.0000000E+00
  -1.290000      0.0000000E+00
  -1.280000      0.0000000E+00
  -1.270000      0.0000000E+00
  -1.260000      0.0000000E+00
  -1.250000      0.0000000E+00
  -1.240000      0.0000000E+00
  -1.230000      0.0000000E+00
  -1.220000      0.0000000E+00
  -1.210000      0.0000000E+00
  -1.200000      0.0000000E+00
  -1.190000      0.0000000E+00
  -1.180000      0.0000000E+00
  -1.170000      0.0000000E+00
  -1.160000      0.0000000E+00
  -1.150000      0.0000000E+00
  -1.140000      0.0000000E+00
  -1.130000      0.0000000E+00
  -1.120000      0.0000000E+00
  -1.110000      0.0000000E+00
  -1.100000      0.0000000E+00
  -1.090000      0.0000000E+00
  -1.080000      0.0000000E+00
  -1.070000      0.0000000E+00
  -1.060000      0.0000000E+00
  -1.050000      0.0000000E+00
  -1.040000      0.0000000E+00
  -1.030000      0.0000000E+00
  -1.020000      0.0000000E+00
  -1.010000      0.0000000E+00
  -1.000000      0.0000000E+00
 -0.9900000      0.0000000E+00
 -0.9800000      0.0000000E+00
 -0.9700000      0.0000000E+00
 -0.9600000      0.0000000E+00
 -0.9500000      0.0000000E+00
 -0.9400000      0.0000000E+00
 -0.9300000      0.0000000E+00
 -0.9200000      0.0000000E+00
 -0.9100000      0.0000000E+00
 -0.9000000      0.0000000E+00
 -0.8900000      0.0000000E+00
 -0.8800000      0.0000000E+00
 -0.8700000      0.0000000E+00
 -0.8600000      0.0000000E+00
 -0.8500000      0.0000000E+00
 -0.8400000      0.0000000E+00
 -0.8300000      0.0000000E+00
 -0.8200000      0.0000000E+00
 -0.8100000      0.0000000E+00
 -0.8000000      0.0000000E+00
 -0.7900000      0.0000000E+00
 -0.7800000      0.0000000E+00
 -0.7700000      0.0000000E+00
 -0.7600000      0.0000000E+00
 -0.7500000      0.0000000E+00
 -0.7400000      0.0000000E+00
 -0.7300000      0.0000000E+00
 -0.7200000      0.0000000E+00
 -0.7100000      0.0000000E+00
 -0.7000000      0.0000000E+00
 -0.6900000      0.0000000E+00
 -0.6800000      0.0000000E+00
 -0.6700000      0.0000000E+00
 -0.6600000      0.0000000E+00
 -0.6500000      0.0000000E+00
 -0.6400000      0.0000000E+00
 -0.6300000      0.0000000E+00
 -0.6200000      0.0000000E+00
 -0.6100000      0.0000000E+00
 -0.6000000      0.0000000E+00
 -0.5900000      0.0000000E+00
 -0.5800000      0.0000000E+00
 -0.5700000      0.0000000E+00
 -0.5600000      0.0000000E+00
 -0.5500000      0.0000000E+00
 -0.5400000      0.0000000E+00
 -0.5300000      0.0000000E+00
 -0.5200000      0.0000000E+00
 -0.5100000      0.0000000E+00
 -0.5000000      0.0000000E+00
 -0.4900000      0.0000000E+00
 -0.4800000      0.0000000E+00
 -0.4700000      0.0000000E+00
 -0.4600000      0.0000000E+00
 -0.4500000      0.0000000E+00
 -0.4400000      0.0000000E+00
 -0.4300000      0.0000000E+00
 -0.4200000      0.0000000E+00
 -0.4100000      0.0000000E+00
 -0.4000000      0.0000000E+00
 -0.3900000      0.0000000E+00
 -0.3800000      0.0000000E+00
 -0.3700000      0.0000000E+00
 -0.3600000      0.0000000E+00
 -0.3500000      0.0000000E+00
 -0.3400000      0.0000000E+00
 -0.3300000      0.0000000E+00
 -0.3200000      0.0000000E+00
 -0.3100000      0.0000000E+00
 -0.3000000      0.0000000E+00
 -0.2900000      0.0000000E+00
 -0.2800000      0.0000000E+00
 -0.2700000      0.0000000E+00
 -0.2600000      0.0000000E+00
 -0.2500000      0.0000000E+00
 -0.2400000      0.0000000E+00
 -0.2300000      0.0000000E+00
 -0.2200000      0.0000000E+00
 -0.2100000      0.0000000E+00
 -0.2000000      0.0000000E+00
 -0.1900000      0.0000000E+00
 -0.1800000      0.0000000E+00
 -0.1700000      0.0000000E+00
 -0.1600000      0.0000000E+00
 -0.1500000      0.0000000E+00
 -0.1400000      0.0000000E+00
 -0.1300000      0.0000000E+00
 -0.1200000      0.0000000E+00
 -0.1100000      0.0000000E+00
 -0.1000000      0.0000000E+00
 -9.0000004E-02  0.0000000E+00
 -7.9999998E-02  0.0000000E+00
 -7.0000000E-02  0.0000000E+00
 -5.9999999E-02  0.0000000E+00
 -5.0000001E-02  0.0000000E+00
 -3.9999999E-02  0.0000000E+00
 -2.9999999E-02  0.0000000E+00
 -2.0000000E-02  0.0000000E+00
 -9.9999998E-03  0.0000000E+00
 -3.4694470E-17  0.0000000E+00
  9.9999998E-03  0.0000000E+00
  2.0000000E-02  0.0000000E+00
  2.9999999E-02  0.0000000E+00
  3.9999999E-02  0.0000000E+00
  5.0000001E-02  0.0000000E+00
  5.9999999E-02  0.0000000E+00
  7.0000000E-02  0.0000000E+00
  7.9999998E-02  0.0000000E+00
  9.0000004E-02  0.0000000E+00
  0.1000000      0.0000000E+00
  0.1100000      0.0000000E+00
  0.1200000      0.0000000E+00
  0.1300000      0.0000000E+00
  0.1400000      0.0000000E+00
  0.1500000      0.0000000E+00
  0.1600000      0.0000000E+00
  0.1700000      0.0000000E+00
  0.1800000      0.0000000E+00
  0.1900000      0.0000000E+00
  0.2000000      0.0000000E+00
  0.2100000      0.0000000E+00
  0.2200000      0.0000000E+00
  0.2300000      0.0000000E+00
  0.2400000      0.0000000E+00
  0.2500000      0.0000000E+00
  0.2600000      0.0000000E+00
  0.2700000      0.0000000E+00
  0.2800000      0.0000000E+00
  0.2900000      0.0000000E+00
  0.3000000      0.0000000E+00
  0.3100000      0.0000000E+00
  0.3200000      0.0000000E+00
  0.3300000      0.0000000E+00
  0.3400000      0.0000000E+00
  0.3500000      0.0000000E+00
  0.3600000      0.0000000E+00
  0.3700000      0.0000000E+00
  0.3800000      0.0000000E+00
  0.3900000      0.0000000E+00
  0.4000000      0.0000000E+00
  0.4100000      0.0000000E+00
  0.4200000      0.0000000E+00
  0.4300000      0.0000000E+00
  0.4400000      0.0000000E+00
  0.4500000      0.0000000E+00
  0.4600000      0.0000000E+00
  0.4700000      0.0000000E+00
  0.4800000      0.0000000E+00
  0.4900000      0.0000000E+00
  0.5000000      0.0000000E+00
  0.5100000      0.0000000E+00
  0.5200000      0.0000000E+00
  0.5300000      0.0000000E+00
  0.5400000      0.0000000E+00
  0.5500000      0.0000000E+00
  0.5600000      0.0000000E+00
  0.5700000      0.0000000E+00
  0.5800000      0.0000000E+00
  0.5900000      0.0000000E+00
  0.6000000      0.0000000E+00
  0.6100000      0.0000000E+00
  0.6200000      0.0000000E+00
  0.6300000      0.0000000E+00
  0.6400000      0.0000000E+00
  0.6500000      0.0000000E+00
  0.6600000      0.0000000E+00
  0.6700000      0.0000000E+00
  0.6800000      0.0000000E+00
  0.6900000      0.0000000E+00
  0.7000000      0.0000000E+00
  0.7100000      0.0000000E+00
  0.7200000      0.0000000E+00
  0.7300000      0.0000000E+00
  0.7400000      0.0000000E+00
  0.7500000      0.0000000E+00
  0.7600000      0.0000000E+00
  0.7700000     -1.3345351E-38
  0.7800000     -1.8500190E-38
  0.7900000     -2.4407601E-38
  0.8000000     -2.8994670E-38
  0.8100000     -3.2668861E-38
  0.8200000     -3.6104295E-38
  0.8300000     -3.8093004E-38
  0.8400000     -3.7956694E-38
  0.8500000     -3.5733949E-38
  0.8600000     -3.6011232E-38
  0.8700000     -4.4289809E-38
  0.8800000     -5.7301179E-38
  0.8900000     -7.1946962E-38
  0.9000000     -8.7972447E-38
  0.9100000     -1.0708036E-37
  0.9200000     -1.3386798E-37
  0.9300000     -1.6966761E-37
  0.9400000     -2.2716396E-37
  0.9500000     -2.9827620E-37
  0.9600000     -3.7439258E-37
  0.9700000     -4.4400059E-37
  0.9800000     -4.8483577E-37
  0.9900000     -4.9999347E-37
   1.000000     -5.0008239E-37
   1.010000     -4.7577468E-37
   1.020000     -4.2050429E-37
   1.030000     -3.4537754E-37
   1.040000     -2.5803582E-37
   1.050000     -1.5378167E-37
   1.060000     -3.5428141E-38
   1.070000      1.5470769E-37
   1.080000      5.1566304E-37
   1.090000      1.0226033E-36
   1.100000      1.6934376E-36
   1.110000      2.4915587E-36
   1.120000      3.3482849E-36
   1.130000      4.2586839E-36
   1.140000      5.1934182E-36
   1.150000      6.1728083E-36
   1.160000      7.2962792E-36
   1.170000      8.5448273E-36
   1.180000      9.6498580E-36
   1.190000      1.0452022E-35
   1.200000      1.1001491E-35
   1.210000      1.1376095E-35
   1.220000      1.1613008E-35
   1.230000      1.1633061E-35
   1.240000      1.1299966E-35
   1.250000      1.0571572E-35
   1.260000      9.5320180E-36
   1.270000      8.1831368E-36
   1.280000      6.4120799E-36
   1.290000      4.2827441E-36
   1.300000      1.8560915E-36
   1.310000     -1.0319435E-36
   1.320000     -4.4676154E-36
   1.330000     -8.5682661E-36
   1.340000     -1.3443309E-35
   1.350000     -1.9006086E-35
   1.360000     -2.4962704E-35
   1.370000     -3.1212730E-35
   1.380000     -3.7853644E-35
   1.390000     -4.4831403E-35
   1.400000     -5.2041287E-35
   1.410000     -5.9763384E-35
   1.420000     -6.7881234E-35
   1.430000     -7.6303445E-35
   1.440000     -8.5029757E-35
   1.450000     -9.3543372E-35
   1.460000     -1.0194420E-34
   1.470000     -1.0992521E-34
   1.480000     -1.1672658E-34
   1.490000     -1.2227701E-34
   1.500000     -1.2675392E-34
   1.510000     -1.2995263E-34
   1.520000     -1.3178689E-34
   1.530000     -1.3199237E-34
   1.540000     -1.2943815E-34
   1.550000     -1.2372409E-34
   1.560000     -1.1424578E-34
   1.570000     -1.0071986E-34
   1.580000     -8.2724772E-35
   1.590000     -5.9567183E-35
   1.600000     -3.2221749E-35
   1.610000     -1.2082985E-36
   1.620000      3.3966925E-35
   1.630000      7.3358125E-35
   1.640000      1.1703981E-34
   1.650000      1.6461251E-34
   1.660000      2.1495106E-34
   1.670000      2.7204564E-34
   1.680000      3.3942016E-34
   1.690000      4.1415421E-34
   1.700000      4.9178684E-34
   1.710000      5.7132322E-34
   1.720000      6.5276841E-34
   1.730000      7.3341017E-34
   1.740000      8.0890468E-34
   1.750000      8.7920466E-34
   1.760000      9.4496843E-34
   1.770000      1.0038847E-33
   1.780000      1.0535959E-33
   1.790000      1.0937703E-33
   1.800000      1.1257147E-33
   1.810000      1.1477952E-33
   1.820000      1.1614583E-33
   1.830000      1.1654719E-33
   1.840000      1.1536226E-33
   1.850000      1.1243825E-33
   1.860000      1.0793536E-33
   1.870000      1.0182822E-33
   1.880000      9.3915184E-34
   1.890000      8.3885031E-34
   1.900000      7.1631430E-34
   1.910000      5.7271118E-34
   1.920000      4.0331546E-34
   1.930000      2.0604545E-34
   1.940000     -1.3236497E-35
   1.950000     -2.5665445E-34
   1.960000     -5.2999633E-34
   1.970000     -8.3143349E-34
   1.980000     -1.1588870E-33
   1.990000     -1.5137717E-33
   2.000000     -1.8930133E-33
   2.010000     -2.2945073E-33
   2.020000     -2.7159909E-33
   2.030000     -3.1540868E-33
   2.040000     -3.6068046E-33
   2.050000     -4.0695839E-33
   2.060000     -4.5398242E-33
   2.070000     -5.0122583E-33
   2.080000     -5.4791349E-33
   2.090000     -5.9364661E-33
   2.100000     -6.3817125E-33
   2.110000     -6.8036651E-33
   2.120000     -7.1988170E-33
   2.130000     -7.5605446E-33
   2.140000     -7.8784453E-33
   2.150000     -8.1469936E-33
   2.160000     -8.3554763E-33
   2.170000     -8.4974878E-33
   2.180000     -8.5663137E-33
   2.190000     -8.5541437E-33
   2.200000     -8.4529667E-33
   2.210000     -8.2551265E-33
   2.220000     -7.9527137E-33
   2.230000     -7.5388266E-33
   2.240000     -7.0071137E-33
   2.250000     -6.3531576E-33
   2.260000     -5.5700576E-33
   2.270000     -4.6480667E-33
   2.280000     -3.5843861E-33
   2.290000     -2.3816307E-33
   2.300000     -1.0382071E-33
   2.310000      4.4813041E-34
   2.320000      2.0768441E-33
   2.330000      3.8469989E-33
   2.340000      5.7550018E-33
   2.350000      7.7959123E-33
   2.360000      9.9631742E-33
   2.370000      1.2248158E-32
   2.380000      1.4640961E-32
   2.390000      1.7129678E-32
   2.400000      1.9700022E-32
   2.410000      2.2336200E-32
   2.420000      2.5020365E-32
   2.430000      2.7732336E-32
   2.440000      3.0450197E-32
   2.450000      3.3149552E-32
   2.460000      3.5804670E-32
   2.470000      3.8387899E-32
   2.480000      4.0869276E-32
   2.490000      4.3217326E-32
   2.500000      4.5400780E-32
   2.510000      4.7386173E-32
   2.520000      4.9137409E-32
   2.530000      5.0618985E-32
   2.540000      5.1794638E-32
   2.550000      5.2627811E-32
   2.560000      5.3081881E-32
   2.570000      5.3120460E-32
   2.580000      5.2708050E-32
   2.590000      5.1810484E-32
   2.600000      5.0393760E-32
   2.610000      4.8425501E-32
   2.620000      4.5876315E-32
   2.630000      4.2719254E-32
   2.640000      3.8929710E-32
   2.650000      3.4486359E-32
   2.660000      2.9371742E-32
   2.670000      2.3571983E-32
   2.680000      1.7077763E-32
   2.690000      9.8845557E-33
   2.700000      1.9932196E-33
   2.710000     -6.5904906E-33
   2.720000     -1.5854934E-32
   2.730000     -2.5781665E-32
   2.740000     -3.6346103E-32
   2.750000     -4.7516858E-32
   2.760000     -5.9255677E-32
   2.770000     -7.1517711E-32
   2.780000     -8.4249390E-32
   2.790000     -9.7389631E-32
   2.800000     -1.1087085E-31
   2.810000     -1.2461740E-31
   2.820000     -1.3854594E-31
   2.830000     -1.5256526E-31
   2.840000     -1.6657598E-31
   2.850000     -1.8047265E-31
   2.860000     -1.9414266E-31
   2.870000     -2.0746523E-31
   2.880000     -2.2031369E-31
   2.890000     -2.3255526E-31
   2.900000     -2.4405172E-31
   2.910000     -2.5465990E-31
   2.920000     -2.6423244E-31
   2.930000     -2.7261839E-31
   2.940000     -2.7966414E-31
   2.950000     -2.8521452E-31
   2.960000     -2.8911342E-31
   2.970000     -2.9120552E-31
   2.980000     -2.9133593E-31
   2.990000     -2.8935231E-31
   3.000000     -2.8510680E-31
   3.010000     -2.7845613E-31
   3.020000     -2.6926332E-31
   3.030000     -2.5739887E-31
   3.040000     -2.4274226E-31
   3.050000     -2.2518334E-31
   3.060000     -2.0462359E-31
   3.070000     -1.8097766E-31
   3.080000     -1.5417475E-31
   3.090000     -1.2415997E-31
   3.100000     -9.0895777E-32
   3.110000     -5.4363340E-32
   3.120000     -1.4563865E-32
   3.130000      2.8480145E-32
   3.140000      7.4723607E-32
   3.150000      1.2409776E-31
   3.160000      1.7650896E-31
   3.170000      2.3183772E-31
   3.180000      2.8993763E-31
   3.190000      3.5063466E-31
   3.200000      4.1372619E-31
   3.210000      4.7898108E-31
   3.220000      5.4613740E-31
   3.230000      6.1490312E-31
   3.240000      6.8495684E-31
   3.250000      7.5594612E-31
   3.260000      8.2748803E-31
   3.270000      8.9916939E-31
   3.280000      9.7054710E-31
   3.290000      1.0411485E-30
   3.300000      1.1104721E-30
   3.310000      1.1779893E-30
   3.320000      1.2431448E-30
   3.330000      1.3053582E-30
   3.340000      1.3640258E-30
   3.350000      1.4185222E-30
   3.360000      1.4682028E-30
   3.370000      1.5124056E-30
   3.380000      1.5504541E-30
   3.390000      1.5816600E-30
   3.400000      1.6053264E-30
   3.410000      1.6207502E-30
   3.420000      1.6272270E-30
   3.430000      1.6240532E-30
   3.440000      1.6105311E-30
   3.450000      1.5859719E-30
   3.460000      1.5497008E-30
   3.470000      1.5010610E-30
   3.480000      1.4394178E-30
   3.490000      1.3641645E-30
   3.500000      1.2747260E-30
   3.510000      1.1705649E-30
   3.520000      1.0511855E-30
   3.530000      9.1614005E-31
   3.540000      7.6503302E-31
   3.550000      5.9752719E-31
   3.560000      4.1334876E-31
   3.570000      2.1229261E-31
   3.580000     -5.7721228E-33
   3.590000     -2.4089650E-31
   3.600000     -4.9304658E-31
   3.610000     -7.6209781E-31
   3.620000     -1.0478301E-30
   3.630000     -1.3499221E-30
   3.640000     -1.6679464E-30
   3.650000     -2.0013645E-30
   3.660000     -2.3495219E-30
   3.670000     -2.7116435E-30
   3.680000     -3.0868297E-30
   3.690000     -3.4740511E-30
   3.700000     -3.8721465E-30
   3.710000     -4.2798169E-30
   3.720000     -4.6956252E-30
   3.730000     -5.1179922E-30
   3.740000     -5.5451943E-30
   3.750000     -5.9753624E-30
   3.760000     -6.4064796E-30
   3.770000     -6.8363817E-30
   3.780000     -7.2627578E-30
   3.790000     -7.6831499E-30
   3.800000     -8.0949529E-30
   3.810000     -8.4954192E-30
   3.820000     -8.8816622E-30
   3.830000     -9.2506538E-30
   3.840000     -9.5992373E-30
   3.850000     -9.9241252E-30
   3.860000     -1.0221909E-29
   3.870000     -1.0489062E-29
   3.880000     -1.0721954E-29
   3.890000     -1.0916852E-29
   3.900000     -1.1069933E-29
   3.910000     -1.1177296E-29
   3.920000     -1.1234970E-29
   3.930000     -1.1238926E-29
   3.940000     -1.1185095E-29
   3.950000     -1.1069374E-29
   3.960000     -1.0887651E-29
   3.970000     -1.0635813E-29
   3.980000     -1.0309766E-29
   3.990000     -9.9054549E-30
   4.000000     -9.4188793E-30
   4.010000     -8.8461175E-30
   4.020000     -8.1833463E-30
   4.030000     -7.4268628E-30
   4.040000     -6.5731109E-30
   4.050000     -5.6187001E-30
   4.060000     -4.5604385E-30
   4.070000     -3.3953539E-30
   4.080000     -2.1207240E-30
   4.090000     -7.3410525E-31
   4.100000      7.6663870E-31
   4.110000      2.3833069E-30
   4.120000      4.1173290E-30
   4.130000      5.9697351E-30
   4.140000      7.9411207E-30
   4.150000      1.0031615E-29
   4.160000      1.2240852E-29
   4.170000      1.4567925E-29
   4.180000      1.7011369E-29
   4.190000      1.9569111E-29
   4.200000      2.2238442E-29
   4.210000      2.5015985E-29
   4.220000      2.7897661E-29
   4.230000      3.0878642E-29
   4.240000      3.3953338E-29
   4.250000      3.7115348E-29
   4.260000      4.0357429E-29
   4.270000      4.3671470E-29
   4.280000      4.7048452E-29
   4.290000      5.0478428E-29
   4.300000      5.3950486E-29
   4.310000      5.7452717E-29
   4.320000      6.0972198E-29
   4.330000      6.4494964E-29
   4.340000      6.8005983E-29
   4.350000      7.1489135E-29
   4.360000      7.4927197E-29
   4.370000      7.8301824E-29
   4.380000      8.1593527E-29
   4.390000      8.4781699E-29
   4.400000      8.7844554E-29
   4.410000      9.0759178E-29
   4.420000      9.3501491E-29
   4.430000      9.6046277E-29
   4.440000      9.8367191E-29
   4.450000      1.0043677E-28
   4.460000      1.0222646E-28
   4.470000      1.0370666E-28
   4.480000      1.0484669E-28
   4.490000      1.0561495E-28
   4.500000      1.0597887E-28
   4.510000      1.0590497E-28
   4.520000      1.0535902E-28
   4.530000      1.0430598E-28
   4.540000      1.0271017E-28
   4.550000      1.0053535E-28
   4.560000      9.7744766E-29
   4.570000      9.4301330E-29
   4.580000      9.0167683E-29
   4.590000      8.5306347E-29
   4.600000      7.9679863E-29
   4.610000      7.3250928E-29
   4.620000      6.5982577E-29
   4.630000      5.7838336E-29
   4.640000      4.8782424E-29
   4.650000      3.8779939E-29
   4.660000      2.7797046E-29
   4.670000      1.5801249E-29
   4.680000      2.7615868E-30
   4.690000     -1.1351104E-29
   4.700000     -2.6563936E-29
   4.710000     -4.2901687E-29
   4.720000     -6.0386534E-29
   4.730000     -7.9037721E-29
   4.740000     -9.8871279E-29
   4.750000     -1.1989970E-28
   4.760000     -1.4213155E-28
   4.770000     -1.6557120E-28
   4.780000     -1.9021840E-28
   4.790000     -2.1606791E-28
   4.800000     -2.4310922E-28
   4.810000     -2.7132602E-28
   4.820000     -3.0069590E-28
   4.830000     -3.3118992E-28
   4.840000     -3.6277218E-28
   4.850000     -3.9539946E-28
   4.860000     -4.2902078E-28
   4.870000     -4.6357692E-28
   4.880000     -4.9900017E-28
   4.890000     -5.3521367E-28
   4.900000     -5.7213134E-28
   4.910000     -6.0965707E-28
   4.920000     -6.4768470E-28
   4.930000     -6.8609747E-28
   4.940000     -7.2476755E-28
   4.950000     -7.6355592E-28
   4.960000     -8.0231189E-28
   4.970000     -8.4087286E-28
   4.980000     -8.7906376E-28
   4.990000     -9.1669739E-28
   5.000000     -9.5357356E-28
   5.010000     -9.8947925E-28
   5.020000     -1.0241883E-27
   5.030000     -1.0574615E-27
   5.040000     -1.0890464E-27
   5.050000     -1.1186770E-27
   5.060000     -1.1460745E-27
   5.070000     -1.1709467E-27
   5.080000     -1.1929886E-27
   5.090000     -1.2118823E-27
   5.100000     -1.2272977E-27
   5.110000     -1.2388925E-27
   5.120000     -1.2463127E-27
   5.130000     -1.2491936E-27
   5.140000     -1.2471599E-27
   5.150000     -1.2398268E-27
   5.160000     -1.2268006E-27
   5.170000     -1.2076795E-27
   5.180000     -1.1820552E-27
   5.190000     -1.1495135E-27
   5.200000     -1.1096360E-27
   5.210000     -1.0620011E-27
   5.220000     -1.0061856E-27
   5.230000     -9.4176674E-28
   5.240000     -8.6832333E-28
   5.250000     -7.8543809E-28
   5.260000     -6.9269961E-28
   5.270000     -5.8970434E-28
   5.280000     -4.7605902E-28
   5.290000     -3.5138308E-28
   5.300000     -2.1531105E-28
   5.310000     -6.7495364E-29
   5.320000      9.2390645E-29
   5.330000      2.6465017E-28
   5.340000      4.4955948E-28
   5.350000      6.4736500E-28
   5.360000      8.5827999E-28
   5.370000      1.0824807E-27
   5.380000      1.3201034E-27
   5.390000      1.5712403E-27
   5.400000      1.8359361E-27
   5.410000      2.1141836E-27
   5.420000      2.4059210E-27
   5.430000      2.7110262E-27
   5.440000      3.0293145E-27
   5.450000      3.3605328E-27
   5.460000      3.7043568E-27
   5.470000      4.0603873E-27
   5.480000      4.4281440E-27
   5.490000      4.8070630E-27
   5.500000      5.1964926E-27
   5.510000      5.5956889E-27
   5.520000      6.0038127E-27
   5.530000      6.4199238E-27
   5.540000      6.8429801E-27
   5.550000      7.2718308E-27
   5.560000      7.7052166E-27
   5.570000      8.1417648E-27
   5.580000      8.5799840E-27
   5.590000      9.0182663E-27
   5.600000      9.4548808E-27
   5.610000      9.8879739E-27
   5.620000      1.0315566E-26
   5.630000      1.0735553E-26
   5.640000      1.1145702E-26
   5.650000      1.1543651E-26
   5.660000      1.1926914E-26
   5.670000      1.2292874E-26
   5.680000      1.2638790E-26
   5.690000      1.2961797E-26
   5.700000      1.3258904E-26
   5.710000      1.3527006E-26
   5.720000      1.3762879E-26
   5.730000      1.3963188E-26
   5.740000      1.4124493E-26
   5.750000      1.4243253E-26
   5.760000      1.4315836E-26
   5.770000      1.4338519E-26
   5.780000      1.4307507E-26
   5.790000      1.4218931E-26
   5.800000      1.4068870E-26
   5.810000      1.3853353E-26
   5.820000      1.3568372E-26
   5.830000      1.3209903E-26
   5.840000      1.2773907E-26
   5.850000      1.2256361E-26
   5.860000      1.1653260E-26
   5.870000      1.0960644E-26
   5.880000      1.0174612E-26
   5.890000      9.2913386E-27
   5.900000      8.3071013E-27
   5.910000      7.2182968E-27
   5.920000      6.0214635E-27
   5.930000      4.7133056E-27
   5.940000      3.2907198E-27
   5.950000      1.7508155E-27
   5.960000      9.0945572E-29
   5.970000     -1.6912689E-27
   5.980000     -3.5979106E-27
   5.990000     -5.6307378E-27
   6.000000     -7.7911547E-27
   6.010000     -1.0080183E-26
   6.020000     -1.2498430E-26
   6.030000     -1.5046060E-26
   6.040000     -1.7722760E-26
   6.050000     -2.0527712E-26
   6.060000     -2.3459557E-26
   6.070000     -2.6516364E-26
   6.080000     -2.9695606E-26
   6.090000     -3.2994120E-26
   6.100000     -3.6408072E-26
   6.110000     -3.9932953E-26
   6.120000     -4.3563503E-26
   6.130000     -4.7293724E-26
   6.140000     -5.1116828E-26
   6.150000     -5.5025218E-26
   6.160000     -5.9010463E-26
   6.170000     -6.3063260E-26
   6.180000     -6.7173435E-26
   6.190000     -7.1329894E-26
   6.200000     -7.5520625E-26
   6.210000     -7.9732662E-26
   6.220000     -8.3952094E-26
   6.230000     -8.8164019E-26
   6.240000     -9.2352575E-26
   6.250000     -9.6500892E-26
   6.260000     -1.0059112E-25
   6.270000     -1.0460441E-25
   6.280000     -1.0852094E-25
   6.290000     -1.1231988E-25
   6.300000     -1.1597945E-25
   6.310000     -1.1947690E-25
   6.320000     -1.2278857E-25
   6.330000     -1.2588986E-25
   6.340000     -1.2875531E-25
   6.350000     -1.3135862E-25
   6.360000     -1.3367264E-25
   6.370000     -1.3566953E-25
   6.380000     -1.3732070E-25
   6.390000     -1.3859690E-25
   6.400000     -1.3946829E-25
   6.410000     -1.3990456E-25
   6.420000     -1.3987490E-25
   6.430000     -1.3934814E-25
   6.440000     -1.3829286E-25
   6.450000     -1.3667745E-25
   6.460000     -1.3447022E-25
   6.470000     -1.3163947E-25
   6.480000     -1.2815373E-25
   6.490000     -1.2398168E-25
   6.500000     -1.1909248E-25
   6.510000     -1.1345577E-25
   6.520000     -1.0704187E-25
   6.530000     -9.9821898E-26
   6.540000     -9.1767955E-26
   6.550000     -8.2853247E-26
   6.560000     -7.3052261E-26
   6.570000     -6.2340966E-26
   6.580000     -5.0696957E-26
   6.590000     -3.8099637E-26
   6.600000     -2.4530413E-26
   6.610000     -9.9728782E-27
   6.620000      5.5869691E-27
   6.630000      2.2160556E-26
   6.640000      3.9756544E-26
   6.650000      5.8380594E-26
   6.660000      7.8035175E-26
   6.670000      9.8719373E-26
   6.680000      1.2042864E-25
   6.690000      1.4315464E-25
   6.700000      1.6688503E-25
   6.710000      1.9160320E-25
   6.720000      2.1728814E-25
   6.730000      2.4391424E-25
   6.740000      2.7145101E-25
   6.750000      2.9986304E-25
   6.760000      3.2910959E-25
   6.770000      3.5914470E-25
   6.780000      3.8991674E-25
   6.790000      4.2136843E-25
   6.800000      4.5343666E-25
   6.810000      4.8605226E-25
   6.820000      5.1914004E-25
   6.830000      5.5261846E-25
   6.840000      5.8639970E-25
   6.850000      6.2038950E-25
   6.860000      6.5448708E-25
   6.870000      6.8858520E-25
   6.880000      7.2256997E-25
   6.890000      7.5632098E-25
   6.900000      7.8971115E-25
   6.910000      8.2260699E-25
   6.920000      8.5486845E-25
   6.930000      8.8634903E-25
   6.940000      9.1689619E-25
   6.950000      9.4635107E-25
   6.960000      9.7454870E-25
   6.970000      1.0013187E-24
   6.980000      1.0264847E-24
   6.990000      1.0498653E-24
   7.000000      1.0712742E-24
   7.010000      1.0905200E-24
   7.020000      1.1074075E-24
   7.030000      1.1217371E-24
   7.040000      1.1333061E-24
   7.050000      1.1419084E-24
   7.060000      1.1473356E-24