  -2.600000      0.0000000E+00
  -2.590000      0.0000000E+00
  -2.580000      0.0000000E+00
  -2.570000      0.0000000E+00
  -2.560000      0.0000000E+00
  -2.550000      0.0000000E+00
  -2.540000      0.0000000E+00
  -2.530000      0.0000000E+00
  -2.520000      0.0000000E+00
  -2.510000      0.0000000E+00
  -2.500000      0.0000000E+00
  -2.490000      0.0000000E+00
  -2.480000      0.0000000E+00
  -2.470000      0.0000000E+00
  -2.460000      0.0000000E+00
  -2.450000      0.0000000E+00
  -2.440000      0.0000000E+00
  -2.430000      0.0000000E+00
  -2.420000      0.0000000E+00
  -2.410000      0.0000000E+00
  -2.400000      0.0000000E+00
  -2.390000      0.0000000E+00
  -2.380000      0.0000000E+00
  -2.370000      0.0000000E+00
  -2.360000      0.0000000E+00
  -2.350000      0.0000000E+00
  -2.340000      0.0000000E+00
  -2.330000      0.0000000E+00
  -2.320000      0.0000000E+00
  -2.310000      0.0000000E+00
  -2.300000      0.0000000E+00
  -2.290000      0.0000000E+00
  -2.280000      0.0000000E+00
  -2.270000      0.0000000E+00
  -2.260000      0.0000000E+00
  -2.250000      0.0000000E+00
  -2.240000      0.0000000E+00
  -2.230000      0.0000000E+00
  -2.220000      0.0000000E+00
  -2.210000      0.0000000E+00
  -2.200000      0.0000000E+00
  -2.190000      0.0000000E+00
  -2.180000      0.0000000E+00
  -2.170000      0.0000000E+00
  -2.160000      0.0000000E+00
  -2.150000      0.0000000E+00
  -2.140000      0.0000000E+00
  -2.130000      0.0000000E+00
  -2.120000      0.0000000E+00
  -2.110000      0.0000000E+00
  -2.100000      0.0000000E+00
  -2.090000      0.0000000E+00
  -2.080000      0.0000000E+00
  -2.070000      0.0000000E+00
  -2.060000      0.0000000E+00
  -2.050000      0.0000000E+00
  -2.040000      0.0000000E+00
  -2.030000      0.0000000E+00
  -2.020000      0.0000000E+00
  -2.010000      0.0000000E+00
  -2.000000      0.0000000E+00
  -1.990000      0.0000000E+00
  -1.980000      0.0000000E+00
  -1.970000      0.0000000E+00
  -1.960000      0.0000000E+00
  -1.950000      0.0000000E+00
  -1.940000      0.0000000E+00
  -1.930000      0.0000000E+00
  -1.920000      0.0000000E+00
  -1.910000      0.0000000E+00
  -1.900000      0.0000000E+00
  -1.890000      0.0000000E+00
  -1.880000      0.0000000E+00
  -1.870000      0.0000000E+00
  -1.860000      0.0000000E+00
  -1.850000      0.0000000E+00
  -1.840000      0.0000000E+00
  -1.830000      0.0000000E+00
  -1.820000      0.0000000E+00
  -1.810000      0.0000000E+00
  -1.800000      0.0000000E+00
  -1.790000      0.0000000E+00
  -1.780000      0.0000000E+00
  -1.770000      0.0000000E+00
  -1.760000      0.0000000E+00
  -1.750000      0.0000000E+00
  -1.740000      0.0000000E+00
  -1.730000      0.0000000E+00
  -1.720000      0.0000000E+00
  -1.710000      0.0000000E+00
  -1.700000      0.0000000E+00
  -1.690000      0.0000000E+00
  -1.680000      0.0000000E+00
  -1.670000      0.0000000E+00
  -1.660000      0.0000000E+00
  -1.650000      0.0000000E+00
  -1.640000      0.0000000E+00
  -1.630000      0.0000000E+00
  -1.620000      0.0000000E+00
  -1.610000      0.0000000E+00
  -1.600000      0.0000000E+00
  -1.590000      0.0000000E+00
  -1.580000      0.0000000E+00
  -1.570000      0.0000000E+00
  -1.560000      0.0000000E+00
  -1.550000      0.0000000E+00
  -1.540000      0.0000000E+00
  -1.530000      0.0000000E+00
  -1.520000      0.0000000E+00
  -1.510000      0.0000000E+00
  -1.500000      0.0000000E+00
  -1.490000      0.0000000E+00
  -1.480000      0.0000000E+00
  -1.470000      0.0000000E+00
  -1.460000      0.0000000E+00
  -1.450000      0.0000000E+00
  -1.440000      0.0000000E+00
  -1.430000      0.0000000E+00
  -1.420000      0.0000000E+00
  -1.410000      0.0000000E+00
  -1.400000      0.0000000E+00
  -1.390000      0.0000000E+00
  -1.380000      0.0000000E+00
  -1.370000      0.0000000E+00
  -1.360000      0.0000000E+00
  -1.350000      0.0000000E+00
  -1.340000      0.0000000E+00
  -1.330000      0.0000000E+00
  -1.320000      0.0000000E+00
  -1.310000      0.0000000E+00
  -1.300000      0.0000000E+00
  -1.290000      0.0000000E+00
  -1.280000      0.0000000E+00
  -1.270000      0.0000000E+00
  -1.260000      0.0000000E+00
  -1.250000      0.0000000E+00
  -1.240000      0.0000000E+00
  -1.230000      0.0000000E+00
  -1.220000      0.0000000E+00
  -1.210000      0.0000000E+00
  -1.200000      0.0000000E+00
  -1.190000      0.0000000E+00
  -1.180000      0.0000000E+00
  -1.170000      0.0000000E+00
  -1.160000      0.0000000E+00
  -1.150000      0.0000000E+00
  -1.140000      0.0000000E+00
  -1.130000      0.0000000E+00
  -1.120000      0.0000000E+00
  -1.110000      0.0000000E+00
  -1.100000      0.0000000E+00
  -1.090000      0.0000000E+00
  -1.080000      0.0000000E+00
  -1.070000      0.0000000E+00
  -1.060000      0.0000000E+00
  -1.050000      0.0000000E+00
  -1.040000      0.0000000E+00
  -1.030000      0.0000000E+00
  -1.020000      0.0000000E+00
  -1.010000      0.0000000E+00
  -1.000000      0.0000000E+00
 -0.9900000      0.0000000E+00
 -0.9800000      0.0000000E+00
 -0.9700000      0.0000000E+00
 -0.9600000      0.0000000E+00
 -0.9500000      0.0000000E+00
 -0.9400000      0.0000000E+00
 -0.9300000      0.0000000E+00
 -0.9200000      0.0000000E+00
 -0.9100000      0.0000000E+00
 -0.9000000      0.0000000E+00
 -0.8900000      0.0000000E+00
 -0.8800000      0.0000000E+00
 -0.8700000      0.0000000E+00
 -0.8600000      0.0000000E+00
 -0.8500000      0.0000000E+00
 -0.8400000      0.0000000E+00
 -0.8300000      0.0000000E+00
 -0.8200000      0.0000000E+00
 -0.8100000      0.0000000E+00
 -0.8000000      0.0000000E+00
 -0.7900000      0.0000000E+00
 -0.7800000      0.0000000E+00
 -0.7700000      0.0000000E+00
 -0.7600000      0.0000000E+00
 -0.7500000      0.0000000E+00
 -0.7400000      0.0000000E+00
 -0.7300000      0.0000000E+00
 -0.7200000      0.0000000E+00
 -0.7100000      0.0000000E+00
 -0.7000000      0.0000000E+00
 -0.6900000      0.0000000E+00
 -0.6800000      0.0000000E+00
 -0.6700000      0.0000000E+00
 -0.6600000      0.0000000E+00
 -0.6500000      0.0000000E+00
 -0.6400000      0.0000000E+00
 -0.6300000      0.0000000E+00
 -0.6200000      0.0000000E+00
 -0.6100000      0.0000000E+00
 -0.6000000      0.0000000E+00
 -0.5900000      0.0000000E+00
 -0.5800000      0.0000000E+00
 -0.5700000      0.0000000E+00
 -0.5600000      0.0000000E+00
 -0.5500000      0.0000000E+00
 -0.5400000      0.0000000E+00
 -0.5300000      0.0000000E+00
 -0.5200000      0.0000000E+00
 -0.5100000      0.0000000E+00
 -0.5000000      0.0000000E+00
 -0.4900000      0.0000000E+00
 -0.4800000      0.0000000E+00
 -0.4700000      0.0000000E+00
 -0.4600000      0.0000000E+00
 -0.4500000      0.0000000E+00
 -0.4400000      0.0000000E+00
 -0.4300000      0.0000000E+00
 -0.4200000      0.0000000E+00
 -0.4100000      0.0000000E+00
 -0.4000000      0.0000000E+00
 -0.3900000      0.0000000E+00
 -0.3800000      0.0000000E+00
 -0.3700000      0.0000000E+00
 -0.3600000      0.0000000E+00
 -0.3500000      0.0000000E+00
 -0.3400000      0.0000000E+00
 -0.3300000      0.0000000E+00
 -0.3200000      0.0000000E+00
 -0.3100000      0.0000000E+00
 -0.3000000      0.0000000E+00
 -0.2900000      0.0000000E+00
 -0.2800000      0.0000000E+00
 -0.2700000      0.0000000E+00
 -0.2600000      0.0000000E+00
 -0.2500000      0.0000000E+00
 -0.2400000      0.0000000E+00
 -0.2300000      0.0000000E+00
 -0.2200000      0.0000000E+00
 -0.2100000      0.0000000E+00
 -0.2000000      0.0000000E+00
 -0.1900000      0.0000000E+00
 -0.1800000      0.0000000E+00
 -0.1700000      0.0000000E+00
 -0.1600000      0.0000000E+00
 -0.1500000      0.0000000E+00
 -0.1400000      0.0000000E+00
 -0.1300000      0.0000000E+00
 -0.1200000      0.0000000E+00
 -0.1100000      0.0000000E+00
 -0.1000000      0.0000000E+00
 -9.0000004E-02  0.0000000E+00
 -7.9999998E-02  0.0000000E+00
 -7.0000000E-02  0.0000000E+00
 -5.9999999E-02  0.0000000E+00
 -5.0000001E-02  0.0000000E+00
 -3.9999999E-02  0.0000000E+00
 -2.9999999E-02  0.0000000E+00
 -2.0000000E-02  0.0000000E+00
 -9.9999998E-03  0.0000000E+00
 -3.4694470E-17  0.0000000E+00
  9.9999998E-03  0.0000000E+00
  2.0000000E-02  0.0000000E+00
  2.9999999E-02  0.0000000E+00
  3.9999999E-02  0.0000000E+00
  5.0000001E-02  0.0000000E+00
  5.9999999E-02  0.0000000E+00
  7.0000000E-02  0.0000000E+00
  7.9999998E-02  0.0000000E+00
  9.0000004E-02  0.0000000E+00
  0.1000000      0.0000000E+00
  0.1100000      0.0000000E+00
  0.1200000      0.0000000E+00
  0.1300000      0.0000000E+00
  0.1400000      0.0000000E+00
  0.1500000      0.0000000E+00
  0.1600000      0.0000000E+00
  0.1700000      0.0000000E+00
  0.1800000      0.0000000E+00
  0.1900000      0.0000000E+00
  0.2000000      0.0000000E+00
  0.2100000      0.0000000E+00
  0.2200000      0.0000000E+00
  0.2300000      0.0000000E+00
  0.2400000      0.0000000E+00
  0.2500000      0.0000000E+00
  0.2600000      0.0000000E+00
  0.2700000      0.0000000E+00
  0.2800000      0.0000000E+00
  0.2900000      0.0000000E+00
  0.3000000      0.0000000E+00
  0.3100000      0.0000000E+00
  0.3200000      0.0000000E+00
  0.3300000      0.0000000E+00
  0.3400000      0.0000000E+00
  0.3500000      0.0000000E+00
  0.3600000      0.0000000E+00
  0.3700000      0.0000000E+00
  0.3800000      0.0000000E+00
  0.3900000      0.0000000E+00
  0.4000000      0.0000000E+00
  0.4100000      0.0000000E+00
  0.4200000      0.0000000E+00
  0.4300000      0.0000000E+00
  0.4400000      0.0000000E+00
  0.4500000      0.0000000E+00
  0.4600000      0.0000000E+00
  0.4700000      0.0000000E+00
  0.4800000      0.0000000E+00
  0.4900000      0.0000000E+00
  0.5000000      0.0000000E+00
  0.5100000      0.0000000E+00
  0.5200000      0.0000000E+00
  0.5300000      0.0000000E+00
  0.5400000      0.0000000E+00
  0.5500000      0.0000000E+00
  0.5600000      0.0000000E+00
  0.5700000      0.0000000E+00
  0.5800000      0.0000000E+00
  0.5900000      0.0000000E+00
  0.6000000      0.0000000E+00
  0.6100000      0.0000000E+00
  0.6200000      0.0000000E+00
  0.6300000      0.0000000E+00
  0.6400000      0.0000000E+00
  0.6500000      0.0000000E+00
  0.6600000      0.0000000E+00
  0.6700000      0.0000000E+00
  0.6800000      0.0000000E+00
  0.6900000      0.0000000E+00
  0.7000000      0.0000000E+00
  0.7100000      0.0000000E+00
  0.7200000      0.0000000E+00
  0.7300000      0.0000000E+00
  0.7400000      0.0000000E+00
  0.7500000      0.0000000E+00
  0.7600000      0.0000000E+00
  0.7700000      0.0000000E+00
  0.7800000      0.0000000E+00
  0.7900000      0.0000000E+00
  0.8000000      0.0000000E+00
  0.8100000      0.0000000E+00
  0.8200000      0.0000000E+00
  0.8300000      0.0000000E+00
  0.8400000      1.2406317E-38
  0.8500000      1.8364644E-38
  0.8600000      2.5079554E-38
  0.8700000      3.2548520E-38
  0.8800000      4.0544237E-38
  0.8900000      4.8578791E-38
  0.9000000      5.6822423E-38
  0.9100000      6.5518466E-38
  0.9200000      7.4597552E-38
  0.9300000      8.4459655E-38
  0.9400000      9.3925914E-38
  0.9500000      1.0239487E-37
  0.9600000      1.1092183E-37
  0.9700000      1.1957563E-37
  0.9800000      1.2841724E-37
  0.9900000      1.3607004E-37
   1.000000      1.4123859E-37
   1.010000      1.4272949E-37
   1.020000      1.4061329E-37
   1.030000      1.3887659E-37
   1.040000      1.3768801E-37
   1.050000      1.3459091E-37
   1.060000      1.2866345E-37
   1.070000      1.2029703E-37
   1.080000      1.0914531E-37
   1.090000      9.4371073E-38
   1.100000      7.6276403E-38
   1.110000      5.3015784E-38
   1.120000      2.3524620E-38
   1.130000      0.0000000E+00
   1.140000     -4.7545799E-38
   1.150000     -9.3233869E-38
   1.160000     -1.4704467E-37
   1.170000     -2.1173714E-37
   1.180000     -2.8927062E-37
   1.190000     -3.7718166E-37
   1.200000     -4.7550326E-37
   1.210000     -5.8431173E-37
   1.220000     -7.0085537E-37
   1.230000     -8.1389280E-37
   1.240000     -9.2014844E-37
   1.250000     -1.0187428E-36
   1.260000     -1.0778713E-36
   1.270000     -1.1184163E-36
   1.280000     -1.1670750E-36
   1.290000     -1.1981856E-36
   1.300000     -1.1964189E-36
   1.310000     -1.1700383E-36
   1.320000     -1.1516431E-36
   1.330000     -1.1393376E-36
   1.340000     -1.1133267E-36
   1.350000     -1.0722401E-36
   1.360000     -1.0347295E-36
   1.370000     -9.1770252E-37
   1.380000     -6.8519979E-37
   1.390000     -4.2745509E-37
   1.400000     -1.6366990E-37
   1.410000      1.0960985E-37
   1.420000      3.9334865E-37
   1.430000      5.7930400E-37
   1.440000      6.8026664E-37
   1.450000      7.8867580E-37
   1.460000      8.9406582E-37
   1.470000      1.0436130E-36
   1.480000      1.2331975E-36
   1.490000      1.4106630E-36
   1.500000      1.5163235E-36
   1.510000      1.5825631E-36
   1.520000      1.7140446E-36
   1.530000      1.8600446E-36
   1.540000      1.8467501E-36
   1.550000      1.6994130E-36
   1.560000      1.5206930E-36
   1.570000      1.3362385E-36
   1.580000      1.1986086E-36
   1.590000      1.2341296E-36
   1.600000      1.5246655E-36
   1.610000      2.2303350E-36
   1.620000      3.2446593E-36
   1.630000      4.4459817E-36
   1.640000      6.2204974E-36
   1.650000      8.4878548E-36
   1.660000      1.0831204E-35
   1.670000      1.3178477E-35
   1.680000      1.5714747E-35
   1.690000      1.8346822E-35
   1.700000      2.0262311E-35
   1.710000      2.1675197E-35
   1.720000      2.3315725E-35
   1.730000      2.4764954E-35
   1.740000      2.5850731E-35
   1.750000      2.6910673E-35
   1.760000      2.7992349E-35
   1.770000      2.9035778E-35
   1.780000      3.0260556E-35
   1.790000      3.1465553E-35
   1.800000      3.2652733E-35
   1.810000      3.4170306E-35
   1.820000      3.5662553E-35
   1.830000      3.6642759E-35
   1.840000      3.7339162E-35
   1.850000      3.8418114E-35
   1.860000      3.9954568E-35
   1.870000      4.1690454E-35
   1.880000      4.1804738E-35
   1.890000      4.0348307E-35
   1.900000      3.8158607E-35
   1.910000      3.7968861E-35
   1.920000      3.9365440E-35
   1.930000      4.3096392E-35
   1.940000      5.0686576E-35
   1.950000      5.9269981E-35
   1.960000      6.9365726E-35
   1.970000      8.4846206E-35
   1.980000      1.0148940E-34
   1.990000      1.0985725E-34
   2.000000      1.1311364E-34
   2.010000      1.1426554E-34
   2.020000      1.1023156E-34
   2.030000      1.0033422E-34
   2.040000      8.7514297E-35
   2.050000      6.8386611E-35
   2.060000      4.1472198E-35
   2.070000      1.0075531E-35
   2.080000     -2.3427854E-35
   2.090000     -5.6946933E-35
   2.100000     -9.6621790E-35
   2.110000     -1.4598159E-34
   2.120000     -2.0093329E-34
   2.130000     -2.6054396E-34
   2.140000     -3.2497878E-34
   2.150000     -3.9464968E-34
   2.160000     -4.7040038E-34
   2.170000     -5.4801850E-34
   2.180000     -6.2896354E-34
   2.190000     -7.1513320E-34
   2.200000     -8.0282076E-34
   2.210000     -8.8884160E-34
   2.220000     -9.7390405E-34
   2.230000     -1.0610868E-33
   2.240000     -1.1473552E-33
   2.250000     -1.2303560E-33
   2.260000     -1.3101912E-33
   2.270000     -1.3860273E-33
   2.280000     -1.4567131E-33
   2.290000     -1.5215409E-33
   2.300000     -1.5804264E-33
   2.310000     -1.6318387E-33
   2.320000     -1.6755976E-33
   2.330000     -1.7102436E-33
   2.340000     -1.7328297E-33
   2.350000     -1.7426305E-33
   2.360000     -1.7441017E-33
   2.370000     -1.7319475E-33
   2.380000     -1.7002334E-33
   2.390000     -1.6492465E-33
   2.400000     -1.5780387E-33
   2.410000     -1.4860866E-33
   2.420000     -1.3731369E-33
   2.430000     -1.2345548E-33
   2.440000     -1.0651209E-33
   2.450000     -8.6514869E-34
   2.460000     -6.3223298E-34
   2.470000     -3.6172973E-34
   2.480000     -5.5604717E-35
   2.490000      2.8364206E-34
   2.500000      6.6029152E-34
   2.510000      1.0777287E-33
   2.520000      1.5352158E-33
   2.530000      2.0307833E-33
   2.540000      2.5657763E-33
   2.550000      3.1395522E-33
   2.560000      3.7513507E-33
   2.570000      4.3997461E-33
   2.580000      5.0822766E-33
   2.590000      5.7975381E-33
   2.600000      6.5436266E-33
   2.610000      7.3156046E-33
   2.620000      8.1087525E-33
   2.630000      8.9200045E-33
   2.640000      9.7429505E-33
   2.650000      1.0570302E-32
   2.660000      1.1396541E-32
   2.670000      1.2214370E-32
   2.680000      1.3015876E-32
   2.690000      1.3792435E-32
   2.700000      1.4534933E-32
   2.710000      1.5233754E-32
   2.720000      1.5878673E-32
   2.730000      1.6459032E-32
   2.740000      1.6963684E-32
   2.750000      1.7381071E-32
   2.760000      1.7699269E-32
   2.770000      1.7905995E-32
   2.780000      1.7988662E-32
   2.790000      1.7934115E-32
   2.800000      1.7729632E-32
   2.810000      1.7362382E-32
   2.820000      1.6818900E-32
   2.830000      1.6086102E-32
   2.840000      1.5151126E-32
   2.850000      1.4001406E-32
   2.860000      1.2625012E-32
   2.870000      1.1010328E-32
   2.880000      9.1467001E-33
   2.890000      7.0247513E-33
   2.900000      4.6359076E-33
   2.910000      1.9730202E-33
   2.920000     -9.6952992E-34
   2.930000     -4.1957203E-33
   2.940000     -7.7076856E-33
   2.950000     -1.1505559E-32
   2.960000     -1.5587253E-32
   2.970000     -1.9948348E-32
   2.980000     -2.4581923E-32
   2.990000     -2.9478330E-32
   3.000000     -3.4625047E-32
   3.010000     -4.0006504E-32
   3.020000     -4.5603920E-32
   3.030000     -5.1395082E-32
   3.040000     -5.7354233E-32
   3.050000     -6.3451904E-32
   3.060000     -6.9654829E-32
   3.070000     -7.5926485E-32
   3.080000     -8.2224884E-32
   3.090000     -8.8503998E-32
   3.100000     -9.4715081E-32
   3.110000     -1.0080467E-31
   3.120000     -1.0671524E-31
   3.130000     -1.1238523E-31
   3.140000     -1.1774922E-31
   3.150000     -1.2273798E-31
   3.160000     -1.2727886E-31
   3.170000     -1.3129583E-31
   3.180000     -1.3470955E-31
   3.190000     -1.3743801E-31
   3.200000     -1.3939650E-31
   3.210000     -1.4049808E-31
   3.220000     -1.4065435E-31
   3.230000     -1.3977549E-31
   3.240000     -1.3777099E-31
   3.250000     -1.3455017E-31
   3.260000     -1.3002281E-31
   3.270000     -1.2409985E-31
   3.280000     -1.1669418E-31
   3.290000     -1.0772139E-31
   3.300000     -9.7100612E-32
   3.310000     -8.4755423E-32
   3.320000     -7.0614737E-32
   3.330000     -5.4613779E-32
   3.340000     -3.6695084E-32
   3.350000     -1.6809465E-32
   3.360000      5.0829371E-33
   3.370000      2.9011615E-32
   3.380000      5.4994633E-32
   3.390000      8.3037515E-32
   3.400000      1.1313217E-31
   3.410000      1.4525578E-31
   3.420000      1.7936971E-31
   3.430000      2.1541837E-31
   3.440000      2.5332820E-31
   3.450000      2.9300638E-31
   3.460000      3.3433989E-31
   3.470000      3.7719463E-31
   3.480000      4.2141425E-31
   3.490000      4.6681904E-31
   3.500000      5.1320574E-31
   3.510000      5.6034636E-31
   3.520000      6.0798698E-31
   3.530000      6.5584808E-31
   3.540000      7.0362365E-31
   3.550000      7.5098074E-31
   3.560000      7.9755966E-31
   3.570000      8.4297361E-31
   3.580000      8.8680902E-31
   3.590000      9.2862577E-31
   3.600000      9.6795800E-31
   3.610000      1.0043141E-30
   3.620000      1.0371781E-30
   3.630000      1.0660111E-30
   3.640000      1.0902520E-30
   3.650000      1.1093198E-30
   3.660000      1.1226150E-30
   3.670000      1.1295219E-30
   3.680000      1.1294114E-30
   3.690000      1.1216431E-30
   3.700000      1.1055691E-30
   3.710000      1.0805369E-30
   3.720000      1.0458928E-30
   3.730000      1.0009868E-30
   3.740000      9.4517570E-31
   3.750000      8.7782843E-31
   3.760000      7.9833059E-31
   3.770000      7.0608950E-31
   3.780000      6.0053980E-31
   3.790000      4.8114907E-31
   3.800000      3.4742342E-31
   3.810000      1.9891414E-31
   3.820000      3.5223906E-32
   3.830000     -1.4398655E-31
   3.840000     -3.3899155E-31
   3.850000     -5.4999331E-31
   3.860000     -7.7711471E-31
   3.870000     -1.0203918E-30
   3.880000     -1.2797664E-30
   3.890000     -1.5550782E-30
   3.900000     -1.8460573E-30
   3.910000     -2.1523162E-30
   3.920000     -2.4733421E-30
   3.930000     -2.8084888E-30
   3.940000     -3.1569704E-30
   3.950000     -3.5178521E-30
   3.960000     -3.8900441E-30
   3.970000     -4.2722949E-30
   3.980000     -4.6631835E-30
   3.990000     -5.0611137E-30
   4.000000     -5.4643086E-30
   4.010000     -5.8708047E-30
   4.020000     -6.2784477E-30
   4.030000     -6.6848878E-30
   4.040000     -7.0875772E-30
   4.050000     -7.4837658E-30
   4.060000     -7.8705023E-30
   4.070000     -8.2446315E-30
   4.080000     -8.6027935E-30
   4.090000     -8.9414277E-30
   4.100000     -9.2567731E-30
   4.110000     -9.5448757E-30
   4.120000     -9.8015894E-30
   4.130000     -1.0022585E-29
   4.140000     -1.0203357E-29
   4.150000     -1.0339237E-29
   4.160000     -1.0425400E-29
   4.170000     -1.0456880E-29
   4.180000     -1.0428586E-29
   4.190000     -1.0335317E-29
   4.200000     -1.0171781E-29
   4.210000     -9.9326143E-30
   4.220000     -9.6124081E-30
   4.230000     -9.2057277E-30
   4.240000     -8.7071443E-30
   4.250000     -8.1112608E-30
   4.260000     -7.4127441E-30
   4.270000     -6.6063595E-30
   4.280000     -5.6870052E-30
   4.290000     -4.6497475E-30
   4.300000     -3.4898674E-30
   4.310000     -2.2028992E-30
   4.320000     -7.8467252E-31
   4.330000      7.6863789E-31
   4.340000      2.4604609E-30
   4.350000      4.2937822E-30
   4.360000      6.2710905E-30
   4.370000      8.3943229E-30
   4.380000      1.0664807E-29
   4.390000      1.3083206E-29
   4.400000      1.5649455E-29
   4.410000      1.8362705E-29
   4.420000      2.1221258E-29
   4.430000      2.4222504E-29
   4.440000      2.7362854E-29
   4.450000      3.0637691E-29
   4.460000      3.4041287E-29
   4.470000      3.7566753E-29
   4.480000      4.1205966E-29
   4.490000      4.4949520E-29
   4.500000      4.8786640E-29
   4.510000      5.2705149E-29
   4.520000      5.6691397E-29
   4.530000      6.0730211E-29
   4.540000      6.4804822E-29
   4.550000      6.8896846E-29
   4.560000      7.2986215E-29
   4.570000      7.7051143E-29
   4.580000      8.1068097E-29
   4.590000      8.5011733E-29
   4.600000      8.8854921E-29
   4.610000      9.2568673E-29
   4.620000      9.6122164E-29
   4.630000      9.9482720E-29
   4.640000      1.0261581E-28
   4.650000      1.0548506E-28
   4.660000      1.0805229E-28
   4.670000      1.1027752E-28
   4.680000      1.1211907E-28
   4.690000      1.1353351E-28
   4.700000      1.1447583E-28
   4.710000      1.1489945E-28
   4.720000      1.1475634E-28
   4.730000      1.1399718E-28
   4.740000      1.1257135E-28
   4.750000      1.1042719E-28
   4.760000      1.0751213E-28
   4.770000      1.0377278E-28
   4.780000      9.9155245E-29
   4.790000      9.3605233E-29
   4.800000      8.7068320E-29
   4.810000      7.9490189E-29
   4.820000      7.0816895E-29
   4.830000      6.0995134E-29
   4.840000      4.9972571E-29
   4.850000      3.7698144E-29
   4.860000      2.4122409E-29
   4.870000      9.1979262E-30
   4.880000     -7.1203759E-30
   4.890000     -2.4874785E-29
   4.900000     -4.4104370E-29
   4.910000     -6.4844563E-29
   4.920000     -8.7126645E-29
   4.930000     -1.1097728E-28
   4.940000     -1.3641806E-28
   4.950000     -1.6346487E-28
   4.960000     -1.9212744E-28
   4.970000     -2.2240870E-28
   4.980000     -2.5430434E-28
   4.990000     -2.8780199E-28
   5.000000     -3.2288090E-28
   5.010000     -3.5951108E-28
   5.020000     -3.9765275E-28
   5.030000     -4.3725582E-28
   5.040000     -4.7825911E-28
   5.050000     -5.2058975E-28
   5.060000     -5.6416256E-28
   5.070000     -6.0887933E-28
   5.080000     -6.5462840E-28
   5.090000     -7.0128367E-28
   5.100000     -7.4870430E-28
   5.110000     -7.9673401E-28
   5.120000     -8.4520042E-28
   5.130000     -8.9391451E-28
   5.140000     -9.4267029E-28
   5.150000     -9.9124408E-28
   5.160000     -1.0393938E-27
   5.170000     -1.0868593E-27
   5.180000     -1.1333611E-27
   5.190000     -1.1786009E-27
   5.200000     -1.2222604E-27
   5.210000     -1.2640021E-27
   5.220000     -1.3034681E-27
   5.230000     -1.3402809E-27
   5.240000     -1.3740432E-27
   5.250000     -1.4043376E-27
   5.260000     -1.4307270E-27
   5.270000     -1.4527554E-27
   5.280000     -1.4699476E-27
   5.290000     -1.4818099E-27
   5.300000     -1.4878310E-27
   5.310000     -1.4874826E-27
   5.320000     -1.4802201E-27
   5.330000     -1.4654842E-27
   5.340000     -1.4427014E-27
   5.350000     -1.4112856E-27
   5.360000     -1.3706401E-27
   5.370000     -1.3201585E-27
   5.380000     -1.2592272E-27
   5.390000     -1.1872268E-27
   5.400000     -1.1035347E-27
   5.410000     -1.0075277E-27
   5.420000     -8.9858431E-28
   5.430000     -7.7608751E-28
   5.440000     -6.3942800E-28
   5.450000     -4.8800758E-28
   5.460000     -3.2124194E-28
   5.470000     -1.3856493E-28
   5.480000      6.0567861E-29
   5.490000      2.7667469E-28
   5.500000      5.1024379E-28
   5.510000      7.6172869E-28
   5.520000      1.0315430E-27
   5.530000      1.3200560E-27
   5.540000      1.6275870E-27
   5.550000      1.9544012E-27
   5.560000      2.3007022E-27
   5.570000      2.6666274E-27
   5.580000      3.0522421E-27
   5.590000      3.4575327E-27
   5.600000      3.8824017E-27
   5.610000      4.3266594E-27
   5.620000      4.7900189E-27
   5.630000      5.2720888E-27
   5.640000      5.7723660E-27
   5.650000      6.2902309E-27
   5.660000      6.8249364E-27
   5.670000      7.3756068E-27
   5.680000      7.9412239E-27
   5.690000      8.5206268E-27
   5.700000      9.1125013E-27
   5.710000      9.7153729E-27
   5.720000      1.0327602E-26
   5.730000      1.0947376E-26
   5.740000      1.1572705E-26
   5.750000      1.2201411E-26
   5.760000      1.2831129E-26
   5.770000      1.3459298E-26
   5.780000      1.4083152E-26
   5.790000      1.4699723E-26
   5.800000      1.5305832E-26
   5.810000      1.5898088E-26
   5.820000      1.6472881E-26
   5.830000      1.7026384E-26
   5.840000      1.7554548E-26
   5.850000      1.8053103E-26
   5.860000      1.8517561E-26
   5.870000      1.8943205E-26
   5.880000      1.9325108E-26
   5.890000      1.9658119E-26
   5.900000      1.9936880E-26
   5.910000      2.0155821E-26
   5.920000      2.0309176E-26
   5.930000      2.0390981E-26
   5.940000      2.0395088E-26
   5.950000      2.0315179E-26
   5.960000      2.0144765E-26
   5.970000      1.9877212E-26
   5.980000      1.9505752E-26
   5.990000      1.9023499E-26
   6.000000      1.8423464E-26
   6.010000      1.7698583E-26
   6.020000      1.6841732E-26
   6.030000      1.5845755E-26
   6.040000      1.4703488E-26
   6.050000      1.3407783E-26
   6.060000      1.1951552E-26
   6.070000      1.0327785E-26
   6.080000      8.5295894E-27
   6.090000      6.5502241E-27
   6.100000      4.3831419E-27
   6.110000      2.0220238E-27
   6.120000     -5.3917068E-28
   6.130000     -3.3061630E-27
   6.140000     -6.2843125E-27
   6.150000     -9.4785559E-27
   6.160000     -1.2893365E-26
   6.170000     -1.6532690E-26
   6.180000     -2.0399908E-26
   6.190000     -2.4497763E-26
   6.200000     -2.8828302E-26
   6.210000     -3.3392830E-26
   6.220000     -3.8191823E-26
   6.230000     -4.3224888E-26
   6.240000     -4.8490682E-26
   6.250000     -5.3986861E-26
   6.260000     -5.9709997E-26
   6.270000     -6.5655519E-26
   6.280000     -7.1817632E-26
   6.290000     -7.8189274E-26
   6.300000     -8.4762013E-26
   6.310000     -9.1526003E-26
   6.320000     -9.8469914E-26
   6.330000     -1.0558085E-25
   6.340000     -1.1284427E-25
   6.350000     -1.2024397E-25
   6.360000     -1.2776196E-25
   6.370000     -1.3537847E-25
   6.380000     -1.4307177E-25
   6.390000     -1.5081830E-25
   6.400000     -1.5859240E-25
   6.410000     -1.6636643E-25
   6.420000     -1.7411065E-25
   6.430000     -1.8179317E-25
   6.440000     -1.8937993E-25
   6.450000     -1.9683467E-25
   6.460000     -2.0411893E-25
   6.470000     -2.1119199E-25
   6.480000     -2.1801086E-25
   6.490000     -2.2453025E-25
   6.500000     -2.3070272E-25
   6.510000     -2.3647841E-25
   6.520000     -2.4180542E-25
   6.530000     -2.4662955E-25
   6.540000     -2.5089447E-25
   6.550000     -2.5454177E-25
   6.560000     -2.5751097E-25
   6.570000     -2.5973965E-25
   6.580000     -2.6116359E-25
   6.590000     -2.6171671E-25
   6.600000     -2.6133133E-25
   6.610000     -2.5993825E-25
   6.620000     -2.5746689E-25
   6.630000     -2.5384553E-25
   6.640000     -2.4900136E-25
   6.650000     -2.4286072E-25
   6.660000     -2.3534935E-25
   6.670000     -2.2639270E-25
   6.680000     -2.1591596E-25
   6.690000     -2.0384446E-25
   6.700000     -1.9010397E-25
   6.710000     -1.7462094E-25
   6.720000     -1.5732283E-25
   6.730000     -1.3813851E-25
   6.740000     -1.1699855E-25
   6.750000     -9.3835596E-26
   6.760000     -6.8584818E-26
   6.770000     -4.1184262E-26
   6.780000     -1.1575309E-26
   6.790000      2.0296880E-26
   6.800000      5.4482845E-26
   6.810000      9.1028398E-26
   6.820000      1.2997413E-25
   6.830000      1.7135481E-25
   6.840000      2.1519906E-25
   6.850000      2.6152857E-25
   6.860000      3.1035765E-25
   6.870000      3.6169265E-25
   6.880000      4.1553140E-25
   6.890000      4.7186257E-25
   6.900000      5.3066510E-25
   6.910000      5.9190753E-25
   6.920000      6.5554765E-25
   6.930000      7.2153153E-25
   6.940000      7.8979309E-25
   6.950000      8.6025351E-25
   6.960000      9.3282053E-25
   6.970000      1.0073879E-24
   6.980000      1.0838346E-24
   6.990000      1.1620249E-24
   7.000000      1.2418070E-24
   7.010000      1.3230127E-24
   7.020000      1.4054573E-24
   7.030000      1.4889385E-24
   7.040000      1.5732363E-24
   7.050000      1.6581127E-24
   7.060000      1.7433104E-24