  -2.600000      0.0000000E+00
  -2.590000      0.0000000E+00
  -2.580000      0.0000000E+00
  -2.570000      0.0000000E+00
  -2.560000      0.0000000E+00
  -2.550000      0.0000000E+00
  -2.540000      0.0000000E+00
  -2.530000      0.0000000E+00
  -2.520000      0.0000000E+00
  -2.510000      0.0000000E+00
  -2.500000      0.0000000E+00
  -2.490000      0.0000000E+00
  -2.480000      0.0000000E+00
  -2.470000      0.0000000E+00
  -2.460000      0.0000000E+00
  -2.450000      0.0000000E+00
  -2.440000      0.0000000E+00
  -2.430000      0.0000000E+00
  -2.420000      0.0000000E+00
  -2.410000      0.0000000E+00
  -2.400000      0.0000000E+00
  -2.390000      0.0000000E+00
  -2.380000      0.0000000E+00
  -2.370000      0.0000000E+00
  -2.360000      0.0000000E+00
  -2.350000      0.0000000E+00
  -2.340000      0.0000000E+00
  -2.330000      0.0000000E+00
  -2.320000      0.0000000E+00
  -2.310000      0.0000000E+00
  -2.300000      0.0000000E+00
  -2.290000      0.0000000E+00
  -2.280000      0.0000000E+00
  -2.270000      0.0000000E+00
  -2.260000      0.0000000E+00
  -2.250000      0.0000000E+00
  -2.240000      0.0000000E+00
  -2.230000      0.0000000E+00
  -2.220000      0.0000000E+00
  -2.210000      0.0000000E+00
  -2.200000      0.0000000E+00
  -2.190000      0.0000000E+00
  -2.180000      0.0000000E+00
  -2.170000      0.0000000E+00
  -2.160000      0.0000000E+00
  -2.150000      0.0000000E+00
  -2.140000      0.0000000E+00
  -2.130000      0.0000000E+00
  -2.120000      0.0000000E+00
  -2.110000      0.0000000E+00
  -2.100000      0.0000000E+00
  -2.090000      0.0000000E+00
  -2.080000      0.0000000E+00
  -2.070000      0.0000000E+00
  -2.060000      0.0000000E+00
  -2.050000      0.0000000E+00
  -2.040000      0.0000000E+00
  -2.030000      0.0000000E+00
  -2.020000      0.0000000E+00
  -2.010000      0.0000000E+00
  -2.000000      0.0000000E+00
  -1.990000      0.0000000E+00
  -1.980000      0.0000000E+00
  -1.970000      0.0000000E+00
  -1.960000      0.0000000E+00
  -1.950000      0.0000000E+00
  -1.940000      0.0000000E+00
  -1.930000      0.0000000E+00
  -1.920000      0.0000000E+00
  -1.910000      0.0000000E+00
  -1.900000      0.0000000E+00
  -1.890000      0.0000000E+00
  -1.880000      0.0000000E+00
  -1.870000      0.0000000E+00
  -1.860000      0.0000000E+00
  -1.850000      0.0000000E+00
  -1.840000      0.0000000E+00
  -1.830000      0.0000000E+00
  -1.820000      0.0000000E+00
  -1.810000      0.0000000E+00
  -1.800000      0.0000000E+00
  -1.790000      0.0000000E+00
  -1.780000      0.0000000E+00
  -1.770000      0.0000000E+00
  -1.760000      0.0000000E+00
  -1.750000      0.0000000E+00
  -1.740000      0.0000000E+00
  -1.730000      0.0000000E+00
  -1.720000      0.0000000E+00
  -1.710000      0.0000000E+00
  -1.700000      0.0000000E+00
  -1.690000      0.0000000E+00
  -1.680000      0.0000000E+00
  -1.670000      0.0000000E+00
  -1.660000      0.0000000E+00
  -1.650000      0.0000000E+00
  -1.640000      0.0000000E+00
  -1.630000      0.0000000E+00
  -1.620000      0.0000000E+00
  -1.610000      0.0000000E+00
  -1.600000      0.0000000E+00
  -1.590000      0.0000000E+00
  -1.580000      0.0000000E+00
  -1.570000      0.0000000E+00
  -1.560000      0.0000000E+00
  -1.550000      0.0000000E+00
  -1.540000      0.0000000E+00
  -1.530000      0.0000000E+00
  -1.520000      0.0000000E+00
  -1.510000      0.0000000E+00
  -1.500000      0.0000000E+00
  -1.490000      0.0000000E+00
  -1.480000      0.0000000E+00
  -1.470000      0.0000000E+00
  -1.460000      0.0000000E+00
  -1.450000      0.0000000E+00
  -1.440000      0.0000000E+00
  -1.430000      0.0000000E+00
  -1.420000      0.0000000E+00
  -1.410000      0.0000000E+00
  -1.400000      0.0000000E+00
  -1.390000      0.0000000E+00
  -1.380000      0.0000000E+00
  -1.370000      0.0000000E+00
  -1.360000      0.0000000E+00
  -1.350000      0.0000000E+00
  -1.340000      0.0000000E+00
  -1.330000      0.0000000E+00
  -1.320000      0.0000000E+00
  -1.310000      0.0000000E+00
  -1.300000      0.0000000E+00
  -1.290000      0.0000000E+00
  -1.280000      0.0000000E+00
  -1.270000      0.0000000E+00
  -1.260000      0.0000000E+00
  -1.250000      0.0000000E+00
  -1.240000      0.0000000E+00
  -1.230000      0.0000000E+00
  -1.220000      0.0000000E+00
  -1.210000      0.0000000E+00
  -1.200000      0.0000000E+00
  -1.190000      0.0000000E+00
  -1.180000      0.0000000E+00
  -1.170000      0.0000000E+00
  -1.160000      0.0000000E+00
  -1.150000      0.0000000E+00
  -1.140000      0.0000000E+00
  -1.130000      0.0000000E+00
  -1.120000      0.0000000E+00
  -1.110000      0.0000000E+00
  -1.100000      0.0000000E+00
  -1.090000      0.0000000E+00
  -1.080000      0.0000000E+00
  -1.070000      0.0000000E+00
  -1.060000      0.0000000E+00
  -1.050000      0.0000000E+00
  -1.040000      0.0000000E+00
  -1.030000      0.0000000E+00
  -1.020000      0.0000000E+00
  -1.010000      0.0000000E+00
  -1.000000      0.0000000E+00
 -0.9900000      0.0000000E+00
 -0.9800000      0.0000000E+00
 -0.9700000      0.0000000E+00
 -0.9600000      0.0000000E+00
 -0.9500000      0.0000000E+00
 -0.9400000      0.0000000E+00
 -0.9300000      0.0000000E+00
 -0.9200000      0.0000000E+00
 -0.9100000      0.0000000E+00
 -0.9000000      0.0000000E+00
 -0.8900000      0.0000000E+00
 -0.8800000      0.0000000E+00
 -0.8700000      0.0000000E+00
 -0.8600000      0.0000000E+00
 -0.8500000      0.0000000E+00
 -0.8400000      0.0000000E+00
 -0.8300000      0.0000000E+00
 -0.8200000      0.0000000E+00
 -0.8100000      0.0000000E+00
 -0.8000000      0.0000000E+00
 -0.7900000      0.0000000E+00
 -0.7800000      0.0000000E+00
 -0.7700000      0.0000000E+00
 -0.7600000      0.0000000E+00
 -0.7500000      0.0000000E+00
 -0.7400000      0.0000000E+00
 -0.7300000      0.0000000E+00
 -0.7200000      0.0000000E+00
 -0.7100000      0.0000000E+00
 -0.7000000      0.0000000E+00
 -0.6900000      0.0000000E+00
 -0.6800000      0.0000000E+00
 -0.6700000      0.0000000E+00
 -0.6600000      0.0000000E+00
 -0.6500000      0.0000000E+00
 -0.6400000      0.0000000E+00
 -0.6300000      0.0000000E+00
 -0.6200000      0.0000000E+00
 -0.6100000      0.0000000E+00
 -0.6000000      0.0000000E+00
 -0.5900000      0.0000000E+00
 -0.5800000      0.0000000E+00
 -0.5700000      0.0000000E+00
 -0.5600000      0.0000000E+00
 -0.5500000      0.0000000E+00
 -0.5400000      0.0000000E+00
 -0.5300000      0.0000000E+00
 -0.5200000      0.0000000E+00
 -0.5100000      0.0000000E+00
 -0.5000000      0.0000000E+00
 -0.4900000      0.0000000E+00
 -0.4800000      0.0000000E+00
 -0.4700000      0.0000000E+00
 -0.4600000      0.0000000E+00
 -0.4500000      0.0000000E+00
 -0.4400000      0.0000000E+00
 -0.4300000      0.0000000E+00
 -0.4200000      0.0000000E+00
 -0.4100000      0.0000000E+00
 -0.4000000      0.0000000E+00
 -0.3900000      0.0000000E+00
 -0.3800000      0.0000000E+00
 -0.3700000      0.0000000E+00
 -0.3600000      0.0000000E+00
 -0.3500000      0.0000000E+00
 -0.3400000      0.0000000E+00
 -0.3300000      0.0000000E+00
 -0.3200000      0.0000000E+00
 -0.3100000      0.0000000E+00
 -0.3000000      0.0000000E+00
 -0.2900000      0.0000000E+00
 -0.2800000      0.0000000E+00
 -0.2700000      0.0000000E+00
 -0.2600000      0.0000000E+00
 -0.2500000      0.0000000E+00
 -0.2400000      0.0000000E+00
 -0.2300000      0.0000000E+00
 -0.2200000      0.0000000E+00
 -0.2100000      0.0000000E+00
 -0.2000000      0.0000000E+00
 -0.1900000      0.0000000E+00
 -0.1800000      0.0000000E+00
 -0.1700000      0.0000000E+00
 -0.1600000      0.0000000E+00
 -0.1500000      0.0000000E+00
 -0.1400000      0.0000000E+00
 -0.1300000      0.0000000E+00
 -0.1200000      0.0000000E+00
 -0.1100000      0.0000000E+00
 -0.1000000      0.0000000E+00
 -9.0000004E-02  0.0000000E+00
 -7.9999998E-02  0.0000000E+00
 -7.0000000E-02  0.0000000E+00
 -5.9999999E-02  0.0000000E+00
 -5.0000001E-02  0.0000000E+00
 -3.9999999E-02  0.0000000E+00
 -2.9999999E-02  0.0000000E+00
 -2.0000000E-02  0.0000000E+00
 -9.9999998E-03  0.0000000E+00
 -3.4694470E-17  0.0000000E+00
  9.9999998E-03  0.0000000E+00
  2.0000000E-02  0.0000000E+00
  2.9999999E-02  0.0000000E+00
  3.9999999E-02  0.0000000E+00
  5.0000001E-02  0.0000000E+00
  5.9999999E-02  0.0000000E+00
  7.0000000E-02  0.0000000E+00
  7.9999998E-02  0.0000000E+00
  9.0000004E-02  0.0000000E+00
  0.1000000      0.0000000E+00
  0.1100000      0.0000000E+00
  0.1200000      0.0000000E+00
  0.1300000      0.0000000E+00
  0.1400000      0.0000000E+00
  0.1500000      0.0000000E+00
  0.1600000      0.0000000E+00
  0.1700000      0.0000000E+00
  0.1800000      0.0000000E+00
  0.1900000      0.0000000E+00
  0.2000000      0.0000000E+00
  0.2100000      0.0000000E+00
  0.2200000      0.0000000E+00
  0.2300000      0.0000000E+00
  0.2400000      0.0000000E+00
  0.2500000      0.0000000E+00
  0.2600000      0.0000000E+00
  0.2700000      0.0000000E+00
  0.2800000      0.0000000E+00
  0.2900000      0.0000000E+00
  0.3000000      0.0000000E+00
  0.3100000      0.0000000E+00
  0.3200000      0.0000000E+00
  0.3300000      0.0000000E+00
  0.3400000      0.0000000E+00
  0.3500000      0.0000000E+00
  0.3600000      0.0000000E+00
  0.3700000      0.0000000E+00
  0.3800000      0.0000000E+00
  0.3900000      0.0000000E+00
  0.4000000      0.0000000E+00
  0.4100000      0.0000000E+00
  0.4200000      0.0000000E+00
  0.4300000      0.0000000E+00
  0.4400000      0.0000000E+00
  0.4500000      0.0000000E+00
  0.4600000      0.0000000E+00
  0.4700000      0.0000000E+00
  0.4800000      0.0000000E+00
  0.4900000      0.0000000E+00
  0.5000000      0.0000000E+00
  0.5100000      0.0000000E+00
  0.5200000      0.0000000E+00
  0.5300000      0.0000000E+00
  0.5400000      0.0000000E+00
  0.5500000      0.0000000E+00
  0.5600000      0.0000000E+00
  0.5700000      0.0000000E+00
  0.5800000      0.0000000E+00
  0.5900000      0.0000000E+00
  0.6000000      0.0000000E+00
  0.6100000      0.0000000E+00
  0.6200000      0.0000000E+00
  0.6300000      0.0000000E+00
  0.6400000      0.0000000E+00
  0.6500000      0.0000000E+00
  0.6600000      0.0000000E+00
  0.6700000      0.0000000E+00
  0.6800000      0.0000000E+00
  0.6900000      0.0000000E+00
  0.7000000      0.0000000E+00
  0.7100000      0.0000000E+00
  0.7200000      0.0000000E+00
  0.7300000      0.0000000E+00
  0.7400000      0.0000000E+00
  0.7500000      0.0000000E+00
  0.7600000      0.0000000E+00
  0.7700000      0.0000000E+00
  0.7800000      0.0000000E+00
  0.7900000      0.0000000E+00
  0.8000000      0.0000000E+00
  0.8100000      0.0000000E+00
  0.8200000      0.0000000E+00
  0.8300000      0.0000000E+00
  0.8400000      0.0000000E+00
  0.8500000      0.0000000E+00
  0.8600000      1.2572524E-38
  0.8700000      2.1919764E-38
  0.8800000      3.2473279E-38
  0.8900000      4.3592361E-38
  0.9000000      5.2902683E-38
  0.9100000      5.9508191E-38
  0.9200000      6.4192614E-38
  0.9300000      6.3585605E-38
  0.9400000      5.7309038E-38
  0.9500000      4.7735737E-38
  0.9600000      3.5457501E-38
  0.9700000      1.8075503E-38
  0.9800000      0.0000000E+00
  0.9900000     -3.5948986E-38
   1.000000     -6.7680552E-38
   1.010000     -1.0114829E-37
   1.020000     -1.3528503E-37
   1.030000     -1.7106566E-37
   1.040000     -2.0697414E-37
   1.050000     -2.4159069E-37
   1.060000     -2.8695694E-37
   1.070000     -3.4657059E-37
   1.080000     -4.1588534E-37
   1.090000     -4.9429424E-37
   1.100000     -5.7799423E-37
   1.110000     -6.5672016E-37
   1.120000     -7.3242813E-37
   1.130000     -8.2958044E-37
   1.140000     -9.4649590E-37
   1.150000     -1.0159987E-36
   1.160000     -1.0215651E-36
   1.170000     -9.9617595E-37
   1.180000     -9.4009038E-37
   1.190000     -8.5649999E-37
   1.200000     -7.4411778E-37
   1.210000     -6.1621676E-37
   1.220000     -4.7858733E-37
   1.230000     -3.3062935E-37
   1.240000     -1.8648546E-37
   1.250000     -1.2605049E-37
   1.260000     -2.4561995E-37
   1.270000     -4.9411838E-37
   1.280000     -7.1504839E-37
   1.290000     -9.6553446E-37
   1.300000     -1.2617090E-36
   1.310000     -1.2239178E-36
   1.320000     -7.8042630E-37
   1.330000     -2.2599054E-37
   1.340000      3.2355172E-37
   1.350000      8.6048855E-37
   1.360000      1.1100194E-36
   1.370000      9.5006045E-37
   1.380000      6.4046021E-37
   1.390000      3.3795646E-37
   1.400000      0.0000000E+00
   1.410000      6.2038157E-38
   1.420000      8.0604939E-37
   1.430000      1.9448688E-36
   1.440000      3.4908563E-36
   1.450000      5.2947472E-36
   1.460000      7.1456367E-36
   1.470000      8.9868581E-36
   1.480000      1.0726343E-35
   1.490000      1.2307084E-35
   1.500000      1.3738085E-35
   1.510000      1.4884119E-35
   1.520000      1.6039734E-35
   1.530000      1.7459597E-35
   1.540000      1.8970728E-35
   1.550000      2.0483666E-35
   1.560000      2.2087743E-35
   1.570000      2.3733815E-35
   1.580000      2.5329349E-35
   1.590000      2.6478363E-35
   1.600000      2.7460042E-35
   1.610000      2.8639307E-35
   1.620000      2.9015267E-35
   1.630000      2.8529790E-35
   1.640000      2.7375668E-35
   1.650000      2.5190106E-35
   1.660000      2.1963768E-35
   1.670000      1.8077279E-35
   1.680000      1.3559897E-35
   1.690000      8.1642782E-36
   1.700000      2.4424509E-36
   1.710000     -3.3736143E-36
   1.720000     -9.4651833E-36
   1.730000     -1.5761082E-35
   1.740000     -2.2288679E-35
   1.750000     -2.9453053E-35
   1.760000     -3.7394923E-35
   1.770000     -4.7182176E-35
   1.780000     -5.9339202E-35
   1.790000     -7.2987443E-35
   1.800000     -8.8762985E-35
   1.810000     -1.0702416E-34
   1.820000     -1.2643545E-34
   1.830000     -1.4647337E-34
   1.840000     -1.6753486E-34
   1.850000     -1.8901465E-34
   1.860000     -2.0810800E-34
   1.870000     -2.2230479E-34
   1.880000     -2.2961537E-34
   1.890000     -2.3132321E-34
   1.900000     -2.3222554E-34
   1.910000     -2.2396636E-34
   1.920000     -2.0499106E-34
   1.930000     -1.8420075E-34
   1.940000     -1.6346871E-34
   1.950000     -1.3989391E-34
   1.960000     -1.1398792E-34
   1.970000     -1.0370956E-34
   1.980000     -1.0875878E-34
   1.990000     -1.2511115E-34
   2.000000     -1.5263711E-34
   2.010000     -1.8951866E-34
   2.020000     -2.3378307E-34
   2.030000     -2.7468332E-34
   2.040000     -3.0620023E-34
   2.050000     -3.0575866E-34
   2.060000     -2.7952167E-34
   2.070000     -2.4291751E-34
   2.080000     -1.8958861E-34
   2.090000     -1.0647964E-34
   2.100000      1.0603042E-35
   2.110000      1.4172681E-34
   2.120000      2.7723463E-34
   2.130000      4.1493242E-34
   2.140000      5.4504468E-34
   2.150000      6.5911644E-34
   2.160000      7.6102749E-34
   2.170000      8.5290096E-34
   2.180000      9.3000273E-34
   2.190000      9.9743405E-34
   2.200000      1.0608001E-33
   2.210000      1.1219586E-33
   2.220000      1.1901513E-33
   2.230000      1.2806540E-33
   2.240000      1.3992854E-33
   2.250000      1.5404016E-33
   2.260000      1.7016994E-33
   2.270000      1.8774840E-33
   2.280000      2.0578155E-33
   2.290000      2.2325626E-33
   2.300000      2.3916470E-33
   2.310000      2.5274556E-33
   2.320000      2.6334673E-33
   2.330000      2.7042448E-33
   2.340000      2.7308027E-33
   2.350000      2.7169882E-33
   2.360000      2.6675038E-33
   2.370000      2.5824808E-33
   2.380000      2.4650616E-33
   2.390000      2.3225225E-33
   2.400000      2.1621802E-33
   2.410000      1.9844374E-33
   2.420000      1.7899759E-33
   2.430000      1.5742380E-33
   2.440000      1.3367999E-33
   2.450000      1.0724751E-33
   2.460000      7.6945518E-34
   2.470000      4.1733700E-34
   2.480000      7.2944310E-36
   2.490000     -4.6893041E-34
   2.500000     -1.0173944E-33
   2.510000     -1.6391619E-33
   2.520000     -2.3352154E-33
   2.530000     -3.1000754E-33
   2.540000     -3.9232528E-33
   2.550000     -4.7984080E-33
   2.560000     -5.7160437E-33
   2.570000     -6.6647238E-33
   2.580000     -7.6342069E-33
   2.590000     -8.6160143E-33
   2.600000     -9.6031710E-33
   2.610000     -1.0592572E-32
   2.620000     -1.1584427E-32
   2.630000     -1.2576442E-32
   2.640000     -1.3567585E-32
   2.650000     -1.4559788E-32
   2.660000     -1.5552447E-32
   2.670000     -1.6542036E-32
   2.680000     -1.7522248E-32
   2.690000     -1.8483032E-32
   2.700000     -1.9409694E-32
   2.710000     -2.0286842E-32
   2.720000     -2.1095937E-32
   2.730000     -2.1813935E-32
   2.740000     -2.2414626E-32
   2.750000     -2.2880019E-32
   2.760000     -2.3193450E-32
   2.770000     -2.3332490E-32
   2.780000     -2.3280961E-32
   2.790000     -2.3025464E-32
   2.800000     -2.2557111E-32
   2.810000     -2.1865104E-32
   2.820000     -2.0939958E-32
   2.830000     -1.9776445E-32
   2.840000     -1.8367186E-32
   2.850000     -1.6703463E-32
   2.860000     -1.4774429E-32
   2.870000     -1.2567287E-32
   2.880000     -1.0067367E-32
   2.890000     -7.2587151E-33
   2.900000     -4.1250150E-33
   2.910000     -6.5080510E-34
   2.920000      3.1772676E-33
   2.930000      7.3692116E-33
   2.940000      1.1930548E-32
   2.950000      1.6861516E-32
   2.960000      2.2156637E-32
   2.970000      2.7804658E-32
   2.980000      3.3788880E-32
   2.990000      4.0087828E-32
   3.000000      4.6676124E-32
   3.010000      5.3525401E-32
   3.020000      6.0605244E-32
   3.030000      6.7883858E-32
   3.040000      7.5328570E-32
   3.050000      8.2905695E-32
   3.060000      9.0580192E-32
   3.070000      9.8315191E-32
   3.080000      1.0607082E-31
   3.090000      1.1380313E-31
   3.100000      1.2146310E-31
   3.110000      1.2899554E-31
   3.120000      1.3633817E-31
   3.130000      1.4342218E-31
   3.140000      1.5017171E-31
   3.150000      1.5650381E-31
   3.160000      1.6233032E-31
   3.170000      1.6755888E-31
   3.180000      1.7209401E-31
   3.190000      1.7583879E-31
   3.200000      1.7869663E-31
   3.210000      1.8057181E-31
   3.220000      1.8137054E-31
   3.230000      1.8100136E-31
   3.240000      1.7937527E-31
   3.250000      1.7640805E-31
   3.260000      1.7201193E-31
   3.270000      1.6610064E-31
   3.280000      1.5859464E-31
   3.290000      1.4941297E-31
   3.300000      1.3847616E-31
   3.310000      1.2570680E-31
   3.320000      1.1103067E-31
   3.330000      9.4378290E-32
   3.340000      7.5686755E-32
   3.350000      5.4901893E-32
   3.360000      3.1980394E-32
   3.370000      6.8919028E-33
   3.380000     -2.0379050E-32
   3.390000     -4.9831510E-32
   3.400000     -8.1446918E-32
   3.410000     -1.1518834E-31
   3.420000     -1.5100011E-31
   3.430000     -1.8880786E-31
   3.440000     -2.2851850E-31
   3.450000     -2.7002048E-31
   3.460000     -3.1318386E-31
   3.470000     -3.5786021E-31
   3.480000     -4.0388218E-31
   3.490000     -4.5106276E-31
   3.500000     -4.9919436E-31
   3.510000     -5.4804753E-31
   3.520000     -5.9736902E-31
   3.530000     -6.4688075E-31
   3.540000     -6.9627836E-31
   3.550000     -7.4523018E-31
   3.560000     -7.9337659E-31
   3.570000     -8.4033007E-31
   3.580000     -8.8567575E-31
   3.590000     -9.2897231E-31
   3.600000     -9.6975378E-31
   3.610000     -1.0075315E-30
   3.620000     -1.0417968E-30
   3.630000     -1.0720230E-30
   3.640000     -1.0976681E-30
   3.650000     -1.1181772E-30
   3.660000     -1.1329852E-30
   3.670000     -1.1415181E-30
   3.680000     -1.1431957E-30
   3.690000     -1.1374334E-30
   3.700000     -1.1236443E-30
   3.710000     -1.1012413E-30
   3.720000     -1.0696400E-30
   3.730000     -1.0282618E-30
   3.740000     -9.7653798E-31
   3.750000     -9.1391413E-31
   3.760000     -8.3985526E-31
   3.770000     -7.5385106E-31
   3.780000     -6.5542349E-31
   3.790000     -5.4413267E-31
   3.800000     -4.1958363E-31
   3.810000     -2.8143366E-31
   3.820000     -1.2939892E-31
   3.830000      3.6738933E-32
   3.840000      2.1712598E-31
   3.850000      4.1182993E-31
   3.860000      6.2083452E-31
   3.870000      8.4403400E-31
   3.880000      1.0812272E-30
   3.890000      1.3321115E-30
   3.900000      1.5962766E-30
   3.910000      1.8731997E-30
   3.920000      2.1622374E-30
   3.930000      2.4626200E-30
   3.940000      2.7734433E-30
   3.950000      3.0936625E-30
   3.960000      3.4220849E-30
   3.970000      3.7573626E-30
   3.980000      4.0979866E-30
   3.990000      4.4422827E-30
   4.000000      4.7884035E-30
   4.010000      5.1343272E-30
   4.020000      5.4778537E-30
   4.030000      5.8166026E-30
   4.040000      6.1480122E-30
   4.050000      6.4693424E-30
   4.060000      6.7776710E-30
   4.070000      7.0699007E-30
   4.080000      7.3427591E-30
   4.090000      7.5928005E-30
   4.100000      7.8164145E-30
   4.110000      8.0098290E-30
   4.120000      8.1691155E-30
   4.130000      8.2901978E-30
   4.140000      8.3688600E-30
   4.150000      8.4007575E-30
   4.160000      8.3814259E-30
   4.170000      8.3062996E-30
   4.180000      8.1707247E-30
   4.190000      7.9699788E-30
   4.200000      7.6992886E-30
   4.210000      7.3538543E-30
   4.220000      6.9288745E-30
   4.230000      6.4195714E-30
   4.240000      5.8212188E-30
   4.250000      5.1291750E-30
   4.260000      4.3389118E-30
   4.270000      3.4460476E-30
   4.280000      2.4463843E-30
   4.290000      1.3359438E-30
   4.300000      1.1100387E-31
   4.310000     -1.2318596E-30
   4.320000     -2.6957288E-30
   4.330000     -4.2833058E-30
   4.340000     -5.9968640E-30
   4.350000     -7.8382001E-30
   4.360000     -9.8085822E-30
   4.370000     -1.1908697E-29
   4.380000     -1.4138599E-29
   4.390000     -1.6497648E-29
   4.400000     -1.8984472E-29
   4.410000     -2.1596891E-29
   4.420000     -2.4331859E-29
   4.430000     -2.7185416E-29
   4.440000     -3.0152624E-29
   4.450000     -3.3227504E-29
   4.460000     -3.6402983E-29
   4.470000     -3.9670841E-29
   4.480000     -4.3021646E-29
   4.490000     -4.6444706E-29
   4.500000     -4.9928016E-29
   4.510000     -5.3458200E-29
   4.520000     -5.7020472E-29
   4.530000     -6.0598585E-29
   4.540000     -6.4174766E-29
   4.550000     -6.7729708E-29
   4.560000     -7.1242508E-29
   4.570000     -7.4690639E-29
   4.580000     -7.8049912E-29
   4.590000     -8.1294466E-29
   4.600000     -8.4396766E-29
   4.610000     -8.7327532E-29
   4.620000     -9.0055798E-29
   4.630000     -9.2548884E-29
   4.640000     -9.4772425E-29
   4.650000     -9.6690362E-29
   4.660000     -9.8265008E-29
   4.670000     -9.9457063E-29
   4.680000     -1.0022568E-28
   4.690000     -1.0052854E-28
   4.700000     -1.0032190E-28
   4.710000     -9.9560684E-29
   4.720000     -9.8198594E-29
   4.730000     -9.6188212E-29
   4.740000     -9.3481119E-29
   4.750000     -9.0028041E-29
   4.760000     -8.5779024E-29
   4.770000     -8.0683597E-29
   4.780000     -7.4690946E-29
   4.790000     -6.7750141E-29
   4.800000     -5.9810350E-29
   4.810000     -5.0821096E-29
   4.820000     -4.0732494E-29
   4.830000     -2.9495578E-29
   4.840000     -1.7062585E-29
   4.850000     -3.3872733E-30
   4.860000      1.1574746E-29
   4.870000      2.7865633E-29
   4.880000      4.5524973E-29
   4.890000      6.4589341E-29
   4.900000      8.5091876E-29
   4.910000      1.0706192E-28
   4.920000      1.3052444E-28
   4.930000      1.5549966E-28
   4.940000      1.8200255E-28
   4.950000      2.1004228E-28
   4.960000      2.3962165E-28
   4.970000      2.7073676E-28
   4.980000      3.0337622E-28
   4.990000      3.3752062E-28
   5.000000      3.7314202E-28
   5.010000      4.1020324E-28
   5.020000      4.4865751E-28
   5.030000      4.8844756E-28
   5.040000      5.2950526E-28
   5.050000      5.7175073E-28
   5.060000      6.1509195E-28
   5.070000      6.5942431E-28
   5.080000      7.0462944E-28
   5.090000      7.5057515E-28
   5.100000      7.9711457E-28
   5.110000      8.4408560E-28
   5.120000      8.9131046E-28
   5.130000      9.3859503E-28
   5.140000      9.8572850E-28
   5.150000      1.0324828E-27
   5.160000      1.0786119E-27
   5.170000      1.1238519E-27
   5.180000      1.1679204E-27
   5.190000      1.2105163E-27
   5.200000      1.2513195E-27
   5.210000      1.2899907E-27
   5.220000      1.3261711E-27
   5.230000      1.3594827E-27
   5.240000      1.3895285E-27
   5.250000      1.4158917E-27
   5.260000      1.4381370E-27
   5.270000      1.4558101E-27
   5.280000      1.4684384E-27
   5.290000      1.4755318E-27
   5.300000      1.4765830E-27
   5.310000      1.4710683E-27
   5.320000      1.4584483E-27
   5.330000      1.4381692E-27
   5.340000      1.4096642E-27
   5.350000      1.3723541E-27
   5.360000      1.3256496E-27
   5.370000      1.2689525E-27
   5.380000      1.2016575E-27
   5.390000      1.1231544E-27
   5.400000      1.0328294E-27
   5.410000      9.3006884E-28
   5.420000      8.1426094E-28
   5.430000      6.8479877E-28
   5.440000      5.4108284E-28
   5.450000      3.8252467E-28
   5.460000      2.0854983E-28
   5.470000      1.8601656E-29
   5.480000     -1.8785521E-28
   5.490000     -4.1132977E-28
   5.500000     -6.5230222E-28
   5.510000     -9.1121832E-28
   5.520000     -1.1884849E-27
   5.530000     -1.4844659E-27
   5.540000     -1.7994767E-27
   5.550000     -2.1337780E-27
   5.560000     -2.4875719E-27
   5.570000     -2.8609955E-27
   5.580000     -3.2541144E-27
   5.590000     -3.6669175E-27
   5.600000     -4.0993126E-27
   5.610000     -4.5511177E-27
   5.620000     -5.0220549E-27
   5.630000     -5.5117461E-27
   5.640000     -6.0197028E-27
   5.650000     -6.5453214E-27
   5.660000     -7.0878798E-27
   5.670000     -7.6465235E-27
   5.680000     -8.2202634E-27
   5.690000     -8.8079710E-27
   5.700000     -9.4083665E-27
   5.710000     -1.0020013E-26
   5.720000     -1.0641317E-26
   5.730000     -1.1270510E-26
   5.740000     -1.1905652E-26
   5.750000     -1.2544624E-26
   5.760000     -1.3185117E-26
   5.770000     -1.3824633E-26
   5.780000     -1.4460478E-26
   5.790000     -1.5089757E-26
   5.800000     -1.5709364E-26
   5.810000     -1.6315992E-26
   5.820000     -1.6906118E-26
   5.830000     -1.7476008E-26
   5.840000     -1.8021706E-26
   5.850000     -1.8539043E-26
   5.860000     -1.9023627E-26
   5.870000     -1.9470850E-26
   5.880000     -1.9875885E-26
   5.890000     -2.0233698E-26
   5.900000     -2.0539037E-26
   5.910000     -2.0786443E-26
   5.920000     -2.0970265E-26
   5.930000     -2.1084654E-26
   5.940000     -2.1123577E-26
   5.950000     -2.1080822E-26
   5.960000     -2.0950015E-26
   5.970000     -2.0724627E-26
   5.980000     -2.0397989E-26
   5.990000     -1.9963316E-26
   6.000000     -1.9413711E-26
   6.010000     -1.8742190E-26
   6.020000     -1.7941711E-26
   6.030000     -1.7005177E-26
   6.040000     -1.5925482E-26
   6.050000     -1.4695520E-26
   6.060000     -1.3308221E-26
   6.070000     -1.1756576E-26
   6.080000     -1.0033679E-26
   6.090000     -8.1327607E-27
   6.100000     -6.0472140E-27
   6.110000     -3.7706323E-27
   6.120000     -1.2968564E-27
   6.130000      1.3799796E-27
   6.140000      4.2654002E-27
   6.150000      7.3645581E-27
   6.160000      1.0682168E-26
   6.170000      1.4222467E-26
   6.180000      1.7989159E-26
   6.190000      2.1985367E-26
   6.200000      2.6213555E-26
   6.210000      3.0675503E-26
   6.220000      3.5372236E-26
   6.230000      4.0303945E-26
   6.240000      4.5469946E-26
   6.250000      5.0868608E-26
   6.260000      5.6497275E-26
   6.270000      6.2352238E-26
   6.280000      6.8428642E-26
   6.290000      7.4720424E-26
   6.300000      8.1220237E-26
   6.310000      8.7919386E-26
   6.320000      9.4807775E-26
   6.330000      1.0187384E-25
   6.340000      1.0910448E-25
   6.350000      1.1648498E-25
   6.360000      1.2399894E-25
   6.370000      1.3162827E-25
   6.380000      1.3935306E-25
   6.390000      1.4715159E-25
   6.400000      1.5500021E-25
   6.410000      1.6287335E-25
   6.420000      1.7074342E-25
   6.430000      1.7858082E-25
   6.440000      1.8635383E-25
   6.450000      1.9402866E-25
   6.460000      2.0156939E-25
   6.470000      2.0893792E-25
   6.480000      2.1609395E-25
   6.490000      2.2299500E-25
   6.500000      2.2959644E-25
   6.510000      2.3585146E-25
   6.520000      2.4171102E-25
   6.530000      2.4712399E-25
   6.540000      2.5203719E-25
   6.550000      2.5639525E-25
   6.560000      2.6014086E-25
   6.570000      2.6321481E-25
   6.580000      2.6555595E-25
   6.590000      2.6710140E-25
   6.600000      2.6778655E-25
   6.610000      2.6754531E-25
   6.620000      2.6631010E-25
   6.630000      2.6401210E-25
   6.640000      2.6058134E-25
   6.650000      2.5594698E-25
   6.660000      2.5003733E-25
   6.670000      2.4278015E-25
   6.680000      2.3410288E-25
   6.690000      2.2393289E-25
   6.700000      2.1219769E-25
   6.710000      1.9882521E-25
   6.720000      1.8374402E-25
   6.730000      1.6688383E-25
   6.740000      1.4817566E-25
   6.750000      1.2755220E-25
   6.760000      1.0494817E-25
   6.770000      8.0300728E-26
   6.780000      5.3549924E-26
   6.790000      2.4639010E-26
   6.800000     -6.4851315E-27
   6.810000     -3.9871579E-26
   6.820000     -7.5564789E-26
   6.830000     -1.1360415E-25
   6.840000     -1.5402356E-25
   6.850000     -1.9685083E-25
   6.860000     -2.4210725E-25
   6.870000     -2.8980718E-25
   6.880000     -3.3995719E-25
   6.890000     -3.9255585E-25
   6.900000     -4.4759302E-25
   6.910000     -5.0504946E-25
   6.920000     -5.6489600E-25
   6.930000     -6.2709314E-25
   6.940000     -6.9159031E-25
   6.950000     -7.5832548E-25
   6.960000     -8.2722439E-25
   6.970000     -8.9820028E-25
   6.980000     -9.7115286E-25
   6.990000     -1.0459681E-24
   7.000000     -1.1225180E-24
   7.010000     -1.2006592E-24
   7.020000     -1.2802332E-24
   7.030000     -1.3610656E-24
   7.040000     -1.4429657E-24
   7.050000     -1.5257265E-24
   7.060000     -1.6091233E-24