  -2.600000      0.0000000E+00
  -2.590000      0.0000000E+00
  -2.580000      0.0000000E+00
  -2.570000      0.0000000E+00
  -2.560000      0.0000000E+00
  -2.550000      0.0000000E+00
  -2.540000      0.0000000E+00
  -2.530000      0.0000000E+00
  -2.520000      0.0000000E+00
  -2.510000      0.0000000E+00
  -2.500000      0.0000000E+00
  -2.490000      0.0000000E+00
  -2.480000      0.0000000E+00
  -2.470000      0.0000000E+00
  -2.460000      0.0000000E+00
  -2.450000      0.0000000E+00
  -2.440000      0.0000000E+00
  -2.430000      0.0000000E+00
  -2.420000      0.0000000E+00
  -2.410000      0.0000000E+00
  -2.400000      0.0000000E+00
  -2.390000      0.0000000E+00
  -2.380000      0.0000000E+00
  -2.370000      0.0000000E+00
  -2.360000      0.0000000E+00
  -2.350000      0.0000000E+00
  -2.340000      0.0000000E+00
  -2.330000      0.0000000E+00
  -2.320000      0.0000000E+00
  -2.310000      0.0000000E+00
  -2.300000      0.0000000E+00
  -2.290000      0.0000000E+00
  -2.280000      0.0000000E+00
  -2.270000      0.0000000E+00
  -2.260000      0.0000000E+00
  -2.250000      0.0000000E+00
  -2.240000      0.0000000E+00
  -2.230000      0.0000000E+00
  -2.220000      0.0000000E+00
  -2.210000      0.0000000E+00
  -2.200000      0.0000000E+00
  -2.190000      0.0000000E+00
  -2.180000      0.0000000E+00
  -2.170000      0.0000000E+00
  -2.160000      0.0000000E+00
  -2.150000      0.0000000E+00
  -2.140000      0.0000000E+00
  -2.130000      0.0000000E+00
  -2.120000      0.0000000E+00
  -2.110000      0.0000000E+00
  -2.100000      0.0000000E+00
  -2.090000      0.0000000E+00
  -2.080000      0.0000000E+00
  -2.070000      0.0000000E+00
  -2.060000      0.0000000E+00
  -2.050000      0.0000000E+00
  -2.040000      0.0000000E+00
  -2.030000      0.0000000E+00
  -2.020000      0.0000000E+00
  -2.010000      0.0000000E+00
  -2.000000      0.0000000E+00
  -1.990000      0.0000000E+00
  -1.980000      0.0000000E+00
  -1.970000      0.0000000E+00
  -1.960000      0.0000000E+00
  -1.950000      0.0000000E+00
  -1.940000      0.0000000E+00
  -1.930000      0.0000000E+00
  -1.920000      0.0000000E+00
  -1.910000      0.0000000E+00
  -1.900000      0.0000000E+00
  -1.890000      0.0000000E+00
  -1.880000      0.0000000E+00
  -1.870000      0.0000000E+00
  -1.860000      0.0000000E+00
  -1.850000      0.0000000E+00
  -1.840000      0.0000000E+00
  -1.830000      0.0000000E+00
  -1.820000      0.0000000E+00
  -1.810000      0.0000000E+00
  -1.800000      0.0000000E+00
  -1.790000      0.0000000E+00
  -1.780000      0.0000000E+00
  -1.770000      0.0000000E+00
  -1.760000      0.0000000E+00
  -1.750000      0.0000000E+00
  -1.740000      0.0000000E+00
  -1.730000      0.0000000E+00
  -1.720000      0.0000000E+00
  -1.710000      0.0000000E+00
  -1.700000      0.0000000E+00
  -1.690000      0.0000000E+00
  -1.680000      0.0000000E+00
  -1.670000      0.0000000E+00
  -1.660000      0.0000000E+00
  -1.650000      0.0000000E+00
  -1.640000      0.0000000E+00
  -1.630000      0.0000000E+00
  -1.620000      0.0000000E+00
  -1.610000      0.0000000E+00
  -1.600000      0.0000000E+00
  -1.590000      0.0000000E+00
  -1.580000      0.0000000E+00
  -1.570000      0.0000000E+00
  -1.560000      0.0000000E+00
  -1.550000      0.0000000E+00
  -1.540000      0.0000000E+00
  -1.530000      0.0000000E+00
  -1.520000      0.0000000E+00
  -1.510000      0.0000000E+00
  -1.500000      0.0000000E+00
  -1.490000      0.0000000E+00
  -1.480000      0.0000000E+00
  -1.470000      0.0000000E+00
  -1.460000      0.0000000E+00
  -1.450000      0.0000000E+00
  -1.440000      0.0000000E+00
  -1.430000      0.0000000E+00
  -1.420000      0.0000000E+00
  -1.410000      0.0000000E+00
  -1.400000      0.0000000E+00
  -1.390000      0.0000000E+00
  -1.380000      0.0000000E+00
  -1.370000      0.0000000E+00
  -1.360000      0.0000000E+00
  -1.350000      0.0000000E+00
  -1.340000      0.0000000E+00
  -1.330000      0.0000000E+00
  -1.320000      0.0000000E+00
  -1.310000      0.0000000E+00
  -1.300000      0.0000000E+00
  -1.290000      0.0000000E+00
  -1.280000      0.0000000E+00
  -1.270000      0.0000000E+00
  -1.260000      0.0000000E+00
  -1.250000      0.0000000E+00
  -1.240000      0.0000000E+00
  -1.230000      0.0000000E+00
  -1.220000      0.0000000E+00
  -1.210000      0.0000000E+00
  -1.200000      0.0000000E+00
  -1.190000      0.0000000E+00
  -1.180000      0.0000000E+00
  -1.170000      0.0000000E+00
  -1.160000      0.0000000E+00
  -1.150000      0.0000000E+00
  -1.140000      0.0000000E+00
  -1.130000      0.0000000E+00
  -1.120000      0.0000000E+00
  -1.110000      0.0000000E+00
  -1.100000      0.0000000E+00
  -1.090000      0.0000000E+00
  -1.080000      0.0000000E+00
  -1.070000      0.0000000E+00
  -1.060000      0.0000000E+00
  -1.050000      0.0000000E+00
  -1.040000      0.0000000E+00
  -1.030000      0.0000000E+00
  -1.020000      0.0000000E+00
  -1.010000      0.0000000E+00
  -1.000000      0.0000000E+00
 -0.9900000      0.0000000E+00
 -0.9800000      0.0000000E+00
 -0.9700000      0.0000000E+00
 -0.9600000      0.0000000E+00
 -0.9500000      0.0000000E+00
 -0.9400000      0.0000000E+00
 -0.9300000      0.0000000E+00
 -0.9200000      0.0000000E+00
 -0.9100000      0.0000000E+00
 -0.9000000      0.0000000E+00
 -0.8900000      0.0000000E+00
 -0.8800000      0.0000000E+00
 -0.8700000      0.0000000E+00
 -0.8600000      0.0000000E+00
 -0.8500000      0.0000000E+00
 -0.8400000      0.0000000E+00
 -0.8300000      0.0000000E+00
 -0.8200000      0.0000000E+00
 -0.8100000      0.0000000E+00
 -0.8000000      0.0000000E+00
 -0.7900000      0.0000000E+00
 -0.7800000      0.0000000E+00
 -0.7700000      0.0000000E+00
 -0.7600000      0.0000000E+00
 -0.7500000      0.0000000E+00
 -0.7400000      0.0000000E+00
 -0.7300000      0.0000000E+00
 -0.7200000      0.0000000E+00
 -0.7100000      0.0000000E+00
 -0.7000000      0.0000000E+00
 -0.6900000      0.0000000E+00
 -0.6800000      0.0000000E+00
 -0.6700000      0.0000000E+00
 -0.6600000      0.0000000E+00
 -0.6500000      0.0000000E+00
 -0.6400000      0.0000000E+00
 -0.6300000      0.0000000E+00
 -0.6200000      0.0000000E+00
 -0.6100000      0.0000000E+00
 -0.6000000      0.0000000E+00
 -0.5900000      0.0000000E+00
 -0.5800000      0.0000000E+00
 -0.5700000      0.0000000E+00
 -0.5600000      0.0000000E+00
 -0.5500000      0.0000000E+00
 -0.5400000      0.0000000E+00
 -0.5300000      0.0000000E+00
 -0.5200000      0.0000000E+00
 -0.5100000      0.0000000E+00
 -0.5000000      0.0000000E+00
 -0.4900000      0.0000000E+00
 -0.4800000      0.0000000E+00
 -0.4700000      0.0000000E+00
 -0.4600000      0.0000000E+00
 -0.4500000      0.0000000E+00
 -0.4400000      0.0000000E+00
 -0.4300000      0.0000000E+00
 -0.4200000      0.0000000E+00
 -0.4100000      0.0000000E+00
 -0.4000000      0.0000000E+00
 -0.3900000      0.0000000E+00
 -0.3800000      0.0000000E+00
 -0.3700000      0.0000000E+00
 -0.3600000      0.0000000E+00
 -0.3500000      0.0000000E+00
 -0.3400000      0.0000000E+00
 -0.3300000      0.0000000E+00
 -0.3200000      0.0000000E+00
 -0.3100000      0.0000000E+00
 -0.3000000      0.0000000E+00
 -0.2900000      0.0000000E+00
 -0.2800000      0.0000000E+00
 -0.2700000      0.0000000E+00
 -0.2600000      0.0000000E+00
 -0.2500000      0.0000000E+00
 -0.2400000      0.0000000E+00
 -0.2300000      0.0000000E+00
 -0.2200000      0.0000000E+00
 -0.2100000      0.0000000E+00
 -0.2000000      0.0000000E+00
 -0.1900000      0.0000000E+00
 -0.1800000      0.0000000E+00
 -0.1700000      0.0000000E+00
 -0.1600000      0.0000000E+00
 -0.1500000      0.0000000E+00
 -0.1400000      0.0000000E+00
 -0.1300000      0.0000000E+00
 -0.1200000      0.0000000E+00
 -0.1100000      0.0000000E+00
 -0.1000000      0.0000000E+00
 -9.0000004E-02  0.0000000E+00
 -7.9999998E-02  0.0000000E+00
 -7.0000000E-02  0.0000000E+00
 -5.9999999E-02  0.0000000E+00
 -5.0000001E-02  0.0000000E+00
 -3.9999999E-02  0.0000000E+00
 -2.9999999E-02  0.0000000E+00
 -2.0000000E-02  0.0000000E+00
 -9.9999998E-03  0.0000000E+00
 -3.4694470E-17  0.0000000E+00
  9.9999998E-03  0.0000000E+00
  2.0000000E-02  0.0000000E+00
  2.9999999E-02  0.0000000E+00
  3.9999999E-02  0.0000000E+00
  5.0000001E-02  0.0000000E+00
  5.9999999E-02  0.0000000E+00
  7.0000000E-02  0.0000000E+00
  7.9999998E-02  0.0000000E+00
  9.0000004E-02  0.0000000E+00
  0.1000000      0.0000000E+00
  0.1100000      0.0000000E+00
  0.1200000      0.0000000E+00
  0.1300000      0.0000000E+00
  0.1400000      0.0000000E+00
  0.1500000      0.0000000E+00
  0.1600000      0.0000000E+00
  0.1700000      0.0000000E+00
  0.1800000      0.0000000E+00
  0.1900000      0.0000000E+00
  0.2000000      0.0000000E+00
  0.2100000      0.0000000E+00
  0.2200000      0.0000000E+00
  0.2300000      0.0000000E+00
  0.2400000      0.0000000E+00
  0.2500000      0.0000000E+00
  0.2600000      0.0000000E+00
  0.2700000      0.0000000E+00
  0.2800000      0.0000000E+00
  0.2900000      0.0000000E+00
  0.3000000      0.0000000E+00
  0.3100000      0.0000000E+00
  0.3200000      0.0000000E+00
  0.3300000      0.0000000E+00
  0.3400000      0.0000000E+00
  0.3500000      0.0000000E+00
  0.3600000      0.0000000E+00
  0.3700000      0.0000000E+00
  0.3800000      0.0000000E+00
  0.3900000      0.0000000E+00
  0.4000000      0.0000000E+00
  0.4100000      0.0000000E+00
  0.4200000      0.0000000E+00
  0.4300000      0.0000000E+00
  0.4400000      0.0000000E+00
  0.4500000      0.0000000E+00
  0.4600000      0.0000000E+00
  0.4700000      0.0000000E+00
  0.4800000      0.0000000E+00
  0.4900000      0.0000000E+00
  0.5000000      0.0000000E+00
  0.5100000      0.0000000E+00
  0.5200000      0.0000000E+00
  0.5300000      0.0000000E+00
  0.5400000      0.0000000E+00
  0.5500000      0.0000000E+00
  0.5600000      0.0000000E+00
  0.5700000      0.0000000E+00
  0.5800000      0.0000000E+00
  0.5900000      0.0000000E+00
  0.6000000      0.0000000E+00
  0.6100000      0.0000000E+00
  0.6200000      0.0000000E+00
  0.6300000      0.0000000E+00
  0.6400000      0.0000000E+00
  0.6500000      0.0000000E+00
  0.6600000      0.0000000E+00
  0.6700000      0.0000000E+00
  0.6800000      0.0000000E+00
  0.6900000      0.0000000E+00
  0.7000000      0.0000000E+00
  0.7100000      0.0000000E+00
  0.7200000      0.0000000E+00
  0.7300000      0.0000000E+00
  0.7400000      0.0000000E+00
  0.7500000      0.0000000E+00
  0.7600000      0.0000000E+00
  0.7700000      0.0000000E+00
  0.7800000      0.0000000E+00
  0.7900000      0.0000000E+00
  0.8000000      0.0000000E+00
  0.8100000      0.0000000E+00
  0.8200000      0.0000000E+00
  0.8300000      0.0000000E+00
  0.8400000      0.0000000E+00
  0.8500000      0.0000000E+00
  0.8600000     -1.5749206E-38
  0.8700000     -2.3593020E-38
  0.8800000     -3.2526847E-38
  0.8900000     -4.2796101E-38
  0.9000000     -5.3735441E-38
  0.9100000     -6.4880046E-38
  0.9200000     -7.6253158E-38
  0.9300000     -8.7103115E-38
  0.9400000     -9.4580987E-38
  0.9500000     -9.8504735E-38
  0.9600000     -1.0100211E-37
  0.9700000     -1.0218576E-37
  0.9800000     -1.0122662E-37
  0.9900000     -9.7118515E-38
   1.000000     -8.9528124E-38
   1.010000     -7.8322349E-38
   1.020000     -6.5586710E-38
   1.030000     -5.4789896E-38
   1.040000     -4.7386202E-38
   1.050000     -2.8964399E-38
   1.060000      1.4383491E-38
   1.070000      7.2025676E-38
   1.080000      1.4449240E-37
   1.090000      2.3539408E-37
   1.100000      3.3424405E-37
   1.110000      4.1994045E-37
   1.120000      5.0158606E-37
   1.130000      6.0571823E-37
   1.140000      7.2718054E-37
   1.150000      8.3427239E-37
   1.160000      9.2458489E-37
   1.170000      1.0200630E-36
   1.180000      1.1141942E-36
   1.190000      1.1975226E-36
   1.200000      1.2802269E-36
   1.210000      1.3777900E-36
   1.220000      1.4564783E-36
   1.230000      1.5117830E-36
   1.240000      1.6971741E-36
   1.250000      2.1147844E-36
   1.260000      2.6553615E-36
   1.270000      3.2082698E-36
   1.280000      3.6157554E-36
   1.290000      3.8943104E-36
   1.300000      4.1644334E-36
   1.310000      4.3769691E-36
   1.320000      4.5376457E-36
   1.330000      4.6749871E-36
   1.340000      4.4942778E-36
   1.350000      3.9516000E-36
   1.360000      3.3113968E-36
   1.370000      2.6539379E-36
   1.380000      2.0103603E-36
   1.390000      1.3226833E-36
   1.400000      6.1287149E-37
   1.410000     -2.6212212E-37
   1.420000     -1.3607443E-36
   1.430000     -2.6865427E-36
   1.440000     -4.2256446E-36
   1.450000     -5.8472862E-36
   1.460000     -7.4531816E-36
   1.470000     -8.9214870E-36
   1.480000     -1.0502911E-35
   1.490000     -1.2440140E-35
   1.500000     -1.4497724E-35
   1.510000     -1.6576418E-35
   1.520000     -1.8832636E-35
   1.530000     -2.1230101E-35
   1.540000     -2.3630834E-35
   1.550000     -2.5992855E-35
   1.560000     -2.8313291E-35
   1.570000     -3.0638792E-35
   1.580000     -3.2979906E-35
   1.590000     -3.5171485E-35
   1.600000     -3.7268380E-35
   1.610000     -3.9478323E-35
   1.620000     -4.1586040E-35
   1.630000     -4.3343071E-35
   1.640000     -4.4683258E-35
   1.650000     -4.5613999E-35
   1.660000     -4.6261603E-35
   1.670000     -4.6562749E-35
   1.680000     -4.6314707E-35
   1.690000     -4.5397896E-35
   1.700000     -4.3728674E-35
   1.710000     -4.1380130E-35
   1.720000     -3.7753679E-35
   1.730000     -3.2420410E-35
   1.740000     -2.5801366E-35
   1.750000     -1.7764789E-35
   1.760000     -8.3766413E-36
   1.770000      2.1128202E-36
   1.780000      1.3600323E-35
   1.790000      2.7210083E-35
   1.800000      4.3474450E-35
   1.810000      6.1743570E-35
   1.820000      8.1767657E-35
   1.830000      1.0295035E-34
   1.840000      1.2542162E-34
   1.850000      1.4765991E-34
   1.860000      1.6941158E-34
   1.870000      1.8938330E-34
   1.880000      2.0699712E-34
   1.890000      2.2454640E-34
   1.900000      2.4203603E-34
   1.910000      2.5886397E-34
   1.920000      2.7404098E-34
   1.930000      2.8786353E-34
   1.940000      3.0732825E-34
   1.950000      3.3245042E-34
   1.960000      3.5800456E-34
   1.970000      3.8416391E-34
   1.980000      4.0853760E-34
   1.990000      4.3058845E-34
   2.000000      4.5053007E-34
   2.010000      4.7086897E-34
   2.020000      4.9283514E-34
   2.030000      5.1395442E-34
   2.040000      5.3366465E-34
   2.050000      5.4860556E-34
   2.060000      5.5585978E-34
   2.070000      5.5452040E-34
   2.080000      5.3891191E-34
   2.090000      5.0850003E-34
   2.100000      4.6779675E-34
   2.110000      4.1727455E-34
   2.120000      3.5356512E-34
   2.130000      2.7462163E-34
   2.140000      1.8128974E-34
   2.150000      7.1101676E-35
   2.160000     -5.4081786E-35
   2.170000     -1.9015355E-34
   2.180000     -3.3710949E-34
   2.190000     -5.0080674E-34
   2.200000     -6.8069526E-34
   2.210000     -8.7294203E-34
   2.220000     -1.0778075E-33
   2.230000     -1.2921025E-33
   2.240000     -1.5153251E-33
   2.250000     -1.7481660E-33
   2.260000     -1.9893552E-33
   2.270000     -2.2344801E-33
   2.280000     -2.4826180E-33
   2.290000     -2.7352161E-33
   2.300000     -2.9904271E-33
   2.310000     -3.2464472E-33
   2.320000     -3.5013172E-33
   2.330000     -3.7488899E-33
   2.340000     -3.9860249E-33
   2.350000     -4.2156780E-33
   2.360000     -4.4298571E-33
   2.370000     -4.6284374E-33
   2.380000     -4.8126245E-33
   2.390000     -4.9725898E-33
   2.400000     -5.1036115E-33
   2.410000     -5.2009516E-33
   2.420000     -5.2610385E-33
   2.430000     -5.2828964E-33
   2.440000     -5.2626981E-33
   2.450000     -5.1930005E-33
   2.460000     -5.0687004E-33
   2.470000     -4.8846140E-33
   2.480000     -4.6348637E-33
   2.490000     -4.3142160E-33
   2.500000     -3.9177981E-33
   2.510000     -3.4399872E-33
   2.520000     -2.8755415E-33
   2.530000     -2.2198954E-33
   2.540000     -1.4687097E-33
   2.550000     -6.1814472E-34
   2.560000      3.3723734E-34
   2.570000      1.3975518E-33
   2.580000      2.5604897E-33
   2.590000      3.8323647E-33
   2.600000      5.2156662E-33
   2.610000      6.7068624E-33
   2.620000      8.3044951E-33
   2.630000      1.0006053E-32
   2.640000      1.1807166E-32
   2.650000      1.3702381E-32
   2.660000      1.5684933E-32
   2.670000      1.7746759E-32
   2.680000      1.9878466E-32
   2.690000      2.2068804E-32
   2.700000      2.4305623E-32
   2.710000      2.6575259E-32
   2.720000      2.8862057E-32
   2.730000      3.1149360E-32
   2.740000      3.3418955E-32
   2.750000      3.5651174E-32
   2.760000      3.7824931E-32
   2.770000      3.9917740E-32
   2.780000      4.1905742E-32
   2.790000      4.3763728E-32
   2.800000      4.5465177E-32
   2.810000      4.6981988E-32
   2.820000      4.8285567E-32
   2.830000      4.9346142E-32
   2.840000      5.0132271E-32
   2.850000      5.0611973E-32
   2.860000      5.0752480E-32
   2.870000      5.0520473E-32
   2.880000      4.9882285E-32
   2.890000      4.8804107E-32
   2.900000      4.7252172E-32
   2.910000      4.5193126E-32
   2.920000      4.2595484E-32
   2.930000      3.9426286E-32
   2.940000      3.5653796E-32
   2.950000      3.1250473E-32
   2.960000      2.6189700E-32
   2.970000      2.0447248E-32
   2.980000      1.4001725E-32
   2.990000      6.8349876E-33
   3.000000     -1.0672419E-33
   3.010000     -9.7155504E-33
   3.020000     -1.9115826E-32
   3.030000     -2.9268604E-32
   3.040000     -4.0169334E-32
   3.050000     -5.1807398E-32
   3.060000     -6.4165876E-32
   3.070000     -7.7221080E-32
   3.080000     -9.0942403E-32
   3.090000     -1.0529177E-31
   3.100000     -1.2022301E-31
   3.110000     -1.3568198E-31
   3.120000     -1.5160614E-31
   3.130000     -1.6792439E-31
   3.140000     -1.8455683E-31
   3.150000     -2.0141468E-31
   3.160000     -2.1840013E-31
   3.170000     -2.3540633E-31
   3.180000     -2.5231765E-31
   3.190000     -2.6900944E-31
   3.200000     -2.8534801E-31
   3.210000     -3.0119123E-31
   3.220000     -3.1638849E-31
   3.230000     -3.3078112E-31
   3.240000     -3.4420280E-31
   3.250000     -3.5647995E-31
   3.260000     -3.6743231E-31
   3.270000     -3.7687357E-31
   3.280000     -3.8461218E-31
   3.290000     -3.9045199E-31
   3.300000     -3.9419350E-31
   3.310000     -3.9563453E-31
   3.320000     -3.9457170E-31
   3.330000     -3.9080154E-31
   3.340000     -3.8412174E-31
   3.350000     -3.7433279E-31
   3.360000     -3.6123950E-31
   3.370000     -3.4465264E-31
   3.380000     -3.2439062E-31
   3.390000     -3.0028144E-31
   3.400000     -2.7216461E-31
   3.410000     -2.3989315E-31
   3.420000     -2.0333572E-31
   3.430000     -1.6237883E-31
   3.440000     -1.1692896E-31
   3.450000     -6.6914928E-32
   3.460000     -1.2290139E-32
   3.470000      4.6964961E-32
   3.480000      1.1084063E-31
   3.490000      1.7929540E-31
   3.500000      2.5225387E-31
   3.510000      3.2960431E-31
   3.520000      4.1119643E-31
   3.530000      4.9683938E-31
   3.540000      5.8629962E-31
   3.550000      6.7929886E-31
   3.560000      7.7551251E-31
   3.570000      8.7456780E-31
   3.580000      9.7604249E-31
   3.590000      1.0794632E-30
   3.600000      1.1843047E-30
   3.610000      1.2899891E-30
   3.620000      1.3958846E-30
   3.630000      1.5013056E-30
   3.640000      1.6055122E-30
   3.650000      1.7077112E-30
   3.660000      1.8070557E-30
   3.670000      1.9026465E-30
   3.680000      1.9935329E-30
   3.690000      2.0787152E-30
   3.700000      2.1571463E-30
   3.710000      2.2277341E-30
   3.720000      2.2893446E-30
   3.730000      2.3408063E-30
   3.740000      2.3809132E-30
   3.750000      2.4084299E-30
   3.760000      2.4220971E-30
   3.770000      2.4206366E-30
   3.780000      2.4027586E-30
   3.790000      2.3671678E-30
   3.800000      2.3125713E-30
   3.810000      2.2376868E-30
   3.820000      2.1412517E-30
   3.830000      2.0220312E-30
   3.840000      1.8788293E-30
   3.850000      1.7104994E-30
   3.860000      1.5159545E-30
   3.870000      1.2941796E-30
   3.880000      1.0442439E-30
   3.890000      7.6531246E-31
   3.900000      4.5666047E-31
   3.910000      1.1768607E-31
   3.920000     -2.5207581E-31
   3.930000     -6.5293802E-31
   3.940000     -1.0850475E-30
   3.950000     -1.5483708E-30
   3.960000     -2.0426784E-30
   3.970000     -2.5675298E-30
   3.980000     -3.1222589E-30
   3.990000     -3.7059579E-30
   4.000000     -4.3174632E-30
   4.010000     -4.9553391E-30
   4.020000     -5.6178632E-30
   4.030000     -6.3030146E-30
   4.040000     -7.0084568E-30
   4.050000     -7.7315254E-30
   4.060000     -8.4692175E-30
   4.070000     -9.2181763E-30
   4.080000     -9.9746823E-30
   4.090000     -1.0734642E-29
   4.100000     -1.1493582E-29
   4.110000     -1.2246636E-29
   4.120000     -1.2988545E-29
   4.130000     -1.3713652E-29
   4.140000     -1.4415891E-29
   4.150000     -1.5088800E-29
   4.160000     -1.5725513E-29
   4.170000     -1.6318764E-29
   4.180000     -1.6860900E-29
   4.190000     -1.7343881E-29
   4.200000     -1.7759295E-29
   4.210000     -1.8098377E-29
   4.220000     -1.8352021E-29
   4.230000     -1.8510800E-29
   4.240000     -1.8564994E-29
   4.250000     -1.8504609E-29
   4.260000     -1.8319420E-29
   4.270000     -1.7999001E-29
   4.280000     -1.7532756E-29
   4.290000     -1.6909967E-29
   4.300000     -1.6119844E-29
   4.310000     -1.5151569E-29
   4.320000     -1.3994359E-29
   4.330000     -1.2637514E-29
   4.340000     -1.1070491E-29
   4.350000     -9.2829620E-30
   4.360000     -7.2648974E-30
   4.370000     -5.0066328E-30
   4.380000     -2.4989592E-30
   4.390000      2.6679930E-31
   4.400000      3.2986914E-30
   4.410000      6.6040409E-30
   4.420000      1.0189351E-29
   4.430000      1.4060200E-29
   4.440000      1.8221139E-29
   4.450000      2.2675565E-29
   4.460000      2.7425628E-29
   4.470000      3.2472097E-29
   4.480000      3.7814241E-29
   4.490000      4.3449702E-29
   4.500000      4.9374386E-29
   4.510000      5.5582308E-29
   4.520000      6.2065470E-29
   4.530000      6.8813748E-29
   4.540000      7.5814726E-29
   4.550000      8.3053598E-29
   4.560000      9.0513014E-29
   4.570000      9.8172949E-29
   4.580000      1.0601060E-28
   4.590000      1.1400020E-28
   4.600000      1.2211300E-28
   4.610000      1.3031701E-28
   4.620000      1.3857703E-28
   4.630000      1.4685442E-28
   4.640000      1.5510712E-28
   4.650000      1.6328943E-28
   4.660000      1.7135200E-28
   4.670000      1.7924177E-28
   4.680000      1.8690186E-28
   4.690000      1.9427155E-28
   4.700000      2.0128622E-28
   4.710000      2.0787734E-28
   4.720000      2.1397248E-28
   4.730000      2.1949530E-28
   4.740000      2.2436559E-28
   4.750000      2.2849924E-28
   4.760000      2.3180849E-28
   4.770000      2.3420187E-28
   4.780000      2.3558430E-28
   4.790000      2.3585737E-28
   4.800000      2.3491942E-28
   4.810000      2.3266572E-28
   4.820000      2.2898876E-28
   4.830000      2.2377849E-28
   4.840000      2.1692255E-28
   4.850000      2.0830673E-28
   4.860000      1.9781524E-28
   4.870000      1.8533110E-28
   4.880000      1.7073665E-28
   4.890000      1.5391400E-28
   4.900000      1.3474549E-28
   4.910000      1.1311431E-28
   4.920000      8.8905127E-29
   4.930000      6.2004713E-29
   4.940000      3.2302606E-29
   4.950000     -3.0816259E-31
   4.960000     -3.5930227E-29
   4.970000     -7.4661112E-29
   4.980000     -1.1659236E-28
   4.990000     -1.6180855E-28
   5.000000     -2.1038642E-28
   5.010000     -2.6239390E-28
   5.020000     -3.1788887E-28
   5.030000     -3.7691831E-28
   5.040000     -4.3951710E-28
   5.050000     -5.0570664E-28
   5.060000     -5.7549401E-28
   5.070000     -6.4887045E-28
   5.080000     -7.2581020E-28
   5.090000     -8.0626910E-28
   5.100000     -8.9018341E-28
   5.110000     -9.7746828E-28
   5.120000     -1.0680167E-27
   5.130000     -1.1616972E-27
   5.140000     -1.2583537E-27
   5.150000     -1.3578032E-27
   5.160000     -1.4598349E-27
   5.170000     -1.5642079E-27
   5.180000     -1.6706514E-27
   5.190000     -1.7788613E-27
   5.200000     -1.8885005E-27
   5.210000     -1.9991966E-27
   5.220000     -2.1105415E-27
   5.230000     -2.2220889E-27
   5.240000     -2.3333545E-27
   5.250000     -2.4438137E-27
   5.260000     -2.5529016E-27
   5.270000     -2.6600112E-27
   5.280000     -2.7644935E-27
   5.290000     -2.8656555E-27
   5.300000     -2.9627607E-27
   5.310000     -3.0550285E-27
   5.320000     -3.1416335E-27
   5.330000     -3.2217056E-27
   5.340000     -3.2943301E-27
   5.350000     -3.3585472E-27
   5.360000     -3.4133538E-27
   5.370000     -3.4577033E-27
   5.380000     -3.4905061E-27
   5.390000     -3.5106321E-27
   5.400000     -3.5169099E-27
   5.410000     -3.5081315E-27
   5.420000     -3.4830509E-27
   5.430000     -3.4403892E-27
   5.440000     -3.3788349E-27
   5.450000     -3.2970495E-27
   5.460000     -3.1936681E-27
   5.470000     -3.0673052E-27
   5.480000     -2.9165572E-27
   5.490000     -2.7400082E-27
   5.500000     -2.5362335E-27
   5.510000     -2.3038061E-27
   5.520000     -2.0413020E-27
   5.530000     -1.7473063E-27
   5.540000     -1.4204195E-27
   5.550000     -1.0592650E-27
   5.560000     -6.6249732E-28
   5.570000     -2.2880893E-28
   5.580000      2.4306136E-28
   5.590000      7.5431791E-28
   5.600000      1.3060997E-27
   5.610000      1.8994706E-27
   5.620000      2.5354080E-27
   5.630000      3.2147929E-27
   5.640000      3.9383977E-27
   5.650000      4.7068738E-27
   5.660000      5.5207406E-27
   5.670000      6.3803725E-27
   5.680000      7.2859848E-27
   5.690000      8.2376238E-27
   5.700000      9.2351461E-27
   5.710000      1.0278210E-26
   5.720000      1.1366259E-26
   5.730000      1.2498508E-26
   5.740000      1.3673929E-26
   5.750000      1.4891229E-26
   5.760000      1.6148846E-26
   5.770000      1.7444924E-26
   5.780000      1.8777304E-26
   5.790000      2.0143500E-26
   5.800000      2.1540698E-26
   5.810000      2.2965721E-26
   5.820000      2.4415037E-26
   5.830000      2.5884723E-26
   5.840000      2.7370469E-26
   5.850000      2.8867545E-26
   5.860000      3.0370809E-26
   5.870000      3.1874674E-26
   5.880000      3.3373109E-26
   5.890000      3.4859631E-26
   5.900000      3.6327276E-26
   5.910000      3.7768620E-26
   5.920000      3.9175739E-26
   5.930000      4.0540228E-26
   5.940000      4.1853179E-26
   5.950000      4.3105196E-26
   5.960000      4.4286374E-26
   5.970000      4.5386308E-26
   5.980000      4.6394099E-26
   5.990000      4.7298356E-26
   6.000000      4.8087201E-26
   6.010000      4.8748276E-26
   6.020000      4.9268767E-26
   6.030000      4.9635399E-26
   6.040000      4.9834473E-26
   6.050000      4.9851865E-26
   6.060000      4.9673077E-26
   6.070000      4.9283244E-26
   6.080000      4.8667168E-26
   6.090000      4.7809356E-26
   6.100000      4.6694054E-26
   6.110000      4.5305286E-26
   6.120000      4.3626905E-26
   6.130000      4.1642642E-26
   6.140000      3.9336161E-26
   6.150000      3.6691107E-26
   6.160000      3.3691174E-26
   6.170000      3.0320183E-26
   6.180000      2.6562133E-26
   6.190000      2.2401294E-26
   6.200000      1.7822283E-26
   6.210000      1.2810148E-26
   6.220000      7.3504426E-27
   6.230000      1.4293495E-27
   6.240000     -4.9662499E-27
   6.250000     -1.1848655E-26
   6.260000     -1.9229221E-26
   6.270000     -2.7118283E-26
   6.280000     -3.5525023E-26
   6.290000     -4.4457341E-26
   6.300000     -5.3921737E-26
   6.310000     -6.3923180E-26
   6.320000     -7.4464981E-26
   6.330000     -8.5548649E-26
   6.340000     -9.7173748E-26
   6.350000     -1.0933779E-25
   6.360000     -1.2203603E-25
   6.370000     -1.3526137E-25
   6.380000     -1.4900420E-25
   6.390000     -1.6325224E-25
   6.400000     -1.7799037E-25
   6.410000     -1.9320052E-25
   6.420000     -2.0886150E-25
   6.430000     -2.2494886E-25
   6.440000     -2.4143473E-25
   6.450000     -2.5828763E-25
   6.460000     -2.7547245E-25
   6.470000     -2.9295018E-25
   6.480000     -3.1067785E-25
   6.490000     -3.2860842E-25
   6.500000     -3.4669054E-25
   6.510000     -3.6486856E-25
   6.520000     -3.8308234E-25
   6.530000     -4.0126721E-25
   6.540000     -4.1935387E-25
   6.550000     -4.3726816E-25
   6.560000     -4.5493130E-25
   6.570000     -4.7225947E-25
   6.580000     -4.8916412E-25
   6.590000     -5.0555167E-25
   6.600000     -5.2132366E-25
   6.610000     -5.3637656E-25
   6.620000     -5.5060213E-25
   6.630000     -5.6388719E-25
   6.640000     -5.7611370E-25
   6.650000     -5.8715898E-25
   6.660000     -5.9689579E-25
   6.670000     -6.0519234E-25
   6.680000     -6.1191255E-25
   6.690000     -6.1691625E-25
   6.700000     -6.2005941E-25
   6.710000     -6.2119434E-25
   6.720000     -6.2017000E-25
   6.730000     -6.1683218E-25
   6.740000     -6.1102405E-25
   6.750000     -6.0258639E-25
   6.760000     -5.9135789E-25
   6.770000     -5.7717590E-25
   6.780000     -5.5987677E-25
   6.790000     -5.3929623E-25
   6.800000     -5.1526999E-25
   6.810000     -4.8763457E-25
   6.820000     -4.5622750E-25
   6.830000     -4.2088835E-25
   6.840000     -3.8145934E-25
   6.850000     -3.3778595E-25
   6.860000     -2.8971782E-25
   6.870000     -2.3710957E-25
   6.880000     -1.7982174E-25
   6.890000     -1.1772152E-25
   6.900000     -5.0683660E-26
   6.910000      2.1408465E-26
   6.920000      9.8661841E-26
   6.930000      1.8117282E-25
   6.940000      2.6902602E-25
   6.950000      3.6229317E-25
   6.960000      4.6103220E-25
   6.970000      5.6528594E-25
   6.980000      6.7508079E-25
   6.990000      7.9042576E-25
   7.000000      9.1131115E-25
   7.010000      1.0377072E-24
   7.020000      1.1695631E-24
   7.030000      1.3068056E-24
   7.040000      1.4493377E-24
   7.050000      1.5970372E-24
   7.060000      1.7497560E-24