  -2.600000      0.0000000E+00
  -2.590000      0.0000000E+00
  -2.580000      0.0000000E+00
  -2.570000      0.0000000E+00
  -2.560000      0.0000000E+00
  -2.550000      0.0000000E+00
  -2.540000      0.0000000E+00
  -2.530000      0.0000000E+00
  -2.520000      0.0000000E+00
  -2.510000      0.0000000E+00
  -2.500000      0.0000000E+00
  -2.490000      0.0000000E+00
  -2.480000      0.0000000E+00
  -2.470000      0.0000000E+00
  -2.460000      0.0000000E+00
  -2.450000      0.0000000E+00
  -2.440000      0.0000000E+00
  -2.430000      0.0000000E+00
  -2.420000      0.0000000E+00
  -2.410000      0.0000000E+00
  -2.400000      0.0000000E+00
  -2.390000      0.0000000E+00
  -2.380000      0.0000000E+00
  -2.370000      0.0000000E+00
  -2.360000      0.0000000E+00
  -2.350000      0.0000000E+00
  -2.340000      0.0000000E+00
  -2.330000      0.0000000E+00
  -2.320000      0.0000000E+00
  -2.310000      0.0000000E+00
  -2.300000      0.0000000E+00
  -2.290000      0.0000000E+00
  -2.280000      0.0000000E+00
  -2.270000      0.0000000E+00
  -2.260000      0.0000000E+00
  -2.250000      0.0000000E+00
  -2.240000      0.0000000E+00
  -2.230000      0.0000000E+00
  -2.220000      0.0000000E+00
  -2.210000      0.0000000E+00
  -2.200000      0.0000000E+00
  -2.190000      0.0000000E+00
  -2.180000      0.0000000E+00
  -2.170000      0.0000000E+00
  -2.160000      0.0000000E+00
  -2.150000      0.0000000E+00
  -2.140000      0.0000000E+00
  -2.130000      0.0000000E+00
  -2.120000      0.0000000E+00
  -2.110000      0.0000000E+00
  -2.100000      0.0000000E+00
  -2.090000      0.0000000E+00
  -2.080000      0.0000000E+00
  -2.070000      0.0000000E+00
  -2.060000      0.0000000E+00
  -2.050000      0.0000000E+00
  -2.040000      0.0000000E+00
  -2.030000      0.0000000E+00
  -2.020000      0.0000000E+00
  -2.010000      0.0000000E+00
  -2.000000      0.0000000E+00
  -1.990000      0.0000000E+00
  -1.980000      0.0000000E+00
  -1.970000      0.0000000E+00
  -1.960000      0.0000000E+00
  -1.950000      0.0000000E+00
  -1.940000      0.0000000E+00
  -1.930000      0.0000000E+00
  -1.920000      0.0000000E+00
  -1.910000      0.0000000E+00
  -1.900000      0.0000000E+00
  -1.890000      0.0000000E+00
  -1.880000      0.0000000E+00
  -1.870000      0.0000000E+00
  -1.860000      0.0000000E+00
  -1.850000      0.0000000E+00
  -1.840000      0.0000000E+00
  -1.830000      0.0000000E+00
  -1.820000      0.0000000E+00
  -1.810000      0.0000000E+00
  -1.800000      0.0000000E+00
  -1.790000      0.0000000E+00
  -1.780000      0.0000000E+00
  -1.770000      0.0000000E+00
  -1.760000      0.0000000E+00
  -1.750000      0.0000000E+00
  -1.740000      0.0000000E+00
  -1.730000      0.0000000E+00
  -1.720000      0.0000000E+00
  -1.710000      0.0000000E+00
  -1.700000      0.0000000E+00
  -1.690000      0.0000000E+00
  -1.680000      0.0000000E+00
  -1.670000      0.0000000E+00
  -1.660000      0.0000000E+00
  -1.650000      0.0000000E+00
  -1.640000      0.0000000E+00
  -1.630000      0.0000000E+00
  -1.620000      0.0000000E+00
  -1.610000      0.0000000E+00
  -1.600000      0.0000000E+00
  -1.590000      0.0000000E+00
  -1.580000      0.0000000E+00
  -1.570000      0.0000000E+00
  -1.560000      0.0000000E+00
  -1.550000      0.0000000E+00
  -1.540000      0.0000000E+00
  -1.530000      0.0000000E+00
  -1.520000      0.0000000E+00
  -1.510000      0.0000000E+00
  -1.500000      0.0000000E+00
  -1.490000      0.0000000E+00
  -1.480000      0.0000000E+00
  -1.470000      0.0000000E+00
  -1.460000      0.0000000E+00
  -1.450000      0.0000000E+00
  -1.440000      0.0000000E+00
  -1.430000      0.0000000E+00
  -1.420000      0.0000000E+00
  -1.410000      0.0000000E+00
  -1.400000      0.0000000E+00
  -1.390000      0.0000000E+00
  -1.380000      0.0000000E+00
  -1.370000      0.0000000E+00
  -1.360000      0.0000000E+00
  -1.350000      0.0000000E+00
  -1.340000      0.0000000E+00
  -1.330000      0.0000000E+00
  -1.320000      0.0000000E+00
  -1.310000      0.0000000E+00
  -1.300000      0.0000000E+00
  -1.290000      0.0000000E+00
  -1.280000      0.0000000E+00
  -1.270000      0.0000000E+00
  -1.260000      0.0000000E+00
  -1.250000      0.0000000E+00
  -1.240000      0.0000000E+00
  -1.230000      0.0000000E+00
  -1.220000      0.0000000E+00
  -1.210000      0.0000000E+00
  -1.200000      0.0000000E+00
  -1.190000      0.0000000E+00
  -1.180000      0.0000000E+00
  -1.170000      0.0000000E+00
  -1.160000      0.0000000E+00
  -1.150000      0.0000000E+00
  -1.140000      0.0000000E+00
  -1.130000      0.0000000E+00
  -1.120000      0.0000000E+00
  -1.110000      0.0000000E+00
  -1.100000      0.0000000E+00
  -1.090000      0.0000000E+00
  -1.080000      0.0000000E+00
  -1.070000      0.0000000E+00
  -1.060000      0.0000000E+00
  -1.050000      0.0000000E+00
  -1.040000      0.0000000E+00
  -1.030000      0.0000000E+00
  -1.020000      0.0000000E+00
  -1.010000      0.0000000E+00
  -1.000000      0.0000000E+00
 -0.9900000      0.0000000E+00
 -0.9800000      0.0000000E+00
 -0.9700000      0.0000000E+00
 -0.9600000      0.0000000E+00
 -0.9500000      0.0000000E+00
 -0.9400000      0.0000000E+00
 -0.9300000      0.0000000E+00
 -0.9200000      0.0000000E+00
 -0.9100000      0.0000000E+00
 -0.9000000      0.0000000E+00
 -0.8900000      0.0000000E+00
 -0.8800000      0.0000000E+00
 -0.8700000      0.0000000E+00
 -0.8600000      0.0000000E+00
 -0.8500000      0.0000000E+00
 -0.8400000      0.0000000E+00
 -0.8300000      0.0000000E+00
 -0.8200000      0.0000000E+00
 -0.8100000      0.0000000E+00
 -0.8000000      0.0000000E+00
 -0.7900000      0.0000000E+00
 -0.7800000      0.0000000E+00
 -0.7700000      0.0000000E+00
 -0.7600000      0.0000000E+00
 -0.7500000      0.0000000E+00
 -0.7400000      0.0000000E+00
 -0.7300000      0.0000000E+00
 -0.7200000      0.0000000E+00
 -0.7100000      0.0000000E+00
 -0.7000000      0.0000000E+00
 -0.6900000      0.0000000E+00
 -0.6800000      0.0000000E+00
 -0.6700000      0.0000000E+00
 -0.6600000      0.0000000E+00
 -0.6500000      0.0000000E+00
 -0.6400000      0.0000000E+00
 -0.6300000      0.0000000E+00
 -0.6200000      0.0000000E+00
 -0.6100000      0.0000000E+00
 -0.6000000      0.0000000E+00
 -0.5900000      0.0000000E+00
 -0.5800000      0.0000000E+00
 -0.5700000      0.0000000E+00
 -0.5600000      0.0000000E+00
 -0.5500000      0.0000000E+00
 -0.5400000      0.0000000E+00
 -0.5300000      0.0000000E+00
 -0.5200000      0.0000000E+00
 -0.5100000      0.0000000E+00
 -0.5000000      0.0000000E+00
 -0.4900000      0.0000000E+00
 -0.4800000      0.0000000E+00
 -0.4700000      0.0000000E+00
 -0.4600000      0.0000000E+00
 -0.4500000      0.0000000E+00
 -0.4400000      0.0000000E+00
 -0.4300000      0.0000000E+00
 -0.4200000      0.0000000E+00
 -0.4100000      0.0000000E+00
 -0.4000000      0.0000000E+00
 -0.3900000      0.0000000E+00
 -0.3800000      0.0000000E+00
 -0.3700000      0.0000000E+00
 -0.3600000      0.0000000E+00
 -0.3500000      0.0000000E+00
 -0.3400000      0.0000000E+00
 -0.3300000      0.0000000E+00
 -0.3200000      0.0000000E+00
 -0.3100000      0.0000000E+00
 -0.3000000      0.0000000E+00
 -0.2900000      0.0000000E+00
 -0.2800000      0.0000000E+00
 -0.2700000      0.0000000E+00
 -0.2600000      0.0000000E+00
 -0.2500000      0.0000000E+00
 -0.2400000      0.0000000E+00
 -0.2300000      0.0000000E+00
 -0.2200000      0.0000000E+00
 -0.2100000      0.0000000E+00
 -0.2000000      0.0000000E+00
 -0.1900000      0.0000000E+00
 -0.1800000      0.0000000E+00
 -0.1700000      0.0000000E+00
 -0.1600000      0.0000000E+00
 -0.1500000      0.0000000E+00
 -0.1400000      0.0000000E+00
 -0.1300000      0.0000000E+00
 -0.1200000      0.0000000E+00
 -0.1100000      0.0000000E+00
 -0.1000000      0.0000000E+00
 -9.0000004E-02  0.0000000E+00
 -7.9999998E-02  0.0000000E+00
 -7.0000000E-02  0.0000000E+00
 -5.9999999E-02  0.0000000E+00
 -5.0000001E-02  0.0000000E+00
 -3.9999999E-02  0.0000000E+00
 -2.9999999E-02  0.0000000E+00
 -2.0000000E-02  0.0000000E+00
 -9.9999998E-03  0.0000000E+00
 -3.4694470E-17  0.0000000E+00
  9.9999998E-03  0.0000000E+00
  2.0000000E-02  0.0000000E+00
  2.9999999E-02  0.0000000E+00
  3.9999999E-02  0.0000000E+00
  5.0000001E-02  0.0000000E+00
  5.9999999E-02  0.0000000E+00
  7.0000000E-02  0.0000000E+00
  7.9999998E-02  0.0000000E+00
  9.0000004E-02  0.0000000E+00
  0.1000000      0.0000000E+00
  0.1100000      0.0000000E+00
  0.1200000      0.0000000E+00
  0.1300000      0.0000000E+00
  0.1400000      0.0000000E+00
  0.1500000      0.0000000E+00
  0.1600000      0.0000000E+00
  0.1700000      0.0000000E+00
  0.1800000      0.0000000E+00
  0.1900000      0.0000000E+00
  0.2000000      0.0000000E+00
  0.2100000      0.0000000E+00
  0.2200000      0.0000000E+00
  0.2300000      0.0000000E+00
  0.2400000      0.0000000E+00
  0.2500000      0.0000000E+00
  0.2600000      0.0000000E+00
  0.2700000      0.0000000E+00
  0.2800000      0.0000000E+00
  0.2900000      0.0000000E+00
  0.3000000      0.0000000E+00
  0.3100000      0.0000000E+00
  0.3200000      0.0000000E+00
  0.3300000      0.0000000E+00
  0.3400000      0.0000000E+00
  0.3500000      0.0000000E+00
  0.3600000      0.0000000E+00
  0.3700000      0.0000000E+00
  0.3800000      0.0000000E+00
  0.3900000      0.0000000E+00
  0.4000000      0.0000000E+00
  0.4100000      0.0000000E+00
  0.4200000      0.0000000E+00
  0.4300000      0.0000000E+00
  0.4400000      0.0000000E+00
  0.4500000      0.0000000E+00
  0.4600000      0.0000000E+00
  0.4700000      0.0000000E+00
  0.4800000      0.0000000E+00
  0.4900000      0.0000000E+00
  0.5000000      0.0000000E+00
  0.5100000      0.0000000E+00
  0.5200000      0.0000000E+00
  0.5300000      0.0000000E+00
  0.5400000      0.0000000E+00
  0.5500000      0.0000000E+00
  0.5600000      0.0000000E+00
  0.5700000      0.0000000E+00
  0.5800000      0.0000000E+00
  0.5900000      0.0000000E+00
  0.6000000      0.0000000E+00
  0.6100000      0.0000000E+00
  0.6200000      0.0000000E+00
  0.6300000      0.0000000E+00
  0.6400000      0.0000000E+00
  0.6500000      0.0000000E+00
  0.6600000      0.0000000E+00
  0.6700000      0.0000000E+00
  0.6800000      0.0000000E+00
  0.6900000      0.0000000E+00
  0.7000000      0.0000000E+00
  0.7100000      0.0000000E+00
  0.7200000      0.0000000E+00
  0.7300000      0.0000000E+00
  0.7400000      0.0000000E+00
  0.7500000      0.0000000E+00
  0.7600000      0.0000000E+00
  0.7700000      0.0000000E+00
  0.7800000      0.0000000E+00
  0.7900000      0.0000000E+00
  0.8000000      0.0000000E+00
  0.8100000      0.0000000E+00
  0.8200000      0.0000000E+00
  0.8300000      0.0000000E+00
  0.8400000      0.0000000E+00
  0.8500000      0.0000000E+00
  0.8600000      0.0000000E+00
  0.8700000      0.0000000E+00
  0.8800000      0.0000000E+00
  0.8900000      0.0000000E+00
  0.9000000      0.0000000E+00
  0.9100000      0.0000000E+00
  0.9200000      0.0000000E+00
  0.9300000      0.0000000E+00
  0.9400000      0.0000000E+00
  0.9500000      0.0000000E+00
  0.9600000      0.0000000E+00
  0.9700000      0.0000000E+00
  0.9800000      0.0000000E+00
  0.9900000      0.0000000E+00
   1.000000      0.0000000E+00
   1.010000      0.0000000E+00
   1.020000      0.0000000E+00
   1.030000      0.0000000E+00
   1.040000      0.0000000E+00
   1.050000      0.0000000E+00
   1.060000      0.0000000E+00
   1.070000      0.0000000E+00
   1.080000      0.0000000E+00
   1.090000      0.0000000E+00
   1.100000      0.0000000E+00
   1.110000      0.0000000E+00
   1.120000      0.0000000E+00
   1.130000      0.0000000E+00
   1.140000      0.0000000E+00
   1.150000      0.0000000E+00
   1.160000      0.0000000E+00
   1.170000      0.0000000E+00
   1.180000      0.0000000E+00
   1.190000      0.0000000E+00
   1.200000      0.0000000E+00
   1.210000      0.0000000E+00
   1.220000      0.0000000E+00
   1.230000      0.0000000E+00
   1.240000      0.0000000E+00
   1.250000      0.0000000E+00
   1.260000      0.0000000E+00
   1.270000      0.0000000E+00
   1.280000      0.0000000E+00
   1.290000      0.0000000E+00
   1.300000      0.0000000E+00
   1.310000      0.0000000E+00
   1.320000      0.0000000E+00
   1.330000      0.0000000E+00
   1.340000      0.0000000E+00
   1.350000      0.0000000E+00
   1.360000      0.0000000E+00
   1.370000      0.0000000E+00
   1.380000      0.0000000E+00
   1.390000      0.0000000E+00
   1.400000      0.0000000E+00
   1.410000      0.0000000E+00
   1.420000      0.0000000E+00
   1.430000      0.0000000E+00
   1.440000      0.0000000E+00
   1.450000      0.0000000E+00
   1.460000      0.0000000E+00
   1.470000      0.0000000E+00
   1.480000      0.0000000E+00
   1.490000      0.0000000E+00
   1.500000      0.0000000E+00
   1.510000      0.0000000E+00
   1.520000      0.0000000E+00
   1.530000      0.0000000E+00
   1.540000      0.0000000E+00
   1.550000      0.0000000E+00
   1.560000      0.0000000E+00
   1.570000      0.0000000E+00
   1.580000      0.0000000E+00
   1.590000      0.0000000E+00
   1.600000      0.0000000E+00
   1.610000      0.0000000E+00
   1.620000      0.0000000E+00
   1.630000      0.0000000E+00
   1.640000      0.0000000E+00
   1.650000      0.0000000E+00
   1.660000      0.0000000E+00
   1.670000      0.0000000E+00
   1.680000      0.0000000E+00
   1.690000      0.0000000E+00
   1.700000      0.0000000E+00
   1.710000      0.0000000E+00
   1.720000      0.0000000E+00
   1.730000      0.0000000E+00
   1.740000      0.0000000E+00
   1.750000      0.0000000E+00
   1.760000      0.0000000E+00
   1.770000      0.0000000E+00
   1.780000      0.0000000E+00
   1.790000      0.0000000E+00
   1.800000      0.0000000E+00
   1.810000      0.0000000E+00
   1.820000      0.0000000E+00
   1.830000      0.0000000E+00
   1.840000      0.0000000E+00
   1.850000      0.0000000E+00
   1.860000      0.0000000E+00
   1.870000      0.0000000E+00
   1.880000      0.0000000E+00
   1.890000      0.0000000E+00
   1.900000      0.0000000E+00
   1.910000      0.0000000E+00
   1.920000      0.0000000E+00
   1.930000      0.0000000E+00
   1.940000      0.0000000E+00
   1.950000      0.0000000E+00
   1.960000      0.0000000E+00
   1.970000      0.0000000E+00
   1.980000      0.0000000E+00
   1.990000      0.0000000E+00
   2.000000      0.0000000E+00
   2.010000      0.0000000E+00
   2.020000      0.0000000E+00
   2.030000      0.0000000E+00
   2.040000      0.0000000E+00
   2.050000      0.0000000E+00
   2.060000      0.0000000E+00
   2.070000      0.0000000E+00
   2.080000      0.0000000E+00
   2.090000      0.0000000E+00
   2.100000      0.0000000E+00
   2.110000      0.0000000E+00
   2.120000      0.0000000E+00
   2.130000      0.0000000E+00
   2.140000      0.0000000E+00
   2.150000      0.0000000E+00
   2.160000      0.0000000E+00
   2.170000      0.0000000E+00
   2.180000      0.0000000E+00
   2.190000      0.0000000E+00
   2.200000      0.0000000E+00
   2.210000      0.0000000E+00
   2.220000      0.0000000E+00
   2.230000      0.0000000E+00
   2.240000      0.0000000E+00
   2.250000      0.0000000E+00
   2.260000      0.0000000E+00
   2.270000      0.0000000E+00
   2.280000      0.0000000E+00
   2.290000      0.0000000E+00
   2.300000      0.0000000E+00
   2.310000      0.0000000E+00
   2.320000      0.0000000E+00
   2.330000      0.0000000E+00
   2.340000      0.0000000E+00
   2.350000      0.0000000E+00
   2.360000      0.0000000E+00
   2.370000      0.0000000E+00
   2.380000      0.0000000E+00
   2.390000      0.0000000E+00
   2.400000      0.0000000E+00
   2.410000      0.0000000E+00
   2.420000      0.0000000E+00
   2.430000      0.0000000E+00
   2.440000      0.0000000E+00
   2.450000      0.0000000E+00
   2.460000      0.0000000E+00
   2.470000      0.0000000E+00
   2.480000      0.0000000E+00
   2.490000      0.0000000E+00
   2.500000      0.0000000E+00
   2.510000      0.0000000E+00
   2.520000      0.0000000E+00
   2.530000      0.0000000E+00
   2.540000      0.0000000E+00
   2.550000      0.0000000E+00
   2.560000      0.0000000E+00
   2.570000      0.0000000E+00
   2.580000      0.0000000E+00
   2.590000      0.0000000E+00
   2.600000      0.0000000E+00
   2.610000      0.0000000E+00
   2.620000      0.0000000E+00
   2.630000      0.0000000E+00
   2.640000      0.0000000E+00
   2.650000      0.0000000E+00
   2.660000      0.0000000E+00
   2.670000      0.0000000E+00
   2.680000      0.0000000E+00
   2.690000      0.0000000E+00
   2.700000      0.0000000E+00
   2.710000      0.0000000E+00
   2.720000      0.0000000E+00
   2.730000      0.0000000E+00
   2.740000      0.0000000E+00
   2.750000      0.0000000E+00
   2.760000      0.0000000E+00
   2.770000      0.0000000E+00
   2.780000      0.0000000E+00
   2.790000      0.0000000E+00
   2.800000      0.0000000E+00
   2.810000      0.0000000E+00
   2.820000      0.0000000E+00
   2.830000      0.0000000E+00
   2.840000      0.0000000E+00
   2.850000      0.0000000E+00
   2.860000      0.0000000E+00
   2.870000      0.0000000E+00
   2.880000      0.0000000E+00
   2.890000      0.0000000E+00
   2.900000      0.0000000E+00
   2.910000      0.0000000E+00
   2.920000      0.0000000E+00
   2.930000      0.0000000E+00
   2.940000      0.0000000E+00
   2.950000      0.0000000E+00
   2.960000      0.0000000E+00
   2.970000      0.0000000E+00
   2.980000      0.0000000E+00
   2.990000      0.0000000E+00
   3.000000      0.0000000E+00
   3.010000      0.0000000E+00
   3.020000      0.0000000E+00
   3.030000      0.0000000E+00
   3.040000      0.0000000E+00
   3.050000      0.0000000E+00
   3.060000      0.0000000E+00
   3.070000      0.0000000E+00
   3.080000      0.0000000E+00
   3.090000      0.0000000E+00
   3.100000      0.0000000E+00
   3.110000      0.0000000E+00
   3.120000      0.0000000E+00
   3.130000      0.0000000E+00
   3.140000      0.0000000E+00
   3.150000      0.0000000E+00
   3.160000      0.0000000E+00
   3.170000      0.0000000E+00
   3.180000      0.0000000E+00
   3.190000      0.0000000E+00
   3.200000      0.0000000E+00
   3.210000      0.0000000E+00
   3.220000      0.0000000E+00
   3.230000      0.0000000E+00
   3.240000      0.0000000E+00
   3.250000      0.0000000E+00
   3.260000      0.0000000E+00
   3.270000      0.0000000E+00
   3.280000      0.0000000E+00
   3.290000      0.0000000E+00
   3.300000      0.0000000E+00
   3.310000      0.0000000E+00
   3.320000      0.0000000E+00
   3.330000      0.0000000E+00
   3.340000      0.0000000E+00
   3.350000      0.0000000E+00
   3.360000      0.0000000E+00
   3.370000      0.0000000E+00
   3.380000      0.0000000E+00
   3.390000      0.0000000E+00
   3.400000      0.0000000E+00
   3.410000      0.0000000E+00
   3.420000      0.0000000E+00
   3.430000      0.0000000E+00
   3.440000      0.0000000E+00
   3.450000      0.0000000E+00
   3.460000      0.0000000E+00
   3.470000      0.0000000E+00
   3.480000      0.0000000E+00
   3.490000      0.0000000E+00
   3.500000      0.0000000E+00
   3.510000      0.0000000E+00
   3.520000      0.0000000E+00
   3.530000      0.0000000E+00
   3.540000      0.0000000E+00
   3.550000      0.0000000E+00
   3.560000      0.0000000E+00
   3.570000      0.0000000E+00
   3.580000      0.0000000E+00
   3.590000      0.0000000E+00
   3.600000      0.0000000E+00
   3.610000      0.0000000E+00
   3.620000      0.0000000E+00
   3.630000      0.0000000E+00
   3.640000      0.0000000E+00
   3.650000      0.0000000E+00
   3.660000      0.0000000E+00
   3.670000      0.0000000E+00
   3.680000      0.0000000E+00
   3.690000      0.0000000E+00
   3.700000     -1.4468579E-38
   3.710000     -1.7686807E-38
   3.720000     -2.1894973E-38
   3.730000     -2.7205747E-38
   3.740000     -3.3028871E-38
   3.750000     -3.9368763E-38
   3.760000     -4.6229882E-38
   3.770000     -5.3617855E-38
   3.780000     -6.1536582E-38
   3.790000     -6.9987319E-38
   3.800000     -7.8971885E-38
   3.810000     -8.6930699E-38
   3.820000     -9.3501763E-38
   3.830000     -9.9957826E-38
   3.840000     -1.0646101E-37
   3.850000     -1.1320684E-37
   3.860000     -1.1941763E-37
   3.870000     -1.2518166E-37
   3.880000     -1.3154356E-37
   3.890000     -1.3863900E-37
   3.900000     -1.4656804E-37
   3.910000     -1.5654488E-37
   3.920000     -1.6815548E-37
   3.930000     -1.7976992E-37
   3.940000     -1.9221618E-37
   3.950000     -2.0544020E-37
   3.960000     -2.1846299E-37
   3.970000     -2.3115553E-37
   3.980000     -2.4337375E-37
   3.990000     -2.5496413E-37
   4.000000     -2.6576116E-37
   4.010000     -2.7509899E-37
   4.020000     -2.8390143E-37
   4.030000     -2.9292795E-37
   4.040000     -2.9924016E-37
   4.050000     -3.0008244E-37
   4.060000     -2.9713935E-37
   4.070000     -2.9017611E-37
   4.080000     -2.7829258E-37
   4.090000     -2.6295500E-37
   4.100000     -2.4389474E-37
   4.110000     -2.1776810E-37
   4.120000     -1.8789182E-37
   4.130000     -1.5756990E-37
   4.140000     -1.2459150E-37
   4.150000     -8.9373645E-38
   4.160000     -5.1082340E-38
   4.170000      0.0000000E+00
   4.180000      3.8489255E-38
   4.190000      9.0897938E-38
   4.200000      1.4935528E-37
   4.210000      2.1803644E-37
   4.220000      2.9704604E-37
   4.230000      3.9001038E-37
   4.240000      4.9821698E-37
   4.250000      6.1555804E-37
   4.260000      7.4080574E-37
   4.270000      8.7293343E-37
   4.280000      1.0116781E-36
   4.290000      1.1561434E-36
   4.300000      1.2951203E-36
   4.310000      1.4303347E-36
   4.320000      1.5761730E-36
   4.330000      1.7299870E-36
   4.340000      1.8872933E-36
   4.350000      2.0476790E-36
   4.360000      2.1954866E-36
   4.370000      2.3290054E-36
   4.380000      2.4761596E-36
   4.390000      2.6306615E-36
   4.400000      2.7816206E-36
   4.410000      2.9226941E-36
   4.420000      3.0357472E-36
   4.430000      3.1264110E-36
   4.440000      3.2043431E-36
   4.450000      3.2433320E-36
   4.460000      3.2327913E-36
   4.470000      3.2123666E-36
   4.480000      3.2155607E-36
   4.490000      3.2340236E-36
   4.500000      3.2283004E-36
   4.510000      3.0666211E-36
   4.520000      2.7350187E-36
   4.530000      2.3244323E-36
   4.540000      1.7110582E-36
   4.550000      8.8221707E-37
   4.560000     -8.1402437E-38
   4.570000     -1.1804999E-36
   4.580000     -2.3615245E-36
   4.590000     -3.6475613E-36
   4.600000     -5.0734828E-36
   4.610000     -6.5879233E-36
   4.620000     -8.1686519E-36
   4.630000     -9.4760679E-36
   4.640000     -1.0431838E-35
   4.650000     -1.1196568E-35
   4.660000     -1.1818613E-35
   4.670000     -1.2441827E-35
   4.680000     -1.3061655E-35
   4.690000     -1.3772103E-35
   4.700000     -1.4601959E-35
   4.710000     -1.4993542E-35
   4.720000     -1.4831388E-35
   4.730000     -1.4370979E-35
   4.740000     -1.3622436E-35
   4.750000     -1.2908448E-35
   4.760000     -1.2295316E-35
   4.770000     -1.1725942E-35
   4.780000     -1.1013479E-35
   4.790000     -1.0286870E-35
   4.800000     -1.0085610E-35
   4.810000     -1.0236282E-35
   4.820000     -1.0747025E-35
   4.830000     -1.1516427E-35
   4.840000     -1.1998237E-35
   4.850000     -1.2147905E-35
   4.860000     -1.2303740E-35
   4.870000     -1.2467340E-35
   4.880000     -1.2447502E-35
   4.890000     -1.2236635E-35
   4.900000     -1.1725425E-35
   4.910000     -1.0831740E-35
   4.920000     -9.5753098E-36
   4.930000     -7.7269482E-36
   4.940000     -5.1415638E-36
   4.950000     -2.0390605E-36
   4.960000      1.6312443E-36
   4.970000      5.8260306E-36
   4.980000      1.0452814E-35
   4.990000      1.5610747E-35
   5.000000      2.1213223E-35
   5.010000      2.7311423E-35
   5.020000      3.4503709E-35
   5.030000      4.2757956E-35
   5.040000      5.1437859E-35
   5.050000      6.0310431E-35
   5.060000      6.9215466E-35
   5.070000      7.7905670E-35
   5.080000      8.6144313E-35
   5.090000      9.3572771E-35
   5.100000      1.0020880E-34
   5.110000      1.0618701E-34
   5.120000      1.1032778E-34
   5.130000      1.1302417E-34
   5.140000      1.1574734E-34
   5.150000      1.1794162E-34
   5.160000      1.1974229E-34
   5.170000      1.2171349E-34
   5.180000      1.2334614E-34
   5.190000      1.2446830E-34
   5.200000      1.2567760E-34
   5.210000      1.2825380E-34
   5.220000      1.3168391E-34
   5.230000      1.3495440E-34
   5.240000      1.3748973E-34
   5.250000      1.3872889E-34
   5.260000      1.3817445E-34
   5.270000      1.3595451E-34
   5.280000      1.3088585E-34
   5.290000      1.2198188E-34
   5.300000      1.1173973E-34
   5.310000      1.0035083E-34
   5.320000      8.7890238E-35
   5.330000      7.4677073E-35
   5.340000      6.0436842E-35
   5.350000      4.4371089E-35
   5.360000      2.5493895E-35
   5.370000      3.8822674E-36
   5.380000     -2.0523487E-35
   5.390000     -4.7544353E-35
   5.400000     -7.7416629E-35
   5.410000     -1.0998334E-34
   5.420000     -1.4445990E-34
   5.430000     -1.8034884E-34
   5.440000     -2.1882785E-34
   5.450000     -2.6029176E-34
   5.460000     -3.0374533E-34
   5.470000     -3.4763969E-34
   5.480000     -3.9345440E-34
   5.490000     -4.4405158E-34
   5.500000     -4.9850328E-34
   5.510000     -5.5340717E-34
   5.520000     -6.0777723E-34
   5.530000     -6.6310027E-34
   5.540000     -7.2013819E-34
   5.550000     -7.7739519E-34
   5.560000     -8.3371083E-34
   5.570000     -8.9156691E-34
   5.580000     -9.5028745E-34
   5.590000     -1.0093904E-33
   5.600000     -1.0730500E-33
   5.610000     -1.1403391E-33
   5.620000     -1.2073069E-33
   5.630000     -1.2743877E-33
   5.640000     -1.3407662E-33
   5.650000     -1.4042911E-33
   5.660000     -1.4643810E-33
   5.670000     -1.5183404E-33
   5.680000     -1.5635790E-33
   5.690000     -1.6019446E-33
   5.700000     -1.6356139E-33
   5.710000     -1.6646521E-33
   5.720000     -1.6854499E-33
   5.730000     -1.6967624E-33
   5.740000     -1.7004497E-33
   5.750000     -1.6934364E-33
   5.760000     -1.6742768E-33
   5.770000     -1.6443182E-33
   5.780000     -1.6023849E-33
   5.790000     -1.5454356E-33
   5.800000     -1.4710679E-33
   5.810000     -1.3812452E-33
   5.820000     -1.2770861E-33
   5.830000     -1.1571186E-33
   5.840000     -1.0211973E-33
   5.850000     -8.6911745E-34
   5.860000     -6.9967710E-34
   5.870000     -5.1227135E-34
   5.880000     -3.0362659E-34
   5.890000     -7.1529566E-35
   5.900000      1.8320738E-34
   5.910000      4.6021862E-34
   5.920000      7.6267580E-34
   5.930000      1.0928358E-33
   5.940000      1.4506914E-33
   5.950000      1.8348521E-33
   5.960000      2.2434258E-33
   5.970000      2.6824230E-33
   5.980000      3.1528977E-33
   5.990000      3.6501219E-33
   6.000000      4.1742017E-33
   6.010000      4.7272233E-33
   6.020000      5.3092161E-33
   6.030000      5.9177703E-33
   6.040000      6.5531393E-33
   6.050000      7.2157633E-33
   6.060000      7.9037132E-33
   6.070000      8.6160540E-33
   6.080000      9.3515469E-33
   6.090000      1.0108658E-32
   6.100000      1.0884995E-32
   6.110000      1.1678725E-32
   6.120000      1.2487612E-32
   6.130000      1.3307215E-32
   6.140000      1.4132545E-32
   6.150000      1.4960887E-32
   6.160000      1.5789378E-32
   6.170000      1.6613091E-32
   6.180000      1.7426300E-32
   6.190000      1.8222967E-32
   6.200000      1.8998307E-32
   6.210000      1.9747237E-32
   6.220000      2.0462606E-32
   6.230000      2.1137105E-32
   6.240000      2.1764077E-32
   6.250000      2.2337218E-32
   6.260000      2.2846209E-32
   6.270000      2.3281515E-32
   6.280000      2.3637502E-32
   6.290000      2.3904406E-32
   6.300000      2.4072017E-32
   6.310000      2.4131549E-32
   6.320000      2.4072730E-32
   6.330000      2.3885155E-32
   6.340000      2.3558786E-32
   6.350000      2.3084011E-32
   6.360000      2.2447922E-32
   6.370000      2.1638199E-32
   6.380000      2.0645315E-32
   6.390000      1.9456521E-32
   6.400000      1.8059026E-32
   6.410000      1.6440568E-32
   6.420000      1.4588846E-32
   6.430000      1.2491527E-32
   6.440000      1.0136696E-32
   6.450000      7.5116896E-33
   6.460000      4.6044202E-33
   6.470000      1.4047458E-33
   6.480000     -2.1016965E-33
   6.490000     -5.9252600E-33
   6.500000     -1.0072971E-32
   6.510000     -1.4556449E-32
   6.520000     -1.9384991E-32
   6.530000     -2.4565834E-32
   6.540000     -3.0105936E-32
   6.550000     -3.6010955E-32
   6.560000     -4.2285365E-32
   6.570000     -4.8932533E-32
   6.580000     -5.5953972E-32
   6.590000     -6.3349207E-32
   6.600000     -7.1116632E-32
   6.610000     -7.9252558E-32
   6.620000     -8.7751071E-32
   6.630000     -9.6604459E-32
   6.640000     -1.0580144E-31
   6.650000     -1.1532902E-31
   6.660000     -1.2517203E-31
   6.670000     -1.3531237E-31
   6.680000     -1.4572792E-31
   6.690000     -1.5639241E-31
   6.700000     -1.6727921E-31
   6.710000     -1.7835885E-31
   6.720000     -1.8959611E-31
   6.730000     -2.0095156E-31
   6.740000     -2.1238373E-31
   6.750000     -2.2384704E-31
   6.760000     -2.3529038E-31
   6.770000     -2.4666012E-31
   6.780000     -2.5789815E-31
   6.790000     -2.6894086E-31
   6.800000     -2.7972066E-31
   6.810000     -2.9016549E-31
   6.820000     -3.0019796E-31
   6.830000     -3.0973592E-31
   6.840000     -3.1869293E-31
   6.850000     -3.2697744E-31
   6.860000     -3.3449308E-31
   6.870000     -3.4113817E-31
   6.880000     -3.4680650E-31
   6.890000     -3.5138723E-31
   6.900000     -3.5476497E-31
   6.910000     -3.5681988E-31
   6.920000     -3.5742732E-31
   6.930000     -3.5645869E-31
   6.940000     -3.5378139E-31
   6.950000     -3.4925912E-31
   6.960000     -3.4275215E-31
   6.970000     -3.3411751E-31
   6.980000     -3.2320967E-31
   6.990000     -3.0988074E-31
   7.000000     -2.9398084E-31
   7.010000     -2.7535896E-31
   7.020000     -2.5386326E-31
   7.030000     -2.2934160E-31
   7.040000     -2.0164244E-31
   7.050000     -1.7061518E-31
   7.060000     -1.3611149E-31