  -2.600000      0.0000000E+00
  -2.590000      0.0000000E+00
  -2.580000      0.0000000E+00
  -2.570000      0.0000000E+00
  -2.560000      0.0000000E+00
  -2.550000      0.0000000E+00
  -2.540000      0.0000000E+00
  -2.530000      0.0000000E+00
  -2.520000      0.0000000E+00
  -2.510000      0.0000000E+00
  -2.500000      0.0000000E+00
  -2.490000      0.0000000E+00
  -2.480000      0.0000000E+00
  -2.470000      0.0000000E+00
  -2.460000      0.0000000E+00
  -2.450000      0.0000000E+00
  -2.440000      0.0000000E+00
  -2.430000      0.0000000E+00
  -2.420000      0.0000000E+00
  -2.410000      0.0000000E+00
  -2.400000      0.0000000E+00
  -2.390000      0.0000000E+00
  -2.380000      0.0000000E+00
  -2.370000      0.0000000E+00
  -2.360000      0.0000000E+00
  -2.350000      0.0000000E+00
  -2.340000      0.0000000E+00
  -2.330000      0.0000000E+00
  -2.320000      0.0000000E+00
  -2.310000      0.0000000E+00
  -2.300000      0.0000000E+00
  -2.290000      0.0000000E+00
  -2.280000      0.0000000E+00
  -2.270000      0.0000000E+00
  -2.260000      0.0000000E+00
  -2.250000      0.0000000E+00
  -2.240000      0.0000000E+00
  -2.230000      0.0000000E+00
  -2.220000      0.0000000E+00
  -2.210000      0.0000000E+00
  -2.200000      0.0000000E+00
  -2.190000      0.0000000E+00
  -2.180000      0.0000000E+00
  -2.170000      0.0000000E+00
  -2.160000      0.0000000E+00
  -2.150000      0.0000000E+00
  -2.140000      0.0000000E+00
  -2.130000      0.0000000E+00
  -2.120000      0.0000000E+00
  -2.110000      0.0000000E+00
  -2.100000      0.0000000E+00
  -2.090000      0.0000000E+00
  -2.080000      0.0000000E+00
  -2.070000      0.0000000E+00
  -2.060000      0.0000000E+00
  -2.050000      0.0000000E+00
  -2.040000      0.0000000E+00
  -2.030000      0.0000000E+00
  -2.020000      0.0000000E+00
  -2.010000      0.0000000E+00
  -2.000000      0.0000000E+00
  -1.990000      0.0000000E+00
  -1.980000      0.0000000E+00
  -1.970000      0.0000000E+00
  -1.960000      0.0000000E+00
  -1.950000      0.0000000E+00
  -1.940000      0.0000000E+00
  -1.930000      0.0000000E+00
  -1.920000      0.0000000E+00
  -1.910000      0.0000000E+00
  -1.900000      0.0000000E+00
  -1.890000      0.0000000E+00
  -1.880000      0.0000000E+00
  -1.870000      0.0000000E+00
  -1.860000      0.0000000E+00
  -1.850000      0.0000000E+00
  -1.840000      0.0000000E+00
  -1.830000      0.0000000E+00
  -1.820000      0.0000000E+00
  -1.810000      0.0000000E+00
  -1.800000      0.0000000E+00
  -1.790000      0.0000000E+00
  -1.780000      0.0000000E+00
  -1.770000      0.0000000E+00
  -1.760000      0.0000000E+00
  -1.750000      0.0000000E+00
  -1.740000      0.0000000E+00
  -1.730000      0.0000000E+00
  -1.720000      0.0000000E+00
  -1.710000      0.0000000E+00
  -1.700000      0.0000000E+00
  -1.690000      0.0000000E+00
  -1.680000      0.0000000E+00
  -1.670000      0.0000000E+00
  -1.660000      0.0000000E+00
  -1.650000      0.0000000E+00
  -1.640000      0.0000000E+00
  -1.630000      0.0000000E+00
  -1.620000      0.0000000E+00
  -1.610000      0.0000000E+00
  -1.600000      0.0000000E+00
  -1.590000      0.0000000E+00
  -1.580000      0.0000000E+00
  -1.570000      0.0000000E+00
  -1.560000      0.0000000E+00
  -1.550000      0.0000000E+00
  -1.540000      0.0000000E+00
  -1.530000      0.0000000E+00
  -1.520000      0.0000000E+00
  -1.510000      0.0000000E+00
  -1.500000      0.0000000E+00
  -1.490000      0.0000000E+00
  -1.480000      0.0000000E+00
  -1.470000      0.0000000E+00
  -1.460000      0.0000000E+00
  -1.450000      0.0000000E+00
  -1.440000      0.0000000E+00
  -1.430000      0.0000000E+00
  -1.420000      0.0000000E+00
  -1.410000      0.0000000E+00
  -1.400000      0.0000000E+00
  -1.390000      0.0000000E+00
  -1.380000      0.0000000E+00
  -1.370000      0.0000000E+00
  -1.360000      0.0000000E+00
  -1.350000      0.0000000E+00
  -1.340000      0.0000000E+00
  -1.330000      0.0000000E+00
  -1.320000      0.0000000E+00
  -1.310000      0.0000000E+00
  -1.300000      0.0000000E+00
  -1.290000      0.0000000E+00
  -1.280000      0.0000000E+00
  -1.270000      0.0000000E+00
  -1.260000      0.0000000E+00
  -1.250000      0.0000000E+00
  -1.240000      0.0000000E+00
  -1.230000      0.0000000E+00
  -1.220000      0.0000000E+00
  -1.210000      0.0000000E+00
  -1.200000      0.0000000E+00
  -1.190000      0.0000000E+00
  -1.180000      0.0000000E+00
  -1.170000      0.0000000E+00
  -1.160000      0.0000000E+00
  -1.150000      0.0000000E+00
  -1.140000      0.0000000E+00
  -1.130000      0.0000000E+00
  -1.120000      0.0000000E+00
  -1.110000      0.0000000E+00
  -1.100000      0.0000000E+00
  -1.090000      0.0000000E+00
  -1.080000      0.0000000E+00
  -1.070000      0.0000000E+00
  -1.060000      0.0000000E+00
  -1.050000      0.0000000E+00
  -1.040000      0.0000000E+00
  -1.030000      0.0000000E+00
  -1.020000      0.0000000E+00
  -1.010000      0.0000000E+00
  -1.000000      0.0000000E+00
 -0.9900000      0.0000000E+00
 -0.9800000      0.0000000E+00
 -0.9700000      0.0000000E+00
 -0.9600000      0.0000000E+00
 -0.9500000      0.0000000E+00
 -0.9400000      0.0000000E+00
 -0.9300000      0.0000000E+00
 -0.9200000      0.0000000E+00
 -0.9100000      0.0000000E+00
 -0.9000000      0.0000000E+00
 -0.8900000      0.0000000E+00
 -0.8800000      0.0000000E+00
 -0.8700000      0.0000000E+00
 -0.8600000      0.0000000E+00
 -0.8500000      0.0000000E+00
 -0.8400000      0.0000000E+00
 -0.8300000      0.0000000E+00
 -0.8200000      0.0000000E+00
 -0.8100000      0.0000000E+00
 -0.8000000      0.0000000E+00
 -0.7900000      0.0000000E+00
 -0.7800000      0.0000000E+00
 -0.7700000      0.0000000E+00
 -0.7600000      0.0000000E+00
 -0.7500000      0.0000000E+00
 -0.7400000      0.0000000E+00
 -0.7300000      0.0000000E+00
 -0.7200000      0.0000000E+00
 -0.7100000      0.0000000E+00
 -0.7000000      0.0000000E+00
 -0.6900000      0.0000000E+00
 -0.6800000      0.0000000E+00
 -0.6700000      0.0000000E+00
 -0.6600000      0.0000000E+00
 -0.6500000      0.0000000E+00
 -0.6400000      0.0000000E+00
 -0.6300000      0.0000000E+00
 -0.6200000      0.0000000E+00
 -0.6100000      0.0000000E+00
 -0.6000000      0.0000000E+00
 -0.5900000      0.0000000E+00
 -0.5800000      0.0000000E+00
 -0.5700000      0.0000000E+00
 -0.5600000      0.0000000E+00
 -0.5500000      0.0000000E+00
 -0.5400000      0.0000000E+00
 -0.5300000      0.0000000E+00
 -0.5200000      0.0000000E+00
 -0.5100000      0.0000000E+00
 -0.5000000      0.0000000E+00
 -0.4900000      0.0000000E+00
 -0.4800000      0.0000000E+00
 -0.4700000      0.0000000E+00
 -0.4600000      0.0000000E+00
 -0.4500000      0.0000000E+00
 -0.4400000      0.0000000E+00
 -0.4300000      0.0000000E+00
 -0.4200000      0.0000000E+00
 -0.4100000      0.0000000E+00
 -0.4000000      0.0000000E+00
 -0.3900000      0.0000000E+00
 -0.3800000      0.0000000E+00
 -0.3700000      0.0000000E+00
 -0.3600000      0.0000000E+00
 -0.3500000      0.0000000E+00
 -0.3400000      0.0000000E+00
 -0.3300000      0.0000000E+00
 -0.3200000      0.0000000E+00
 -0.3100000      0.0000000E+00
 -0.3000000      0.0000000E+00
 -0.2900000      0.0000000E+00
 -0.2800000      0.0000000E+00
 -0.2700000      0.0000000E+00
 -0.2600000      0.0000000E+00
 -0.2500000      0.0000000E+00
 -0.2400000      0.0000000E+00
 -0.2300000      0.0000000E+00
 -0.2200000      0.0000000E+00
 -0.2100000     -1.5590956E-38
 -0.2000000     -2.1668413E-38
 -0.1900000     -2.7739129E-38
 -0.1800000     -3.3020760E-38
 -0.1700000     -3.6158921E-38
 -0.1600000     -3.6047851E-38
 -0.1500000     -3.2182540E-38
 -0.1400000     -2.3651572E-38
 -0.1300000      0.0000000E+00
 -0.1200000      0.0000000E+00
 -0.1100000      2.5545455E-38
 -0.1000000      4.6815496E-38
 -9.0000004E-02  6.9532267E-38
 -7.9999998E-02  9.3159712E-38
 -7.0000000E-02  1.1577628E-37
 -5.9999999E-02  1.3629782E-37
 -5.0000001E-02  1.5274222E-37
 -3.9999999E-02  1.6365030E-37
 -2.9999999E-02  1.6642088E-37
 -2.0000000E-02  1.5939251E-37
 -9.9999998E-03  1.5002846E-37
 -3.4694470E-17  1.4088083E-37
  9.9999998E-03  1.2320630E-37
  2.0000000E-02  1.0121689E-37
  2.9999999E-02  7.7564740E-38
  3.9999999E-02  3.4419912E-38
  5.0000001E-02 -3.9167665E-38
  5.9999999E-02 -1.5059517E-37
  7.0000000E-02 -3.0013773E-37
  7.9999998E-02 -4.8128298E-37
  9.0000004E-02 -6.7189553E-37
  0.1000000     -9.0713578E-37
  0.1100000     -1.1974819E-36
  0.1200000     -1.4656576E-36
  0.1300000     -1.6340267E-36
  0.1400000     -1.7280386E-36
  0.1500000     -1.7590499E-36
  0.1600000     -1.6962396E-36
  0.1700000     -1.5385531E-36
  0.1800000     -1.2210989E-36
  0.1900000     -7.3679314E-37
  0.2000000     -1.1993606E-37
  0.2100000      5.7911190E-37
  0.2200000      1.4680653E-36
  0.2300000      2.5914440E-36
  0.2400000      3.7531101E-36
  0.2500000      4.8924252E-36
  0.2600000      5.9754685E-36
  0.2700000      7.0203975E-36
  0.2800000      7.7861943E-36
  0.2900000      7.9377530E-36
  0.3000000      7.5429300E-36
  0.3100000      6.3096632E-36
  0.3200000      4.0004694E-36
  0.3300000      4.4190608E-37
  0.3400000     -4.7089045E-36
  0.3500000     -1.1559500E-35
  0.3600000     -2.0463622E-35
  0.3700000     -3.1833351E-35
  0.3800000     -4.6042659E-35
  0.3900000     -6.3490287E-35
  0.4000000     -8.5441427E-35
  0.4100000     -1.1265643E-34
  0.4200000     -1.4430364E-34
  0.4300000     -1.8012480E-34
  0.4400000     -2.2028176E-34
  0.4500000     -2.6338459E-34
  0.4600000     -3.0552708E-34
  0.4700000     -3.4547191E-34
  0.4800000     -3.8541636E-34
  0.4900000     -4.2406900E-34
  0.5000000     -4.6262701E-34
  0.5100000     -5.0704347E-34
  0.5200000     -5.5676128E-34
  0.5300000     -6.0744520E-34
  0.5400000     -6.5971379E-34
  0.5500000     -7.1811432E-34
  0.5600000     -7.8745568E-34
  0.5700000     -8.6537800E-34
  0.5800000     -9.4925531E-34
  0.5900000     -1.0375428E-33
  0.6000000     -1.1249366E-33
  0.6100000     -1.2155556E-33
  0.6200000     -1.3108661E-33
  0.6300000     -1.4109857E-33
  0.6400000     -1.5177928E-33
  0.6500000     -1.6248471E-33
  0.6600000     -1.7295926E-33
  0.6700000     -1.8321079E-33
  0.6800000     -1.9294015E-33
  0.6900000     -2.0189281E-33
  0.7000000     -2.0989111E-33
  0.7100000     -2.1708071E-33
  0.7200000     -2.2283169E-33
  0.7300000     -2.2654515E-33
  0.7400000     -2.2841123E-33
  0.7500000     -2.2822278E-33
  0.7600000     -2.2581366E-33
  0.7700000     -2.2103112E-33
  0.7800000     -2.1352072E-33
  0.7900000     -2.0339129E-33
  0.8000000     -1.9079263E-33
  0.8100000     -1.7545822E-33
  0.8200000     -1.5737158E-33
  0.8300000     -1.3670076E-33
  0.8400000     -1.1327151E-33
  0.8500000     -8.6935062E-34
  0.8600000     -5.7898102E-34
  0.8700000     -2.6210893E-34
  0.8800000      8.0783536E-35
  0.8900000      4.4910786E-34
  0.9000000      8.4224326E-34
  0.9100000      1.2597024E-33
  0.9200000      1.7010015E-33
  0.9300000      2.1656665E-33
  0.9400000      2.6530263E-33
  0.9500000      3.1644073E-33
  0.9600000      3.6984564E-33
  0.9700000      4.2532853E-33
  0.9800000      4.8301221E-33
  0.9900000      5.4289432E-33
   1.000000      6.0497232E-33
   1.010000      6.6923634E-33
   1.020000      7.3564751E-33
   1.030000      8.0423797E-33
   1.040000      8.7501103E-33
   1.050000      9.4790131E-33
   1.060000      1.0228876E-32
   1.070000      1.0999302E-32
   1.080000      1.1789831E-32
   1.090000      1.2599980E-32
   1.100000      1.3429287E-32
   1.110000      1.4277368E-32
   1.120000      1.5143992E-32
   1.130000      1.6029188E-32
   1.140000      1.6933343E-32
   1.150000      1.7857318E-32
   1.160000      1.8802529E-32
   1.170000      1.9771224E-32
   1.180000      2.0766408E-32
   1.190000      2.1792037E-32
   1.200000      2.2853441E-32
   1.210000      2.3956929E-32
   1.220000      2.5109911E-32
   1.230000      2.6321220E-32
   1.240000      2.7601025E-32
   1.250000      2.8960781E-32
   1.260000      3.0412469E-32
   1.270000      3.1970981E-32
   1.280000      3.3652381E-32
   1.290000      3.5472241E-32
   1.300000      3.7447929E-32
   1.310000      3.9597838E-32
   1.320000      4.1940939E-32
   1.330000      4.4496913E-32
   1.340000      4.7286262E-32
   1.350000      5.0329954E-32
   1.360000      5.3649445E-32
   1.370000      5.7266629E-32
   1.380000      6.1203900E-32
   1.390000      6.5484104E-32
   1.400000      7.0130557E-32
   1.410000      7.5167315E-32
   1.420000      8.0619229E-32
   1.430000      8.6511976E-32
   1.440000      9.2872323E-32
   1.450000      9.9728188E-32
   1.460000      1.0710881E-31
   1.470000      1.1504494E-31
   1.480000      1.2356881E-31
   1.490000      1.3271424E-31
   1.500000      1.4251659E-31
   1.510000      1.5301268E-31
   1.520000      1.6424054E-31
   1.530000      1.7623929E-31
   1.540000      1.8904869E-31
   1.550000      2.0270866E-31
   1.560000      2.1725891E-31
   1.570000      2.3273824E-31
   1.580000      2.4918393E-31
   1.590000      2.6663113E-31
   1.600000      2.8511211E-31
   1.610000      3.0465565E-31
   1.620000      3.2528625E-31
   1.630000      3.4702373E-31
   1.640000      3.6988251E-31
   1.650000      3.9387118E-31
   1.660000      4.1899227E-31
   1.670000      4.4524176E-31
   1.680000      4.7260924E-31
   1.690000      5.0107741E-31
   1.700000      5.3062243E-31
   1.710000      5.6121387E-31
   1.720000      5.9281473E-31
   1.730000      6.2538166E-31
   1.740000      6.5886501E-31
   1.750000      6.9320886E-31
   1.760000      7.2835097E-31
   1.770000      7.6422264E-31
   1.780000      8.0074797E-31
   1.790000      8.3784413E-31
   1.800000      8.7541998E-31
   1.810000      9.1337529E-31
   1.820000      9.5160001E-31
   1.830000      9.8997257E-31
   1.840000      1.0283588E-30
   1.850000      1.0666102E-30
   1.860000      1.1045627E-30
   1.870000      1.1420345E-30
   1.880000      1.1788254E-30
   1.890000      1.2147148E-30
   1.900000      1.2494606E-30
   1.910000      1.2827991E-30
   1.920000      1.3144434E-30
   1.930000      1.3440839E-30
   1.940000      1.3713885E-30
   1.950000      1.3960030E-30
   1.960000      1.4175525E-30
   1.970000      1.4356433E-30
   1.980000      1.4498636E-30
   1.990000      1.4597869E-30
   2.000000      1.4649743E-30
   2.010000      1.4649765E-30
   2.020000      1.4593366E-30
   2.030000      1.4475933E-30
   2.040000      1.4292825E-30
   2.050000      1.4039404E-30
   2.060000      1.3711044E-30
   2.070000      1.3303155E-30
   2.080000      1.2811184E-30
   2.090000      1.2230628E-30
   2.100000      1.1557028E-30
   2.110000      1.0785979E-30
   2.120000      9.9131084E-31
   2.130000      8.9340834E-31
   2.140000      7.8445891E-31
   2.150000      6.6403257E-31
   2.160000      5.3170017E-31
   2.170000      3.8703314E-31
   2.180000      2.2960292E-31
   2.190000      5.8982057E-32
   2.200000     -1.2525426E-31
   2.210000     -3.2352644E-31
   2.220000     -5.3624736E-31
   2.230000     -7.6381935E-31
   2.240000     -1.0066302E-30
   2.250000     -1.2650477E-30
   2.260000     -1.5394145E-30
   2.270000     -1.8300450E-30
   2.280000     -2.1372182E-30
   2.290000     -2.4611745E-30
   2.300000     -2.8021126E-30
   2.310000     -3.1601851E-30
   2.320000     -3.5354992E-30
   2.330000     -3.9281151E-30
   2.340000     -4.3380515E-30
   2.350000     -4.7652878E-30
   2.360000     -5.2097699E-30
   2.370000     -5.6714191E-30
   2.380000     -6.1501439E-30
   2.390000     -6.6458508E-30
   2.400000     -7.1584589E-30
   2.410000     -7.6879159E-30
   2.420000     -8.2342097E-30
   2.430000     -8.7973914E-30
   2.440000     -9.3775876E-30
   2.450000     -9.9750209E-30
   2.460000     -1.0590016E-29
   2.470000     -1.1223027E-29
   2.480000     -1.1874642E-29
   2.490000     -1.2545593E-29
   2.500000     -1.3236772E-29
   2.510000     -1.3949240E-29
   2.520000     -1.4684223E-29
   2.530000     -1.5443126E-29
   2.540000     -1.6227538E-29
   2.550000     -1.7039230E-29
   2.560000     -1.7880171E-29
   2.570000     -1.8752515E-29
   2.580000     -1.9658617E-29
   2.590000     -2.0601042E-29
   2.600000     -2.1582573E-29
   2.610000     -2.2606217E-29
   2.620000     -2.3675216E-29
   2.630000     -2.4793077E-29
   2.640000     -2.5963582E-29
   2.650000     -2.7190794E-29
   2.660000     -2.8479099E-29
   2.670000     -2.9833218E-29
   2.680000     -3.1258216E-29
   2.690000     -3.2759533E-29
   2.700000     -3.4342993E-29
   2.710000     -3.6014794E-29
   2.720000     -3.7781527E-29
   2.730000     -3.9650173E-29
   2.740000     -4.1628091E-29
   2.750000     -4.3722970E-29
   2.760000     -4.5942818E-29
   2.770000     -4.8295892E-29
   2.780000     -5.0790637E-29
   2.790000     -5.3435661E-29
   2.800000     -5.6239604E-29
   2.810000     -5.9211097E-29
   2.820000     -6.2358602E-29
   2.830000     -6.5690317E-29
   2.840000     -6.9214100E-29
   2.850000     -7.2937332E-29
   2.860000     -7.6866759E-29
   2.870000     -8.1008387E-29
   2.880000     -8.5367368E-29
   2.890000     -8.9947850E-29
   2.900000     -9.4752846E-29
   2.910000     -9.9784110E-29
   2.920000     -1.0504195E-28
   2.930000     -1.1052521E-28
   2.940000     -1.1623103E-28
   2.950000     -1.2215475E-28
   2.960000     -1.2828976E-28
   2.970000     -1.3462732E-28
   2.980000     -1.4115649E-28
   2.990000     -1.4786384E-28
   3.000000     -1.5473341E-28
   3.010000     -1.6174641E-28
   3.020000     -1.6888109E-28
   3.030000     -1.7611252E-28
   3.040000     -1.8341234E-28
   3.050000     -1.9074846E-28
   3.060000     -1.9808501E-28
   3.070000     -2.0538199E-28
   3.080000     -2.1259498E-28
   3.090000     -2.1967504E-28
   3.100000     -2.2656840E-28
   3.110000     -2.3321623E-28
   3.120000     -2.3955446E-28
   3.130000     -2.4551375E-28
   3.140000     -2.5101928E-28
   3.150000     -2.5599056E-28
   3.160000     -2.6034162E-28
   3.170000     -2.6398086E-28
   3.180000     -2.6681111E-28
   3.190000     -2.6872996E-28
   3.200000     -2.6962961E-28
   3.210000     -2.6939742E-28
   3.220000     -2.6791607E-28
   3.230000     -2.6506398E-28
   3.240000     -2.6071559E-28
   3.250000     -2.5474201E-28
   3.260000     -2.4701135E-28
   3.270000     -2.3738964E-28
   3.280000     -2.2574107E-28
   3.290000     -2.1192873E-28
   3.300000     -1.9581564E-28
   3.310000     -1.7726531E-28
   3.320000     -1.5614262E-28
   3.330000     -1.3231459E-28
   3.340000     -1.0565151E-28
   3.350000     -7.6027848E-29
   3.360000     -4.3323493E-29
   3.370000     -7.4246172E-30
   3.380000      3.1774958E-29
   3.390000      7.4372276E-29
   3.400000      1.2045398E-28
   3.410000      1.7009476E-28
   3.420000      2.2335549E-28
   3.430000      2.8028222E-28
   3.440000      3.4090344E-28
   3.450000      4.0522837E-28
   3.460000      4.7324543E-28
   3.470000      5.4491987E-28
   3.480000      6.2019143E-28
   3.490000      6.9897241E-28
   3.500000      7.8114529E-28
   3.510000      8.6656062E-28
   3.520000      9.5503457E-28
   3.530000      1.0463463E-27
   3.540000      1.1402367E-27
   3.550000      1.2364055E-27
   3.560000      1.3345102E-27
   3.570000      1.4341635E-27
   3.580000      1.5349315E-27
   3.590000      1.6363327E-27
   3.600000      1.7378365E-27
   3.610000      1.8388623E-27
   3.620000      1.9387782E-27
   3.630000      2.0369005E-27
   3.640000      2.1324932E-27
   3.650000      2.2247692E-27
   3.660000      2.3128884E-27
   3.670000      2.3959603E-27
   3.680000      2.4730429E-27
   3.690000      2.5431458E-27
   3.700000      2.6052301E-27
   3.710000      2.6582111E-27
   3.720000      2.7009606E-27
   3.730000      2.7323097E-27
   3.740000      2.7510513E-27
   3.750000      2.7559449E-27
   3.760000      2.7457199E-27
   3.770000      2.7190820E-27
   3.780000      2.6747167E-27
   3.790000      2.6112962E-27
   3.800000      2.5274884E-27
   3.810000      2.4219613E-27
   3.820000      2.2933939E-27
   3.830000      2.1404849E-27
   3.840000      1.9619620E-27
   3.850000      1.7565941E-27
   3.860000      1.5232035E-27
   3.870000      1.2606782E-27
   3.880000      9.6798472E-28
   3.890000      6.4418577E-28
   3.900000      2.8845416E-28
   3.910000     -9.9911865E-29
   3.920000     -5.2147038E-28
   3.930000     -9.7661664E-28
   3.940000     -1.4655665E-27
   3.950000     -1.9883376E-27
   3.960000     -2.5447264E-27
   3.970000     -3.1342921E-27
   3.980000     -3.7563311E-27
   3.990000     -4.4098600E-27
   4.000000     -5.0935936E-27
   4.010000     -5.8059211E-27
   4.020000     -6.5448893E-27
   4.030000     -7.3081761E-27
   4.040000     -8.0930712E-27
   4.050000     -8.8964567E-27
   4.060000     -9.7147828E-27
   4.070000     -1.0544047E-26
   4.080000     -1.1379778E-26
   4.090000     -1.2217015E-26
   4.100000     -1.3050283E-26
   4.110000     -1.3873583E-26
   4.120000     -1.4680370E-26
   4.130000     -1.5463544E-26
   4.140000     -1.6215427E-26
   4.150000     -1.6927758E-26
   4.160000     -1.7591683E-26
   4.170000     -1.8197738E-26
   4.180000     -1.8735856E-26
   4.190000     -1.9195360E-26
   4.200000     -1.9564951E-26
   4.210000     -1.9832738E-26
   4.220000     -1.9986227E-26
   4.230000     -2.0012340E-26
   4.240000     -1.9897425E-26
   4.250000     -1.9627285E-26
   4.260000     -1.9187206E-26
   4.270000     -1.8561996E-26
   4.280000     -1.7735991E-26
   4.290000     -1.6693133E-26
   4.300000     -1.5417018E-26
   4.310000     -1.3890932E-26
   4.320000     -1.2097931E-26
   4.330000     -1.0020905E-26
   4.340000     -7.6426601E-27
   4.350000     -4.9460069E-27
   4.360000     -1.9138453E-27
   4.370000      1.4707289E-27
   4.380000      5.2243230E-27
   4.390000      9.3631126E-27
   4.400000      1.3902741E-26
   4.410000      1.8858165E-26
   4.420000      2.4243515E-26
   4.430000      3.0071963E-26
   4.440000      3.6355539E-26
   4.450000      4.3104978E-26
   4.460000      5.0329526E-26
   4.470000      5.8036786E-26
   4.480000      6.6232490E-26
   4.490000      7.4920327E-26
   4.500000      8.4101712E-26
   4.510000      9.3775557E-26
   4.520000      1.0393808E-25
   4.530000      1.1458254E-25
   4.540000      1.2569899E-25
   4.550000      1.3727409E-25
   4.560000      1.4929074E-25
   4.570000      1.6172794E-25
   4.580000      1.7456045E-25
   4.590000      1.8775856E-25
   4.600000      2.0128783E-25
   4.610000      2.1510881E-25
   4.620000      2.2917674E-25
   4.630000      2.4344132E-25
   4.640000      2.5784646E-25
   4.650000      2.7232997E-25
   4.660000      2.8682344E-25
   4.670000      3.0125180E-25
   4.680000      3.1553327E-25
   4.690000      3.2957896E-25
   4.700000      3.4329286E-25
   4.710000      3.5657149E-25
   4.720000      3.6930383E-25
   4.730000      3.8137116E-25
   4.740000      3.9264684E-25
   4.750000      4.0299627E-25
   4.760000      4.1227683E-25
   4.770000      4.2033783E-25
   4.780000      4.2702042E-25
   4.790000      4.3215768E-25
   4.800000      4.3557482E-25
   4.810000      4.3708904E-25
   4.820000      4.3650972E-25
   4.830000      4.3363876E-25
   4.840000      4.2827051E-25
   4.850000      4.2019248E-25
   4.860000      4.0918543E-25
   4.870000      3.9502387E-25
   4.880000      3.7747657E-25
   4.890000      3.5630717E-25
   4.900000      3.3127437E-25
   4.910000      3.0213318E-25
   4.920000      2.6863536E-25
   4.930000      2.3053038E-25
   4.940000      1.8756652E-25
   4.950000      1.3949157E-25
   4.960000      8.6054063E-26
   4.970000      2.7004598E-26
   4.980000     -3.7902868E-26
   4.990000     -1.0890991E-25
   5.000000     -1.8625174E-25
   5.010000     -2.7015575E-25
   5.020000     -3.6084004E-25
   5.030000     -4.5851135E-25
   5.040000     -5.6336324E-25
   5.050000     -6.7557412E-25
   5.060000     -7.9530526E-25
   5.070000     -9.2269806E-25
   5.080000     -1.0578725E-24
   5.090000     -1.2009241E-24
   5.100000     -1.3519217E-24
   5.110000     -1.5109051E-24
   5.120000     -1.6778817E-24
   5.130000     -1.8528244E-24
   5.140000     -2.0356682E-24
   5.150000     -2.2263079E-24
   5.160000     -2.4245944E-24
   5.170000     -2.6303320E-24
   5.180000     -2.8432752E-24
   5.190000     -3.0631254E-24
   5.200000     -3.2895275E-24
   5.210000     -3.5220667E-24
   5.220000     -3.7602664E-24
   5.230000     -4.0035827E-24
   5.240000     -4.2514033E-24
   5.250000     -4.5030421E-24
   5.260000     -4.7577373E-24
   5.270000     -5.0146484E-24
   5.280000     -5.2728532E-24
   5.290000     -5.5313424E-24
   5.300000     -5.7890187E-24
   5.310000     -6.0446952E-24
   5.320000     -6.2970893E-24
   5.330000     -6.5448239E-24
   5.340000     -6.7864221E-24
   5.350000     -7.0203075E-24
   5.360000     -7.2447992E-24
   5.370000     -7.4581150E-24
   5.380000     -7.6583658E-24
   5.390000     -7.8435541E-24
   5.400000     -8.0115814E-24
   5.410000     -8.1602367E-24
   5.420000     -8.2872055E-24
   5.430000     -8.3900651E-24
   5.440000     -8.4662856E-24
   5.450000     -8.5132394E-24
   5.460000     -8.5281962E-24
   5.470000     -8.5083263E-24
   5.480000     -8.4507056E-24
   5.490000     -8.3523204E-24
   5.500000     -8.2100730E-24
   5.510000     -8.0207803E-24
   5.520000     -7.7811899E-24
   5.530000     -7.4879829E-24
   5.540000     -7.1377783E-24
   5.550000     -6.7271486E-24
   5.560000     -6.2526243E-24
   5.570000     -5.7107073E-24
   5.580000     -5.0978834E-24
   5.590000     -4.4106286E-24
   5.600000     -3.6454339E-24
   5.610000     -2.7988118E-24
   5.620000     -1.8673107E-24
   5.630000     -8.4753520E-25
   5.640000      2.6383271E-25
   5.650000      1.4700154E-24
   5.660000      2.7741244E-24
   5.670000      4.1791362E-24
   5.680000      5.6878690E-24
   5.690000      7.3029563E-24
   5.700000      9.0268233E-24
   5.710000      1.0861668E-23
   5.720000      1.2809424E-23
   5.730000      1.4871735E-23
   5.740000      1.7049932E-23
   5.750000      1.9344987E-23
   5.760000      2.1757500E-23
   5.770000      2.4287650E-23
   5.780000      2.6935170E-23
   5.790000      2.9699316E-23
   5.800000      3.2578826E-23
   5.810000      3.5571881E-23
   5.820000      3.8676077E-23
   5.830000      4.1888378E-23
   5.840000      4.5205090E-23
   5.850000      4.8621808E-23
   5.860000      5.2133384E-23
   5.870000      5.5733906E-23
   5.880000      5.9416631E-23
   5.890000      6.3173957E-23
   5.900000      6.6997395E-23
   5.910000      7.0877524E-23
   5.920000      7.4803944E-23
   5.930000      7.8765256E-23
   5.940000      8.2749016E-23
   5.950000      8.6741725E-23
   5.960000      9.0728754E-23
   5.970000      9.4694346E-23
   5.980000      9.8621579E-23
   5.990000      1.0249234E-22
   6.000000      1.0628733E-22
   6.010000      1.0998597E-22
   6.020000      1.1356645E-22
   6.030000      1.1700568E-22
   6.040000      1.2027933E-22
   6.050000      1.2336173E-22
   6.060000      1.2622595E-22
   6.070000      1.2884381E-22
   6.080000      1.3118576E-22
   6.090000      1.3322108E-22
   6.100000      1.3491774E-22
   6.110000      1.3624255E-22
   6.120000      1.3716106E-22
   6.130000      1.3763771E-22
   6.140000      1.3763583E-22
   6.150000      1.3711766E-22
   6.160000      1.3604447E-22
   6.170000      1.3437657E-22
   6.180000      1.3207347E-22
   6.190000      1.2909381E-22
   6.200000      1.2539563E-22
   6.210000      1.2093640E-22
   6.220000      1.1567316E-22
   6.230000      1.0956253E-22
   6.240000      1.0256101E-22
   6.250000      9.4625014E-23
   6.260000      8.5711088E-23
   6.270000      7.5775965E-23
   6.280000      6.4776897E-23
   6.290000      5.2671750E-23
   6.300000      3.9419209E-23
   6.310000      2.4979049E-23
   6.320000      9.3123105E-24
   6.330000     -7.6184881E-24
   6.340000     -2.5849061E-23
   6.350000     -4.5413059E-23
   6.360000     -6.6341927E-23
   6.370000     -8.8664488E-23
   6.380000     -1.1240667E-22
   6.390000     -1.3759123E-22
   6.400000     -1.6423745E-22
   6.410000     -1.9236083E-22
   6.420000     -2.2197266E-22
   6.430000     -2.5307973E-22
   6.440000     -2.8568400E-22
   6.450000     -3.1978222E-22
   6.460000     -3.5536548E-22
   6.470000     -3.9241890E-22
   6.480000     -4.3092137E-22
   6.490000     -4.7084505E-22
   6.500000     -5.1215475E-22
   6.510000     -5.5480797E-22
   6.520000     -5.9875421E-22
   6.530000     -6.4393471E-22
   6.540000     -6.9028182E-22
   6.550000     -7.3771904E-22
   6.560000     -7.8616010E-22
   6.570000     -8.3550917E-22
   6.580000     -8.8565992E-22
   6.590000     -9.3649568E-22
   6.600000     -9.8788842E-22
   6.610000     -1.0396993E-21
   6.620000     -1.0917774E-21
   6.630000     -1.1439604E-21
   6.640000     -1.1960732E-21
   6.650000     -1.2479285E-21
   6.660000     -1.2993265E-21
   6.670000     -1.3500541E-21
   6.680000     -1.3998855E-21
   6.690000     -1.4485813E-21
   6.700000     -1.4958891E-21
   6.710000     -1.5415428E-21
   6.720000     -1.5852629E-21
   6.730000     -1.6267569E-21
   6.740000     -1.6657185E-21
   6.750000     -1.7018280E-21
   6.760000     -1.7347530E-21
   6.770000     -1.7641480E-21
   6.780000     -1.7896557E-21
   6.790000     -1.8109056E-21
   6.800000     -1.8275158E-21
   6.810000     -1.8390933E-21
   6.820000     -1.8452342E-21
   6.830000     -1.8455246E-21
   6.840000     -1.8395404E-21
   6.850000     -1.8268506E-21
   6.860000     -1.8070152E-21
   6.870000     -1.7795880E-21
   6.880000     -1.7441170E-21
   6.890000     -1.7001451E-21
   6.900000     -1.6472128E-21
   6.910000     -1.5848583E-21
   6.920000     -1.5126190E-21
   6.930000     -1.4300330E-21
   6.940000     -1.3366419E-21
   6.950000     -1.2319922E-21
   6.960000     -1.1156351E-21
   6.970000     -9.8713061E-22
   6.980000     -8.4604916E-22
   6.990000     -6.9197308E-22
   7.000000     -5.2449966E-22
   7.010000     -3.4324302E-22
   7.020000     -1.4783653E-22
   7.030000      6.2063916E-23
   7.040000      2.8677820E-22
   7.050000      5.2659911E-22
   7.060000      7.8178867E-22