  -2.600000      0.0000000E+00
  -2.590000      0.0000000E+00
  -2.580000      0.0000000E+00
  -2.570000      0.0000000E+00
  -2.560000      0.0000000E+00
  -2.550000      0.0000000E+00
  -2.540000      0.0000000E+00
  -2.530000      0.0000000E+00
  -2.520000      0.0000000E+00
  -2.510000      0.0000000E+00
  -2.500000      0.0000000E+00
  -2.490000      0.0000000E+00
  -2.480000      0.0000000E+00
  -2.470000      0.0000000E+00
  -2.460000      0.0000000E+00
  -2.450000      0.0000000E+00
  -2.440000      0.0000000E+00
  -2.430000      0.0000000E+00
  -2.420000      0.0000000E+00
  -2.410000      0.0000000E+00
  -2.400000      0.0000000E+00
  -2.390000      0.0000000E+00
  -2.380000      0.0000000E+00
  -2.370000      0.0000000E+00
  -2.360000      0.0000000E+00
  -2.350000      0.0000000E+00
  -2.340000      0.0000000E+00
  -2.330000      0.0000000E+00
  -2.320000      0.0000000E+00
  -2.310000      0.0000000E+00
  -2.300000      0.0000000E+00
  -2.290000      0.0000000E+00
  -2.280000      0.0000000E+00
  -2.270000      0.0000000E+00
  -2.260000      0.0000000E+00
  -2.250000      0.0000000E+00
  -2.240000      0.0000000E+00
  -2.230000      0.0000000E+00
  -2.220000      0.0000000E+00
  -2.210000      0.0000000E+00
  -2.200000      0.0000000E+00
  -2.190000      0.0000000E+00
  -2.180000      0.0000000E+00
  -2.170000      0.0000000E+00
  -2.160000      0.0000000E+00
  -2.150000      0.0000000E+00
  -2.140000      0.0000000E+00
  -2.130000      0.0000000E+00
  -2.120000      0.0000000E+00
  -2.110000      0.0000000E+00
  -2.100000      0.0000000E+00
  -2.090000      0.0000000E+00
  -2.080000      0.0000000E+00
  -2.070000      0.0000000E+00
  -2.060000      0.0000000E+00
  -2.050000      0.0000000E+00
  -2.040000      0.0000000E+00
  -2.030000      0.0000000E+00
  -2.020000      0.0000000E+00
  -2.010000      0.0000000E+00
  -2.000000      0.0000000E+00
  -1.990000      0.0000000E+00
  -1.980000      0.0000000E+00
  -1.970000      0.0000000E+00
  -1.960000      0.0000000E+00
  -1.950000      0.0000000E+00
  -1.940000      0.0000000E+00
  -1.930000      0.0000000E+00
  -1.920000      0.0000000E+00
  -1.910000      0.0000000E+00
  -1.900000      0.0000000E+00
  -1.890000      0.0000000E+00
  -1.880000      0.0000000E+00
  -1.870000      0.0000000E+00
  -1.860000      0.0000000E+00
  -1.850000      0.0000000E+00
  -1.840000      0.0000000E+00
  -1.830000      0.0000000E+00
  -1.820000      0.0000000E+00
  -1.810000      0.0000000E+00
  -1.800000      0.0000000E+00
  -1.790000      0.0000000E+00
  -1.780000      0.0000000E+00
  -1.770000      0.0000000E+00
  -1.760000      0.0000000E+00
  -1.750000      0.0000000E+00
  -1.740000      0.0000000E+00
  -1.730000      0.0000000E+00
  -1.720000      0.0000000E+00
  -1.710000      0.0000000E+00
  -1.700000      0.0000000E+00
  -1.690000      0.0000000E+00
  -1.680000      0.0000000E+00
  -1.670000      0.0000000E+00
  -1.660000      0.0000000E+00
  -1.650000      0.0000000E+00
  -1.640000      0.0000000E+00
  -1.630000      0.0000000E+00
  -1.620000      0.0000000E+00
  -1.610000      0.0000000E+00
  -1.600000      0.0000000E+00
  -1.590000      0.0000000E+00
  -1.580000      0.0000000E+00
  -1.570000      0.0000000E+00
  -1.560000      0.0000000E+00
  -1.550000      0.0000000E+00
  -1.540000      0.0000000E+00
  -1.530000      0.0000000E+00
  -1.520000      0.0000000E+00
  -1.510000      0.0000000E+00
  -1.500000      0.0000000E+00
  -1.490000      0.0000000E+00
  -1.480000      0.0000000E+00
  -1.470000      0.0000000E+00
  -1.460000      0.0000000E+00
  -1.450000      0.0000000E+00
  -1.440000      0.0000000E+00
  -1.430000      0.0000000E+00
  -1.420000      0.0000000E+00
  -1.410000      0.0000000E+00
  -1.400000      0.0000000E+00
  -1.390000      0.0000000E+00
  -1.380000      0.0000000E+00
  -1.370000      0.0000000E+00
  -1.360000      0.0000000E+00
  -1.350000      0.0000000E+00
  -1.340000      0.0000000E+00
  -1.330000      0.0000000E+00
  -1.320000      0.0000000E+00
  -1.310000      0.0000000E+00
  -1.300000      0.0000000E+00
  -1.290000      0.0000000E+00
  -1.280000      0.0000000E+00
  -1.270000      0.0000000E+00
  -1.260000      0.0000000E+00
  -1.250000      0.0000000E+00
  -1.240000      0.0000000E+00
  -1.230000      0.0000000E+00
  -1.220000      0.0000000E+00
  -1.210000      0.0000000E+00
  -1.200000      0.0000000E+00
  -1.190000      0.0000000E+00
  -1.180000      0.0000000E+00
  -1.170000      0.0000000E+00
  -1.160000      0.0000000E+00
  -1.150000      0.0000000E+00
  -1.140000      0.0000000E+00
  -1.130000      0.0000000E+00
  -1.120000      0.0000000E+00
  -1.110000      0.0000000E+00
  -1.100000      0.0000000E+00
  -1.090000      0.0000000E+00
  -1.080000      0.0000000E+00
  -1.070000      0.0000000E+00
  -1.060000      0.0000000E+00
  -1.050000      0.0000000E+00
  -1.040000      0.0000000E+00
  -1.030000      0.0000000E+00
  -1.020000      0.0000000E+00
  -1.010000      0.0000000E+00
  -1.000000      0.0000000E+00
 -0.9900000      0.0000000E+00
 -0.9800000      0.0000000E+00
 -0.9700000      0.0000000E+00
 -0.9600000      0.0000000E+00
 -0.9500000      0.0000000E+00
 -0.9400000      0.0000000E+00
 -0.9300000      0.0000000E+00
 -0.9200000      0.0000000E+00
 -0.9100000      0.0000000E+00
 -0.9000000      0.0000000E+00
 -0.8900000      0.0000000E+00
 -0.8800000      0.0000000E+00
 -0.8700000      0.0000000E+00
 -0.8600000      0.0000000E+00
 -0.8500000      0.0000000E+00
 -0.8400000      0.0000000E+00
 -0.8300000      0.0000000E+00
 -0.8200000      0.0000000E+00
 -0.8100000      0.0000000E+00
 -0.8000000      0.0000000E+00
 -0.7900000      0.0000000E+00
 -0.7800000      0.0000000E+00
 -0.7700000      0.0000000E+00
 -0.7600000      0.0000000E+00
 -0.7500000      0.0000000E+00
 -0.7400000      0.0000000E+00
 -0.7300000      0.0000000E+00
 -0.7200000      0.0000000E+00
 -0.7100000      0.0000000E+00
 -0.7000000      0.0000000E+00
 -0.6900000      0.0000000E+00
 -0.6800000      0.0000000E+00
 -0.6700000      0.0000000E+00
 -0.6600000      0.0000000E+00
 -0.6500000      0.0000000E+00
 -0.6400000      0.0000000E+00
 -0.6300000      0.0000000E+00
 -0.6200000      0.0000000E+00
 -0.6100000      0.0000000E+00
 -0.6000000      0.0000000E+00
 -0.5900000      0.0000000E+00
 -0.5800000      0.0000000E+00
 -0.5700000      0.0000000E+00
 -0.5600000      0.0000000E+00
 -0.5500000      0.0000000E+00
 -0.5400000      0.0000000E+00
 -0.5300000      0.0000000E+00
 -0.5200000      0.0000000E+00
 -0.5100000      0.0000000E+00
 -0.5000000      0.0000000E+00
 -0.4900000      0.0000000E+00
 -0.4800000      0.0000000E+00
 -0.4700000      0.0000000E+00
 -0.4600000      0.0000000E+00
 -0.4500000      0.0000000E+00
 -0.4400000      0.0000000E+00
 -0.4300000      0.0000000E+00
 -0.4200000      0.0000000E+00
 -0.4100000      0.0000000E+00
 -0.4000000      0.0000000E+00
 -0.3900000      0.0000000E+00
 -0.3800000      0.0000000E+00
 -0.3700000      0.0000000E+00
 -0.3600000      0.0000000E+00
 -0.3500000      0.0000000E+00
 -0.3400000      0.0000000E+00
 -0.3300000      0.0000000E+00
 -0.3200000      0.0000000E+00
 -0.3100000      0.0000000E+00
 -0.3000000      0.0000000E+00
 -0.2900000      0.0000000E+00
 -0.2800000      0.0000000E+00
 -0.2700000      0.0000000E+00
 -0.2600000      0.0000000E+00
 -0.2500000      0.0000000E+00
 -0.2400000      0.0000000E+00
 -0.2300000      0.0000000E+00
 -0.2200000      0.0000000E+00
 -0.2100000      0.0000000E+00
 -0.2000000      0.0000000E+00
 -0.1900000      0.0000000E+00
 -0.1800000      0.0000000E+00
 -0.1700000      0.0000000E+00
 -0.1600000      0.0000000E+00
 -0.1500000      0.0000000E+00
 -0.1400000      0.0000000E+00
 -0.1300000      0.0000000E+00
 -0.1200000      0.0000000E+00
 -0.1100000      0.0000000E+00
 -0.1000000      0.0000000E+00
 -9.0000004E-02  0.0000000E+00
 -7.9999998E-02  0.0000000E+00
 -7.0000000E-02  0.0000000E+00
 -5.9999999E-02  0.0000000E+00
 -5.0000001E-02  0.0000000E+00
 -3.9999999E-02  0.0000000E+00
 -2.9999999E-02  0.0000000E+00
 -2.0000000E-02  0.0000000E+00
 -9.9999998E-03  0.0000000E+00
 -3.4694470E-17  0.0000000E+00
  9.9999998E-03  0.0000000E+00
  2.0000000E-02  0.0000000E+00
  2.9999999E-02  0.0000000E+00
  3.9999999E-02  0.0000000E+00
  5.0000001E-02  0.0000000E+00
  5.9999999E-02  0.0000000E+00
  7.0000000E-02  0.0000000E+00
  7.9999998E-02  0.0000000E+00
  9.0000004E-02  0.0000000E+00
  0.1000000      0.0000000E+00
  0.1100000      0.0000000E+00
  0.1200000      0.0000000E+00
  0.1300000      0.0000000E+00
  0.1400000      0.0000000E+00
  0.1500000      0.0000000E+00
  0.1600000      0.0000000E+00
  0.1700000      0.0000000E+00
  0.1800000      0.0000000E+00
  0.1900000      0.0000000E+00
  0.2000000      0.0000000E+00
  0.2100000      0.0000000E+00
  0.2200000      0.0000000E+00
  0.2300000      0.0000000E+00
  0.2400000      0.0000000E+00
  0.2500000      0.0000000E+00
  0.2600000      0.0000000E+00
  0.2700000      0.0000000E+00
  0.2800000      0.0000000E+00
  0.2900000      0.0000000E+00
  0.3000000      0.0000000E+00
  0.3100000      0.0000000E+00
  0.3200000      0.0000000E+00
  0.3300000      0.0000000E+00
  0.3400000      0.0000000E+00
  0.3500000      0.0000000E+00
  0.3600000      0.0000000E+00
  0.3700000      0.0000000E+00
  0.3800000      0.0000000E+00
  0.3900000      0.0000000E+00
  0.4000000      0.0000000E+00
  0.4100000      0.0000000E+00
  0.4200000      0.0000000E+00
  0.4300000      0.0000000E+00
  0.4400000      0.0000000E+00
  0.4500000      0.0000000E+00
  0.4600000      0.0000000E+00
  0.4700000      0.0000000E+00
  0.4800000      0.0000000E+00
  0.4900000      0.0000000E+00
  0.5000000      0.0000000E+00
  0.5100000      0.0000000E+00
  0.5200000      0.0000000E+00
  0.5300000      0.0000000E+00
  0.5400000      0.0000000E+00
  0.5500000      0.0000000E+00
  0.5600000      0.0000000E+00
  0.5700000      0.0000000E+00
  0.5800000      0.0000000E+00
  0.5900000      0.0000000E+00
  0.6000000      0.0000000E+00
  0.6100000      0.0000000E+00
  0.6200000      0.0000000E+00
  0.6300000      0.0000000E+00
  0.6400000      0.0000000E+00
  0.6500000      0.0000000E+00
  0.6600000      0.0000000E+00
  0.6700000      0.0000000E+00
  0.6800000      0.0000000E+00
  0.6900000      0.0000000E+00
  0.7000000      0.0000000E+00
  0.7100000      0.0000000E+00
  0.7200000      0.0000000E+00
  0.7300000      0.0000000E+00
  0.7400000      1.5434488E-38
  0.7500000      2.0334714E-38
  0.7600000      2.5828517E-38
  0.7700000      3.1865821E-38
  0.7800000      3.8463617E-38
  0.7900000      4.5684586E-38
  0.8000000      5.4451813E-38
  0.8100000      6.5591042E-38
  0.8200000      7.8080406E-38
  0.8300000      9.0151051E-38
  0.8400000      1.0181832E-37
  0.8500000      1.1264830E-37
  0.8600000      1.2167830E-37
  0.8700000      1.2918977E-37
  0.8800000      1.3428380E-37
  0.8900000      1.3684570E-37
  0.9000000      1.3819835E-37
  0.9100000      1.3821760E-37
  0.9200000      1.3525619E-37
  0.9300000      1.3072477E-37
  0.9400000      1.2437457E-37
  0.9500000      1.1392641E-37
  0.9600000      9.9780320E-38
  0.9700000      8.1693088E-38
  0.9800000      5.9504430E-38
  0.9900000      3.1678258E-38
   1.000000      0.0000000E+00
   1.010000     -4.3160968E-38
   1.020000     -9.4217860E-38
   1.030000     -1.5577213E-37
   1.040000     -2.3558816E-37
   1.050000     -3.3479684E-37
   1.060000     -4.4636777E-37
   1.070000     -5.6691061E-37
   1.080000     -6.9461432E-37
   1.090000     -8.3123043E-37
   1.100000     -9.6966607E-37
   1.110000     -1.1079666E-36
   1.120000     -1.2475233E-36
   1.130000     -1.3760003E-36
   1.140000     -1.4957684E-36
   1.150000     -1.6174258E-36
   1.160000     -1.7400210E-36
   1.170000     -1.8691881E-36
   1.180000     -2.0062551E-36
   1.190000     -2.1599572E-36
   1.200000     -2.3292544E-36
   1.210000     -2.5011428E-36
   1.220000     -2.6728789E-36
   1.230000     -2.6966484E-36
   1.240000     -2.5474151E-36
   1.250000     -2.3145478E-36
   1.260000     -1.6432367E-36
   1.270000     -5.7963767E-37
   1.280000      4.0041447E-37
   1.290000      1.3701894E-36
   1.300000      2.4873133E-36
   1.310000      3.7282137E-36
   1.320000      4.8451009E-36
   1.330000      5.7292163E-36
   1.340000      6.6084766E-36
   1.350000      7.5647043E-36
   1.360000      8.3592263E-36
   1.370000      8.9069052E-36
   1.380000      9.3494748E-36
   1.390000      9.6567413E-36
   1.400000      9.8068816E-36
   1.410000      9.8991483E-36
   1.420000      9.9931398E-36
   1.430000      9.8876624E-36
   1.440000      9.3711846E-36
   1.450000      8.6184636E-36
   1.460000      7.9423556E-36
   1.470000      7.4362121E-36
   1.480000      7.0407312E-36
   1.490000      6.3434580E-36
   1.500000      5.3115807E-36
   1.510000      4.3665213E-36
   1.520000      3.5832557E-36
   1.530000      2.8010077E-36
   1.540000      1.7050689E-36
   1.550000      4.9854276E-37
   1.560000     -7.2895376E-37
   1.570000     -2.2904149E-36
   1.580000     -4.2073292E-36
   1.590000     -6.2385015E-36
   1.600000     -8.3079857E-36
   1.610000     -1.0596250E-35
   1.620000     -1.3147082E-35
   1.630000     -1.5929888E-35
   1.640000     -1.8858095E-35
   1.650000     -2.1907975E-35
   1.660000     -2.5032735E-35
   1.670000     -2.8725012E-35
   1.680000     -3.2479362E-35
   1.690000     -3.5630795E-35
   1.700000     -3.8563191E-35
   1.710000     -4.1437017E-35
   1.720000     -4.4172529E-35
   1.730000     -4.6427432E-35
   1.740000     -4.8172493E-35
   1.750000     -4.9299343E-35
   1.760000     -4.9614695E-35
   1.770000     -4.9046205E-35
   1.780000     -4.7518309E-35
   1.790000     -4.4913587E-35
   1.800000     -4.1023682E-35
   1.810000     -3.5896719E-35
   1.820000     -2.9640848E-35
   1.830000     -2.2222048E-35
   1.840000     -1.2766964E-35
   1.850000     -8.1773240E-37
   1.860000      1.3806429E-35
   1.870000      3.1135456E-35
   1.880000      5.0282368E-35
   1.890000      7.1285674E-35
   1.900000      9.3601763E-35
   1.910000      1.1824825E-34
   1.920000      1.4637899E-34
   1.930000      1.7713017E-34
   1.940000      2.0955859E-34
   1.950000      2.4172251E-34
   1.960000      2.7128265E-34
   1.970000      3.0043376E-34
   1.980000      3.2713842E-34
   1.990000      3.4709758E-34
   2.000000      3.6433977E-34
   2.010000      3.8046989E-34
   2.020000      3.9640273E-34
   2.030000      4.1501852E-34
   2.040000      4.3434714E-34
   2.050000      4.4875888E-34
   2.060000      4.5638137E-34
   2.070000      4.5785289E-34
   2.080000      4.5618810E-34
   2.090000      4.5403070E-34
   2.100000      4.4997648E-34
   2.110000      4.3848038E-34
   2.120000      4.1728562E-34
   2.130000      3.9089894E-34
   2.140000      3.6170138E-34
   2.150000      3.2687977E-34
   2.160000      2.8502528E-34
   2.170000      2.3800645E-34
   2.180000      1.8174527E-34
   2.190000      1.1191403E-34
   2.200000      3.1204499E-35
   2.210000     -5.7285685E-35
   2.220000     -1.5991903E-34
   2.230000     -2.8091330E-34
   2.240000     -4.1868790E-34
   2.250000     -5.7163592E-34
   2.260000     -7.4008302E-34
   2.270000     -9.2610542E-34
   2.280000     -1.1290947E-33
   2.290000     -1.3487067E-33
   2.300000     -1.5841959E-33
   2.310000     -1.8336981E-33
   2.320000     -2.0974408E-33
   2.330000     -2.3757092E-33
   2.340000     -2.6675517E-33
   2.350000     -2.9678273E-33
   2.360000     -3.2716980E-33
   2.370000     -3.5808945E-33
   2.380000     -3.8928655E-33
   2.390000     -4.2028945E-33
   2.400000     -4.5085542E-33
   2.410000     -4.8064759E-33
   2.420000     -5.0938876E-33
   2.430000     -5.3672032E-33
   2.440000     -5.6221599E-33
   2.450000     -5.8554187E-33
   2.460000     -6.0631378E-33
   2.470000     -6.2414643E-33
   2.480000     -6.3860553E-33
   2.490000     -6.4925315E-33
   2.500000     -6.5566121E-33
   2.510000     -6.5740352E-33
   2.520000     -6.5399062E-33
   2.530000     -6.4490280E-33
   2.540000     -6.2968852E-33
   2.550000     -6.0782403E-33
   2.560000     -5.7882782E-33
   2.570000     -5.4223104E-33
   2.580000     -4.9748229E-33
   2.590000     -4.4410713E-33
   2.600000     -3.8163162E-33
   2.610000     -3.0952867E-33
   2.620000     -2.2734445E-33
   2.630000     -1.3454213E-33
   2.640000     -3.0964078E-34
   2.650000      8.3519737E-34
   2.660000      2.0932770E-33
   2.670000      3.4663003E-33
   2.680000      4.9550573E-33
   2.690000      6.5593584E-33
   2.700000      8.2781721E-33
   2.710000      1.0109390E-32
   2.720000      1.2049522E-32
   2.730000      1.4093808E-32
   2.740000      1.6236101E-32
   2.750000      1.8468888E-32
   2.760000      2.0783172E-32
   2.770000      2.3168328E-32
   2.780000      2.5612188E-32
   2.790000      2.8100874E-32
   2.800000      3.0619059E-32
   2.810000      3.3149802E-32
   2.820000      3.5674343E-32
   2.830000      3.8172401E-32
   2.840000      4.0622848E-32
   2.850000      4.3001532E-32
   2.860000      4.5282811E-32
   2.870000      4.7441109E-32
   2.880000      4.9448774E-32
   2.890000      5.1276915E-32
   2.900000      5.2895465E-32
   2.910000      5.4273309E-32
   2.920000      5.5378373E-32
   2.930000      5.6177857E-32
   2.940000      5.6638280E-32
   2.950000      5.6725696E-32
   2.960000      5.6405932E-32
   2.970000      5.5644788E-32
   2.980000      5.4408232E-32
   2.990000      5.2662729E-32
   3.000000      5.0375505E-32
   3.010000      4.7514848E-32
   3.020000      4.4050499E-32
   3.030000      3.9953986E-32
   3.040000      3.5198979E-32
   3.050000      2.9761733E-32
   3.060000      2.3621503E-32
   3.070000      1.6760648E-32
   3.080000      9.1661214E-33
   3.090000      8.2923578E-34
   3.100000     -8.2545557E-33
   3.110000     -1.8084164E-32
   3.120000     -2.8652719E-32
   3.130000     -3.9947083E-32
   3.140000     -5.1947388E-32
   3.150000     -6.4626593E-32
   3.160000     -7.7950016E-32
   3.170000     -9.1874993E-32
   3.180000     -1.0635037E-31
   3.190000     -1.2131620E-31
   3.200000     -1.3670336E-31
   3.210000     -1.5243335E-31
   3.220000     -1.6841799E-31
   3.230000     -1.8455923E-31
   3.240000     -2.0074902E-31
   3.250000     -2.1686923E-31
   3.260000     -2.3279154E-31
   3.270000     -2.4837761E-31
   3.280000     -2.6347909E-31
   3.290000     -2.7793783E-31
   3.300000     -2.9158617E-31
   3.310000     -3.0424725E-31
   3.320000     -3.1573538E-31
   3.330000     -3.2585665E-31
   3.340000     -3.3440948E-31
   3.350000     -3.4118533E-31
   3.360000     -3.4596955E-31
   3.370000     -3.4854223E-31
   3.380000     -3.4867944E-31
   3.390000     -3.4615415E-31
   3.400000     -3.4073773E-31
   3.410000     -3.3220129E-31
   3.420000     -3.2031725E-31
   3.430000     -3.0486100E-31
   3.440000     -2.8561294E-31
   3.450000     -2.6236016E-31
   3.460000     -2.3489873E-31
   3.470000     -2.0303583E-31
   3.480000     -1.6659216E-31
   3.490000     -1.2540446E-31
   3.500000     -7.9327884E-32
   3.510000     -2.8238692E-32
   3.520000      2.7962786E-32
   3.530000      8.9349478E-32
   3.540000      1.5596467E-31
   3.550000      2.2781906E-31
   3.560000      3.0488778E-31
   3.570000      3.8710736E-31
   3.580000      4.7437277E-31
   3.590000      5.6653439E-31
   3.600000      6.6339522E-31
   3.610000      7.6470760E-31
   3.620000      8.7017070E-31
   3.630000      9.7942744E-31
   3.640000      1.0920626E-30
   3.650000      1.2075990E-30
   3.660000      1.3254963E-30
   3.670000      1.4451486E-30
   3.680000      1.5658820E-30
   3.690000      1.6869534E-30
   3.700000      1.8075486E-30
   3.710000      1.9267814E-30
   3.720000      2.0436928E-30
   3.730000      2.1572501E-30
   3.740000      2.2663473E-30
   3.750000      2.3698047E-30
   3.760000      2.4663698E-30
   3.770000      2.5547190E-30
   3.780000      2.6334592E-30
   3.790000      2.7011299E-30
   3.800000      2.7562059E-30
   3.810000      2.7971012E-30
   3.820000      2.8221735E-30
   3.830000      2.8297281E-30
   3.840000      2.8180246E-30
   3.850000      2.7852833E-30
   3.860000      2.7296920E-30
   3.870000      2.6494142E-30
   3.880000      2.5425980E-30
   3.890000      2.4073857E-30
   3.900000      2.2419246E-30
   3.910000      2.0443786E-30
   3.920000      1.8129401E-30
   3.930000      1.5458436E-30
   3.940000      1.2413795E-30
   3.950000      8.9790869E-31
   3.960000      5.1387939E-31
   3.970000      8.7842189E-32
   3.980000     -3.8153218E-31
   3.990000     -8.9543376E-31
   4.000000     -1.4548957E-30
   4.010000     -2.0607746E-30
   4.020000     -2.7137301E-30
   4.030000     -3.4142040E-30
   4.040000     -4.1623988E-30
   4.050000     -4.9582574E-30
   4.060000     -5.8014385E-30
   4.070000     -6.6912953E-30
   4.080000     -7.6268519E-30
   4.090000     -8.6067801E-30
   4.100000     -9.6293774E-30
   4.110000     -1.0692544E-29
   4.120000     -1.1793755E-29
   4.130000     -1.2930042E-29
   4.140000     -1.4097970E-29
   4.150000     -1.5293614E-29
   4.160000     -1.6512537E-29
   4.170000     -1.7749774E-29
   4.180000     -1.8999804E-29
   4.190000     -2.0256538E-29
   4.200000     -2.1513303E-29
   4.210000     -2.2762819E-29
   4.220000     -2.3997194E-29
   4.230000     -2.5207913E-29
   4.240000     -2.6385818E-29
   4.250000     -2.7521109E-29
   4.260000     -2.8603343E-29
   4.270000     -2.9621434E-29
   4.280000     -3.0563642E-29
   4.290000     -3.1417593E-29
   4.300000     -3.2170279E-29
   4.310000     -3.2808087E-29
   4.320000     -3.3316801E-29
   4.330000     -3.3681623E-29
   4.340000     -3.3887213E-29
   4.350000     -3.3917718E-29
   4.360000     -3.3756788E-29
   4.370000     -3.3387648E-29
   4.380000     -3.2793128E-29
   4.390000     -3.1955716E-29
   4.400000     -3.0857617E-29
   4.410000     -2.9480827E-29
   4.420000     -2.7807199E-29
   4.430000     -2.5818526E-29
   4.440000     -2.3496610E-29
   4.450000     -2.0823371E-29
   4.460000     -1.7780933E-29
   4.470000     -1.4351738E-29
   4.480000     -1.0518662E-29
   4.490000     -6.2651227E-30
   4.500000     -1.5752200E-30
   4.510000      3.5661418E-30
   4.520000      9.1730960E-30
   4.530000      1.5258670E-29
   4.540000      2.1834635E-29
   4.550000      2.8911329E-29
   4.560000      3.6497492E-29
   4.570000      4.4600093E-29
   4.580000      5.3224127E-29
   4.590000      6.2372445E-29
   4.600000      7.2045536E-29
   4.610000      8.2241349E-29
   4.620000      9.2955075E-29
   4.630000      1.0417892E-28
   4.640000      1.1590192E-28
   4.650000      1.2810972E-28
   4.660000      1.4078432E-28
   4.670000      1.5390391E-28
   4.680000      1.6744262E-28
   4.690000      1.8137029E-28
   4.700000      1.9565226E-28
   4.710000      2.1024917E-28
   4.720000      2.2511675E-28
   4.730000      2.4020557E-28
   4.740000      2.5546091E-28
   4.750000      2.7082251E-28
   4.760000      2.8622439E-28
   4.770000      3.0159471E-28
   4.780000      3.1685558E-28
   4.790000      3.3192298E-28
   4.800000      3.4670644E-28
   4.810000      3.6110914E-28
   4.820000      3.7502777E-28
   4.830000      3.8835231E-28
   4.840000      4.0096614E-28
   4.850000      4.1274595E-28
   4.860000      4.2356168E-28
   4.870000      4.3327670E-28
   4.880000      4.4174776E-28
   4.890000      4.4882497E-28
   4.900000      4.5435225E-28
   4.910000      4.5816727E-28
   4.920000      4.6010168E-28
   4.930000      4.5998145E-28
   4.940000      4.5762705E-28
   4.950000      4.5285392E-28
   4.960000      4.4547284E-28
   4.970000      4.3529040E-28
   4.980000      4.2210944E-28
   4.990000      4.0572964E-28
   5.000000      3.8594830E-28
   5.010000      3.6256081E-28
   5.020000      3.3536168E-28
   5.030000      3.0414498E-28
   5.040000      2.6870555E-28
   5.050000      2.2883989E-28
   5.060000      1.8434714E-28
   5.070000      1.3503026E-28
   5.080000      8.0697006E-29
   5.090000      2.1161423E-29
   5.100000     -4.3754938E-29
   5.110000     -1.1422168E-28
   5.120000     -1.9039799E-28
   5.130000     -2.7243119E-28
   5.140000     -3.6045505E-28
   5.150000     -4.5458808E-28
   5.160000     -5.5493182E-28
   5.170000     -6.6156888E-28
   5.180000     -7.7456121E-28
   5.190000     -8.9394812E-28
   5.200000     -1.0197442E-27
   5.210000     -1.1519370E-27
   5.220000     -1.2904852E-27
   5.230000     -1.4353163E-27
   5.240000     -1.5863246E-27
   5.250000     -1.7433682E-27
   5.260000     -1.9062677E-27
   5.270000     -2.0748028E-27
   5.280000     -2.2487108E-27
   5.290000     -2.4276836E-27
   5.300000     -2.6113657E-27
   5.310000     -2.7993517E-27
   5.320000     -2.9911843E-27
   5.330000     -3.1863511E-27
   5.340000     -3.3842834E-27
   5.350000     -3.5843528E-27
   5.360000     -3.7858706E-27
   5.370000     -3.9880840E-27
   5.380000     -4.1901753E-27
   5.390000     -4.3912601E-27
   5.400000     -4.5903843E-27
   5.410000     -4.7865241E-27
   5.420000     -4.9785848E-27
   5.430000     -5.1653969E-27
   5.440000     -5.3457182E-27
   5.450000     -5.5182315E-27
   5.460000     -5.6815442E-27
   5.470000     -5.8341888E-27
   5.480000     -5.9746203E-27
   5.490000     -6.1012205E-27
   5.500000     -6.2122950E-27
   5.510000     -6.3060770E-27
   5.520000     -6.3807280E-27
   5.530000     -6.4343378E-27
   5.540000     -6.4649293E-27
   5.550000     -6.4704582E-27
   5.560000     -6.4488204E-27
   5.570000     -6.3978515E-27
   5.580000     -6.3153323E-27
   5.590000     -6.1989949E-27
   5.600000     -6.0465279E-27
   5.610000     -5.8555789E-27
   5.620000     -5.6237663E-27
   5.630000     -5.3486834E-27
   5.640000     -5.0279055E-27
   5.650000     -4.6590006E-27
   5.660000     -4.2395376E-27
   5.670000     -3.7670974E-27
   5.680000     -3.2392820E-27
   5.690000     -2.6537262E-27
   5.700000     -2.0081103E-27
   5.710000     -1.3001744E-27
   5.720000     -5.2772845E-28
   5.730000      3.1132932E-28
   5.740000      1.2189988E-27
   5.750000      2.1971614E-27
   5.760000      3.2475635E-27
   5.770000      4.3717993E-27
   5.780000      5.5712912E-27
   5.790000      6.8472726E-27
   5.800000      8.2007653E-27
   5.810000      9.6325640E-27
   5.820000      1.1143207E-26
   5.830000      1.2732962E-26
   5.840000      1.4401801E-26
   5.850000      1.6149374E-26
   5.860000      1.7974994E-26
   5.870000      1.9877602E-26
   5.880000      2.1855752E-26
   5.890000      2.3907581E-26
   5.900000      2.6030789E-26
   5.910000      2.8222608E-26
   5.920000      3.0479783E-26
   5.930000      3.2798538E-26
   5.940000      3.5174562E-26
   5.950000      3.7602981E-26
   5.960000      4.0078328E-26
   5.970000      4.2594523E-26
   5.980000      4.5144852E-26
   5.990000      4.7721943E-26
   6.000000      5.0317736E-26
   6.010000      5.2923483E-26
   6.020000      5.5529700E-26
   6.030000      5.8126168E-26
   6.040000      6.0701922E-26
   6.050000      6.3245216E-26
   6.060000      6.5743514E-26
   6.070000      6.8183510E-26
   6.080000      7.0551079E-26
   6.090000      7.2831275E-26
   6.100000      7.5008346E-26
   6.110000      7.7065739E-26
   6.120000      7.8986066E-26
   6.130000      8.0751155E-26
   6.140000      8.2342004E-26
   6.150000      8.3738861E-26
   6.160000      8.4921172E-26
   6.170000      8.5867676E-26
   6.180000      8.6556345E-26
   6.190000      8.6964482E-26
   6.200000      8.7068735E-26
   6.210000      8.6845118E-26
   6.220000      8.6269083E-26
   6.230000      8.5315578E-26
   6.240000      8.3959052E-26
   6.250000      8.2173545E-26
   6.260000      7.9932810E-26
   6.270000      7.7210310E-26
   6.280000      7.3979308E-26
   6.290000      7.0213002E-26
   6.300000      6.5884590E-26
   6.310000      6.0967374E-26
   6.320000      5.5434852E-26
   6.330000      4.9260854E-26
   6.340000      4.2419661E-26
   6.350000      3.4886138E-26
   6.360000      2.6635870E-26
   6.370000      1.7645285E-26
   6.380000      7.8918385E-27
   6.390000     -2.6458591E-27
   6.400000     -1.3987854E-26
   6.410000     -2.6152674E-26
   6.420000     -3.9157163E-26
   6.430000     -5.3016309E-26
   6.440000     -6.7743030E-26
   6.450000     -8.3347956E-26
   6.460000     -9.9839284E-26
   6.470000     -1.1722252E-25
   6.480000     -1.3550028E-25
   6.490000     -1.5467207E-25
   6.500000     -1.7473406E-25
   6.510000     -1.9567886E-25
   6.520000     -2.1749531E-25
   6.530000     -2.4016818E-25
   6.540000     -2.6367806E-25
   6.550000     -2.8800101E-25
   6.560000     -3.1310833E-25
   6.570000     -3.3896643E-25
   6.580000     -3.6553652E-25
   6.590000     -3.9277431E-25
   6.600000     -4.2063000E-25
   6.610000     -4.4904778E-25
   6.620000     -4.7796589E-25
   6.630000     -5.0731625E-25
   6.640000     -5.3702416E-25
   6.650000     -5.6700832E-25
   6.660000     -5.9718062E-25
   6.670000     -6.2744586E-25
   6.680000     -6.5770169E-25
   6.690000     -6.8783844E-25
   6.700000     -7.1773898E-25
   6.710000     -7.4727857E-25
   6.720000     -7.7632487E-25
   6.730000     -8.0473791E-25
   6.740000     -8.3237004E-25
   6.750000     -8.5906578E-25
   6.760000     -8.8466185E-25
   6.770000     -9.0898736E-25
   6.780000     -9.3186374E-25
   6.790000     -9.5310490E-25
   6.800000     -9.7251749E-25
   6.810000     -9.8990092E-25
   6.820000     -1.0050475E-24
   6.830000     -1.0177432E-24
   6.840000     -1.0277667E-24
   6.850000     -1.0348915E-24
   6.860000     -1.0388848E-24
   6.870000     -1.0395087E-24
   6.880000     -1.0365203E-24
   6.890000     -1.0296726E-24
   6.900000     -1.0187147E-24
   6.910000     -1.0033925E-24
   6.920000     -9.8344962E-25
   6.930000     -9.5862791E-25
   6.940000     -9.2866806E-25
   6.950000     -8.9331102E-25
   6.960000     -8.5229814E-25
   6.970000     -8.0537290E-25
   6.980000     -7.5228138E-25
   6.990000     -6.9277331E-25
   7.000000     -6.2660361E-25
   7.010000     -5.5353315E-25
   7.020000     -4.7333030E-25
   7.030000     -3.8577221E-25
   7.040000     -2.9064594E-25
   7.050000     -1.8775002E-25
   7.060000     -7.6895893E-26