  -2.600000      0.0000000E+00
  -2.590000      0.0000000E+00
  -2.580000      0.0000000E+00
  -2.570000      0.0000000E+00
  -2.560000      0.0000000E+00
  -2.550000      0.0000000E+00
  -2.540000      0.0000000E+00
  -2.530000      0.0000000E+00
  -2.520000      0.0000000E+00
  -2.510000      0.0000000E+00
  -2.500000      0.0000000E+00
  -2.490000      0.0000000E+00
  -2.480000      0.0000000E+00
  -2.470000      0.0000000E+00
  -2.460000      0.0000000E+00
  -2.450000      0.0000000E+00
  -2.440000      0.0000000E+00
  -2.430000      0.0000000E+00
  -2.420000      0.0000000E+00
  -2.410000      0.0000000E+00
  -2.400000      0.0000000E+00
  -2.390000      0.0000000E+00
  -2.380000      0.0000000E+00
  -2.370000      0.0000000E+00
  -2.360000      0.0000000E+00
  -2.350000      0.0000000E+00
  -2.340000      0.0000000E+00
  -2.330000      0.0000000E+00
  -2.320000      0.0000000E+00
  -2.310000      0.0000000E+00
  -2.300000      0.0000000E+00
  -2.290000      0.0000000E+00
  -2.280000      0.0000000E+00
  -2.270000      0.0000000E+00
  -2.260000      0.0000000E+00
  -2.250000      0.0000000E+00
  -2.240000      0.0000000E+00
  -2.230000      0.0000000E+00
  -2.220000      0.0000000E+00
  -2.210000      0.0000000E+00
  -2.200000      0.0000000E+00
  -2.190000      0.0000000E+00
  -2.180000      0.0000000E+00
  -2.170000      0.0000000E+00
  -2.160000      0.0000000E+00
  -2.150000      0.0000000E+00
  -2.140000      0.0000000E+00
  -2.130000      0.0000000E+00
  -2.120000      0.0000000E+00
  -2.110000      0.0000000E+00
  -2.100000      0.0000000E+00
  -2.090000      0.0000000E+00
  -2.080000      0.0000000E+00
  -2.070000      0.0000000E+00
  -2.060000      0.0000000E+00
  -2.050000      0.0000000E+00
  -2.040000      0.0000000E+00
  -2.030000      0.0000000E+00
  -2.020000      0.0000000E+00
  -2.010000      0.0000000E+00
  -2.000000      0.0000000E+00
  -1.990000      0.0000000E+00
  -1.980000      0.0000000E+00
  -1.970000      0.0000000E+00
  -1.960000      0.0000000E+00
  -1.950000      0.0000000E+00
  -1.940000      0.0000000E+00
  -1.930000      0.0000000E+00
  -1.920000      0.0000000E+00
  -1.910000      0.0000000E+00
  -1.900000      0.0000000E+00
  -1.890000      0.0000000E+00
  -1.880000      0.0000000E+00
  -1.870000      0.0000000E+00
  -1.860000      0.0000000E+00
  -1.850000      0.0000000E+00
  -1.840000      0.0000000E+00
  -1.830000      0.0000000E+00
  -1.820000      0.0000000E+00
  -1.810000      0.0000000E+00
  -1.800000      0.0000000E+00
  -1.790000      0.0000000E+00
  -1.780000      0.0000000E+00
  -1.770000      0.0000000E+00
  -1.760000      0.0000000E+00
  -1.750000      0.0000000E+00
  -1.740000      0.0000000E+00
  -1.730000      0.0000000E+00
  -1.720000      0.0000000E+00
  -1.710000      0.0000000E+00
  -1.700000      0.0000000E+00
  -1.690000      0.0000000E+00
  -1.680000      0.0000000E+00
  -1.670000      0.0000000E+00
  -1.660000      0.0000000E+00
  -1.650000      0.0000000E+00
  -1.640000      0.0000000E+00
  -1.630000      0.0000000E+00
  -1.620000      0.0000000E+00
  -1.610000      0.0000000E+00
  -1.600000      0.0000000E+00
  -1.590000      0.0000000E+00
  -1.580000      0.0000000E+00
  -1.570000      0.0000000E+00
  -1.560000      0.0000000E+00
  -1.550000      0.0000000E+00
  -1.540000      0.0000000E+00
  -1.530000      0.0000000E+00
  -1.520000      0.0000000E+00
  -1.510000      0.0000000E+00
  -1.500000      0.0000000E+00
  -1.490000      0.0000000E+00
  -1.480000      0.0000000E+00
  -1.470000      0.0000000E+00
  -1.460000      0.0000000E+00
  -1.450000      0.0000000E+00
  -1.440000      0.0000000E+00
  -1.430000      0.0000000E+00
  -1.420000      0.0000000E+00
  -1.410000      0.0000000E+00
  -1.400000      0.0000000E+00
  -1.390000      0.0000000E+00
  -1.380000      0.0000000E+00
  -1.370000      0.0000000E+00
  -1.360000      0.0000000E+00
  -1.350000      0.0000000E+00
  -1.340000      0.0000000E+00
  -1.330000      0.0000000E+00
  -1.320000      0.0000000E+00
  -1.310000      0.0000000E+00
  -1.300000      0.0000000E+00
  -1.290000      0.0000000E+00
  -1.280000      0.0000000E+00
  -1.270000      0.0000000E+00
  -1.260000      0.0000000E+00
  -1.250000      0.0000000E+00
  -1.240000      0.0000000E+00
  -1.230000      0.0000000E+00
  -1.220000      0.0000000E+00
  -1.210000      0.0000000E+00
  -1.200000      0.0000000E+00
  -1.190000      0.0000000E+00
  -1.180000      0.0000000E+00
  -1.170000      0.0000000E+00
  -1.160000      0.0000000E+00
  -1.150000      0.0000000E+00
  -1.140000      0.0000000E+00
  -1.130000      0.0000000E+00
  -1.120000      0.0000000E+00
  -1.110000      0.0000000E+00
  -1.100000      0.0000000E+00
  -1.090000      0.0000000E+00
  -1.080000      0.0000000E+00
  -1.070000      0.0000000E+00
  -1.060000      0.0000000E+00
  -1.050000      0.0000000E+00
  -1.040000      0.0000000E+00
  -1.030000      0.0000000E+00
  -1.020000      0.0000000E+00
  -1.010000      0.0000000E+00
  -1.000000      0.0000000E+00
 -0.9900000      0.0000000E+00
 -0.9800000      0.0000000E+00
 -0.9700000      0.0000000E+00
 -0.9600000      0.0000000E+00
 -0.9500000      0.0000000E+00
 -0.9400000      0.0000000E+00
 -0.9300000      0.0000000E+00
 -0.9200000      0.0000000E+00
 -0.9100000      0.0000000E+00
 -0.9000000      0.0000000E+00
 -0.8900000      0.0000000E+00
 -0.8800000      0.0000000E+00
 -0.8700000      0.0000000E+00
 -0.8600000      0.0000000E+00
 -0.8500000      0.0000000E+00
 -0.8400000      0.0000000E+00
 -0.8300000      0.0000000E+00
 -0.8200000      0.0000000E+00
 -0.8100000      0.0000000E+00
 -0.8000000      0.0000000E+00
 -0.7900000      0.0000000E+00
 -0.7800000      0.0000000E+00
 -0.7700000      0.0000000E+00
 -0.7600000      0.0000000E+00
 -0.7500000      0.0000000E+00
 -0.7400000      0.0000000E+00
 -0.7300000      0.0000000E+00
 -0.7200000      0.0000000E+00
 -0.7100000      0.0000000E+00
 -0.7000000      0.0000000E+00
 -0.6900000      0.0000000E+00
 -0.6800000      0.0000000E+00
 -0.6700000      0.0000000E+00
 -0.6600000      0.0000000E+00
 -0.6500000      0.0000000E+00
 -0.6400000      0.0000000E+00
 -0.6300000      0.0000000E+00
 -0.6200000      0.0000000E+00
 -0.6100000      0.0000000E+00
 -0.6000000      0.0000000E+00
 -0.5900000      0.0000000E+00
 -0.5800000      0.0000000E+00
 -0.5700000      0.0000000E+00
 -0.5600000      0.0000000E+00
 -0.5500000      0.0000000E+00
 -0.5400000      0.0000000E+00
 -0.5300000      0.0000000E+00
 -0.5200000      0.0000000E+00
 -0.5100000      0.0000000E+00
 -0.5000000      0.0000000E+00
 -0.4900000      0.0000000E+00
 -0.4800000      0.0000000E+00
 -0.4700000      0.0000000E+00
 -0.4600000      0.0000000E+00
 -0.4500000      0.0000000E+00
 -0.4400000      0.0000000E+00
 -0.4300000      0.0000000E+00
 -0.4200000      0.0000000E+00
 -0.4100000      0.0000000E+00
 -0.4000000      0.0000000E+00
 -0.3900000      0.0000000E+00
 -0.3800000      0.0000000E+00
 -0.3700000      0.0000000E+00
 -0.3600000      0.0000000E+00
 -0.3500000      0.0000000E+00
 -0.3400000      0.0000000E+00
 -0.3300000      0.0000000E+00
 -0.3200000      0.0000000E+00
 -0.3100000      0.0000000E+00
 -0.3000000      0.0000000E+00
 -0.2900000      0.0000000E+00
 -0.2800000      0.0000000E+00
 -0.2700000      0.0000000E+00
 -0.2600000      0.0000000E+00
 -0.2500000      0.0000000E+00
 -0.2400000      0.0000000E+00
 -0.2300000      0.0000000E+00
 -0.2200000      0.0000000E+00
 -0.2100000      0.0000000E+00
 -0.2000000      0.0000000E+00
 -0.1900000      0.0000000E+00
 -0.1800000      0.0000000E+00
 -0.1700000      0.0000000E+00
 -0.1600000      0.0000000E+00
 -0.1500000      0.0000000E+00
 -0.1400000      0.0000000E+00
 -0.1300000      0.0000000E+00
 -0.1200000      0.0000000E+00
 -0.1100000      0.0000000E+00
 -0.1000000      0.0000000E+00
 -9.0000004E-02  0.0000000E+00
 -7.9999998E-02  0.0000000E+00
 -7.0000000E-02  0.0000000E+00
 -5.9999999E-02  0.0000000E+00
 -5.0000001E-02  0.0000000E+00
 -3.9999999E-02  0.0000000E+00
 -2.9999999E-02  0.0000000E+00
 -2.0000000E-02  0.0000000E+00
 -9.9999998E-03  0.0000000E+00
 -3.4694470E-17  0.0000000E+00
  9.9999998E-03  0.0000000E+00
  2.0000000E-02  0.0000000E+00
  2.9999999E-02  0.0000000E+00
  3.9999999E-02  0.0000000E+00
  5.0000001E-02  0.0000000E+00
  5.9999999E-02  0.0000000E+00
  7.0000000E-02  0.0000000E+00
  7.9999998E-02  0.0000000E+00
  9.0000004E-02  0.0000000E+00
  0.1000000      0.0000000E+00
  0.1100000      0.0000000E+00
  0.1200000      0.0000000E+00
  0.1300000      0.0000000E+00
  0.1400000      0.0000000E+00
  0.1500000      0.0000000E+00
  0.1600000      0.0000000E+00
  0.1700000      0.0000000E+00
  0.1800000      0.0000000E+00
  0.1900000      0.0000000E+00
  0.2000000      0.0000000E+00
  0.2100000      0.0000000E+00
  0.2200000      0.0000000E+00
  0.2300000      0.0000000E+00
  0.2400000      0.0000000E+00
  0.2500000      0.0000000E+00
  0.2600000      0.0000000E+00
  0.2700000      0.0000000E+00
  0.2800000      0.0000000E+00
  0.2900000      0.0000000E+00
  0.3000000      0.0000000E+00
  0.3100000      0.0000000E+00
  0.3200000      0.0000000E+00
  0.3300000      0.0000000E+00
  0.3400000      0.0000000E+00
  0.3500000      0.0000000E+00
  0.3600000      0.0000000E+00
  0.3700000      0.0000000E+00
  0.3800000      0.0000000E+00
  0.3900000      0.0000000E+00
  0.4000000      0.0000000E+00
  0.4100000      0.0000000E+00
  0.4200000      0.0000000E+00
  0.4300000      0.0000000E+00
  0.4400000      0.0000000E+00
  0.4500000      0.0000000E+00
  0.4600000      0.0000000E+00
  0.4700000      0.0000000E+00
  0.4800000      0.0000000E+00
  0.4900000      0.0000000E+00
  0.5000000      0.0000000E+00
  0.5100000      0.0000000E+00
  0.5200000      0.0000000E+00
  0.5300000      0.0000000E+00
  0.5400000      0.0000000E+00
  0.5500000      0.0000000E+00
  0.5600000      0.0000000E+00
  0.5700000      0.0000000E+00
  0.5800000      0.0000000E+00
  0.5900000      0.0000000E+00
  0.6000000      0.0000000E+00
  0.6100000      0.0000000E+00
  0.6200000      0.0000000E+00
  0.6300000      0.0000000E+00
  0.6400000      0.0000000E+00
  0.6500000      0.0000000E+00
  0.6600000      0.0000000E+00
  0.6700000      0.0000000E+00
  0.6800000      0.0000000E+00
  0.6900000      0.0000000E+00
  0.7000000      0.0000000E+00
  0.7100000      0.0000000E+00
  0.7200000      0.0000000E+00
  0.7300000      0.0000000E+00
  0.7400000      0.0000000E+00
  0.7500000      0.0000000E+00
  0.7600000      0.0000000E+00
  0.7700000      0.0000000E+00
  0.7800000      0.0000000E+00
  0.7900000      0.0000000E+00
  0.8000000      0.0000000E+00
  0.8100000      1.5697414E-38
  0.8200000      2.3906614E-38
  0.8300000      3.1572378E-38
  0.8400000      4.0239709E-38
  0.8500000      4.8958706E-38
  0.8600000      5.6314637E-38
  0.8700000      6.2639101E-38
  0.8800000      6.7689610E-38
  0.8900000      7.1489696E-38
  0.9000000      7.3734901E-38
  0.9100000      7.6406511E-38
  0.9200000      8.1625210E-38
  0.9300000      8.9577136E-38
  0.9400000      9.9586123E-38
  0.9500000      1.1050437E-37
  0.9600000      1.2144887E-37
  0.9700000      1.3018325E-37
  0.9800000      1.3891069E-37
  0.9900000      1.5110645E-37
   1.000000      1.6349560E-37
   1.010000      1.7467877E-37
   1.020000      1.8243499E-37
   1.030000      1.8317600E-37
   1.040000      1.9144129E-37
   1.050000      2.9057957E-37
   1.060000      5.5560273E-37
   1.070000      9.1316061E-37
   1.080000      1.3046959E-36
   1.090000      1.7440861E-36
   1.100000      2.2119704E-36
   1.110000      2.5060002E-36
   1.120000      2.6489874E-36
   1.130000      2.8084122E-36
   1.140000      2.9404800E-36
   1.150000      3.0343112E-36
   1.160000      3.0804861E-36
   1.170000      3.0739687E-36
   1.180000      3.0091771E-36
   1.190000      2.8878274E-36
   1.200000      2.7138316E-36
   1.210000      2.4838558E-36
   1.220000      1.9140591E-36
   1.230000      1.0272133E-36
   1.240000      1.3717567E-37
   1.250000     -7.3250871E-37
   1.260000     -1.5480927E-36
   1.270000     -2.3128413E-36
   1.280000     -2.8641149E-36
   1.290000     -3.0191468E-36
   1.300000     -3.0000741E-36
   1.310000     -3.2069698E-36
   1.320000     -3.6467259E-36
   1.330000     -3.9843060E-36
   1.340000     -4.2093094E-36
   1.350000     -4.3505943E-36
   1.360000     -4.3947138E-36
   1.370000     -4.5507021E-36
   1.380000     -4.9596140E-36
   1.390000     -5.5698386E-36
   1.400000     -6.3086853E-36
   1.410000     -7.2527607E-36
   1.420000     -8.4217254E-36
   1.430000     -9.8259203E-36
   1.440000     -1.1547259E-35
   1.450000     -1.3590254E-35
   1.460000     -1.5689378E-35
   1.470000     -1.7819117E-35
   1.480000     -2.0058096E-35
   1.490000     -2.2356953E-35
   1.500000     -2.4749006E-35
   1.510000     -2.7182199E-35
   1.520000     -2.9498629E-35
   1.530000     -3.1640655E-35
   1.540000     -3.3703828E-35
   1.550000     -3.5672586E-35
   1.560000     -3.7558583E-35
   1.570000     -3.9459147E-35
   1.580000     -4.1371888E-35
   1.590000     -4.3206687E-35
   1.600000     -4.4958079E-35
   1.610000     -4.6594076E-35
   1.620000     -4.8099461E-35
   1.630000     -4.9473946E-35
   1.640000     -5.0729320E-35
   1.650000     -5.1949567E-35
   1.660000     -5.3149225E-35
   1.670000     -5.4219103E-35
   1.680000     -5.5056149E-35
   1.690000     -5.5501919E-35
   1.700000     -5.5486106E-35
   1.710000     -5.5380007E-35
   1.720000     -5.5033535E-35
   1.730000     -5.4452968E-35
   1.740000     -5.3636085E-35
   1.750000     -5.2055809E-35
   1.760000     -4.9027275E-35
   1.770000     -4.4595991E-35
   1.780000     -3.9301560E-35
   1.790000     -3.2396277E-35
   1.800000     -2.3855523E-35
   1.810000     -1.3710512E-35
   1.820000     -1.0831099E-36
   1.830000      1.3982366E-35
   1.840000      3.0511784E-35
   1.850000      4.8416862E-35
   1.860000      6.8411010E-35
   1.870000      8.9456922E-35
   1.880000      1.1152488E-34
   1.890000      1.3770815E-34
   1.900000      1.7067972E-34
   1.910000      2.0865773E-34
   1.920000      2.4888836E-34
   1.930000      2.9168547E-34
   1.940000      3.4053447E-34
   1.950000      3.9626994E-34
   1.960000      4.5248915E-34
   1.970000      5.0937114E-34
   1.980000      5.6708685E-34
   1.990000      6.2351347E-34
   2.000000      6.8039330E-34
   2.010000      7.3787943E-34
   2.020000      7.9546933E-34
   2.030000      8.5001503E-34
   2.040000      9.0110734E-34
   2.050000      9.4876537E-34
   2.060000      9.9162913E-34
   2.070000      1.0313219E-33
   2.080000      1.0666058E-33
   2.090000      1.0988481E-33
   2.100000      1.1288708E-33
   2.110000      1.1555839E-33
   2.120000      1.1762075E-33
   2.130000      1.1855450E-33
   2.140000      1.1866772E-33
   2.150000      1.1804233E-33
   2.160000      1.1641252E-33
   2.170000      1.1360067E-33
   2.180000      1.0937154E-33
   2.190000      1.0368606E-33
   2.200000      9.6409335E-34
   2.210000      8.7324555E-34
   2.220000      7.6291108E-34
   2.230000      6.3177063E-34
   2.240000      4.7824639E-34
   2.250000      3.0073443E-34
   2.260000      9.7971359E-35
   2.270000     -1.3057526E-34
   2.280000     -3.8698564E-34
   2.290000     -6.7549030E-34
   2.300000     -9.9583831E-34
   2.310000     -1.3443132E-33
   2.320000     -1.7241277E-33
   2.330000     -2.1347330E-33
   2.340000     -2.5719120E-33
   2.350000     -3.0386876E-33
   2.360000     -3.5320475E-33
   2.370000     -4.0510592E-33
   2.380000     -4.5958450E-33
   2.390000     -5.1609396E-33
   2.400000     -5.7428600E-33
   2.410000     -6.3379511E-33
   2.420000     -6.9401605E-33
   2.430000     -7.5458097E-33
   2.440000     -8.1521988E-33
   2.450000     -8.7511778E-33
   2.460000     -9.3370684E-33
   2.470000     -9.9045207E-33
   2.480000     -1.0444367E-32
   2.490000     -1.0950118E-32
   2.500000     -1.1414875E-32
   2.510000     -1.1828845E-32
   2.520000     -1.2182685E-32
   2.530000     -1.2466851E-32
   2.540000     -1.2671451E-32
   2.550000     -1.2787148E-32
   2.560000     -1.2800566E-32
   2.570000     -1.2698996E-32
   2.580000     -1.2477141E-32
   2.590000     -1.2122942E-32
   2.600000     -1.1621351E-32
   2.610000     -1.0962223E-32
   2.620000     -1.0134255E-32
   2.630000     -9.1258115E-33
   2.640000     -7.9259756E-33
   2.650000     -6.5245571E-33
   2.660000     -4.9116474E-33
   2.670000     -3.0783534E-33
   2.680000     -1.0168371E-33
   2.690000      1.2803698E-33
   2.700000      3.8193869E-33
   2.710000      6.6044371E-33
   2.720000      9.6384586E-33
   2.730000      1.2922608E-32
   2.740000      1.6455994E-32
   2.750000      2.0235655E-32
   2.760000      2.4256401E-32
   2.770000      2.8510437E-32
   2.780000      3.2987381E-32
   2.790000      3.7674056E-32
   2.800000      4.2554103E-32
   2.810000      4.7608074E-32
   2.820000      5.2813286E-32
   2.830000      5.8143624E-32
   2.840000      6.3569418E-32
   2.850000      6.9057437E-32
   2.860000      7.4570693E-32
   2.870000      8.0068498E-32
   2.880000      8.5506505E-32
   2.890000      9.0836573E-32
   2.900000      9.6006791E-32
   2.910000      1.0096165E-31
   2.920000      1.0564251E-31
   2.930000      1.0998605E-31
   2.940000      1.1392557E-31
   2.950000      1.1739241E-31
   2.960000      1.2031437E-31
   2.970000      1.2261644E-31
   2.980000      1.2422121E-31
   2.990000      1.2504914E-31
   3.000000      1.2501890E-31
   3.010000      1.2404792E-31
   3.020000      1.2205286E-31
   3.030000      1.1894978E-31
   3.040000      1.1465325E-31
   3.050000      1.0908230E-31
   3.060000      1.0215734E-31
   3.070000      9.3797343E-32
   3.080000      8.3925924E-32
   3.090000      7.2470085E-32
   3.100000      5.9361654E-32
   3.110000      4.4537744E-32
   3.120000      2.7941307E-32
   3.130000      9.5226173E-33
   3.140000     -1.0759940E-32
   3.150000     -3.2938830E-32
   3.160000     -5.7036361E-32
   3.170000     -8.3063634E-32
   3.180000     -1.1101948E-31
   3.190000     -1.4088932E-31
   3.200000     -1.7264413E-31
   3.210000     -2.0623936E-31
   3.220000     -2.4161362E-31
   3.230000     -2.7868850E-31
   3.240000     -3.1736714E-31
   3.250000     -3.5753253E-31
   3.260000     -3.9904761E-31
   3.270000     -4.4175421E-31
   3.280000     -4.8547240E-31
   3.290000     -5.2999970E-31
   3.300000     -5.7511108E-31
   3.310000     -6.2055748E-31
   3.320000     -6.6606613E-31
   3.330000     -7.1134133E-31
   3.340000     -7.5606316E-31
   3.350000     -7.9988798E-31
   3.360000     -8.4244897E-31
   3.370000     -8.8335626E-31
   3.380000     -9.2219770E-31
   3.390000     -9.5853957E-31
   3.400000     -9.9192784E-31
   3.410000     -1.0218889E-30
   3.420000     -1.0479315E-30
   3.430000     -1.0695476E-30
   3.440000     -1.0862150E-30
   3.450000     -1.0973986E-30
   3.460000     -1.1025537E-30
   3.470000     -1.1011271E-30
   3.480000     -1.0925611E-30
   3.490000     -1.0762958E-30
   3.500000     -1.0517728E-30
   3.510000     -1.0184384E-30
   3.520000     -9.7574786E-31
   3.530000     -9.2316875E-31
   3.540000     -8.6018586E-31
   3.550000     -7.8630585E-31
   3.560000     -7.0106182E-31
   3.570000     -6.0401870E-31
   3.580000     -4.9477841E-31
   3.590000     -3.7298570E-31
   3.600000     -2.3833383E-31
   3.610000     -9.0570464E-32
   3.620000      7.0496018E-32
   3.630000      2.4499035E-31
   3.640000      4.3296386E-31
   3.650000      6.3438835E-31
   3.660000      8.4914966E-31
   3.670000      1.0770410E-30
   3.680000      1.3177569E-30
   3.690000      1.5708870E-30
   3.700000      1.8359102E-30
   3.710000      2.1121884E-30
   3.720000      2.3989615E-30
   3.730000      2.6953416E-30
   3.740000      3.0003088E-30
   3.750000      3.3127052E-30
   3.760000      3.6312330E-30
   3.770000      3.9544484E-30
   3.780000      4.2807607E-30
   3.790000      4.6084272E-30
   3.800000      4.9355540E-30
   3.810000      5.2600916E-30
   3.820000      5.5798373E-30
   3.830000      5.8924331E-30
   3.840000      6.1953672E-30
   3.850000      6.4859761E-30
   3.860000      6.7614465E-30
   3.870000      7.0188207E-30
   3.880000      7.2549992E-30
   3.890000      7.4667476E-30
   3.900000      7.6507055E-30
   3.910000      7.8033912E-30
   3.920000      7.9212152E-30
   3.930000      8.0004920E-30
   3.940000      8.0374473E-30
   3.950000      8.0282382E-30
   3.960000      7.9689677E-30
   3.970000      7.8557012E-30
   3.980000      7.6844876E-30
   3.990000      7.4513771E-30
   4.000000      7.1524494E-30
   4.010000      6.7838347E-30
   4.020000      6.3417390E-30
   4.030000      5.8224759E-30
   4.040000      5.2224950E-30
   4.050000      4.5384110E-30
   4.060000      3.7670396E-30
   4.070000      2.9054303E-30
   4.080000      1.9509023E-30
   4.090000      9.0108328E-31
   4.100000     -2.4605575E-31
   4.110000     -1.4921580E-30
   4.120000     -2.8384418E-30
   4.130000     -4.2856591E-30
   4.140000     -5.8340541E-30
   4.150000     -7.4833197E-30
   4.160000     -9.2325531E-30
   4.170000     -1.1080216E-29
   4.180000     -1.3024085E-29
   4.190000     -1.5061213E-29
   4.200000     -1.7187885E-29
   4.210000     -1.9399569E-29
   4.220000     -2.1690875E-29
   4.230000     -2.4055517E-29
   4.240000     -2.6486264E-29
   4.250000     -2.8974909E-29
   4.260000     -3.1512216E-29
   4.270000     -3.4087904E-29
   4.280000     -3.6690584E-29
   4.290000     -3.9307755E-29
   4.300000     -4.1925750E-29
   4.310000     -4.4529718E-29
   4.320000     -4.7103624E-29
   4.330000     -4.9630192E-29
   4.340000     -5.2090916E-29
   4.350000     -5.4466051E-29
   4.360000     -5.6734610E-29
   4.370000     -5.8874342E-29
   4.380000     -6.0861794E-29
   4.390000     -6.2672276E-29
   4.400000     -6.4279934E-29
   4.410000     -6.5657744E-29
   4.420000     -6.6777570E-29
   4.430000     -6.7610222E-29
   4.440000     -6.8125499E-29
   4.450000     -6.8292296E-29
   4.460000     -6.8078638E-29
   4.470000     -6.7451790E-29
   4.480000     -6.6378355E-29
   4.490000     -6.4824395E-29
   4.500000     -6.2755549E-29
   4.510000     -6.0137150E-29
   4.520000     -5.6934425E-29
   4.530000     -5.3112580E-29
   4.540000     -4.8637029E-29
   4.550000     -4.3473541E-29
   4.560000     -3.7588444E-29
   4.570000     -3.0948864E-29
   4.580000     -2.3522905E-29
   4.590000     -1.5279911E-29
   4.600000     -6.1907077E-30
   4.610000      3.7721343E-30
   4.620000      1.4634019E-29
   4.630000      2.6418044E-29
   4.640000      3.9144698E-29
   4.650000      5.2831532E-29
   4.660000      6.7492825E-29
   4.670000      8.3139248E-29
   4.680000      9.9777519E-29
   4.690000      1.1741003E-28
   4.700000      1.3603447E-28
   4.710000      1.5564343E-28
   4.720000      1.7622405E-28
   4.730000      1.9775756E-28
   4.740000      2.2021892E-28
   4.750000      2.4357640E-28
   4.760000      2.6779117E-28
   4.770000      2.9281685E-28
   4.780000      3.1859915E-28
   4.790000      3.4507549E-28
   4.800000      3.7217448E-28
   4.810000      3.9981567E-28
   4.820000      4.2790909E-28
   4.830000      4.5635483E-28
   4.840000      4.8504276E-28
   4.850000      5.1385222E-28
   4.860000      5.4265161E-28
   4.870000      5.7129808E-28
   4.880000      5.9963742E-28
   4.890000      6.2750375E-28
   4.900000      6.5471897E-28
   4.910000      6.8109309E-28
   4.920000      7.0642388E-28
   4.930000      7.3049666E-28
   4.940000      7.5308440E-28
   4.950000      7.7394771E-28
   4.960000      7.9283472E-28
   4.970000      8.0948126E-28
   4.980000      8.2361104E-28
   4.990000      8.3493608E-28
   5.000000      8.4315653E-28
   5.010000      8.4796163E-28
   5.020000      8.4902975E-28
   5.030000      8.4602905E-28
   5.040000      8.3861808E-28
   5.050000      8.2644668E-28
   5.060000      8.0915645E-28
   5.070000      7.8638214E-28
   5.080000      7.5775237E-28
   5.090000      7.2289087E-28
   5.100000      6.8141766E-28
   5.110000      6.3295057E-28
   5.120000      5.7710659E-28
   5.130000      5.1350396E-28
   5.140000      4.4176346E-28
   5.150000      3.6151034E-28
   5.160000      2.7237650E-28
   5.170000      1.7400263E-28
   5.180000      6.6040403E-29
   5.190000     -5.1845023E-29
   5.200000     -1.7997223E-28
   5.210000     -3.1864133E-28
   5.220000     -4.6813074E-28
   5.230000     -6.2869431E-28
   5.240000     -8.0055833E-28
   5.250000     -9.8391793E-28
   5.260000     -1.1789341E-27
   5.270000     -1.3857303E-27
   5.280000     -1.6043882E-27
   5.290000     -1.8349446E-27
   5.300000     -2.0773872E-27
   5.310000     -2.3316514E-27
   5.320000     -2.5976150E-27
   5.330000     -2.8750952E-27
   5.340000     -3.1638438E-27
   5.350000     -3.4635427E-27
   5.360000     -3.7738008E-27
   5.370000     -4.0941484E-27
   5.380000     -4.4240325E-27
   5.390000     -4.7628147E-27
   5.400000     -5.1097641E-27
   5.410000     -5.4640547E-27
   5.420000     -5.8247598E-27
   5.430000     -6.1908498E-27
   5.440000     -6.5611857E-27
   5.450000     -6.9345165E-27
   5.460000     -7.3094750E-27
   5.470000     -7.6845760E-27
   5.480000     -8.0582095E-27
   5.490000     -8.4286390E-27
   5.500000     -8.7940003E-27
   5.510000     -9.1522972E-27
   5.520000     -9.5013982E-27
   5.530000     -9.8390391E-27
   5.540000     -1.0162815E-26
   5.550000     -1.0470185E-26
   5.560000     -1.0758468E-26
   5.570000     -1.1024847E-26
   5.580000     -1.1266364E-26
   5.590000     -1.1479927E-26
   5.600000     -1.1662307E-26
   5.610000     -1.1810145E-26
   5.620000     -1.1919952E-26
   5.630000     -1.1988113E-26
   5.640000     -1.2010894E-26
   5.650000     -1.1984449E-26
   5.660000     -1.1904821E-26
   5.670000     -1.1767957E-26
   5.680000     -1.1569712E-26
   5.690000     -1.1305860E-26
   5.700000     -1.0972104E-26
   5.710000     -1.0564090E-26
   5.720000     -1.0077418E-26
   5.730000     -9.5076567E-27
   5.740000     -8.8503591E-27
   5.750000     -8.1010807E-27
   5.760000     -7.2554003E-27
   5.770000     -6.3089317E-27
   5.780000     -5.2573527E-27
   5.790000     -4.0964237E-27
   5.800000     -2.8220099E-27
   5.810000     -1.4301090E-27
   5.820000      8.3121517E-29
   5.830000      1.7213394E-27
   5.840000      3.4879866E-27
   5.850000      5.3862594E-27
   5.860000      7.4190758E-27
   5.870000      9.5890411E-27
   5.880000      1.1898411E-26
   5.890000      1.4349062E-26
   5.900000      1.6942452E-26
   5.910000      1.9679576E-26
   5.920000      2.2560935E-26
   5.930000      2.5586492E-26
   5.940000      2.8755629E-26
   5.950000      3.2067113E-26
   5.960000      3.5519032E-26
   5.970000      3.9108781E-26
   5.980000      4.2832990E-26
   5.990000      4.6687503E-26
   6.000000      5.0667316E-26
   6.010000      5.4766539E-26
   6.020000      5.8978360E-26
   6.030000      6.3294970E-26
   6.040000      6.7707568E-26
   6.050000      7.2206269E-26
   6.060000      7.6780085E-26
   6.070000      8.1416892E-26
   6.080000      8.6103379E-26
   6.090000      9.0825007E-26
   6.100000      9.5565975E-26
   6.110000      1.0030919E-25
   6.120000      1.0503623E-25
   6.130000      1.0972731E-25
   6.140000      1.1436130E-25
   6.150000      1.1891563E-25
   6.160000      1.2336633E-25
   6.170000      1.2768798E-25
   6.180000      1.3185372E-25
   6.190000      1.3583525E-25
   6.200000      1.3960282E-25
   6.210000      1.4312523E-25
   6.220000      1.4636984E-25
   6.230000      1.4930265E-25
   6.240000      1.5188822E-25
   6.250000      1.5408979E-25
   6.260000      1.5586926E-25
   6.270000      1.5718733E-25
   6.280000      1.5800339E-25
   6.290000      1.5827578E-25
   6.300000      1.5796173E-25
   6.310000      1.5701748E-25
   6.320000      1.5539840E-25
   6.330000      1.5305906E-25
   6.340000      1.4995340E-25
   6.350000      1.4603476E-25
   6.360000      1.4125610E-25
   6.370000      1.3557011E-25
   6.380000      1.2892938E-25
   6.390000      1.2128656E-25
   6.400000      1.1259456E-25
   6.410000      1.0280675E-25
   6.420000      9.1877126E-26
   6.430000      7.9760598E-26
   6.440000      6.6413170E-26
   6.450000      5.1792219E-26
   6.460000      3.5856702E-26
   6.470000      1.8567473E-26
   6.480000     -1.1242946E-28
   6.490000     -2.0217534E-26
   6.500000     -4.1779587E-26
   6.510000     -6.4827215E-26
   6.520000     -8.9385669E-26
   6.530000     -1.1547642E-25
   6.540000     -1.4311685E-25
   6.550000     -1.7231984E-25
   6.560000     -2.0309344E-25
   6.570000     -2.3544057E-25
   6.580000     -2.6935848E-25
   6.590000     -3.0483843E-25
   6.600000     -3.4186530E-25
   6.610000     -3.8041720E-25
   6.620000     -4.2046513E-25
   6.630000     -4.6197233E-25
   6.640000     -5.0489415E-25
   6.650000     -5.4917765E-25
   6.660000     -5.9476099E-25
   6.670000     -6.4157308E-25
   6.680000     -6.8953336E-25
   6.690000     -7.3855120E-25
   6.700000     -7.8852579E-25
   6.710000     -8.3934544E-25
   6.720000     -8.9088764E-25
   6.730000     -9.4301833E-25
   6.740000     -9.9559196E-25
   6.750000     -1.0484507E-24
   6.760000     -1.1014246E-24
   6.770000     -1.1543313E-24
   6.780000     -1.2069757E-24
   6.790000     -1.2591499E-24
   6.800000     -1.3106327E-24
   6.810000     -1.3611900E-24
   6.820000     -1.4105746E-24
   6.830000     -1.4585256E-24
   6.840000     -1.5047692E-24
   6.850000     -1.5490185E-24
   6.860000     -1.5909732E-24
   6.870000     -1.6303203E-24
   6.880000     -1.6667343E-24
   6.890000     -1.6998773E-24
   6.900000     -1.7293991E-24
   6.910000     -1.7549378E-24
   6.920000     -1.7761211E-24
   6.930000     -1.7925653E-24
   6.940000     -1.8038774E-24
   6.950000     -1.8096548E-24
   6.960000     -1.8094868E-24
   6.970000     -1.8029546E-24
   6.980000     -1.7896335E-24
   6.990000     -1.7690930E-24
   7.000000     -1.7408977E-24
   7.010000     -1.7046097E-24
   7.020000     -1.6597890E-24
   7.030000     -1.6059952E-24
   7.040000     -1.5427888E-24
   7.050000     -1.4697330E-24
   7.060000     -1.3863954E-24