  -2.600000      0.0000000E+00
  -2.590000      0.0000000E+00
  -2.580000      0.0000000E+00
  -2.570000      0.0000000E+00
  -2.560000      0.0000000E+00
  -2.550000      0.0000000E+00
  -2.540000      0.0000000E+00
  -2.530000      0.0000000E+00
  -2.520000      0.0000000E+00
  -2.510000      0.0000000E+00
  -2.500000      0.0000000E+00
  -2.490000      0.0000000E+00
  -2.480000      0.0000000E+00
  -2.470000      0.0000000E+00
  -2.460000      0.0000000E+00
  -2.450000      0.0000000E+00
  -2.440000      0.0000000E+00
  -2.430000      0.0000000E+00
  -2.420000      0.0000000E+00
  -2.410000      0.0000000E+00
  -2.400000      0.0000000E+00
  -2.390000      0.0000000E+00
  -2.380000      0.0000000E+00
  -2.370000      0.0000000E+00
  -2.360000      0.0000000E+00
  -2.350000      0.0000000E+00
  -2.340000      0.0000000E+00
  -2.330000      0.0000000E+00
  -2.320000      0.0000000E+00
  -2.310000      0.0000000E+00
  -2.300000      0.0000000E+00
  -2.290000      0.0000000E+00
  -2.280000      0.0000000E+00
  -2.270000      0.0000000E+00
  -2.260000      0.0000000E+00
  -2.250000      0.0000000E+00
  -2.240000      0.0000000E+00
  -2.230000      0.0000000E+00
  -2.220000      0.0000000E+00
  -2.210000      0.0000000E+00
  -2.200000      0.0000000E+00
  -2.190000      0.0000000E+00
  -2.180000      0.0000000E+00
  -2.170000      0.0000000E+00
  -2.160000      0.0000000E+00
  -2.150000      0.0000000E+00
  -2.140000      0.0000000E+00
  -2.130000      0.0000000E+00
  -2.120000      0.0000000E+00
  -2.110000      0.0000000E+00
  -2.100000      0.0000000E+00
  -2.090000      0.0000000E+00
  -2.080000      0.0000000E+00
  -2.070000      0.0000000E+00
  -2.060000      0.0000000E+00
  -2.050000      0.0000000E+00
  -2.040000      0.0000000E+00
  -2.030000      0.0000000E+00
  -2.020000      0.0000000E+00
  -2.010000      0.0000000E+00
  -2.000000      0.0000000E+00
  -1.990000      0.0000000E+00
  -1.980000      0.0000000E+00
  -1.970000      0.0000000E+00
  -1.960000      0.0000000E+00
  -1.950000      0.0000000E+00
  -1.940000      0.0000000E+00
  -1.930000      0.0000000E+00
  -1.920000      0.0000000E+00
  -1.910000      0.0000000E+00
  -1.900000      0.0000000E+00
  -1.890000      0.0000000E+00
  -1.880000      0.0000000E+00
  -1.870000      0.0000000E+00
  -1.860000      0.0000000E+00
  -1.850000      0.0000000E+00
  -1.840000      0.0000000E+00
  -1.830000      0.0000000E+00
  -1.820000      0.0000000E+00
  -1.810000      0.0000000E+00
  -1.800000      0.0000000E+00
  -1.790000      0.0000000E+00
  -1.780000      0.0000000E+00
  -1.770000      0.0000000E+00
  -1.760000      0.0000000E+00
  -1.750000      0.0000000E+00
  -1.740000      0.0000000E+00
  -1.730000      0.0000000E+00
  -1.720000      0.0000000E+00
  -1.710000      0.0000000E+00
  -1.700000      0.0000000E+00
  -1.690000      0.0000000E+00
  -1.680000      0.0000000E+00
  -1.670000      0.0000000E+00
  -1.660000      0.0000000E+00
  -1.650000      0.0000000E+00
  -1.640000      0.0000000E+00
  -1.630000      0.0000000E+00
  -1.620000      0.0000000E+00
  -1.610000      0.0000000E+00
  -1.600000      0.0000000E+00
  -1.590000      0.0000000E+00
  -1.580000      0.0000000E+00
  -1.570000      0.0000000E+00
  -1.560000      0.0000000E+00
  -1.550000      0.0000000E+00
  -1.540000      0.0000000E+00
  -1.530000      0.0000000E+00
  -1.520000      0.0000000E+00
  -1.510000      0.0000000E+00
  -1.500000      0.0000000E+00
  -1.490000      0.0000000E+00
  -1.480000      0.0000000E+00
  -1.470000      0.0000000E+00
  -1.460000      0.0000000E+00
  -1.450000      0.0000000E+00
  -1.440000      0.0000000E+00
  -1.430000      0.0000000E+00
  -1.420000      0.0000000E+00
  -1.410000      0.0000000E+00
  -1.400000      0.0000000E+00
  -1.390000      0.0000000E+00
  -1.380000      0.0000000E+00
  -1.370000      0.0000000E+00
  -1.360000      0.0000000E+00
  -1.350000      0.0000000E+00
  -1.340000      0.0000000E+00
  -1.330000      0.0000000E+00
  -1.320000      0.0000000E+00
  -1.310000      0.0000000E+00
  -1.300000      0.0000000E+00
  -1.290000      0.0000000E+00
  -1.280000      0.0000000E+00
  -1.270000      0.0000000E+00
  -1.260000      0.0000000E+00
  -1.250000      0.0000000E+00
  -1.240000      0.0000000E+00
  -1.230000      0.0000000E+00
  -1.220000      0.0000000E+00
  -1.210000      0.0000000E+00
  -1.200000      0.0000000E+00
  -1.190000      0.0000000E+00
  -1.180000      0.0000000E+00
  -1.170000      0.0000000E+00
  -1.160000      0.0000000E+00
  -1.150000      0.0000000E+00
  -1.140000      0.0000000E+00
  -1.130000      0.0000000E+00
  -1.120000      0.0000000E+00
  -1.110000      0.0000000E+00
  -1.100000      0.0000000E+00
  -1.090000      0.0000000E+00
  -1.080000      0.0000000E+00
  -1.070000      0.0000000E+00
  -1.060000      0.0000000E+00
  -1.050000      0.0000000E+00
  -1.040000      0.0000000E+00
  -1.030000      0.0000000E+00
  -1.020000      0.0000000E+00
  -1.010000      0.0000000E+00
  -1.000000      0.0000000E+00
 -0.9900000      0.0000000E+00
 -0.9800000      0.0000000E+00
 -0.9700000      0.0000000E+00
 -0.9600000      0.0000000E+00
 -0.9500000      0.0000000E+00
 -0.9400000      0.0000000E+00
 -0.9300000      0.0000000E+00
 -0.9200000      0.0000000E+00
 -0.9100000      0.0000000E+00
 -0.9000000      0.0000000E+00
 -0.8900000      0.0000000E+00
 -0.8800000      0.0000000E+00
 -0.8700000      0.0000000E+00
 -0.8600000      0.0000000E+00
 -0.8500000      0.0000000E+00
 -0.8400000      0.0000000E+00
 -0.8300000      0.0000000E+00
 -0.8200000      0.0000000E+00
 -0.8100000      0.0000000E+00
 -0.8000000      0.0000000E+00
 -0.7900000      0.0000000E+00
 -0.7800000      0.0000000E+00
 -0.7700000      0.0000000E+00
 -0.7600000      0.0000000E+00
 -0.7500000      0.0000000E+00
 -0.7400000      0.0000000E+00
 -0.7300000      0.0000000E+00
 -0.7200000      0.0000000E+00
 -0.7100000      0.0000000E+00
 -0.7000000      0.0000000E+00
 -0.6900000      0.0000000E+00
 -0.6800000      0.0000000E+00
 -0.6700000      0.0000000E+00
 -0.6600000      0.0000000E+00
 -0.6500000      0.0000000E+00
 -0.6400000      0.0000000E+00
 -0.6300000      0.0000000E+00
 -0.6200000      0.0000000E+00
 -0.6100000      0.0000000E+00
 -0.6000000      0.0000000E+00
 -0.5900000      0.0000000E+00
 -0.5800000      0.0000000E+00
 -0.5700000      0.0000000E+00
 -0.5600000      0.0000000E+00
 -0.5500000      0.0000000E+00
 -0.5400000      0.0000000E+00
 -0.5300000      0.0000000E+00
 -0.5200000      0.0000000E+00
 -0.5100000      0.0000000E+00
 -0.5000000      0.0000000E+00
 -0.4900000      0.0000000E+00
 -0.4800000      0.0000000E+00
 -0.4700000      0.0000000E+00
 -0.4600000      0.0000000E+00
 -0.4500000      0.0000000E+00
 -0.4400000      0.0000000E+00
 -0.4300000      0.0000000E+00
 -0.4200000      0.0000000E+00
 -0.4100000      0.0000000E+00
 -0.4000000      0.0000000E+00
 -0.3900000      0.0000000E+00
 -0.3800000      0.0000000E+00
 -0.3700000      0.0000000E+00
 -0.3600000      0.0000000E+00
 -0.3500000      0.0000000E+00
 -0.3400000      0.0000000E+00
 -0.3300000      0.0000000E+00
 -0.3200000      0.0000000E+00
 -0.3100000      0.0000000E+00
 -0.3000000      0.0000000E+00
 -0.2900000      0.0000000E+00
 -0.2800000      0.0000000E+00
 -0.2700000      0.0000000E+00
 -0.2600000      0.0000000E+00
 -0.2500000      0.0000000E+00
 -0.2400000      0.0000000E+00
 -0.2300000      0.0000000E+00
 -0.2200000      0.0000000E+00
 -0.2100000      0.0000000E+00
 -0.2000000      0.0000000E+00
 -0.1900000      0.0000000E+00
 -0.1800000      0.0000000E+00
 -0.1700000      0.0000000E+00
 -0.1600000      0.0000000E+00
 -0.1500000      0.0000000E+00
 -0.1400000      0.0000000E+00
 -0.1300000      0.0000000E+00
 -0.1200000      0.0000000E+00
 -0.1100000      0.0000000E+00
 -0.1000000      0.0000000E+00
 -9.0000004E-02  0.0000000E+00
 -7.9999998E-02  0.0000000E+00
 -7.0000000E-02  0.0000000E+00
 -5.9999999E-02  0.0000000E+00
 -5.0000001E-02  0.0000000E+00
 -3.9999999E-02  0.0000000E+00
 -2.9999999E-02  0.0000000E+00
 -2.0000000E-02  0.0000000E+00
 -9.9999998E-03  0.0000000E+00
 -3.4694470E-17  0.0000000E+00
  9.9999998E-03  0.0000000E+00
  2.0000000E-02  0.0000000E+00
  2.9999999E-02  0.0000000E+00
  3.9999999E-02  0.0000000E+00
  5.0000001E-02  0.0000000E+00
  5.9999999E-02  0.0000000E+00
  7.0000000E-02  0.0000000E+00
  7.9999998E-02  0.0000000E+00
  9.0000004E-02  0.0000000E+00
  0.1000000      0.0000000E+00
  0.1100000      0.0000000E+00
  0.1200000      0.0000000E+00
  0.1300000      0.0000000E+00
  0.1400000      0.0000000E+00
  0.1500000      0.0000000E+00
  0.1600000      0.0000000E+00
  0.1700000      0.0000000E+00
  0.1800000      0.0000000E+00
  0.1900000      0.0000000E+00
  0.2000000      0.0000000E+00
  0.2100000      0.0000000E+00
  0.2200000      0.0000000E+00
  0.2300000      0.0000000E+00
  0.2400000      0.0000000E+00
  0.2500000      0.0000000E+00
  0.2600000      0.0000000E+00
  0.2700000      0.0000000E+00
  0.2800000      0.0000000E+00
  0.2900000      0.0000000E+00
  0.3000000      0.0000000E+00
  0.3100000      0.0000000E+00
  0.3200000      0.0000000E+00
  0.3300000      0.0000000E+00
  0.3400000      0.0000000E+00
  0.3500000      0.0000000E+00
  0.3600000      0.0000000E+00
  0.3700000      0.0000000E+00
  0.3800000      0.0000000E+00
  0.3900000      0.0000000E+00
  0.4000000      0.0000000E+00
  0.4100000      0.0000000E+00
  0.4200000      0.0000000E+00
  0.4300000      0.0000000E+00
  0.4400000      0.0000000E+00
  0.4500000      0.0000000E+00
  0.4600000      0.0000000E+00
  0.4700000      0.0000000E+00
  0.4800000      0.0000000E+00
  0.4900000      0.0000000E+00
  0.5000000      0.0000000E+00
  0.5100000      0.0000000E+00
  0.5200000      0.0000000E+00
  0.5300000      0.0000000E+00
  0.5400000      0.0000000E+00
  0.5500000      0.0000000E+00
  0.5600000      0.0000000E+00
  0.5700000      0.0000000E+00
  0.5800000      0.0000000E+00
  0.5900000      0.0000000E+00
  0.6000000      0.0000000E+00
  0.6100000      0.0000000E+00
  0.6200000      0.0000000E+00
  0.6300000      0.0000000E+00
  0.6400000      0.0000000E+00
  0.6500000      0.0000000E+00
  0.6600000      0.0000000E+00
  0.6700000      0.0000000E+00
  0.6800000      0.0000000E+00
  0.6900000      0.0000000E+00
  0.7000000      0.0000000E+00
  0.7100000      0.0000000E+00
  0.7200000      0.0000000E+00
  0.7300000      0.0000000E+00
  0.7400000      0.0000000E+00
  0.7500000      0.0000000E+00
  0.7600000      0.0000000E+00
  0.7700000      0.0000000E+00
  0.7800000      0.0000000E+00
  0.7900000      0.0000000E+00
  0.8000000      0.0000000E+00
  0.8100000      0.0000000E+00
  0.8200000      0.0000000E+00
  0.8300000      0.0000000E+00
  0.8400000      0.0000000E+00
  0.8500000      0.0000000E+00
  0.8600000      0.0000000E+00
  0.8700000      0.0000000E+00
  0.8800000      0.0000000E+00
  0.8900000      0.0000000E+00
  0.9000000      0.0000000E+00
  0.9100000      0.0000000E+00
  0.9200000      0.0000000E+00
  0.9300000      0.0000000E+00
  0.9400000      0.0000000E+00
  0.9500000      0.0000000E+00
  0.9600000      0.0000000E+00
  0.9700000      0.0000000E+00
  0.9800000      0.0000000E+00
  0.9900000      0.0000000E+00
   1.000000      0.0000000E+00
   1.010000      0.0000000E+00
   1.020000      0.0000000E+00
   1.030000      0.0000000E+00
   1.040000      0.0000000E+00
   1.050000      0.0000000E+00
   1.060000      0.0000000E+00
   1.070000      0.0000000E+00
   1.080000      0.0000000E+00
   1.090000      0.0000000E+00
   1.100000      0.0000000E+00
   1.110000      0.0000000E+00
   1.120000      0.0000000E+00
   1.130000      0.0000000E+00
   1.140000      0.0000000E+00
   1.150000      0.0000000E+00
   1.160000      0.0000000E+00
   1.170000      0.0000000E+00
   1.180000      0.0000000E+00
   1.190000      0.0000000E+00
   1.200000      0.0000000E+00
   1.210000      0.0000000E+00
   1.220000      0.0000000E+00
   1.230000      0.0000000E+00
   1.240000      0.0000000E+00
   1.250000      0.0000000E+00
   1.260000      0.0000000E+00
   1.270000      0.0000000E+00
   1.280000      0.0000000E+00
   1.290000      0.0000000E+00
   1.300000      0.0000000E+00
   1.310000      0.0000000E+00
   1.320000      0.0000000E+00
   1.330000      0.0000000E+00
   1.340000      0.0000000E+00
   1.350000      0.0000000E+00
   1.360000      0.0000000E+00
   1.370000      0.0000000E+00
   1.380000      0.0000000E+00
   1.390000      0.0000000E+00
   1.400000      0.0000000E+00
   1.410000      0.0000000E+00
   1.420000      0.0000000E+00
   1.430000      0.0000000E+00
   1.440000      0.0000000E+00
   1.450000      0.0000000E+00
   1.460000      0.0000000E+00
   1.470000      0.0000000E+00
   1.480000      0.0000000E+00
   1.490000      0.0000000E+00
   1.500000      0.0000000E+00
   1.510000      0.0000000E+00
   1.520000      0.0000000E+00
   1.530000      0.0000000E+00
   1.540000      0.0000000E+00
   1.550000      0.0000000E+00
   1.560000      0.0000000E+00
   1.570000      0.0000000E+00
   1.580000      0.0000000E+00
   1.590000      0.0000000E+00
   1.600000      0.0000000E+00
   1.610000      0.0000000E+00
   1.620000      0.0000000E+00
   1.630000      0.0000000E+00
   1.640000      0.0000000E+00
   1.650000      0.0000000E+00
   1.660000      0.0000000E+00
   1.670000      0.0000000E+00
   1.680000      0.0000000E+00
   1.690000      0.0000000E+00
   1.700000      0.0000000E+00
   1.710000      0.0000000E+00
   1.720000      0.0000000E+00
   1.730000      0.0000000E+00
   1.740000      0.0000000E+00
   1.750000      0.0000000E+00
   1.760000      0.0000000E+00
   1.770000      0.0000000E+00
   1.780000      0.0000000E+00
   1.790000      0.0000000E+00
   1.800000      0.0000000E+00
   1.810000      0.0000000E+00
   1.820000      0.0000000E+00
   1.830000      0.0000000E+00
   1.840000      0.0000000E+00
   1.850000      0.0000000E+00
   1.860000      0.0000000E+00
   1.870000      0.0000000E+00
   1.880000      0.0000000E+00
   1.890000      0.0000000E+00
   1.900000      0.0000000E+00
   1.910000      0.0000000E+00
   1.920000      0.0000000E+00
   1.930000      0.0000000E+00
   1.940000      0.0000000E+00
   1.950000      0.0000000E+00
   1.960000      0.0000000E+00
   1.970000      0.0000000E+00
   1.980000      0.0000000E+00
   1.990000      0.0000000E+00
   2.000000      0.0000000E+00
   2.010000      0.0000000E+00
   2.020000      1.2547969E-38
   2.030000      1.5728486E-38
   2.040000      1.8818546E-38
   2.050000      2.1940824E-38
   2.060000      2.5040343E-38
   2.070000      2.8076825E-38
   2.080000      3.1013473E-38
   2.090000      3.3805218E-38
   2.100000      3.6415655E-38
   2.110000      3.8218050E-38
   2.120000      3.9224522E-38
   2.130000      3.9779366E-38
   2.140000      3.9584044E-38
   2.150000      3.8300189E-38
   2.160000      3.6126481E-38
   2.170000      3.3569545E-38
   2.180000      3.0685454E-38
   2.190000      2.7675426E-38
   2.200000      2.4686894E-38
   2.210000      2.1754281E-38
   2.220000      1.8438565E-38
   2.230000      1.5154974E-38
   2.240000      1.2860630E-38
   2.250000      0.0000000E+00
   2.260000      0.0000000E+00
   2.270000      0.0000000E+00
   2.280000      0.0000000E+00
   2.290000      0.0000000E+00
   2.300000      0.0000000E+00
   2.310000      0.0000000E+00
   2.320000      0.0000000E+00
   2.330000      0.0000000E+00
   2.340000      0.0000000E+00
   2.350000      0.0000000E+00
   2.360000      0.0000000E+00
   2.370000      0.0000000E+00
   2.380000      0.0000000E+00
   2.390000     -1.6799908E-38
   2.400000     -2.6715405E-38
   2.410000     -3.8226778E-38
   2.420000     -5.1837169E-38
   2.430000     -6.8638340E-38
   2.440000     -8.8323153E-38
   2.450000     -1.0955350E-37
   2.460000     -1.3119945E-37
   2.470000     -1.5262737E-37
   2.480000     -1.7755678E-37
   2.490000     -2.0629447E-37
   2.500000     -2.3611870E-37
   2.510000     -2.6530865E-37
   2.520000     -2.6566839E-37
   2.530000     -2.3542798E-37
   2.540000     -2.0213047E-37
   2.550000     -1.6740202E-37
   2.560000     -1.3070295E-37
   2.570000     -9.2818053E-38
   2.580000     -5.2341491E-38
   2.590000      0.0000000E+00
   2.600000     -7.3023765E-38
   2.610000     -2.9001141E-37
   2.620000     -5.5548319E-37
   2.630000     -8.9858459E-37
   2.640000     -1.3205909E-36
   2.650000     -1.7904587E-36
   2.660000     -2.2827076E-36
   2.670000     -2.7871795E-36
   2.680000     -3.3186726E-36
   2.690000     -3.8776634E-36
   2.700000     -4.0588821E-36
   2.710000     -3.7129044E-36
   2.720000     -3.0925463E-36
   2.730000     -1.9020893E-36
   2.740000     -2.2343975E-37
   2.750000      1.4804491E-36
   2.760000      3.0458143E-36
   2.770000      4.3504663E-36
   2.780000      5.2922554E-36
   2.790000      5.5653111E-36
   2.800000      5.1271302E-36
   2.810000      4.3161062E-36
   2.820000      3.3722400E-36
   2.830000      2.7199850E-36
   2.840000      2.5687325E-36
   2.850000      2.6685211E-36
   2.860000      2.9005960E-36
   2.870000      3.4401491E-36
   2.880000      4.2632699E-36
   2.890000      5.1992189E-36
   2.900000      6.4960656E-36
   2.910000      8.1376215E-36
   2.920000      9.9239740E-36
   2.930000      1.1995471E-35
   2.940000      1.3561072E-35
   2.950000      1.4501996E-35
   2.960000      1.5521506E-35
   2.970000      1.6681827E-35
   2.980000      1.7567327E-35
   2.990000      1.7401354E-35
   3.000000      1.6381504E-35
   3.010000      1.4983158E-35
   3.020000      1.3311509E-35
   3.030000      1.1528537E-35
   3.040000      9.7793037E-36
   3.050000      8.1006857E-36
   3.060000      6.8072696E-36
   3.070000      5.9542333E-36
   3.080000      5.3609531E-36
   3.090000      4.6748056E-36
   3.100000      3.6095752E-36
   3.110000      2.2824140E-36
   3.120000      6.1638882E-37
   3.130000     -2.2241343E-36
   3.140000     -6.4056708E-36
   3.150000     -1.1310695E-35
   3.160000     -1.6780373E-35
   3.170000     -2.2524946E-35
   3.180000     -2.8312774E-35
   3.190000     -3.3259548E-35
   3.200000     -3.7313282E-35
   3.210000     -4.1336939E-35
   3.220000     -4.5502069E-35
   3.230000     -4.9599898E-35
   3.240000     -5.3455881E-35
   3.250000     -5.7422882E-35
   3.260000     -6.1337858E-35
   3.270000     -6.4661270E-35
   3.280000     -6.7200177E-35
   3.290000     -6.9140907E-35
   3.300000     -7.0565442E-35
   3.310000     -7.1966938E-35
   3.320000     -7.2453494E-35
   3.330000     -7.2027222E-35
   3.340000     -7.3095304E-35
   3.350000     -7.5418265E-35
   3.360000     -7.7145140E-35
   3.370000     -7.8089875E-35
   3.380000     -8.1712332E-35
   3.390000     -9.1961047E-35
   3.400000     -1.0565505E-34
   3.410000     -1.1701284E-34
   3.420000     -1.2298873E-34
   3.430000     -1.2328177E-34
   3.440000     -1.2318614E-34
   3.450000     -1.1534375E-34
   3.460000     -9.5073794E-35
   3.470000     -7.3387524E-35
   3.480000     -4.7160721E-35
   3.490000     -1.5923493E-35
   3.500000      1.2625161E-35
   3.510000      3.6197526E-35
   3.520000      5.4876255E-35
   3.530000      6.9962376E-35
   3.540000      7.8678741E-35
   3.550000      7.6101688E-35
   3.560000      7.5829929E-35
   3.570000      9.1249775E-35
   3.580000      1.1313458E-34
   3.590000      1.3995187E-34
   3.600000      1.7606281E-34
   3.610000      2.1754931E-34
   3.620000      2.5899401E-34
   3.630000      2.9890535E-34
   3.640000      3.2463090E-34
   3.650000      3.3774317E-34
   3.660000      3.5098512E-34
   3.670000      3.7195865E-34
   3.680000      4.0433194E-34
   3.690000      4.4284362E-34
   3.700000      4.9107824E-34
   3.710000      5.4752029E-34
   3.720000      6.0297782E-34
   3.730000      6.4312462E-34
   3.740000      6.7908625E-34
   3.750000      7.1568339E-34
   3.760000      7.2693934E-34
   3.770000      7.1255354E-34
   3.780000      6.8394233E-34
   3.790000      6.4497580E-34
   3.800000      5.9878415E-34
   3.810000      5.4598039E-34
   3.820000      4.9082239E-34
   3.830000      4.4266224E-34
   3.840000      4.0715286E-34
   3.850000      3.7791411E-34
   3.860000      3.4993689E-34
   3.870000      3.2437383E-34
   3.880000      3.0402029E-34
   3.890000      2.7701544E-34
   3.900000      2.3401751E-34
   3.910000      1.8066302E-34
   3.920000      1.1425097E-34
   3.930000      3.0819929E-35
   3.940000     -7.1572597E-35
   3.950000     -1.9275127E-34
   3.960000     -3.3044106E-34
   3.970000     -4.8106050E-34
   3.980000     -6.4264060E-34
   3.990000     -8.0972946E-34
   4.000000     -9.7563239E-34
   4.010000     -1.1353699E-33
   4.020000     -1.2839588E-33
   4.030000     -1.4234461E-33
   4.040000     -1.5602201E-33
   4.050000     -1.6790550E-33
   4.060000     -1.7882199E-33
   4.070000     -1.9189499E-33
   4.080000     -2.0610418E-33
   4.090000     -2.1958749E-33
   4.100000     -2.3304161E-33
   4.110000     -2.4721394E-33
   4.120000     -2.6167254E-33
   4.130000     -2.7602960E-33
   4.140000     -2.9050736E-33
   4.150000     -3.0575091E-33
   4.160000     -3.2015937E-33
   4.170000     -3.3255532E-33
   4.180000     -3.4330889E-33
   4.190000     -3.5126559E-33
   4.200000     -3.5549421E-33
   4.210000     -3.5657971E-33
   4.220000     -3.5468231E-33
   4.230000     -3.4962427E-33
   4.240000     -3.4174251E-33
   4.250000     -3.3144103E-33
   4.260000     -3.1933233E-33
   4.270000     -3.0552000E-33
   4.280000     -2.8977732E-33
   4.290000     -2.7221093E-33
   4.300000     -2.5283822E-33
   4.310000     -2.3131137E-33
   4.320000     -2.0715948E-33
   4.330000     -1.7995237E-33
   4.340000     -1.4877383E-33
   4.350000     -1.1309397E-33
   4.360000     -7.2572321E-34
   4.370000     -2.6671414E-34
   4.380000      2.4598197E-34
   4.390000      8.1157103E-34
   4.400000      1.4273428E-33
   4.410000      2.0889574E-33
   4.420000      2.7905955E-33
   4.430000      3.5267262E-33
   4.440000      4.2920443E-33
   4.450000      5.0821826E-33
   4.460000      5.8919674E-33
   4.470000      6.7178128E-33
   4.480000      7.5596380E-33
   4.490000      8.4170472E-33
   4.500000      9.2883751E-33
   4.510000      1.0176586E-32
   4.520000      1.1084375E-32
   4.530000      1.2008737E-32
   4.540000      1.2944015E-32
   4.550000      1.3890633E-32
   4.560000      1.4848704E-32
   4.570000      1.5803270E-32
   4.580000      1.6741878E-32
   4.590000      1.7656126E-32
   4.600000      1.8534000E-32
   4.610000      1.9363813E-32
   4.620000      2.0134345E-32
   4.630000      2.0835029E-32
   4.640000      2.1456614E-32
   4.650000      2.1991115E-32
   4.660000      2.2434103E-32
   4.670000      2.2777121E-32
   4.680000      2.3011961E-32
   4.690000      2.3135909E-32
   4.700000      2.3143466E-32
   4.710000      2.3027449E-32
   4.720000      2.2780048E-32
   4.730000      2.2392037E-32
   4.740000      2.1852165E-32
   4.750000      2.1147860E-32
   4.760000      2.0265839E-32
   4.770000      1.9192703E-32
   4.780000      1.7914922E-32
   4.790000      1.6419730E-32
   4.800000      1.4695745E-32
   4.810000      1.2733168E-32
   4.820000      1.0524201E-32
   4.830000      8.0631029E-33
   4.840000      5.3453497E-33
   4.850000      2.3698782E-33
   4.860000     -8.6314117E-34
   4.870000     -4.3542709E-33
   4.880000     -8.1025239E-33
   4.890000     -1.2106667E-32
   4.900000     -1.6365448E-32
   4.910000     -2.0876777E-32
   4.920000     -2.5639051E-32
   4.930000     -3.0650430E-32
   4.940000     -3.5907320E-32
   4.950000     -4.1405019E-32
   4.960000     -4.7136759E-32
   4.970000     -5.3093354E-32
   4.980000     -5.9262748E-32
   4.990000     -6.5629660E-32
   5.000000     -7.2175518E-32
   5.010000     -7.8878092E-32
   5.020000     -8.5711970E-32
   5.030000     -9.2649009E-32
   5.040000     -9.9658294E-32
   5.050000     -1.0670662E-31
   5.060000     -1.1375869E-31
   5.070000     -1.2077755E-31
   5.080000     -1.2772470E-31
   5.090000     -1.3456017E-31
   5.100000     -1.4124229E-31
   5.110000     -1.4772760E-31
   5.120000     -1.5397060E-31
   5.130000     -1.5992337E-31
   5.140000     -1.6553525E-31
   5.150000     -1.7075251E-31
   5.160000     -1.7551820E-31
   5.170000     -1.7977211E-31
   5.180000     -1.8345074E-31
   5.190000     -1.8648751E-31
   5.200000     -1.8881315E-31
   5.210000     -1.9035612E-31
   5.220000     -1.9104323E-31
   5.230000     -1.9080011E-31
   5.240000     -1.8955197E-31
   5.250000     -1.8722351E-31
   5.260000     -1.8373985E-31
   5.270000     -1.7902711E-31
   5.280000     -1.7301214E-31
   5.290000     -1.6562289E-31
   5.300000     -1.5678844E-31
   5.310000     -1.4643903E-31
   5.320000     -1.3450615E-31
   5.330000     -1.2092269E-31
   5.340000     -1.0562320E-31
   5.350000     -8.8544188E-32
   5.360000     -6.9624466E-32
   5.370000     -4.8805996E-32
   5.380000     -2.6034440E-32
   5.390000     -1.2599063E-33
   5.400000      2.5561833E-32
   5.410000      5.4468629E-32
   5.420000      8.5491130E-32
   5.430000      1.1865170E-31
   5.440000      1.5396409E-31
   5.450000      1.9143142E-31
   5.460000      2.3104642E-31
   5.470000      2.7279199E-31
   5.480000      3.1663922E-31
   5.490000      3.6254747E-31
   5.500000      4.1046396E-31
   5.510000      4.6032321E-31
   5.520000      5.1204675E-31
   5.530000      5.6554228E-31
   5.540000      6.2070310E-31
   5.550000      6.7740758E-31
   5.560000      7.3551810E-31
   5.570000      7.9488009E-31
   5.580000      8.5532148E-31
   5.590000      9.1665153E-31
   5.600000      9.7866017E-31
   5.610000      1.0411173E-30
   5.620000      1.1037721E-30
   5.630000      1.1663525E-30
   5.640000      1.2285655E-30
   5.650000      1.2900960E-30
   5.660000      1.3506078E-30
   5.670000      1.4097433E-30
   5.680000      1.4671233E-30
   5.690000      1.5223481E-30
   5.700000      1.5749973E-30
   5.710000      1.6246297E-30
   5.720000      1.6707843E-30
   5.730000      1.7129804E-30
   5.740000      1.7507179E-30
   5.750000      1.7834773E-30
   5.760000      1.8107210E-30
   5.770000      1.8318932E-30
   5.780000      1.8464206E-30
   5.790000      1.8537140E-30
   5.800000      1.8531683E-30
   5.810000      1.8441659E-30
   5.820000      1.8260765E-30
   5.830000      1.7982602E-30
   5.840000      1.7600690E-30
   5.850000      1.7108502E-30
   5.860000      1.6499485E-30
   5.870000      1.5767091E-30
   5.880000      1.4904803E-30
   5.890000      1.3906172E-30
   5.900000      1.2764846E-30
   5.910000      1.1474603E-30
   5.920000      1.0029379E-30
   5.930000      8.4233132E-31
   5.940000      6.6507858E-31
   5.950000      4.7064452E-31
   5.960000      2.5852504E-31
   5.970000      2.8252058E-32
   5.980000     -2.2060211E-31
   5.990000     -4.8842035E-31
   6.000000     -7.7553536E-31
   6.010000     -1.0822243E-30
   6.020000     -1.4087030E-30
   6.030000     -1.7551201E-30
   6.040000     -2.1215508E-30
   6.050000     -2.5079911E-30
   6.060000     -2.9143512E-30
   6.070000     -3.3404488E-30
   6.080000     -3.7860040E-30
   6.090000     -4.2506312E-30
   6.100000     -4.7338350E-30
   6.110000     -5.2350022E-30
   6.120000     -5.7533964E-30
   6.130000     -6.2881519E-30
   6.140000     -6.8382686E-30
   6.150000     -7.4026036E-30
   6.160000     -7.9798680E-30
   6.170000     -8.5686196E-30
   6.180000     -9.1672550E-30
   6.190000     -9.7740064E-30
   6.200000     -1.0386932E-29
   6.210000     -1.1003918E-29
   6.220000     -1.1622665E-29
   6.230000     -1.2240691E-29
   6.240000     -1.2855322E-29
   6.250000     -1.3463687E-29
   6.260000     -1.4062724E-29
   6.270000     -1.4649168E-29
   6.280000     -1.5219555E-29
   6.290000     -1.5770222E-29
   6.300000     -1.6297303E-29
   6.310000     -1.6796735E-29
   6.320000     -1.7264254E-29
   6.330000     -1.7695402E-29
   6.340000     -1.8085531E-29
   6.350000     -1.8429806E-29
   6.360000     -1.8723214E-29
   6.370000     -1.8960561E-29
   6.380000     -1.9136493E-29
   6.390000     -1.9245493E-29
   6.400000     -1.9281902E-29
   6.410000     -1.9239924E-29
   6.420000     -1.9113637E-29
   6.430000     -1.8897021E-29
   6.440000     -1.8583963E-29
   6.450000     -1.8168278E-29
   6.460000     -1.7643733E-29
   6.470000     -1.7004067E-29
   6.480000     -1.6243021E-29
   6.490000     -1.5354356E-29
   6.500000     -1.4331887E-29
   6.510000     -1.3169523E-29
   6.520000     -1.1861281E-29
   6.530000     -1.0401330E-29
   6.540000     -8.7840228E-30
   6.550000     -7.0039414E-30
   6.560000     -5.0559227E-30
   6.570000     -2.9351133E-30
   6.580000     -6.3700645E-31
   6.590000      1.8425076E-30
   6.600000      4.5070974E-30
   6.610000      7.3599481E-30
   6.620000      1.0403702E-29
   6.630000      1.3640406E-29
   6.640000      1.7071472E-29
   6.650000      2.0697600E-29
   6.660000      2.4518742E-29
   6.670000      2.8534024E-29
   6.680000      3.2741712E-29
   6.690000      3.7139137E-29
   6.700000      4.1722633E-29
   6.710000      4.6487498E-29
   6.720000      5.1427927E-29
   6.730000      5.6536955E-29
   6.740000      6.1806384E-29
   6.750000      6.7226733E-29
   6.760000      7.2787212E-29
   6.770000      7.8475621E-29
   6.780000      8.4278321E-29
   6.790000      9.0180183E-29
   6.800000      9.6164547E-29
   6.810000      1.0221315E-28
   6.820000      1.0830610E-28
   6.830000      1.1442185E-28
   6.840000      1.2053713E-28
   6.850000      1.2662698E-28
   6.860000      1.3266463E-28
   6.870000      1.3862158E-28
   6.880000      1.4446750E-28
   6.890000      1.5017031E-28
   6.900000      1.5569612E-28
   6.910000      1.6100930E-28
   6.920000      1.6607236E-28
   6.930000      1.7084614E-28
   6.940000      1.7528974E-28
   6.950000      1.7936059E-28
   6.960000      1.8301454E-28
   6.970000      1.8620589E-28
   6.980000      1.8888746E-28
   6.990000      1.9101070E-28
   7.000000      1.9252573E-28
   7.010000      1.9338152E-28
   7.020000      1.9352598E-28
   7.030000      1.9290615E-28
   7.040000      1.9146822E-28
   7.050000      1.8915779E-28
   7.060000      1.8592002E-28