  -2.600000      0.0000000E+00
  -2.590000      0.0000000E+00
  -2.580000      0.0000000E+00
  -2.570000      0.0000000E+00
  -2.560000      0.0000000E+00
  -2.550000      0.0000000E+00
  -2.540000      0.0000000E+00
  -2.530000      0.0000000E+00
  -2.520000      0.0000000E+00
  -2.510000      0.0000000E+00
  -2.500000      0.0000000E+00
  -2.490000      0.0000000E+00
  -2.480000      0.0000000E+00
  -2.470000      0.0000000E+00
  -2.460000      0.0000000E+00
  -2.450000      0.0000000E+00
  -2.440000      0.0000000E+00
  -2.430000      0.0000000E+00
  -2.420000      0.0000000E+00
  -2.410000      0.0000000E+00
  -2.400000      0.0000000E+00
  -2.390000      0.0000000E+00
  -2.380000      0.0000000E+00
  -2.370000      0.0000000E+00
  -2.360000      0.0000000E+00
  -2.350000      0.0000000E+00
  -2.340000      0.0000000E+00
  -2.330000      0.0000000E+00
  -2.320000      0.0000000E+00
  -2.310000      0.0000000E+00
  -2.300000      0.0000000E+00
  -2.290000      0.0000000E+00
  -2.280000      0.0000000E+00
  -2.270000      0.0000000E+00
  -2.260000      0.0000000E+00
  -2.250000      0.0000000E+00
  -2.240000      0.0000000E+00
  -2.230000      0.0000000E+00
  -2.220000      0.0000000E+00
  -2.210000      0.0000000E+00
  -2.200000      0.0000000E+00
  -2.190000      0.0000000E+00
  -2.180000      0.0000000E+00
  -2.170000      0.0000000E+00
  -2.160000      0.0000000E+00
  -2.150000      0.0000000E+00
  -2.140000      0.0000000E+00
  -2.130000      0.0000000E+00
  -2.120000      0.0000000E+00
  -2.110000      0.0000000E+00
  -2.100000      0.0000000E+00
  -2.090000      0.0000000E+00
  -2.080000      0.0000000E+00
  -2.070000      0.0000000E+00
  -2.060000      0.0000000E+00
  -2.050000      0.0000000E+00
  -2.040000      0.0000000E+00
  -2.030000      0.0000000E+00
  -2.020000      0.0000000E+00
  -2.010000      0.0000000E+00
  -2.000000      0.0000000E+00
  -1.990000      0.0000000E+00
  -1.980000      0.0000000E+00
  -1.970000      0.0000000E+00
  -1.960000      0.0000000E+00
  -1.950000      0.0000000E+00
  -1.940000      0.0000000E+00
  -1.930000      0.0000000E+00
  -1.920000      0.0000000E+00
  -1.910000      0.0000000E+00
  -1.900000      0.0000000E+00
  -1.890000      0.0000000E+00
  -1.880000      0.0000000E+00
  -1.870000      0.0000000E+00
  -1.860000      0.0000000E+00
  -1.850000      0.0000000E+00
  -1.840000      0.0000000E+00
  -1.830000      0.0000000E+00
  -1.820000      0.0000000E+00
  -1.810000      0.0000000E+00
  -1.800000      0.0000000E+00
  -1.790000      0.0000000E+00
  -1.780000      0.0000000E+00
  -1.770000      0.0000000E+00
  -1.760000      0.0000000E+00
  -1.750000      0.0000000E+00
  -1.740000      0.0000000E+00
  -1.730000      0.0000000E+00
  -1.720000      0.0000000E+00
  -1.710000      0.0000000E+00
  -1.700000      0.0000000E+00
  -1.690000      0.0000000E+00
  -1.680000      0.0000000E+00
  -1.670000      0.0000000E+00
  -1.660000      0.0000000E+00
  -1.650000      0.0000000E+00
  -1.640000      0.0000000E+00
  -1.630000      0.0000000E+00
  -1.620000      0.0000000E+00
  -1.610000      0.0000000E+00
  -1.600000      0.0000000E+00
  -1.590000      0.0000000E+00
  -1.580000      0.0000000E+00
  -1.570000      0.0000000E+00
  -1.560000      0.0000000E+00
  -1.550000      0.0000000E+00
  -1.540000      0.0000000E+00
  -1.530000      0.0000000E+00
  -1.520000      0.0000000E+00
  -1.510000      0.0000000E+00
  -1.500000      0.0000000E+00
  -1.490000      0.0000000E+00
  -1.480000      0.0000000E+00
  -1.470000      0.0000000E+00
  -1.460000      0.0000000E+00
  -1.450000      0.0000000E+00
  -1.440000      0.0000000E+00
  -1.430000      0.0000000E+00
  -1.420000      0.0000000E+00
  -1.410000      0.0000000E+00
  -1.400000      0.0000000E+00
  -1.390000      0.0000000E+00
  -1.380000      0.0000000E+00
  -1.370000      0.0000000E+00
  -1.360000      0.0000000E+00
  -1.350000      0.0000000E+00
  -1.340000      0.0000000E+00
  -1.330000      0.0000000E+00
  -1.320000      0.0000000E+00
  -1.310000      0.0000000E+00
  -1.300000      0.0000000E+00
  -1.290000      0.0000000E+00
  -1.280000      0.0000000E+00
  -1.270000      0.0000000E+00
  -1.260000      0.0000000E+00
  -1.250000      0.0000000E+00
  -1.240000      0.0000000E+00
  -1.230000      0.0000000E+00
  -1.220000      0.0000000E+00
  -1.210000      0.0000000E+00
  -1.200000      0.0000000E+00
  -1.190000      0.0000000E+00
  -1.180000      0.0000000E+00
  -1.170000      0.0000000E+00
  -1.160000      0.0000000E+00
  -1.150000      0.0000000E+00
  -1.140000      0.0000000E+00
  -1.130000      0.0000000E+00
  -1.120000      0.0000000E+00
  -1.110000      0.0000000E+00
  -1.100000      0.0000000E+00
  -1.090000      0.0000000E+00
  -1.080000      0.0000000E+00
  -1.070000      0.0000000E+00
  -1.060000      0.0000000E+00
  -1.050000      0.0000000E+00
  -1.040000      0.0000000E+00
  -1.030000      0.0000000E+00
  -1.020000      0.0000000E+00
  -1.010000      0.0000000E+00
  -1.000000      0.0000000E+00
 -0.9900000      0.0000000E+00
 -0.9800000      0.0000000E+00
 -0.9700000      0.0000000E+00
 -0.9600000      0.0000000E+00
 -0.9500000      0.0000000E+00
 -0.9400000      0.0000000E+00
 -0.9300000      0.0000000E+00
 -0.9200000      0.0000000E+00
 -0.9100000      0.0000000E+00
 -0.9000000      0.0000000E+00
 -0.8900000      0.0000000E+00
 -0.8800000      0.0000000E+00
 -0.8700000      0.0000000E+00
 -0.8600000      0.0000000E+00
 -0.8500000      0.0000000E+00
 -0.8400000      0.0000000E+00
 -0.8300000      0.0000000E+00
 -0.8200000      0.0000000E+00
 -0.8100000      0.0000000E+00
 -0.8000000      0.0000000E+00
 -0.7900000      0.0000000E+00
 -0.7800000      0.0000000E+00
 -0.7700000      0.0000000E+00
 -0.7600000      0.0000000E+00
 -0.7500000      0.0000000E+00
 -0.7400000      0.0000000E+00
 -0.7300000      0.0000000E+00
 -0.7200000      0.0000000E+00
 -0.7100000      0.0000000E+00
 -0.7000000      0.0000000E+00
 -0.6900000      0.0000000E+00
 -0.6800000      0.0000000E+00
 -0.6700000      0.0000000E+00
 -0.6600000      0.0000000E+00
 -0.6500000      0.0000000E+00
 -0.6400000      0.0000000E+00
 -0.6300000      0.0000000E+00
 -0.6200000      0.0000000E+00
 -0.6100000      0.0000000E+00
 -0.6000000      0.0000000E+00
 -0.5900000      0.0000000E+00
 -0.5800000      0.0000000E+00
 -0.5700000      0.0000000E+00
 -0.5600000      0.0000000E+00
 -0.5500000      0.0000000E+00
 -0.5400000      0.0000000E+00
 -0.5300000      0.0000000E+00
 -0.5200000      0.0000000E+00
 -0.5100000      0.0000000E+00
 -0.5000000      0.0000000E+00
 -0.4900000      0.0000000E+00
 -0.4800000      0.0000000E+00
 -0.4700000      0.0000000E+00
 -0.4600000      0.0000000E+00
 -0.4500000      0.0000000E+00
 -0.4400000      0.0000000E+00
 -0.4300000      0.0000000E+00
 -0.4200000      0.0000000E+00
 -0.4100000      0.0000000E+00
 -0.4000000      0.0000000E+00
 -0.3900000      0.0000000E+00
 -0.3800000      0.0000000E+00
 -0.3700000      0.0000000E+00
 -0.3600000      0.0000000E+00
 -0.3500000      0.0000000E+00
 -0.3400000      0.0000000E+00
 -0.3300000      0.0000000E+00
 -0.3200000      0.0000000E+00
 -0.3100000      0.0000000E+00
 -0.3000000      0.0000000E+00
 -0.2900000      0.0000000E+00
 -0.2800000      0.0000000E+00
 -0.2700000      0.0000000E+00
 -0.2600000      0.0000000E+00
 -0.2500000      0.0000000E+00
 -0.2400000      0.0000000E+00
 -0.2300000      0.0000000E+00
 -0.2200000      0.0000000E+00
 -0.2100000      0.0000000E+00
 -0.2000000      0.0000000E+00
 -0.1900000      0.0000000E+00
 -0.1800000      0.0000000E+00
 -0.1700000      0.0000000E+00
 -0.1600000      0.0000000E+00
 -0.1500000      0.0000000E+00
 -0.1400000      0.0000000E+00
 -0.1300000      0.0000000E+00
 -0.1200000      0.0000000E+00
 -0.1100000      0.0000000E+00
 -0.1000000      0.0000000E+00
 -9.0000004E-02  0.0000000E+00
 -7.9999998E-02  0.0000000E+00
 -7.0000000E-02  0.0000000E+00
 -5.9999999E-02  0.0000000E+00
 -5.0000001E-02  0.0000000E+00
 -3.9999999E-02  0.0000000E+00
 -2.9999999E-02  0.0000000E+00
 -2.0000000E-02  0.0000000E+00
 -9.9999998E-03  0.0000000E+00
 -3.4694470E-17  0.0000000E+00
  9.9999998E-03  0.0000000E+00
  2.0000000E-02  0.0000000E+00
  2.9999999E-02  0.0000000E+00
  3.9999999E-02  0.0000000E+00
  5.0000001E-02  0.0000000E+00
  5.9999999E-02  0.0000000E+00
  7.0000000E-02  0.0000000E+00
  7.9999998E-02  0.0000000E+00
  9.0000004E-02  0.0000000E+00
  0.1000000      0.0000000E+00
  0.1100000      0.0000000E+00
  0.1200000      0.0000000E+00
  0.1300000      0.0000000E+00
  0.1400000      0.0000000E+00
  0.1500000      0.0000000E+00
  0.1600000      0.0000000E+00
  0.1700000      0.0000000E+00
  0.1800000      0.0000000E+00
  0.1900000      0.0000000E+00
  0.2000000      0.0000000E+00
  0.2100000      0.0000000E+00
  0.2200000      0.0000000E+00
  0.2300000      0.0000000E+00
  0.2400000      0.0000000E+00
  0.2500000      0.0000000E+00
  0.2600000      0.0000000E+00
  0.2700000      0.0000000E+00
  0.2800000      0.0000000E+00
  0.2900000      0.0000000E+00
  0.3000000      0.0000000E+00
  0.3100000      0.0000000E+00
  0.3200000      0.0000000E+00
  0.3300000      0.0000000E+00
  0.3400000      0.0000000E+00
  0.3500000      0.0000000E+00
  0.3600000      0.0000000E+00
  0.3700000      0.0000000E+00
  0.3800000      0.0000000E+00
  0.3900000      0.0000000E+00
  0.4000000      0.0000000E+00
  0.4100000      0.0000000E+00
  0.4200000      0.0000000E+00
  0.4300000      0.0000000E+00
  0.4400000      0.0000000E+00
  0.4500000      0.0000000E+00
  0.4600000      0.0000000E+00
  0.4700000      0.0000000E+00
  0.4800000      0.0000000E+00
  0.4900000      0.0000000E+00
  0.5000000      0.0000000E+00
  0.5100000      0.0000000E+00
  0.5200000      0.0000000E+00
  0.5300000      0.0000000E+00
  0.5400000      0.0000000E+00
  0.5500000      0.0000000E+00
  0.5600000      0.0000000E+00
  0.5700000      0.0000000E+00
  0.5800000      0.0000000E+00
  0.5900000      0.0000000E+00
  0.6000000      0.0000000E+00
  0.6100000      0.0000000E+00
  0.6200000      0.0000000E+00
  0.6300000      0.0000000E+00
  0.6400000      0.0000000E+00
  0.6500000      0.0000000E+00
  0.6600000      0.0000000E+00
  0.6700000      0.0000000E+00
  0.6800000      0.0000000E+00
  0.6900000      0.0000000E+00
  0.7000000      0.0000000E+00
  0.7100000      0.0000000E+00
  0.7200000      0.0000000E+00
  0.7300000      0.0000000E+00
  0.7400000      0.0000000E+00
  0.7500000      0.0000000E+00
  0.7600000      0.0000000E+00
  0.7700000      0.0000000E+00
  0.7800000      0.0000000E+00
  0.7900000      0.0000000E+00
  0.8000000      0.0000000E+00
  0.8100000      0.0000000E+00
  0.8200000      0.0000000E+00
  0.8300000      0.0000000E+00
  0.8400000      0.0000000E+00
  0.8500000      0.0000000E+00
  0.8600000      0.0000000E+00
  0.8700000      0.0000000E+00
  0.8800000      0.0000000E+00
  0.8900000      0.0000000E+00
  0.9000000      0.0000000E+00
  0.9100000      0.0000000E+00
  0.9200000      0.0000000E+00
  0.9300000      0.0000000E+00
  0.9400000      0.0000000E+00
  0.9500000      0.0000000E+00
  0.9600000      0.0000000E+00
  0.9700000      0.0000000E+00
  0.9800000      0.0000000E+00
  0.9900000      0.0000000E+00
   1.000000      0.0000000E+00
   1.010000      0.0000000E+00
   1.020000      0.0000000E+00
   1.030000      0.0000000E+00
   1.040000      0.0000000E+00
   1.050000      0.0000000E+00
   1.060000      0.0000000E+00
   1.070000      0.0000000E+00
   1.080000      0.0000000E+00
   1.090000      0.0000000E+00
   1.100000      0.0000000E+00
   1.110000      0.0000000E+00
   1.120000      0.0000000E+00
   1.130000      0.0000000E+00
   1.140000      0.0000000E+00
   1.150000      0.0000000E+00
   1.160000      0.0000000E+00
   1.170000      0.0000000E+00
   1.180000      0.0000000E+00
   1.190000      0.0000000E+00
   1.200000      0.0000000E+00
   1.210000      0.0000000E+00
   1.220000      0.0000000E+00
   1.230000      0.0000000E+00
   1.240000      0.0000000E+00
   1.250000      0.0000000E+00
   1.260000      0.0000000E+00
   1.270000      0.0000000E+00
   1.280000      0.0000000E+00
   1.290000      0.0000000E+00
   1.300000      0.0000000E+00
   1.310000      0.0000000E+00
   1.320000      0.0000000E+00
   1.330000      0.0000000E+00
   1.340000      0.0000000E+00
   1.350000      0.0000000E+00
   1.360000      0.0000000E+00
   1.370000      0.0000000E+00
   1.380000      0.0000000E+00
   1.390000      0.0000000E+00
   1.400000      0.0000000E+00
   1.410000      0.0000000E+00
   1.420000      0.0000000E+00
   1.430000      0.0000000E+00
   1.440000      0.0000000E+00
   1.450000      0.0000000E+00
   1.460000      0.0000000E+00
   1.470000      0.0000000E+00
   1.480000      0.0000000E+00
   1.490000      0.0000000E+00
   1.500000      0.0000000E+00
   1.510000      0.0000000E+00
   1.520000      0.0000000E+00
   1.530000      0.0000000E+00
   1.540000      0.0000000E+00
   1.550000      0.0000000E+00
   1.560000      0.0000000E+00
   1.570000      0.0000000E+00
   1.580000      0.0000000E+00
   1.590000      0.0000000E+00
   1.600000      0.0000000E+00
   1.610000      0.0000000E+00
   1.620000      0.0000000E+00
   1.630000      0.0000000E+00
   1.640000      0.0000000E+00
   1.650000      0.0000000E+00
   1.660000      0.0000000E+00
   1.670000      0.0000000E+00
   1.680000      0.0000000E+00
   1.690000      0.0000000E+00
   1.700000      0.0000000E+00
   1.710000      0.0000000E+00
   1.720000      0.0000000E+00
   1.730000      0.0000000E+00
   1.740000      0.0000000E+00
   1.750000      0.0000000E+00
   1.760000      0.0000000E+00
   1.770000      0.0000000E+00
   1.780000      0.0000000E+00
   1.790000      0.0000000E+00
   1.800000      0.0000000E+00
   1.810000      0.0000000E+00
   1.820000      0.0000000E+00
   1.830000      0.0000000E+00
   1.840000      0.0000000E+00
   1.850000      0.0000000E+00
   1.860000      0.0000000E+00
   1.870000      0.0000000E+00
   1.880000      0.0000000E+00
   1.890000      0.0000000E+00
   1.900000      0.0000000E+00
   1.910000      0.0000000E+00
   1.920000      0.0000000E+00
   1.930000      0.0000000E+00
   1.940000      0.0000000E+00
   1.950000      0.0000000E+00
   1.960000      0.0000000E+00
   1.970000      0.0000000E+00
   1.980000      0.0000000E+00
   1.990000      0.0000000E+00
   2.000000      0.0000000E+00
   2.010000      0.0000000E+00
   2.020000      0.0000000E+00
   2.030000      0.0000000E+00
   2.040000      0.0000000E+00
   2.050000      0.0000000E+00
   2.060000      0.0000000E+00
   2.070000      0.0000000E+00
   2.080000      0.0000000E+00
   2.090000      0.0000000E+00
   2.100000      0.0000000E+00
   2.110000      0.0000000E+00
   2.120000      0.0000000E+00
   2.130000      0.0000000E+00
   2.140000      0.0000000E+00
   2.150000      0.0000000E+00
   2.160000      0.0000000E+00
   2.170000      0.0000000E+00
   2.180000      0.0000000E+00
   2.190000      0.0000000E+00
   2.200000      0.0000000E+00
   2.210000      0.0000000E+00
   2.220000      0.0000000E+00
   2.230000      0.0000000E+00
   2.240000      0.0000000E+00
   2.250000      0.0000000E+00
   2.260000      0.0000000E+00
   2.270000      0.0000000E+00
   2.280000      0.0000000E+00
   2.290000      0.0000000E+00
   2.300000      0.0000000E+00
   2.310000      0.0000000E+00
   2.320000      0.0000000E+00
   2.330000      0.0000000E+00
   2.340000      0.0000000E+00
   2.350000      0.0000000E+00
   2.360000      0.0000000E+00
   2.370000      0.0000000E+00
   2.380000      0.0000000E+00
   2.390000      0.0000000E+00
   2.400000      0.0000000E+00
   2.410000      0.0000000E+00
   2.420000      0.0000000E+00
   2.430000      0.0000000E+00
   2.440000      0.0000000E+00
   2.450000      0.0000000E+00
   2.460000      0.0000000E+00
   2.470000      0.0000000E+00
   2.480000      0.0000000E+00
   2.490000      0.0000000E+00
   2.500000      0.0000000E+00
   2.510000      0.0000000E+00
   2.520000      0.0000000E+00
   2.530000     -1.2289104E-38
   2.540000     -1.4400651E-38
   2.550000     -1.5535487E-38
   2.560000     -1.5753693E-38
   2.570000     -1.6106421E-38
   2.580000     -1.7106223E-38
   2.590000     -1.8928087E-38
   2.600000     -2.1132758E-38
   2.610000     -2.3834843E-38
   2.620000     -2.2181414E-38
   2.630000     -1.5542475E-38
   2.640000      0.0000000E+00
   2.650000      0.0000000E+00
   2.660000      0.0000000E+00
   2.670000      2.0921685E-38
   2.680000      3.9326979E-38
   2.690000      5.8806213E-38
   2.700000      7.9603573E-38
   2.710000      1.0210197E-37
   2.720000      1.2667082E-37
   2.730000      1.2492717E-37
   2.740000      9.0446781E-38
   2.750000      4.8132551E-38
   2.760000      0.0000000E+00
   2.770000     -3.3151238E-38
   2.780000     -6.6580813E-38
   2.790000     -9.2752298E-38
   2.800000     -1.1039113E-37
   2.810000     -9.2999998E-38
   2.820000     -4.5425461E-38
   2.830000      0.0000000E+00
   2.840000      5.1810197E-38
   2.850000      7.0875047E-38
   2.860000      4.9319103E-38
   2.870000      1.5193123E-38
   2.880000     -3.5166493E-38
   2.890000     -1.0339901E-37
   2.900000     -1.7643838E-37
   2.910000     -2.4664958E-37
   2.920000     -3.4740857E-37
   2.930000     -4.4109391E-37
   2.940000     -4.6817969E-37
   2.950000     -4.7153460E-37
   2.960000     -4.8776774E-37
   2.970000     -5.1790776E-37
   2.980000     -5.5376217E-37
   2.990000     -5.5885832E-37
   3.000000     -5.2362152E-37
   3.010000     -4.8532818E-37
   3.020000     -4.5020182E-37
   3.030000     -4.2793660E-37
   3.040000     -4.1987001E-37
   3.050000     -4.2499553E-37
   3.060000     -4.7021115E-37
   3.070000     -5.5680112E-37
   3.080000     -6.5226475E-37
   3.090000     -7.5100060E-37
   3.100000     -8.7901699E-37
   3.110000     -1.0313932E-36
   3.120000     -1.1519672E-36
   3.130000     -1.2258069E-36
   3.140000     -1.2726792E-36
   3.150000     -1.2892373E-36
   3.160000     -1.2781806E-36
   3.170000     -1.1930734E-36
   3.180000     -1.0474791E-36
   3.190000     -9.3598316E-37
   3.200000     -8.6863259E-37
   3.210000     -8.3158602E-37
   3.220000     -8.3319808E-37
   3.230000     -8.6651642E-37
   3.240000     -9.3917597E-37
   3.250000     -1.0844011E-36
   3.260000     -1.2051852E-36
   3.270000     -1.2627506E-36
   3.280000     -1.3134148E-36
   3.290000     -1.2634831E-36
   3.300000     -9.0980493E-37
   3.310000     -2.8187594E-37
   3.320000      4.4979981E-37
   3.330000      1.1881665E-36
   3.340000      1.9150117E-36
   3.350000      2.6539395E-36
   3.360000      3.2298709E-36
   3.370000      3.2466233E-36
   3.380000      3.0638015E-36
   3.390000      2.9791803E-36
   3.400000      2.7192763E-36
   3.410000      2.3858584E-36
   3.420000      2.0307985E-36
   3.430000      1.7837223E-36
   3.440000      2.0256735E-36
   3.450000      2.4362831E-36
   3.460000      2.6682190E-36
   3.470000      3.0191231E-36
   3.480000      3.4758440E-36
   3.490000      4.0381133E-36
   3.500000      4.5316828E-36
   3.510000      4.9525394E-36
   3.520000      5.3317791E-36
   3.530000      5.2767273E-36
   3.540000      4.7861572E-36
   3.550000      4.6115546E-36
   3.560000      4.9149970E-36
   3.570000      5.3089297E-36
   3.580000      5.6142145E-36
   3.590000      5.4595144E-36
   3.600000      4.7078039E-36
   3.610000      3.4190542E-36
   3.620000      2.0325843E-36
   3.630000      3.4468119E-37
   3.640000     -1.6746025E-36
   3.650000     -3.3926368E-36
   3.660000     -4.9339560E-36
   3.670000     -6.1691262E-36
   3.680000     -6.6056232E-36
   3.690000     -6.5966987E-36
   3.700000     -6.9281990E-36
   3.710000     -7.6253918E-36
   3.720000     -7.9217385E-36
   3.730000     -7.7698541E-36
   3.740000     -8.0741747E-36
   3.750000     -9.1192253E-36
   3.760000     -1.1097253E-35
   3.770000     -1.3534207E-35
   3.780000     -1.5759172E-35
   3.790000     -1.7940721E-35
   3.800000     -2.0252651E-35
   3.810000     -2.2900734E-35
   3.820000     -2.6263887E-35
   3.830000     -2.9953677E-35
   3.840000     -3.2933268E-35
   3.850000     -3.5258284E-35
   3.860000     -3.6977201E-35
   3.870000     -3.8205191E-35
   3.880000     -3.9108605E-35
   3.890000     -3.9226120E-35
   3.900000     -3.8799696E-35
   3.910000     -3.8812335E-35
   3.920000     -3.9700893E-35
   3.930000     -4.1210453E-35
   3.940000     -4.3222548E-35
   3.950000     -4.3624409E-35
   3.960000     -4.1520974E-35
   3.970000     -3.8719160E-35
   3.980000     -3.5569722E-35
   3.990000     -3.2028502E-35
   4.000000     -2.7879632E-35
   4.010000     -2.4269344E-35
   4.020000     -2.2363319E-35
   4.030000     -1.9892957E-35
   4.040000     -1.4925947E-35
   4.050000     -7.7646374E-36
   4.060000      9.7178035E-37
   4.070000      1.1486015E-35
   4.080000      2.3391382E-35
   4.090000      3.5717608E-35
   4.100000      4.8666321E-35
   4.110000      6.2257447E-35
   4.120000      7.4406049E-35
   4.130000      8.4537915E-35
   4.140000      9.3602348E-35
   4.150000      1.0198292E-34
   4.160000      1.1011884E-34
   4.170000      1.2085411E-34
   4.180000      1.3469488E-34
   4.190000      1.4957657E-34
   4.200000      1.6780417E-34
   4.210000      1.9046034E-34
   4.220000      2.1592509E-34
   4.230000      2.4322702E-34
   4.240000      2.7189031E-34
   4.250000      3.0126885E-34
   4.260000      3.2926977E-34
   4.270000      3.5833689E-34
   4.280000      3.8733398E-34
   4.290000      4.0884864E-34
   4.300000      4.2272402E-34
   4.310000      4.2982571E-34
   4.320000      4.3193558E-34
   4.330000      4.3329287E-34
   4.340000      4.2993642E-34
   4.350000      4.2081385E-34
   4.360000      4.1756627E-34
   4.370000      4.2570032E-34
   4.380000      4.3833124E-34
   4.390000      4.5093176E-34
   4.400000      4.6241937E-34
   4.410000      4.7383718E-34
   4.420000      4.7796174E-34
   4.430000      4.6993762E-34
   4.440000      4.5327145E-34
   4.450000      4.3077740E-34
   4.460000      4.0570521E-34
   4.470000      3.7405071E-34
   4.480000      3.3262135E-34
   4.490000      2.8037372E-34
   4.500000      2.2139070E-34
   4.510000      1.5846959E-34
   4.520000      9.5391194E-35
   4.530000      2.2473183E-35
   4.540000     -6.5609838E-35
   4.550000     -1.5027257E-34
   4.560000     -2.3245343E-34
   4.570000     -3.0888229E-34
   4.580000     -3.7720365E-34
   4.590000     -4.5151831E-34
   4.600000     -5.3555927E-34
   4.610000     -6.4354775E-34
   4.620000     -7.7669448E-34
   4.630000     -9.1903271E-34
   4.640000     -1.0698341E-33
   4.650000     -1.2319458E-33
   4.660000     -1.4000459E-33
   4.670000     -1.5767328E-33
   4.680000     -1.7505592E-33
   4.690000     -1.9184564E-33
   4.700000     -2.0874954E-33
   4.710000     -2.2472317E-33
   4.720000     -2.4056209E-33
   4.730000     -2.5659341E-33
   4.740000     -2.7245669E-33
   4.750000     -2.8821097E-33
   4.760000     -3.0379972E-33
   4.770000     -3.1967642E-33
   4.780000     -3.3520665E-33
   4.790000     -3.4967493E-33
   4.800000     -3.6347079E-33
   4.810000     -3.7696546E-33
   4.820000     -3.8998142E-33
   4.830000     -4.0190082E-33
   4.840000     -4.1246697E-33
   4.850000     -4.2110946E-33
   4.860000     -4.2680404E-33
   4.870000     -4.2951656E-33
   4.880000     -4.2990940E-33
   4.890000     -4.2761961E-33
   4.900000     -4.2209056E-33
   4.910000     -4.1249537E-33
   4.920000     -3.9848355E-33
   4.930000     -3.8064017E-33
   4.940000     -3.5951294E-33
   4.950000     -3.3424245E-33
   4.960000     -3.0438168E-33
   4.970000     -2.7087016E-33
   4.980000     -2.3280317E-33
   4.990000     -1.8927494E-33
   5.000000     -1.4029324E-33
   5.010000     -8.6076446E-34
   5.020000     -2.6186116E-34
   5.030000      4.0099887E-34
   5.040000      1.1294325E-33
   5.050000      1.9261065E-33
   5.060000      2.7951654E-33
   5.070000      3.7400781E-33
   5.080000      4.7590348E-33
   5.090000      5.8540217E-33
   5.100000      7.0255624E-33
   5.110000      8.2709619E-33
   5.120000      9.5884376E-33
   5.130000      1.0974845E-32
   5.140000      1.2427198E-32
   5.150000      1.3942280E-32
   5.160000      1.5516386E-32
   5.170000      1.7145803E-32
   5.180000      1.8826994E-32
   5.190000      2.0556531E-32
   5.200000      2.2330578E-32
   5.210000      2.4143859E-32
   5.220000      2.5990921E-32
   5.230000      2.7865238E-32
   5.240000      2.9758794E-32
   5.250000      3.1662093E-32
   5.260000      3.3563931E-32
   5.270000      3.5452128E-32
   5.280000      3.7313085E-32
   5.290000      3.9131014E-32
   5.300000      4.0890414E-32
   5.310000      4.2574727E-32
   5.320000      4.4164851E-32
   5.330000      4.5641833E-32
   5.340000      4.6986120E-32
   5.350000      4.8177180E-32
   5.360000      4.9194109E-32
   5.370000      5.0015657E-32
   5.380000      5.0618127E-32
   5.390000      5.0979891E-32
   5.400000      5.1079267E-32
   5.410000      5.0890483E-32
   5.420000      5.0386978E-32
   5.430000      4.9540675E-32
   5.440000      4.8328540E-32
   5.450000      4.6714069E-32
   5.460000      4.4659946E-32
   5.470000      4.2140491E-32
   5.480000      3.9123861E-32
   5.490000      3.5578479E-32
   5.500000      3.1472689E-32
   5.510000      2.6775258E-32
   5.520000      2.1455836E-32
   5.530000      1.5484658E-32
   5.540000      8.8320996E-33
   5.550000      1.4701965E-33
   5.560000     -6.6272785E-33
   5.570000     -1.5485617E-32
   5.580000     -2.5128563E-32
   5.590000     -3.5578153E-32
   5.600000     -4.6854467E-32
   5.610000     -5.8975404E-32
   5.620000     -7.1956159E-32
   5.630000     -8.5809377E-32
   5.640000     -1.0054443E-31
   5.650000     -1.1616650E-31
   5.660000     -1.3267672E-31
   5.670000     -1.5007137E-31
   5.680000     -1.6834171E-31
   5.690000     -1.8747326E-31
   5.700000     -2.0744527E-31
   5.710000     -2.2823057E-31
   5.720000     -2.4979492E-31
   5.730000     -2.7209671E-31
   5.740000     -2.9508684E-31
   5.750000     -3.1870821E-31
   5.760000     -3.4289530E-31
   5.770000     -3.6757407E-31
   5.780000     -3.9266152E-31
   5.790000     -4.1806522E-31
   5.800000     -4.4368320E-31
   5.810000     -4.6940320E-31
   5.820000     -4.9510261E-31
   5.830000     -5.2064765E-31
   5.840000     -5.4589313E-31
   5.850000     -5.7068224E-31
   5.860000     -5.9484580E-31
   5.870000     -6.1820217E-31
   5.880000     -6.4055678E-31
   5.890000     -6.6170237E-31
   5.900000     -6.8141861E-31
   5.910000     -6.9947189E-31
   5.920000     -7.1561571E-31
   5.930000     -7.2959079E-31
   5.940000     -7.4112535E-31
   5.950000     -7.4993526E-31
   5.960000     -7.5572471E-31
   5.970000     -7.5818619E-31
   5.980000     -7.5700129E-31
   5.990000     -7.5184111E-31
   6.000000     -7.4236691E-31
   6.010000     -7.2823098E-31
   6.020000     -7.0907634E-31
   6.030000     -6.8453851E-31
   6.040000     -6.5424668E-31
   6.050000     -6.1782441E-31
   6.060000     -5.7489056E-31
   6.070000     -5.2506107E-31
   6.080000     -4.6795071E-31
   6.090000     -4.0317448E-31
   6.100000     -3.3034967E-31
   6.110000     -2.4909788E-31
   6.120000     -1.5904823E-31
   6.130000     -5.9839063E-32
   6.140000      4.8880267E-32
   6.150000      1.6744531E-31
   6.160000      2.9617419E-31
   6.170000      4.3536446E-31
   6.180000      5.8529063E-31
   6.190000      7.4620090E-31
   6.200000      9.1831349E-31
   6.210000      1.1018133E-30
   6.220000      1.2968484E-30
   6.230000      1.5035264E-30
   6.240000      1.7219106E-30
   6.250000      1.9520152E-30
   6.260000      2.1938023E-30
   6.270000      2.4471761E-30
   6.280000      2.7119787E-30
   6.290000      2.9879857E-30
   6.300000      3.2749017E-30
   6.310000      3.5723537E-30
   6.320000      3.8798878E-30
   6.330000      4.1969647E-30
   6.340000      4.5229528E-30
   6.350000      4.8571254E-30
   6.360000      5.1986537E-30
   6.370000      5.5466045E-30
   6.380000      5.8999344E-30
   6.390000      6.2574863E-30
   6.400000      6.6179835E-30
   6.410000      6.9800268E-30
   6.420000      7.3420888E-30
   6.430000      7.7025131E-30
   6.440000      8.0595067E-30
   6.450000      8.4111394E-30
   6.460000      8.7553385E-30
   6.470000      9.0898875E-30
   6.480000      9.4124236E-30
   6.490000      9.7204347E-30
   6.500000      1.0011256E-29
   6.510000      1.0282076E-29
   6.520000      1.0529928E-29
   6.530000      1.0751697E-29
   6.540000      1.0944116E-29
   6.550000      1.1103771E-29
   6.560000      1.1227102E-29
   6.570000      1.1310409E-29
   6.580000      1.1349856E-29
   6.590000      1.1341473E-29
   6.600000      1.1281168E-29
   6.610000      1.1164731E-29
   6.620000      1.0987844E-29
   6.630000      1.0746087E-29
   6.640000      1.0434952E-29
   6.650000      1.0049853E-29
   6.660000      9.5861425E-30
   6.670000      9.0391250E-30
   6.680000      8.4040677E-30
   6.690000      7.6762264E-30
   6.700000      6.8508601E-30
   6.710000      5.9232513E-30
   6.720000      4.8887328E-30
   6.730000      3.7427037E-30
   6.740000      2.4806647E-30
   6.750000      1.0982430E-30
   6.760000     -4.0878202E-31
   6.770000     -2.0444459E-30
   6.780000     -3.8125675E-30
   6.790000     -5.7167138E-30
   6.800000     -7.7601661E-30
   6.810000     -9.9458822E-30
   6.820000     -1.2276456E-29
   6.830000     -1.4754083E-29
   6.840000     -1.7380514E-29
   6.850000     -2.0157016E-29
   6.860000     -2.3084324E-29
   6.870000     -2.6162591E-29
   6.880000     -2.9391343E-29
   6.890000     -3.2769439E-29
   6.900000     -3.6295007E-29
   6.910000     -3.9965394E-29
   6.920000     -4.3777128E-29
   6.930000     -4.7725844E-29
   6.940000     -5.1806258E-29
   6.950000     -5.6012085E-29
   6.960000     -6.0336021E-29
   6.970000     -6.4769638E-29
   6.980000     -6.9303397E-29
   6.990000     -7.3926538E-29
   7.000000     -7.8627077E-29
   7.010000     -8.3391695E-29
   7.020000     -8.8205768E-29
   7.030000     -9.3053255E-29
   7.040000     -9.7916668E-29
   7.050000     -1.0277703E-28
   7.060000     -1.0761385E-28