  -2.600000      0.0000000E+00
  -2.590000      0.0000000E+00
  -2.580000      0.0000000E+00
  -2.570000      0.0000000E+00
  -2.560000      0.0000000E+00
  -2.550000      0.0000000E+00
  -2.540000      0.0000000E+00
  -2.530000      0.0000000E+00
  -2.520000      0.0000000E+00
  -2.510000      0.0000000E+00
  -2.500000      0.0000000E+00
  -2.490000      0.0000000E+00
  -2.480000      0.0000000E+00
  -2.470000      0.0000000E+00
  -2.460000      0.0000000E+00
  -2.450000      0.0000000E+00
  -2.440000      0.0000000E+00
  -2.430000      0.0000000E+00
  -2.420000      0.0000000E+00
  -2.410000      0.0000000E+00
  -2.400000      0.0000000E+00
  -2.390000      0.0000000E+00
  -2.380000      0.0000000E+00
  -2.370000      0.0000000E+00
  -2.360000      0.0000000E+00
  -2.350000      0.0000000E+00
  -2.340000      0.0000000E+00
  -2.330000      0.0000000E+00
  -2.320000      0.0000000E+00
  -2.310000      0.0000000E+00
  -2.300000      0.0000000E+00
  -2.290000      0.0000000E+00
  -2.280000      0.0000000E+00
  -2.270000      0.0000000E+00
  -2.260000      0.0000000E+00
  -2.250000      0.0000000E+00
  -2.240000      0.0000000E+00
  -2.230000      0.0000000E+00
  -2.220000      0.0000000E+00
  -2.210000      0.0000000E+00
  -2.200000      0.0000000E+00
  -2.190000      0.0000000E+00
  -2.180000      0.0000000E+00
  -2.170000      0.0000000E+00
  -2.160000      0.0000000E+00
  -2.150000      0.0000000E+00
  -2.140000      0.0000000E+00
  -2.130000      0.0000000E+00
  -2.120000      0.0000000E+00
  -2.110000      0.0000000E+00
  -2.100000      0.0000000E+00
  -2.090000      0.0000000E+00
  -2.080000      0.0000000E+00
  -2.070000      0.0000000E+00
  -2.060000      0.0000000E+00
  -2.050000      0.0000000E+00
  -2.040000      0.0000000E+00
  -2.030000      0.0000000E+00
  -2.020000      0.0000000E+00
  -2.010000      0.0000000E+00
  -2.000000      0.0000000E+00
  -1.990000      0.0000000E+00
  -1.980000      0.0000000E+00
  -1.970000      0.0000000E+00
  -1.960000      0.0000000E+00
  -1.950000      0.0000000E+00
  -1.940000      0.0000000E+00
  -1.930000      0.0000000E+00
  -1.920000      0.0000000E+00
  -1.910000      0.0000000E+00
  -1.900000      0.0000000E+00
  -1.890000      0.0000000E+00
  -1.880000      0.0000000E+00
  -1.870000      0.0000000E+00
  -1.860000      0.0000000E+00
  -1.850000      0.0000000E+00
  -1.840000      0.0000000E+00
  -1.830000      0.0000000E+00
  -1.820000      0.0000000E+00
  -1.810000      0.0000000E+00
  -1.800000      0.0000000E+00
  -1.790000      0.0000000E+00
  -1.780000      0.0000000E+00
  -1.770000      0.0000000E+00
  -1.760000      0.0000000E+00
  -1.750000      0.0000000E+00
  -1.740000      0.0000000E+00
  -1.730000      0.0000000E+00
  -1.720000      0.0000000E+00
  -1.710000      0.0000000E+00
  -1.700000      0.0000000E+00
  -1.690000      0.0000000E+00
  -1.680000      0.0000000E+00
  -1.670000      0.0000000E+00
  -1.660000      0.0000000E+00
  -1.650000      0.0000000E+00
  -1.640000      0.0000000E+00
  -1.630000      0.0000000E+00
  -1.620000      0.0000000E+00
  -1.610000      0.0000000E+00
  -1.600000      0.0000000E+00
  -1.590000      0.0000000E+00
  -1.580000      0.0000000E+00
  -1.570000      0.0000000E+00
  -1.560000      0.0000000E+00
  -1.550000      0.0000000E+00
  -1.540000      0.0000000E+00
  -1.530000      0.0000000E+00
  -1.520000      0.0000000E+00
  -1.510000      0.0000000E+00
  -1.500000      0.0000000E+00
  -1.490000      0.0000000E+00
  -1.480000      0.0000000E+00
  -1.470000      0.0000000E+00
  -1.460000      0.0000000E+00
  -1.450000      0.0000000E+00
  -1.440000      0.0000000E+00
  -1.430000      0.0000000E+00
  -1.420000      0.0000000E+00
  -1.410000      0.0000000E+00
  -1.400000      0.0000000E+00
  -1.390000      0.0000000E+00
  -1.380000      0.0000000E+00
  -1.370000      0.0000000E+00
  -1.360000      0.0000000E+00
  -1.350000      0.0000000E+00
  -1.340000      0.0000000E+00
  -1.330000      0.0000000E+00
  -1.320000      0.0000000E+00
  -1.310000      0.0000000E+00
  -1.300000      0.0000000E+00
  -1.290000      0.0000000E+00
  -1.280000      0.0000000E+00
  -1.270000      0.0000000E+00
  -1.260000      0.0000000E+00
  -1.250000      0.0000000E+00
  -1.240000      0.0000000E+00
  -1.230000      0.0000000E+00
  -1.220000      0.0000000E+00
  -1.210000      0.0000000E+00
  -1.200000      0.0000000E+00
  -1.190000      0.0000000E+00
  -1.180000      0.0000000E+00
  -1.170000      0.0000000E+00
  -1.160000      0.0000000E+00
  -1.150000      0.0000000E+00
  -1.140000      0.0000000E+00
  -1.130000      0.0000000E+00
  -1.120000      0.0000000E+00
  -1.110000      0.0000000E+00
  -1.100000      0.0000000E+00
  -1.090000      0.0000000E+00
  -1.080000      0.0000000E+00
  -1.070000      0.0000000E+00
  -1.060000      0.0000000E+00
  -1.050000      0.0000000E+00
  -1.040000      0.0000000E+00
  -1.030000      0.0000000E+00
  -1.020000      0.0000000E+00
  -1.010000      0.0000000E+00
  -1.000000      0.0000000E+00
 -0.9900000      0.0000000E+00
 -0.9800000      0.0000000E+00
 -0.9700000      0.0000000E+00
 -0.9600000      0.0000000E+00
 -0.9500000      0.0000000E+00
 -0.9400000      0.0000000E+00
 -0.9300000      0.0000000E+00
 -0.9200000      0.0000000E+00
 -0.9100000      0.0000000E+00
 -0.9000000      0.0000000E+00
 -0.8900000      0.0000000E+00
 -0.8800000      0.0000000E+00
 -0.8700000      0.0000000E+00
 -0.8600000      0.0000000E+00
 -0.8500000      0.0000000E+00
 -0.8400000      0.0000000E+00
 -0.8300000      0.0000000E+00
 -0.8200000      0.0000000E+00
 -0.8100000      0.0000000E+00
 -0.8000000      0.0000000E+00
 -0.7900000      0.0000000E+00
 -0.7800000      0.0000000E+00
 -0.7700000      0.0000000E+00
 -0.7600000      0.0000000E+00
 -0.7500000      0.0000000E+00
 -0.7400000      0.0000000E+00
 -0.7300000      0.0000000E+00
 -0.7200000      0.0000000E+00
 -0.7100000      0.0000000E+00
 -0.7000000      0.0000000E+00
 -0.6900000      0.0000000E+00
 -0.6800000      0.0000000E+00
 -0.6700000      0.0000000E+00
 -0.6600000      0.0000000E+00
 -0.6500000      0.0000000E+00
 -0.6400000      0.0000000E+00
 -0.6300000      0.0000000E+00
 -0.6200000      0.0000000E+00
 -0.6100000      0.0000000E+00
 -0.6000000      0.0000000E+00
 -0.5900000      0.0000000E+00
 -0.5800000      0.0000000E+00
 -0.5700000      0.0000000E+00
 -0.5600000      0.0000000E+00
 -0.5500000      0.0000000E+00
 -0.5400000      0.0000000E+00
 -0.5300000      0.0000000E+00
 -0.5200000      0.0000000E+00
 -0.5100000      0.0000000E+00
 -0.5000000      0.0000000E+00
 -0.4900000      0.0000000E+00
 -0.4800000      0.0000000E+00
 -0.4700000      0.0000000E+00
 -0.4600000      0.0000000E+00
 -0.4500000      0.0000000E+00
 -0.4400000      0.0000000E+00
 -0.4300000      0.0000000E+00
 -0.4200000      0.0000000E+00
 -0.4100000      0.0000000E+00
 -0.4000000      0.0000000E+00
 -0.3900000      0.0000000E+00
 -0.3800000      0.0000000E+00
 -0.3700000      0.0000000E+00
 -0.3600000      0.0000000E+00
 -0.3500000      0.0000000E+00
 -0.3400000      0.0000000E+00
 -0.3300000      0.0000000E+00
 -0.3200000      0.0000000E+00
 -0.3100000      0.0000000E+00
 -0.3000000      0.0000000E+00
 -0.2900000      0.0000000E+00
 -0.2800000      0.0000000E+00
 -0.2700000      0.0000000E+00
 -0.2600000      0.0000000E+00
 -0.2500000      0.0000000E+00
 -0.2400000      0.0000000E+00
 -0.2300000      0.0000000E+00
 -0.2200000      0.0000000E+00
 -0.2100000      0.0000000E+00
 -0.2000000      0.0000000E+00
 -0.1900000      0.0000000E+00
 -0.1800000      0.0000000E+00
 -0.1700000      0.0000000E+00
 -0.1600000      0.0000000E+00
 -0.1500000      0.0000000E+00
 -0.1400000      0.0000000E+00
 -0.1300000      0.0000000E+00
 -0.1200000      0.0000000E+00
 -0.1100000      0.0000000E+00
 -0.1000000      0.0000000E+00
 -9.0000004E-02  0.0000000E+00
 -7.9999998E-02  0.0000000E+00
 -7.0000000E-02  0.0000000E+00
 -5.9999999E-02  0.0000000E+00
 -5.0000001E-02  0.0000000E+00
 -3.9999999E-02  0.0000000E+00
 -2.9999999E-02  0.0000000E+00
 -2.0000000E-02  0.0000000E+00
 -9.9999998E-03  0.0000000E+00
 -3.4694470E-17  0.0000000E+00
  9.9999998E-03  0.0000000E+00
  2.0000000E-02  0.0000000E+00
  2.9999999E-02  0.0000000E+00
  3.9999999E-02  0.0000000E+00
  5.0000001E-02  0.0000000E+00
  5.9999999E-02  0.0000000E+00
  7.0000000E-02  0.0000000E+00
  7.9999998E-02  0.0000000E+00
  9.0000004E-02  0.0000000E+00
  0.1000000      0.0000000E+00
  0.1100000      0.0000000E+00
  0.1200000      0.0000000E+00
  0.1300000      0.0000000E+00
  0.1400000      0.0000000E+00
  0.1500000      0.0000000E+00
  0.1600000      0.0000000E+00
  0.1700000      0.0000000E+00
  0.1800000      0.0000000E+00
  0.1900000      0.0000000E+00
  0.2000000      0.0000000E+00
  0.2100000      0.0000000E+00
  0.2200000      0.0000000E+00
  0.2300000      0.0000000E+00
  0.2400000      0.0000000E+00
  0.2500000      0.0000000E+00
  0.2600000      0.0000000E+00
  0.2700000      0.0000000E+00
  0.2800000      0.0000000E+00
  0.2900000      0.0000000E+00
  0.3000000      0.0000000E+00
  0.3100000      0.0000000E+00
  0.3200000      0.0000000E+00
  0.3300000      0.0000000E+00
  0.3400000      0.0000000E+00
  0.3500000      0.0000000E+00
  0.3600000      0.0000000E+00
  0.3700000      0.0000000E+00
  0.3800000      0.0000000E+00
  0.3900000      0.0000000E+00
  0.4000000      0.0000000E+00
  0.4100000      0.0000000E+00
  0.4200000      0.0000000E+00
  0.4300000      0.0000000E+00
  0.4400000      0.0000000E+00
  0.4500000      0.0000000E+00
  0.4600000      0.0000000E+00
  0.4700000      0.0000000E+00
  0.4800000      0.0000000E+00
  0.4900000      0.0000000E+00
  0.5000000      0.0000000E+00
  0.5100000      0.0000000E+00
  0.5200000      0.0000000E+00
  0.5300000      0.0000000E+00
  0.5400000      0.0000000E+00
  0.5500000      0.0000000E+00
  0.5600000      0.0000000E+00
  0.5700000      0.0000000E+00
  0.5800000      0.0000000E+00
  0.5900000      0.0000000E+00
  0.6000000      0.0000000E+00
  0.6100000      0.0000000E+00
  0.6200000      0.0000000E+00
  0.6300000      0.0000000E+00
  0.6400000      0.0000000E+00
  0.6500000      0.0000000E+00
  0.6600000      0.0000000E+00
  0.6700000      0.0000000E+00
  0.6800000      0.0000000E+00
  0.6900000      0.0000000E+00
  0.7000000      0.0000000E+00
  0.7100000      0.0000000E+00
  0.7200000      0.0000000E+00
  0.7300000      0.0000000E+00
  0.7400000      0.0000000E+00
  0.7500000      0.0000000E+00
  0.7600000      0.0000000E+00
  0.7700000      0.0000000E+00
  0.7800000      0.0000000E+00
  0.7900000      0.0000000E+00
  0.8000000      0.0000000E+00
  0.8100000      0.0000000E+00
  0.8200000      0.0000000E+00
  0.8300000      0.0000000E+00
  0.8400000      0.0000000E+00
  0.8500000      0.0000000E+00
  0.8600000      0.0000000E+00
  0.8700000      0.0000000E+00
  0.8800000      0.0000000E+00
  0.8900000      0.0000000E+00
  0.9000000      0.0000000E+00
  0.9100000      0.0000000E+00
  0.9200000      0.0000000E+00
  0.9300000      0.0000000E+00
  0.9400000      0.0000000E+00
  0.9500000      0.0000000E+00
  0.9600000      0.0000000E+00
  0.9700000      0.0000000E+00
  0.9800000      0.0000000E+00
  0.9900000      0.0000000E+00
   1.000000      0.0000000E+00
   1.010000      0.0000000E+00
   1.020000      0.0000000E+00
   1.030000      0.0000000E+00
   1.040000      0.0000000E+00
   1.050000      0.0000000E+00
   1.060000      0.0000000E+00
   1.070000      0.0000000E+00
   1.080000      0.0000000E+00
   1.090000      0.0000000E+00
   1.100000      0.0000000E+00
   1.110000      0.0000000E+00
   1.120000      0.0000000E+00
   1.130000      0.0000000E+00
   1.140000      0.0000000E+00
   1.150000      0.0000000E+00
   1.160000      0.0000000E+00
   1.170000      0.0000000E+00
   1.180000      0.0000000E+00
   1.190000      0.0000000E+00
   1.200000      0.0000000E+00
   1.210000      0.0000000E+00
   1.220000      0.0000000E+00
   1.230000      0.0000000E+00
   1.240000      0.0000000E+00
   1.250000      0.0000000E+00
   1.260000      0.0000000E+00
   1.270000      0.0000000E+00
   1.280000      0.0000000E+00
   1.290000      0.0000000E+00
   1.300000      0.0000000E+00
   1.310000      0.0000000E+00
   1.320000      0.0000000E+00
   1.330000      0.0000000E+00
   1.340000      0.0000000E+00
   1.350000      0.0000000E+00
   1.360000      0.0000000E+00
   1.370000      0.0000000E+00
   1.380000      0.0000000E+00
   1.390000      0.0000000E+00
   1.400000      0.0000000E+00
   1.410000      0.0000000E+00
   1.420000      0.0000000E+00
   1.430000      0.0000000E+00
   1.440000      0.0000000E+00
   1.450000      0.0000000E+00
   1.460000      0.0000000E+00
   1.470000      0.0000000E+00
   1.480000      0.0000000E+00
   1.490000      0.0000000E+00
   1.500000      0.0000000E+00
   1.510000      0.0000000E+00
   1.520000      0.0000000E+00
   1.530000      0.0000000E+00
   1.540000      0.0000000E+00
   1.550000      0.0000000E+00
   1.560000      0.0000000E+00
   1.570000      0.0000000E+00
   1.580000      0.0000000E+00
   1.590000      0.0000000E+00
   1.600000      0.0000000E+00
   1.610000      0.0000000E+00
   1.620000      0.0000000E+00
   1.630000      0.0000000E+00
   1.640000      0.0000000E+00
   1.650000      0.0000000E+00
   1.660000      0.0000000E+00
   1.670000      0.0000000E+00
   1.680000      0.0000000E+00
   1.690000      0.0000000E+00
   1.700000      0.0000000E+00
   1.710000      0.0000000E+00
   1.720000      0.0000000E+00
   1.730000      0.0000000E+00
   1.740000      0.0000000E+00
   1.750000      0.0000000E+00
   1.760000      0.0000000E+00
   1.770000      0.0000000E+00
   1.780000      0.0000000E+00
   1.790000      0.0000000E+00
   1.800000      0.0000000E+00
   1.810000      0.0000000E+00
   1.820000      0.0000000E+00
   1.830000      0.0000000E+00
   1.840000      0.0000000E+00
   1.850000      0.0000000E+00
   1.860000      0.0000000E+00
   1.870000      0.0000000E+00
   1.880000      0.0000000E+00
   1.890000      0.0000000E+00
   1.900000      0.0000000E+00
   1.910000      0.0000000E+00
   1.920000      0.0000000E+00
   1.930000      0.0000000E+00
   1.940000      0.0000000E+00
   1.950000      0.0000000E+00
   1.960000      0.0000000E+00
   1.970000      0.0000000E+00
   1.980000      0.0000000E+00
   1.990000      0.0000000E+00
   2.000000      0.0000000E+00
   2.010000      0.0000000E+00
   2.020000      0.0000000E+00
   2.030000      0.0000000E+00
   2.040000      0.0000000E+00
   2.050000      0.0000000E+00
   2.060000      0.0000000E+00
   2.070000      0.0000000E+00
   2.080000      0.0000000E+00
   2.090000      0.0000000E+00
   2.100000      0.0000000E+00
   2.110000      0.0000000E+00
   2.120000      0.0000000E+00
   2.130000      0.0000000E+00
   2.140000      0.0000000E+00
   2.150000      0.0000000E+00
   2.160000      0.0000000E+00
   2.170000      0.0000000E+00
   2.180000      0.0000000E+00
   2.190000      0.0000000E+00
   2.200000      0.0000000E+00
   2.210000      0.0000000E+00
   2.220000      1.3482756E-38
   2.230000      1.9361557E-38
   2.240000      2.4712072E-38
   2.250000      2.9951807E-38
   2.260000      3.5275102E-38
   2.270000      4.0669899E-38
   2.280000      4.6338084E-38
   2.290000      5.2456930E-38
   2.300000      5.8244522E-38
   2.310000      6.3696336E-38
   2.320000      6.9141725E-38
   2.330000      7.4515161E-38
   2.340000      8.0467311E-38
   2.350000      8.5990860E-38
   2.360000      8.9041952E-38
   2.370000      9.0171056E-38
   2.380000      9.0441372E-38
   2.390000      8.8544597E-38
   2.400000      8.4050588E-38
   2.410000      7.7329574E-38
   2.420000      6.7473328E-38
   2.430000      5.4341374E-38
   2.440000      3.7827878E-38
   2.450000      1.7426039E-38
   2.460000      0.0000000E+00
   2.470000     -3.8299412E-38
   2.480000     -6.7011522E-38
   2.490000     -9.3715977E-38
   2.500000     -1.2322085E-37
   2.510000     -1.5548506E-37
   2.520000     -1.9263520E-37
   2.530000     -2.3943581E-37
   2.540000     -2.9293844E-37
   2.550000     -3.4898724E-37
   2.560000     -4.0882042E-37
   2.570000     -4.7516394E-37
   2.580000     -5.4828289E-37
   2.590000     -6.2543901E-37
   2.600000     -7.0435301E-37
   2.610000     -7.8180796E-37
   2.620000     -8.6266830E-37
   2.630000     -9.3963344E-37
   2.640000     -1.0046878E-36
   2.650000     -1.0589934E-36
   2.660000     -1.0984486E-36
   2.670000     -1.1269276E-36
   2.680000     -1.1511970E-36
   2.690000     -1.1793837E-36
   2.700000     -1.2115698E-36
   2.710000     -1.2289331E-36
   2.720000     -1.2327298E-36
   2.730000     -1.2271061E-36
   2.740000     -1.2042443E-36
   2.750000     -1.1574083E-36
   2.760000     -9.9060313E-37
   2.770000     -5.8568182E-37
   2.780000      1.1475926E-37
   2.790000      1.0213829E-36
   2.800000      2.0297539E-36
   2.810000      3.0955088E-36
   2.820000      4.0833961E-36
   2.830000      4.8764785E-36
   2.840000      5.5398221E-36
   2.850000      6.1948387E-36
   2.860000      6.7446621E-36
   2.870000      7.1308304E-36
   2.880000      7.4109559E-36
   2.890000      7.5962254E-36
   2.900000      7.6740539E-36
   2.910000      7.5451764E-36
   2.920000      7.2685133E-36
   2.930000      6.8663420E-36
   2.940000      6.3427319E-36
   2.950000      5.8810677E-36
   2.960000      5.5165719E-36
   2.970000      5.1662116E-36
   2.980000      4.8541807E-36
   2.990000      4.6920079E-36
   3.000000      4.7266858E-36
   3.010000      4.8271434E-36
   3.020000      4.8464217E-36
   3.030000      4.7406760E-36
   3.040000      4.4501770E-36
   3.050000      4.0775186E-36
   3.060000      3.7069150E-36
   3.070000      3.2484547E-36
   3.080000      2.6795926E-36
   3.090000      1.9638639E-36
   3.100000      1.0607494E-36
   3.110000      3.2742549E-38
   3.120000     -1.1516439E-36
   3.130000     -2.5770793E-36
   3.140000     -4.2704729E-36
   3.150000     -6.1735544E-36
   3.160000     -8.3268026E-36
   3.170000     -1.0789524E-35
   3.180000     -1.3602292E-35
   3.190000     -1.6780564E-35
   3.200000     -2.0312400E-35
   3.210000     -2.4161170E-35
   3.220000     -2.8086988E-35
   3.230000     -3.2038271E-35
   3.240000     -3.6155721E-35
   3.250000     -4.0255524E-35
   3.260000     -4.4143458E-35
   3.270000     -4.7974794E-35
   3.280000     -5.1794342E-35
   3.290000     -5.5327391E-35
   3.300000     -5.8530102E-35
   3.310000     -6.1500739E-35
   3.320000     -6.4137853E-35
   3.330000     -6.6288922E-35
   3.340000     -6.7853437E-35
   3.350000     -6.8934077E-35
   3.360000     -6.9509495E-35
   3.370000     -6.9570158E-35
   3.380000     -6.9052539E-35
   3.390000     -6.7435017E-35
   3.400000     -6.4540489E-35
   3.410000     -6.0222493E-35
   3.420000     -5.4511364E-35
   3.430000     -4.7913259E-35
   3.440000     -4.0274666E-35
   3.450000     -3.1459810E-35
   3.460000     -2.1760602E-35
   3.470000     -1.1565652E-35
   3.480000      2.3927014E-38
   3.490000      1.2741343E-35
   3.500000      2.5938273E-35
   3.510000      4.0399141E-35
   3.520000      5.5885303E-35
   3.530000      7.2091002E-35
   3.540000      9.0754409E-35
   3.550000      1.1097033E-34
   3.560000      1.3078300E-34
   3.570000      1.5121932E-34
   3.580000      1.7295660E-34
   3.590000      1.9528899E-34
   3.600000      2.1762492E-34
   3.610000      2.4083850E-34
   3.620000      2.6390737E-34
   3.630000      2.8408567E-34
   3.640000      3.0234899E-34
   3.650000      3.2085497E-34
   3.660000      3.3816700E-34
   3.670000      3.5145800E-34
   3.680000      3.6036226E-34
   3.690000      3.6697979E-34
   3.700000      3.7233588E-34
   3.710000      3.7744263E-34
   3.720000      3.8237849E-34
   3.730000      3.8641635E-34
   3.740000      3.9077850E-34
   3.750000      3.9320961E-34
   3.760000      3.9143296E-34
   3.770000      3.8897218E-34
   3.780000      3.8076843E-34
   3.790000      3.6235963E-34
   3.800000      3.3673537E-34
   3.810000      3.0889092E-34
   3.820000      2.7912740E-34
   3.830000      2.4161685E-34
   3.840000      1.9619572E-34
   3.850000      1.4362857E-34
   3.860000      8.4042898E-35
   3.870000      2.1144852E-35
   3.880000     -4.4180424E-35
   3.890000     -1.1405045E-34
   3.900000     -1.8747404E-34
   3.910000     -2.6434574E-34
   3.920000     -3.4534745E-34
   3.930000     -4.3083576E-34
   3.940000     -5.2172554E-34
   3.950000     -6.1504101E-34
   3.960000     -7.1023580E-34
   3.970000     -8.1043108E-34
   3.980000     -9.1873672E-34
   3.990000     -1.0352905E-33
   4.000000     -1.1528486E-33
   4.010000     -1.2696406E-33
   4.020000     -1.3873596E-33
   4.030000     -1.5057154E-33
   4.040000     -1.6229544E-33
   4.050000     -1.7395450E-33
   4.060000     -1.8559377E-33
   4.070000     -1.9707297E-33
   4.080000     -2.0831005E-33
   4.090000     -2.1910486E-33
   4.100000     -2.2950480E-33
   4.110000     -2.3924364E-33
   4.120000     -2.4778850E-33
   4.130000     -2.5536344E-33
   4.140000     -2.6201356E-33
   4.150000     -2.6727064E-33
   4.160000     -2.7090176E-33
   4.170000     -2.7288387E-33
   4.180000     -2.7309011E-33
   4.190000     -2.7131710E-33
   4.200000     -2.6760867E-33
   4.210000     -2.6176437E-33
   4.220000     -2.5334326E-33
   4.230000     -2.4227772E-33
   4.240000     -2.2895407E-33
   4.250000     -2.1307183E-33
   4.260000     -1.9407366E-33
   4.270000     -1.7212420E-33
   4.280000     -1.4728639E-33
   4.290000     -1.1939242E-33
   4.300000     -8.8377467E-34
   4.310000     -5.4191612E-34
   4.320000     -1.6797597E-34
   4.330000      2.3826896E-34
   4.340000      6.7691921E-34
   4.350000      1.1478494E-33
   4.360000      1.6507157E-33
   4.370000      2.1849863E-33
   4.380000      2.7499833E-33
   4.390000      3.3447476E-33
   4.400000      3.9711696E-33
   4.410000      4.6248187E-33
   4.420000      5.3008852E-33
   4.430000      6.0004556E-33
   4.440000      6.7213195E-33
   4.450000      7.4609361E-33
   4.460000      8.2164557E-33
   4.470000      8.9851460E-33
   4.480000      9.7625834E-33
   4.490000      1.0543679E-32
   4.500000      1.1326956E-32
   4.510000      1.2107845E-32
   4.520000      1.2879298E-32
   4.530000      1.3636584E-32
   4.540000      1.4374026E-32
   4.550000      1.5085336E-32
   4.560000      1.5763919E-32
   4.570000      1.6402954E-32
   4.580000      1.6995269E-32
   4.590000      1.7533412E-32
   4.600000      1.8011950E-32
   4.610000      1.8420251E-32
   4.620000      1.8748258E-32
   4.630000      1.8990423E-32
   4.640000      1.9138009E-32
   4.650000      1.9182634E-32
   4.660000      1.9115863E-32
   4.670000      1.8929083E-32
   4.680000      1.8613906E-32
   4.690000      1.8162015E-32
   4.700000      1.7564945E-32
   4.710000      1.6814775E-32
   4.720000      1.5903237E-32
   4.730000      1.4823038E-32
   4.740000      1.3567584E-32
   4.750000      1.2129430E-32
   4.760000      1.0502074E-32
   4.770000      8.6797746E-33
   4.780000      6.6572947E-33
   4.790000      4.4300826E-33
   4.800000      1.9943533E-33
   4.810000     -6.5287466E-34
   4.820000     -3.5137804E-33
   4.830000     -6.5893173E-33
   4.840000     -9.8794019E-33
   4.850000     -1.3383090E-32
   4.860000     -1.7098091E-32
   4.870000     -2.1023333E-32
   4.880000     -2.5151177E-32
   4.890000     -2.9472526E-32
   4.900000     -3.3981937E-32
   4.910000     -3.8669759E-32
   4.920000     -4.3524627E-32
   4.930000     -4.8533396E-32
   4.940000     -5.3681060E-32
   4.950000     -5.8950689E-32
   4.960000     -6.4323280E-32
   4.970000     -6.9778009E-32
   4.980000     -7.5291971E-32
   4.990000     -8.0840016E-32
   5.000000     -8.6394967E-32
   5.010000     -9.1927520E-32
   5.020000     -9.7406270E-32
   5.030000     -1.0279770E-31
   5.040000     -1.0806619E-31
   5.050000     -1.1317410E-31
   5.060000     -1.1808171E-31
   5.070000     -1.2274729E-31
   5.080000     -1.2712722E-31
   5.090000     -1.3117601E-31
   5.100000     -1.3484639E-31
   5.110000     -1.3808940E-31
   5.120000     -1.4085449E-31
   5.130000     -1.4308971E-31
   5.140000     -1.4474178E-31
   5.150000     -1.4575632E-31
   5.160000     -1.4607795E-31
   5.170000     -1.4565063E-31
   5.180000     -1.4441767E-31
   5.190000     -1.4232218E-31
   5.200000     -1.3930717E-31
   5.210000     -1.3531581E-31
   5.220000     -1.3029181E-31
   5.230000     -1.2417962E-31
   5.240000     -1.1692481E-31
   5.250000     -1.0847432E-31
   5.260000     -9.8776861E-32
   5.270000     -8.7783273E-32
   5.280000     -7.5446936E-32
   5.290000     -6.1724092E-32
   5.300000     -4.6574335E-32
   5.310000     -2.9961038E-32
   5.320000     -1.1851795E-32
   5.330000      7.7810989E-33
   5.340000      2.8960190E-32
   5.350000      5.1702315E-32
   5.360000      7.6018156E-32
   5.370000      1.0191174E-31
   5.380000      1.2937983E-31
   5.390000      1.5841153E-31
   5.400000      1.8898767E-31
   5.410000      2.2108035E-31
   5.420000      2.5465240E-31
   5.430000      2.8965683E-31
   5.440000      3.2603641E-31
   5.450000      3.6372311E-31
   5.460000      4.0263766E-31
   5.470000      4.4268901E-31
   5.480000      4.8377390E-31
   5.490000      5.2577643E-31
   5.500000      5.6856767E-31
   5.510000      6.1200519E-31
   5.520000      6.5593271E-31
   5.530000      7.0017973E-31
   5.540000      7.4456137E-31
   5.550000      7.8887793E-31
   5.560000      8.3291495E-31
   5.570000      8.7644257E-31
   5.580000      9.1921608E-31
   5.590000      9.6097510E-31
   5.600000      1.0014442E-30
   5.610000      1.0403326E-30
   5.620000      1.0773346E-30
   5.630000      1.1121295E-30
   5.640000      1.1443819E-30
   5.650000      1.1737422E-30
   5.660000      1.1998470E-30
   5.670000      1.2223197E-30
   5.680000      1.2407708E-30
   5.690000      1.2547990E-30
   5.700000      1.2639921E-30
   5.710000      1.2679272E-30
   5.720000      1.2661730E-30
   5.730000      1.2582902E-30
   5.740000      1.2438330E-30
   5.750000      1.2223502E-30
   5.760000      1.1933875E-30
   5.770000      1.1564887E-30
   5.780000      1.1111977E-30
   5.790000      1.0570608E-30
   5.800000      9.9362807E-31
   5.810000      9.2045665E-31
   5.820000      8.3711232E-31
   5.830000      7.4317250E-31
   5.840000      6.3822902E-31
   5.850000      5.2189062E-31
   5.860000      3.9378616E-31
   5.870000      2.5356777E-31
   5.880000      1.0091399E-31
   5.890000     -6.4466937E-32
   5.900000     -2.4283318E-31
   5.910000     -4.3440577E-31
   5.920000     -6.3936497E-31
   5.930000     -8.5784644E-31
   5.940000     -1.0899372E-30
   5.950000     -1.3356710E-30
   5.960000     -1.5950249E-30
   5.970000     -1.8679143E-30
   5.980000     -2.1541893E-30
   5.990000     -2.4536300E-30
   6.000000     -2.7659416E-30
   6.010000     -3.0907506E-30
   6.020000     -3.4275997E-30
   6.030000     -3.7759440E-30
   6.040000     -4.1351458E-30
   6.050000     -4.5044710E-30
   6.060000     -4.8830840E-30
   6.070000     -5.2700440E-30
   6.080000     -5.6643003E-30
   6.090000     -6.0646891E-30
   6.100000     -6.4699292E-30
   6.110000     -6.8786190E-30
   6.120000     -7.2892326E-30
   6.130000     -7.7001177E-30
   6.140000     -8.1094906E-30
   6.150000     -8.5154383E-30
   6.160000     -8.9159106E-30
   6.170000     -9.3087236E-30
   6.180000     -9.6915571E-30
   6.190000     -1.0061954E-29
   6.200000     -1.0417318E-29
   6.210000     -1.0754920E-29
   6.220000     -1.1071894E-29
   6.230000     -1.1365240E-29
   6.240000     -1.1631827E-29
   6.250000     -1.1868397E-29
   6.260000     -1.2071570E-29
   6.270000     -1.2237846E-29
   6.280000     -1.2363612E-29
   6.290000     -1.2445150E-29
   6.300000     -1.2478644E-29
   6.310000     -1.2460186E-29
   6.320000     -1.2385790E-29
   6.330000     -1.2251401E-29
   6.340000     -1.2052905E-29
   6.350000     -1.1786144E-29
   6.360000     -1.1446931E-29
   6.370000     -1.1031061E-29
   6.380000     -1.0534333E-29
   6.390000     -9.9525657E-30
   6.400000     -9.2816161E-30
   6.410000     -8.5174011E-30
   6.420000     -7.6559176E-30
   6.430000     -6.6932663E-30
   6.440000     -5.6256801E-30
   6.450000     -4.4495422E-30
   6.460000     -3.1614196E-30
   6.470000     -1.7580885E-30
   6.480000     -2.3656584E-31
   6.490000      1.4058608E-30
   6.500000      3.1716019E-30
   6.510000      5.0627315E-30
   6.520000      7.0809523E-30
   6.530000      9.2275645E-30
   6.540000      1.1503427E-29
   6.550000      1.3908913E-29
   6.560000      1.6443886E-29
   6.570000      1.9107654E-29
   6.580000      2.1898928E-29
   6.590000      2.4815788E-29
   6.600000      2.7855640E-29
   6.610000      3.1015176E-29
   6.620000      3.4290337E-29
   6.630000      3.7676269E-29
   6.640000      4.1167288E-29
   6.650000      4.4756839E-29
   6.660000      4.8437451E-29
   6.670000      5.2200712E-29
   6.680000      5.6037225E-29
   6.690000      5.9936577E-29
   6.700000      6.3887297E-29
   6.710000      6.7876831E-29
   6.720000      7.1891522E-29
   6.730000      7.5916565E-29
   6.740000      7.9935987E-29
   6.750000      8.3932635E-29
   6.760000      8.7888152E-29
   6.770000      9.1782954E-29
   6.780000      9.5596253E-29
   6.790000      9.9305997E-29
   6.800000      1.0288891E-28
   6.810000      1.0632049E-28
   6.820000      1.0957503E-28
   6.830000      1.1262555E-28
   6.840000      1.1544397E-28
   6.850000      1.1800099E-28
   6.860000      1.2026621E-28
   6.870000      1.2220814E-28
   6.880000      1.2379427E-28
   6.890000      1.2499111E-28
   6.900000      1.2576424E-28
   6.910000      1.2607842E-28
   6.920000      1.2589767E-28
   6.930000      1.2518531E-28
   6.940000      1.2390417E-28
   6.950000      1.2201656E-28
   6.960000      1.1948448E-28
   6.970000      1.1626978E-28
   6.980000      1.1233421E-28
   6.990000      1.0763963E-28
   7.000000      1.0214818E-28
   7.010000      9.5822430E-29
   7.020000      8.8625542E-29
   7.030000      8.0521524E-29
   7.040000      7.1475407E-29
   7.050000      6.1453463E-29
   7.060000      5.0423431E-29