  -2.600000      0.0000000E+00
  -2.590000      0.0000000E+00
  -2.580000      0.0000000E+00
  -2.570000      0.0000000E+00
  -2.560000      0.0000000E+00
  -2.550000      0.0000000E+00
  -2.540000      0.0000000E+00
  -2.530000      0.0000000E+00
  -2.520000      0.0000000E+00
  -2.510000      0.0000000E+00
  -2.500000      0.0000000E+00
  -2.490000      0.0000000E+00
  -2.480000      0.0000000E+00
  -2.470000      0.0000000E+00
  -2.460000      0.0000000E+00
  -2.450000      0.0000000E+00
  -2.440000      0.0000000E+00
  -2.430000      0.0000000E+00
  -2.420000      0.0000000E+00
  -2.410000      0.0000000E+00
  -2.400000      0.0000000E+00
  -2.390000      0.0000000E+00
  -2.380000      0.0000000E+00
  -2.370000      0.0000000E+00
  -2.360000      0.0000000E+00
  -2.350000      0.0000000E+00
  -2.340000      0.0000000E+00
  -2.330000      0.0000000E+00
  -2.320000      0.0000000E+00
  -2.310000      0.0000000E+00
  -2.300000      0.0000000E+00
  -2.290000      0.0000000E+00
  -2.280000      0.0000000E+00
  -2.270000      0.0000000E+00
  -2.260000      0.0000000E+00
  -2.250000      0.0000000E+00
  -2.240000      0.0000000E+00
  -2.230000      0.0000000E+00
  -2.220000      0.0000000E+00
  -2.210000      0.0000000E+00
  -2.200000      0.0000000E+00
  -2.190000      0.0000000E+00
  -2.180000      0.0000000E+00
  -2.170000      0.0000000E+00
  -2.160000      0.0000000E+00
  -2.150000      0.0000000E+00
  -2.140000      0.0000000E+00
  -2.130000      0.0000000E+00
  -2.120000      0.0000000E+00
  -2.110000      0.0000000E+00
  -2.100000      0.0000000E+00
  -2.090000      0.0000000E+00
  -2.080000      0.0000000E+00
  -2.070000      0.0000000E+00
  -2.060000      0.0000000E+00
  -2.050000      0.0000000E+00
  -2.040000      0.0000000E+00
  -2.030000      0.0000000E+00
  -2.020000      0.0000000E+00
  -2.010000      0.0000000E+00
  -2.000000      0.0000000E+00
  -1.990000      0.0000000E+00
  -1.980000      0.0000000E+00
  -1.970000      0.0000000E+00
  -1.960000      0.0000000E+00
  -1.950000      0.0000000E+00
  -1.940000      0.0000000E+00
  -1.930000      0.0000000E+00
  -1.920000      0.0000000E+00
  -1.910000      0.0000000E+00
  -1.900000      0.0000000E+00
  -1.890000      0.0000000E+00
  -1.880000      0.0000000E+00
  -1.870000      0.0000000E+00
  -1.860000      0.0000000E+00
  -1.850000      0.0000000E+00
  -1.840000      0.0000000E+00
  -1.830000      0.0000000E+00
  -1.820000      0.0000000E+00
  -1.810000      0.0000000E+00
  -1.800000      0.0000000E+00
  -1.790000      0.0000000E+00
  -1.780000      0.0000000E+00
  -1.770000      0.0000000E+00
  -1.760000      0.0000000E+00
  -1.750000      0.0000000E+00
  -1.740000      0.0000000E+00
  -1.730000      0.0000000E+00
  -1.720000      0.0000000E+00
  -1.710000      0.0000000E+00
  -1.700000      0.0000000E+00
  -1.690000      0.0000000E+00
  -1.680000      0.0000000E+00
  -1.670000      0.0000000E+00
  -1.660000      0.0000000E+00
  -1.650000      0.0000000E+00
  -1.640000      0.0000000E+00
  -1.630000      0.0000000E+00
  -1.620000      0.0000000E+00
  -1.610000      0.0000000E+00
  -1.600000      0.0000000E+00
  -1.590000      0.0000000E+00
  -1.580000      0.0000000E+00
  -1.570000      0.0000000E+00
  -1.560000      0.0000000E+00
  -1.550000      0.0000000E+00
  -1.540000      0.0000000E+00
  -1.530000      0.0000000E+00
  -1.520000      0.0000000E+00
  -1.510000      0.0000000E+00
  -1.500000      0.0000000E+00
  -1.490000      0.0000000E+00
  -1.480000      0.0000000E+00
  -1.470000      0.0000000E+00
  -1.460000      0.0000000E+00
  -1.450000      0.0000000E+00
  -1.440000      0.0000000E+00
  -1.430000      0.0000000E+00
  -1.420000      0.0000000E+00
  -1.410000      0.0000000E+00
  -1.400000      0.0000000E+00
  -1.390000      0.0000000E+00
  -1.380000      0.0000000E+00
  -1.370000      0.0000000E+00
  -1.360000      0.0000000E+00
  -1.350000      0.0000000E+00
  -1.340000      0.0000000E+00
  -1.330000      0.0000000E+00
  -1.320000      0.0000000E+00
  -1.310000      0.0000000E+00
  -1.300000      0.0000000E+00
  -1.290000      0.0000000E+00
  -1.280000      0.0000000E+00
  -1.270000      0.0000000E+00
  -1.260000      0.0000000E+00
  -1.250000      0.0000000E+00
  -1.240000      0.0000000E+00
  -1.230000      0.0000000E+00
  -1.220000      0.0000000E+00
  -1.210000      0.0000000E+00
  -1.200000      0.0000000E+00
  -1.190000      0.0000000E+00
  -1.180000      0.0000000E+00
  -1.170000      0.0000000E+00
  -1.160000      0.0000000E+00
  -1.150000      0.0000000E+00
  -1.140000      0.0000000E+00
  -1.130000      0.0000000E+00
  -1.120000      0.0000000E+00
  -1.110000      0.0000000E+00
  -1.100000      0.0000000E+00
  -1.090000      0.0000000E+00
  -1.080000      0.0000000E+00
  -1.070000      0.0000000E+00
  -1.060000      0.0000000E+00
  -1.050000      0.0000000E+00
  -1.040000      0.0000000E+00
  -1.030000      0.0000000E+00
  -1.020000      0.0000000E+00
  -1.010000      0.0000000E+00
  -1.000000      0.0000000E+00
 -0.9900000      0.0000000E+00
 -0.9800000      0.0000000E+00
 -0.9700000      0.0000000E+00
 -0.9600000      0.0000000E+00
 -0.9500000      0.0000000E+00
 -0.9400000      0.0000000E+00
 -0.9300000      0.0000000E+00
 -0.9200000      0.0000000E+00
 -0.9100000      0.0000000E+00
 -0.9000000      0.0000000E+00
 -0.8900000      0.0000000E+00
 -0.8800000      0.0000000E+00
 -0.8700000      0.0000000E+00
 -0.8600000      0.0000000E+00
 -0.8500000      0.0000000E+00
 -0.8400000      0.0000000E+00
 -0.8300000      0.0000000E+00
 -0.8200000      0.0000000E+00
 -0.8100000      0.0000000E+00
 -0.8000000      0.0000000E+00
 -0.7900000      0.0000000E+00
 -0.7800000      0.0000000E+00
 -0.7700000      0.0000000E+00
 -0.7600000      0.0000000E+00
 -0.7500000      0.0000000E+00
 -0.7400000      0.0000000E+00
 -0.7300000      0.0000000E+00
 -0.7200000      0.0000000E+00
 -0.7100000      0.0000000E+00
 -0.7000000      0.0000000E+00
 -0.6900000      0.0000000E+00
 -0.6800000      0.0000000E+00
 -0.6700000      0.0000000E+00
 -0.6600000      0.0000000E+00
 -0.6500000      0.0000000E+00
 -0.6400000      0.0000000E+00
 -0.6300000      0.0000000E+00
 -0.6200000      0.0000000E+00
 -0.6100000      0.0000000E+00
 -0.6000000      0.0000000E+00
 -0.5900000      0.0000000E+00
 -0.5800000      0.0000000E+00
 -0.5700000      0.0000000E+00
 -0.5600000      0.0000000E+00
 -0.5500000      0.0000000E+00
 -0.5400000      0.0000000E+00
 -0.5300000      0.0000000E+00
 -0.5200000      0.0000000E+00
 -0.5100000      0.0000000E+00
 -0.5000000      0.0000000E+00
 -0.4900000      0.0000000E+00
 -0.4800000      0.0000000E+00
 -0.4700000      0.0000000E+00
 -0.4600000      0.0000000E+00
 -0.4500000      0.0000000E+00
 -0.4400000      0.0000000E+00
 -0.4300000      0.0000000E+00
 -0.4200000      0.0000000E+00
 -0.4100000      0.0000000E+00
 -0.4000000      0.0000000E+00
 -0.3900000      0.0000000E+00
 -0.3800000      0.0000000E+00
 -0.3700000      0.0000000E+00
 -0.3600000      0.0000000E+00
 -0.3500000      0.0000000E+00
 -0.3400000      0.0000000E+00
 -0.3300000      0.0000000E+00
 -0.3200000      0.0000000E+00
 -0.3100000      0.0000000E+00
 -0.3000000      0.0000000E+00
 -0.2900000      0.0000000E+00
 -0.2800000      0.0000000E+00
 -0.2700000      0.0000000E+00
 -0.2600000      0.0000000E+00
 -0.2500000      0.0000000E+00
 -0.2400000      0.0000000E+00
 -0.2300000      0.0000000E+00
 -0.2200000      0.0000000E+00
 -0.2100000     -1.5549811E-38
 -0.2000000     -2.7542367E-38
 -0.1900000     -3.1701553E-38
 -0.1800000     -2.3669834E-38
 -0.1700000      0.0000000E+00
 -0.1600000      0.0000000E+00
 -0.1500000      2.9096460E-38
 -0.1400000      4.9783381E-38
 -0.1300000      7.5383120E-38
 -0.1200000      1.0340392E-37
 -0.1100000      1.2592400E-37
 -0.1000000      1.3728947E-37
 -9.0000004E-02  1.3672067E-37
 -7.9999998E-02  1.2326649E-37
 -7.0000000E-02  9.6188927E-38
 -5.9999999E-02  5.3879550E-38
 -5.0000001E-02  0.0000000E+00
 -3.9999999E-02 -7.4559734E-38
 -2.9999999E-02 -1.5219457E-37
 -2.0000000E-02 -2.3277135E-37
 -9.9999998E-03 -3.0592760E-37
 -3.4694470E-17 -3.4180048E-37
  9.9999998E-03 -3.2250667E-37
  2.0000000E-02 -2.9778678E-37
  2.9999999E-02 -2.8112931E-37
  3.9999999E-02 -2.7454262E-37
  5.0000001E-02 -2.9493481E-37
  5.9999999E-02 -2.8776855E-37
  7.0000000E-02 -2.4641638E-37
  7.9999998E-02 -2.3286921E-37
  9.0000004E-02 -2.6448278E-37
  0.1000000     -5.0705893E-37
  0.1100000     -9.8316643E-37
  0.1200000     -1.2726072E-36
  0.1300000     -1.1961294E-36
  0.1400000     -9.2649711E-37
  0.1500000     -7.1349992E-38
  0.1600000      1.2889579E-36
  0.1700000      2.4369248E-36
  0.1800000      3.4906281E-36
  0.1900000      4.6657752E-36
  0.2000000      5.8056553E-36
  0.2100000      6.7435479E-36
  0.2200000      7.0549399E-36
  0.2300000      6.3830814E-36
  0.2400000      4.6086539E-36
  0.2500000      1.6246358E-36
  0.2600000     -1.0686574E-36
  0.2700000     -3.2023134E-36
  0.2800000     -5.6929104E-36
  0.2900000     -8.5384024E-36
  0.3000000     -1.2421688E-35
  0.3100000     -1.7669821E-35
  0.3200000     -2.4015106E-35
  0.3300000     -3.1390512E-35
  0.3400000     -4.2093417E-35
  0.3500000     -5.7449038E-35
  0.3600000     -7.6910885E-35
  0.3700000     -1.0094004E-34
  0.3800000     -1.2774635E-34
  0.3900000     -1.5794835E-34
  0.4000000     -1.8943921E-34
  0.4100000     -2.2719461E-34
  0.4200000     -2.7965348E-34
  0.4300000     -3.4161496E-34
  0.4400000     -4.0976158E-34
  0.4500000     -4.8349231E-34
  0.4600000     -5.4945173E-34
  0.4700000     -5.9183115E-34
  0.4800000     -6.1756951E-34
  0.4900000     -6.3939766E-34
  0.5000000     -6.5675737E-34
  0.5100000     -6.8337185E-34
  0.5200000     -7.2071983E-34
  0.5300000     -7.6327103E-34
  0.5400000     -8.1833463E-34
  0.5500000     -8.9030124E-34
  0.5600000     -9.8480419E-34
  0.5700000     -1.0982931E-33
  0.5800000     -1.2361853E-33
  0.5900000     -1.3826693E-33
  0.6000000     -1.5133081E-33
  0.6100000     -1.6215526E-33
  0.6200000     -1.6976730E-33
  0.6300000     -1.7388445E-33
  0.6400000     -1.7449442E-33
  0.6500000     -1.7300665E-33
  0.6600000     -1.7043527E-33
  0.6700000     -1.6670253E-33
  0.6800000     -1.6262636E-33
  0.6900000     -1.5882797E-33
  0.7000000     -1.5569162E-33
  0.7100000     -1.5338441E-33
  0.7200000     -1.5179121E-33
  0.7300000     -1.5054931E-33
  0.7400000     -1.4906808E-33
  0.7500000     -1.4656661E-33
  0.7600000     -1.4215998E-33
  0.7700000     -1.3498106E-33
  0.7800000     -1.2431583E-33
  0.7900000     -1.0967900E-33
  0.8000000     -9.0806985E-34
  0.8100000     -6.7757634E-34
  0.8200000     -4.0853741E-34
  0.8300000     -1.0679752E-34
  0.8400000      2.1890134E-34
  0.8500000      5.5991831E-34
  0.8600000      9.0902815E-34
  0.8700000      1.2599930E-33
  0.8800000      1.6085509E-33
  0.8900000      1.9532771E-33
  0.9000000      2.2956609E-33
  0.9100000      2.6399081E-33
  0.9200000      2.9920155E-33
  0.9300000      3.3591062E-33
  0.9400000      3.7485806E-33
  0.9500000      4.1669412E-33
  0.9600000      4.6187135E-33
  0.9700000      5.1058328E-33
  0.9800000      5.6268942E-33
  0.9900000      6.1777503E-33
   1.000000      6.7522195E-33
   1.010000      7.3421377E-33
   1.020000      7.9388341E-33
   1.030000      8.5344328E-33
   1.040000      9.1220242E-33
   1.050000      9.6973707E-33
   1.060000      1.0260166E-32
   1.070000      1.0813210E-32
   1.080000      1.1362830E-32
   1.090000      1.1918457E-32
   1.100000      1.2491433E-32
   1.110000      1.3094390E-32
   1.120000      1.3740107E-32
   1.130000      1.4440290E-32
   1.140000      1.5205041E-32
   1.150000      1.6042634E-32
   1.160000      1.6958396E-32
   1.170000      1.7955954E-32
   1.180000      1.9037948E-32
   1.190000      2.0206320E-32
   1.200000      2.1464233E-32
   1.210000      2.2815932E-32
   1.220000      2.4268276E-32
   1.230000      2.5831647E-32
   1.240000      2.7519569E-32
   1.250000      2.9348691E-32
   1.260000      3.1338230E-32
   1.270000      3.3509006E-32
   1.280000      3.5882274E-32
   1.290000      3.8478529E-32
   1.300000      4.1316328E-32
   1.310000      4.4411358E-32
   1.320000      4.7775876E-32
   1.330000      5.1418550E-32
   1.340000      5.5344684E-32
   1.350000      5.9556886E-32
   1.360000      6.4056108E-32
   1.370000      6.8842821E-32
   1.380000      7.3918353E-32
   1.390000      7.9286007E-32
   1.400000      8.4951931E-32
   1.410000      9.0925810E-32
   1.420000      9.7220929E-32
   1.430000      1.0385386E-31
   1.440000      1.1084383E-31
   1.450000      1.1821177E-31
   1.460000      1.2597915E-31
   1.470000      1.3416682E-31
   1.480000      1.4279396E-31
   1.490000      1.5187743E-31
   1.500000      1.6143132E-31
   1.510000      1.7146689E-31
   1.520000      1.8199299E-31
   1.530000      1.9301684E-31
   1.540000      2.0454495E-31
   1.550000      2.1658420E-31
   1.560000      2.2914297E-31
   1.570000      2.4223196E-31
   1.580000      2.5586473E-31
   1.590000      2.7005821E-31
   1.600000      2.8483241E-31
   1.610000      3.0021021E-31
   1.620000      3.1621675E-31
   1.630000      3.3287882E-31
   1.640000      3.5022420E-31
   1.650000      3.6828111E-31
   1.660000      3.8707804E-31
   1.670000      4.0664393E-31
   1.680000      4.2700862E-31
   1.690000      4.4820372E-31
   1.700000      4.7026338E-31
   1.710000      4.9322582E-31
   1.720000      5.1713438E-31
   1.730000      5.4203808E-31
   1.740000      5.6799243E-31
   1.750000      5.9505946E-31
   1.760000      6.2330701E-31
   1.770000      6.5280768E-31
   1.780000      6.8363700E-31
   1.790000      7.1587145E-31
   1.800000      7.4958628E-31
   1.810000      7.8485256E-31
   1.820000      8.2173516E-31
   1.830000      8.6029071E-31
   1.840000      9.0056550E-31
   1.850000      9.4259422E-31
   1.860000      9.8640010E-31
   1.870000      1.0319939E-30
   1.880000      1.0793740E-30
   1.890000      1.1285275E-30
   1.900000      1.1794307E-30
   1.910000      1.2320494E-30
   1.920000      1.2863398E-30
   1.930000      1.3422478E-30
   1.940000      1.3997087E-30
   1.950000      1.4586462E-30
   1.960000      1.5189706E-30
   1.970000      1.5805770E-30
   1.980000      1.6433424E-30
   1.990000      1.7071217E-30
   2.000000      1.7717459E-30
   2.010000      1.8370187E-30
   2.020000      1.9027121E-30
   2.030000      1.9685626E-30
   2.040000      2.0342688E-30
   2.050000      2.0994863E-30
   2.060000      2.1638244E-30
   2.070000      2.2268424E-30
   2.080000      2.2880456E-30
   2.090000      2.3468809E-30
   2.100000      2.4027319E-30
   2.110000      2.4549152E-30
   2.120000      2.5026760E-30
   2.130000      2.5451841E-30
   2.140000      2.5815297E-30
   2.150000      2.6107203E-30
   2.160000      2.6316791E-30
   2.170000      2.6432426E-30
   2.180000      2.6441598E-30
   2.190000      2.6330936E-30
   2.200000      2.6086217E-30
   2.210000      2.5692368E-30
   2.220000      2.5133501E-30
   2.230000      2.4392935E-30
   2.240000      2.3453239E-30
   2.250000      2.2296211E-30
   2.260000      2.0902896E-30
   2.270000      1.9253604E-30
   2.280000      1.7327898E-30
   2.290000      1.5104578E-30
   2.300000      1.2561677E-30
   2.310000      9.6764052E-31
   2.320000      6.4251233E-31
   2.330000      2.7833729E-31
   2.340000     -1.2742260E-31
   2.350000     -5.7739394E-31
   2.360000     -1.0742935E-30
   2.370000     -1.6209238E-30
   2.380000     -2.2201661E-30
   2.390000     -2.8749816E-30
   2.400000     -3.5883930E-30
   2.410000     -4.3634798E-30
   2.420000     -5.2033545E-30
   2.430000     -6.1111431E-30
   2.440000     -7.0899718E-30
   2.450000     -8.1429356E-30
   2.460000     -9.2730818E-30
   2.470000     -1.0483378E-29
   2.480000     -1.1776687E-29
   2.490000     -1.3155728E-29
   2.500000     -1.4623061E-29
   2.510000     -1.6181034E-29
   2.520000     -1.7831779E-29
   2.530000     -1.9577162E-29
   2.540000     -2.1418769E-29
   2.550000     -2.3357872E-29
   2.560000     -2.5395390E-29
   2.570000     -2.7531876E-29
   2.580000     -2.9767489E-29
   2.590000     -3.2101969E-29
   2.600000     -3.4534626E-29
   2.610000     -3.7064305E-29
   2.620000     -3.9689387E-29
   2.630000     -4.2407756E-29
   2.640000     -4.5216761E-29
   2.650000     -4.8113230E-29
   2.660000     -5.1093411E-29
   2.670000     -5.4152949E-29
   2.680000     -5.7286876E-29
   2.690000     -6.0489566E-29
   2.700000     -6.3754715E-29
   2.710000     -6.7075289E-29
   2.720000     -7.0443500E-29
   2.730000     -7.3850735E-29
   2.740000     -7.7287545E-29
   2.750000     -8.0743644E-29
   2.760000     -8.4207838E-29
   2.770000     -8.7667988E-29
   2.780000     -9.1111021E-29
   2.790000     -9.4522908E-29
   2.800000     -9.7888700E-29
   2.810000     -1.0119249E-28
   2.820000     -1.0441746E-28
   2.830000     -1.0754594E-28
   2.840000     -1.1055943E-28
   2.850000     -1.1343868E-28
   2.860000     -1.1616375E-28
   2.870000     -1.1871413E-28
   2.880000     -1.2106876E-28
   2.890000     -1.2320625E-28
   2.900000     -1.2510493E-28
   2.910000     -1.2674298E-28
   2.920000     -1.2809855E-28
   2.930000     -1.2914991E-28
   2.940000     -1.2987560E-28
   2.950000     -1.3025449E-28
   2.960000     -1.3026599E-28
   2.970000     -1.2989017E-28
   2.980000     -1.2910787E-28
   2.990000     -1.2790088E-28
   3.000000     -1.2625207E-28
   3.010000     -1.2414553E-28
   3.020000     -1.2156670E-28
   3.030000     -1.1850249E-28
   3.040000     -1.1494153E-28
   3.050000     -1.1087427E-28
   3.060000     -1.0629321E-28
   3.070000     -1.0119298E-28
   3.080000     -9.5570717E-29
   3.090000     -8.9426121E-29
   3.100000     -8.2761808E-29
   3.110000     -7.5583482E-29
   3.120000     -6.7900129E-29
   3.130000     -5.9724321E-29
   3.140000     -5.1072520E-29
   3.150000     -4.1965267E-29
   3.160000     -3.2427361E-29
   3.170000     -2.2488189E-29
   3.180000     -1.2181760E-29
   3.190000     -1.5470154E-30
   3.200000      9.3721288E-30
   3.210000      2.0526692E-29
   3.220000      3.1862489E-29
   3.230000      4.3320216E-29
   3.240000      5.4835487E-29
   3.250000      6.6338874E-29
   3.260000      7.7756135E-29
   3.270000      8.9008501E-29
   3.280000      1.0001303E-28
   3.290000      1.1068274E-28
   3.300000      1.2092696E-28
   3.310000      1.3065187E-28
   3.320000      1.3976108E-28
   3.330000      1.4815604E-28
   3.340000      1.5573657E-28
   3.350000      1.6240172E-28
   3.360000      1.6805038E-28
   3.370000      1.7258185E-28
   3.380000      1.7589655E-28
   3.390000      1.7789702E-28
   3.400000      1.7848866E-28
   3.410000      1.7758060E-28
   3.420000      1.7508682E-28
   3.430000      1.7092696E-28
   3.440000      1.6502748E-28
   3.450000      1.5732280E-28
   3.460000      1.4775666E-28
   3.470000      1.3628334E-28
   3.480000      1.2286911E-28
   3.490000      1.0749383E-28
   3.500000      9.0152721E-29
   3.510000      7.0857809E-29
   3.520000      4.9639662E-29
   3.530000      2.6549426E-29
   3.540000      1.6604719E-30
   3.550000     -2.4929284E-29
   3.560000     -5.3095933E-29
   3.570000     -8.2687431E-29
   3.580000     -1.1352122E-28
   3.590000     -1.4538341E-28
   3.600000     -1.7802587E-28
   3.610000     -2.1116483E-28
   3.620000     -2.4447988E-28
   3.630000     -2.7761173E-28
   3.640000     -3.1016081E-28
   3.650000     -3.4168689E-28
   3.660000     -3.7170725E-28
   3.670000     -3.9969647E-28
   3.680000     -4.2508572E-28
   3.690000     -4.4726227E-28
   3.700000     -4.6556973E-28
   3.710000     -4.7930777E-28
   3.720000     -4.8773353E-28
   3.730000     -4.9006212E-28
   3.740000     -4.8546695E-28
   3.750000     -4.7308119E-28
   3.760000     -4.5200064E-28
   3.770000     -4.2128413E-28
   3.780000     -3.7995728E-28
   3.790000     -3.2701551E-28
   3.800000     -2.6142532E-28
   3.810000     -1.8212796E-28
   3.820000     -8.8044291E-29
   3.830000      2.1919055E-29
   3.840000      1.4886528E-28
   3.850000      2.9390242E-28
   3.860000      4.5813665E-28
   3.870000      6.4266491E-28
   3.880000      8.4856704E-28
   3.890000      1.0768967E-27
   3.900000      1.3286720E-27
   3.910000      1.6048653E-27
   3.920000      1.9063943E-27
   3.930000      2.2341065E-27
   3.940000      2.5887663E-27
   3.950000      2.9710476E-27
   3.960000      3.3815162E-27
   3.970000      3.8206136E-27
   3.980000      4.2886435E-27
   3.990000      4.7857545E-27
   4.000000      5.3119247E-27
   4.010000      5.8669450E-27
   4.020000      6.4504008E-27
   4.030000      7.0616517E-27
   4.040000      7.6998125E-27
   4.050000      8.3637391E-27
   4.060000      9.0520071E-27
   4.070000      9.7628963E-27
   4.080000      1.0494365E-26
   4.090000      1.1244034E-26
   4.100000      1.2009177E-26
   4.110000      1.2786685E-26
   4.120000      1.3573062E-26
   4.130000      1.4364404E-26
   4.140000      1.5156375E-26
   4.150000      1.5944196E-26
   4.160000      1.6722622E-26
   4.170000      1.7485936E-26
   4.180000      1.8227930E-26
   4.190000      1.8941891E-26
   4.200000      1.9620588E-26
   4.210000      2.0256267E-26
   4.220000      2.0840636E-26
   4.230000      2.1364866E-26
   4.240000      2.1819578E-26
   4.250000      2.2194842E-26
   4.260000      2.2480191E-26
   4.270000      2.2664607E-26
   4.280000      2.2736549E-26
   4.290000      2.2683957E-26
   4.300000      2.2494255E-26
   4.310000      2.2154373E-26
   4.320000      2.1650791E-26
   4.330000      2.0969556E-26
   4.340000      2.0096316E-26
   4.350000      1.9016370E-26
   4.360000      1.7714682E-26
   4.370000      1.6175975E-26
   4.380000      1.4384735E-26
   4.390000      1.2325311E-26
   4.400000      9.9819948E-27
   4.410000      7.3390796E-27
   4.420000      4.3809533E-27
   4.430000      1.0921672E-27
   4.440000     -2.5424513E-27
   4.450000     -6.5376948E-27
   4.460000     -1.0907870E-26
   4.470000     -1.5666673E-26
   4.480000     -2.0827087E-26
   4.490000     -2.6401193E-26
   4.500000     -3.2400077E-26
   4.510000     -3.8833687E-26
   4.520000     -4.5710616E-26
   4.530000     -5.3038009E-26
   4.540000     -6.0821361E-26
   4.550000     -6.9064316E-26
   4.560000     -7.7768515E-26
   4.570000     -8.6933347E-26
   4.580000     -9.6555761E-26
   4.590000     -1.0663013E-25
   4.600000     -1.1714792E-25
   4.610000     -1.2809751E-25
   4.620000     -1.3946403E-25
   4.630000     -1.5122907E-25
   4.640000     -1.6337046E-25
   4.650000     -1.7586196E-25
   4.660000     -1.8867317E-25
   4.670000     -2.0176915E-25
   4.680000     -2.1511019E-25
   4.690000     -2.2865170E-25
   4.700000     -2.4234389E-25
   4.710000     -2.5613148E-25
   4.720000     -2.6995348E-25
   4.730000     -2.8374304E-25
   4.740000     -2.9742721E-25
   4.750000     -3.1092672E-25
   4.760000     -3.2415574E-25
   4.770000     -3.3702174E-25
   4.780000     -3.4942540E-25
   4.790000     -3.6126040E-25
   4.800000     -3.7241320E-25
   4.810000     -3.8276303E-25
   4.820000     -3.9218190E-25
   4.830000     -4.0053434E-25
   4.840000     -4.0767762E-25
   4.850000     -4.1346157E-25
   4.860000     -4.1772842E-25
   4.870000     -4.2031332E-25
   4.880000     -4.2104430E-25
   4.890000     -4.1974184E-25
   4.900000     -4.1621988E-25
   4.910000     -4.1028572E-25
   4.920000     -4.0174031E-25
   4.930000     -3.9037862E-25
   4.940000     -3.7598999E-25
   4.950000     -3.5835873E-25
   4.960000     -3.3726437E-25
   4.970000     -3.1248247E-25
   4.980000     -2.8378539E-25
   4.990000     -2.5094262E-25
   5.000000     -2.1372207E-25
   5.010000     -1.7189065E-25
   5.020000     -1.2521484E-25
   5.030000     -7.3462444E-26
   5.040000     -1.6403453E-26
   5.050000      4.6188435E-26
   5.060000      1.1453479E-25
   5.070000      1.8885144E-25
   5.080000      2.6934702E-25
   5.090000      3.5622079E-25
   5.100000      4.4966127E-25
   5.110000      5.4984473E-25
   5.120000      6.5693230E-25
   5.130000      7.7106899E-25
   5.140000      8.9238154E-25
   5.150000      1.0209764E-24
   5.160000      1.1569369E-24
   5.170000      1.3003209E-24
   5.180000      1.4511594E-24
   5.190000      1.6094541E-24
   5.200000      1.7751739E-24
   5.210000      1.9482521E-24
   5.220000      2.1285846E-24
   5.230000      2.3160266E-24
   5.240000      2.5103901E-24
   5.250000      2.7114406E-24
   5.260000      2.9188936E-24
   5.270000      3.1324134E-24
   5.280000      3.3516089E-24
   5.290000      3.5760307E-24
   5.300000      3.8051692E-24
   5.310000      4.0384484E-24
   5.320000      4.2752254E-24
   5.330000      4.5147878E-24
   5.340000      4.7563497E-24
   5.350000      4.9990502E-24
   5.360000      5.2419472E-24
   5.370000      5.4840186E-24
   5.380000      5.7241570E-24
   5.390000      5.9611690E-24
   5.400000      6.1937714E-24
   5.410000      6.4205906E-24
   5.420000      6.6401633E-24
   5.430000      6.8509264E-24
   5.440000      7.0512253E-24
   5.450000      7.2393055E-24
   5.460000      7.4133172E-24
   5.470000      7.5713111E-24
   5.480000      7.7112360E-24
   5.490000      7.8309465E-24
   5.500000      7.9281941E-24
   5.510000      8.0006407E-24
   5.520000      8.0458480E-24
   5.530000      8.0612820E-24
   5.540000      8.0443239E-24
   5.550000      7.9922614E-24
   5.560000      7.9022997E-24
   5.570000      7.7715665E-24
   5.580000      7.5971155E-24
   5.590000      7.3759291E-24
   5.600000      7.1049270E-24
   5.610000      6.7809829E-24
   5.620000      6.4009140E-24
   5.630000      5.9615035E-24
   5.640000      5.4595067E-24
   5.650000      4.8916586E-24
   5.660000      4.2546882E-24
   5.670000      3.5453279E-24
   5.680000      2.7603306E-24
   5.690000      1.8964792E-24
   5.700000      9.5060717E-25
   5.710000     -8.0379546E-26
   5.720000     -1.1994956E-24
   5.730000     -2.4096498E-24
   5.740000     -3.7136349E-24
   5.750000     -5.1141048E-24
   5.760000     -6.6135463E-24
   5.770000     -8.2142666E-24
   5.780000     -9.9183592E-24
   5.790000     -1.1727682E-23
   5.800000     -1.3643832E-23
   5.810000     -1.5668119E-23
   5.820000     -1.7801539E-23
   5.830000     -2.0044750E-23
   5.840000     -2.2398038E-23
   5.850000     -2.4861276E-23
   5.860000     -2.7433919E-23
   5.870000     -3.0114948E-23
   5.880000     -3.2902827E-23
   5.890000     -3.5795507E-23
   5.900000     -3.8790370E-23
   5.910000     -4.1884194E-23
   5.920000     -4.5073127E-23
   5.930000     -4.8352642E-23
   5.940000     -5.1717513E-23
   5.950000     -5.5161780E-23
   5.960000     -5.8678674E-23
   5.970000     -6.2260639E-23
   5.980000     -6.5899269E-23
   5.990000     -6.9585282E-23
   6.000000     -7.3308491E-23
   6.010000     -7.7057763E-23
   6.020000     -8.0820983E-23
   6.030000     -8.4585049E-23
   6.040000     -8.8335805E-23
   6.050000     -9.2058061E-23
   6.060000     -9.5735535E-23
   6.070000     -9.9350846E-23
   6.080000     -1.0288547E-22
   6.090000     -1.0631977E-22
   6.100000     -1.0963292E-22
   6.110000     -1.1280294E-22
   6.120000     -1.1580670E-22
   6.130000     -1.1861987E-22
   6.140000     -1.2121697E-22
   6.150000     -1.2357134E-22
   6.160000     -1.2565510E-22
   6.170000     -1.2743929E-22
   6.180000     -1.2889380E-22
   6.190000     -1.2998745E-22
   6.200000     -1.3068795E-22
   6.210000     -1.3096193E-22
   6.220000     -1.3077510E-22
   6.230000     -1.3009221E-22
   6.240000     -1.2887718E-22
   6.250000     -1.2709313E-22
   6.260000     -1.2470237E-22
   6.270000     -1.2166657E-22
   6.280000     -1.1794685E-22
   6.290000     -1.1350394E-22
   6.300000     -1.0829821E-22
   6.310000     -1.0228969E-22
   6.320000     -9.5438286E-23
   6.330000     -8.7703965E-23
   6.340000     -7.9046860E-23
   6.350000     -6.9427453E-23
   6.360000     -5.8806589E-23
   6.370000     -4.7145786E-23
   6.380000     -3.4407513E-23
   6.390000     -2.0555274E-23
   6.400000     -5.5538352E-24
   6.410000      1.0630534E-23
   6.420000      2.8029771E-23
   6.430000      4.6673902E-23
   6.440000      6.6590835E-23
   6.450000      8.7805943E-23
   6.460000      1.1034181E-22
   6.470000      1.3421808E-22
   6.480000      1.5945121E-22
   6.490000      1.8605387E-22
   6.500000      2.1403500E-22
   6.510000      2.4339946E-22
   6.520000      2.7414731E-22
   6.530000      3.0627385E-22
   6.540000      3.3976931E-22
   6.550000      3.7461836E-22
   6.560000      4.1079946E-22
   6.570000      4.4828509E-22
   6.580000      4.8704106E-22
   6.590000      5.2702613E-22
   6.600000      5.6819195E-22
   6.610000      6.1048252E-22
   6.620000      6.5383382E-22
   6.630000      6.9817325E-22
   6.640000      7.4341954E-22
   6.650000      7.8948250E-22
   6.660000      8.3626289E-22
   6.670000      8.8365164E-22
   6.680000      9.3152977E-22
   6.690000      9.7976747E-22
   6.700000      1.0282249E-21
   6.710000      1.0767513E-21
   6.720000      1.1251845E-21
   6.730000      1.1733521E-21
   6.740000      1.2210690E-21
   6.750000      1.2681393E-21
   6.760000      1.3143546E-21
   6.770000      1.3594949E-21
   6.780000      1.4033286E-21
   6.790000      1.4456113E-21
   6.800000      1.4860864E-21
   6.810000      1.5244861E-21
   6.820000      1.5605299E-21
   6.830000      1.5939256E-21
   6.840000      1.6243699E-21
   6.850000      1.6515475E-21
   6.860000      1.6751327E-21
   6.870000      1.6947887E-21
   6.880000      1.7101680E-21
   6.890000      1.7209141E-21
   6.900000      1.7266602E-21
   6.910000      1.7270299E-21
   6.920000      1.7216399E-21
   6.930000      1.7100990E-21
   6.940000      1.6920089E-21
   6.950000      1.6669655E-21
   6.960000      1.6345603E-21
   6.970000      1.5943812E-21
   6.980000      1.5460134E-21
   6.990000      1.4890402E-21
   7.000000      1.4230447E-21
   7.010000      1.3476113E-21
   7.020000      1.2623261E-21
   7.030000      1.1667812E-21
   7.040000      1.0605744E-21
   7.050000      9.4331104E-22
   7.060000      8.1460700E-22