  -2.600000      0.0000000E+00
  -2.590000      0.0000000E+00
  -2.580000      0.0000000E+00
  -2.570000      0.0000000E+00
  -2.560000      0.0000000E+00
  -2.550000      0.0000000E+00
  -2.540000      0.0000000E+00
  -2.530000      0.0000000E+00
  -2.520000      0.0000000E+00
  -2.510000      0.0000000E+00
  -2.500000      0.0000000E+00
  -2.490000      0.0000000E+00
  -2.480000      0.0000000E+00
  -2.470000      0.0000000E+00
  -2.460000      0.0000000E+00
  -2.450000      0.0000000E+00
  -2.440000      0.0000000E+00
  -2.430000      0.0000000E+00
  -2.420000      0.0000000E+00
  -2.410000      0.0000000E+00
  -2.400000      0.0000000E+00
  -2.390000      0.0000000E+00
  -2.380000      0.0000000E+00
  -2.370000      0.0000000E+00
  -2.360000      0.0000000E+00
  -2.350000      0.0000000E+00
  -2.340000      0.0000000E+00
  -2.330000      0.0000000E+00
  -2.320000      0.0000000E+00
  -2.310000      0.0000000E+00
  -2.300000      0.0000000E+00
  -2.290000      0.0000000E+00
  -2.280000      0.0000000E+00
  -2.270000      0.0000000E+00
  -2.260000      0.0000000E+00
  -2.250000      0.0000000E+00
  -2.240000      0.0000000E+00
  -2.230000      0.0000000E+00
  -2.220000      0.0000000E+00
  -2.210000      0.0000000E+00
  -2.200000      0.0000000E+00
  -2.190000      0.0000000E+00
  -2.180000      0.0000000E+00
  -2.170000      0.0000000E+00
  -2.160000      0.0000000E+00
  -2.150000      0.0000000E+00
  -2.140000      0.0000000E+00
  -2.130000      0.0000000E+00
  -2.120000      0.0000000E+00
  -2.110000      0.0000000E+00
  -2.100000      0.0000000E+00
  -2.090000      0.0000000E+00
  -2.080000      0.0000000E+00
  -2.070000      0.0000000E+00
  -2.060000      0.0000000E+00
  -2.050000      0.0000000E+00
  -2.040000      0.0000000E+00
  -2.030000      0.0000000E+00
  -2.020000      0.0000000E+00
  -2.010000      0.0000000E+00
  -2.000000      0.0000000E+00
  -1.990000      0.0000000E+00
  -1.980000      0.0000000E+00
  -1.970000      0.0000000E+00
  -1.960000      0.0000000E+00
  -1.950000      0.0000000E+00
  -1.940000      0.0000000E+00
  -1.930000      0.0000000E+00
  -1.920000      0.0000000E+00
  -1.910000      0.0000000E+00
  -1.900000      0.0000000E+00
  -1.890000      0.0000000E+00
  -1.880000      0.0000000E+00
  -1.870000      0.0000000E+00
  -1.860000      0.0000000E+00
  -1.850000      0.0000000E+00
  -1.840000      0.0000000E+00
  -1.830000      0.0000000E+00
  -1.820000      0.0000000E+00
  -1.810000      0.0000000E+00
  -1.800000      0.0000000E+00
  -1.790000      0.0000000E+00
  -1.780000      0.0000000E+00
  -1.770000      0.0000000E+00
  -1.760000      0.0000000E+00
  -1.750000      0.0000000E+00
  -1.740000      0.0000000E+00
  -1.730000      0.0000000E+00
  -1.720000      0.0000000E+00
  -1.710000      0.0000000E+00
  -1.700000      0.0000000E+00
  -1.690000      0.0000000E+00
  -1.680000      0.0000000E+00
  -1.670000      0.0000000E+00
  -1.660000      0.0000000E+00
  -1.650000      0.0000000E+00
  -1.640000      0.0000000E+00
  -1.630000      0.0000000E+00
  -1.620000      0.0000000E+00
  -1.610000      0.0000000E+00
  -1.600000      0.0000000E+00
  -1.590000      0.0000000E+00
  -1.580000      0.0000000E+00
  -1.570000      0.0000000E+00
  -1.560000      0.0000000E+00
  -1.550000      0.0000000E+00
  -1.540000      0.0000000E+00
  -1.530000      0.0000000E+00
  -1.520000      0.0000000E+00
  -1.510000      0.0000000E+00
  -1.500000      0.0000000E+00
  -1.490000      0.0000000E+00
  -1.480000      0.0000000E+00
  -1.470000      0.0000000E+00
  -1.460000      0.0000000E+00
  -1.450000      0.0000000E+00
  -1.440000      0.0000000E+00
  -1.430000      0.0000000E+00
  -1.420000      0.0000000E+00
  -1.410000      0.0000000E+00
  -1.400000      0.0000000E+00
  -1.390000      0.0000000E+00
  -1.380000      0.0000000E+00
  -1.370000      0.0000000E+00
  -1.360000      0.0000000E+00
  -1.350000      0.0000000E+00
  -1.340000      0.0000000E+00
  -1.330000      0.0000000E+00
  -1.320000      0.0000000E+00
  -1.310000      0.0000000E+00
  -1.300000      0.0000000E+00
  -1.290000      0.0000000E+00
  -1.280000      0.0000000E+00
  -1.270000      0.0000000E+00
  -1.260000      0.0000000E+00
  -1.250000      0.0000000E+00
  -1.240000      0.0000000E+00
  -1.230000      0.0000000E+00
  -1.220000      0.0000000E+00
  -1.210000      0.0000000E+00
  -1.200000      0.0000000E+00
  -1.190000      0.0000000E+00
  -1.180000      0.0000000E+00
  -1.170000      0.0000000E+00
  -1.160000      0.0000000E+00
  -1.150000      0.0000000E+00
  -1.140000      0.0000000E+00
  -1.130000      0.0000000E+00
  -1.120000      0.0000000E+00
  -1.110000      0.0000000E+00
  -1.100000      0.0000000E+00
  -1.090000      0.0000000E+00
  -1.080000      0.0000000E+00
  -1.070000      0.0000000E+00
  -1.060000      0.0000000E+00
  -1.050000      0.0000000E+00
  -1.040000      0.0000000E+00
  -1.030000      0.0000000E+00
  -1.020000      0.0000000E+00
  -1.010000      0.0000000E+00
  -1.000000      0.0000000E+00
 -0.9900000      0.0000000E+00
 -0.9800000      0.0000000E+00
 -0.9700000      0.0000000E+00
 -0.9600000      0.0000000E+00
 -0.9500000      0.0000000E+00
 -0.9400000      0.0000000E+00
 -0.9300000      0.0000000E+00
 -0.9200000      0.0000000E+00
 -0.9100000      0.0000000E+00
 -0.9000000      0.0000000E+00
 -0.8900000      0.0000000E+00
 -0.8800000      0.0000000E+00
 -0.8700000      0.0000000E+00
 -0.8600000      0.0000000E+00
 -0.8500000      0.0000000E+00
 -0.8400000      0.0000000E+00
 -0.8300000      0.0000000E+00
 -0.8200000      0.0000000E+00
 -0.8100000      0.0000000E+00
 -0.8000000      0.0000000E+00
 -0.7900000      0.0000000E+00
 -0.7800000      0.0000000E+00
 -0.7700000      0.0000000E+00
 -0.7600000      0.0000000E+00
 -0.7500000      0.0000000E+00
 -0.7400000      0.0000000E+00
 -0.7300000      0.0000000E+00
 -0.7200000      0.0000000E+00
 -0.7100000      0.0000000E+00
 -0.7000000      0.0000000E+00
 -0.6900000      0.0000000E+00
 -0.6800000      0.0000000E+00
 -0.6700000      0.0000000E+00
 -0.6600000      0.0000000E+00
 -0.6500000      0.0000000E+00
 -0.6400000      0.0000000E+00
 -0.6300000      0.0000000E+00
 -0.6200000      0.0000000E+00
 -0.6100000      0.0000000E+00
 -0.6000000      0.0000000E+00
 -0.5900000      0.0000000E+00
 -0.5800000      0.0000000E+00
 -0.5700000      0.0000000E+00
 -0.5600000      0.0000000E+00
 -0.5500000      0.0000000E+00
 -0.5400000      0.0000000E+00
 -0.5300000      0.0000000E+00
 -0.5200000      0.0000000E+00
 -0.5100000      0.0000000E+00
 -0.5000000      0.0000000E+00
 -0.4900000      0.0000000E+00
 -0.4800000      0.0000000E+00
 -0.4700000      0.0000000E+00
 -0.4600000      0.0000000E+00
 -0.4500000      0.0000000E+00
 -0.4400000      0.0000000E+00
 -0.4300000      0.0000000E+00
 -0.4200000      0.0000000E+00
 -0.4100000      0.0000000E+00
 -0.4000000      0.0000000E+00
 -0.3900000      0.0000000E+00
 -0.3800000      0.0000000E+00
 -0.3700000      0.0000000E+00
 -0.3600000      0.0000000E+00
 -0.3500000      0.0000000E+00
 -0.3400000      0.0000000E+00
 -0.3300000      0.0000000E+00
 -0.3200000      0.0000000E+00
 -0.3100000      0.0000000E+00
 -0.3000000      0.0000000E+00
 -0.2900000      0.0000000E+00
 -0.2800000      0.0000000E+00
 -0.2700000      0.0000000E+00
 -0.2600000      0.0000000E+00
 -0.2500000      0.0000000E+00
 -0.2400000      0.0000000E+00
 -0.2300000      0.0000000E+00
 -0.2200000      0.0000000E+00
 -0.2100000      0.0000000E+00
 -0.2000000      0.0000000E+00
 -0.1900000      0.0000000E+00
 -0.1800000      0.0000000E+00
 -0.1700000      0.0000000E+00
 -0.1600000      0.0000000E+00
 -0.1500000      0.0000000E+00
 -0.1400000      0.0000000E+00
 -0.1300000      0.0000000E+00
 -0.1200000      0.0000000E+00
 -0.1100000      0.0000000E+00
 -0.1000000      0.0000000E+00
 -9.0000004E-02  0.0000000E+00
 -7.9999998E-02  0.0000000E+00
 -7.0000000E-02  0.0000000E+00
 -5.9999999E-02  0.0000000E+00
 -5.0000001E-02  0.0000000E+00
 -3.9999999E-02  0.0000000E+00
 -2.9999999E-02  0.0000000E+00
 -2.0000000E-02  0.0000000E+00
 -9.9999998E-03  0.0000000E+00
 -3.4694470E-17  0.0000000E+00
  9.9999998E-03  0.0000000E+00
  2.0000000E-02  0.0000000E+00
  2.9999999E-02  0.0000000E+00
  3.9999999E-02  0.0000000E+00
  5.0000001E-02  0.0000000E+00
  5.9999999E-02  0.0000000E+00
  7.0000000E-02  0.0000000E+00
  7.9999998E-02  0.0000000E+00
  9.0000004E-02  0.0000000E+00
  0.1000000      0.0000000E+00
  0.1100000      0.0000000E+00
  0.1200000      0.0000000E+00
  0.1300000      0.0000000E+00
  0.1400000      0.0000000E+00
  0.1500000      0.0000000E+00
  0.1600000      0.0000000E+00
  0.1700000      0.0000000E+00
  0.1800000      0.0000000E+00
  0.1900000      0.0000000E+00
  0.2000000      0.0000000E+00
  0.2100000      0.0000000E+00
  0.2200000      0.0000000E+00
  0.2300000      0.0000000E+00
  0.2400000      0.0000000E+00
  0.2500000      0.0000000E+00
  0.2600000      0.0000000E+00
  0.2700000      0.0000000E+00
  0.2800000      0.0000000E+00
  0.2900000      0.0000000E+00
  0.3000000      0.0000000E+00
  0.3100000      0.0000000E+00
  0.3200000      0.0000000E+00
  0.3300000      0.0000000E+00
  0.3400000      0.0000000E+00
  0.3500000      0.0000000E+00
  0.3600000      0.0000000E+00
  0.3700000      0.0000000E+00
  0.3800000      0.0000000E+00
  0.3900000      0.0000000E+00
  0.4000000      0.0000000E+00
  0.4100000      0.0000000E+00
  0.4200000      0.0000000E+00
  0.4300000      0.0000000E+00
  0.4400000      0.0000000E+00
  0.4500000      0.0000000E+00
  0.4600000      0.0000000E+00
  0.4700000      0.0000000E+00
  0.4800000      0.0000000E+00
  0.4900000      0.0000000E+00
  0.5000000      0.0000000E+00
  0.5100000      0.0000000E+00
  0.5200000      0.0000000E+00
  0.5300000      0.0000000E+00
  0.5400000      0.0000000E+00
  0.5500000      0.0000000E+00
  0.5600000      0.0000000E+00
  0.5700000      0.0000000E+00
  0.5800000      0.0000000E+00
  0.5900000      0.0000000E+00
  0.6000000      0.0000000E+00
  0.6100000      0.0000000E+00
  0.6200000      0.0000000E+00
  0.6300000      0.0000000E+00
  0.6400000      0.0000000E+00
  0.6500000      0.0000000E+00
  0.6600000      0.0000000E+00
  0.6700000      0.0000000E+00
  0.6800000      0.0000000E+00
  0.6900000      0.0000000E+00
  0.7000000      0.0000000E+00
  0.7100000      0.0000000E+00
  0.7200000      0.0000000E+00
  0.7300000      0.0000000E+00
  0.7400000      0.0000000E+00
  0.7500000      0.0000000E+00
  0.7600000      0.0000000E+00
  0.7700000      0.0000000E+00
  0.7800000      0.0000000E+00
  0.7900000      0.0000000E+00
  0.8000000      0.0000000E+00
  0.8100000      0.0000000E+00
  0.8200000      0.0000000E+00
  0.8300000      0.0000000E+00
  0.8400000      0.0000000E+00
  0.8500000      0.0000000E+00
  0.8600000      0.0000000E+00
  0.8700000      0.0000000E+00
  0.8800000      0.0000000E+00
  0.8900000      0.0000000E+00
  0.9000000      0.0000000E+00
  0.9100000      0.0000000E+00
  0.9200000      0.0000000E+00
  0.9300000      0.0000000E+00
  0.9400000      0.0000000E+00
  0.9500000      0.0000000E+00
  0.9600000      0.0000000E+00
  0.9700000      0.0000000E+00
  0.9800000      0.0000000E+00
  0.9900000      0.0000000E+00
   1.000000      0.0000000E+00
   1.010000      0.0000000E+00
   1.020000      0.0000000E+00
   1.030000      0.0000000E+00
   1.040000      0.0000000E+00
   1.050000      0.0000000E+00
   1.060000      0.0000000E+00
   1.070000      0.0000000E+00
   1.080000      0.0000000E+00
   1.090000      0.0000000E+00
   1.100000      0.0000000E+00
   1.110000      0.0000000E+00
   1.120000      0.0000000E+00
   1.130000      0.0000000E+00
   1.140000      0.0000000E+00
   1.150000      0.0000000E+00
   1.160000      0.0000000E+00
   1.170000      0.0000000E+00
   1.180000      0.0000000E+00
   1.190000      0.0000000E+00
   1.200000      0.0000000E+00
   1.210000      0.0000000E+00
   1.220000      0.0000000E+00
   1.230000      0.0000000E+00
   1.240000      0.0000000E+00
   1.250000      0.0000000E+00
   1.260000      0.0000000E+00
   1.270000      0.0000000E+00
   1.280000      0.0000000E+00
   1.290000      0.0000000E+00
   1.300000      0.0000000E+00
   1.310000      0.0000000E+00
   1.320000      0.0000000E+00
   1.330000      0.0000000E+00
   1.340000      0.0000000E+00
   1.350000      0.0000000E+00
   1.360000      0.0000000E+00
   1.370000      0.0000000E+00
   1.380000      0.0000000E+00
   1.390000      0.0000000E+00
   1.400000      0.0000000E+00
   1.410000      0.0000000E+00
   1.420000      0.0000000E+00
   1.430000      0.0000000E+00
   1.440000      0.0000000E+00
   1.450000      0.0000000E+00
   1.460000      0.0000000E+00
   1.470000      0.0000000E+00
   1.480000      0.0000000E+00
   1.490000      0.0000000E+00
   1.500000      0.0000000E+00
   1.510000      0.0000000E+00
   1.520000      0.0000000E+00
   1.530000      0.0000000E+00
   1.540000      0.0000000E+00
   1.550000      0.0000000E+00
   1.560000      0.0000000E+00
   1.570000      0.0000000E+00
   1.580000      0.0000000E+00
   1.590000      0.0000000E+00
   1.600000      0.0000000E+00
   1.610000      0.0000000E+00
   1.620000      0.0000000E+00
   1.630000      0.0000000E+00
   1.640000      0.0000000E+00
   1.650000      0.0000000E+00
   1.660000      0.0000000E+00
   1.670000      0.0000000E+00
   1.680000      0.0000000E+00
   1.690000      0.0000000E+00
   1.700000      0.0000000E+00
   1.710000      0.0000000E+00
   1.720000      0.0000000E+00
   1.730000      0.0000000E+00
   1.740000      0.0000000E+00
   1.750000      0.0000000E+00
   1.760000      0.0000000E+00
   1.770000      0.0000000E+00
   1.780000      0.0000000E+00
   1.790000      0.0000000E+00
   1.800000      0.0000000E+00
   1.810000      0.0000000E+00
   1.820000      0.0000000E+00
   1.830000      0.0000000E+00
   1.840000      0.0000000E+00
   1.850000      0.0000000E+00
   1.860000      0.0000000E+00
   1.870000      0.0000000E+00
   1.880000      0.0000000E+00
   1.890000      0.0000000E+00
   1.900000      0.0000000E+00
   1.910000      0.0000000E+00
   1.920000      0.0000000E+00
   1.930000      0.0000000E+00
   1.940000      0.0000000E+00
   1.950000      0.0000000E+00
   1.960000      0.0000000E+00
   1.970000      0.0000000E+00
   1.980000      0.0000000E+00
   1.990000      0.0000000E+00
   2.000000      0.0000000E+00
   2.010000      0.0000000E+00
   2.020000      0.0000000E+00
   2.030000      0.0000000E+00
   2.040000      0.0000000E+00
   2.050000      0.0000000E+00
   2.060000      0.0000000E+00
   2.070000      0.0000000E+00
   2.080000      0.0000000E+00
   2.090000      0.0000000E+00
   2.100000      0.0000000E+00
   2.110000      0.0000000E+00
   2.120000      0.0000000E+00
   2.130000      0.0000000E+00
   2.140000      0.0000000E+00
   2.150000      0.0000000E+00
   2.160000      0.0000000E+00
   2.170000      0.0000000E+00
   2.180000      0.0000000E+00
   2.190000      0.0000000E+00
   2.200000      0.0000000E+00
   2.210000      0.0000000E+00
   2.220000      0.0000000E+00
   2.230000      0.0000000E+00
   2.240000      0.0000000E+00
   2.250000      0.0000000E+00
   2.260000      0.0000000E+00
   2.270000      0.0000000E+00
   2.280000      0.0000000E+00
   2.290000      0.0000000E+00
   2.300000      0.0000000E+00
   2.310000      0.0000000E+00
   2.320000      0.0000000E+00
   2.330000      0.0000000E+00
   2.340000      0.0000000E+00
   2.350000      0.0000000E+00
   2.360000      0.0000000E+00
   2.370000      0.0000000E+00
   2.380000      0.0000000E+00
   2.390000      0.0000000E+00
   2.400000      0.0000000E+00
   2.410000      0.0000000E+00
   2.420000      0.0000000E+00
   2.430000      0.0000000E+00
   2.440000      0.0000000E+00
   2.450000      0.0000000E+00
   2.460000      0.0000000E+00
   2.470000      0.0000000E+00
   2.480000      0.0000000E+00
   2.490000      0.0000000E+00
   2.500000      0.0000000E+00
   2.510000      0.0000000E+00
   2.520000      0.0000000E+00
   2.530000      0.0000000E+00
   2.540000      0.0000000E+00
   2.550000      0.0000000E+00
   2.560000      0.0000000E+00
   2.570000      0.0000000E+00
   2.580000      0.0000000E+00
   2.590000      0.0000000E+00
   2.600000      0.0000000E+00
   2.610000      0.0000000E+00
   2.620000      0.0000000E+00
   2.630000      0.0000000E+00
   2.640000      0.0000000E+00
   2.650000      1.3504777E-38
   2.660000      1.9392087E-38
   2.670000      2.4949371E-38
   2.680000      2.6313420E-38
   2.690000      2.3210274E-38
   2.700000      1.9992136E-38
   2.710000      1.4608699E-38
   2.720000      0.0000000E+00
   2.730000      0.0000000E+00
   2.740000     -2.3600686E-38
   2.750000     -4.0721478E-38
   2.760000     -5.7163566E-38
   2.770000     -7.4016523E-38
   2.780000     -9.1725702E-38
   2.790000     -9.6305033E-38
   2.800000     -8.6007457E-38
   2.810000     -7.1912827E-38
   2.820000     -5.2963073E-38
   2.830000     -2.9897297E-38
   2.840000      0.0000000E+00
   2.850000      3.1508625E-38
   2.860000      7.3609115E-38
   2.870000      1.2024320E-37
   2.880000      1.7586029E-37
   2.890000      2.3769551E-37
   2.900000      2.9514108E-37
   2.910000      3.4670471E-37
   2.920000      4.0736181E-37
   2.930000      4.7851872E-37
   2.940000      5.4596185E-37
   2.950000      5.9707704E-37
   2.960000      6.2297582E-37
   2.970000      6.3991498E-37
   2.980000      6.6474061E-37
   2.990000      6.9349638E-37
   3.000000      7.2784581E-37
   3.010000      7.7160005E-37
   3.020000      8.1021687E-37
   3.030000      8.4619235E-37
   3.040000      8.8704713E-37
   3.050000      9.2999054E-37
   3.060000      9.7720663E-37
   3.070000      1.0260463E-36
   3.080000      1.0721400E-36
   3.090000      1.1178897E-36
   3.100000      1.1669491E-36
   3.110000      1.2230587E-36
   3.120000      1.2823206E-36
   3.130000      1.3389776E-36
   3.140000      1.3817487E-36
   3.150000      1.3991859E-36
   3.160000      1.4013367E-36
   3.170000      1.3927438E-36
   3.180000      1.3776307E-36
   3.190000      1.3560067E-36
   3.200000      1.3250216E-36
   3.210000      1.2860063E-36
   3.220000      1.2363237E-36
   3.230000      1.1779313E-36
   3.240000      1.1119146E-36
   3.250000      1.0445768E-36
   3.260000      9.9970435E-37
   3.270000      9.6304692E-37
   3.280000      9.1114695E-37
   3.290000      8.5030253E-37
   3.300000      7.6692065E-37
   3.310000      6.6550767E-37
   3.320000      5.1283304E-37
   3.330000      2.9918525E-37
   3.340000      6.7951462E-38
   3.350000     -1.8145377E-37
   3.360000     -4.4814637E-37
   3.370000     -7.7316950E-37
   3.380000     -1.1827999E-36
   3.390000     -1.6142533E-36
   3.400000     -2.0465779E-36
   3.410000     -2.5123444E-36
   3.420000     -3.0250024E-36
   3.430000     -3.5450005E-36
   3.440000     -4.0798264E-36
   3.450000     -4.6183468E-36
   3.460000     -5.0884416E-36
   3.470000     -5.4680139E-36
   3.480000     -5.7715313E-36
   3.490000     -6.0083668E-36
   3.500000     -6.1771819E-36
   3.510000     -6.2799530E-36
   3.520000     -6.1691312E-36
   3.530000     -5.8870244E-36
   3.540000     -5.5348572E-36
   3.550000     -5.1018779E-36
   3.560000     -4.7150446E-36
   3.570000     -4.3891323E-36
   3.580000     -4.1588124E-36
   3.590000     -3.9072111E-36
   3.600000     -3.5912830E-36
   3.610000     -3.2966360E-36
   3.620000     -2.9811992E-36
   3.630000     -2.4621111E-36
   3.640000     -1.6561601E-36
   3.650000     -8.2003018E-37
   3.660000      2.6675440E-38
   3.670000      1.0260315E-36
   3.680000      2.0469621E-36
   3.690000      3.1877737E-36
   3.700000      4.4892677E-36
   3.710000      5.7929702E-36
   3.720000      7.1757911E-36
   3.730000      8.6728108E-36
   3.740000      1.0275000E-35
   3.750000      1.1948424E-35
   3.760000      1.3813412E-35
   3.770000      1.6080585E-35
   3.780000      1.8799276E-35
   3.790000      2.1824839E-35
   3.800000      2.5117132E-35
   3.810000      2.8782318E-35
   3.820000      3.2680924E-35
   3.830000      3.6489509E-35
   3.840000      4.0126097E-35
   3.850000      4.3621324E-35
   3.860000      4.6808001E-35
   3.870000      4.9517194E-35
   3.880000      5.1920001E-35
   3.890000      5.4425216E-35
   3.900000      5.7166931E-35
   3.910000      5.9858308E-35
   3.920000      6.2276847E-35
   3.930000      6.4297136E-35
   3.940000      6.5712746E-35
   3.950000      6.6530920E-35
   3.960000      6.6693314E-35
   3.970000      6.6326511E-35
   3.980000      6.5534309E-35
   3.990000      6.3829602E-35
   4.000000      6.1130912E-35
   4.010000      5.8127966E-35
   4.020000      5.4737204E-35
   4.030000      5.0496660E-35
   4.040000      4.5143190E-35
   4.050000      3.8580697E-35
   4.060000      3.1119178E-35
   4.070000      2.2200719E-35
   4.080000      1.1670218E-35
   4.090000     -8.4720229E-38
   4.100000     -1.3216322E-35
   4.110000     -2.7472282E-35
   4.120000     -4.2216918E-35
   4.130000     -5.7565588E-35
   4.140000     -7.4100954E-35
   4.150000     -9.1678274E-35
   4.160000     -1.1015306E-34
   4.170000     -1.2957202E-34
   4.180000     -1.5051934E-34
   4.190000     -1.7334010E-34
   4.200000     -1.9844308E-34
   4.210000     -2.2702678E-34
   4.220000     -2.5857742E-34
   4.230000     -2.9110036E-34
   4.240000     -3.2459203E-34
   4.250000     -3.5977554E-34
   4.260000     -3.9713980E-34
   4.270000     -4.3472747E-34
   4.280000     -4.7033839E-34
   4.290000     -5.0610184E-34
   4.300000     -5.4283301E-34
   4.310000     -5.8097614E-34
   4.320000     -6.1949149E-34
   4.330000     -6.5687731E-34
   4.340000     -6.9425174E-34
   4.350000     -7.3139323E-34
   4.360000     -7.6684320E-34
   4.370000     -7.9962526E-34
   4.380000     -8.2932238E-34
   4.390000     -8.5192383E-34
   4.400000     -8.6931279E-34
   4.410000     -8.8496367E-34
   4.420000     -8.9417596E-34
   4.430000     -8.9523106E-34
   4.440000     -8.8790773E-34
   4.450000     -8.7293597E-34
   4.460000     -8.5166255E-34
   4.470000     -8.2437097E-34
   4.480000     -7.9160058E-34
   4.490000     -7.5258285E-34
   4.500000     -7.0718218E-34
   4.510000     -6.5564616E-34
   4.520000     -5.9728645E-34
   4.530000     -5.3100271E-34
   4.540000     -4.5748684E-34
   4.550000     -3.7841402E-34
   4.560000     -2.9333890E-34
   4.570000     -1.9785691E-34
   4.580000     -8.7947055E-35
   4.590000      3.6440454E-35
   4.600000      1.7141960E-34
   4.610000      3.1506754E-34
   4.620000      4.7105296E-34
   4.630000      6.4100616E-34
   4.640000      8.2564005E-34
   4.650000      1.0278947E-33
   4.660000      1.2465383E-33
   4.670000      1.4817272E-33
   4.680000      1.7371033E-33
   4.690000      2.0111988E-33
   4.700000      2.2992690E-33
   4.710000      2.6008099E-33
   4.720000      2.9150612E-33
   4.730000      3.2382276E-33
   4.740000      3.5696696E-33
   4.750000      3.9069987E-33
   4.760000      4.2496648E-33
   4.770000      4.5964625E-33
   4.780000      4.9451578E-33
   4.790000      5.2938351E-33
   4.800000      5.6387233E-33
   4.810000      5.9769733E-33
   4.820000      6.3055449E-33
   4.830000      6.6211857E-33
   4.840000      6.9213504E-33
   4.850000      7.2028078E-33
   4.860000      7.4644854E-33
   4.870000      7.7035170E-33
   4.880000      7.9128858E-33
   4.890000      8.0890931E-33
   4.900000      8.2313015E-33
   4.910000      8.3376668E-33
   4.920000      8.4046127E-33
   4.930000      8.4262190E-33
   4.940000      8.3959023E-33
   4.950000      8.3120660E-33
   4.960000      8.1697482E-33
   4.970000      7.9647302E-33
   4.980000      7.6906542E-33
   4.990000      7.3404560E-33
   5.000000      6.9121353E-33
   5.010000      6.3979777E-33
   5.020000      5.7921672E-33
   5.030000      5.0883404E-33
   5.040000      4.2794809E-33
   5.050000      3.3605117E-33
   5.060000      2.3257707E-33
   5.070000      1.1712911E-33
   5.080000     -1.0703122E-34
   5.090000     -1.5136944E-33
   5.100000     -3.0547866E-33
   5.110000     -4.7333131E-33
   5.120000     -6.5512622E-33
   5.130000     -8.5114864E-33
   5.140000     -1.0614021E-32
   5.150000     -1.2859733E-32
   5.160000     -1.5249061E-32
   5.170000     -1.7779312E-32
   5.180000     -2.0447376E-32
   5.190000     -2.3249480E-32
   5.200000     -2.6180031E-32
   5.210000     -2.9233460E-32
   5.220000     -3.2404474E-32
   5.230000     -3.5686042E-32
   5.240000     -3.9068383E-32
   5.250000     -4.2540118E-32
   5.260000     -4.6089843E-32
   5.270000     -4.9702928E-32
   5.280000     -5.3365533E-32
   5.290000     -5.7062639E-32
   5.300000     -6.0774521E-32
   5.310000     -6.4481513E-32
   5.320000     -6.8162074E-32
   5.330000     -7.1792700E-32
   5.340000     -7.5347865E-32
   5.350000     -7.8800286E-32
   5.360000     -8.2119230E-32
   5.370000     -8.5273458E-32
   5.380000     -8.8230085E-32
   5.390000     -9.0952089E-32
   5.400000     -9.3401166E-32
   5.410000     -9.5536793E-32
   5.420000     -9.7315780E-32
   5.430000     -9.8692754E-32
   5.440000     -9.9620360E-32
   5.450000     -1.0004912E-31
   5.460000     -9.9927611E-32
   5.470000     -9.9202637E-32
   5.480000     -9.7819356E-32
   5.490000     -9.5721257E-32
   5.500000     -9.2850835E-32
   5.510000     -8.9149527E-32
   5.520000     -8.4557758E-32
   5.530000     -7.9015608E-32
   5.540000     -7.2462662E-32
   5.550000     -6.4838587E-32
   5.560000     -5.6083664E-32
   5.570000     -4.6138726E-32
   5.580000     -3.4946254E-32
   5.590000     -2.2449094E-32
   5.600000     -8.5918616E-33
   5.610000      6.6773362E-33
   5.620000      2.3408196E-32
   5.630000      4.1647356E-32
   5.640000      6.1437747E-32
   5.650000      8.2818085E-32
   5.660000      1.0582234E-31
   5.670000      1.3047893E-31
   5.680000      1.5681061E-31
   5.690000      1.8483396E-31
   5.700000      2.1455798E-31
   5.710000      2.4598352E-31
   5.720000      2.7910367E-31
   5.730000      3.1390081E-31
   5.740000      3.5034770E-31
   5.750000      3.8840654E-31
   5.760000      4.2802721E-31
   5.770000      4.6914788E-31
   5.780000      5.1169297E-31
   5.790000      5.5557248E-31
   5.800000      6.0068152E-31
   5.810000      6.4689913E-31
   5.820000      6.9408761E-31
   5.830000      7.4209165E-31
   5.840000      7.9073746E-31
   5.850000      8.3983213E-31
   5.860000      8.8916283E-31
   5.870000      9.3849579E-31
   5.880000      9.8757634E-31
   5.890000      1.0361276E-30
   5.900000      1.0838503E-30
   5.910000      1.1304222E-30
   5.920000      1.1754979E-30
   5.930000      1.2187080E-30
   5.940000      1.2596593E-30
   5.950000      1.2979345E-30
   5.960000      1.3330922E-30
   5.970000      1.3646668E-30
   5.980000      1.3921689E-30
   5.990000      1.4150852E-30
   6.000000      1.4328796E-30
   6.010000      1.4449928E-30
   6.020000      1.4508442E-30
   6.030000      1.4498316E-30
   6.040000      1.4413328E-30
   6.050000      1.4247066E-30
   6.060000      1.3992948E-30
   6.070000      1.3644229E-30
   6.080000      1.3194024E-30
   6.090000      1.2635329E-30
   6.100000      1.1961038E-30
   6.110000      1.1163976E-30
   6.120000      1.0236921E-30
   6.130000      9.1726326E-31
   6.140000      7.9638868E-31
   6.150000      6.6035130E-31
   6.160000      5.0844283E-31
   6.170000      3.3996813E-31
   6.180000      1.5424932E-31
   6.190000     -4.9369129E-32
   6.200000     -2.7151597E-31
   6.210000     -5.1278783E-31
   6.220000     -7.7374315E-31
   6.230000     -1.0548966E-30
   6.240000     -1.3567135E-30
   6.250000     -1.6796024E-30
   6.260000     -2.0239086E-30
   6.270000     -2.3899077E-30
   6.280000     -2.7777981E-30
   6.290000     -3.1876928E-30
   6.300000     -3.6196131E-30
   6.310000     -4.0734780E-30
   6.320000     -4.5490999E-30
   6.330000     -5.0461727E-30
   6.340000     -5.5642644E-30
   6.350000     -6.1028093E-30
   6.360000     -6.6610988E-30
   6.370000     -7.2382699E-30
   6.380000     -7.8333018E-30
   6.390000     -8.4449997E-30
   6.400000     -9.0719937E-30
   6.410000     -9.7127228E-30
   6.420000     -1.0365431E-29
   6.430000     -1.1028155E-29
   6.440000     -1.1698719E-29
   6.450000     -1.2374725E-29
   6.460000     -1.3053542E-29
   6.470000     -1.3732305E-29
   6.480000     -1.4407900E-29
   6.490000     -1.5076965E-29
   6.500000     -1.5735878E-29
   6.510000     -1.6380753E-29
   6.520000     -1.7007437E-29
   6.530000     -1.7611505E-29
   6.540000     -1.8188255E-29
   6.550000     -1.8732711E-29
   6.560000     -1.9239614E-29
   6.570000     -1.9703428E-29
   6.580000     -2.0118336E-29
   6.590000     -2.0478252E-29
   6.600000     -2.0776812E-29
   6.610000     -2.1007389E-29
   6.620000     -2.1163096E-29
   6.630000     -2.1236795E-29
   6.640000     -2.1221106E-29
   6.650000     -2.1108422E-29
   6.660000     -2.0890919E-29
   6.670000     -2.0560580E-29
   6.680000     -2.0109202E-29
   6.690000     -1.9528430E-29
   6.700000     -1.8809772E-29
   6.710000     -1.7944619E-29
   6.720000     -1.6924288E-29
   6.730000     -1.5740043E-29
   6.740000     -1.4383126E-29
   6.750000     -1.2844802E-29
   6.760000     -1.1116385E-29
   6.770000     -9.1892956E-30
   6.780000     -7.0550959E-30
   6.790000     -4.7055434E-30
   6.800000     -2.1326313E-30
   6.810000      6.7134678E-31
   6.820000      3.7137440E-30
   6.830000      7.0015032E-30
   6.840000      1.0541088E-29
   6.850000      1.4338418E-29
   6.860000      1.8398801E-29
   6.870000      2.2726867E-29
   6.880000      2.7326478E-29
   6.890000      3.2200670E-29
   6.900000      3.7351549E-29
   6.910000      4.2780233E-29
   6.920000      4.8486749E-29
   6.930000      5.4469945E-29
   6.940000      6.0727418E-29
   6.950000      6.7255412E-29
   6.960000      7.4048708E-29
   6.970000      8.1100549E-29
   6.980000      8.8402556E-29
   6.990000      9.5944594E-29
   7.000000      1.0371471E-28
   7.010000      1.1169903E-28
   7.020000      1.1988162E-28
   7.030000      1.2824445E-28
   7.040000      1.3676728E-28
   7.050000      1.4542755E-28
   7.060000      1.5420029E-28