  -2.600000      0.0000000E+00
  -2.590000      0.0000000E+00
  -2.580000      0.0000000E+00
  -2.570000      0.0000000E+00
  -2.560000      0.0000000E+00
  -2.550000      0.0000000E+00
  -2.540000      0.0000000E+00
  -2.530000      0.0000000E+00
  -2.520000      0.0000000E+00
  -2.510000      0.0000000E+00
  -2.500000      0.0000000E+00
  -2.490000      0.0000000E+00
  -2.480000      0.0000000E+00
  -2.470000      0.0000000E+00
  -2.460000      0.0000000E+00
  -2.450000      0.0000000E+00
  -2.440000      0.0000000E+00
  -2.430000      0.0000000E+00
  -2.420000      0.0000000E+00
  -2.410000      0.0000000E+00
  -2.400000      0.0000000E+00
  -2.390000      0.0000000E+00
  -2.380000      0.0000000E+00
  -2.370000      0.0000000E+00
  -2.360000      0.0000000E+00
  -2.350000      0.0000000E+00
  -2.340000      0.0000000E+00
  -2.330000      0.0000000E+00
  -2.320000      0.0000000E+00
  -2.310000      0.0000000E+00
  -2.300000      0.0000000E+00
  -2.290000      0.0000000E+00
  -2.280000      0.0000000E+00
  -2.270000      0.0000000E+00
  -2.260000      0.0000000E+00
  -2.250000      0.0000000E+00
  -2.240000      0.0000000E+00
  -2.230000      0.0000000E+00
  -2.220000      0.0000000E+00
  -2.210000      0.0000000E+00
  -2.200000      0.0000000E+00
  -2.190000      0.0000000E+00
  -2.180000      0.0000000E+00
  -2.170000      0.0000000E+00
  -2.160000      0.0000000E+00
  -2.150000      0.0000000E+00
  -2.140000      0.0000000E+00
  -2.130000      0.0000000E+00
  -2.120000      0.0000000E+00
  -2.110000      0.0000000E+00
  -2.100000      0.0000000E+00
  -2.090000      0.0000000E+00
  -2.080000      0.0000000E+00
  -2.070000      0.0000000E+00
  -2.060000      0.0000000E+00
  -2.050000      0.0000000E+00
  -2.040000      0.0000000E+00
  -2.030000      0.0000000E+00
  -2.020000      0.0000000E+00
  -2.010000      0.0000000E+00
  -2.000000      0.0000000E+00
  -1.990000      0.0000000E+00
  -1.980000      0.0000000E+00
  -1.970000      0.0000000E+00
  -1.960000      0.0000000E+00
  -1.950000      0.0000000E+00
  -1.940000      0.0000000E+00
  -1.930000      0.0000000E+00
  -1.920000      0.0000000E+00
  -1.910000      0.0000000E+00
  -1.900000      0.0000000E+00
  -1.890000      0.0000000E+00
  -1.880000      0.0000000E+00
  -1.870000      0.0000000E+00
  -1.860000      0.0000000E+00
  -1.850000      0.0000000E+00
  -1.840000      0.0000000E+00
  -1.830000      0.0000000E+00
  -1.820000      0.0000000E+00
  -1.810000      0.0000000E+00
  -1.800000      0.0000000E+00
  -1.790000      0.0000000E+00
  -1.780000      0.0000000E+00
  -1.770000      0.0000000E+00
  -1.760000      0.0000000E+00
  -1.750000      0.0000000E+00
  -1.740000      0.0000000E+00
  -1.730000      0.0000000E+00
  -1.720000      0.0000000E+00
  -1.710000      0.0000000E+00
  -1.700000      0.0000000E+00
  -1.690000      0.0000000E+00
  -1.680000      0.0000000E+00
  -1.670000      0.0000000E+00
  -1.660000      0.0000000E+00
  -1.650000      0.0000000E+00
  -1.640000      0.0000000E+00
  -1.630000      0.0000000E+00
  -1.620000      0.0000000E+00
  -1.610000      0.0000000E+00
  -1.600000      0.0000000E+00
  -1.590000      0.0000000E+00
  -1.580000      0.0000000E+00
  -1.570000      0.0000000E+00
  -1.560000      0.0000000E+00
  -1.550000      0.0000000E+00
  -1.540000      0.0000000E+00
  -1.530000      0.0000000E+00
  -1.520000      0.0000000E+00
  -1.510000      0.0000000E+00
  -1.500000      0.0000000E+00
  -1.490000      0.0000000E+00
  -1.480000      0.0000000E+00
  -1.470000      0.0000000E+00
  -1.460000      0.0000000E+00
  -1.450000      0.0000000E+00
  -1.440000      0.0000000E+00
  -1.430000      0.0000000E+00
  -1.420000      0.0000000E+00
  -1.410000      0.0000000E+00
  -1.400000      0.0000000E+00
  -1.390000      0.0000000E+00
  -1.380000      0.0000000E+00
  -1.370000      0.0000000E+00
  -1.360000      0.0000000E+00
  -1.350000      0.0000000E+00
  -1.340000      0.0000000E+00
  -1.330000      0.0000000E+00
  -1.320000      0.0000000E+00
  -1.310000      0.0000000E+00
  -1.300000      0.0000000E+00
  -1.290000      0.0000000E+00
  -1.280000      0.0000000E+00
  -1.270000      0.0000000E+00
  -1.260000      0.0000000E+00
  -1.250000      0.0000000E+00
  -1.240000      0.0000000E+00
  -1.230000      0.0000000E+00
  -1.220000      0.0000000E+00
  -1.210000      0.0000000E+00
  -1.200000      0.0000000E+00
  -1.190000      0.0000000E+00
  -1.180000      0.0000000E+00
  -1.170000      0.0000000E+00
  -1.160000      0.0000000E+00
  -1.150000      0.0000000E+00
  -1.140000      0.0000000E+00
  -1.130000      0.0000000E+00
  -1.120000      0.0000000E+00
  -1.110000      0.0000000E+00
  -1.100000      0.0000000E+00
  -1.090000      0.0000000E+00
  -1.080000      0.0000000E+00
  -1.070000      0.0000000E+00
  -1.060000      0.0000000E+00
  -1.050000      0.0000000E+00
  -1.040000      0.0000000E+00
  -1.030000      0.0000000E+00
  -1.020000      0.0000000E+00
  -1.010000      0.0000000E+00
  -1.000000      0.0000000E+00
 -0.9900000      0.0000000E+00
 -0.9800000      0.0000000E+00
 -0.9700000      0.0000000E+00
 -0.9600000      0.0000000E+00
 -0.9500000      0.0000000E+00
 -0.9400000      0.0000000E+00
 -0.9300000      0.0000000E+00
 -0.9200000      0.0000000E+00
 -0.9100000      0.0000000E+00
 -0.9000000      0.0000000E+00
 -0.8900000      0.0000000E+00
 -0.8800000      0.0000000E+00
 -0.8700000      0.0000000E+00
 -0.8600000      0.0000000E+00
 -0.8500000      0.0000000E+00
 -0.8400000      0.0000000E+00
 -0.8300000      0.0000000E+00
 -0.8200000      0.0000000E+00
 -0.8100000      0.0000000E+00
 -0.8000000      0.0000000E+00
 -0.7900000      0.0000000E+00
 -0.7800000      0.0000000E+00
 -0.7700000      0.0000000E+00
 -0.7600000      0.0000000E+00
 -0.7500000      0.0000000E+00
 -0.7400000      0.0000000E+00
 -0.7300000      0.0000000E+00
 -0.7200000      0.0000000E+00
 -0.7100000      0.0000000E+00
 -0.7000000      0.0000000E+00
 -0.6900000      0.0000000E+00
 -0.6800000      0.0000000E+00
 -0.6700000      0.0000000E+00
 -0.6600000      0.0000000E+00
 -0.6500000      0.0000000E+00
 -0.6400000      0.0000000E+00
 -0.6300000      0.0000000E+00
 -0.6200000      0.0000000E+00
 -0.6100000      0.0000000E+00
 -0.6000000      0.0000000E+00
 -0.5900000      0.0000000E+00
 -0.5800000      0.0000000E+00
 -0.5700000      0.0000000E+00
 -0.5600000      0.0000000E+00
 -0.5500000      0.0000000E+00
 -0.5400000      0.0000000E+00
 -0.5300000      0.0000000E+00
 -0.5200000      0.0000000E+00
 -0.5100000      0.0000000E+00
 -0.5000000      0.0000000E+00
 -0.4900000      0.0000000E+00
 -0.4800000      0.0000000E+00
 -0.4700000      0.0000000E+00
 -0.4600000      0.0000000E+00
 -0.4500000      0.0000000E+00
 -0.4400000      0.0000000E+00
 -0.4300000      0.0000000E+00
 -0.4200000      0.0000000E+00
 -0.4100000      0.0000000E+00
 -0.4000000      0.0000000E+00
 -0.3900000      0.0000000E+00
 -0.3800000      0.0000000E+00
 -0.3700000      0.0000000E+00
 -0.3600000      0.0000000E+00
 -0.3500000      0.0000000E+00
 -0.3400000      0.0000000E+00
 -0.3300000      0.0000000E+00
 -0.3200000      0.0000000E+00
 -0.3100000      0.0000000E+00
 -0.3000000      0.0000000E+00
 -0.2900000      0.0000000E+00
 -0.2800000      0.0000000E+00
 -0.2700000      0.0000000E+00
 -0.2600000      0.0000000E+00
 -0.2500000      0.0000000E+00
 -0.2400000      0.0000000E+00
 -0.2300000      0.0000000E+00
 -0.2200000      0.0000000E+00
 -0.2100000      0.0000000E+00
 -0.2000000      0.0000000E+00
 -0.1900000      0.0000000E+00
 -0.1800000      0.0000000E+00
 -0.1700000      0.0000000E+00
 -0.1600000      0.0000000E+00
 -0.1500000      0.0000000E+00
 -0.1400000      0.0000000E+00
 -0.1300000      0.0000000E+00
 -0.1200000      0.0000000E+00
 -0.1100000      0.0000000E+00
 -0.1000000      0.0000000E+00
 -9.0000004E-02  0.0000000E+00
 -7.9999998E-02  0.0000000E+00
 -7.0000000E-02  0.0000000E+00
 -5.9999999E-02  0.0000000E+00
 -5.0000001E-02  0.0000000E+00
 -3.9999999E-02  0.0000000E+00
 -2.9999999E-02  0.0000000E+00
 -2.0000000E-02  0.0000000E+00
 -9.9999998E-03  0.0000000E+00
 -3.4694470E-17  0.0000000E+00
  9.9999998E-03  0.0000000E+00
  2.0000000E-02  0.0000000E+00
  2.9999999E-02  0.0000000E+00
  3.9999999E-02  0.0000000E+00
  5.0000001E-02  0.0000000E+00
  5.9999999E-02  0.0000000E+00
  7.0000000E-02  0.0000000E+00
  7.9999998E-02  0.0000000E+00
  9.0000004E-02  0.0000000E+00
  0.1000000      0.0000000E+00
  0.1100000      0.0000000E+00
  0.1200000      0.0000000E+00
  0.1300000      0.0000000E+00
  0.1400000      0.0000000E+00
  0.1500000      0.0000000E+00
  0.1600000      0.0000000E+00
  0.1700000      0.0000000E+00
  0.1800000      0.0000000E+00
  0.1900000      0.0000000E+00
  0.2000000      0.0000000E+00
  0.2100000      0.0000000E+00
  0.2200000      0.0000000E+00
  0.2300000      0.0000000E+00
  0.2400000      0.0000000E+00
  0.2500000      0.0000000E+00
  0.2600000      0.0000000E+00
  0.2700000      0.0000000E+00
  0.2800000      0.0000000E+00
  0.2900000      0.0000000E+00
  0.3000000      0.0000000E+00
  0.3100000      0.0000000E+00
  0.3200000      0.0000000E+00
  0.3300000      0.0000000E+00
  0.3400000      0.0000000E+00
  0.3500000      0.0000000E+00
  0.3600000      0.0000000E+00
  0.3700000      0.0000000E+00
  0.3800000      0.0000000E+00
  0.3900000      0.0000000E+00
  0.4000000      0.0000000E+00
  0.4100000      0.0000000E+00
  0.4200000      0.0000000E+00
  0.4300000      0.0000000E+00
  0.4400000      0.0000000E+00
  0.4500000      0.0000000E+00
  0.4600000      0.0000000E+00
  0.4700000      0.0000000E+00
  0.4800000      0.0000000E+00
  0.4900000      0.0000000E+00
  0.5000000      0.0000000E+00
  0.5100000      0.0000000E+00
  0.5200000      0.0000000E+00
  0.5300000      0.0000000E+00
  0.5400000      0.0000000E+00
  0.5500000      0.0000000E+00
  0.5600000      0.0000000E+00
  0.5700000      0.0000000E+00
  0.5800000      0.0000000E+00
  0.5900000      0.0000000E+00
  0.6000000      0.0000000E+00
  0.6100000      0.0000000E+00
  0.6200000      0.0000000E+00
  0.6300000      0.0000000E+00
  0.6400000      0.0000000E+00
  0.6500000      0.0000000E+00
  0.6600000      0.0000000E+00
  0.6700000      0.0000000E+00
  0.6800000      0.0000000E+00
  0.6900000      0.0000000E+00
  0.7000000      0.0000000E+00
  0.7100000      0.0000000E+00
  0.7200000      0.0000000E+00
  0.7300000      0.0000000E+00
  0.7400000      0.0000000E+00
  0.7500000     -1.3116749E-38
  0.7600000     -1.7068216E-38
  0.7700000     -2.2036860E-38
  0.7800000     -2.8189977E-38
  0.7900000     -3.6463980E-38
  0.8000000     -4.8141749E-38
  0.8100000     -6.3810166E-38
  0.8200000     -8.2722471E-38
  0.8300000     -9.9590439E-38
  0.8400000     -1.1293099E-37
  0.8500000     -1.2329818E-37
  0.8600000     -1.3030409E-37
  0.8700000     -1.3411321E-37
  0.8800000     -1.3470766E-37
  0.8900000     -1.3391314E-37
  0.9000000     -1.3479837E-37
  0.9100000     -1.3709893E-37
  0.9200000     -1.3801421E-37
  0.9300000     -1.4300955E-37
  0.9400000     -1.5092220E-37
  0.9500000     -1.5571325E-37
  0.9600000     -1.5545413E-37
  0.9700000     -1.5397658E-37
  0.9800000     -1.5421114E-37
  0.9900000     -1.4996873E-37
   1.000000     -1.3876184E-37
   1.010000     -1.2097806E-37
   1.020000     -9.5166394E-38
   1.030000     -5.8608552E-38
   1.040000      0.0000000E+00
   1.050000      7.1222956E-38
   1.060000      7.9699825E-38
   1.070000      0.0000000E+00
   1.080000     -1.0797923E-37
   1.090000     -2.3335861E-37
   1.100000     -3.9203313E-37
   1.110000     -6.9400214E-37
   1.120000     -1.1529323E-36
   1.130000     -1.7028256E-36
   1.140000     -2.3452432E-36
   1.150000     -2.5757937E-36
   1.160000     -2.2647876E-36
   1.170000     -1.7831883E-36
   1.180000     -1.1833271E-36
   1.190000     -5.1821910E-37
   1.200000      1.4816290E-37
   1.210000      7.2279486E-37
   1.220000      1.1489119E-36
   1.230000      1.3746770E-36
   1.240000      1.3573712E-36
   1.250000      7.3379795E-37
   1.260000     -4.1347219E-37
   1.270000     -1.6176615E-36
   1.280000     -2.3784016E-36
   1.290000     -2.6041334E-36
   1.300000     -2.6522843E-36
   1.310000     -2.4337425E-36
   1.320000     -1.3247693E-36
   1.330000      6.2233902E-37
   1.340000      2.8193519E-36
   1.350000      5.1001804E-36
   1.360000      7.1373723E-36
   1.370000      8.5722143E-36
   1.380000      9.6593256E-36
   1.390000      1.0893879E-35
   1.400000      1.1131185E-35
   1.410000      1.0445892E-35
   1.420000      9.9204262E-36
   1.430000      9.5661872E-36
   1.440000      9.6186856E-36
   1.450000      1.0076839E-35
   1.460000      1.0760908E-35
   1.470000      1.1483447E-35
   1.480000      1.2374057E-35
   1.490000      1.3644249E-35
   1.500000      1.5213039E-35
   1.510000      1.6930241E-35
   1.520000      1.9064851E-35
   1.530000      2.1672488E-35
   1.540000      2.4410750E-35
   1.550000      2.6987499E-35
   1.560000      2.8433977E-35
   1.570000      2.8598211E-35
   1.580000      2.8074912E-35
   1.590000      2.6840201E-35
   1.600000      2.5172468E-35
   1.610000      2.4251255E-35
   1.620000      2.4337112E-35
   1.630000      2.4960589E-35
   1.640000      2.6033300E-35
   1.650000      2.7357754E-35
   1.660000      2.8711094E-35
   1.670000      3.0749305E-35
   1.680000      3.1950005E-35
   1.690000      3.0683026E-35
   1.700000      2.8016246E-35
   1.710000      2.4230948E-35
   1.720000      1.9760829E-35
   1.730000      1.4126787E-35
   1.740000      7.1129232E-36
   1.750000     -4.9247014E-37
   1.760000     -8.4378748E-36
   1.770000     -1.6057178E-35
   1.780000     -2.3334704E-35
   1.790000     -3.1288956E-35
   1.800000     -4.0266149E-35
   1.810000     -5.1241790E-35
   1.820000     -6.4740943E-35
   1.830000     -7.8906189E-35
   1.840000     -9.3475328E-35
   1.850000     -1.1072145E-34
   1.860000     -1.3113149E-34
   1.870000     -1.5337061E-34
   1.880000     -1.7703496E-34
   1.890000     -2.0250976E-34
   1.900000     -2.3065816E-34
   1.910000     -2.5493527E-34
   1.920000     -2.7276366E-34
   1.930000     -2.8899017E-34
   1.940000     -3.0624824E-34
   1.950000     -3.3292317E-34
   1.960000     -3.6878828E-34
   1.970000     -4.1411513E-34
   1.980000     -4.6380838E-34
   1.990000     -5.1001068E-34
   2.000000     -5.5456756E-34
   2.010000     -6.0517310E-34
   2.020000     -6.6151532E-34
   2.030000     -7.0484037E-34
   2.040000     -7.2425407E-34
   2.050000     -7.1181069E-34
   2.060000     -6.8592543E-34
   2.070000     -6.6263985E-34
   2.080000     -6.2863886E-34
   2.090000     -5.7020444E-34
   2.100000     -4.9596012E-34
   2.110000     -4.3299830E-34
   2.120000     -3.8582691E-34
   2.130000     -3.4713064E-34
   2.140000     -3.1792790E-34
   2.150000     -3.0113387E-34
   2.160000     -2.8910005E-34
   2.170000     -2.6952722E-34
   2.180000     -2.4160057E-34
   2.190000     -1.9863318E-34
   2.200000     -1.3089857E-34
   2.210000     -3.5208627E-35
   2.220000      1.0371306E-34
   2.230000      2.8654064E-34
   2.240000      4.9735203E-34
   2.250000      7.3218839E-34
   2.260000      9.9149927E-34
   2.270000      1.2693650E-33
   2.280000      1.5489236E-33
   2.290000      1.8184995E-33
   2.300000      2.0764145E-33
   2.310000      2.3178102E-33
   2.320000      2.5427860E-33
   2.330000      2.7591169E-33
   2.340000      2.9732061E-33
   2.350000      3.1890339E-33
   2.360000      3.4122559E-33
   2.370000      3.6507864E-33
   2.380000      3.9058625E-33
   2.390000      4.1818737E-33
   2.400000      4.4686785E-33
   2.410000      4.7669951E-33
   2.420000      5.0819387E-33
   2.430000      5.3925124E-33
   2.440000      5.6852766E-33
   2.450000      5.9470544E-33
   2.460000      6.1640764E-33
   2.470000      6.3245894E-33
   2.480000      6.4194070E-33
   2.490000      6.4419941E-33
   2.500000      6.3906309E-33
   2.510000      6.2659646E-33
   2.520000      6.0697283E-33
   2.530000      5.8035166E-33
   2.540000      5.4739638E-33
   2.550000      5.0868835E-33
   2.560000      4.6409410E-33
   2.570000      4.1339561E-33
   2.580000      3.5604247E-33
   2.590000      2.9119706E-33
   2.600000      2.1773735E-33
   2.610000      1.3437459E-33
   2.620000      3.9690011E-34
   2.630000     -6.7613783E-34
   2.640000     -1.8863555E-33
   2.650000     -3.2417482E-33
   2.660000     -4.7452914E-33
   2.670000     -6.3958545E-33
   2.680000     -8.1877751E-33
   2.690000     -1.0111432E-32
   2.700000     -1.2154276E-32
   2.710000     -1.4301439E-32
   2.720000     -1.6537413E-32
   2.730000     -1.8847725E-32
   2.740000     -2.1220393E-32
   2.750000     -2.3642871E-32
   2.760000     -2.6104711E-32
   2.770000     -2.8600286E-32
   2.780000     -3.1123925E-32
   2.790000     -3.3669535E-32
   2.800000     -3.6233276E-32
   2.810000     -3.8801000E-32
   2.820000     -4.1354473E-32
   2.830000     -4.3877857E-32
   2.840000     -4.6346322E-32
   2.850000     -4.8729463E-32
   2.860000     -5.0991599E-32
   2.870000     -5.3092895E-32
   2.880000     -5.4990578E-32
   2.890000     -5.6640367E-32
   2.900000     -5.7998010E-32
   2.910000     -5.9020607E-32
   2.920000     -5.9667588E-32
   2.930000     -5.9901335E-32
   2.940000     -5.9687271E-32
   2.950000     -5.8993548E-32
   2.960000     -5.7790082E-32
   2.970000     -5.6047635E-32
   2.980000     -5.3736790E-32
   2.990000     -5.0826630E-32
   3.000000     -4.7284237E-32
   3.010000     -4.3074098E-32
   3.020000     -3.8157960E-32
   3.030000     -3.2496794E-32
   3.040000     -2.6048490E-32
   3.050000     -1.8771832E-32
   3.060000     -1.0630467E-32
   3.070000     -1.5914032E-33
   3.080000      8.3719508E-33
   3.090000      1.9278451E-32
   3.100000      3.1138134E-32
   3.110000      4.3951587E-32
   3.120000      5.7709855E-32
   3.130000      7.2394912E-32
   3.140000      8.7980333E-32
   3.150000      1.0443223E-31
   3.160000      1.2171032E-31
   3.170000      1.3976859E-31
   3.180000      1.5855577E-31
   3.190000      1.7801541E-31
   3.200000      1.9808540E-31
   3.210000      2.1869692E-31
   3.220000      2.3977308E-31
   3.230000      2.6122726E-31
   3.240000      2.8296133E-31
   3.250000      3.0486535E-31
   3.260000      3.2681240E-31
   3.270000      3.4866018E-31
   3.280000      3.7025352E-31
   3.290000      3.9142076E-31
   3.300000      4.1197583E-31
   3.310000      4.3171977E-31
   3.320000      4.5044201E-31
   3.330000      4.6792278E-31
   3.340000      4.8393452E-31
   3.350000      4.9824367E-31
   3.360000      5.1061194E-31
   3.370000      5.2079708E-31
   3.380000      5.2855346E-31
   3.390000      5.3363207E-31
   3.400000      5.3578036E-31
   3.410000      5.3474188E-31
   3.420000      5.3025624E-31
   3.430000      5.2205905E-31
   3.440000      5.0988262E-31
   3.450000      4.9345739E-31
   3.460000      4.7251356E-31
   3.470000      4.4678368E-31
   3.480000      4.1600581E-31
   3.490000      3.7992706E-31
   3.500000      3.3830744E-31
   3.510000      2.9092376E-31
   3.520000      2.3757343E-31
   3.530000      1.7807778E-31
   3.540000      1.1228524E-31
   3.550000      4.0073992E-32
   3.560000     -3.8645996E-32
   3.570000     -1.2393092E-31
   3.580000     -2.1580177E-31
   3.590000     -3.1424262E-31
   3.600000     -4.1919892E-31
   3.610000     -5.3057536E-31
   3.620000     -6.4823360E-31
   3.630000     -7.7198936E-31
   3.640000     -9.0160887E-31
   3.650000     -1.0368051E-30
   3.660000     -1.1772335E-30
   3.670000     -1.3224884E-30
   3.680000     -1.4720982E-30
   3.690000     -1.6255221E-30
   3.700000     -1.7821470E-30
   3.710000     -1.9412851E-30
   3.720000     -2.1021717E-30
   3.730000     -2.2639651E-30
   3.740000     -2.4257456E-30
   3.750000     -2.5865164E-30
   3.760000     -2.7452049E-30
   3.770000     -2.9006626E-30
   3.780000     -3.0516683E-30
   3.790000     -3.1969275E-30
   3.800000     -3.3350757E-30
   3.810000     -3.4646773E-30
   3.820000     -3.5842290E-30
   3.830000     -3.6921608E-30
   3.840000     -3.7868361E-30
   3.850000     -3.8665568E-30
   3.860000     -3.9295621E-30
   3.870000     -3.9740380E-30
   3.880000     -3.9981181E-30
   3.890000     -3.9998939E-30
   3.900000     -3.9774192E-30
   3.910000     -3.9287218E-30
   3.920000     -3.8518129E-30
   3.930000     -3.7446996E-30
   3.940000     -3.6053954E-30
   3.950000     -3.4319361E-30
   3.960000     -3.2223885E-30
   3.970000     -2.9748698E-30
   3.980000     -2.6875581E-30
   3.990000     -2.3587065E-30
   4.000000     -1.9866607E-30
   4.010000     -1.5698741E-30
   4.020000     -1.1069227E-30
   4.030000     -5.9652139E-31
   4.040000     -3.7542436E-32
   4.050000      5.7096572E-31
   4.060000      1.2297586E-30
   4.070000      1.9393757E-30
   4.080000      2.7001156E-30
   4.090000      3.5120168E-30
   4.100000      4.3748322E-30
   4.110000      5.2880067E-30
   4.120000      6.2506500E-30
   4.130000      7.2615172E-30
   4.140000      8.3189822E-30
   4.150000      9.4210166E-30
   4.160000      1.0565164E-29
   4.170000      1.1748521E-29
   4.180000      1.2967715E-29
   4.190000      1.4218888E-29
   4.200000      1.5497663E-29
   4.210000      1.6799144E-29
   4.220000      1.8117884E-29
   4.230000      1.9447863E-29
   4.240000      2.0782484E-29
   4.250000      2.2114548E-29
   4.260000      2.3436237E-29
   4.270000      2.4739110E-29
   4.280000      2.6014083E-29
   4.290000      2.7251424E-29
   4.300000      2.8440746E-29
   4.310000      2.9570999E-29
   4.320000      3.0630489E-29
   4.330000      3.1606864E-29
   4.340000      3.2487131E-29
   4.350000      3.3257662E-29
   4.360000      3.3904230E-29
   4.370000      3.4412011E-29
   4.380000      3.4765629E-29
   4.390000      3.4949171E-29
   4.400000      3.4946222E-29
   4.410000      3.4739912E-29
   4.420000      3.4312967E-29
   4.430000      3.3647735E-29
   4.440000      3.2726280E-29
   4.450000      3.1530416E-29
   4.460000      3.0041781E-29
   4.470000      2.8241900E-29
   4.480000      2.6112288E-29
   4.490000      2.3634517E-29
   4.500000      2.0790320E-29
   4.510000      1.7561711E-29
   4.520000      1.3931071E-29
   4.530000      9.8812619E-30
   4.540000      5.3957756E-30
   4.550000      4.5885657E-31
   4.560000     -4.9443632E-30
   4.570000     -1.0827712E-29
   4.580000     -1.7203810E-29
   4.590000     -2.4083935E-29
   4.600000     -3.1477829E-29
   4.610000     -3.9393543E-29
   4.620000     -4.7837235E-29
   4.630000     -5.6812989E-29
   4.640000     -6.6322630E-29
   4.650000     -7.6365500E-29
   4.660000     -8.6938271E-29
   4.670000     -9.8034715E-29
   4.680000     -1.0964551E-28
   4.690000     -1.2175801E-28
   4.700000     -1.3435601E-28
   4.710000     -1.4741951E-28
   4.720000     -1.6092453E-28
   4.730000     -1.7484285E-28
   4.740000     -1.8914176E-28
   4.750000     -2.0378390E-28
   4.760000     -2.1872702E-28
   4.770000     -2.3392364E-28
   4.780000     -2.4932109E-28
   4.790000     -2.6486106E-28
   4.800000     -2.8047958E-28
   4.810000     -2.9610665E-28
   4.820000     -3.1166629E-28
   4.830000     -3.2707616E-28
   4.840000     -3.4224755E-28
   4.850000     -3.5708525E-28
   4.860000     -3.7148731E-28
   4.870000     -3.8534497E-28
   4.880000     -3.9854263E-28
   4.890000     -4.1095782E-28
   4.900000     -4.2246111E-28
   4.910000     -4.3291602E-28
   4.920000     -4.4217926E-28
   4.930000     -4.5010052E-28
   4.940000     -4.5652277E-28
   4.950000     -4.6128237E-28
   4.960000     -4.6420925E-28
   4.970000     -4.6512696E-28
   4.980000     -4.6385310E-28
   4.990000     -4.6019961E-28
   5.000000     -4.5397318E-28
   5.010000     -4.4497567E-28
   5.020000     -4.3300423E-28
   5.030000     -4.1785236E-28
   5.040000     -3.9931001E-28
   5.050000     -3.7716456E-28
   5.060000     -3.5120127E-28
   5.070000     -3.2120438E-28
   5.080000     -2.8695774E-28
   5.090000     -2.4824580E-28
   5.100000     -2.0485469E-28
   5.110000     -1.5657323E-28
   5.120000     -1.0319383E-28
   5.130000     -4.4513941E-29
   5.140000      1.9662622E-29
   5.150000      8.9524272E-29
   5.160000      1.6525040E-28
   5.170000      2.4700964E-28
   5.180000      3.3495843E-28
   5.190000      4.2923937E-28
   5.200000      5.2997918E-28
   5.210000      6.3728719E-28
   5.220000      7.5125313E-28
   5.230000      8.7194543E-28
   5.240000      9.9940896E-28
   5.250000      1.1336629E-27
   5.260000      1.2746986E-27
   5.270000      1.4224772E-27
   5.280000      1.5769277E-27
   5.290000      1.7379440E-27
   5.300000      1.9053834E-27
   5.310000      2.0790628E-27
   5.320000      2.2587576E-27
   5.330000      2.4441985E-27
   5.340000      2.6350689E-27
   5.350000      2.8310028E-27
   5.360000      3.0315819E-27
   5.370000      3.2363327E-27
   5.380000      3.4447260E-27
   5.390000      3.6561712E-27
   5.400000      3.8700168E-27
   5.410000      4.0855461E-27
   5.420000      4.3019778E-27
   5.430000      4.5184597E-27
   5.440000      4.7340706E-27
   5.450000      4.9478165E-27
   5.460000      5.1586288E-27
   5.470000      5.3653635E-27
   5.480000      5.5667996E-27
   5.490000      5.7616374E-27
   5.500000      5.9484969E-27
   5.510000      6.1259194E-27
   5.520000      6.2923656E-27
   5.530000      6.4462150E-27
   5.540000      6.5857660E-27
   5.550000      6.7092397E-27
   5.560000      6.8147783E-27
   5.570000      6.9004444E-27
   5.580000      6.9642235E-27
   5.590000      7.0040302E-27
   5.600000      7.0177082E-27
   5.610000      7.0030310E-27
   5.620000      6.9577085E-27
   5.630000      6.8793917E-27
   5.640000      6.7656740E-27
   5.650000      6.6140995E-27
   5.660000      6.4221686E-27
   5.670000      6.1873404E-27
   5.680000      5.9070455E-27
   5.690000      5.5786926E-27
   5.700000      5.1996742E-27
   5.710000      4.7673803E-27
   5.720000      4.2792060E-27
   5.730000      3.7325628E-27
   5.740000      3.1248895E-27
   5.750000      2.4536688E-27
   5.760000      1.7164365E-27
   5.770000      9.1079692E-28
   5.780000      3.4437027E-29
   5.790000     -9.1485553E-28
   5.800000     -1.9391803E-27
   5.810000     -3.0405091E-27
   5.820000     -4.2206601E-27
   5.830000     -5.4812825E-27
   5.840000     -6.8238387E-27
   5.850000     -8.2495822E-27
   5.860000     -9.7595344E-27
   5.870000     -1.1354463E-26
   5.880000     -1.3034859E-26
   5.890000     -1.4800920E-26
   5.900000     -1.6652519E-26
   5.910000     -1.8589184E-26
   5.920000     -2.0610073E-26
   5.930000     -2.2713943E-26
   5.940000     -2.4899140E-26
   5.950000     -2.7163547E-26
   5.960000     -2.9504584E-26
   5.970000     -3.1919170E-26
   5.980000     -3.4403691E-26
   5.990000     -3.6953995E-26
   6.000000     -3.9565340E-26
   6.010000     -4.2232383E-26
   6.020000     -4.4949165E-26
   6.030000     -4.7709053E-26
   6.040000     -5.0504755E-26
   6.050000     -5.3328267E-26
   6.060000     -5.6170853E-26
   6.070000     -5.9023060E-26
   6.080000     -6.1874632E-26
   6.090000     -6.4714556E-26
   6.100000     -6.7531005E-26
   6.110000     -7.0311345E-26
   6.120000     -7.3042110E-26
   6.130000     -7.5708972E-26
   6.140000     -7.8296787E-26
   6.150000     -8.0789538E-26
   6.160000     -8.3170369E-26
   6.170000     -8.5421550E-26
   6.180000     -8.7524506E-26
   6.190000     -8.9459816E-26
   6.200000     -9.1207241E-26
   6.210000     -9.2745686E-26
   6.220000     -9.4053260E-26
   6.230000     -9.5107289E-26
   6.240000     -9.5884324E-26
   6.250000     -9.6360235E-26
   6.260000     -9.6510198E-26
   6.270000     -9.6308725E-26
   6.280000     -9.5729719E-26
   6.290000     -9.4746558E-26
   6.300000     -9.3332137E-26
   6.310000     -9.1458919E-26
   6.320000     -8.9099060E-26
   6.330000     -8.6224414E-26
   6.340000     -8.2806674E-26
   6.350000     -7.8817441E-26
   6.360000     -7.4228298E-26
   6.370000     -6.9010926E-26
   6.380000     -6.3137265E-26
   6.390000     -5.6579600E-26
   6.400000     -4.9310669E-26
   6.410000     -4.1303802E-26
   6.420000     -3.2533061E-26
   6.430000     -2.2973403E-26
   6.440000     -1.2600853E-26
   6.450000     -1.3926367E-27
   6.460000      1.0672620E-26
   6.470000      2.3614762E-26
   6.480000      3.7451840E-26
   6.490000      5.2199961E-26
   6.500000      6.7873136E-26
   6.510000      8.4483046E-26
   6.520000      1.0203878E-25
   6.530000      1.2054670E-25
   6.540000      1.4001020E-25
   6.550000      1.6042948E-25
   6.560000      1.8180130E-25
   6.570000      2.0411875E-25
   6.580000      2.2737104E-25
   6.590000      2.5154326E-25
   6.600000      2.7661620E-25
   6.610000      3.0256590E-25
   6.620000      3.2936378E-25
   6.630000      3.5697598E-25
   6.640000      3.8536329E-25
   6.650000      4.1448108E-25
   6.660000      4.4427892E-25
   6.670000      4.7470030E-25
   6.680000      5.0568247E-25
   6.690000      5.3715634E-25
   6.700000      5.6904605E-25
   6.710000      6.0126904E-25
   6.720000      6.3373570E-25
   6.730000      6.6634913E-25
   6.740000      6.9900526E-25
   6.750000      7.3159241E-25
   6.760000      7.6399137E-25
   6.770000      7.9607514E-25
   6.780000      8.2770895E-25
   6.790000      8.5875014E-25
   6.800000      8.8904821E-25
   6.810000      9.1844462E-25
   6.820000      9.4677281E-25
   6.830000      9.7385855E-25
   6.840000      9.9951980E-25
   6.850000      1.0235669E-24
   6.860000      1.0458025E-24
   6.870000      1.0660216E-24
   6.880000      1.0840124E-24
   6.890000      1.0995560E-24
   6.900000      1.1124268E-24
   6.910000      1.1223926E-24
   6.920000      1.1292151E-24
   6.930000      1.1326511E-24
   6.940000      1.1324516E-24
   6.950000      1.1283635E-24
   6.960000      1.1201292E-24
   6.970000      1.1074885E-24
   6.980000      1.0901778E-24
   6.990000      1.0679314E-24
   7.000000      1.0404824E-24
   7.010000      1.0075637E-24
   7.020000      9.6890864E-25
   7.030000      9.2425143E-25
   7.040000      8.7332898E-25
   7.050000      8.1588102E-25
   7.060000      7.5165246E-25