  -2.600000      0.0000000E+00
  -2.590000      0.0000000E+00
  -2.580000      0.0000000E+00
  -2.570000      0.0000000E+00
  -2.560000      0.0000000E+00
  -2.550000      0.0000000E+00
  -2.540000      0.0000000E+00
  -2.530000      0.0000000E+00
  -2.520000      0.0000000E+00
  -2.510000      0.0000000E+00
  -2.500000      0.0000000E+00
  -2.490000      0.0000000E+00
  -2.480000      0.0000000E+00
  -2.470000      0.0000000E+00
  -2.460000      0.0000000E+00
  -2.450000      0.0000000E+00
  -2.440000      0.0000000E+00
  -2.430000      0.0000000E+00
  -2.420000      0.0000000E+00
  -2.410000      0.0000000E+00
  -2.400000      0.0000000E+00
  -2.390000      0.0000000E+00
  -2.380000      0.0000000E+00
  -2.370000      0.0000000E+00
  -2.360000      0.0000000E+00
  -2.350000      0.0000000E+00
  -2.340000      0.0000000E+00
  -2.330000      0.0000000E+00
  -2.320000      0.0000000E+00
  -2.310000      0.0000000E+00
  -2.300000      0.0000000E+00
  -2.290000      0.0000000E+00
  -2.280000      0.0000000E+00
  -2.270000      0.0000000E+00
  -2.260000      0.0000000E+00
  -2.250000      0.0000000E+00
  -2.240000      0.0000000E+00
  -2.230000      0.0000000E+00
  -2.220000      0.0000000E+00
  -2.210000      0.0000000E+00
  -2.200000      0.0000000E+00
  -2.190000      0.0000000E+00
  -2.180000      0.0000000E+00
  -2.170000      0.0000000E+00
  -2.160000      0.0000000E+00
  -2.150000      0.0000000E+00
  -2.140000      0.0000000E+00
  -2.130000      0.0000000E+00
  -2.120000      0.0000000E+00
  -2.110000      0.0000000E+00
  -2.100000      0.0000000E+00
  -2.090000      0.0000000E+00
  -2.080000      0.0000000E+00
  -2.070000      0.0000000E+00
  -2.060000      0.0000000E+00
  -2.050000      0.0000000E+00
  -2.040000      0.0000000E+00
  -2.030000      0.0000000E+00
  -2.020000      0.0000000E+00
  -2.010000      0.0000000E+00
  -2.000000      0.0000000E+00
  -1.990000      0.0000000E+00
  -1.980000      0.0000000E+00
  -1.970000      0.0000000E+00
  -1.960000      0.0000000E+00
  -1.950000      0.0000000E+00
  -1.940000      0.0000000E+00
  -1.930000      0.0000000E+00
  -1.920000      0.0000000E+00
  -1.910000      0.0000000E+00
  -1.900000      0.0000000E+00
  -1.890000      0.0000000E+00
  -1.880000      0.0000000E+00
  -1.870000      0.0000000E+00
  -1.860000      0.0000000E+00
  -1.850000      0.0000000E+00
  -1.840000      0.0000000E+00
  -1.830000      0.0000000E+00
  -1.820000      0.0000000E+00
  -1.810000      0.0000000E+00
  -1.800000      0.0000000E+00
  -1.790000      0.0000000E+00
  -1.780000      0.0000000E+00
  -1.770000      0.0000000E+00
  -1.760000      0.0000000E+00
  -1.750000      0.0000000E+00
  -1.740000      0.0000000E+00
  -1.730000      0.0000000E+00
  -1.720000      0.0000000E+00
  -1.710000      0.0000000E+00
  -1.700000      0.0000000E+00
  -1.690000      0.0000000E+00
  -1.680000      0.0000000E+00
  -1.670000      0.0000000E+00
  -1.660000      0.0000000E+00
  -1.650000      0.0000000E+00
  -1.640000      0.0000000E+00
  -1.630000      0.0000000E+00
  -1.620000      0.0000000E+00
  -1.610000      0.0000000E+00
  -1.600000      0.0000000E+00
  -1.590000      0.0000000E+00
  -1.580000      0.0000000E+00
  -1.570000      0.0000000E+00
  -1.560000      0.0000000E+00
  -1.550000      0.0000000E+00
  -1.540000      0.0000000E+00
  -1.530000      0.0000000E+00
  -1.520000      0.0000000E+00
  -1.510000      0.0000000E+00
  -1.500000      0.0000000E+00
  -1.490000      0.0000000E+00
  -1.480000      0.0000000E+00
  -1.470000      0.0000000E+00
  -1.460000      0.0000000E+00
  -1.450000      0.0000000E+00
  -1.440000      0.0000000E+00
  -1.430000      0.0000000E+00
  -1.420000      0.0000000E+00
  -1.410000      0.0000000E+00
  -1.400000      0.0000000E+00
  -1.390000      0.0000000E+00
  -1.380000      0.0000000E+00
  -1.370000      0.0000000E+00
  -1.360000      0.0000000E+00
  -1.350000      0.0000000E+00
  -1.340000      0.0000000E+00
  -1.330000      0.0000000E+00
  -1.320000      0.0000000E+00
  -1.310000      0.0000000E+00
  -1.300000      0.0000000E+00
  -1.290000      0.0000000E+00
  -1.280000      0.0000000E+00
  -1.270000      0.0000000E+00
  -1.260000      0.0000000E+00
  -1.250000      0.0000000E+00
  -1.240000      0.0000000E+00
  -1.230000      0.0000000E+00
  -1.220000      0.0000000E+00
  -1.210000      0.0000000E+00
  -1.200000      0.0000000E+00
  -1.190000      0.0000000E+00
  -1.180000      0.0000000E+00
  -1.170000      0.0000000E+00
  -1.160000      0.0000000E+00
  -1.150000      0.0000000E+00
  -1.140000      0.0000000E+00
  -1.130000      0.0000000E+00
  -1.120000      0.0000000E+00
  -1.110000      0.0000000E+00
  -1.100000      0.0000000E+00
  -1.090000      0.0000000E+00
  -1.080000      0.0000000E+00
  -1.070000      0.0000000E+00
  -1.060000      0.0000000E+00
  -1.050000      0.0000000E+00
  -1.040000      0.0000000E+00
  -1.030000      0.0000000E+00
  -1.020000      0.0000000E+00
  -1.010000      0.0000000E+00
  -1.000000      0.0000000E+00
 -0.9900000      0.0000000E+00
 -0.9800000      0.0000000E+00
 -0.9700000      0.0000000E+00
 -0.9600000      0.0000000E+00
 -0.9500000      0.0000000E+00
 -0.9400000      0.0000000E+00
 -0.9300000      0.0000000E+00
 -0.9200000      0.0000000E+00
 -0.9100000      0.0000000E+00
 -0.9000000      0.0000000E+00
 -0.8900000      0.0000000E+00
 -0.8800000      0.0000000E+00
 -0.8700000      0.0000000E+00
 -0.8600000      0.0000000E+00
 -0.8500000      0.0000000E+00
 -0.8400000      0.0000000E+00
 -0.8300000      0.0000000E+00
 -0.8200000      0.0000000E+00
 -0.8100000      0.0000000E+00
 -0.8000000      0.0000000E+00
 -0.7900000      0.0000000E+00
 -0.7800000      0.0000000E+00
 -0.7700000      0.0000000E+00
 -0.7600000      0.0000000E+00
 -0.7500000      0.0000000E+00
 -0.7400000      0.0000000E+00
 -0.7300000      0.0000000E+00
 -0.7200000      0.0000000E+00
 -0.7100000      0.0000000E+00
 -0.7000000      0.0000000E+00
 -0.6900000      0.0000000E+00
 -0.6800000      0.0000000E+00
 -0.6700000      0.0000000E+00
 -0.6600000      0.0000000E+00
 -0.6500000      0.0000000E+00
 -0.6400000      0.0000000E+00
 -0.6300000      0.0000000E+00
 -0.6200000      0.0000000E+00
 -0.6100000      0.0000000E+00
 -0.6000000      0.0000000E+00
 -0.5900000      0.0000000E+00
 -0.5800000      0.0000000E+00
 -0.5700000      0.0000000E+00
 -0.5600000      0.0000000E+00
 -0.5500000      0.0000000E+00
 -0.5400000      0.0000000E+00
 -0.5300000      0.0000000E+00
 -0.5200000      0.0000000E+00
 -0.5100000      0.0000000E+00
 -0.5000000      0.0000000E+00
 -0.4900000      0.0000000E+00
 -0.4800000      0.0000000E+00
 -0.4700000      0.0000000E+00
 -0.4600000      0.0000000E+00
 -0.4500000      0.0000000E+00
 -0.4400000      0.0000000E+00
 -0.4300000      0.0000000E+00
 -0.4200000      0.0000000E+00
 -0.4100000      0.0000000E+00
 -0.4000000      0.0000000E+00
 -0.3900000      0.0000000E+00
 -0.3800000      0.0000000E+00
 -0.3700000      0.0000000E+00
 -0.3600000      0.0000000E+00
 -0.3500000      0.0000000E+00
 -0.3400000      0.0000000E+00
 -0.3300000      0.0000000E+00
 -0.3200000      0.0000000E+00
 -0.3100000      0.0000000E+00
 -0.3000000      0.0000000E+00
 -0.2900000      0.0000000E+00
 -0.2800000      0.0000000E+00
 -0.2700000      0.0000000E+00
 -0.2600000      0.0000000E+00
 -0.2500000      0.0000000E+00
 -0.2400000      0.0000000E+00
 -0.2300000      0.0000000E+00
 -0.2200000      0.0000000E+00
 -0.2100000      0.0000000E+00
 -0.2000000      0.0000000E+00
 -0.1900000      0.0000000E+00
 -0.1800000      0.0000000E+00
 -0.1700000      0.0000000E+00
 -0.1600000      0.0000000E+00
 -0.1500000      0.0000000E+00
 -0.1400000      0.0000000E+00
 -0.1300000      0.0000000E+00
 -0.1200000      0.0000000E+00
 -0.1100000      0.0000000E+00
 -0.1000000      0.0000000E+00
 -9.0000004E-02  0.0000000E+00
 -7.9999998E-02  0.0000000E+00
 -7.0000000E-02  0.0000000E+00
 -5.9999999E-02  0.0000000E+00
 -5.0000001E-02  0.0000000E+00
 -3.9999999E-02  0.0000000E+00
 -2.9999999E-02  0.0000000E+00
 -2.0000000E-02  0.0000000E+00
 -9.9999998E-03  0.0000000E+00
 -3.4694470E-17  0.0000000E+00
  9.9999998E-03  0.0000000E+00
  2.0000000E-02  0.0000000E+00
  2.9999999E-02  0.0000000E+00
  3.9999999E-02  0.0000000E+00
  5.0000001E-02  0.0000000E+00
  5.9999999E-02  0.0000000E+00
  7.0000000E-02  0.0000000E+00
  7.9999998E-02  0.0000000E+00
  9.0000004E-02  0.0000000E+00
  0.1000000      0.0000000E+00
  0.1100000      0.0000000E+00
  0.1200000      0.0000000E+00
  0.1300000      0.0000000E+00
  0.1400000      0.0000000E+00
  0.1500000      0.0000000E+00
  0.1600000      0.0000000E+00
  0.1700000      0.0000000E+00
  0.1800000      0.0000000E+00
  0.1900000      0.0000000E+00
  0.2000000      0.0000000E+00
  0.2100000      0.0000000E+00
  0.2200000      0.0000000E+00
  0.2300000      0.0000000E+00
  0.2400000      0.0000000E+00
  0.2500000      0.0000000E+00
  0.2600000      0.0000000E+00
  0.2700000      0.0000000E+00
  0.2800000      0.0000000E+00
  0.2900000      0.0000000E+00
  0.3000000      0.0000000E+00
  0.3100000      0.0000000E+00
  0.3200000      0.0000000E+00
  0.3300000      0.0000000E+00
  0.3400000      0.0000000E+00
  0.3500000      0.0000000E+00
  0.3600000      0.0000000E+00
  0.3700000      0.0000000E+00
  0.3800000      0.0000000E+00
  0.3900000      0.0000000E+00
  0.4000000      0.0000000E+00
  0.4100000      0.0000000E+00
  0.4200000      0.0000000E+00
  0.4300000      0.0000000E+00
  0.4400000      0.0000000E+00
  0.4500000      0.0000000E+00
  0.4600000      0.0000000E+00
  0.4700000      0.0000000E+00
  0.4800000      0.0000000E+00
  0.4900000      0.0000000E+00
  0.5000000      0.0000000E+00
  0.5100000      0.0000000E+00
  0.5200000      0.0000000E+00
  0.5300000      0.0000000E+00
  0.5400000      0.0000000E+00
  0.5500000      0.0000000E+00
  0.5600000      0.0000000E+00
  0.5700000      0.0000000E+00
  0.5800000      0.0000000E+00
  0.5900000      0.0000000E+00
  0.6000000      0.0000000E+00
  0.6100000      0.0000000E+00
  0.6200000      0.0000000E+00
  0.6300000      0.0000000E+00
  0.6400000      0.0000000E+00
  0.6500000      0.0000000E+00
  0.6600000      0.0000000E+00
  0.6700000      0.0000000E+00
  0.6800000      0.0000000E+00
  0.6900000      0.0000000E+00
  0.7000000      0.0000000E+00
  0.7100000      0.0000000E+00
  0.7200000      0.0000000E+00
  0.7300000      0.0000000E+00
  0.7400000      0.0000000E+00
  0.7500000      0.0000000E+00
  0.7600000      0.0000000E+00
  0.7700000      0.0000000E+00
  0.7800000      0.0000000E+00
  0.7900000      0.0000000E+00
  0.8000000      0.0000000E+00
  0.8100000      0.0000000E+00
  0.8200000      0.0000000E+00
  0.8300000      0.0000000E+00
  0.8400000      0.0000000E+00
  0.8500000      0.0000000E+00
  0.8600000      0.0000000E+00
  0.8700000      0.0000000E+00
  0.8800000      0.0000000E+00
  0.8900000      0.0000000E+00
  0.9000000      0.0000000E+00
  0.9100000      0.0000000E+00
  0.9200000      0.0000000E+00
  0.9300000      0.0000000E+00
  0.9400000      0.0000000E+00
  0.9500000      0.0000000E+00
  0.9600000      0.0000000E+00
  0.9700000      0.0000000E+00
  0.9800000      0.0000000E+00
  0.9900000      0.0000000E+00
   1.000000      0.0000000E+00
   1.010000      0.0000000E+00
   1.020000      0.0000000E+00
   1.030000      0.0000000E+00
   1.040000      0.0000000E+00
   1.050000      0.0000000E+00
   1.060000      0.0000000E+00
   1.070000      0.0000000E+00
   1.080000      0.0000000E+00
   1.090000      0.0000000E+00
   1.100000      0.0000000E+00
   1.110000      0.0000000E+00
   1.120000      0.0000000E+00
   1.130000      0.0000000E+00
   1.140000      0.0000000E+00
   1.150000      0.0000000E+00
   1.160000      0.0000000E+00
   1.170000      0.0000000E+00
   1.180000      0.0000000E+00
   1.190000      0.0000000E+00
   1.200000      0.0000000E+00
   1.210000      0.0000000E+00
   1.220000      0.0000000E+00
   1.230000      0.0000000E+00
   1.240000      0.0000000E+00
   1.250000      0.0000000E+00
   1.260000      0.0000000E+00
   1.270000      0.0000000E+00
   1.280000      0.0000000E+00
   1.290000      0.0000000E+00
   1.300000      0.0000000E+00
   1.310000      0.0000000E+00
   1.320000      0.0000000E+00
   1.330000      0.0000000E+00
   1.340000      0.0000000E+00
   1.350000      0.0000000E+00
   1.360000      0.0000000E+00
   1.370000      0.0000000E+00
   1.380000      0.0000000E+00
   1.390000      0.0000000E+00
   1.400000      0.0000000E+00
   1.410000      0.0000000E+00
   1.420000      0.0000000E+00
   1.430000      0.0000000E+00
   1.440000      0.0000000E+00
   1.450000      0.0000000E+00
   1.460000      0.0000000E+00
   1.470000      0.0000000E+00
   1.480000      0.0000000E+00
   1.490000      0.0000000E+00
   1.500000      0.0000000E+00
   1.510000      0.0000000E+00
   1.520000      0.0000000E+00
   1.530000      0.0000000E+00
   1.540000      0.0000000E+00
   1.550000      0.0000000E+00
   1.560000      0.0000000E+00
   1.570000      0.0000000E+00
   1.580000      0.0000000E+00
   1.590000      0.0000000E+00
   1.600000      0.0000000E+00
   1.610000      0.0000000E+00
   1.620000      0.0000000E+00
   1.630000      0.0000000E+00
   1.640000      0.0000000E+00
   1.650000      0.0000000E+00
   1.660000      0.0000000E+00
   1.670000      0.0000000E+00
   1.680000      0.0000000E+00
   1.690000      0.0000000E+00
   1.700000      0.0000000E+00
   1.710000      0.0000000E+00
   1.720000      0.0000000E+00
   1.730000      0.0000000E+00
   1.740000      0.0000000E+00
   1.750000      0.0000000E+00
   1.760000      0.0000000E+00
   1.770000      0.0000000E+00
   1.780000      0.0000000E+00
   1.790000      0.0000000E+00
   1.800000      0.0000000E+00
   1.810000      0.0000000E+00
   1.820000      0.0000000E+00
   1.830000      0.0000000E+00
   1.840000      0.0000000E+00
   1.850000      0.0000000E+00
   1.860000      0.0000000E+00
   1.870000      0.0000000E+00
   1.880000      0.0000000E+00
   1.890000      0.0000000E+00
   1.900000      0.0000000E+00
   1.910000      0.0000000E+00
   1.920000      0.0000000E+00
   1.930000      0.0000000E+00
   1.940000      0.0000000E+00
   1.950000      0.0000000E+00
   1.960000      0.0000000E+00
   1.970000      0.0000000E+00
   1.980000      0.0000000E+00
   1.990000      0.0000000E+00
   2.000000      0.0000000E+00
   2.010000      0.0000000E+00
   2.020000      0.0000000E+00
   2.030000      0.0000000E+00
   2.040000      0.0000000E+00
   2.050000      0.0000000E+00
   2.060000      0.0000000E+00
   2.070000      0.0000000E+00
   2.080000      0.0000000E+00
   2.090000      0.0000000E+00
   2.100000      0.0000000E+00
   2.110000      0.0000000E+00
   2.120000      0.0000000E+00
   2.130000      0.0000000E+00
   2.140000      0.0000000E+00
   2.150000      0.0000000E+00
   2.160000      0.0000000E+00
   2.170000      0.0000000E+00
   2.180000      0.0000000E+00
   2.190000      0.0000000E+00
   2.200000      0.0000000E+00
   2.210000      0.0000000E+00
   2.220000      0.0000000E+00
   2.230000      0.0000000E+00
   2.240000      0.0000000E+00
   2.250000      0.0000000E+00
   2.260000      0.0000000E+00
   2.270000      0.0000000E+00
   2.280000      0.0000000E+00
   2.290000      0.0000000E+00
   2.300000      0.0000000E+00
   2.310000      0.0000000E+00
   2.320000      0.0000000E+00
   2.330000      0.0000000E+00
   2.340000      0.0000000E+00
   2.350000      0.0000000E+00
   2.360000      0.0000000E+00
   2.370000      0.0000000E+00
   2.380000      0.0000000E+00
   2.390000      0.0000000E+00
   2.400000      0.0000000E+00
   2.410000      0.0000000E+00
   2.420000      0.0000000E+00
   2.430000      0.0000000E+00
   2.440000      0.0000000E+00
   2.450000      1.2216901E-38
   2.460000      1.2673734E-38
   2.470000      1.3102768E-38
   2.480000      1.3498375E-38
   2.490000      1.3854253E-38
   2.500000      1.4163537E-38
   2.510000      1.4395735E-38
   2.520000      1.4732232E-38
   2.530000      1.5236935E-38
   2.540000      1.5735210E-38
   2.550000      1.6216489E-38
   2.560000      1.6627195E-38
   2.570000      1.6961307E-38
   2.580000      1.7274758E-38
   2.590000      1.7544304E-38
   2.600000      1.7745656E-38
   2.610000      1.7860856E-38
   2.620000      1.9308364E-38
   2.630000      2.2211747E-38
   2.640000      2.5282129E-38
   2.650000      2.7647285E-38
   2.660000      2.9456443E-38
   2.670000      3.1350057E-38
   2.680000      3.3298271E-38
   2.690000      3.5946812E-38
   2.700000      3.9184733E-38
   2.710000      4.2807886E-38
   2.720000      4.6633935E-38
   2.730000      4.9257463E-38
   2.740000      5.0742878E-38
   2.750000      5.2158784E-38
   2.760000      5.3801268E-38
   2.770000      5.5626241E-38
   2.780000      5.7672344E-38
   2.790000      6.0437818E-38
   2.800000      6.2046279E-38
   2.810000      6.3243554E-38
   2.820000      6.4223392E-38
   2.830000      6.3365170E-38
   2.840000      6.2269304E-38
   2.850000      6.0404400E-38
   2.860000      6.0159341E-38
   2.870000      6.4248363E-38
   2.880000      7.2533204E-38
   2.890000      8.2746327E-38
   2.900000      9.2990413E-38
   2.910000      1.0433923E-37
   2.920000      1.1482533E-37
   2.930000      1.2299206E-37
   2.940000      1.3001544E-37
   2.950000      1.3655030E-37
   2.960000      1.4247112E-37
   2.970000      1.4816755E-37
   2.980000      1.5698571E-37
   2.990000      1.6833661E-37
   3.000000      1.7855660E-37
   3.010000      1.8775436E-37
   3.020000      1.9648290E-37
   3.030000      2.0326321E-37
   3.040000      2.0759553E-37
   3.050000      2.1275282E-37
   3.060000      2.2026876E-37
   3.070000      2.2414881E-37
   3.080000      2.2436977E-37
   3.090000      2.2619130E-37
   3.100000      2.2363625E-37
   3.110000      2.0854805E-37
   3.120000      1.7983941E-37
   3.130000      1.3834850E-37
   3.140000      8.4412661E-38
   3.150000      1.8694337E-38
   3.160000     -5.1211708E-38
   3.170000     -1.3135800E-37
   3.180000     -2.3190398E-37
   3.190000     -3.4842311E-37
   3.200000     -4.7931986E-37
   3.210000     -6.3124335E-37
   3.220000     -8.0295684E-37
   3.230000     -9.9157960E-37
   3.240000     -1.2267320E-36
   3.250000     -1.5150756E-36
   3.260000     -1.8307632E-36
   3.270000     -2.1463130E-36
   3.280000     -2.4558487E-36
   3.290000     -2.7698882E-36
   3.300000     -3.0881501E-36
   3.310000     -3.4403363E-36
   3.320000     -3.8235307E-36
   3.330000     -4.2147930E-36
   3.340000     -4.6130218E-36
   3.350000     -5.0092360E-36
   3.360000     -5.4111541E-36
   3.370000     -5.8066329E-36
   3.380000     -6.1947763E-36
   3.390000     -6.5715795E-36
   3.400000     -6.8841509E-36
   3.410000     -7.1269425E-36
   3.420000     -7.3395553E-36
   3.430000     -7.5437809E-36
   3.440000     -7.7575079E-36
   3.450000     -8.0015414E-36
   3.460000     -8.2305440E-36
   3.470000     -8.4175318E-36
   3.480000     -8.5468663E-36
   3.490000     -8.6212186E-36
   3.500000     -8.7092178E-36
   3.510000     -8.7390163E-36
   3.520000     -8.6654094E-36
   3.530000     -8.5216847E-36
   3.540000     -8.3208807E-36
   3.550000     -8.0392277E-36
   3.560000     -7.6155339E-36
   3.570000     -7.0878241E-36
   3.580000     -6.4921002E-36
   3.590000     -5.8824779E-36
   3.600000     -5.2606662E-36
   3.610000     -4.5312150E-36
   3.620000     -3.5959046E-36
   3.630000     -2.2945703E-36
   3.640000     -6.8337416E-37
   3.650000      1.0380426E-36
   3.660000      2.8485631E-36
   3.670000      4.7595608E-36
   3.680000      6.7425184E-36
   3.690000      8.8506467E-36
   3.700000      1.1122679E-35
   3.710000      1.3600104E-35
   3.720000      1.6252233E-35
   3.730000      1.9054574E-35
   3.740000      2.2012872E-35
   3.750000      2.4848168E-35
   3.760000      2.7648474E-35
   3.770000      3.0591291E-35
   3.780000      3.3698430E-35
   3.790000      3.6936908E-35
   3.800000      4.0180231E-35
   3.810000      4.3419223E-35
   3.820000      4.6624959E-35
   3.830000      4.9657812E-35
   3.840000      5.2356444E-35
   3.850000      5.4801495E-35
   3.860000      5.7100981E-35
   3.870000      5.8991444E-35
   3.880000      6.0425575E-35
   3.890000      6.1703862E-35
   3.900000      6.2702252E-35
   3.910000      6.3610580E-35
   3.920000      6.4418388E-35
   3.930000      6.4706062E-35
   3.940000      6.4602805E-35
   3.950000      6.4170650E-35
   3.960000      6.3335859E-35
   3.970000      6.2154270E-35
   3.980000      6.0481365E-35
   3.990000      5.8144077E-35
   4.000000      5.5449412E-35
   4.010000      5.2526184E-35
   4.020000      4.9052117E-35
   4.030000      4.4830198E-35
   4.040000      3.9668363E-35
   4.050000      3.3466778E-35
   4.060000      2.6189262E-35
   4.070000      1.8055504E-35
   4.080000      9.1679146E-36
   4.090000     -6.4920171E-37
   4.100000     -1.1529828E-35
   4.110000     -2.3379205E-35
   4.120000     -3.5932750E-35
   4.130000     -4.9513584E-35
   4.140000     -6.4366277E-35
   4.150000     -8.0133272E-35
   4.160000     -9.6507788E-35
   4.170000     -1.1354670E-34
   4.180000     -1.3138239E-34
   4.190000     -1.4985178E-34
   4.200000     -1.6844943E-34
   4.210000     -1.8679487E-34
   4.220000     -2.0459376E-34
   4.230000     -2.2176107E-34
   4.240000     -2.3874352E-34
   4.250000     -2.5598242E-34
   4.260000     -2.7394193E-34
   4.270000     -2.9233429E-34
   4.280000     -3.0866888E-34
   4.290000     -3.2206644E-34
   4.300000     -3.3340937E-34
   4.310000     -3.4313438E-34
   4.320000     -3.5004927E-34
   4.330000     -3.5366417E-34
   4.340000     -3.5578495E-34
   4.350000     -3.5570482E-34
   4.360000     -3.5258795E-34
   4.370000     -3.4752836E-34
   4.380000     -3.4351928E-34
   4.390000     -3.3844882E-34
   4.400000     -3.2977929E-34
   4.410000     -3.2278262E-34
   4.420000     -3.1665129E-34
   4.430000     -3.0722539E-34
   4.440000     -2.9307887E-34
   4.450000     -2.7324187E-34
   4.460000     -2.4924206E-34
   4.470000     -2.2101413E-34
   4.480000     -1.8475317E-34
   4.490000     -1.3918699E-34
   4.500000     -8.6374033E-35
   4.510000     -2.6041017E-35
   4.520000      4.2471007E-35
   4.530000      1.1651852E-34
   4.540000      1.9687287E-34
   4.550000      2.8678076E-34
   4.560000      3.8468794E-34
   4.570000      4.8585904E-34
   4.580000      5.9256216E-34
   4.590000      7.0780133E-34
   4.600000      8.2533212E-34
   4.610000      9.4961723E-34
   4.620000      1.0817682E-33
   4.630000      1.2158261E-33
   4.640000      1.3573864E-33
   4.650000      1.5047030E-33
   4.660000      1.6495947E-33
   4.670000      1.7949995E-33
   4.680000      1.9453245E-33
   4.690000      2.0962622E-33
   4.700000      2.2449497E-33
   4.710000      2.3924137E-33
   4.720000      2.5380231E-33
   4.730000      2.6808526E-33
   4.740000      2.8198523E-33
   4.750000      2.9538480E-33
   4.760000      3.0799197E-33
   4.770000      3.1955884E-33
   4.780000      3.3008319E-33
   4.790000      3.3945481E-33
   4.800000      3.4765231E-33
   4.810000      3.5456928E-33
   4.820000      3.5978932E-33
   4.830000      3.6291786E-33
   4.840000      3.6398778E-33
   4.850000      3.6290776E-33
   4.860000      3.5921043E-33
   4.870000      3.5267215E-33
   4.880000      3.4308320E-33
   4.890000      3.3001589E-33
   4.900000      3.1354651E-33
   4.910000      2.9344126E-33
   4.920000      2.6893584E-33
   4.930000      2.4006943E-33
   4.940000      2.0666544E-33
   4.950000      1.6822999E-33
   4.960000      1.2454579E-33
   4.970000      7.5531996E-34
   4.980000      2.0797590E-34
   4.990000     -3.9514197E-34
   5.000000     -1.0534415E-33
   5.010000     -1.7735631E-33
   5.020000     -2.5553658E-33
   5.030000     -3.3977646E-33
   5.040000     -4.3014696E-33
   5.050000     -5.2666783E-33
   5.060000     -6.2929693E-33
   5.070000     -7.3816189E-33
   5.080000     -8.5292144E-33
   5.090000     -9.7345780E-33
   5.100000     -1.0998153E-32
   5.110000     -1.2314935E-32
   5.120000     -1.3680832E-32
   5.130000     -1.5093873E-32
   5.140000     -1.6553128E-32
   5.150000     -1.8051075E-32
   5.160000     -1.9580433E-32
   5.170000     -2.1136992E-32
   5.180000     -2.2713892E-32
   5.190000     -2.4303438E-32
   5.200000     -2.5897287E-32
   5.210000     -2.7486399E-32
   5.220000     -2.9060136E-32
   5.230000     -3.0607240E-32
   5.240000     -3.2116107E-32
   5.250000     -3.3573488E-32
   5.260000     -3.4965212E-32
   5.270000     -3.6276411E-32
   5.280000     -3.7490553E-32
   5.290000     -3.8590883E-32
   5.300000     -3.9559831E-32
   5.310000     -4.0378587E-32
   5.320000     -4.1027559E-32
   5.330000     -4.1485644E-32
   5.340000     -4.1731066E-32
   5.350000     -4.1741634E-32
   5.360000     -4.1493872E-32
   5.370000     -4.0963122E-32
   5.380000     -4.0125691E-32
   5.390000     -3.8956853E-32
   5.400000     -3.7430958E-32
   5.410000     -3.5522287E-32
   5.420000     -3.3204621E-32
   5.430000     -3.0452183E-32
   5.440000     -2.7238946E-32
   5.450000     -2.3539086E-32
   5.460000     -1.9327224E-32
   5.470000     -1.4578493E-32
   5.480000     -9.2686752E-33
   5.490000     -3.3744189E-33
   5.500000      3.1267793E-33
   5.510000      1.0255783E-32
   5.520000      1.8031931E-32
   5.530000      2.6473247E-32
   5.540000      3.5595618E-32
   5.550000      4.5412682E-32
   5.560000      5.5935487E-32
   5.570000      6.7172249E-32
   5.580000      7.9128050E-32
   5.590000      9.1804504E-32
   5.600000      1.0519939E-31
   5.610000      1.1930628E-31
   5.620000      1.3411433E-31
   5.630000      1.4960772E-31
   5.640000      1.6576543E-31
   5.650000      1.8256077E-31
   5.660000      1.9996095E-31
   5.670000      2.1792701E-31
   5.680000      2.3641324E-31
   5.690000      2.5536646E-31
   5.700000      2.7472620E-31
   5.710000      2.9442400E-31
   5.720000      3.1438314E-31
   5.730000      3.3451828E-31
   5.740000      3.5473521E-31
   5.750000      3.7493029E-31
   5.760000      3.9499051E-31
   5.770000      4.1479302E-31
   5.780000      4.3420481E-31
   5.790000      4.5308264E-31
   5.800000      4.7127275E-31
   5.810000      4.8861082E-31
   5.820000      5.0492194E-31
   5.830000      5.2002022E-31
   5.840000      5.3370914E-31
   5.850000      5.4578146E-31
   5.860000      5.5601922E-31
   5.870000      5.6419412E-31
   5.880000      5.7006722E-31
   5.890000      5.7338926E-31
   5.900000      5.7390197E-31
   5.910000      5.7133737E-31
   5.920000      5.6541885E-31
   5.930000      5.5586142E-31
   5.940000      5.4237258E-31
   5.950000      5.2465308E-31
   5.960000      5.0239777E-31
   5.970000      4.7529661E-31
   5.980000      4.4303569E-31
   5.990000      4.0529837E-31
   6.000000      3.6176699E-31
   6.010000      3.1212403E-31
   6.020000      2.5605366E-31
   6.030000      1.9324356E-31
   6.040000      1.2338672E-31
   6.050000      4.6183489E-32
   6.060000     -3.8656293E-32
   6.070000     -1.3141122E-31
   6.080000     -2.3234567E-31
   6.090000     -3.4170739E-31
   6.100000     -4.5972474E-31
   6.110000     -5.8660417E-31
   6.120000     -7.2252677E-31
   6.130000     -8.6764555E-31
   6.140000     -1.0220822E-30
   6.150000     -1.1859234E-30
   6.160000     -1.3592179E-30
   6.170000     -1.5419723E-30
   6.180000     -1.7341479E-30
   6.190000     -1.9356565E-30
   6.200000     -2.1463564E-30
   6.210000     -2.3660495E-30
   6.220000     -2.5944757E-30
   6.230000     -2.8313098E-30
   6.240000     -3.0761570E-30
   6.250000     -3.3285490E-30
   6.260000     -3.5879398E-30
   6.270000     -3.8537004E-30
   6.280000     -4.1251170E-30
   6.290000     -4.4013841E-30
   6.300000     -4.6816020E-30
   6.310000     -4.9647728E-30
   6.320000     -5.2497969E-30
   6.330000     -5.5354676E-30
   6.340000     -5.8204684E-30
   6.350000     -6.1033709E-30
   6.360000     -6.3826296E-30
   6.370000     -6.6565804E-30
   6.380000     -6.9234383E-30
   6.390000     -7.1812925E-30
   6.400000     -7.4281079E-30
   6.410000     -7.6617225E-30
   6.420000     -7.8798446E-30
   6.430000     -8.0800555E-30
   6.440000     -8.2598057E-30
   6.450000     -8.4164199E-30
   6.460000     -8.5470950E-30
   6.470000     -8.6489015E-30
   6.480000     -8.7187894E-30
   6.490000     -8.7535893E-30
   6.500000     -8.7500166E-30
   6.510000     -8.7046767E-30
   6.520000     -8.6140715E-30
   6.530000     -8.4746056E-30
   6.540000     -8.2825941E-30
   6.550000     -8.0342726E-30
   6.560000     -7.7258085E-30
   6.570000     -7.3533066E-30
   6.580000     -6.9128276E-30
   6.590000     -6.4004009E-30
   6.600000     -5.8120364E-30
   6.610000     -5.1437425E-30
   6.620000     -4.3915450E-30
   6.630000     -3.5515028E-30
   6.640000     -2.6197313E-30
   6.650000     -1.5924238E-30
   6.660000     -4.6587249E-31
   6.670000      7.6350371E-31
   6.680000      2.0991339E-30
   6.690000      3.5442678E-30
   6.700000      5.1019475E-30
   6.710000      6.7749762E-30
   6.720000      8.5658849E-30
   6.730000      1.0476896E-29
   6.740000      1.2509897E-29
   6.750000      1.4666396E-29
   6.760000      1.6947487E-29
   6.770000      1.9353807E-29
   6.780000      2.1885502E-29
   6.790000      2.4542181E-29
   6.800000      2.7322870E-29
   6.810000      3.0225981E-29
   6.820000      3.3249246E-29
   6.830000      3.6389700E-29
   6.840000      3.9643604E-29
   6.850000      4.3006425E-29
   6.860000      4.6472777E-29
   6.870000      5.0036364E-29
   6.880000      5.3689956E-29
   6.890000      5.7425321E-29
   6.900000      6.1233185E-29
   6.910000      6.5103203E-29
   6.920000      6.9023879E-29
   6.930000      7.2982562E-29
   6.940000      7.6965367E-29
   6.950000      8.0957157E-29
   6.960000      8.4941509E-29
   6.970000      8.8900643E-29
   6.980000      9.2815433E-29
   6.990000      9.6665349E-29
   7.000000      1.0042842E-28
   7.010000      1.0408126E-28
   7.020000      1.0759899E-28
   7.030000      1.1095524E-28
   7.040000      1.1412218E-28
   7.050000      1.1707046E-28
   7.060000      1.1976921E-28