  -2.600000      0.0000000E+00
  -2.590000      0.0000000E+00
  -2.580000      0.0000000E+00
  -2.570000      0.0000000E+00
  -2.560000      0.0000000E+00
  -2.550000      0.0000000E+00
  -2.540000      0.0000000E+00
  -2.530000      0.0000000E+00
  -2.520000      0.0000000E+00
  -2.510000      0.0000000E+00
  -2.500000      0.0000000E+00
  -2.490000      0.0000000E+00
  -2.480000      0.0000000E+00
  -2.470000      0.0000000E+00
  -2.460000      0.0000000E+00
  -2.450000      0.0000000E+00
  -2.440000      0.0000000E+00
  -2.430000      0.0000000E+00
  -2.420000      0.0000000E+00
  -2.410000      0.0000000E+00
  -2.400000      0.0000000E+00
  -2.390000      0.0000000E+00
  -2.380000      0.0000000E+00
  -2.370000      0.0000000E+00
  -2.360000      0.0000000E+00
  -2.350000      0.0000000E+00
  -2.340000      0.0000000E+00
  -2.330000      0.0000000E+00
  -2.320000      0.0000000E+00
  -2.310000      0.0000000E+00
  -2.300000      0.0000000E+00
  -2.290000      0.0000000E+00
  -2.280000      0.0000000E+00
  -2.270000      0.0000000E+00
  -2.260000      0.0000000E+00
  -2.250000      0.0000000E+00
  -2.240000      0.0000000E+00
  -2.230000      0.0000000E+00
  -2.220000      0.0000000E+00
  -2.210000      0.0000000E+00
  -2.200000      0.0000000E+00
  -2.190000      0.0000000E+00
  -2.180000      0.0000000E+00
  -2.170000      0.0000000E+00
  -2.160000      0.0000000E+00
  -2.150000      0.0000000E+00
  -2.140000      0.0000000E+00
  -2.130000      0.0000000E+00
  -2.120000      0.0000000E+00
  -2.110000      0.0000000E+00
  -2.100000      0.0000000E+00
  -2.090000      0.0000000E+00
  -2.080000      0.0000000E+00
  -2.070000      0.0000000E+00
  -2.060000      0.0000000E+00
  -2.050000      0.0000000E+00
  -2.040000      0.0000000E+00
  -2.030000      0.0000000E+00
  -2.020000      0.0000000E+00
  -2.010000      0.0000000E+00
  -2.000000      0.0000000E+00
  -1.990000      0.0000000E+00
  -1.980000      0.0000000E+00
  -1.970000      0.0000000E+00
  -1.960000      0.0000000E+00
  -1.950000      0.0000000E+00
  -1.940000      0.0000000E+00
  -1.930000      0.0000000E+00
  -1.920000      0.0000000E+00
  -1.910000      0.0000000E+00
  -1.900000      0.0000000E+00
  -1.890000      0.0000000E+00
  -1.880000      0.0000000E+00
  -1.870000      0.0000000E+00
  -1.860000      0.0000000E+00
  -1.850000      0.0000000E+00
  -1.840000      0.0000000E+00
  -1.830000      0.0000000E+00
  -1.820000      0.0000000E+00
  -1.810000      0.0000000E+00
  -1.800000      0.0000000E+00
  -1.790000      0.0000000E+00
  -1.780000      0.0000000E+00
  -1.770000      0.0000000E+00
  -1.760000      0.0000000E+00
  -1.750000      0.0000000E+00
  -1.740000      0.0000000E+00
  -1.730000      0.0000000E+00
  -1.720000      0.0000000E+00
  -1.710000      0.0000000E+00
  -1.700000      0.0000000E+00
  -1.690000      0.0000000E+00
  -1.680000      0.0000000E+00
  -1.670000      0.0000000E+00
  -1.660000      0.0000000E+00
  -1.650000      0.0000000E+00
  -1.640000      0.0000000E+00
  -1.630000      0.0000000E+00
  -1.620000      0.0000000E+00
  -1.610000      0.0000000E+00
  -1.600000      0.0000000E+00
  -1.590000      0.0000000E+00
  -1.580000      0.0000000E+00
  -1.570000      0.0000000E+00
  -1.560000      0.0000000E+00
  -1.550000      0.0000000E+00
  -1.540000      0.0000000E+00
  -1.530000      0.0000000E+00
  -1.520000      0.0000000E+00
  -1.510000      0.0000000E+00
  -1.500000      0.0000000E+00
  -1.490000      0.0000000E+00
  -1.480000      0.0000000E+00
  -1.470000      0.0000000E+00
  -1.460000      0.0000000E+00
  -1.450000      0.0000000E+00
  -1.440000      0.0000000E+00
  -1.430000      0.0000000E+00
  -1.420000      0.0000000E+00
  -1.410000      0.0000000E+00
  -1.400000      0.0000000E+00
  -1.390000      0.0000000E+00
  -1.380000      0.0000000E+00
  -1.370000      0.0000000E+00
  -1.360000      0.0000000E+00
  -1.350000      0.0000000E+00
  -1.340000      0.0000000E+00
  -1.330000      0.0000000E+00
  -1.320000      0.0000000E+00
  -1.310000      0.0000000E+00
  -1.300000      0.0000000E+00
  -1.290000      0.0000000E+00
  -1.280000      0.0000000E+00
  -1.270000      0.0000000E+00
  -1.260000      0.0000000E+00
  -1.250000      0.0000000E+00
  -1.240000      0.0000000E+00
  -1.230000      0.0000000E+00
  -1.220000      0.0000000E+00
  -1.210000      0.0000000E+00
  -1.200000      0.0000000E+00
  -1.190000      0.0000000E+00
  -1.180000      0.0000000E+00
  -1.170000      0.0000000E+00
  -1.160000      0.0000000E+00
  -1.150000      0.0000000E+00
  -1.140000      0.0000000E+00
  -1.130000      0.0000000E+00
  -1.120000      0.0000000E+00
  -1.110000      0.0000000E+00
  -1.100000      0.0000000E+00
  -1.090000      0.0000000E+00
  -1.080000      0.0000000E+00
  -1.070000      0.0000000E+00
  -1.060000      0.0000000E+00
  -1.050000      0.0000000E+00
  -1.040000      0.0000000E+00
  -1.030000      0.0000000E+00
  -1.020000      0.0000000E+00
  -1.010000      0.0000000E+00
  -1.000000      0.0000000E+00
 -0.9900000      0.0000000E+00
 -0.9800000      0.0000000E+00
 -0.9700000      0.0000000E+00
 -0.9600000      0.0000000E+00
 -0.9500000      0.0000000E+00
 -0.9400000      0.0000000E+00
 -0.9300000      0.0000000E+00
 -0.9200000      0.0000000E+00
 -0.9100000      0.0000000E+00
 -0.9000000      0.0000000E+00
 -0.8900000      0.0000000E+00
 -0.8800000      0.0000000E+00
 -0.8700000      0.0000000E+00
 -0.8600000      0.0000000E+00
 -0.8500000      0.0000000E+00
 -0.8400000      0.0000000E+00
 -0.8300000      0.0000000E+00
 -0.8200000      0.0000000E+00
 -0.8100000      0.0000000E+00
 -0.8000000      0.0000000E+00
 -0.7900000      0.0000000E+00
 -0.7800000      0.0000000E+00
 -0.7700000      0.0000000E+00
 -0.7600000      0.0000000E+00
 -0.7500000      0.0000000E+00
 -0.7400000      0.0000000E+00
 -0.7300000      0.0000000E+00
 -0.7200000      0.0000000E+00
 -0.7100000      0.0000000E+00
 -0.7000000      0.0000000E+00
 -0.6900000      0.0000000E+00
 -0.6800000      0.0000000E+00
 -0.6700000      0.0000000E+00
 -0.6600000      0.0000000E+00
 -0.6500000      0.0000000E+00
 -0.6400000      0.0000000E+00
 -0.6300000      0.0000000E+00
 -0.6200000      0.0000000E+00
 -0.6100000      0.0000000E+00
 -0.6000000      0.0000000E+00
 -0.5900000      0.0000000E+00
 -0.5800000      0.0000000E+00
 -0.5700000      0.0000000E+00
 -0.5600000      0.0000000E+00
 -0.5500000      0.0000000E+00
 -0.5400000      0.0000000E+00
 -0.5300000      0.0000000E+00
 -0.5200000      0.0000000E+00
 -0.5100000      0.0000000E+00
 -0.5000000      0.0000000E+00
 -0.4900000      0.0000000E+00
 -0.4800000      0.0000000E+00
 -0.4700000      0.0000000E+00
 -0.4600000      0.0000000E+00
 -0.4500000      0.0000000E+00
 -0.4400000      0.0000000E+00
 -0.4300000      0.0000000E+00
 -0.4200000      0.0000000E+00
 -0.4100000      0.0000000E+00
 -0.4000000      0.0000000E+00
 -0.3900000      0.0000000E+00
 -0.3800000      0.0000000E+00
 -0.3700000      0.0000000E+00
 -0.3600000      0.0000000E+00
 -0.3500000      0.0000000E+00
 -0.3400000      0.0000000E+00
 -0.3300000      0.0000000E+00
 -0.3200000      0.0000000E+00
 -0.3100000      0.0000000E+00
 -0.3000000      0.0000000E+00
 -0.2900000      0.0000000E+00
 -0.2800000      0.0000000E+00
 -0.2700000      0.0000000E+00
 -0.2600000      0.0000000E+00
 -0.2500000      0.0000000E+00
 -0.2400000      0.0000000E+00
 -0.2300000      0.0000000E+00
 -0.2200000      1.1984953E-38
 -0.2100000      1.6125470E-38
 -0.2000000      2.0411847E-38
 -0.1900000      2.5026456E-38
 -0.1800000      2.8754594E-38
 -0.1700000      2.9100975E-38
 -0.1600000      2.5677018E-38
 -0.1500000      1.8174147E-38
 -0.1400000      0.0000000E+00
 -0.1300000      0.0000000E+00
 -0.1200000     -2.8182273E-38
 -0.1100000     -5.0731730E-38
 -0.1000000     -7.6851552E-38
 -9.0000004E-02 -1.0426509E-37
 -7.9999998E-02 -1.3064125E-37
 -7.0000000E-02 -1.5573175E-37
 -5.9999999E-02 -1.7667318E-37
 -5.0000001E-02 -1.9084344E-37
 -3.9999999E-02 -1.9778956E-37
 -2.9999999E-02 -1.9800291E-37
 -2.0000000E-02 -1.9286654E-37
 -9.9999998E-03 -1.8311323E-37
 -3.4694470E-17 -1.6726289E-37
  9.9999998E-03 -1.4915801E-37
  2.0000000E-02 -1.1623225E-37
  2.9999999E-02 -4.0760286E-38
  3.9999999E-02  8.5003852E-38
  5.0000001E-02  2.3755724E-37
  5.9999999E-02  3.9450489E-37
  7.0000000E-02  5.5930956E-37
  7.9999998E-02  7.9911078E-37
  9.0000004E-02  1.1172951E-36
  0.1000000      1.4660819E-36
  0.1100000      1.8200434E-36
  0.1200000      2.1221526E-36
  0.1300000      2.3815398E-36
  0.1400000      2.5188096E-36
  0.1500000      2.4743236E-36
  0.1600000      2.4055772E-36
  0.1700000      2.2076581E-36
  0.1800000      1.6931018E-36
  0.1900000      7.8102099E-37
  0.2000000     -4.5874418E-37
  0.2100000     -1.5527173E-36
  0.2200000     -2.3188594E-36
  0.2300000     -3.0279286E-36
  0.2400000     -3.6812151E-36
  0.2500000     -5.1088592E-36
  0.2600000     -7.3951294E-36
  0.2700000     -9.4614618E-36
  0.2800000     -1.1347115E-35
  0.2900000     -1.2748486E-35
  0.3000000     -1.3392030E-35
  0.3100000     -1.3356394E-35
  0.3200000     -1.0399544E-35
  0.3300000     -3.9120655E-36
  0.3400000      5.0049058E-36
  0.3500000      1.6045999E-35
  0.3600000      2.9452708E-35
  0.3700000      4.6539767E-35
  0.3800000      6.7844672E-35
  0.3900000      9.5378125E-35
  0.4000000      1.3022447E-34
  0.4100000      1.6774758E-34
  0.4200000      2.0867892E-34
  0.4300000      2.5441672E-34
  0.4400000      3.0385037E-34
  0.4500000      3.5440709E-34
  0.4600000      4.0503398E-34
  0.4700000      4.5924567E-34
  0.4800000      5.1718794E-34
  0.4900000      5.7906716E-34
  0.5000000      6.4497437E-34
  0.5100000      7.1482105E-34
  0.5200000      7.8834492E-34
  0.5300000      8.7008365E-34
  0.5400000      9.6244022E-34
  0.5500000      1.0635309E-33
  0.5600000      1.1737665E-33
  0.5700000      1.2934830E-33
  0.5800000      1.4258634E-33
  0.5900000      1.5684021E-33
  0.6000000      1.7146130E-33
  0.6100000      1.8621985E-33
  0.6200000      2.0153156E-33
  0.6300000      2.1760840E-33
  0.6400000      2.3387685E-33
  0.6500000      2.5005648E-33
  0.6600000      2.6598146E-33
  0.6700000      2.8146602E-33
  0.6800000      2.9629417E-33
  0.6900000      3.1017446E-33
  0.7000000      3.2283450E-33
  0.7100000      3.3399788E-33
  0.7200000      3.4341204E-33
  0.7300000      3.5080910E-33
  0.7400000      3.5592948E-33
  0.7500000      3.5855219E-33
  0.7600000      3.5846495E-33
  0.7700000      3.5548040E-33
  0.7800000      3.4943899E-33
  0.7900000      3.4019468E-33
  0.8000000      3.2733062E-33
  0.8100000      3.1108507E-33
  0.8200000      2.9170375E-33
  0.8300000      2.6887361E-33
  0.8400000      2.4260020E-33
  0.8500000      2.1287024E-33
  0.8600000      1.7970754E-33
  0.8700000      1.4316314E-33
  0.8800000      1.0330614E-33
  0.8900000      6.0199293E-34
  0.9000000      1.3918442E-34
  0.9100000     -3.5441880E-34
  0.9200000     -8.7792604E-34
  0.9300000     -1.4305442E-33
  0.9400000     -2.0113643E-33
  0.9500000     -2.6192883E-33
  0.9600000     -3.2532813E-33
  0.9700000     -3.9122373E-33
  0.9800000     -4.5950030E-33
  0.9900000     -5.3004837E-33
   1.000000     -6.0272830E-33
   1.010000     -6.7740250E-33
   1.020000     -7.5395091E-33
   1.030000     -8.3221841E-33
   1.040000     -9.1203367E-33
   1.050000     -9.9323013E-33
   1.060000     -1.0756363E-32
   1.070000     -1.1590768E-32
   1.080000     -1.2434030E-32
   1.090000     -1.3284804E-32
   1.100000     -1.4142111E-32
   1.110000     -1.5004852E-32
   1.120000     -1.5872403E-32
   1.130000     -1.6745309E-32
   1.140000     -1.7624622E-32
   1.150000     -1.8512326E-32
   1.160000     -1.9411341E-32
   1.170000     -2.0325817E-32
   1.180000     -2.1261332E-32
   1.190000     -2.2224892E-32
   1.200000     -2.3224941E-32
   1.210000     -2.4271525E-32
   1.220000     -2.5376393E-32
   1.230000     -2.6552866E-32
   1.240000     -2.7815832E-32
   1.250000     -2.9181668E-32
   1.260000     -3.0668142E-32
   1.270000     -3.2294236E-32
   1.280000     -3.4079982E-32
   1.290000     -3.6046246E-32
   1.300000     -3.8214543E-32
   1.310000     -4.0606803E-32
   1.320000     -4.3245191E-32
   1.330000     -4.6151895E-32
   1.340000     -4.9348975E-32
   1.350000     -5.2858243E-32
   1.360000     -5.6701157E-32
   1.370000     -6.0898818E-32
   1.380000     -6.5471985E-32
   1.390000     -7.0441140E-32
   1.400000     -7.5826662E-32
   1.410000     -8.1648985E-32
   1.420000     -8.7928841E-32
   1.430000     -9.4687504E-32
   1.440000     -1.0194712E-31
   1.450000     -1.0973093E-31
   1.460000     -1.1806362E-31
   1.470000     -1.2697154E-31
   1.480000     -1.3648292E-31
   1.490000     -1.4662809E-31
   1.500000     -1.5743949E-31
   1.510000     -1.6895177E-31
   1.520000     -1.8120163E-31
   1.530000     -1.9422767E-31
   1.540000     -2.0807021E-31
   1.550000     -2.2277092E-31
   1.560000     -2.3837241E-31
   1.570000     -2.5491794E-31
   1.580000     -2.7245079E-31
   1.590000     -2.9101403E-31
   1.600000     -3.1064996E-31
   1.610000     -3.3140005E-31
   1.620000     -3.5330425E-31
   1.630000     -3.7640173E-31
   1.640000     -4.0073044E-31
   1.650000     -4.2632697E-31
   1.660000     -4.5322769E-31
   1.670000     -4.8146909E-31
   1.680000     -5.1108820E-31
   1.690000     -5.4212412E-31
   1.700000     -5.7461855E-31
   1.710000     -6.0861686E-31
   1.720000     -6.4416921E-31
   1.730000     -6.8133185E-31
   1.740000     -7.2016755E-31
   1.750000     -7.6074665E-31
   1.760000     -8.0314739E-31
   1.770000     -8.4745638E-31
   1.780000     -8.9376851E-31
   1.790000     -9.4218599E-31
   1.800000     -9.9281820E-31
   1.810000     -1.0457801E-30
   1.820000     -1.1011903E-30
   1.830000     -1.1591700E-30
   1.840000     -1.2198401E-30
   1.850000     -1.2833188E-30
   1.860000     -1.3497191E-30
   1.870000     -1.4191458E-30
   1.880000     -1.4916933E-30
   1.890000     -1.5674423E-30
   1.900000     -1.6464578E-30
   1.910000     -1.7287871E-30
   1.920000     -1.8144583E-30
   1.930000     -1.9034772E-30
   1.940000     -1.9958284E-30
   1.950000     -2.0914730E-30
   1.960000     -2.1903487E-30
   1.970000     -2.2923701E-30
   1.980000     -2.3974288E-30
   1.990000     -2.5053928E-30
   2.000000     -2.6161073E-30
   2.010000     -2.7293931E-30
   2.020000     -2.8450484E-30
   2.030000     -2.9628461E-30
   2.040000     -3.0825319E-30
   2.050000     -3.2038221E-30
   2.060000     -3.3264000E-30
   2.070000     -3.4499108E-30
   2.080000     -3.5739565E-30
   2.090000     -3.6980902E-30
   2.100000     -3.8218086E-30
   2.110000     -3.9445423E-30
   2.120000     -4.0656483E-30
   2.130000     -4.1844014E-30
   2.140000     -4.2999873E-30
   2.150000     -4.4114919E-30
   2.160000     -4.5178931E-30
   2.170000     -4.6180550E-30
   2.180000     -4.7107208E-30
   2.190000     -4.7945101E-30
   2.200000     -4.8679147E-30
   2.210000     -4.9292954E-30
   2.220000     -4.9768851E-30
   2.230000     -5.0087878E-30
   2.240000     -5.0229825E-30
   2.250000     -5.0173319E-30
   2.260000     -4.9895838E-30
   2.270000     -4.9373798E-30
   2.280000     -4.8582606E-30
   2.290000     -4.7496746E-30
   2.300000     -4.6089824E-30
   2.310000     -4.4334667E-30
   2.320000     -4.2203350E-30
   2.330000     -3.9667220E-30
   2.340000     -3.6696936E-30
   2.350000     -3.3262477E-30
   2.360000     -2.9333160E-30
   2.370000     -2.4877578E-30
   2.380000     -1.9863573E-30
   2.390000     -1.4258288E-30
   2.400000     -8.0280895E-31
   2.410000     -1.1385263E-31
   2.420000      6.4455524E-31
   2.430000      1.4760110E-30
   2.440000      2.3841794E-30
   2.450000      3.3727784E-30
   2.460000      4.4455722E-30
   2.470000      5.6063497E-30
   2.480000      6.8588986E-30
   2.490000      8.2069705E-30
   2.500000      9.6542490E-30
   2.510000      1.1204307E-29
   2.520000      1.2860564E-29
   2.530000      1.4626246E-29
   2.540000      1.6504318E-29
   2.550000      1.8497432E-29
   2.560000      2.0607885E-29
   2.570000      2.2837560E-29
   2.580000      2.5187869E-29
   2.590000      2.7659700E-29
   2.600000      3.0253413E-29
   2.610000      3.2968764E-29
   2.620000      3.5804876E-29
   2.630000      3.8760198E-29
   2.640000      4.1832510E-29
   2.650000      4.5018895E-29
   2.660000      4.8315726E-29
   2.670000      5.1718664E-29
   2.680000      5.5222629E-29
   2.690000      5.8821801E-29
   2.700000      6.2509643E-29
   2.710000      6.6278851E-29
   2.720000      7.0121358E-29
   2.730000      7.4028329E-29
   2.740000      7.7990136E-29
   2.750000      8.1996323E-29
   2.760000      8.6035576E-29
   2.770000      9.0095701E-29
   2.780000      9.4163584E-29
   2.790000      9.8225123E-29
   2.800000      1.0226523E-28
   2.810000      1.0626776E-28
   2.820000      1.1021548E-28
   2.830000      1.1409009E-28
   2.840000      1.1787216E-28
   2.850000      1.2154115E-28
   2.860000      1.2507545E-28
   2.870000      1.2845240E-28
   2.880000      1.3164839E-28
   2.890000      1.3463889E-28
   2.900000      1.3739863E-28
   2.910000      1.3990173E-28
   2.920000      1.4212181E-28
   2.930000      1.4403224E-28
   2.940000      1.4560630E-28
   2.950000      1.4681748E-28
   2.960000      1.4763961E-28
   2.970000      1.4804721E-28
   2.980000      1.4801566E-28
   2.990000      1.4752150E-28
   3.000000      1.4654266E-28
   3.010000      1.4505873E-28
   3.020000      1.4305114E-28
   3.030000      1.4050344E-28
   3.040000      1.3740146E-28
   3.050000      1.3373355E-28
   3.060000      1.2949067E-28
   3.070000      1.2466669E-28
   3.080000      1.1925851E-28
   3.090000      1.1326617E-28
   3.100000      1.0669309E-28
   3.110000      9.9546203E-29
   3.120000      9.1836206E-29
   3.130000      8.3577674E-29
   3.140000      7.4789313E-29
   3.150000      6.5494233E-29
   3.160000      5.5720145E-29
   3.170000      4.5499601E-29
   3.180000      3.4870325E-29
   3.190000      2.3875550E-29
   3.200000      1.2564234E-29
   3.210000      9.9141739E-31
   3.220000     -1.0781535E-29
   3.230000     -2.2686720E-29
   3.240000     -3.4649496E-29
   3.250000     -4.6588260E-29
   3.260000     -5.8414514E-29
   3.270000     -7.0032615E-29
   3.280000     -8.1340044E-29
   3.290000     -9.2227597E-29
   3.300000     -1.0257952E-28
   3.310000     -1.1227411E-28
   3.320000     -1.2118406E-28
   3.330000     -1.2917729E-28
   3.340000     -1.3611742E-28
   3.350000     -1.4186479E-28
   3.360000     -1.4627729E-28
   3.370000     -1.4921147E-28
   3.380000     -1.5052370E-28
   3.390000     -1.5007123E-28
   3.400000     -1.4771348E-28
   3.410000     -1.4331326E-28
   3.420000     -1.3673806E-28
   3.430000     -1.2786144E-28
   3.440000     -1.1656441E-28
   3.450000     -1.0273664E-28
   3.460000     -8.6278002E-29
   3.470000     -6.7100164E-29
   3.480000     -4.5127996E-29
   3.490000     -2.0300803E-29
   3.500000      7.4258149E-30
   3.510000      3.8078328E-29
   3.520000      7.1663637E-29
   3.530000      1.0816718E-28
   3.540000      1.4755090E-28
   3.550000      1.8975134E-28
   3.560000      2.3467757E-28
   3.570000      2.8220856E-28
   3.580000      3.3219092E-28
   3.590000      3.8443668E-28
   3.600000      4.3872053E-28
   3.610000      4.9477713E-28
   3.620000      5.5229864E-28
   3.630000      6.1093218E-28
   3.640000      6.7027769E-28
   3.650000      7.2988460E-28
   3.660000      7.8925071E-28
   3.670000      8.4781949E-28
   3.680000      9.0497850E-28
   3.690000      9.6005874E-28
   3.700000      1.0123322E-27
   3.710000      1.0610128E-27
   3.720000      1.1052547E-27
   3.730000      1.1441540E-27
   3.740000      1.1767482E-27
   3.750000      1.2020180E-27
   3.760000      1.2188894E-27
   3.770000      1.2262346E-27
   3.780000      1.2228767E-27
   3.790000      1.2075904E-27
   3.800000      1.1791074E-27
   3.810000      1.1361202E-27
   3.820000      1.0772871E-27
   3.830000      1.0012355E-27
   3.840000      9.0656787E-28
   3.850000      7.9186815E-28
   3.860000      6.5571034E-28
   3.870000      4.9666353E-28
   3.880000      3.1329764E-28
   3.890000      1.0419252E-28
   3.900000     -1.3205104E-28
   3.910000     -3.9680245E-28
   3.920000     -6.9139099E-28
   3.930000     -1.0170958E-27
   3.940000     -1.3751342E-27
   3.950000     -1.7666428E-27
   3.960000     -2.1926691E-27
   3.970000     -2.6541566E-27
   3.980000     -3.1519240E-27
   3.990000     -3.6866513E-27
   4.000000     -4.2588617E-27
   4.010000     -4.8688988E-27
   4.020000     -5.5169088E-27
   4.030000     -6.2028206E-27
   4.040000     -6.9263259E-27
   4.050000     -7.6868494E-27
   4.060000     -8.4835319E-27
   4.070000     -9.3152070E-27
   4.080000     -1.0180377E-26
   4.090000     -1.1077187E-26
   4.100000     -1.2003406E-26
   4.110000     -1.2956406E-26
   4.120000     -1.3933131E-26
   4.130000     -1.4930088E-26
   4.140000     -1.5943315E-26
   4.150000     -1.6968369E-26
   4.160000     -1.8000299E-26
   4.170000     -1.9033634E-26
   4.180000     -2.0062374E-26
   4.190000     -2.1079953E-26
   4.200000     -2.2079254E-26
   4.210000     -2.3052568E-26
   4.220000     -2.3991599E-26
   4.230000     -2.4887451E-26
   4.240000     -2.5730617E-26
   4.250000     -2.6510993E-26
   4.260000     -2.7217846E-26
   4.270000     -2.7839838E-26
   4.280000     -2.8365013E-26
   4.290000     -2.8780820E-26
   4.300000     -2.9074100E-26
   4.310000     -2.9231118E-26
   4.320000     -2.9237555E-26
   4.330000     -2.9078575E-26
   4.340000     -2.8738804E-26
   4.350000     -2.8202409E-26
   4.360000     -2.7453068E-26
   4.370000     -2.6474083E-26
   4.380000     -2.5248415E-26
   4.390000     -2.3758722E-26
   4.400000     -2.1987435E-26
   4.410000     -1.9916826E-26
   4.420000     -1.7529090E-26
   4.430000     -1.4806449E-26
   4.440000     -1.1731225E-26
   4.450000     -8.2859615E-27
   4.460000     -4.4535200E-27
   4.470000     -2.1722588E-28
   4.480000      4.4390390E-27
   4.490000      9.5306754E-27
   4.500000      1.5072225E-26
   4.510000      2.1077242E-26
   4.520000      2.7558101E-26
   4.530000      3.4525850E-26
   4.540000      4.1990068E-26
   4.550000      4.9958626E-26
   4.560000      5.8437522E-26
   4.570000      6.7430702E-26
   4.580000      7.6939866E-26
   4.590000      8.6964223E-26
   4.600000      9.7500305E-26
   4.610000      1.0854175E-25
   4.620000      1.2007906E-25
   4.630000      1.3209942E-25
   4.640000      1.4458638E-25
   4.650000      1.5751971E-25
   4.660000      1.7087505E-25
   4.670000      1.8462377E-25
   4.680000      1.9873270E-25
   4.690000      2.1316380E-25
   4.700000      2.2787398E-25
   4.710000      2.4281491E-25
   4.720000      2.5793262E-25
   4.730000      2.7316744E-25
   4.740000      2.8845370E-25
   4.750000      3.0371949E-25
   4.760000      3.1888637E-25
   4.770000      3.3386935E-25
   4.780000      3.4857663E-25
   4.790000      3.6290932E-25
   4.800000      3.7676152E-25
   4.810000      3.9001998E-25
   4.820000      4.0256432E-25
   4.830000      4.1426656E-25
   4.840000      4.2499112E-25
   4.850000      4.3459501E-25
   4.860000      4.4292780E-25
   4.870000      4.4983166E-25
   4.880000      4.5514143E-25
   4.890000      4.5868480E-25
   4.900000      4.6028244E-25
   4.910000      4.5974818E-25
   4.920000      4.5688940E-25
   4.930000      4.5150700E-25
   4.940000      4.4339604E-25
   4.950000      4.3234631E-25
   4.960000      4.1814267E-25
   4.970000      4.0056547E-25
   4.980000      3.7939136E-25
   4.990000      3.5439362E-25
   5.000000      3.2534327E-25
   5.010000      2.9200993E-25
   5.020000      2.5416216E-25
   5.030000      2.1156890E-25
   5.040000      1.6400064E-25
   5.050000      1.1123013E-25
   5.060000      5.3033239E-26
   5.070000     -1.0808472E-26
   5.080000     -8.0506996E-26
   5.090000     -1.5626733E-25
   5.100000     -2.3828441E-25
   5.110000     -3.2674187E-25
   5.120000     -4.2181088E-25
   5.130000     -5.2364755E-25
   5.140000     -6.3239158E-25
   5.150000     -7.4816451E-25
   5.160000     -8.7106692E-25
   5.170000     -1.0011764E-24
   5.180000     -1.1385449E-24
   5.190000     -1.2831971E-24
   5.200000     -1.4351276E-24
   5.210000     -1.5942986E-24
   5.220000     -1.7606374E-24
   5.230000     -1.9340327E-24
   5.240000     -2.1143336E-24
   5.250000     -2.3013467E-24
   5.260000     -2.4948326E-24
   5.270000     -2.6945027E-24
   5.280000     -2.9000174E-24
   5.290000     -3.1109826E-24
   5.300000     -3.3269475E-24
   5.310000     -3.5474014E-24
   5.320000     -3.7717716E-24
   5.330000     -3.9994191E-24
   5.340000     -4.2296371E-24
   5.350000     -4.4616482E-24
   5.360000     -4.6946012E-24
   5.370000     -4.9275707E-24
   5.380000     -5.1595503E-24
   5.390000     -5.3894563E-24
   5.400000     -5.6161213E-24
   5.410000     -5.8382925E-24
   5.420000     -6.0546317E-24
   5.430000     -6.2637130E-24
   5.440000     -6.4640225E-24
   5.450000     -6.6539550E-24
   5.460000     -6.8318147E-24
   5.470000     -6.9958157E-24
   5.480000     -7.1440813E-24
   5.490000     -7.2746426E-24
   5.500000     -7.3854412E-24
   5.510000     -7.4743324E-24
   5.520000     -7.5390774E-24
   5.530000     -7.5773600E-24
   5.540000     -7.5867775E-24
   5.550000     -7.5648495E-24
   5.560000     -7.5090210E-24
   5.570000     -7.4166635E-24
   5.580000     -7.2850816E-24
   5.590000     -7.1115156E-24
   5.600000     -6.8931565E-24
   5.610000     -6.6271479E-24
   5.620000     -6.3105891E-24
   5.630000     -5.9405545E-24
   5.640000     -5.5140963E-24
   5.650000     -5.0282515E-24
   5.660000     -4.4800543E-24
   5.670000     -3.8665540E-24
   5.680000     -3.1848247E-24
   5.690000     -2.4319732E-24
   5.700000     -1.6051603E-24
   5.710000     -7.0161590E-25
   5.720000      2.8135414E-25
   5.730000      1.3463360E-24
   5.740000      2.4957975E-24
   5.750000      3.7320670E-24
   5.760000      5.0573155E-24
   5.770000      6.4735358E-24
   5.780000      7.9825222E-24
   5.790000      9.5858370E-24
   5.800000      1.1284793E-23
   5.810000      1.3080433E-23
   5.820000      1.4973498E-23
   5.830000      1.6964406E-23
   5.840000      1.9053225E-23
   5.850000      2.1239635E-23
   5.860000      2.3522911E-23
   5.870000      2.5901890E-23
   5.880000      2.8374935E-23
   5.890000      3.0939917E-23
   5.900000      3.3594175E-23
   5.910000      3.6334498E-23
   5.920000      3.9157071E-23
   5.930000      4.2057460E-23
   5.940000      4.5030582E-23
   5.950000      4.8070666E-23
   5.960000      5.1171217E-23
   5.970000      5.4325007E-23
   5.980000      5.7524040E-23
   5.990000      6.0759506E-23
   6.000000      6.4021768E-23
   6.010000      6.7300324E-23
   6.020000      7.0583784E-23
   6.030000      7.3859873E-23
   6.040000      7.7115369E-23
   6.050000      8.0336105E-23
   6.060000      8.3506922E-23
   6.070000      8.6611702E-23
   6.080000      8.9633311E-23
   6.090000      9.2553611E-23
   6.100000      9.5353442E-23
   6.110000      9.8012604E-23
   6.120000      1.0050989E-22
   6.130000      1.0282305E-22
   6.140000      1.0492882E-22
   6.150000      1.0680296E-22
   6.160000      1.0842021E-22
   6.170000      1.0975434E-22
   6.180000      1.1077818E-22
   6.190000      1.1146365E-22
   6.200000      1.1178179E-22
   6.210000      1.1170274E-22
   6.220000      1.1119591E-22
   6.230000      1.1023000E-22
   6.240000      1.0877301E-22
   6.250000      1.0679238E-22
   6.260000      1.0425492E-22
   6.270000      1.0112703E-22
   6.280000      9.7374870E-23
   6.290000      9.2964254E-23
   6.300000      8.7860810E-23
   6.310000      8.2030212E-23
   6.320000      7.5438238E-23
   6.330000      6.8050890E-23
   6.340000      5.9834588E-23
   6.350000      5.0756248E-23
   6.360000      4.0783415E-23
   6.370000      2.9884544E-23
   6.380000      1.8029080E-23
   6.390000      5.1877300E-24
   6.400000     -8.6672976E-24
   6.410000     -2.3562183E-23
   6.420000     -3.9521319E-23
   6.430000     -5.6567070E-23
   6.440000     -7.4719447E-23
   6.450000     -9.3995945E-23
   6.460000     -1.1441125E-22
   6.470000     -1.3597693E-22
   6.480000     -1.5870133E-22
   6.490000     -1.8258922E-22
   6.500000     -2.0764134E-22
   6.510000     -2.3385439E-22
   6.520000     -2.6122067E-22
   6.530000     -2.8972771E-22
   6.540000     -3.1935806E-22
   6.550000     -3.5008892E-22
   6.560000     -3.8189193E-22
   6.570000     -4.1473270E-22
   6.580000     -4.4857065E-22
   6.590000     -4.8335863E-22
   6.600000     -5.1904266E-22
   6.610000     -5.5556169E-22
   6.620000     -5.9284717E-22
   6.630000     -6.3082286E-22
   6.640000     -6.6940454E-22
   6.650000     -7.0849973E-22
   6.660000     -7.4800745E-22
   6.670000     -7.8781789E-22
   6.680000     -8.2781216E-22
   6.690000     -8.6786241E-22
   6.700000     -9.0783123E-22
   6.710000     -9.4757174E-22
   6.720000     -9.8692704E-22
   6.730000     -1.0257304E-21
   6.740000     -1.0638054E-21
   6.750000     -1.1009651E-21
   6.760000     -1.1370128E-21
   6.770000     -1.1717415E-21
   6.780000     -1.2049340E-21
   6.790000     -1.2363628E-21
   6.800000     -1.2657905E-21
   6.810000     -1.2929702E-21
   6.820000     -1.3176453E-21
   6.830000     -1.3395495E-21
   6.840000     -1.3584066E-21
   6.850000     -1.3739325E-21
   6.860000     -1.3858338E-21
   6.870000     -1.3938093E-21
   6.880000     -1.3975504E-21
   6.890000     -1.3967415E-21
   6.900000     -1.3910608E-21
   6.910000     -1.3801798E-21
   6.920000     -1.3637655E-21
   6.930000     -1.3414805E-21
   6.940000     -1.3129833E-21
   6.950000     -1.2779306E-21
   6.960000     -1.2359778E-21
   6.970000     -1.1867800E-21
   6.980000     -1.1299928E-21
   6.990000     -1.0652734E-21
   7.000000     -9.9228271E-22
   7.010000     -9.1068688E-22
   7.020000     -8.2015750E-22
   7.030000     -7.2037405E-22
   7.040000     -6.1102540E-22
   7.050000     -4.9181113E-22
   7.060000     -3.6244412E-22