  -2.600000      0.0000000E+00
  -2.590000      0.0000000E+00
  -2.580000      0.0000000E+00
  -2.570000      0.0000000E+00
  -2.560000      0.0000000E+00
  -2.550000      0.0000000E+00
  -2.540000      0.0000000E+00
  -2.530000      0.0000000E+00
  -2.520000      0.0000000E+00
  -2.510000      0.0000000E+00
  -2.500000      0.0000000E+00
  -2.490000      0.0000000E+00
  -2.480000      0.0000000E+00
  -2.470000      0.0000000E+00
  -2.460000      0.0000000E+00
  -2.450000      0.0000000E+00
  -2.440000      0.0000000E+00
  -2.430000      0.0000000E+00
  -2.420000      0.0000000E+00
  -2.410000      0.0000000E+00
  -2.400000      0.0000000E+00
  -2.390000      0.0000000E+00
  -2.380000      0.0000000E+00
  -2.370000      0.0000000E+00
  -2.360000      0.0000000E+00
  -2.350000      0.0000000E+00
  -2.340000      0.0000000E+00
  -2.330000      0.0000000E+00
  -2.320000      0.0000000E+00
  -2.310000      0.0000000E+00
  -2.300000      0.0000000E+00
  -2.290000      0.0000000E+00
  -2.280000      0.0000000E+00
  -2.270000      0.0000000E+00
  -2.260000      0.0000000E+00
  -2.250000      0.0000000E+00
  -2.240000      0.0000000E+00
  -2.230000      0.0000000E+00
  -2.220000      0.0000000E+00
  -2.210000      0.0000000E+00
  -2.200000      0.0000000E+00
  -2.190000      0.0000000E+00
  -2.180000      0.0000000E+00
  -2.170000      0.0000000E+00
  -2.160000      0.0000000E+00
  -2.150000      0.0000000E+00
  -2.140000      0.0000000E+00
  -2.130000      0.0000000E+00
  -2.120000      0.0000000E+00
  -2.110000      0.0000000E+00
  -2.100000      0.0000000E+00
  -2.090000      0.0000000E+00
  -2.080000      0.0000000E+00
  -2.070000      0.0000000E+00
  -2.060000      0.0000000E+00
  -2.050000      0.0000000E+00
  -2.040000      0.0000000E+00
  -2.030000      0.0000000E+00
  -2.020000      0.0000000E+00
  -2.010000      0.0000000E+00
  -2.000000      0.0000000E+00
  -1.990000      0.0000000E+00
  -1.980000      0.0000000E+00
  -1.970000      0.0000000E+00
  -1.960000      0.0000000E+00
  -1.950000      0.0000000E+00
  -1.940000      0.0000000E+00
  -1.930000      0.0000000E+00
  -1.920000      0.0000000E+00
  -1.910000      0.0000000E+00
  -1.900000      0.0000000E+00
  -1.890000      0.0000000E+00
  -1.880000      0.0000000E+00
  -1.870000      0.0000000E+00
  -1.860000      0.0000000E+00
  -1.850000      0.0000000E+00
  -1.840000      0.0000000E+00
  -1.830000      0.0000000E+00
  -1.820000      0.0000000E+00
  -1.810000      0.0000000E+00
  -1.800000      0.0000000E+00
  -1.790000      0.0000000E+00
  -1.780000      0.0000000E+00
  -1.770000      0.0000000E+00
  -1.760000      0.0000000E+00
  -1.750000      0.0000000E+00
  -1.740000      0.0000000E+00
  -1.730000      0.0000000E+00
  -1.720000      0.0000000E+00
  -1.710000      0.0000000E+00
  -1.700000      0.0000000E+00
  -1.690000      0.0000000E+00
  -1.680000      0.0000000E+00
  -1.670000      0.0000000E+00
  -1.660000      0.0000000E+00
  -1.650000      0.0000000E+00
  -1.640000      0.0000000E+00
  -1.630000      0.0000000E+00
  -1.620000      0.0000000E+00
  -1.610000      0.0000000E+00
  -1.600000      0.0000000E+00
  -1.590000      0.0000000E+00
  -1.580000      0.0000000E+00
  -1.570000      0.0000000E+00
  -1.560000      0.0000000E+00
  -1.550000      0.0000000E+00
  -1.540000      0.0000000E+00
  -1.530000      0.0000000E+00
  -1.520000      0.0000000E+00
  -1.510000      0.0000000E+00
  -1.500000      0.0000000E+00
  -1.490000      0.0000000E+00
  -1.480000      0.0000000E+00
  -1.470000      0.0000000E+00
  -1.460000      0.0000000E+00
  -1.450000      0.0000000E+00
  -1.440000      0.0000000E+00
  -1.430000      0.0000000E+00
  -1.420000      0.0000000E+00
  -1.410000      0.0000000E+00
  -1.400000      0.0000000E+00
  -1.390000      0.0000000E+00
  -1.380000      0.0000000E+00
  -1.370000      0.0000000E+00
  -1.360000      0.0000000E+00
  -1.350000      0.0000000E+00
  -1.340000      0.0000000E+00
  -1.330000      0.0000000E+00
  -1.320000      0.0000000E+00
  -1.310000      0.0000000E+00
  -1.300000      0.0000000E+00
  -1.290000      0.0000000E+00
  -1.280000      0.0000000E+00
  -1.270000      0.0000000E+00
  -1.260000      0.0000000E+00
  -1.250000      0.0000000E+00
  -1.240000      0.0000000E+00
  -1.230000      0.0000000E+00
  -1.220000      0.0000000E+00
  -1.210000      0.0000000E+00
  -1.200000      0.0000000E+00
  -1.190000      0.0000000E+00
  -1.180000      0.0000000E+00
  -1.170000      0.0000000E+00
  -1.160000      0.0000000E+00
  -1.150000      0.0000000E+00
  -1.140000      0.0000000E+00
  -1.130000      0.0000000E+00
  -1.120000      0.0000000E+00
  -1.110000      0.0000000E+00
  -1.100000      0.0000000E+00
  -1.090000      0.0000000E+00
  -1.080000      0.0000000E+00
  -1.070000      0.0000000E+00
  -1.060000      0.0000000E+00
  -1.050000      0.0000000E+00
  -1.040000      0.0000000E+00
  -1.030000      0.0000000E+00
  -1.020000      0.0000000E+00
  -1.010000      0.0000000E+00
  -1.000000      0.0000000E+00
 -0.9900000      0.0000000E+00
 -0.9800000      0.0000000E+00
 -0.9700000      0.0000000E+00
 -0.9600000      0.0000000E+00
 -0.9500000      0.0000000E+00
 -0.9400000      0.0000000E+00
 -0.9300000      0.0000000E+00
 -0.9200000      0.0000000E+00
 -0.9100000      0.0000000E+00
 -0.9000000      0.0000000E+00
 -0.8900000      0.0000000E+00
 -0.8800000      0.0000000E+00
 -0.8700000      0.0000000E+00
 -0.8600000      0.0000000E+00
 -0.8500000      0.0000000E+00
 -0.8400000      0.0000000E+00
 -0.8300000      0.0000000E+00
 -0.8200000      0.0000000E+00
 -0.8100000      0.0000000E+00
 -0.8000000      0.0000000E+00
 -0.7900000      0.0000000E+00
 -0.7800000      0.0000000E+00
 -0.7700000      0.0000000E+00
 -0.7600000      0.0000000E+00
 -0.7500000      0.0000000E+00
 -0.7400000      0.0000000E+00
 -0.7300000      0.0000000E+00
 -0.7200000      0.0000000E+00
 -0.7100000      0.0000000E+00
 -0.7000000      0.0000000E+00
 -0.6900000      0.0000000E+00
 -0.6800000      0.0000000E+00
 -0.6700000      0.0000000E+00
 -0.6600000      0.0000000E+00
 -0.6500000      0.0000000E+00
 -0.6400000      0.0000000E+00
 -0.6300000      0.0000000E+00
 -0.6200000      0.0000000E+00
 -0.6100000      0.0000000E+00
 -0.6000000      0.0000000E+00
 -0.5900000      0.0000000E+00
 -0.5800000      0.0000000E+00
 -0.5700000      0.0000000E+00
 -0.5600000      0.0000000E+00
 -0.5500000      0.0000000E+00
 -0.5400000      0.0000000E+00
 -0.5300000      0.0000000E+00
 -0.5200000      0.0000000E+00
 -0.5100000      0.0000000E+00
 -0.5000000      0.0000000E+00
 -0.4900000      0.0000000E+00
 -0.4800000      0.0000000E+00
 -0.4700000      0.0000000E+00
 -0.4600000      0.0000000E+00
 -0.4500000      0.0000000E+00
 -0.4400000      0.0000000E+00
 -0.4300000      0.0000000E+00
 -0.4200000      0.0000000E+00
 -0.4100000      0.0000000E+00
 -0.4000000      0.0000000E+00
 -0.3900000      0.0000000E+00
 -0.3800000      0.0000000E+00
 -0.3700000      0.0000000E+00
 -0.3600000      0.0000000E+00
 -0.3500000      0.0000000E+00
 -0.3400000      0.0000000E+00
 -0.3300000      0.0000000E+00
 -0.3200000      0.0000000E+00
 -0.3100000      0.0000000E+00
 -0.3000000      0.0000000E+00
 -0.2900000      0.0000000E+00
 -0.2800000      0.0000000E+00
 -0.2700000      0.0000000E+00
 -0.2600000      0.0000000E+00
 -0.2500000      0.0000000E+00
 -0.2400000      0.0000000E+00
 -0.2300000      0.0000000E+00
 -0.2200000      0.0000000E+00
 -0.2100000      0.0000000E+00
 -0.2000000      0.0000000E+00
 -0.1900000      0.0000000E+00
 -0.1800000      0.0000000E+00
 -0.1700000      0.0000000E+00
 -0.1600000      0.0000000E+00
 -0.1500000      0.0000000E+00
 -0.1400000      0.0000000E+00
 -0.1300000      0.0000000E+00
 -0.1200000      0.0000000E+00
 -0.1100000      0.0000000E+00
 -0.1000000      0.0000000E+00
 -9.0000004E-02  0.0000000E+00
 -7.9999998E-02  0.0000000E+00
 -7.0000000E-02  0.0000000E+00
 -5.9999999E-02  0.0000000E+00
 -5.0000001E-02  0.0000000E+00
 -3.9999999E-02  0.0000000E+00
 -2.9999999E-02  0.0000000E+00
 -2.0000000E-02  0.0000000E+00
 -9.9999998E-03  0.0000000E+00
 -3.4694470E-17  0.0000000E+00
  9.9999998E-03  0.0000000E+00
  2.0000000E-02  0.0000000E+00
  2.9999999E-02  0.0000000E+00
  3.9999999E-02  0.0000000E+00
  5.0000001E-02  0.0000000E+00
  5.9999999E-02  0.0000000E+00
  7.0000000E-02  0.0000000E+00
  7.9999998E-02  0.0000000E+00
  9.0000004E-02  0.0000000E+00
  0.1000000      0.0000000E+00
  0.1100000      0.0000000E+00
  0.1200000      0.0000000E+00
  0.1300000      0.0000000E+00
  0.1400000      0.0000000E+00
  0.1500000      0.0000000E+00
  0.1600000      0.0000000E+00
  0.1700000      0.0000000E+00
  0.1800000      0.0000000E+00
  0.1900000      0.0000000E+00
  0.2000000      0.0000000E+00
  0.2100000      0.0000000E+00
  0.2200000      0.0000000E+00
  0.2300000      0.0000000E+00
  0.2400000      0.0000000E+00
  0.2500000      0.0000000E+00
  0.2600000      0.0000000E+00
  0.2700000      0.0000000E+00
  0.2800000      0.0000000E+00
  0.2900000      0.0000000E+00
  0.3000000      0.0000000E+00
  0.3100000      0.0000000E+00
  0.3200000      0.0000000E+00
  0.3300000      0.0000000E+00
  0.3400000      0.0000000E+00
  0.3500000      0.0000000E+00
  0.3600000      0.0000000E+00
  0.3700000      0.0000000E+00
  0.3800000      0.0000000E+00
  0.3900000      0.0000000E+00
  0.4000000      0.0000000E+00
  0.4100000      0.0000000E+00
  0.4200000      0.0000000E+00
  0.4300000      0.0000000E+00
  0.4400000      0.0000000E+00
  0.4500000      0.0000000E+00
  0.4600000      0.0000000E+00
  0.4700000      0.0000000E+00
  0.4800000      0.0000000E+00
  0.4900000      0.0000000E+00
  0.5000000      0.0000000E+00
  0.5100000      0.0000000E+00
  0.5200000      0.0000000E+00
  0.5300000      0.0000000E+00
  0.5400000      0.0000000E+00
  0.5500000      0.0000000E+00
  0.5600000      0.0000000E+00
  0.5700000      0.0000000E+00
  0.5800000      0.0000000E+00
  0.5900000      0.0000000E+00
  0.6000000      0.0000000E+00
  0.6100000      0.0000000E+00
  0.6200000      0.0000000E+00
  0.6300000      0.0000000E+00
  0.6400000      0.0000000E+00
  0.6500000      0.0000000E+00
  0.6600000      0.0000000E+00
  0.6700000      0.0000000E+00
  0.6800000      0.0000000E+00
  0.6900000      0.0000000E+00
  0.7000000      0.0000000E+00
  0.7100000      0.0000000E+00
  0.7200000      0.0000000E+00
  0.7300000      0.0000000E+00
  0.7400000      0.0000000E+00
  0.7500000      0.0000000E+00
  0.7600000      0.0000000E+00
  0.7700000      0.0000000E+00
  0.7800000      0.0000000E+00
  0.7900000      0.0000000E+00
  0.8000000      0.0000000E+00
  0.8100000      0.0000000E+00
  0.8200000      0.0000000E+00
  0.8300000      0.0000000E+00
  0.8400000      0.0000000E+00
  0.8500000      0.0000000E+00
  0.8600000      0.0000000E+00
  0.8700000      0.0000000E+00
  0.8800000      0.0000000E+00
  0.8900000      0.0000000E+00
  0.9000000      0.0000000E+00
  0.9100000      0.0000000E+00
  0.9200000      0.0000000E+00
  0.9300000      0.0000000E+00
  0.9400000      0.0000000E+00
  0.9500000      0.0000000E+00
  0.9600000      0.0000000E+00
  0.9700000      0.0000000E+00
  0.9800000      0.0000000E+00
  0.9900000      0.0000000E+00
   1.000000      0.0000000E+00
   1.010000      0.0000000E+00
   1.020000      0.0000000E+00
   1.030000      0.0000000E+00
   1.040000      0.0000000E+00
   1.050000      0.0000000E+00
   1.060000      0.0000000E+00
   1.070000      0.0000000E+00
   1.080000      0.0000000E+00
   1.090000      0.0000000E+00
   1.100000      0.0000000E+00
   1.110000      0.0000000E+00
   1.120000      0.0000000E+00
   1.130000      0.0000000E+00
   1.140000      0.0000000E+00
   1.150000      0.0000000E+00
   1.160000      0.0000000E+00
   1.170000      0.0000000E+00
   1.180000      0.0000000E+00
   1.190000      0.0000000E+00
   1.200000      0.0000000E+00
   1.210000      0.0000000E+00
   1.220000      0.0000000E+00
   1.230000      0.0000000E+00
   1.240000      0.0000000E+00
   1.250000      0.0000000E+00
   1.260000      0.0000000E+00
   1.270000      0.0000000E+00
   1.280000      0.0000000E+00
   1.290000      0.0000000E+00
   1.300000      0.0000000E+00
   1.310000      0.0000000E+00
   1.320000      0.0000000E+00
   1.330000      0.0000000E+00
   1.340000      0.0000000E+00
   1.350000      0.0000000E+00
   1.360000      0.0000000E+00
   1.370000      0.0000000E+00
   1.380000      0.0000000E+00
   1.390000      0.0000000E+00
   1.400000      0.0000000E+00
   1.410000      0.0000000E+00
   1.420000      0.0000000E+00
   1.430000      0.0000000E+00
   1.440000      0.0000000E+00
   1.450000      0.0000000E+00
   1.460000      0.0000000E+00
   1.470000      0.0000000E+00
   1.480000      0.0000000E+00
   1.490000      0.0000000E+00
   1.500000      0.0000000E+00
   1.510000      0.0000000E+00
   1.520000      0.0000000E+00
   1.530000      0.0000000E+00
   1.540000      0.0000000E+00
   1.550000      0.0000000E+00
   1.560000      0.0000000E+00
   1.570000      0.0000000E+00
   1.580000      0.0000000E+00
   1.590000      0.0000000E+00
   1.600000      0.0000000E+00
   1.610000      0.0000000E+00
   1.620000      0.0000000E+00
   1.630000      0.0000000E+00
   1.640000      0.0000000E+00
   1.650000      0.0000000E+00
   1.660000      0.0000000E+00
   1.670000      0.0000000E+00
   1.680000      0.0000000E+00
   1.690000      0.0000000E+00
   1.700000      0.0000000E+00
   1.710000      0.0000000E+00
   1.720000      0.0000000E+00
   1.730000      0.0000000E+00
   1.740000      0.0000000E+00
   1.750000      0.0000000E+00
   1.760000      0.0000000E+00
   1.770000      0.0000000E+00
   1.780000      0.0000000E+00
   1.790000      0.0000000E+00
   1.800000      0.0000000E+00
   1.810000      0.0000000E+00
   1.820000      0.0000000E+00
   1.830000      0.0000000E+00
   1.840000      0.0000000E+00
   1.850000      0.0000000E+00
   1.860000      0.0000000E+00
   1.870000      0.0000000E+00
   1.880000      0.0000000E+00
   1.890000      0.0000000E+00
   1.900000      0.0000000E+00
   1.910000      0.0000000E+00
   1.920000      0.0000000E+00
   1.930000      0.0000000E+00
   1.940000      0.0000000E+00
   1.950000      0.0000000E+00
   1.960000      0.0000000E+00
   1.970000      0.0000000E+00
   1.980000      0.0000000E+00
   1.990000      0.0000000E+00
   2.000000      0.0000000E+00
   2.010000      0.0000000E+00
   2.020000      0.0000000E+00
   2.030000      0.0000000E+00
   2.040000      0.0000000E+00
   2.050000      0.0000000E+00
   2.060000      0.0000000E+00
   2.070000      0.0000000E+00
   2.080000      0.0000000E+00
   2.090000      0.0000000E+00
   2.100000      0.0000000E+00
   2.110000      0.0000000E+00
   2.120000      0.0000000E+00
   2.130000      0.0000000E+00
   2.140000      0.0000000E+00
   2.150000      0.0000000E+00
   2.160000      0.0000000E+00
   2.170000      0.0000000E+00
   2.180000      0.0000000E+00
   2.190000      0.0000000E+00
   2.200000      0.0000000E+00
   2.210000      0.0000000E+00
   2.220000      0.0000000E+00
   2.230000      0.0000000E+00
   2.240000      0.0000000E+00
   2.250000      0.0000000E+00
   2.260000      0.0000000E+00
   2.270000      0.0000000E+00
   2.280000      0.0000000E+00
   2.290000      0.0000000E+00
   2.300000      0.0000000E+00
   2.310000      0.0000000E+00
   2.320000      0.0000000E+00
   2.330000      0.0000000E+00
   2.340000      0.0000000E+00
   2.350000      0.0000000E+00
   2.360000      0.0000000E+00
   2.370000      0.0000000E+00
   2.380000      0.0000000E+00
   2.390000      0.0000000E+00
   2.400000      0.0000000E+00
   2.410000      0.0000000E+00
   2.420000      0.0000000E+00
   2.430000      0.0000000E+00
   2.440000      0.0000000E+00
   2.450000      0.0000000E+00
   2.460000      0.0000000E+00
   2.470000      0.0000000E+00
   2.480000      0.0000000E+00
   2.490000      0.0000000E+00
   2.500000      0.0000000E+00
   2.510000      0.0000000E+00
   2.520000      0.0000000E+00
   2.530000      0.0000000E+00
   2.540000      0.0000000E+00
   2.550000      0.0000000E+00
   2.560000      0.0000000E+00
   2.570000      0.0000000E+00
   2.580000      0.0000000E+00
   2.590000      0.0000000E+00
   2.600000      0.0000000E+00
   2.610000      0.0000000E+00
   2.620000      0.0000000E+00
   2.630000      0.0000000E+00
   2.640000      0.0000000E+00
   2.650000      0.0000000E+00
   2.660000      0.0000000E+00
   2.670000      0.0000000E+00
   2.680000      0.0000000E+00
   2.690000      0.0000000E+00
   2.700000      0.0000000E+00
   2.710000      0.0000000E+00
   2.720000      0.0000000E+00
   2.730000      0.0000000E+00
   2.740000      0.0000000E+00
   2.750000      0.0000000E+00
   2.760000      0.0000000E+00
   2.770000      0.0000000E+00
   2.780000      0.0000000E+00
   2.790000      0.0000000E+00
   2.800000      0.0000000E+00
   2.810000      0.0000000E+00
   2.820000      0.0000000E+00
   2.830000      0.0000000E+00
   2.840000      0.0000000E+00
   2.850000      0.0000000E+00
   2.860000      0.0000000E+00
   2.870000      0.0000000E+00
   2.880000      0.0000000E+00
   2.890000      0.0000000E+00
   2.900000      0.0000000E+00
   2.910000      0.0000000E+00
   2.920000      0.0000000E+00
   2.930000      0.0000000E+00
   2.940000      0.0000000E+00
   2.950000      0.0000000E+00
   2.960000      0.0000000E+00
   2.970000      0.0000000E+00
   2.980000      0.0000000E+00
   2.990000      0.0000000E+00
   3.000000      0.0000000E+00
   3.010000      0.0000000E+00
   3.020000      0.0000000E+00
   3.030000      0.0000000E+00
   3.040000      0.0000000E+00
   3.050000      0.0000000E+00
   3.060000      0.0000000E+00
   3.070000      0.0000000E+00
   3.080000      0.0000000E+00
   3.090000      0.0000000E+00
   3.100000      0.0000000E+00
   3.110000      0.0000000E+00
   3.120000      0.0000000E+00
   3.130000      0.0000000E+00
   3.140000      0.0000000E+00
   3.150000      0.0000000E+00
   3.160000      0.0000000E+00
   3.170000      0.0000000E+00
   3.180000      0.0000000E+00
   3.190000      0.0000000E+00
   3.200000      0.0000000E+00
   3.210000      0.0000000E+00
   3.220000      0.0000000E+00
   3.230000      0.0000000E+00
   3.240000      0.0000000E+00
   3.250000      0.0000000E+00
   3.260000      0.0000000E+00
   3.270000      0.0000000E+00
   3.280000      0.0000000E+00
   3.290000      0.0000000E+00
   3.300000      0.0000000E+00
   3.310000      0.0000000E+00
   3.320000      0.0000000E+00
   3.330000      0.0000000E+00
   3.340000      0.0000000E+00
   3.350000      0.0000000E+00
   3.360000      0.0000000E+00
   3.370000      0.0000000E+00
   3.380000      0.0000000E+00
   3.390000      0.0000000E+00
   3.400000      0.0000000E+00
   3.410000      0.0000000E+00
   3.420000      0.0000000E+00
   3.430000      0.0000000E+00
   3.440000      0.0000000E+00
   3.450000      0.0000000E+00
   3.460000      0.0000000E+00
   3.470000      0.0000000E+00
   3.480000      0.0000000E+00
   3.490000      0.0000000E+00
   3.500000      0.0000000E+00
   3.510000      0.0000000E+00
   3.520000      0.0000000E+00
   3.530000      0.0000000E+00
   3.540000      0.0000000E+00
   3.550000      0.0000000E+00
   3.560000      0.0000000E+00
   3.570000      0.0000000E+00
   3.580000      0.0000000E+00
   3.590000      0.0000000E+00
   3.600000      0.0000000E+00
   3.610000      0.0000000E+00
   3.620000      0.0000000E+00
   3.630000      0.0000000E+00
   3.640000      0.0000000E+00
   3.650000      0.0000000E+00
   3.660000      0.0000000E+00
   3.670000      0.0000000E+00
   3.680000      0.0000000E+00
   3.690000      0.0000000E+00
   3.700000      0.0000000E+00
   3.710000      1.3882444E-38
   3.720000      1.8365084E-38
   3.730000      2.3242285E-38
   3.740000      2.8400889E-38
   3.750000      3.3705765E-38
   3.760000      3.8998593E-38
   3.770000      4.4121681E-38
   3.780000      4.8907900E-38
   3.790000      5.3182707E-38
   3.800000      5.6791701E-38
   3.810000      5.9620289E-38
   3.820000      6.0828315E-38
   3.830000      6.0828315E-38
   3.840000      6.0828315E-38
   3.850000      6.0828315E-38
   3.860000      5.9771478E-38
   3.870000      5.7270754E-38
   3.880000      5.4046086E-38
   3.890000      5.0191927E-38
   3.900000      4.5792940E-38
   3.910000      3.9616535E-38
   3.920000      3.1606382E-38
   3.930000      2.3115845E-38
   3.940000      1.4432234E-38
   3.950000      0.0000000E+00
   3.960000      0.0000000E+00
   3.970000      0.0000000E+00
   3.980000     -1.4223748E-38
   3.990000     -1.9352314E-38
   4.000000     -2.4359592E-38
   4.010000     -2.8010101E-38
   4.020000     -2.8516555E-38
   4.030000     -2.6318666E-38
   4.040000     -2.2497106E-38
   4.050000     -1.7276857E-38
   4.060000      0.0000000E+00
   4.070000      0.0000000E+00
   4.080000      0.0000000E+00
   4.090000      0.0000000E+00
   4.100000      1.7631914E-38
   4.110000      2.1364831E-38
   4.120000      2.3413814E-38
   4.130000      2.4510409E-38
   4.140000      2.4435520E-38
   4.150000      2.2977876E-38
   4.160000      2.0018581E-38
   4.170000      1.5558101E-38
   4.180000      0.0000000E+00
   4.190000      0.0000000E+00
   4.200000      0.0000000E+00
   4.210000     -1.6311961E-38
   4.220000     -2.6165188E-38
   4.230000     -3.4664859E-38
   4.240000     -4.4082235E-38
   4.250000     -5.4102189E-38
   4.260000     -6.1845904E-38
   4.270000     -6.6092259E-38
   4.280000     -6.6454696E-38
   4.290000     -6.2422393E-38
   4.300000     -5.5879299E-38
   4.310000     -4.7660689E-38
   4.320000     -1.3738878E-37
   4.330000     -3.3886780E-37
   4.340000     -7.0344246E-37
   4.350000     -1.2432417E-36
   4.360000     -1.8322624E-36
   4.370000     -2.4609746E-36
   4.380000     -3.1329712E-36
   4.390000     -3.8576738E-36
   4.400000     -4.6462519E-36
   4.410000     -4.8088954E-36
   4.420000     -4.1594603E-36
   4.430000     -3.2581150E-36
   4.440000     -2.2020369E-36
   4.450000     -9.5318026E-37
   4.460000      3.8600607E-37
   4.470000      1.4913789E-36
   4.480000      2.3789930E-36
   4.490000      2.5948500E-36
   4.500000      2.2042871E-36
   4.510000      1.8798306E-36
   4.520000      1.6506182E-36
   4.530000      1.5853149E-36
   4.540000      1.6630964E-36
   4.550000      1.8295824E-36
   4.560000      2.0739605E-36
   4.570000      2.3708774E-36
   4.580000      2.7141941E-36
   4.590000      3.1884578E-36
   4.600000      3.8201905E-36
   4.610000      4.6791861E-36
   4.620000      5.1943721E-36
   4.630000      4.7519162E-36
   4.640000      3.8169329E-36
   4.650000      2.8060096E-36
   4.660000      2.1792988E-36
   4.670000      2.0224747E-36
   4.680000      2.8413034E-36
   4.690000      5.3251788E-36
   4.700000      7.6158912E-36
   4.710000      8.3528072E-36
   4.720000      8.6262186E-36
   4.730000      9.0971324E-36
   4.740000      1.0254461E-35
   4.750000      1.2138011E-35
   4.760000      1.4305222E-35
   4.770000      1.6710684E-35
   4.780000      1.9135079E-35
   4.790000      2.1080468E-35
   4.800000      2.0990374E-35
   4.810000      1.9490994E-35
   4.820000      1.8147668E-35
   4.830000      1.6570712E-35
   4.840000      1.4534635E-35
   4.850000      1.2313101E-35
   4.860000      1.0253535E-35
   4.870000      8.6655623E-36
   4.880000      7.4797407E-36
   4.890000      6.2072380E-36
   4.900000      4.6574921E-36
   4.910000      4.6499684E-36
   4.920000      6.1300832E-36
   4.930000      7.4492320E-36
   4.940000      6.8505549E-36
   4.950000      3.8238421E-36
   4.960000     -1.4219306E-38
   4.970000     -4.3751926E-36
   4.980000     -9.2492888E-36
   4.990000     -1.4350697E-35
   5.000000     -1.9882518E-35
   5.010000     -3.2290950E-35
   5.020000     -5.1295038E-35
   5.030000     -6.6310698E-35
   5.040000     -7.6554810E-35
   5.050000     -8.6227762E-35
   5.060000     -9.5917877E-35
   5.070000     -1.0467801E-34
   5.080000     -1.1146804E-34
   5.090000     -1.1182904E-34
   5.100000     -1.0510213E-34
   5.110000     -9.5685550E-35
   5.120000     -8.4420015E-35
   5.130000     -7.1998030E-35
   5.140000     -5.9991429E-35
   5.150000     -5.0937717E-35
   5.160000     -5.3426563E-35
   5.170000     -6.6404422E-35
   5.180000     -8.1293166E-35
   5.190000     -9.7146320E-35
   5.200000     -1.1714244E-34
   5.210000     -1.4080692E-34
   5.220000     -1.6588005E-34
   5.230000     -1.8895604E-34
   5.240000     -2.0507789E-34
   5.250000     -2.1647808E-34
   5.260000     -2.1935145E-34
   5.270000     -2.0575073E-34
   5.280000     -1.8050244E-34
   5.290000     -1.5002186E-34
   5.300000     -1.1632178E-34
   5.310000     -8.4302971E-35
   5.320000     -5.7055259E-35
   5.330000     -3.6521289E-35
   5.340000     -2.4001216E-35
   5.350000     -2.3170987E-35
   5.360000     -2.8510370E-35
   5.370000     -3.2225526E-35
   5.380000     -3.5168710E-35
   5.390000     -3.5275636E-35
   5.400000     -2.9008623E-35
   5.410000     -1.3455210E-35
   5.420000      1.2879785E-35
   5.430000      5.0014277E-35
   5.440000      9.8929134E-35
   5.450000      1.5859151E-34
   5.460000      2.2642430E-34
   5.470000      2.9403044E-34
   5.480000      3.5643271E-34
   5.490000      4.1616173E-34
   5.500000      4.6883366E-34
   5.510000      5.1234353E-34
   5.520000      5.4857089E-34
   5.530000      5.8115352E-34
   5.540000      6.0931506E-34
   5.550000      6.2573231E-34
   5.560000      6.3623848E-34
   5.570000      6.5870236E-34
   5.580000      6.9722142E-34
   5.590000      7.4836755E-34
   5.600000      8.1378308E-34
   5.610000      8.8787403E-34
   5.620000      9.7374187E-34
   5.630000      1.0733009E-33
   5.640000      1.1787705E-33
   5.650000      1.2805682E-33
   5.660000      1.3697383E-33
   5.670000      1.4426239E-33
   5.680000      1.4991833E-33
   5.690000      1.5442253E-33
   5.700000      1.5781904E-33
   5.710000      1.6010955E-33
   5.720000      1.6135796E-33
   5.730000      1.6171847E-33
   5.740000      1.6161989E-33
   5.750000      1.6156016E-33
   5.760000      1.6152888E-33
   5.770000      1.6159390E-33
   5.780000      1.6205650E-33
   5.790000      1.6233976E-33
   5.800000      1.6175162E-33
   5.810000      1.6036559E-33
   5.820000      1.5856372E-33
   5.830000      1.5589511E-33
   5.840000      1.5165253E-33
   5.850000      1.4493657E-33
   5.860000      1.3483259E-33
   5.870000      1.2117507E-33
   5.880000      1.0417068E-33
   5.890000      8.3877886E-34
   5.900000      6.0871450E-34
   5.910000      3.5984203E-34
   5.920000      9.9128956E-35
   5.930000     -1.7917803E-34
   5.940000     -4.7972508E-34
   5.950000     -7.9409832E-34
   5.960000     -1.1228737E-33
   5.970000     -1.4677437E-33
   5.980000     -1.8352966E-33
   5.990000     -2.2318039E-33
   6.000000     -2.6574382E-33
   6.010000     -3.1081408E-33
   6.020000     -3.5866221E-33
   6.030000     -4.0995601E-33
   6.040000     -4.6524678E-33
   6.050000     -5.2480404E-33
   6.060000     -5.8813127E-33
   6.070000     -6.5495702E-33
   6.080000     -7.2500972E-33
   6.090000     -7.9828292E-33
   6.100000     -8.7388990E-33
   6.110000     -9.5098073E-33
   6.120000     -1.0295389E-32
   6.130000     -1.1092043E-32
   6.140000     -1.1898240E-32
   6.150000     -1.2710979E-32
   6.160000     -1.3528275E-32
   6.170000     -1.4351561E-32
   6.180000     -1.5181753E-32
   6.190000     -1.6019812E-32
   6.200000     -1.6866791E-32
   6.210000     -1.7722433E-32
   6.220000     -1.8581633E-32
   6.230000     -1.9437601E-32
   6.240000     -2.0282300E-32
   6.250000     -2.1106429E-32
   6.260000     -2.1897836E-32
   6.270000     -2.2645336E-32
   6.280000     -2.3340423E-32
   6.290000     -2.3973727E-32
   6.300000     -2.4533168E-32
   6.310000     -2.5006679E-32
   6.320000     -2.5390393E-32
   6.330000     -2.5678806E-32
   6.340000     -2.5865942E-32
   6.350000     -2.5948327E-32
   6.360000     -2.5914052E-32
   6.370000     -2.5749048E-32
   6.380000     -2.5452879E-32
   6.390000     -2.5015504E-32
   6.400000     -2.4421755E-32
   6.410000     -2.3657613E-32
   6.420000     -2.2704460E-32
   6.430000     -2.1548977E-32
   6.440000     -2.0174773E-32
   6.450000     -1.8566251E-32
   6.460000     -1.6705559E-32
   6.470000     -1.4581284E-32
   6.480000     -1.2186965E-32
   6.490000     -9.5063198E-33
   6.500000     -6.5282012E-33
   6.510000     -3.2463223E-33
   6.520000      3.4932430E-34
   6.530000      4.2673685E-33
   6.540000      8.5165139E-33
   6.550000      1.3106005E-32
   6.560000      1.8045556E-32
   6.570000      2.3345140E-32
   6.580000      2.9015244E-32
   6.590000      3.5065884E-32
   6.600000      4.1506323E-32
   6.610000      4.8344271E-32
   6.620000      5.5585566E-32
   6.630000      6.3234343E-32
   6.640000      7.1291799E-32
   6.650000      7.9755429E-32
   6.660000      8.8620020E-32
   6.670000      9.7877561E-32
   6.680000      1.0751688E-31
   6.690000      1.1752510E-31
   6.700000      1.2788622E-31
   6.710000      1.3858212E-31
   6.720000      1.4959339E-31
   6.730000      1.6089783E-31
   6.740000      1.7247188E-31
   6.750000      1.8428934E-31
   6.760000      1.9632063E-31
   6.770000      2.0853312E-31
   6.780000      2.2088987E-31
   6.790000      2.3335030E-31
   6.800000      2.4586793E-31
   6.810000      2.5839061E-31
   6.820000      2.7086105E-31
   6.830000      2.8321566E-31
   6.840000      2.9538631E-31
   6.850000      3.0729874E-31
   6.860000      3.1887560E-31
   6.870000      3.3003452E-31
   6.880000      3.4068699E-31
   6.890000      3.5074243E-31
   6.900000      3.6010715E-31
   6.910000      3.6868118E-31
   6.920000      3.7636017E-31
   6.930000      3.8303824E-31
   6.940000      3.8860372E-31
   6.950000      3.9293891E-31
   6.960000      3.9592131E-31
   6.970000      3.9742020E-31
   6.980000      3.9730355E-31
   6.990000      3.9543423E-31
   7.000000      3.9166513E-31
   7.010000      3.8584688E-31
   7.020000      3.7782638E-31
   7.030000      3.6744750E-31
   7.040000      3.5455188E-31
   7.050000      3.3898024E-31
   7.060000      3.2057285E-31