  -2.600000      0.0000000E+00
  -2.590000      0.0000000E+00
  -2.580000      0.0000000E+00
  -2.570000      0.0000000E+00
  -2.560000      0.0000000E+00
  -2.550000      0.0000000E+00
  -2.540000      0.0000000E+00
  -2.530000      0.0000000E+00
  -2.520000      0.0000000E+00
  -2.510000      0.0000000E+00
  -2.500000      0.0000000E+00
  -2.490000      0.0000000E+00
  -2.480000      0.0000000E+00
  -2.470000      0.0000000E+00
  -2.460000      0.0000000E+00
  -2.450000      0.0000000E+00
  -2.440000      0.0000000E+00
  -2.430000      0.0000000E+00
  -2.420000      0.0000000E+00
  -2.410000      0.0000000E+00
  -2.400000      0.0000000E+00
  -2.390000      0.0000000E+00
  -2.380000      0.0000000E+00
  -2.370000      0.0000000E+00
  -2.360000      0.0000000E+00
  -2.350000      0.0000000E+00
  -2.340000      0.0000000E+00
  -2.330000      0.0000000E+00
  -2.320000      0.0000000E+00
  -2.310000      0.0000000E+00
  -2.300000      0.0000000E+00
  -2.290000      0.0000000E+00
  -2.280000      0.0000000E+00
  -2.270000      0.0000000E+00
  -2.260000      0.0000000E+00
  -2.250000      0.0000000E+00
  -2.240000      0.0000000E+00
  -2.230000      0.0000000E+00
  -2.220000      0.0000000E+00
  -2.210000      0.0000000E+00
  -2.200000      0.0000000E+00
  -2.190000      0.0000000E+00
  -2.180000      0.0000000E+00
  -2.170000      0.0000000E+00
  -2.160000      0.0000000E+00
  -2.150000      0.0000000E+00
  -2.140000      0.0000000E+00
  -2.130000      0.0000000E+00
  -2.120000      0.0000000E+00
  -2.110000      0.0000000E+00
  -2.100000      0.0000000E+00
  -2.090000      0.0000000E+00
  -2.080000      0.0000000E+00
  -2.070000      0.0000000E+00
  -2.060000      0.0000000E+00
  -2.050000      0.0000000E+00
  -2.040000      0.0000000E+00
  -2.030000      0.0000000E+00
  -2.020000      0.0000000E+00
  -2.010000      0.0000000E+00
  -2.000000      0.0000000E+00
  -1.990000      0.0000000E+00
  -1.980000      0.0000000E+00
  -1.970000      0.0000000E+00
  -1.960000      0.0000000E+00
  -1.950000      0.0000000E+00
  -1.940000      0.0000000E+00
  -1.930000      0.0000000E+00
  -1.920000      0.0000000E+00
  -1.910000      0.0000000E+00
  -1.900000      0.0000000E+00
  -1.890000      0.0000000E+00
  -1.880000      0.0000000E+00
  -1.870000      0.0000000E+00
  -1.860000      0.0000000E+00
  -1.850000      0.0000000E+00
  -1.840000      0.0000000E+00
  -1.830000      0.0000000E+00
  -1.820000      0.0000000E+00
  -1.810000      0.0000000E+00
  -1.800000      0.0000000E+00
  -1.790000      0.0000000E+00
  -1.780000      0.0000000E+00
  -1.770000      0.0000000E+00
  -1.760000      0.0000000E+00
  -1.750000      0.0000000E+00
  -1.740000      0.0000000E+00
  -1.730000      0.0000000E+00
  -1.720000      0.0000000E+00
  -1.710000      0.0000000E+00
  -1.700000      0.0000000E+00
  -1.690000      0.0000000E+00
  -1.680000      0.0000000E+00
  -1.670000      0.0000000E+00
  -1.660000      0.0000000E+00
  -1.650000      0.0000000E+00
  -1.640000      0.0000000E+00
  -1.630000      0.0000000E+00
  -1.620000      0.0000000E+00
  -1.610000      0.0000000E+00
  -1.600000      0.0000000E+00
  -1.590000      0.0000000E+00
  -1.580000      0.0000000E+00
  -1.570000      0.0000000E+00
  -1.560000      0.0000000E+00
  -1.550000      0.0000000E+00
  -1.540000      0.0000000E+00
  -1.530000      0.0000000E+00
  -1.520000      0.0000000E+00
  -1.510000      0.0000000E+00
  -1.500000      0.0000000E+00
  -1.490000      0.0000000E+00
  -1.480000      0.0000000E+00
  -1.470000      0.0000000E+00
  -1.460000      0.0000000E+00
  -1.450000      0.0000000E+00
  -1.440000      0.0000000E+00
  -1.430000      0.0000000E+00
  -1.420000      0.0000000E+00
  -1.410000      0.0000000E+00
  -1.400000      0.0000000E+00
  -1.390000      0.0000000E+00
  -1.380000      0.0000000E+00
  -1.370000      0.0000000E+00
  -1.360000      0.0000000E+00
  -1.350000      0.0000000E+00
  -1.340000      0.0000000E+00
  -1.330000      0.0000000E+00
  -1.320000      0.0000000E+00
  -1.310000      0.0000000E+00
  -1.300000      0.0000000E+00
  -1.290000      0.0000000E+00
  -1.280000      0.0000000E+00
  -1.270000      0.0000000E+00
  -1.260000      0.0000000E+00
  -1.250000      0.0000000E+00
  -1.240000      0.0000000E+00
  -1.230000      0.0000000E+00
  -1.220000      0.0000000E+00
  -1.210000      0.0000000E+00
  -1.200000      0.0000000E+00
  -1.190000      0.0000000E+00
  -1.180000      0.0000000E+00
  -1.170000      0.0000000E+00
  -1.160000      0.0000000E+00
  -1.150000      0.0000000E+00
  -1.140000      0.0000000E+00
  -1.130000      0.0000000E+00
  -1.120000      0.0000000E+00
  -1.110000      0.0000000E+00
  -1.100000      0.0000000E+00
  -1.090000      0.0000000E+00
  -1.080000      0.0000000E+00
  -1.070000      0.0000000E+00
  -1.060000      0.0000000E+00
  -1.050000      0.0000000E+00
  -1.040000      0.0000000E+00
  -1.030000      0.0000000E+00
  -1.020000      0.0000000E+00
  -1.010000      0.0000000E+00
  -1.000000      0.0000000E+00
 -0.9900000      0.0000000E+00
 -0.9800000      0.0000000E+00
 -0.9700000      0.0000000E+00
 -0.9600000      0.0000000E+00
 -0.9500000      0.0000000E+00
 -0.9400000      0.0000000E+00
 -0.9300000      0.0000000E+00
 -0.9200000      0.0000000E+00
 -0.9100000      0.0000000E+00
 -0.9000000      0.0000000E+00
 -0.8900000      0.0000000E+00
 -0.8800000      0.0000000E+00
 -0.8700000      0.0000000E+00
 -0.8600000      0.0000000E+00
 -0.8500000      0.0000000E+00
 -0.8400000      0.0000000E+00
 -0.8300000      0.0000000E+00
 -0.8200000      0.0000000E+00
 -0.8100000      0.0000000E+00
 -0.8000000      0.0000000E+00
 -0.7900000      0.0000000E+00
 -0.7800000      0.0000000E+00
 -0.7700000      0.0000000E+00
 -0.7600000      0.0000000E+00
 -0.7500000      0.0000000E+00
 -0.7400000      0.0000000E+00
 -0.7300000      0.0000000E+00
 -0.7200000      0.0000000E+00
 -0.7100000      0.0000000E+00
 -0.7000000      0.0000000E+00
 -0.6900000      0.0000000E+00
 -0.6800000      0.0000000E+00
 -0.6700000      0.0000000E+00
 -0.6600000      0.0000000E+00
 -0.6500000      0.0000000E+00
 -0.6400000      0.0000000E+00
 -0.6300000      0.0000000E+00
 -0.6200000      0.0000000E+00
 -0.6100000      0.0000000E+00
 -0.6000000      0.0000000E+00
 -0.5900000      0.0000000E+00
 -0.5800000      0.0000000E+00
 -0.5700000      0.0000000E+00
 -0.5600000      0.0000000E+00
 -0.5500000      0.0000000E+00
 -0.5400000      0.0000000E+00
 -0.5300000      0.0000000E+00
 -0.5200000      0.0000000E+00
 -0.5100000      0.0000000E+00
 -0.5000000      0.0000000E+00
 -0.4900000      0.0000000E+00
 -0.4800000      0.0000000E+00
 -0.4700000      0.0000000E+00
 -0.4600000      0.0000000E+00
 -0.4500000      0.0000000E+00
 -0.4400000      0.0000000E+00
 -0.4300000      0.0000000E+00
 -0.4200000      0.0000000E+00
 -0.4100000      0.0000000E+00
 -0.4000000      0.0000000E+00
 -0.3900000      0.0000000E+00
 -0.3800000      0.0000000E+00
 -0.3700000      0.0000000E+00
 -0.3600000      0.0000000E+00
 -0.3500000      0.0000000E+00
 -0.3400000      0.0000000E+00
 -0.3300000      0.0000000E+00
 -0.3200000      0.0000000E+00
 -0.3100000      0.0000000E+00
 -0.3000000      0.0000000E+00
 -0.2900000      0.0000000E+00
 -0.2800000      0.0000000E+00
 -0.2700000      0.0000000E+00
 -0.2600000      0.0000000E+00
 -0.2500000      0.0000000E+00
 -0.2400000      0.0000000E+00
 -0.2300000      0.0000000E+00
 -0.2200000      0.0000000E+00
 -0.2100000      0.0000000E+00
 -0.2000000      0.0000000E+00
 -0.1900000      0.0000000E+00
 -0.1800000      0.0000000E+00
 -0.1700000      0.0000000E+00
 -0.1600000      0.0000000E+00
 -0.1500000      0.0000000E+00
 -0.1400000      0.0000000E+00
 -0.1300000      0.0000000E+00
 -0.1200000      0.0000000E+00
 -0.1100000      0.0000000E+00
 -0.1000000      0.0000000E+00
 -9.0000004E-02  0.0000000E+00
 -7.9999998E-02  0.0000000E+00
 -7.0000000E-02  0.0000000E+00
 -5.9999999E-02  0.0000000E+00
 -5.0000001E-02  0.0000000E+00
 -3.9999999E-02  0.0000000E+00
 -2.9999999E-02  0.0000000E+00
 -2.0000000E-02  0.0000000E+00
 -9.9999998E-03  0.0000000E+00
 -3.4694470E-17  0.0000000E+00
  9.9999998E-03  0.0000000E+00
  2.0000000E-02  0.0000000E+00
  2.9999999E-02  0.0000000E+00
  3.9999999E-02  0.0000000E+00
  5.0000001E-02  0.0000000E+00
  5.9999999E-02  0.0000000E+00
  7.0000000E-02  0.0000000E+00
  7.9999998E-02  0.0000000E+00
  9.0000004E-02  0.0000000E+00
  0.1000000      0.0000000E+00
  0.1100000      0.0000000E+00
  0.1200000      0.0000000E+00
  0.1300000      0.0000000E+00
  0.1400000      0.0000000E+00
  0.1500000      0.0000000E+00
  0.1600000      0.0000000E+00
  0.1700000      0.0000000E+00
  0.1800000      0.0000000E+00
  0.1900000      0.0000000E+00
  0.2000000      0.0000000E+00
  0.2100000      0.0000000E+00
  0.2200000      0.0000000E+00
  0.2300000      0.0000000E+00
  0.2400000      0.0000000E+00
  0.2500000      0.0000000E+00
  0.2600000      0.0000000E+00
  0.2700000      0.0000000E+00
  0.2800000      0.0000000E+00
  0.2900000      0.0000000E+00
  0.3000000      0.0000000E+00
  0.3100000      0.0000000E+00
  0.3200000      0.0000000E+00
  0.3300000      0.0000000E+00
  0.3400000      0.0000000E+00
  0.3500000      0.0000000E+00
  0.3600000      0.0000000E+00
  0.3700000      0.0000000E+00
  0.3800000      0.0000000E+00
  0.3900000      0.0000000E+00
  0.4000000      0.0000000E+00
  0.4100000      0.0000000E+00
  0.4200000      0.0000000E+00
  0.4300000      0.0000000E+00
  0.4400000      0.0000000E+00
  0.4500000      0.0000000E+00
  0.4600000      0.0000000E+00
  0.4700000      0.0000000E+00
  0.4800000      0.0000000E+00
  0.4900000      0.0000000E+00
  0.5000000      0.0000000E+00
  0.5100000      0.0000000E+00
  0.5200000      0.0000000E+00
  0.5300000      0.0000000E+00
  0.5400000      0.0000000E+00
  0.5500000      0.0000000E+00
  0.5600000      0.0000000E+00
  0.5700000      0.0000000E+00
  0.5800000      0.0000000E+00
  0.5900000      0.0000000E+00
  0.6000000      0.0000000E+00
  0.6100000      0.0000000E+00
  0.6200000      0.0000000E+00
  0.6300000      0.0000000E+00
  0.6400000      0.0000000E+00
  0.6500000      0.0000000E+00
  0.6600000      0.0000000E+00
  0.6700000      0.0000000E+00
  0.6800000      0.0000000E+00
  0.6900000      0.0000000E+00
  0.7000000      0.0000000E+00
  0.7100000      0.0000000E+00
  0.7200000      0.0000000E+00
  0.7300000      0.0000000E+00
  0.7400000      0.0000000E+00
  0.7500000      0.0000000E+00
  0.7600000      0.0000000E+00
  0.7700000      0.0000000E+00
  0.7800000      0.0000000E+00
  0.7900000      0.0000000E+00
  0.8000000      0.0000000E+00
  0.8100000      0.0000000E+00
  0.8200000      0.0000000E+00
  0.8300000      0.0000000E+00
  0.8400000      0.0000000E+00
  0.8500000      0.0000000E+00
  0.8600000      0.0000000E+00
  0.8700000      0.0000000E+00
  0.8800000      0.0000000E+00
  0.8900000      0.0000000E+00
  0.9000000      0.0000000E+00
  0.9100000      0.0000000E+00
  0.9200000      0.0000000E+00
  0.9300000      0.0000000E+00
  0.9400000      0.0000000E+00
  0.9500000      0.0000000E+00
  0.9600000      0.0000000E+00
  0.9700000      0.0000000E+00
  0.9800000      0.0000000E+00
  0.9900000      0.0000000E+00
   1.000000      0.0000000E+00
   1.010000      0.0000000E+00
   1.020000      0.0000000E+00
   1.030000      0.0000000E+00
   1.040000      0.0000000E+00
   1.050000      0.0000000E+00
   1.060000      0.0000000E+00
   1.070000      0.0000000E+00
   1.080000      0.0000000E+00
   1.090000      0.0000000E+00
   1.100000      0.0000000E+00
   1.110000      0.0000000E+00
   1.120000      0.0000000E+00
   1.130000      0.0000000E+00
   1.140000      0.0000000E+00
   1.150000      0.0000000E+00
   1.160000      0.0000000E+00
   1.170000      0.0000000E+00
   1.180000      0.0000000E+00
   1.190000      0.0000000E+00
   1.200000      0.0000000E+00
   1.210000      0.0000000E+00
   1.220000      0.0000000E+00
   1.230000      0.0000000E+00
   1.240000      0.0000000E+00
   1.250000      0.0000000E+00
   1.260000      0.0000000E+00
   1.270000      0.0000000E+00
   1.280000      0.0000000E+00
   1.290000      0.0000000E+00
   1.300000      0.0000000E+00
   1.310000      0.0000000E+00
   1.320000      0.0000000E+00
   1.330000      0.0000000E+00
   1.340000      0.0000000E+00
   1.350000      0.0000000E+00
   1.360000      0.0000000E+00
   1.370000      0.0000000E+00
   1.380000      0.0000000E+00
   1.390000      0.0000000E+00
   1.400000      0.0000000E+00
   1.410000      0.0000000E+00
   1.420000      0.0000000E+00
   1.430000      0.0000000E+00
   1.440000      0.0000000E+00
   1.450000      0.0000000E+00
   1.460000      0.0000000E+00
   1.470000      0.0000000E+00
   1.480000      0.0000000E+00
   1.490000      0.0000000E+00
   1.500000      0.0000000E+00
   1.510000      0.0000000E+00
   1.520000      0.0000000E+00
   1.530000      0.0000000E+00
   1.540000      0.0000000E+00
   1.550000      0.0000000E+00
   1.560000      0.0000000E+00
   1.570000      0.0000000E+00
   1.580000      0.0000000E+00
   1.590000      0.0000000E+00
   1.600000      0.0000000E+00
   1.610000      0.0000000E+00
   1.620000      0.0000000E+00
   1.630000      0.0000000E+00
   1.640000      0.0000000E+00
   1.650000      0.0000000E+00
   1.660000      0.0000000E+00
   1.670000      0.0000000E+00
   1.680000      0.0000000E+00
   1.690000      0.0000000E+00
   1.700000      0.0000000E+00
   1.710000      0.0000000E+00
   1.720000      0.0000000E+00
   1.730000      0.0000000E+00
   1.740000      0.0000000E+00
   1.750000      0.0000000E+00
   1.760000      0.0000000E+00
   1.770000      0.0000000E+00
   1.780000      0.0000000E+00
   1.790000      0.0000000E+00
   1.800000      0.0000000E+00
   1.810000      0.0000000E+00
   1.820000      0.0000000E+00
   1.830000      0.0000000E+00
   1.840000      0.0000000E+00
   1.850000      0.0000000E+00
   1.860000      0.0000000E+00
   1.870000      0.0000000E+00
   1.880000      0.0000000E+00
   1.890000      0.0000000E+00
   1.900000      0.0000000E+00
   1.910000      0.0000000E+00
   1.920000      0.0000000E+00
   1.930000      0.0000000E+00
   1.940000      0.0000000E+00
   1.950000      0.0000000E+00
   1.960000      0.0000000E+00
   1.970000      0.0000000E+00
   1.980000      0.0000000E+00
   1.990000      0.0000000E+00
   2.000000      0.0000000E+00
   2.010000      0.0000000E+00
   2.020000      0.0000000E+00
   2.030000      0.0000000E+00
   2.040000      0.0000000E+00
   2.050000      0.0000000E+00
   2.060000      0.0000000E+00
   2.070000      0.0000000E+00
   2.080000      0.0000000E+00
   2.090000      0.0000000E+00
   2.100000      0.0000000E+00
   2.110000      0.0000000E+00
   2.120000      0.0000000E+00
   2.130000      0.0000000E+00
   2.140000      0.0000000E+00
   2.150000      0.0000000E+00
   2.160000      0.0000000E+00
   2.170000      0.0000000E+00
   2.180000      0.0000000E+00
   2.190000      0.0000000E+00
   2.200000      0.0000000E+00
   2.210000      0.0000000E+00
   2.220000      0.0000000E+00
   2.230000      0.0000000E+00
   2.240000      0.0000000E+00
   2.250000      0.0000000E+00
   2.260000      0.0000000E+00
   2.270000      0.0000000E+00
   2.280000      0.0000000E+00
   2.290000      0.0000000E+00
   2.300000      0.0000000E+00
   2.310000      0.0000000E+00
   2.320000      0.0000000E+00
   2.330000      0.0000000E+00
   2.340000      0.0000000E+00
   2.350000      0.0000000E+00
   2.360000      0.0000000E+00
   2.370000      0.0000000E+00
   2.380000      0.0000000E+00
   2.390000      0.0000000E+00
   2.400000      0.0000000E+00
   2.410000      0.0000000E+00
   2.420000      0.0000000E+00
   2.430000      0.0000000E+00
   2.440000      0.0000000E+00
   2.450000      0.0000000E+00
   2.460000      0.0000000E+00
   2.470000      0.0000000E+00
   2.480000      0.0000000E+00
   2.490000      0.0000000E+00
   2.500000      0.0000000E+00
   2.510000      0.0000000E+00
   2.520000      0.0000000E+00
   2.530000      0.0000000E+00
   2.540000      0.0000000E+00
   2.550000      0.0000000E+00
   2.560000      0.0000000E+00
   2.570000      0.0000000E+00
   2.580000      0.0000000E+00
   2.590000      0.0000000E+00
   2.600000      0.0000000E+00
   2.610000      0.0000000E+00
   2.620000      0.0000000E+00
   2.630000      0.0000000E+00
   2.640000      0.0000000E+00
   2.650000      0.0000000E+00
   2.660000      0.0000000E+00
   2.670000      0.0000000E+00
   2.680000      0.0000000E+00
   2.690000      0.0000000E+00
   2.700000      0.0000000E+00
   2.710000      0.0000000E+00
   2.720000      0.0000000E+00
   2.730000      0.0000000E+00
   2.740000      0.0000000E+00
   2.750000      0.0000000E+00
   2.760000      0.0000000E+00
   2.770000      0.0000000E+00
   2.780000      0.0000000E+00
   2.790000      0.0000000E+00
   2.800000      0.0000000E+00
   2.810000      0.0000000E+00
   2.820000      0.0000000E+00
   2.830000      0.0000000E+00
   2.840000      0.0000000E+00
   2.850000      0.0000000E+00
   2.860000      0.0000000E+00
   2.870000      0.0000000E+00
   2.880000      0.0000000E+00
   2.890000      0.0000000E+00
   2.900000      0.0000000E+00
   2.910000      0.0000000E+00
   2.920000      0.0000000E+00
   2.930000      0.0000000E+00
   2.940000      0.0000000E+00
   2.950000      0.0000000E+00
   2.960000      0.0000000E+00
   2.970000      0.0000000E+00
   2.980000      0.0000000E+00
   2.990000      0.0000000E+00
   3.000000      0.0000000E+00
   3.010000      0.0000000E+00
   3.020000      0.0000000E+00
   3.030000      0.0000000E+00
   3.040000      0.0000000E+00
   3.050000      0.0000000E+00
   3.060000      0.0000000E+00
   3.070000      0.0000000E+00
   3.080000      0.0000000E+00
   3.090000      0.0000000E+00
   3.100000      0.0000000E+00
   3.110000      0.0000000E+00
   3.120000      0.0000000E+00
   3.130000      0.0000000E+00
   3.140000      0.0000000E+00
   3.150000      0.0000000E+00
   3.160000      0.0000000E+00
   3.170000      0.0000000E+00
   3.180000      0.0000000E+00
   3.190000      0.0000000E+00
   3.200000      0.0000000E+00
   3.210000      0.0000000E+00
   3.220000      0.0000000E+00
   3.230000      0.0000000E+00
   3.240000      0.0000000E+00
   3.250000      0.0000000E+00
   3.260000      0.0000000E+00
   3.270000      0.0000000E+00
   3.280000      0.0000000E+00
   3.290000      0.0000000E+00
   3.300000      0.0000000E+00
   3.310000      0.0000000E+00
   3.320000      0.0000000E+00
   3.330000      0.0000000E+00
   3.340000      0.0000000E+00
   3.350000      0.0000000E+00
   3.360000      0.0000000E+00
   3.370000      0.0000000E+00
   3.380000      0.0000000E+00
   3.390000      0.0000000E+00
   3.400000      0.0000000E+00
   3.410000      0.0000000E+00
   3.420000      0.0000000E+00
   3.430000      0.0000000E+00
   3.440000      0.0000000E+00
   3.450000      0.0000000E+00
   3.460000      0.0000000E+00
   3.470000      0.0000000E+00
   3.480000      0.0000000E+00
   3.490000      0.0000000E+00
   3.500000      0.0000000E+00
   3.510000      0.0000000E+00
   3.520000      0.0000000E+00
   3.530000      0.0000000E+00
   3.540000      0.0000000E+00
   3.550000      0.0000000E+00
   3.560000      0.0000000E+00
   3.570000      0.0000000E+00
   3.580000      0.0000000E+00
   3.590000      0.0000000E+00
   3.600000      0.0000000E+00
   3.610000      0.0000000E+00
   3.620000      0.0000000E+00
   3.630000      0.0000000E+00
   3.640000      0.0000000E+00
   3.650000      0.0000000E+00
   3.660000      0.0000000E+00
   3.670000      0.0000000E+00
   3.680000     -1.6402819E-38
   3.690000     -2.1071153E-38
   3.700000     -2.5483218E-38
   3.710000     -2.8496573E-38
   3.720000     -3.0350970E-38
   3.730000     -3.2311022E-38
   3.740000     -3.4353521E-38
   3.750000     -3.6452198E-38
   3.760000     -3.9246996E-38
   3.770000     -4.2821585E-38
   3.780000     -4.4830032E-38
   3.790000     -4.5145916E-38
   3.800000     -4.5517554E-38
   3.810000     -4.6144820E-38
   3.820000     -4.7183647E-38
   3.830000     -4.8738814E-38
   3.840000     -5.1350834E-38
   3.850000     -5.5430238E-38
   3.860000     -6.0405543E-38
   3.870000     -6.5783643E-38
   3.880000     -7.1561190E-38
   3.890000     -7.7731124E-38
   3.900000     -8.5830058E-38
   3.910000     -9.5455117E-38
   3.920000     -1.0499909E-37
   3.930000     -1.1463756E-37
   3.940000     -1.2403654E-37
   3.950000     -1.3285672E-37
   3.960000     -1.3510316E-37
   3.970000     -1.2983464E-37
   3.980000     -1.2250388E-37
   3.990000     -1.1374933E-37
   4.000000     -1.0373345E-37
   4.010000     -9.2591272E-38
   4.020000     -7.9233709E-38
   4.030000     -6.3851420E-38
   4.040000     -4.8351691E-38
   4.050000     -3.2019132E-38
   4.060000     -1.3487145E-38
   4.070000      0.0000000E+00
   4.080000      3.2186545E-38
   4.090000      6.2442459E-38
   4.100000      9.7246055E-38
   4.110000      1.3512592E-37
   4.120000      1.7619181E-37
   4.130000      2.2224800E-37
   4.140000      2.7324872E-37
   4.150000      3.2763318E-37
   4.160000      3.8463334E-37
   4.170000      4.4367522E-37
   4.180000      4.9852491E-37
   4.190000      5.5056824E-37
   4.200000      6.0374144E-37
   4.210000      6.5401725E-37
   4.220000      7.0550441E-37
   4.230000      7.6014653E-37
   4.240000      8.1286853E-37
   4.250000      8.6634827E-37
   4.260000      9.1913171E-37
   4.270000      9.6626556E-37
   4.280000      1.0083589E-36
   4.290000      1.0449579E-36
   4.300000      1.0846764E-36
   4.310000      1.1309458E-36
   4.320000      1.1468381E-36
   4.330000      1.1235166E-36
   4.340000      1.0839073E-36
   4.350000      1.0281422E-36
   4.360000      9.6109147E-37
   4.370000      9.9506836E-37
   4.380000      1.1286241E-36
   4.390000      1.3784701E-36
   4.400000      1.7553152E-36
   4.410000      2.1546527E-36
   4.420000      2.5697965E-36
   4.430000      2.9863519E-36
   4.440000      3.4150174E-36
   4.450000      3.5506422E-36
   4.460000      3.3468858E-36
   4.470000      3.0658667E-36
   4.480000      2.6834490E-36
   4.490000      2.2306819E-36
   4.500000      1.7105800E-36
   4.510000      1.0799490E-36
   4.520000      3.6157325E-37
   4.530000     -4.3769883E-37
   4.540000     -1.3094583E-36
   4.550000     -2.5944468E-36
   4.560000     -4.4212180E-36
   4.570000     -6.3301225E-36
   4.580000     -8.1154827E-36
   4.590000     -9.4788710E-36
   4.600000     -1.0572999E-35
   4.610000     -1.1688770E-35
   4.620000     -1.2461078E-35
   4.630000     -1.2957262E-35
   4.640000     -1.3431454E-35
   4.650000     -1.3940067E-35
   4.660000     -1.4649608E-35
   4.670000     -1.5494656E-35
   4.680000     -1.6346598E-35
   4.690000     -1.7226759E-35
   4.700000     -1.8037387E-35
   4.710000     -1.8648368E-35
   4.720000     -1.9278704E-35
   4.730000     -2.0007019E-35
   4.740000     -2.0749577E-35
   4.750000     -2.1601426E-35
   4.760000     -2.2249562E-35
   4.770000     -2.2741593E-35
   4.780000     -2.3263663E-35
   4.790000     -2.3673201E-35
   4.800000     -2.3967076E-35
   4.810000     -2.4161879E-35
   4.820000     -2.4123248E-35
   4.830000     -2.3839987E-35
   4.840000     -2.3785013E-35
   4.850000     -2.3899027E-35
   4.860000     -2.3825847E-35
   4.870000     -2.3590900E-35
   4.880000     -2.3058530E-35
   4.890000     -2.2187294E-35
   4.900000     -2.1001708E-35
   4.910000     -1.9448522E-35
   4.920000     -1.7447381E-35
   4.930000     -1.4977141E-35
   4.940000     -1.1949255E-35
   4.950000     -8.2668642E-36
   4.960000     -3.7429795E-36
   4.970000      1.7358476E-36
   4.980000      7.9410103E-36
   4.990000      1.4638778E-35
   5.000000      2.1742698E-35
   5.010000      2.9001225E-35
   5.020000      3.6514677E-35
   5.030000      4.4578700E-35
   5.040000      5.3294934E-35
   5.050000      6.2660742E-35
   5.060000      7.2397205E-35
   5.070000      8.2339637E-35
   5.080000      9.2565410E-35
   5.090000      1.0222075E-34
   5.100000      1.1109514E-34
   5.110000      1.1997013E-34
   5.120000      1.2904716E-34
   5.130000      1.3825948E-34
   5.140000      1.4835469E-34
   5.150000      1.6127915E-34
   5.160000      1.7601304E-34
   5.170000      1.9109285E-34
   5.180000      2.0722361E-34
   5.190000      2.2179714E-34
   5.200000      2.3155395E-34
   5.210000      2.3913993E-34
   5.220000      2.4680392E-34
   5.230000      2.5393523E-34
   5.240000      2.5978407E-34
   5.250000      2.6471697E-34
   5.260000      2.6935835E-34
   5.270000      2.7310320E-34
   5.280000      2.7458542E-34
   5.290000      2.7364990E-34
   5.300000      2.7140955E-34
   5.310000      2.6840666E-34
   5.320000      2.6328082E-34
   5.330000      2.5654976E-34
   5.340000      2.4884896E-34
   5.350000      2.3909881E-34
   5.360000      2.2634325E-34
   5.370000      2.0972973E-34
   5.380000      1.8839216E-34
   5.390000      1.6159477E-34
   5.400000      1.2971586E-34
   5.410000      9.3722520E-35
   5.420000      5.3664795E-35
   5.430000      8.3396460E-36
   5.440000     -4.2931817E-35
   5.450000     -9.8506013E-35
   5.460000     -1.5745663E-34
   5.470000     -2.2182483E-34
   5.480000     -2.9005110E-34
   5.490000     -3.5985769E-34
   5.500000     -4.3316967E-34
   5.510000     -5.1313607E-34
   5.520000     -6.0067454E-34
   5.530000     -6.9158167E-34
   5.540000     -7.8693139E-34
   5.550000     -8.8674087E-34
   5.560000     -9.8756302E-34
   5.570000     -1.0901673E-33
   5.580000     -1.1939775E-33
   5.590000     -1.2997774E-33
   5.600000     -1.4065319E-33
   5.610000     -1.5137630E-33
   5.620000     -1.6223892E-33
   5.630000     -1.7322452E-33
   5.640000     -1.8418575E-33
   5.650000     -1.9521600E-33
   5.660000     -2.0628359E-33
   5.670000     -2.1736624E-33
   5.680000     -2.2851937E-33
   5.690000     -2.3949559E-33
   5.700000     -2.5013276E-33
   5.710000     -2.6039567E-33
   5.720000     -2.7025633E-33
   5.730000     -2.7948691E-33
   5.740000     -2.8781693E-33
   5.750000     -2.9522205E-33
   5.760000     -3.0201468E-33
   5.770000     -3.0809718E-33
   5.780000     -3.1298830E-33
   5.790000     -3.1664372E-33
   5.800000     -3.1905664E-33
   5.810000     -3.1983159E-33
   5.820000     -3.1848815E-33
   5.830000     -3.1479669E-33
   5.840000     -3.0865694E-33
   5.850000     -2.9997911E-33
   5.860000     -2.8848641E-33
   5.870000     -2.7418907E-33
   5.880000     -2.5679337E-33
   5.890000     -2.3574201E-33
   5.900000     -2.1099450E-33
   5.910000     -1.8238789E-33
   5.920000     -1.4970652E-33
   5.930000     -1.1282652E-33
   5.940000     -7.1661924E-34
   5.950000     -2.6208315E-34
   5.960000      2.3719903E-34
   5.970000      7.8458150E-34
   5.980000      1.3809277E-33
   5.990000      2.0262066E-33
   6.000000      2.7222739E-33
   6.010000      3.4711059E-33
   6.020000      4.2721862E-33
   6.030000      5.1255414E-33
   6.040000      6.0313682E-33
   6.050000      6.9884212E-33
   6.060000      7.9980070E-33
   6.070000      9.0611931E-33
   6.080000      1.0176022E-32
   6.090000      1.1341340E-32
   6.100000      1.2557802E-32
   6.110000      1.3825314E-32
   6.120000      1.5141262E-32
   6.130000      1.6502551E-32
   6.140000      1.7905978E-32
   6.150000      1.9347246E-32
   6.160000      2.0823484E-32
   6.170000      2.2330876E-32
   6.180000      2.3865546E-32
   6.190000      2.5424121E-32
   6.200000      2.6998807E-32
   6.210000      2.8581778E-32
   6.220000      3.0167011E-32
   6.230000      3.1746320E-32
   6.240000      3.3309637E-32
   6.250000      3.4847941E-32
   6.260000      3.6351419E-32
   6.270000      3.7807172E-32
   6.280000      3.9204059E-32
   6.290000      4.0530064E-32
   6.300000      4.1768770E-32
   6.310000      4.2905611E-32
   6.320000      4.3926211E-32
   6.330000      4.4813380E-32
   6.340000      4.5552540E-32
   6.350000      4.6127348E-32
   6.360000      4.6518611E-32
   6.370000      4.6708512E-32
   6.380000      4.6678469E-32
   6.390000      4.6407262E-32
   6.400000      4.5872477E-32
   6.410000      4.5053292E-32
   6.420000      4.3928603E-32
   6.430000      4.2479054E-32
   6.440000      4.0680947E-32
   6.450000      3.8509548E-32
   6.460000      3.5943652E-32
   6.470000      3.2959407E-32
   6.480000      2.9532982E-32
   6.490000      2.5641452E-32
   6.500000      2.1261553E-32
   6.510000      1.6370428E-32
   6.520000      1.0945797E-32
   6.530000      4.9653543E-33
   6.540000     -1.5926248E-33
   6.550000     -8.7489348E-33
   6.560000     -1.6522872E-32
   6.570000     -2.4932932E-32
   6.580000     -3.3996684E-32
   6.590000     -4.3729915E-32
   6.600000     -5.4145997E-32
   6.610000     -6.5256458E-32
   6.620000     -7.7070893E-32
   6.630000     -8.9595897E-32
   6.640000     -1.0283553E-31
   6.650000     -1.1679088E-31
   6.660000     -1.3146006E-31
   6.670000     -1.4683655E-31
   6.680000     -1.6291014E-31
   6.690000     -1.7966751E-31
   6.700000     -1.9709067E-31
   6.710000     -2.1515736E-31
   6.720000     -2.3384003E-31
   6.730000     -2.5310613E-31
   6.740000     -2.7291791E-31
   6.750000     -2.9323177E-31
   6.760000     -3.1399843E-31
   6.770000     -3.3516175E-31
   6.780000     -3.5665902E-31
   6.790000     -3.7842130E-31
   6.800000     -4.0037248E-31
   6.810000     -4.2242894E-31
   6.820000     -4.4449885E-31
   6.830000     -4.6648200E-31
   6.840000     -4.8827177E-31
   6.850000     -5.0975266E-31
   6.860000     -5.3079894E-31
   6.870000     -5.5127779E-31
   6.880000     -5.7104740E-31
   6.890000     -5.8995654E-31
   6.900000     -6.0784465E-31
   6.910000     -6.2454236E-31
   6.920000     -6.3987080E-31
   6.930000     -6.5364214E-31
   6.940000     -6.6565936E-31
   6.950000     -6.7571591E-31
   6.960000     -6.8359680E-31
   6.970000     -6.8907803E-31
   6.980000     -6.9192724E-31
   6.990000     -6.9190411E-31
   7.000000     -6.8876178E-31
   7.010000     -6.8224361E-31
   7.020000     -6.7208640E-31
   7.030000     -6.5802382E-31
   7.040000     -6.3978264E-31
   7.050000     -6.1708512E-31
   7.060000     -5.8964974E-31