  -2.600000      0.0000000E+00
  -2.590000      0.0000000E+00
  -2.580000      0.0000000E+00
  -2.570000      0.0000000E+00
  -2.560000      0.0000000E+00
  -2.550000      0.0000000E+00
  -2.540000      0.0000000E+00
  -2.530000      0.0000000E+00
  -2.520000      0.0000000E+00
  -2.510000      0.0000000E+00
  -2.500000      0.0000000E+00
  -2.490000      0.0000000E+00
  -2.480000      0.0000000E+00
  -2.470000      0.0000000E+00
  -2.460000      0.0000000E+00
  -2.450000      0.0000000E+00
  -2.440000      0.0000000E+00
  -2.430000      0.0000000E+00
  -2.420000      0.0000000E+00
  -2.410000      0.0000000E+00
  -2.400000      0.0000000E+00
  -2.390000      0.0000000E+00
  -2.380000      0.0000000E+00
  -2.370000      0.0000000E+00
  -2.360000      0.0000000E+00
  -2.350000      0.0000000E+00
  -2.340000      0.0000000E+00
  -2.330000      0.0000000E+00
  -2.320000      0.0000000E+00
  -2.310000      0.0000000E+00
  -2.300000      0.0000000E+00
  -2.290000      0.0000000E+00
  -2.280000      0.0000000E+00
  -2.270000      0.0000000E+00
  -2.260000      0.0000000E+00
  -2.250000      0.0000000E+00
  -2.240000      0.0000000E+00
  -2.230000      0.0000000E+00
  -2.220000      0.0000000E+00
  -2.210000      0.0000000E+00
  -2.200000      0.0000000E+00
  -2.190000      0.0000000E+00
  -2.180000      0.0000000E+00
  -2.170000      0.0000000E+00
  -2.160000      0.0000000E+00
  -2.150000      0.0000000E+00
  -2.140000      0.0000000E+00
  -2.130000      0.0000000E+00
  -2.120000      0.0000000E+00
  -2.110000      0.0000000E+00
  -2.100000      0.0000000E+00
  -2.090000      0.0000000E+00
  -2.080000      0.0000000E+00
  -2.070000      0.0000000E+00
  -2.060000      0.0000000E+00
  -2.050000      0.0000000E+00
  -2.040000      0.0000000E+00
  -2.030000      0.0000000E+00
  -2.020000      0.0000000E+00
  -2.010000      0.0000000E+00
  -2.000000      0.0000000E+00
  -1.990000      0.0000000E+00
  -1.980000      0.0000000E+00
  -1.970000      0.0000000E+00
  -1.960000      0.0000000E+00
  -1.950000      0.0000000E+00
  -1.940000      0.0000000E+00
  -1.930000      0.0000000E+00
  -1.920000      0.0000000E+00
  -1.910000      0.0000000E+00
  -1.900000      0.0000000E+00
  -1.890000      0.0000000E+00
  -1.880000      0.0000000E+00
  -1.870000      0.0000000E+00
  -1.860000      0.0000000E+00
  -1.850000      0.0000000E+00
  -1.840000      0.0000000E+00
  -1.830000      0.0000000E+00
  -1.820000      0.0000000E+00
  -1.810000      0.0000000E+00
  -1.800000      0.0000000E+00
  -1.790000      0.0000000E+00
  -1.780000      0.0000000E+00
  -1.770000      0.0000000E+00
  -1.760000      0.0000000E+00
  -1.750000      0.0000000E+00
  -1.740000      0.0000000E+00
  -1.730000      0.0000000E+00
  -1.720000      0.0000000E+00
  -1.710000      0.0000000E+00
  -1.700000      0.0000000E+00
  -1.690000      0.0000000E+00
  -1.680000      0.0000000E+00
  -1.670000      0.0000000E+00
  -1.660000      0.0000000E+00
  -1.650000      0.0000000E+00
  -1.640000      0.0000000E+00
  -1.630000      0.0000000E+00
  -1.620000      0.0000000E+00
  -1.610000      0.0000000E+00
  -1.600000      0.0000000E+00
  -1.590000      0.0000000E+00
  -1.580000      0.0000000E+00
  -1.570000      0.0000000E+00
  -1.560000      0.0000000E+00
  -1.550000      0.0000000E+00
  -1.540000      0.0000000E+00
  -1.530000      0.0000000E+00
  -1.520000      0.0000000E+00
  -1.510000      0.0000000E+00
  -1.500000      0.0000000E+00
  -1.490000      0.0000000E+00
  -1.480000      0.0000000E+00
  -1.470000      0.0000000E+00
  -1.460000      0.0000000E+00
  -1.450000      0.0000000E+00
  -1.440000      0.0000000E+00
  -1.430000      0.0000000E+00
  -1.420000      0.0000000E+00
  -1.410000      0.0000000E+00
  -1.400000      0.0000000E+00
  -1.390000      0.0000000E+00
  -1.380000      0.0000000E+00
  -1.370000      0.0000000E+00
  -1.360000      0.0000000E+00
  -1.350000      0.0000000E+00
  -1.340000      0.0000000E+00
  -1.330000      0.0000000E+00
  -1.320000      0.0000000E+00
  -1.310000      0.0000000E+00
  -1.300000      0.0000000E+00
  -1.290000      0.0000000E+00
  -1.280000      0.0000000E+00
  -1.270000      0.0000000E+00
  -1.260000      0.0000000E+00
  -1.250000      0.0000000E+00
  -1.240000      0.0000000E+00
  -1.230000      0.0000000E+00
  -1.220000      0.0000000E+00
  -1.210000      0.0000000E+00
  -1.200000      0.0000000E+00
  -1.190000      0.0000000E+00
  -1.180000      0.0000000E+00
  -1.170000      0.0000000E+00
  -1.160000      0.0000000E+00
  -1.150000      0.0000000E+00
  -1.140000      0.0000000E+00
  -1.130000      0.0000000E+00
  -1.120000      0.0000000E+00
  -1.110000      0.0000000E+00
  -1.100000      0.0000000E+00
  -1.090000      0.0000000E+00
  -1.080000      0.0000000E+00
  -1.070000      0.0000000E+00
  -1.060000      0.0000000E+00
  -1.050000      0.0000000E+00
  -1.040000      0.0000000E+00
  -1.030000      0.0000000E+00
  -1.020000      0.0000000E+00
  -1.010000      0.0000000E+00
  -1.000000      0.0000000E+00
 -0.9900000      0.0000000E+00
 -0.9800000      0.0000000E+00
 -0.9700000      0.0000000E+00
 -0.9600000      0.0000000E+00
 -0.9500000      0.0000000E+00
 -0.9400000      0.0000000E+00
 -0.9300000      0.0000000E+00
 -0.9200000      0.0000000E+00
 -0.9100000      0.0000000E+00
 -0.9000000      0.0000000E+00
 -0.8900000      0.0000000E+00
 -0.8800000      0.0000000E+00
 -0.8700000      0.0000000E+00
 -0.8600000      0.0000000E+00
 -0.8500000      0.0000000E+00
 -0.8400000      0.0000000E+00
 -0.8300000      0.0000000E+00
 -0.8200000      0.0000000E+00
 -0.8100000      0.0000000E+00
 -0.8000000      0.0000000E+00
 -0.7900000      0.0000000E+00
 -0.7800000      0.0000000E+00
 -0.7700000      0.0000000E+00
 -0.7600000      0.0000000E+00
 -0.7500000      0.0000000E+00
 -0.7400000      0.0000000E+00
 -0.7300000      0.0000000E+00
 -0.7200000      0.0000000E+00
 -0.7100000      0.0000000E+00
 -0.7000000      0.0000000E+00
 -0.6900000      0.0000000E+00
 -0.6800000      0.0000000E+00
 -0.6700000      0.0000000E+00
 -0.6600000      0.0000000E+00
 -0.6500000      0.0000000E+00
 -0.6400000      0.0000000E+00
 -0.6300000      0.0000000E+00
 -0.6200000      0.0000000E+00
 -0.6100000      0.0000000E+00
 -0.6000000      0.0000000E+00
 -0.5900000      0.0000000E+00
 -0.5800000      0.0000000E+00
 -0.5700000      0.0000000E+00
 -0.5600000      0.0000000E+00
 -0.5500000      0.0000000E+00
 -0.5400000      0.0000000E+00
 -0.5300000      0.0000000E+00
 -0.5200000      0.0000000E+00
 -0.5100000      0.0000000E+00
 -0.5000000      0.0000000E+00
 -0.4900000      0.0000000E+00
 -0.4800000      0.0000000E+00
 -0.4700000      0.0000000E+00
 -0.4600000      0.0000000E+00
 -0.4500000      0.0000000E+00
 -0.4400000      0.0000000E+00
 -0.4300000      0.0000000E+00
 -0.4200000      0.0000000E+00
 -0.4100000      0.0000000E+00
 -0.4000000      0.0000000E+00
 -0.3900000      0.0000000E+00
 -0.3800000      0.0000000E+00
 -0.3700000      0.0000000E+00
 -0.3600000      0.0000000E+00
 -0.3500000      0.0000000E+00
 -0.3400000      0.0000000E+00
 -0.3300000      0.0000000E+00
 -0.3200000      0.0000000E+00
 -0.3100000      0.0000000E+00
 -0.3000000      0.0000000E+00
 -0.2900000      0.0000000E+00
 -0.2800000      0.0000000E+00
 -0.2700000      0.0000000E+00
 -0.2600000      0.0000000E+00
 -0.2500000      0.0000000E+00
 -0.2400000      0.0000000E+00
 -0.2300000      0.0000000E+00
 -0.2200000      0.0000000E+00
 -0.2100000      0.0000000E+00
 -0.2000000      0.0000000E+00
 -0.1900000      0.0000000E+00
 -0.1800000      0.0000000E+00
 -0.1700000      0.0000000E+00
 -0.1600000      0.0000000E+00
 -0.1500000      0.0000000E+00
 -0.1400000      0.0000000E+00
 -0.1300000      0.0000000E+00
 -0.1200000      0.0000000E+00
 -0.1100000      0.0000000E+00
 -0.1000000      0.0000000E+00
 -9.0000004E-02  0.0000000E+00
 -7.9999998E-02  0.0000000E+00
 -7.0000000E-02  0.0000000E+00
 -5.9999999E-02  0.0000000E+00
 -5.0000001E-02  0.0000000E+00
 -3.9999999E-02  0.0000000E+00
 -2.9999999E-02  0.0000000E+00
 -2.0000000E-02  0.0000000E+00
 -9.9999998E-03  0.0000000E+00
 -3.4694470E-17  0.0000000E+00
  9.9999998E-03  0.0000000E+00
  2.0000000E-02  0.0000000E+00
  2.9999999E-02  0.0000000E+00
  3.9999999E-02  0.0000000E+00
  5.0000001E-02  0.0000000E+00
  5.9999999E-02  0.0000000E+00
  7.0000000E-02  0.0000000E+00
  7.9999998E-02  0.0000000E+00
  9.0000004E-02  0.0000000E+00
  0.1000000      0.0000000E+00
  0.1100000      0.0000000E+00
  0.1200000      0.0000000E+00
  0.1300000      0.0000000E+00
  0.1400000      0.0000000E+00
  0.1500000      0.0000000E+00
  0.1600000      0.0000000E+00
  0.1700000      0.0000000E+00
  0.1800000      0.0000000E+00
  0.1900000      0.0000000E+00
  0.2000000      0.0000000E+00
  0.2100000      0.0000000E+00
  0.2200000      0.0000000E+00
  0.2300000      0.0000000E+00
  0.2400000      0.0000000E+00
  0.2500000      0.0000000E+00
  0.2600000      0.0000000E+00
  0.2700000      0.0000000E+00
  0.2800000      0.0000000E+00
  0.2900000      0.0000000E+00
  0.3000000      0.0000000E+00
  0.3100000      0.0000000E+00
  0.3200000      0.0000000E+00
  0.3300000      0.0000000E+00
  0.3400000      0.0000000E+00
  0.3500000      0.0000000E+00
  0.3600000      0.0000000E+00
  0.3700000      0.0000000E+00
  0.3800000      0.0000000E+00
  0.3900000      0.0000000E+00
  0.4000000      0.0000000E+00
  0.4100000      0.0000000E+00
  0.4200000      0.0000000E+00
  0.4300000      0.0000000E+00
  0.4400000      0.0000000E+00
  0.4500000      0.0000000E+00
  0.4600000      0.0000000E+00
  0.4700000      0.0000000E+00
  0.4800000      0.0000000E+00
  0.4900000      0.0000000E+00
  0.5000000      0.0000000E+00
  0.5100000      0.0000000E+00
  0.5200000      0.0000000E+00
  0.5300000      0.0000000E+00
  0.5400000      0.0000000E+00
  0.5500000      0.0000000E+00
  0.5600000      0.0000000E+00
  0.5700000      0.0000000E+00
  0.5800000      0.0000000E+00
  0.5900000      0.0000000E+00
  0.6000000      0.0000000E+00
  0.6100000      0.0000000E+00
  0.6200000      0.0000000E+00
  0.6300000      0.0000000E+00
  0.6400000      0.0000000E+00
  0.6500000      0.0000000E+00
  0.6600000      0.0000000E+00
  0.6700000      0.0000000E+00
  0.6800000      0.0000000E+00
  0.6900000      0.0000000E+00
  0.7000000      0.0000000E+00
  0.7100000      0.0000000E+00
  0.7200000      0.0000000E+00
  0.7300000      0.0000000E+00
  0.7400000      0.0000000E+00
  0.7500000      0.0000000E+00
  0.7600000      0.0000000E+00
  0.7700000      0.0000000E+00
  0.7800000      0.0000000E+00
  0.7900000      0.0000000E+00
  0.8000000      0.0000000E+00
  0.8100000      0.0000000E+00
  0.8200000      0.0000000E+00
  0.8300000      0.0000000E+00
  0.8400000      0.0000000E+00
  0.8500000      0.0000000E+00
  0.8600000      0.0000000E+00
  0.8700000      0.0000000E+00
  0.8800000      0.0000000E+00
  0.8900000      0.0000000E+00
  0.9000000      0.0000000E+00
  0.9100000      0.0000000E+00
  0.9200000      0.0000000E+00
  0.9300000      0.0000000E+00
  0.9400000      0.0000000E+00
  0.9500000      0.0000000E+00
  0.9600000      0.0000000E+00
  0.9700000      0.0000000E+00
  0.9800000      0.0000000E+00
  0.9900000      0.0000000E+00
   1.000000      0.0000000E+00
   1.010000      0.0000000E+00
   1.020000      0.0000000E+00
   1.030000      0.0000000E+00
   1.040000      0.0000000E+00
   1.050000      0.0000000E+00
   1.060000      0.0000000E+00
   1.070000      0.0000000E+00
   1.080000      0.0000000E+00
   1.090000      0.0000000E+00
   1.100000      0.0000000E+00
   1.110000      0.0000000E+00
   1.120000      0.0000000E+00
   1.130000      0.0000000E+00
   1.140000      0.0000000E+00
   1.150000      0.0000000E+00
   1.160000      0.0000000E+00
   1.170000      0.0000000E+00
   1.180000      0.0000000E+00
   1.190000      0.0000000E+00
   1.200000      0.0000000E+00
   1.210000      0.0000000E+00
   1.220000      0.0000000E+00
   1.230000      0.0000000E+00
   1.240000      0.0000000E+00
   1.250000      0.0000000E+00
   1.260000      0.0000000E+00
   1.270000      0.0000000E+00
   1.280000      0.0000000E+00
   1.290000      0.0000000E+00
   1.300000      0.0000000E+00
   1.310000      0.0000000E+00
   1.320000      0.0000000E+00
   1.330000      0.0000000E+00
   1.340000      0.0000000E+00
   1.350000      0.0000000E+00
   1.360000      0.0000000E+00
   1.370000      0.0000000E+00
   1.380000      0.0000000E+00
   1.390000      0.0000000E+00
   1.400000      0.0000000E+00
   1.410000      0.0000000E+00
   1.420000      0.0000000E+00
   1.430000      0.0000000E+00
   1.440000      0.0000000E+00
   1.450000      0.0000000E+00
   1.460000      0.0000000E+00
   1.470000      0.0000000E+00
   1.480000      0.0000000E+00
   1.490000      0.0000000E+00
   1.500000      0.0000000E+00
   1.510000      0.0000000E+00
   1.520000      0.0000000E+00
   1.530000      0.0000000E+00
   1.540000      0.0000000E+00
   1.550000      0.0000000E+00
   1.560000      0.0000000E+00
   1.570000      0.0000000E+00
   1.580000      0.0000000E+00
   1.590000      0.0000000E+00
   1.600000      0.0000000E+00
   1.610000      0.0000000E+00
   1.620000      0.0000000E+00
   1.630000      0.0000000E+00
   1.640000      0.0000000E+00
   1.650000      0.0000000E+00
   1.660000      0.0000000E+00
   1.670000      0.0000000E+00
   1.680000      0.0000000E+00
   1.690000      0.0000000E+00
   1.700000      0.0000000E+00
   1.710000      0.0000000E+00
   1.720000      0.0000000E+00
   1.730000      0.0000000E+00
   1.740000      0.0000000E+00
   1.750000      0.0000000E+00
   1.760000      0.0000000E+00
   1.770000      0.0000000E+00
   1.780000      0.0000000E+00
   1.790000      0.0000000E+00
   1.800000      0.0000000E+00
   1.810000      0.0000000E+00
   1.820000      0.0000000E+00
   1.830000      0.0000000E+00
   1.840000      0.0000000E+00
   1.850000      0.0000000E+00
   1.860000      0.0000000E+00
   1.870000      0.0000000E+00
   1.880000      0.0000000E+00
   1.890000      0.0000000E+00
   1.900000      0.0000000E+00
   1.910000      0.0000000E+00
   1.920000      0.0000000E+00
   1.930000      0.0000000E+00
   1.940000      0.0000000E+00
   1.950000      0.0000000E+00
   1.960000      0.0000000E+00
   1.970000      0.0000000E+00
   1.980000      0.0000000E+00
   1.990000      0.0000000E+00
   2.000000      0.0000000E+00
   2.010000      0.0000000E+00
   2.020000      0.0000000E+00
   2.030000      0.0000000E+00
   2.040000      0.0000000E+00
   2.050000      0.0000000E+00
   2.060000      1.3628024E-38
   2.070000      1.7946344E-38
   2.080000      2.2116133E-38
   2.090000      2.5870035E-38
   2.100000      2.9049419E-38
   2.110000      3.1574800E-38
   2.120000      3.3954670E-38
   2.130000      3.6644465E-38
   2.140000      3.9584036E-38
   2.150000      4.1904802E-38
   2.160000      4.3556697E-38
   2.170000      4.6424536E-38
   2.180000      5.0582626E-38
   2.190000      5.4993179E-38
   2.200000      5.9599331E-38
   2.210000      6.4522199E-38
   2.220000      7.0444115E-38
   2.230000      7.7413854E-38
   2.240000      8.4836492E-38
   2.250000      9.0441849E-38
   2.260000      9.2792785E-38
   2.270000      9.3285577E-38
   2.280000      9.2711128E-38
   2.290000      8.9777090E-38
   2.300000      8.2797155E-38
   2.310000      7.2298060E-38
   2.320000      5.9103574E-38
   2.330000      4.3114997E-38
   2.340000      2.4957299E-38
   2.350000      0.0000000E+00
   2.360000      0.0000000E+00
   2.370000     -1.6491275E-38
   2.380000     -3.2140717E-38
   2.390000     -5.0241645E-38
   2.400000     -7.0588034E-38
   2.410000     -9.2682676E-38
   2.420000     -1.1677998E-37
   2.430000     -1.4541486E-37
   2.440000     -1.8005586E-37
   2.450000     -2.1928967E-37
   2.460000     -2.6202476E-37
   2.470000     -3.0792834E-37
   2.480000     -3.5677749E-37
   2.490000     -4.0636404E-37
   2.500000     -4.5620565E-37
   2.510000     -5.0752313E-37
   2.520000     -5.5754056E-37
   2.530000     -6.0506489E-37
   2.540000     -6.5222148E-37
   2.550000     -7.0229958E-37
   2.560000     -7.5349204E-37
   2.570000     -8.0040590E-37
   2.580000     -9.0975444E-37
   2.590000     -1.1370361E-36
   2.600000     -1.4178487E-36
   2.610000     -1.7134412E-36
   2.620000     -2.0303942E-36
   2.630000     -2.3819279E-36
   2.640000     -2.7718189E-36
   2.650000     -3.1933369E-36
   2.660000     -3.5312355E-36
   2.670000     -3.6184872E-36
   2.680000     -3.4621483E-36
   2.690000     -3.1597549E-36
   2.700000     -2.7305624E-36
   2.710000     -2.1109833E-36
   2.720000     -1.3739947E-36
   2.730000     -6.0264793E-37
   2.740000      2.1055951E-37
   2.750000      1.0413217E-36
   2.760000      1.8827148E-36
   2.770000      2.7213770E-36
   2.780000      3.4969748E-36
   2.790000      4.1399815E-36
   2.800000      4.6476083E-36
   2.810000      5.0647316E-36
   2.820000      5.3332044E-36
   2.830000      5.4953740E-36
   2.840000      5.6765138E-36
   2.850000      5.9707049E-36
   2.860000      6.3831151E-36
   2.870000      6.8627841E-36
   2.880000      7.4753118E-36
   2.890000      8.2475988E-36
   2.900000      9.1429569E-36
   2.910000      1.0149161E-35
   2.920000      1.1173370E-35
   2.930000      1.2123367E-35
   2.940000      1.3088876E-35
   2.950000      1.4104398E-35
   2.960000      1.5120317E-35
   2.970000      1.6185755E-35
   2.980000      1.7183881E-35
   2.990000      1.8000208E-35
   3.000000      1.8684740E-35
   3.010000      1.9211155E-35
   3.020000      1.9553017E-35
   3.030000      1.9701290E-35
   3.040000      1.9659124E-35
   3.050000      1.9322672E-35
   3.060000      1.8754179E-35
   3.070000      1.7956837E-35
   3.080000      1.6776414E-35
   3.090000      1.5180508E-35
   3.100000      1.3136543E-35
   3.110000      1.0636944E-35
   3.120000      7.6569050E-36
   3.130000      4.1503625E-36
   3.140000      1.0022578E-37
   3.150000     -4.4285935E-36
   3.160000     -9.3779101E-36
   3.170000     -1.4680933E-35
   3.180000     -2.0326740E-35
   3.190000     -2.6310964E-35
   3.200000     -3.2584124E-35
   3.210000     -3.9156569E-35
   3.220000     -4.5897292E-35
   3.230000     -5.2743318E-35
   3.240000     -5.9728435E-35
   3.250000     -6.6531126E-35
   3.260000     -7.3050339E-35
   3.270000     -7.9395661E-35
   3.280000     -8.5959861E-35
   3.290000     -9.2517702E-35
   3.300000     -9.8533047E-35
   3.310000     -1.0375021E-34
   3.320000     -1.0766737E-34
   3.330000     -1.1125170E-34
   3.340000     -1.1493887E-34
   3.350000     -1.1792748E-34
   3.360000     -1.2024142E-34
   3.370000     -1.2250253E-34
   3.380000     -1.2553064E-34
   3.390000     -1.2945402E-34
   3.400000     -1.3372144E-34
   3.410000     -1.4168090E-34
   3.420000     -1.5320195E-34
   3.430000     -1.6302097E-34
   3.440000     -1.6985226E-34
   3.450000     -1.7478261E-34
   3.460000     -1.7851377E-34
   3.470000     -1.8055216E-34
   3.480000     -1.8015722E-34
   3.490000     -1.7272497E-34
   3.500000     -1.5833071E-34
   3.510000     -1.3780722E-34
   3.520000     -1.1086404E-34
   3.530000     -7.9731492E-35
   3.540000     -4.1731008E-35
   3.550000      3.1524658E-36
   3.560000      5.3133005E-35
   3.570000      1.0297140E-34
   3.580000      1.5003631E-34
   3.590000      1.9906698E-34
   3.600000      2.5012864E-34
   3.610000      3.0076258E-34
   3.620000      3.4737752E-34
   3.630000      3.8687539E-34
   3.640000      4.2230112E-34
   3.650000      4.5743646E-34
   3.660000      4.9123376E-34
   3.670000      5.2484578E-34
   3.680000      5.6253622E-34
   3.690000      6.0211493E-34
   3.700000      6.4030376E-34
   3.710000      6.7539139E-34
   3.720000      7.1145391E-34
   3.730000      7.5122712E-34
   3.740000      7.9189684E-34
   3.750000      8.3228178E-34
   3.760000      8.7053521E-34
   3.770000      9.0607444E-34
   3.780000      9.3874281E-34
   3.790000      9.6498076E-34
   3.800000      9.8293883E-34
   3.810000      9.9556547E-34
   3.820000      1.0036982E-33
   3.830000      1.0084644E-33
   3.840000      1.0093659E-33
   3.850000      1.0040923E-33
   3.860000      9.9158073E-34
   3.870000      9.7047721E-34
   3.880000      9.4094833E-34
   3.890000      8.9964743E-34
   3.900000      8.4378243E-34
   3.910000      7.7356987E-34
   3.920000      6.8924074E-34
   3.930000      5.9098461E-34
   3.940000      4.7751643E-34
   3.950000      3.4883226E-34
   3.960000      2.0600231E-34
   3.970000      4.8359763E-35
   3.980000     -1.2198212E-34
   3.990000     -3.0361687E-34
   4.000000     -4.9724991E-34
   4.010000     -7.0243506E-34
   4.020000     -9.1944597E-34
   4.030000     -1.1454933E-33
   4.040000     -1.3800017E-33
   4.050000     -1.6238046E-33
   4.060000     -1.8733795E-33
   4.070000     -2.1294238E-33
   4.080000     -2.3976419E-33
   4.090000     -2.6708909E-33
   4.100000     -2.9476156E-33
   4.110000     -3.2286870E-33
   4.120000     -3.5140426E-33
   4.130000     -3.8026688E-33
   4.140000     -4.0874899E-33
   4.150000     -4.3677627E-33
   4.160000     -4.6412642E-33
   4.170000     -4.9070788E-33
   4.180000     -5.1638174E-33
   4.190000     -5.4062050E-33
   4.200000     -5.6320756E-33
   4.210000     -5.8406094E-33
   4.220000     -6.0271978E-33
   4.230000     -6.1863909E-33
   4.240000     -6.3164689E-33
   4.250000     -6.4168069E-33
   4.260000     -6.4836742E-33
   4.270000     -6.5142209E-33
   4.280000     -6.5051681E-33
   4.290000     -6.4527278E-33
   4.300000     -6.3537218E-33
   4.310000     -6.2049682E-33
   4.320000     -6.0029826E-33
   4.330000     -5.7421180E-33
   4.340000     -5.4185253E-33
   4.350000     -5.0311239E-33
   4.360000     -4.5774970E-33
   4.370000     -4.0546286E-33
   4.380000     -3.4608817E-33
   4.390000     -2.7953171E-33
   4.400000     -2.0565107E-33
   4.410000     -1.2424039E-33
   4.420000     -3.5167402E-34
   4.430000      6.1526508E-34
   4.440000      1.6582317E-33
   4.450000      2.7766132E-33
   4.460000      3.9691492E-33
   4.470000      5.2343261E-33
   4.480000      6.5699026E-33
   4.490000      7.9731673E-33
   4.500000      9.4409638E-33
   4.510000      1.0969432E-32
   4.520000      1.2554341E-32
   4.530000      1.4190421E-32
   4.540000      1.5871939E-32
   4.550000      1.7590253E-32
   4.560000      1.9341165E-32
   4.570000      2.1118995E-32
   4.580000      2.2913046E-32
   4.590000      2.4714108E-32
   4.600000      2.6511765E-32
   4.610000      2.8295795E-32
   4.620000      3.0054687E-32
   4.630000      3.1776195E-32
   4.640000      3.3447225E-32
   4.650000      3.5053873E-32
   4.660000      3.6581534E-32
   4.670000      3.8014191E-32
   4.680000      3.9336593E-32
   4.690000      4.0532723E-32
   4.700000      4.1584597E-32
   4.710000      4.2474537E-32
   4.720000      4.3184345E-32
   4.730000      4.3695414E-32
   4.740000      4.3991424E-32
   4.750000      4.4050502E-32
   4.760000      4.3850624E-32
   4.770000      4.3373587E-32
   4.780000      4.2602490E-32
   4.790000      4.1518707E-32
   4.800000      4.0100923E-32
   4.810000      3.8331537E-32
   4.820000      3.6192578E-32
   4.830000      3.3666740E-32
   4.840000      3.0737402E-32
   4.850000      2.7388378E-32
   4.860000      2.3605799E-32
   4.870000      1.9377031E-32
   4.880000      1.4689692E-32
   4.890000      9.5335229E-33
   4.900000      3.8999552E-33
   4.910000     -2.2177977E-33
   4.920000     -8.8244060E-33
   4.930000     -1.5922391E-32
   4.940000     -2.3512013E-32
   4.950000     -3.1590999E-32
   4.960000     -4.0154761E-32
   4.970000     -4.9195761E-32
   4.980000     -5.8703330E-32
   4.990000     -6.8663905E-32
   5.000000     -7.9060635E-32
   5.010000     -8.9873232E-32
   5.020000     -1.0107780E-31
   5.030000     -1.1264657E-31
   5.040000     -1.2454808E-31
   5.050000     -1.3674684E-31
   5.060000     -1.4920291E-31
   5.070000     -1.6187214E-31
   5.080000     -1.7470588E-31
   5.090000     -1.8765096E-31
   5.100000     -2.0064953E-31
   5.110000     -2.1363902E-31
   5.120000     -2.2655223E-31
   5.130000     -2.3931706E-31
   5.140000     -2.5185669E-31
   5.150000     -2.6408950E-31
   5.160000     -2.7592908E-31
   5.170000     -2.8728435E-31
   5.180000     -2.9805966E-31
   5.190000     -3.0815488E-31
   5.200000     -3.1746562E-31
   5.210000     -3.2588329E-31
   5.220000     -3.3329541E-31
   5.230000     -3.3958586E-31
   5.240000     -3.4463524E-31
   5.250000     -3.4832093E-31
   5.260000     -3.5051779E-31
   5.270000     -3.5109827E-31
   5.280000     -3.4993305E-31
   5.290000     -3.4689132E-31
   5.300000     -3.4184137E-31
   5.310000     -3.3465104E-31
   5.320000     -3.2518838E-31
   5.330000     -3.1332200E-31
   5.340000     -2.9892198E-31
   5.350000     -2.8186029E-31
   5.360000     -2.6201116E-31
   5.370000     -2.3925295E-31
   5.380000     -2.1346813E-31
   5.390000     -1.8454336E-31
   5.400000     -1.5237143E-31
   5.410000     -1.1685174E-31
   5.420000     -7.7891318E-32
   5.430000     -3.5405646E-32
   5.440000      1.0680271E-32
   5.450000      6.0430537E-32
   5.460000      1.1389748E-31
   5.470000      1.7112091E-31
   5.480000      2.3212642E-31
   5.490000      2.9692444E-31
   5.500000      3.6550897E-31
   5.510000      4.3785632E-31
   5.520000      5.1392392E-31
   5.530000      5.9364896E-31
   5.540000      6.7694735E-31
   5.550000      7.6371224E-31
   5.560000      8.5381289E-31
   5.570000      9.4709364E-31
   5.580000      1.0433725E-30
   5.590000      1.1424397E-30
   5.600000      1.2440576E-30
   5.610000      1.3479587E-30
   5.620000      1.4538445E-30
   5.630000      1.5613857E-30
   5.640000      1.6702201E-30
   5.650000      1.7799522E-30
   5.660000      1.8901528E-30
   5.670000      2.0003583E-30
   5.680000      2.1100693E-30
   5.690000      2.2187518E-30
   5.700000      2.3258348E-30
   5.710000      2.4307117E-30
   5.720000      2.5327391E-30
   5.730000      2.6312380E-30
   5.740000      2.7254924E-30
   5.750000      2.8147508E-30
   5.760000      2.8982263E-30
   5.770000      2.9750965E-30
   5.780000      3.0445052E-30
   5.790000      3.1055635E-30
   5.800000      3.1573504E-30
   5.810000      3.1989140E-30
   5.820000      3.2292744E-30
   5.830000      3.2474237E-30
   5.840000      3.2523311E-30
   5.850000      3.2429418E-30
   5.860000      3.2181830E-30
   5.870000      3.1769655E-30
   5.880000      3.1181876E-30
   5.890000      3.0407381E-30
   5.900000      2.9435010E-30
   5.910000      2.8253603E-30
   5.920000      2.6852039E-30
   5.930000      2.5219298E-30
   5.940000      2.3344503E-30
   5.950000      2.1216983E-30
   5.960000      1.8826332E-30
   5.970000      1.6162485E-30
   5.980000      1.3215768E-30
   5.990000      9.9769754E-31
   6.000000      6.4374443E-31
   6.010000      2.5891323E-31
   6.020000     -1.5752993E-31
   6.030000     -6.0624137E-31
   6.040000     -1.0877905E-30
   6.050000     -1.6026511E-30
   6.060000     -2.1511925E-30
   6.070000     -2.7336697E-30
   6.080000     -3.3502146E-30
   6.090000     -4.0008253E-30
   6.100000     -4.6853565E-30
   6.110000     -5.4035098E-30
   6.120000     -6.1548215E-30
   6.130000     -6.9386539E-30
   6.140000     -7.7541829E-30
   6.150000     -8.6003899E-30
   6.160000     -9.4760463E-30
   6.170000     -1.0379709E-29
   6.180000     -1.1309704E-29
   6.190000     -1.2264117E-29
   6.200000     -1.3240785E-29
   6.210000     -1.4237285E-29
   6.220000     -1.5250925E-29
   6.230000     -1.6278729E-29
   6.240000     -1.7317435E-29
   6.250000     -1.8363486E-29
   6.260000     -1.9413016E-29
   6.270000     -2.0461846E-29
   6.280000     -2.1505481E-29
   6.290000     -2.2539104E-29
   6.300000     -2.3557563E-29
   6.310000     -2.4555378E-29
   6.320000     -2.5526733E-29
   6.330000     -2.6465476E-29
   6.340000     -2.7365120E-29
   6.350000     -2.8218846E-29
   6.360000     -2.9019497E-29
   6.370000     -2.9759602E-29
   6.380000     -3.0431360E-29
   6.390000     -3.1026662E-29
   6.400000     -3.1537100E-29
   6.410000     -3.1953967E-29
   6.420000     -3.2268294E-29
   6.430000     -3.2470839E-29
   6.440000     -3.2552131E-29
   6.450000     -3.2502472E-29
   6.460000     -3.2311968E-29
   6.470000     -3.1970554E-29
   6.480000     -3.1468025E-29
   6.490000     -3.0794064E-29
   6.500000     -2.9938274E-29
   6.510000     -2.8890228E-29
   6.520000     -2.7639496E-29
   6.530000     -2.6175693E-29
   6.540000     -2.4488533E-29
   6.550000     -2.2567865E-29
   6.560000     -2.0403743E-29
   6.570000     -1.7986467E-29
   6.580000     -1.5306658E-29
   6.590000     -1.2355314E-29
   6.600000     -9.1238772E-30
   6.610000     -5.6043045E-30
   6.620000     -1.7891440E-30
   6.630000      2.3283882E-30
   6.640000      6.7543356E-30
   6.650000      1.1493916E-29
   6.660000      1.6551430E-29
   6.670000      2.1930188E-29
   6.680000      2.7632403E-29
   6.690000      3.3659117E-29
   6.700000      4.0010090E-29
   6.710000      4.6683723E-29
   6.720000      5.3676956E-29
   6.730000      6.0985162E-29
   6.740000      6.8602064E-29
   6.750000      7.6519622E-29
   6.760000      8.4727948E-29
   6.770000      9.3215202E-29
   6.780000      1.0196752E-28
   6.790000      1.1096886E-28
   6.800000      1.2020096E-28
   6.810000      1.2964325E-28
   6.820000      1.3927275E-28
   6.830000      1.4906392E-28
   6.840000      1.5898874E-28
   6.850000      1.6901647E-28
   6.860000      1.7911366E-28
   6.870000      1.8924409E-28
   6.880000      1.9936868E-28
   6.890000      2.0944548E-28
   6.900000      2.1942962E-28
   6.910000      2.2927320E-28
   6.920000      2.3892538E-28
   6.930000      2.4833234E-28
   6.940000      2.5743730E-28
   6.950000      2.6618042E-28
   6.960000      2.7449892E-28
   6.970000      2.8232722E-28
   6.980000      2.8959681E-28
   6.990000      2.9623648E-28
   7.000000      3.0217227E-28
   7.010000      3.0732772E-28
   7.020000      3.1162394E-28
   7.030000      3.1497970E-28
   7.040000      3.1731169E-28
   7.050000      3.1853471E-28
   7.060000      3.1856179E-28