  -2.600000      0.0000000E+00
  -2.590000      0.0000000E+00
  -2.580000      0.0000000E+00
  -2.570000      0.0000000E+00
  -2.560000      0.0000000E+00
  -2.550000      0.0000000E+00
  -2.540000      0.0000000E+00
  -2.530000      0.0000000E+00
  -2.520000      0.0000000E+00
  -2.510000      0.0000000E+00
  -2.500000      0.0000000E+00
  -2.490000      0.0000000E+00
  -2.480000      0.0000000E+00
  -2.470000      0.0000000E+00
  -2.460000      0.0000000E+00
  -2.450000      0.0000000E+00
  -2.440000      0.0000000E+00
  -2.430000      0.0000000E+00
  -2.420000      0.0000000E+00
  -2.410000      0.0000000E+00
  -2.400000      0.0000000E+00
  -2.390000      0.0000000E+00
  -2.380000      0.0000000E+00
  -2.370000      0.0000000E+00
  -2.360000      0.0000000E+00
  -2.350000      0.0000000E+00
  -2.340000      0.0000000E+00
  -2.330000      0.0000000E+00
  -2.320000      0.0000000E+00
  -2.310000      0.0000000E+00
  -2.300000      0.0000000E+00
  -2.290000      0.0000000E+00
  -2.280000      0.0000000E+00
  -2.270000      0.0000000E+00
  -2.260000      0.0000000E+00
  -2.250000      0.0000000E+00
  -2.240000      0.0000000E+00
  -2.230000      0.0000000E+00
  -2.220000      0.0000000E+00
  -2.210000      0.0000000E+00
  -2.200000      0.0000000E+00
  -2.190000      0.0000000E+00
  -2.180000      0.0000000E+00
  -2.170000      0.0000000E+00
  -2.160000      0.0000000E+00
  -2.150000      0.0000000E+00
  -2.140000      0.0000000E+00
  -2.130000      0.0000000E+00
  -2.120000      0.0000000E+00
  -2.110000      0.0000000E+00
  -2.100000      0.0000000E+00
  -2.090000      0.0000000E+00
  -2.080000      0.0000000E+00
  -2.070000      0.0000000E+00
  -2.060000      0.0000000E+00
  -2.050000      0.0000000E+00
  -2.040000      0.0000000E+00
  -2.030000      0.0000000E+00
  -2.020000      0.0000000E+00
  -2.010000      0.0000000E+00
  -2.000000      0.0000000E+00
  -1.990000      0.0000000E+00
  -1.980000      0.0000000E+00
  -1.970000      0.0000000E+00
  -1.960000      0.0000000E+00
  -1.950000      0.0000000E+00
  -1.940000      0.0000000E+00
  -1.930000      0.0000000E+00
  -1.920000      0.0000000E+00
  -1.910000      0.0000000E+00
  -1.900000      0.0000000E+00
  -1.890000      0.0000000E+00
  -1.880000      0.0000000E+00
  -1.870000      0.0000000E+00
  -1.860000      0.0000000E+00
  -1.850000      0.0000000E+00
  -1.840000      0.0000000E+00
  -1.830000      0.0000000E+00
  -1.820000      0.0000000E+00
  -1.810000      0.0000000E+00
  -1.800000      0.0000000E+00
  -1.790000      0.0000000E+00
  -1.780000      0.0000000E+00
  -1.770000      0.0000000E+00
  -1.760000      0.0000000E+00
  -1.750000      0.0000000E+00
  -1.740000      0.0000000E+00
  -1.730000      0.0000000E+00
  -1.720000      0.0000000E+00
  -1.710000      0.0000000E+00
  -1.700000      0.0000000E+00
  -1.690000      0.0000000E+00
  -1.680000      0.0000000E+00
  -1.670000      0.0000000E+00
  -1.660000      0.0000000E+00
  -1.650000      0.0000000E+00
  -1.640000      0.0000000E+00
  -1.630000      0.0000000E+00
  -1.620000      0.0000000E+00
  -1.610000      0.0000000E+00
  -1.600000      0.0000000E+00
  -1.590000      0.0000000E+00
  -1.580000      0.0000000E+00
  -1.570000      0.0000000E+00
  -1.560000      0.0000000E+00
  -1.550000      0.0000000E+00
  -1.540000      0.0000000E+00
  -1.530000      0.0000000E+00
  -1.520000      0.0000000E+00
  -1.510000      0.0000000E+00
  -1.500000      0.0000000E+00
  -1.490000      0.0000000E+00
  -1.480000      0.0000000E+00
  -1.470000      0.0000000E+00
  -1.460000      0.0000000E+00
  -1.450000      0.0000000E+00
  -1.440000      0.0000000E+00
  -1.430000      0.0000000E+00
  -1.420000      0.0000000E+00
  -1.410000      0.0000000E+00
  -1.400000      0.0000000E+00
  -1.390000      0.0000000E+00
  -1.380000      0.0000000E+00
  -1.370000      0.0000000E+00
  -1.360000      0.0000000E+00
  -1.350000      0.0000000E+00
  -1.340000      0.0000000E+00
  -1.330000      0.0000000E+00
  -1.320000      0.0000000E+00
  -1.310000      0.0000000E+00
  -1.300000      0.0000000E+00
  -1.290000      0.0000000E+00
  -1.280000      0.0000000E+00
  -1.270000      0.0000000E+00
  -1.260000      0.0000000E+00
  -1.250000      0.0000000E+00
  -1.240000      0.0000000E+00
  -1.230000      0.0000000E+00
  -1.220000      0.0000000E+00
  -1.210000      0.0000000E+00
  -1.200000      0.0000000E+00
  -1.190000      0.0000000E+00
  -1.180000      0.0000000E+00
  -1.170000      0.0000000E+00
  -1.160000      0.0000000E+00
  -1.150000      0.0000000E+00
  -1.140000      0.0000000E+00
  -1.130000      0.0000000E+00
  -1.120000      0.0000000E+00
  -1.110000      0.0000000E+00
  -1.100000      0.0000000E+00
  -1.090000      0.0000000E+00
  -1.080000      0.0000000E+00
  -1.070000      0.0000000E+00
  -1.060000      0.0000000E+00
  -1.050000      0.0000000E+00
  -1.040000      0.0000000E+00
  -1.030000      0.0000000E+00
  -1.020000      0.0000000E+00
  -1.010000      0.0000000E+00
  -1.000000      0.0000000E+00
 -0.9900000      0.0000000E+00
 -0.9800000      0.0000000E+00
 -0.9700000      0.0000000E+00
 -0.9600000      0.0000000E+00
 -0.9500000      0.0000000E+00
 -0.9400000      0.0000000E+00
 -0.9300000      0.0000000E+00
 -0.9200000      0.0000000E+00
 -0.9100000      0.0000000E+00
 -0.9000000      0.0000000E+00
 -0.8900000      0.0000000E+00
 -0.8800000      0.0000000E+00
 -0.8700000      0.0000000E+00
 -0.8600000      0.0000000E+00
 -0.8500000      0.0000000E+00
 -0.8400000      0.0000000E+00
 -0.8300000      0.0000000E+00
 -0.8200000      0.0000000E+00
 -0.8100000      0.0000000E+00
 -0.8000000      0.0000000E+00
 -0.7900000      0.0000000E+00
 -0.7800000      0.0000000E+00
 -0.7700000      0.0000000E+00
 -0.7600000      0.0000000E+00
 -0.7500000      0.0000000E+00
 -0.7400000      0.0000000E+00
 -0.7300000      0.0000000E+00
 -0.7200000      0.0000000E+00
 -0.7100000      0.0000000E+00
 -0.7000000      0.0000000E+00
 -0.6900000      0.0000000E+00
 -0.6800000      0.0000000E+00
 -0.6700000      0.0000000E+00
 -0.6600000      0.0000000E+00
 -0.6500000      0.0000000E+00
 -0.6400000      0.0000000E+00
 -0.6300000      0.0000000E+00
 -0.6200000      0.0000000E+00
 -0.6100000      0.0000000E+00
 -0.6000000      0.0000000E+00
 -0.5900000      0.0000000E+00
 -0.5800000      0.0000000E+00
 -0.5700000      0.0000000E+00
 -0.5600000      0.0000000E+00
 -0.5500000      0.0000000E+00
 -0.5400000      0.0000000E+00
 -0.5300000      0.0000000E+00
 -0.5200000      0.0000000E+00
 -0.5100000      0.0000000E+00
 -0.5000000      0.0000000E+00
 -0.4900000      0.0000000E+00
 -0.4800000      0.0000000E+00
 -0.4700000      0.0000000E+00
 -0.4600000      0.0000000E+00
 -0.4500000      0.0000000E+00
 -0.4400000      0.0000000E+00
 -0.4300000      0.0000000E+00
 -0.4200000      0.0000000E+00
 -0.4100000      0.0000000E+00
 -0.4000000      0.0000000E+00
 -0.3900000      0.0000000E+00
 -0.3800000      0.0000000E+00
 -0.3700000      0.0000000E+00
 -0.3600000      0.0000000E+00
 -0.3500000      0.0000000E+00
 -0.3400000      0.0000000E+00
 -0.3300000      0.0000000E+00
 -0.3200000      0.0000000E+00
 -0.3100000      0.0000000E+00
 -0.3000000      0.0000000E+00
 -0.2900000      0.0000000E+00
 -0.2800000      0.0000000E+00
 -0.2700000      0.0000000E+00
 -0.2600000      0.0000000E+00
 -0.2500000      0.0000000E+00
 -0.2400000      0.0000000E+00
 -0.2300000      0.0000000E+00
 -0.2200000      0.0000000E+00
 -0.2100000      0.0000000E+00
 -0.2000000      0.0000000E+00
 -0.1900000      0.0000000E+00
 -0.1800000      0.0000000E+00
 -0.1700000      0.0000000E+00
 -0.1600000      0.0000000E+00
 -0.1500000      0.0000000E+00
 -0.1400000      0.0000000E+00
 -0.1300000      0.0000000E+00
 -0.1200000      0.0000000E+00
 -0.1100000      0.0000000E+00
 -0.1000000      0.0000000E+00
 -9.0000004E-02  0.0000000E+00
 -7.9999998E-02  0.0000000E+00
 -7.0000000E-02  0.0000000E+00
 -5.9999999E-02  0.0000000E+00
 -5.0000001E-02  0.0000000E+00
 -3.9999999E-02  0.0000000E+00
 -2.9999999E-02  0.0000000E+00
 -2.0000000E-02  0.0000000E+00
 -9.9999998E-03  0.0000000E+00
 -3.4694470E-17  0.0000000E+00
  9.9999998E-03  0.0000000E+00
  2.0000000E-02  0.0000000E+00
  2.9999999E-02  0.0000000E+00
  3.9999999E-02  0.0000000E+00
  5.0000001E-02  0.0000000E+00
  5.9999999E-02  0.0000000E+00
  7.0000000E-02  0.0000000E+00
  7.9999998E-02  0.0000000E+00
  9.0000004E-02  0.0000000E+00
  0.1000000      0.0000000E+00
  0.1100000      0.0000000E+00
  0.1200000      0.0000000E+00
  0.1300000      0.0000000E+00
  0.1400000      0.0000000E+00
  0.1500000      0.0000000E+00
  0.1600000      0.0000000E+00
  0.1700000      0.0000000E+00
  0.1800000      0.0000000E+00
  0.1900000      0.0000000E+00
  0.2000000      0.0000000E+00
  0.2100000      0.0000000E+00
  0.2200000      0.0000000E+00
  0.2300000      0.0000000E+00
  0.2400000      0.0000000E+00
  0.2500000      0.0000000E+00
  0.2600000      0.0000000E+00
  0.2700000      0.0000000E+00
  0.2800000      0.0000000E+00
  0.2900000      0.0000000E+00
  0.3000000      0.0000000E+00
  0.3100000      0.0000000E+00
  0.3200000      0.0000000E+00
  0.3300000      0.0000000E+00
  0.3400000      0.0000000E+00
  0.3500000      0.0000000E+00
  0.3600000      0.0000000E+00
  0.3700000      0.0000000E+00
  0.3800000      0.0000000E+00
  0.3900000      0.0000000E+00
  0.4000000      0.0000000E+00
  0.4100000      0.0000000E+00
  0.4200000      0.0000000E+00
  0.4300000      0.0000000E+00
  0.4400000      0.0000000E+00
  0.4500000      0.0000000E+00
  0.4600000      0.0000000E+00
  0.4700000      0.0000000E+00
  0.4800000      0.0000000E+00
  0.4900000      0.0000000E+00
  0.5000000      0.0000000E+00
  0.5100000      0.0000000E+00
  0.5200000      0.0000000E+00
  0.5300000      0.0000000E+00
  0.5400000      0.0000000E+00
  0.5500000      0.0000000E+00
  0.5600000      0.0000000E+00
  0.5700000      0.0000000E+00
  0.5800000      0.0000000E+00
  0.5900000      0.0000000E+00
  0.6000000      0.0000000E+00
  0.6100000      0.0000000E+00
  0.6200000      0.0000000E+00
  0.6300000      0.0000000E+00
  0.6400000      0.0000000E+00
  0.6500000      0.0000000E+00
  0.6600000      0.0000000E+00
  0.6700000      0.0000000E+00
  0.6800000      0.0000000E+00
  0.6900000      0.0000000E+00
  0.7000000      0.0000000E+00
  0.7100000      0.0000000E+00
  0.7200000      0.0000000E+00
  0.7300000      0.0000000E+00
  0.7400000      0.0000000E+00
  0.7500000      0.0000000E+00
  0.7600000      0.0000000E+00
  0.7700000      0.0000000E+00
  0.7800000      0.0000000E+00
  0.7900000      0.0000000E+00
  0.8000000      0.0000000E+00
  0.8100000      0.0000000E+00
  0.8200000      0.0000000E+00
  0.8300000      0.0000000E+00
  0.8400000      0.0000000E+00
  0.8500000      0.0000000E+00
  0.8600000      0.0000000E+00
  0.8700000      0.0000000E+00
  0.8800000      0.0000000E+00
  0.8900000      0.0000000E+00
  0.9000000      0.0000000E+00
  0.9100000      0.0000000E+00
  0.9200000      0.0000000E+00
  0.9300000      0.0000000E+00
  0.9400000      0.0000000E+00
  0.9500000      0.0000000E+00
  0.9600000      0.0000000E+00
  0.9700000      0.0000000E+00
  0.9800000      0.0000000E+00
  0.9900000      0.0000000E+00
   1.000000      0.0000000E+00
   1.010000      0.0000000E+00
   1.020000      0.0000000E+00
   1.030000      0.0000000E+00
   1.040000      0.0000000E+00
   1.050000      0.0000000E+00
   1.060000      0.0000000E+00
   1.070000      0.0000000E+00
   1.080000      0.0000000E+00
   1.090000      0.0000000E+00
   1.100000      0.0000000E+00
   1.110000      0.0000000E+00
   1.120000      0.0000000E+00
   1.130000      0.0000000E+00
   1.140000      0.0000000E+00
   1.150000      0.0000000E+00
   1.160000      0.0000000E+00
   1.170000      0.0000000E+00
   1.180000      0.0000000E+00
   1.190000      0.0000000E+00
   1.200000      0.0000000E+00
   1.210000      0.0000000E+00
   1.220000      0.0000000E+00
   1.230000      0.0000000E+00
   1.240000      0.0000000E+00
   1.250000      0.0000000E+00
   1.260000      0.0000000E+00
   1.270000      0.0000000E+00
   1.280000      0.0000000E+00
   1.290000      0.0000000E+00
   1.300000      0.0000000E+00
   1.310000      0.0000000E+00
   1.320000      0.0000000E+00
   1.330000      0.0000000E+00
   1.340000      0.0000000E+00
   1.350000      0.0000000E+00
   1.360000      0.0000000E+00
   1.370000      0.0000000E+00
   1.380000      0.0000000E+00
   1.390000      0.0000000E+00
   1.400000      0.0000000E+00
   1.410000      0.0000000E+00
   1.420000      0.0000000E+00
   1.430000      0.0000000E+00
   1.440000      0.0000000E+00
   1.450000      0.0000000E+00
   1.460000      0.0000000E+00
   1.470000      0.0000000E+00
   1.480000      0.0000000E+00
   1.490000      0.0000000E+00
   1.500000      0.0000000E+00
   1.510000      0.0000000E+00
   1.520000      0.0000000E+00
   1.530000      0.0000000E+00
   1.540000      0.0000000E+00
   1.550000      0.0000000E+00
   1.560000      0.0000000E+00
   1.570000      0.0000000E+00
   1.580000      0.0000000E+00
   1.590000      0.0000000E+00
   1.600000      0.0000000E+00
   1.610000      0.0000000E+00
   1.620000      0.0000000E+00
   1.630000      0.0000000E+00
   1.640000      0.0000000E+00
   1.650000      0.0000000E+00
   1.660000      0.0000000E+00
   1.670000      0.0000000E+00
   1.680000      0.0000000E+00
   1.690000      0.0000000E+00
   1.700000      0.0000000E+00
   1.710000      0.0000000E+00
   1.720000      0.0000000E+00
   1.730000      0.0000000E+00
   1.740000      0.0000000E+00
   1.750000      0.0000000E+00
   1.760000      0.0000000E+00
   1.770000      0.0000000E+00
   1.780000      0.0000000E+00
   1.790000      0.0000000E+00
   1.800000      0.0000000E+00
   1.810000      0.0000000E+00
   1.820000      0.0000000E+00
   1.830000      0.0000000E+00
   1.840000      0.0000000E+00
   1.850000      0.0000000E+00
   1.860000      0.0000000E+00
   1.870000      0.0000000E+00
   1.880000      0.0000000E+00
   1.890000      0.0000000E+00
   1.900000      0.0000000E+00
   1.910000      0.0000000E+00
   1.920000      0.0000000E+00
   1.930000      0.0000000E+00
   1.940000      0.0000000E+00
   1.950000      0.0000000E+00
   1.960000      0.0000000E+00
   1.970000      0.0000000E+00
   1.980000      0.0000000E+00
   1.990000      0.0000000E+00
   2.000000      0.0000000E+00
   2.010000      0.0000000E+00
   2.020000      0.0000000E+00
   2.030000      0.0000000E+00
   2.040000      0.0000000E+00
   2.050000      0.0000000E+00
   2.060000      0.0000000E+00
   2.070000      0.0000000E+00
   2.080000      0.0000000E+00
   2.090000      0.0000000E+00
   2.100000      0.0000000E+00
   2.110000      0.0000000E+00
   2.120000      0.0000000E+00
   2.130000      0.0000000E+00
   2.140000      0.0000000E+00
   2.150000      0.0000000E+00
   2.160000      0.0000000E+00
   2.170000      0.0000000E+00
   2.180000      0.0000000E+00
   2.190000      0.0000000E+00
   2.200000      0.0000000E+00
   2.210000      0.0000000E+00
   2.220000      0.0000000E+00
   2.230000      0.0000000E+00
   2.240000      0.0000000E+00
   2.250000      0.0000000E+00
   2.260000      0.0000000E+00
   2.270000      0.0000000E+00
   2.280000      0.0000000E+00
   2.290000      0.0000000E+00
   2.300000      0.0000000E+00
   2.310000      0.0000000E+00
   2.320000      0.0000000E+00
   2.330000      0.0000000E+00
   2.340000      0.0000000E+00
   2.350000      0.0000000E+00
   2.360000      0.0000000E+00
   2.370000      0.0000000E+00
   2.380000      0.0000000E+00
   2.390000      0.0000000E+00
   2.400000      0.0000000E+00
   2.410000      0.0000000E+00
   2.420000      0.0000000E+00
   2.430000      0.0000000E+00
   2.440000      0.0000000E+00
   2.450000      0.0000000E+00
   2.460000      0.0000000E+00
   2.470000      0.0000000E+00
   2.480000      0.0000000E+00
   2.490000      0.0000000E+00
   2.500000      0.0000000E+00
   2.510000      0.0000000E+00
   2.520000      0.0000000E+00
   2.530000      0.0000000E+00
   2.540000      0.0000000E+00
   2.550000      0.0000000E+00
   2.560000      0.0000000E+00
   2.570000      0.0000000E+00
   2.580000      0.0000000E+00
   2.590000      0.0000000E+00
   2.600000      0.0000000E+00
   2.610000      0.0000000E+00
   2.620000      0.0000000E+00
   2.630000      0.0000000E+00
   2.640000      0.0000000E+00
   2.650000      0.0000000E+00
   2.660000      0.0000000E+00
   2.670000      0.0000000E+00
   2.680000      0.0000000E+00
   2.690000      0.0000000E+00
   2.700000      0.0000000E+00
   2.710000      0.0000000E+00
   2.720000      0.0000000E+00
   2.730000      0.0000000E+00
   2.740000      0.0000000E+00
   2.750000      0.0000000E+00
   2.760000      0.0000000E+00
   2.770000      0.0000000E+00
   2.780000      0.0000000E+00
   2.790000      0.0000000E+00
   2.800000      0.0000000E+00
   2.810000      0.0000000E+00
   2.820000      0.0000000E+00
   2.830000      0.0000000E+00
   2.840000      0.0000000E+00
   2.850000      0.0000000E+00
   2.860000      0.0000000E+00
   2.870000      0.0000000E+00
   2.880000      0.0000000E+00
   2.890000      0.0000000E+00
   2.900000      0.0000000E+00
   2.910000      0.0000000E+00
   2.920000      0.0000000E+00
   2.930000      0.0000000E+00
   2.940000      0.0000000E+00
   2.950000      0.0000000E+00
   2.960000      0.0000000E+00
   2.970000      0.0000000E+00
   2.980000      0.0000000E+00
   2.990000      0.0000000E+00
   3.000000      0.0000000E+00
   3.010000      0.0000000E+00
   3.020000      0.0000000E+00
   3.030000      0.0000000E+00
   3.040000      0.0000000E+00
   3.050000      0.0000000E+00
   3.060000      0.0000000E+00
   3.070000      0.0000000E+00
   3.080000      0.0000000E+00
   3.090000      0.0000000E+00
   3.100000      0.0000000E+00
   3.110000      0.0000000E+00
   3.120000      0.0000000E+00
   3.130000      0.0000000E+00
   3.140000      0.0000000E+00
   3.150000      0.0000000E+00
   3.160000      0.0000000E+00
   3.170000      0.0000000E+00
   3.180000      0.0000000E+00
   3.190000      0.0000000E+00
   3.200000      0.0000000E+00
   3.210000      0.0000000E+00
   3.220000      0.0000000E+00
   3.230000      0.0000000E+00
   3.240000      0.0000000E+00
   3.250000      0.0000000E+00
   3.260000      0.0000000E+00
   3.270000      0.0000000E+00
   3.280000      0.0000000E+00
   3.290000      0.0000000E+00
   3.300000      0.0000000E+00
   3.310000      0.0000000E+00
   3.320000      0.0000000E+00
   3.330000      0.0000000E+00
   3.340000      0.0000000E+00
   3.350000      0.0000000E+00
   3.360000      0.0000000E+00
   3.370000      0.0000000E+00
   3.380000      0.0000000E+00
   3.390000      0.0000000E+00
   3.400000      0.0000000E+00
   3.410000      0.0000000E+00
   3.420000      0.0000000E+00
   3.430000      0.0000000E+00
   3.440000      0.0000000E+00
   3.450000      0.0000000E+00
   3.460000      0.0000000E+00
   3.470000      0.0000000E+00
   3.480000      0.0000000E+00
   3.490000      0.0000000E+00
   3.500000      0.0000000E+00
   3.510000      0.0000000E+00
   3.520000      0.0000000E+00
   3.530000      0.0000000E+00
   3.540000      0.0000000E+00
   3.550000      1.3010608E-38
   3.560000      1.4504791E-38
   3.570000      1.5062746E-38
   3.580000      1.5166611E-38
   3.590000      1.5192858E-38
   3.600000      1.5781095E-38
   3.610000      1.7427293E-38
   3.620000      1.9212126E-38
   3.630000      1.9968392E-38
   3.640000      1.8724694E-38
   3.650000      1.5466446E-38
   3.660000      0.0000000E+00
   3.670000      0.0000000E+00
   3.680000      0.0000000E+00
   3.690000      0.0000000E+00
   3.700000     -1.7022028E-38
   3.710000     -2.1408807E-38
   3.720000     -2.2902417E-38
   3.730000     -2.4465020E-38
   3.740000     -3.1716692E-38
   3.750000     -4.7075725E-38
   3.760000     -6.7200551E-38
   3.770000     -8.9374659E-38
   3.780000     -1.1593079E-37
   3.790000     -1.5760899E-37
   3.800000     -1.9837315E-37
   3.810000     -2.2419323E-37
   3.820000     -2.4725178E-37
   3.830000     -2.7021019E-37
   3.840000     -2.9990957E-37
   3.850000     -3.4878386E-37
   3.860000     -4.1650178E-37
   3.870000     -4.9619692E-37
   3.880000     -5.8448352E-37
   3.890000     -6.7642551E-37
   3.900000     -7.6609234E-37
   3.910000     -8.3930065E-37
   3.920000     -9.0014364E-37
   3.930000     -9.3469415E-37
   3.940000     -9.2321067E-37
   3.950000     -8.9615517E-37
   3.960000     -8.6774759E-37
   3.970000     -8.2117103E-37
   3.980000     -7.7998649E-37
   3.990000     -7.6262546E-37
   4.000000     -7.5785781E-37
   4.010000     -7.5565233E-37
   4.020000     -7.5933758E-37
   4.030000     -7.6389232E-37
   4.040000     -7.6156756E-37
   4.050000     -7.6247622E-37
   4.060000     -7.8208283E-37
   4.070000     -8.2004165E-37
   4.080000     -8.7866732E-37
   4.090000     -9.7111140E-37
   4.100000     -1.0691903E-36
   4.110000     -1.1591767E-36
   4.120000     -1.2352268E-36
   4.130000     -1.2739877E-36
   4.140000     -1.2360989E-36
   4.150000     -9.8962549E-37
   4.160000     -7.6070462E-37
   4.170000     -6.4846331E-37
   4.180000     -4.7319132E-37
   4.190000     -2.9041003E-37
   4.200000     -1.0271472E-37
   4.210000      8.4743547E-38
   4.220000      2.6440563E-37
   4.230000      3.9267508E-37
   4.240000      4.1319606E-37
   4.250000      3.6539225E-37
   4.260000      4.2180245E-37
   4.270000      6.0082077E-37
   4.280000      8.1094115E-37
   4.290000      1.1533437E-36
   4.300000      1.5768594E-36
   4.310000      1.9989431E-36
   4.320000      2.5898683E-36
   4.330000      3.2810939E-36
   4.340000      3.9652716E-36
   4.350000      4.6210388E-36
   4.360000      5.1864043E-36
   4.370000      5.6929265E-36
   4.380000      6.1765405E-36
   4.390000      6.7862622E-36
   4.400000      7.5730700E-36
   4.410000      8.4597991E-36
   4.420000      9.5077124E-36
   4.430000      1.0738567E-35
   4.440000      1.1946700E-35
   4.450000      1.3079818E-35
   4.460000      1.4239725E-35
   4.470000      1.5130796E-35
   4.480000      1.5732891E-35
   4.490000      1.6310811E-35
   4.500000      1.6829378E-35
   4.510000      1.7356517E-35
   4.520000      1.8276023E-35
   4.530000      1.9544745E-35
   4.540000      2.0674394E-35
   4.550000      2.1806415E-35
   4.560000      2.3472920E-35
   4.570000      2.5345179E-35
   4.580000      2.7256247E-35
   4.590000      2.9221217E-35
   4.600000      3.0935613E-35
   4.610000      3.1548087E-35
   4.620000      3.1079342E-35
   4.630000      3.0586182E-35
   4.640000      2.9979643E-35
   4.650000      2.9231643E-35
   4.660000      2.8335257E-35
   4.670000      2.6936663E-35
   4.680000      2.4951713E-35
   4.690000      2.2789054E-35
   4.700000      2.0529415E-35
   4.710000      1.8030030E-35
   4.720000      1.5542344E-35
   4.730000      1.2887668E-35
   4.740000      9.5203061E-36
   4.750000      5.2322861E-36
   4.760000      2.5548254E-37
   4.770000     -5.1980821E-36
   4.780000     -1.1139545E-35
   4.790000     -1.6992175E-35
   4.800000     -2.2614382E-35
   4.810000     -2.8901578E-35
   4.820000     -3.3815790E-35
   4.830000     -3.6375928E-35
   4.840000     -3.6927027E-35
   4.850000     -3.5457476E-35
   4.860000     -3.2729950E-35
   4.870000     -3.1239606E-35
   4.880000     -3.1640322E-35
   4.890000     -3.4342214E-35
   4.900000     -3.8003520E-35
   4.910000     -4.6401009E-35
   4.920000     -6.1181026E-35
   4.930000     -7.6565888E-35
   4.940000     -9.1777175E-35
   4.950000     -1.0941070E-34
   4.960000     -1.2993374E-34
   4.970000     -1.5148535E-34
   4.980000     -1.7145675E-34
   4.990000     -1.8891600E-34
   5.000000     -2.0687835E-34
   5.010000     -2.2492375E-34
   5.020000     -2.4223984E-34
   5.030000     -2.5866576E-34
   5.040000     -2.7343879E-34
   5.050000     -2.8835646E-34
   5.060000     -3.0440629E-34
   5.070000     -3.1792154E-34
   5.080000     -3.2791310E-34
   5.090000     -3.3515419E-34
   5.100000     -3.4093586E-34
   5.110000     -3.4211863E-34
   5.120000     -3.3938062E-34
   5.130000     -3.3414348E-34
   5.140000     -3.2108373E-34
   5.150000     -3.0084964E-34
   5.160000     -2.7781163E-34
   5.170000     -2.5201203E-34
   5.180000     -2.2211540E-34
   5.190000     -1.8896927E-34
   5.200000     -1.5380155E-34
   5.210000     -1.1831383E-34
   5.220000     -8.0483033E-35
   5.230000     -3.9901461E-35
   5.240000      5.9492321E-37
   5.250000      4.2100996E-35
   5.260000      8.3494417E-35
   5.270000      1.2633065E-34
   5.280000      1.7074541E-34
   5.290000      2.1653083E-34
   5.300000      2.6784722E-34
   5.310000      3.2407725E-34
   5.320000      3.8216922E-34
   5.330000      4.4232714E-34
   5.340000      5.0828431E-34
   5.350000      5.7960499E-34
   5.360000      6.5513432E-34
   5.370000      7.3528825E-34
   5.380000      8.2114268E-34
   5.390000      9.1667355E-34
   5.400000      1.0203249E-33
   5.410000      1.1285109E-33
   5.420000      1.2427832E-33
   5.430000      1.3606288E-33
   5.440000      1.4783551E-33
   5.450000      1.6013892E-33
   5.460000      1.7309509E-33
   5.470000      1.8619131E-33
   5.480000      1.9929721E-33
   5.490000      2.1226109E-33
   5.500000      2.2492577E-33
   5.510000      2.3703076E-33
   5.520000      2.4849181E-33
   5.530000      2.5927181E-33
   5.540000      2.6918780E-33
   5.550000      2.7816454E-33
   5.560000      2.8592122E-33
   5.570000      2.9217329E-33
   5.580000      2.9691913E-33
   5.590000      3.0013486E-33
   5.600000      3.0165437E-33
   5.610000      3.0138560E-33
   5.620000      2.9924620E-33
   5.630000      2.9508629E-33
   5.640000      2.8880647E-33
   5.650000      2.8040727E-33
   5.660000      2.6976163E-33
   5.670000      2.5670155E-33
   5.680000      2.4122683E-33
   5.690000      2.2319052E-33
   5.700000      2.0242880E-33
   5.710000      1.7885216E-33
   5.720000      1.5227560E-33
   5.730000      1.2256761E-33
   5.740000      8.9555818E-34
   5.750000      5.3086840E-34
   5.760000      1.3033232E-34
   5.770000     -3.0851791E-34
   5.780000     -7.8760013E-34
   5.790000     -1.3087245E-33
   5.800000     -1.8736781E-33
   5.810000     -2.4840852E-33
   5.820000     -3.1415458E-33
   5.830000     -3.8467472E-33
   5.840000     -4.6002733E-33
   5.850000     -5.4029464E-33
   5.860000     -6.2547136E-33
   5.870000     -7.1553171E-33
   5.880000     -8.1038713E-33
   5.890000     -9.0990088E-33
   5.900000     -1.0139131E-32
   5.910000     -1.1222068E-32
   5.920000     -1.2345150E-32
   5.930000     -1.3505363E-32
   5.940000     -1.4700624E-32
   5.950000     -1.5925671E-32
   5.960000     -1.7173369E-32
   5.970000     -1.8438729E-32
   5.980000     -1.9719087E-32
   5.990000     -2.1009777E-32
   6.000000     -2.2302913E-32
   6.010000     -2.3591867E-32
   6.020000     -2.4869508E-32
   6.030000     -2.6128174E-32
   6.040000     -2.7359893E-32
   6.050000     -2.8555673E-32
   6.060000     -2.9708319E-32
   6.070000     -3.0807770E-32
   6.080000     -3.1842437E-32
   6.090000     -3.2803166E-32
   6.100000     -3.3678824E-32
   6.110000     -3.4458242E-32
   6.120000     -3.5129731E-32
   6.130000     -3.5680509E-32
   6.140000     -3.6097421E-32
   6.150000     -3.6366733E-32
   6.160000     -3.6474106E-32
   6.170000     -3.6404584E-32
   6.180000     -3.6142634E-32
   6.190000     -3.5672216E-32
   6.200000     -3.4976823E-32
   6.210000     -3.4039522E-32
   6.220000     -3.2843048E-32
   6.230000     -3.1369859E-32
   6.240000     -2.9602283E-32
   6.250000     -2.7522584E-32
   6.260000     -2.5113073E-32
   6.270000     -2.2356230E-32
   6.280000     -1.9234826E-32
   6.290000     -1.5732024E-32
   6.300000     -1.1831534E-32
   6.310000     -7.5177066E-33
   6.320000     -2.7756696E-33
   6.330000      2.4085334E-33
   6.340000      8.0479273E-33
   6.350000      1.4154102E-32
   6.360000      2.0737354E-32
   6.370000      2.7806736E-32
   6.380000      3.5369617E-32
   6.390000      4.3431498E-32
   6.400000      5.1995959E-32
   6.410000      6.1064645E-32
   6.420000      7.0636825E-32
   6.430000      8.0709360E-32
   6.440000      9.1276666E-32
   6.450000      1.0233039E-31
   6.460000      1.1385929E-31
   6.470000      1.2584905E-31
   6.480000      1.3828210E-31
   6.490000      1.5113747E-31
   6.500000      1.6439057E-31
   6.510000      1.7801296E-31
   6.520000      1.9197229E-31
   6.530000      2.0623190E-31
   6.540000      2.2075081E-31
   6.550000      2.3548337E-31
   6.560000      2.5037917E-31
   6.570000      2.6538278E-31
   6.580000      2.8043350E-31
   6.590000      2.9546542E-31
   6.600000      3.1040703E-31
   6.610000      3.2518116E-31
   6.620000      3.3970489E-31
   6.630000      3.5388946E-31
   6.640000      3.6764018E-31
   6.650000      3.8085636E-31
   6.660000      3.9343133E-31
   6.670000      4.0525248E-31
   6.680000      4.1620122E-31
   6.690000      4.2615310E-31
   6.700000      4.3497791E-31
   6.710000      4.4253991E-31
   6.720000      4.4869771E-31
   6.730000      4.5330481E-31
   6.740000      4.5620973E-31
   6.750000      4.5725602E-31
   6.760000      4.5628299E-31
   6.770000      4.5312580E-31
   6.780000      4.4761602E-31
   6.790000      4.3958185E-31
   6.800000      4.2884897E-31
   6.810000      4.1524079E-31
   6.820000      3.9857929E-31
   6.830000      3.7868541E-31
   6.840000      3.5537990E-31
   6.850000      3.2848407E-31
   6.860000      2.9782055E-31
   6.870000      2.6321425E-31
   6.880000      2.2449318E-31
   6.890000      1.8148938E-31
   6.900000      1.3404019E-31
   6.910000      8.1989121E-32
   6.920000      2.5187173E-32
   6.930000     -3.6506059E-32
   6.940000     -1.0322108E-31
   6.950000     -1.7507698E-31
   6.960000     -2.5218012E-31
   6.970000     -3.3462259E-31
   6.980000     -4.2248062E-31
   6.990000     -5.1581308E-31
   7.000000     -6.1465984E-31
   7.010000     -7.1904002E-31
   7.020000     -8.2895015E-31
   7.030000     -9.4436254E-31
   7.040000     -1.0652233E-30
   7.050000     -1.1914505E-30
   7.060000     -1.3229325E-30