  -2.600000      0.0000000E+00
  -2.590000      0.0000000E+00
  -2.580000      0.0000000E+00
  -2.570000      0.0000000E+00
  -2.560000      0.0000000E+00
  -2.550000      0.0000000E+00
  -2.540000      0.0000000E+00
  -2.530000      0.0000000E+00
  -2.520000      0.0000000E+00
  -2.510000      0.0000000E+00
  -2.500000      0.0000000E+00
  -2.490000      0.0000000E+00
  -2.480000      0.0000000E+00
  -2.470000      0.0000000E+00
  -2.460000      0.0000000E+00
  -2.450000      0.0000000E+00
  -2.440000      0.0000000E+00
  -2.430000      0.0000000E+00
  -2.420000      0.0000000E+00
  -2.410000      0.0000000E+00
  -2.400000      0.0000000E+00
  -2.390000      0.0000000E+00
  -2.380000      0.0000000E+00
  -2.370000      0.0000000E+00
  -2.360000      0.0000000E+00
  -2.350000      0.0000000E+00
  -2.340000      0.0000000E+00
  -2.330000      0.0000000E+00
  -2.320000      0.0000000E+00
  -2.310000      0.0000000E+00
  -2.300000      0.0000000E+00
  -2.290000      0.0000000E+00
  -2.280000      0.0000000E+00
  -2.270000      0.0000000E+00
  -2.260000      0.0000000E+00
  -2.250000      0.0000000E+00
  -2.240000      0.0000000E+00
  -2.230000      0.0000000E+00
  -2.220000      0.0000000E+00
  -2.210000      0.0000000E+00
  -2.200000      0.0000000E+00
  -2.190000      0.0000000E+00
  -2.180000      0.0000000E+00
  -2.170000      0.0000000E+00
  -2.160000      0.0000000E+00
  -2.150000      0.0000000E+00
  -2.140000      0.0000000E+00
  -2.130000      0.0000000E+00
  -2.120000      0.0000000E+00
  -2.110000      0.0000000E+00
  -2.100000      0.0000000E+00
  -2.090000      0.0000000E+00
  -2.080000      0.0000000E+00
  -2.070000      0.0000000E+00
  -2.060000      0.0000000E+00
  -2.050000      0.0000000E+00
  -2.040000      0.0000000E+00
  -2.030000      0.0000000E+00
  -2.020000      0.0000000E+00
  -2.010000      0.0000000E+00
  -2.000000      0.0000000E+00
  -1.990000      0.0000000E+00
  -1.980000      0.0000000E+00
  -1.970000      0.0000000E+00
  -1.960000      0.0000000E+00
  -1.950000      0.0000000E+00
  -1.940000      0.0000000E+00
  -1.930000      0.0000000E+00
  -1.920000      0.0000000E+00
  -1.910000      0.0000000E+00
  -1.900000      0.0000000E+00
  -1.890000      0.0000000E+00
  -1.880000      0.0000000E+00
  -1.870000      0.0000000E+00
  -1.860000      0.0000000E+00
  -1.850000      0.0000000E+00
  -1.840000      0.0000000E+00
  -1.830000      0.0000000E+00
  -1.820000      0.0000000E+00
  -1.810000      0.0000000E+00
  -1.800000      0.0000000E+00
  -1.790000      0.0000000E+00
  -1.780000      0.0000000E+00
  -1.770000      0.0000000E+00
  -1.760000      0.0000000E+00
  -1.750000      0.0000000E+00
  -1.740000      0.0000000E+00
  -1.730000      0.0000000E+00
  -1.720000      0.0000000E+00
  -1.710000      0.0000000E+00
  -1.700000      0.0000000E+00
  -1.690000      0.0000000E+00
  -1.680000      0.0000000E+00
  -1.670000      0.0000000E+00
  -1.660000      0.0000000E+00
  -1.650000      0.0000000E+00
  -1.640000      0.0000000E+00
  -1.630000      0.0000000E+00
  -1.620000      0.0000000E+00
  -1.610000      0.0000000E+00
  -1.600000      0.0000000E+00
  -1.590000      0.0000000E+00
  -1.580000      0.0000000E+00
  -1.570000      0.0000000E+00
  -1.560000      0.0000000E+00
  -1.550000      0.0000000E+00
  -1.540000      0.0000000E+00
  -1.530000      0.0000000E+00
  -1.520000      0.0000000E+00
  -1.510000      0.0000000E+00
  -1.500000      0.0000000E+00
  -1.490000      0.0000000E+00
  -1.480000      0.0000000E+00
  -1.470000      0.0000000E+00
  -1.460000      0.0000000E+00
  -1.450000      0.0000000E+00
  -1.440000      0.0000000E+00
  -1.430000      0.0000000E+00
  -1.420000      0.0000000E+00
  -1.410000      0.0000000E+00
  -1.400000      0.0000000E+00
  -1.390000      0.0000000E+00
  -1.380000      0.0000000E+00
  -1.370000      0.0000000E+00
  -1.360000      0.0000000E+00
  -1.350000      0.0000000E+00
  -1.340000      0.0000000E+00
  -1.330000      0.0000000E+00
  -1.320000      0.0000000E+00
  -1.310000      0.0000000E+00
  -1.300000      0.0000000E+00
  -1.290000      0.0000000E+00
  -1.280000      0.0000000E+00
  -1.270000      0.0000000E+00
  -1.260000      0.0000000E+00
  -1.250000      0.0000000E+00
  -1.240000      0.0000000E+00
  -1.230000      0.0000000E+00
  -1.220000      0.0000000E+00
  -1.210000      0.0000000E+00
  -1.200000      0.0000000E+00
  -1.190000      0.0000000E+00
  -1.180000      0.0000000E+00
  -1.170000      0.0000000E+00
  -1.160000      0.0000000E+00
  -1.150000      0.0000000E+00
  -1.140000      0.0000000E+00
  -1.130000      0.0000000E+00
  -1.120000      0.0000000E+00
  -1.110000      0.0000000E+00
  -1.100000      0.0000000E+00
  -1.090000      0.0000000E+00
  -1.080000      0.0000000E+00
  -1.070000      0.0000000E+00
  -1.060000      0.0000000E+00
  -1.050000      0.0000000E+00
  -1.040000      0.0000000E+00
  -1.030000      0.0000000E+00
  -1.020000      0.0000000E+00
  -1.010000      0.0000000E+00
  -1.000000      0.0000000E+00
 -0.9900000      0.0000000E+00
 -0.9800000      0.0000000E+00
 -0.9700000      0.0000000E+00
 -0.9600000      0.0000000E+00
 -0.9500000      0.0000000E+00
 -0.9400000      0.0000000E+00
 -0.9300000      0.0000000E+00
 -0.9200000      0.0000000E+00
 -0.9100000      0.0000000E+00
 -0.9000000      0.0000000E+00
 -0.8900000      0.0000000E+00
 -0.8800000      0.0000000E+00
 -0.8700000      0.0000000E+00
 -0.8600000      0.0000000E+00
 -0.8500000      0.0000000E+00
 -0.8400000      0.0000000E+00
 -0.8300000      0.0000000E+00
 -0.8200000      0.0000000E+00
 -0.8100000      0.0000000E+00
 -0.8000000      0.0000000E+00
 -0.7900000      0.0000000E+00
 -0.7800000      0.0000000E+00
 -0.7700000      0.0000000E+00
 -0.7600000      0.0000000E+00
 -0.7500000      0.0000000E+00
 -0.7400000      0.0000000E+00
 -0.7300000      0.0000000E+00
 -0.7200000      0.0000000E+00
 -0.7100000      0.0000000E+00
 -0.7000000      0.0000000E+00
 -0.6900000      0.0000000E+00
 -0.6800000      0.0000000E+00
 -0.6700000      0.0000000E+00
 -0.6600000      0.0000000E+00
 -0.6500000      0.0000000E+00
 -0.6400000      0.0000000E+00
 -0.6300000      0.0000000E+00
 -0.6200000      0.0000000E+00
 -0.6100000      0.0000000E+00
 -0.6000000      0.0000000E+00
 -0.5900000      0.0000000E+00
 -0.5800000      0.0000000E+00
 -0.5700000      0.0000000E+00
 -0.5600000      0.0000000E+00
 -0.5500000      0.0000000E+00
 -0.5400000      0.0000000E+00
 -0.5300000      0.0000000E+00
 -0.5200000      0.0000000E+00
 -0.5100000      0.0000000E+00
 -0.5000000      0.0000000E+00
 -0.4900000      0.0000000E+00
 -0.4800000      0.0000000E+00
 -0.4700000      0.0000000E+00
 -0.4600000      0.0000000E+00
 -0.4500000      0.0000000E+00
 -0.4400000      0.0000000E+00
 -0.4300000      0.0000000E+00
 -0.4200000      0.0000000E+00
 -0.4100000      0.0000000E+00
 -0.4000000      0.0000000E+00
 -0.3900000      0.0000000E+00
 -0.3800000      0.0000000E+00
 -0.3700000      0.0000000E+00
 -0.3600000      0.0000000E+00
 -0.3500000      0.0000000E+00
 -0.3400000      0.0000000E+00
 -0.3300000      0.0000000E+00
 -0.3200000      0.0000000E+00
 -0.3100000      0.0000000E+00
 -0.3000000      0.0000000E+00
 -0.2900000      0.0000000E+00
 -0.2800000      0.0000000E+00
 -0.2700000      0.0000000E+00
 -0.2600000      0.0000000E+00
 -0.2500000      0.0000000E+00
 -0.2400000      0.0000000E+00
 -0.2300000      0.0000000E+00
 -0.2200000      0.0000000E+00
 -0.2100000      0.0000000E+00
 -0.2000000      0.0000000E+00
 -0.1900000      0.0000000E+00
 -0.1800000      0.0000000E+00
 -0.1700000      0.0000000E+00
 -0.1600000      0.0000000E+00
 -0.1500000      0.0000000E+00
 -0.1400000      0.0000000E+00
 -0.1300000      0.0000000E+00
 -0.1200000      0.0000000E+00
 -0.1100000      0.0000000E+00
 -0.1000000      0.0000000E+00
 -9.0000004E-02  0.0000000E+00
 -7.9999998E-02  0.0000000E+00
 -7.0000000E-02  0.0000000E+00
 -5.9999999E-02  0.0000000E+00
 -5.0000001E-02  0.0000000E+00
 -3.9999999E-02  0.0000000E+00
 -2.9999999E-02  0.0000000E+00
 -2.0000000E-02  0.0000000E+00
 -9.9999998E-03  0.0000000E+00
 -3.4694470E-17  0.0000000E+00
  9.9999998E-03  0.0000000E+00
  2.0000000E-02  0.0000000E+00
  2.9999999E-02  0.0000000E+00
  3.9999999E-02  0.0000000E+00
  5.0000001E-02  0.0000000E+00
  5.9999999E-02  0.0000000E+00
  7.0000000E-02  0.0000000E+00
  7.9999998E-02  0.0000000E+00
  9.0000004E-02  0.0000000E+00
  0.1000000      0.0000000E+00
  0.1100000      0.0000000E+00
  0.1200000      0.0000000E+00
  0.1300000      0.0000000E+00
  0.1400000      0.0000000E+00
  0.1500000      0.0000000E+00
  0.1600000      0.0000000E+00
  0.1700000      0.0000000E+00
  0.1800000      0.0000000E+00
  0.1900000      0.0000000E+00
  0.2000000      0.0000000E+00
  0.2100000      0.0000000E+00
  0.2200000      0.0000000E+00
  0.2300000      0.0000000E+00
  0.2400000      0.0000000E+00
  0.2500000      0.0000000E+00
  0.2600000      0.0000000E+00
  0.2700000      0.0000000E+00
  0.2800000      0.0000000E+00
  0.2900000      0.0000000E+00
  0.3000000      0.0000000E+00
  0.3100000      0.0000000E+00
  0.3200000      0.0000000E+00
  0.3300000      0.0000000E+00
  0.3400000      0.0000000E+00
  0.3500000      0.0000000E+00
  0.3600000      0.0000000E+00
  0.3700000      0.0000000E+00
  0.3800000      0.0000000E+00
  0.3900000      0.0000000E+00
  0.4000000      0.0000000E+00
  0.4100000      0.0000000E+00
  0.4200000      0.0000000E+00
  0.4300000      0.0000000E+00
  0.4400000      0.0000000E+00
  0.4500000      0.0000000E+00
  0.4600000      0.0000000E+00
  0.4700000      0.0000000E+00
  0.4800000      0.0000000E+00
  0.4900000      0.0000000E+00
  0.5000000      0.0000000E+00
  0.5100000      0.0000000E+00
  0.5200000      0.0000000E+00
  0.5300000      0.0000000E+00
  0.5400000      0.0000000E+00
  0.5500000      0.0000000E+00
  0.5600000      0.0000000E+00
  0.5700000      0.0000000E+00
  0.5800000      0.0000000E+00
  0.5900000      0.0000000E+00
  0.6000000      0.0000000E+00
  0.6100000      0.0000000E+00
  0.6200000      0.0000000E+00
  0.6300000      0.0000000E+00
  0.6400000      0.0000000E+00
  0.6500000      0.0000000E+00
  0.6600000      0.0000000E+00
  0.6700000      0.0000000E+00
  0.6800000      0.0000000E+00
  0.6900000      0.0000000E+00
  0.7000000      0.0000000E+00
  0.7100000      0.0000000E+00
  0.7200000      0.0000000E+00
  0.7300000      0.0000000E+00
  0.7400000      0.0000000E+00
  0.7500000      0.0000000E+00
  0.7600000      0.0000000E+00
  0.7700000      0.0000000E+00
  0.7800000      0.0000000E+00
  0.7900000      0.0000000E+00
  0.8000000      0.0000000E+00
  0.8100000      0.0000000E+00
  0.8200000      0.0000000E+00
  0.8300000      0.0000000E+00
  0.8400000      0.0000000E+00
  0.8500000      0.0000000E+00
  0.8600000      0.0000000E+00
  0.8700000      0.0000000E+00
  0.8800000      0.0000000E+00
  0.8900000      0.0000000E+00
  0.9000000      0.0000000E+00
  0.9100000      0.0000000E+00
  0.9200000      0.0000000E+00
  0.9300000      0.0000000E+00
  0.9400000      0.0000000E+00
  0.9500000      0.0000000E+00
  0.9600000      0.0000000E+00
  0.9700000      0.0000000E+00
  0.9800000      0.0000000E+00
  0.9900000      0.0000000E+00
   1.000000      0.0000000E+00
   1.010000      0.0000000E+00
   1.020000      0.0000000E+00
   1.030000      0.0000000E+00
   1.040000      0.0000000E+00
   1.050000      0.0000000E+00
   1.060000      0.0000000E+00
   1.070000      0.0000000E+00
   1.080000      0.0000000E+00
   1.090000      0.0000000E+00
   1.100000      0.0000000E+00
   1.110000      0.0000000E+00
   1.120000      0.0000000E+00
   1.130000      0.0000000E+00
   1.140000      0.0000000E+00
   1.150000      0.0000000E+00
   1.160000      0.0000000E+00
   1.170000      0.0000000E+00
   1.180000      0.0000000E+00
   1.190000      0.0000000E+00
   1.200000      0.0000000E+00
   1.210000      0.0000000E+00
   1.220000      0.0000000E+00
   1.230000      0.0000000E+00
   1.240000      0.0000000E+00
   1.250000      0.0000000E+00
   1.260000      0.0000000E+00
   1.270000      0.0000000E+00
   1.280000      0.0000000E+00
   1.290000      0.0000000E+00
   1.300000      0.0000000E+00
   1.310000      0.0000000E+00
   1.320000      0.0000000E+00
   1.330000      0.0000000E+00
   1.340000      0.0000000E+00
   1.350000      0.0000000E+00
   1.360000      0.0000000E+00
   1.370000      0.0000000E+00
   1.380000      0.0000000E+00
   1.390000      0.0000000E+00
   1.400000      0.0000000E+00
   1.410000      0.0000000E+00
   1.420000      0.0000000E+00
   1.430000      0.0000000E+00
   1.440000      0.0000000E+00
   1.450000      0.0000000E+00
   1.460000      0.0000000E+00
   1.470000      0.0000000E+00
   1.480000      0.0000000E+00
   1.490000      0.0000000E+00
   1.500000      0.0000000E+00
   1.510000      0.0000000E+00
   1.520000      0.0000000E+00
   1.530000      0.0000000E+00
   1.540000      0.0000000E+00
   1.550000      0.0000000E+00
   1.560000      0.0000000E+00
   1.570000      0.0000000E+00
   1.580000      0.0000000E+00
   1.590000      0.0000000E+00
   1.600000      0.0000000E+00
   1.610000      0.0000000E+00
   1.620000      0.0000000E+00
   1.630000      0.0000000E+00
   1.640000      0.0000000E+00
   1.650000      0.0000000E+00
   1.660000      0.0000000E+00
   1.670000      0.0000000E+00
   1.680000      0.0000000E+00
   1.690000      0.0000000E+00
   1.700000      0.0000000E+00
   1.710000      0.0000000E+00
   1.720000      0.0000000E+00
   1.730000      0.0000000E+00
   1.740000      0.0000000E+00
   1.750000      0.0000000E+00
   1.760000      0.0000000E+00
   1.770000      0.0000000E+00
   1.780000      0.0000000E+00
   1.790000      0.0000000E+00
   1.800000      0.0000000E+00
   1.810000      0.0000000E+00
   1.820000      0.0000000E+00
   1.830000      0.0000000E+00
   1.840000      0.0000000E+00
   1.850000      0.0000000E+00
   1.860000      0.0000000E+00
   1.870000      0.0000000E+00
   1.880000      0.0000000E+00
   1.890000      0.0000000E+00
   1.900000      0.0000000E+00
   1.910000      0.0000000E+00
   1.920000      0.0000000E+00
   1.930000      0.0000000E+00
   1.940000      0.0000000E+00
   1.950000      0.0000000E+00
   1.960000      0.0000000E+00
   1.970000      0.0000000E+00
   1.980000      0.0000000E+00
   1.990000      0.0000000E+00
   2.000000      0.0000000E+00
   2.010000      0.0000000E+00
   2.020000      0.0000000E+00
   2.030000      0.0000000E+00
   2.040000      0.0000000E+00
   2.050000      0.0000000E+00
   2.060000      0.0000000E+00
   2.070000      0.0000000E+00
   2.080000      0.0000000E+00
   2.090000      0.0000000E+00
   2.100000      0.0000000E+00
   2.110000      0.0000000E+00
   2.120000      0.0000000E+00
   2.130000      0.0000000E+00
   2.140000      0.0000000E+00
   2.150000      0.0000000E+00
   2.160000      0.0000000E+00
   2.170000      0.0000000E+00
   2.180000      0.0000000E+00
   2.190000      0.0000000E+00
   2.200000      0.0000000E+00
   2.210000      0.0000000E+00
   2.220000      0.0000000E+00
   2.230000      0.0000000E+00
   2.240000      0.0000000E+00
   2.250000      0.0000000E+00
   2.260000      0.0000000E+00
   2.270000      0.0000000E+00
   2.280000      0.0000000E+00
   2.290000      0.0000000E+00
   2.300000      0.0000000E+00
   2.310000      0.0000000E+00
   2.320000      0.0000000E+00
   2.330000      0.0000000E+00
   2.340000      0.0000000E+00
   2.350000      0.0000000E+00
   2.360000      0.0000000E+00
   2.370000      0.0000000E+00
   2.380000      0.0000000E+00
   2.390000      0.0000000E+00
   2.400000      0.0000000E+00
   2.410000      0.0000000E+00
   2.420000      0.0000000E+00
   2.430000      0.0000000E+00
   2.440000      0.0000000E+00
   2.450000      0.0000000E+00
   2.460000      0.0000000E+00
   2.470000      0.0000000E+00
   2.480000      0.0000000E+00
   2.490000      0.0000000E+00
   2.500000      0.0000000E+00
   2.510000      0.0000000E+00
   2.520000      0.0000000E+00
   2.530000      0.0000000E+00
   2.540000      0.0000000E+00
   2.550000      0.0000000E+00
   2.560000      0.0000000E+00
   2.570000      0.0000000E+00
   2.580000      0.0000000E+00
   2.590000      0.0000000E+00
   2.600000      0.0000000E+00
   2.610000      0.0000000E+00
   2.620000      0.0000000E+00
   2.630000      0.0000000E+00
   2.640000      0.0000000E+00
   2.650000      0.0000000E+00
   2.660000      0.0000000E+00
   2.670000      0.0000000E+00
   2.680000      0.0000000E+00
   2.690000      0.0000000E+00
   2.700000      0.0000000E+00
   2.710000      0.0000000E+00
   2.720000      0.0000000E+00
   2.730000      0.0000000E+00
   2.740000      0.0000000E+00
   2.750000      0.0000000E+00
   2.760000      0.0000000E+00
   2.770000      0.0000000E+00
   2.780000      0.0000000E+00
   2.790000      0.0000000E+00
   2.800000      0.0000000E+00
   2.810000      0.0000000E+00
   2.820000      0.0000000E+00
   2.830000      0.0000000E+00
   2.840000      0.0000000E+00
   2.850000      0.0000000E+00
   2.860000      0.0000000E+00
   2.870000      0.0000000E+00
   2.880000      0.0000000E+00
   2.890000      0.0000000E+00
   2.900000      0.0000000E+00
   2.910000      0.0000000E+00
   2.920000      0.0000000E+00
   2.930000      0.0000000E+00
   2.940000      0.0000000E+00
   2.950000      0.0000000E+00
   2.960000      0.0000000E+00
   2.970000      0.0000000E+00
   2.980000      0.0000000E+00
   2.990000      0.0000000E+00
   3.000000      0.0000000E+00
   3.010000      0.0000000E+00
   3.020000      0.0000000E+00
   3.030000      0.0000000E+00
   3.040000      0.0000000E+00
   3.050000      0.0000000E+00
   3.060000      0.0000000E+00
   3.070000      0.0000000E+00
   3.080000      0.0000000E+00
   3.090000      0.0000000E+00
   3.100000      0.0000000E+00
   3.110000      0.0000000E+00
   3.120000      0.0000000E+00
   3.130000      0.0000000E+00
   3.140000      0.0000000E+00
   3.150000      0.0000000E+00
   3.160000      0.0000000E+00
   3.170000      0.0000000E+00
   3.180000      0.0000000E+00
   3.190000      0.0000000E+00
   3.200000      0.0000000E+00
   3.210000      0.0000000E+00
   3.220000      0.0000000E+00
   3.230000      0.0000000E+00
   3.240000      0.0000000E+00
   3.250000      0.0000000E+00
   3.260000      0.0000000E+00
   3.270000     -1.2108823E-38
   3.280000     -1.4889673E-38
   3.290000     -1.7542068E-38
   3.300000     -1.7436730E-38
   3.310000     -1.3045483E-38
   3.320000      0.0000000E+00
   3.330000      0.0000000E+00
   3.340000      0.0000000E+00
   3.350000      0.0000000E+00
   3.360000      0.0000000E+00
   3.370000      0.0000000E+00
   3.380000      0.0000000E+00
   3.390000      0.0000000E+00
   3.400000      0.0000000E+00
   3.410000      0.0000000E+00
   3.420000      0.0000000E+00
   3.430000      0.0000000E+00
   3.440000      0.0000000E+00
   3.450000      0.0000000E+00
   3.460000      0.0000000E+00
   3.470000      1.4583593E-38
   3.480000      1.8828107E-38
   3.490000      2.2931793E-38
   3.500000      2.4913943E-38
   3.510000      2.1498432E-38
   3.520000      1.2870273E-38
   3.530000      0.0000000E+00
   3.540000      0.0000000E+00
   3.550000     -2.1120485E-38
   3.560000     -3.1318505E-38
   3.570000     -4.0139606E-38
   3.580000     -4.7738074E-38
   3.590000     -5.3856743E-38
   3.600000     -5.9076322E-38
   3.610000     -6.5709362E-38
   3.620000     -7.4474961E-38
   3.630000     -8.3571731E-38
   3.640000     -9.2663226E-38
   3.650000     -1.0283812E-37
   3.660000     -1.0947235E-37
   3.670000     -1.1394642E-37
   3.680000     -1.2127585E-37
   3.690000     -1.3047961E-37
   3.700000     -1.4404284E-37
   3.710000     -1.6231977E-37
   3.720000     -1.8468373E-37
   3.730000     -2.1292885E-37
   3.740000     -2.3385499E-37
   3.750000     -2.4185506E-37
   3.760000     -2.4656633E-37
   3.770000     -2.5187093E-37
   3.780000     -2.5881160E-37
   3.790000     -2.3770076E-37
   3.800000     -2.3374992E-37
   3.810000     -2.9589238E-37
   3.820000     -3.8515538E-37
   3.830000     -4.8169866E-37
   3.840000     -6.0033895E-37
   3.850000     -7.0031166E-37
   3.860000     -7.5274875E-37
   3.870000     -7.6646434E-37
   3.880000     -7.4309261E-37
   3.890000     -7.0044637E-37
   3.900000     -6.4507808E-37
   3.910000     -5.7095119E-37
   3.920000     -4.9510328E-37
   3.930000     -4.8570529E-37
   3.940000     -5.8253681E-37
   3.950000     -7.0801329E-37
   3.960000     -8.0856114E-37
   3.970000     -9.5423493E-37
   3.980000     -1.1247959E-36
   3.990000     -1.1764165E-36
   4.000000     -1.1988437E-36
   4.010000     -1.3859448E-36
   4.020000     -1.7042130E-36
   4.030000     -1.7899285E-36
   4.040000     -1.5316746E-36
   4.050000     -1.1564123E-36
   4.060000     -7.3395256E-37
   4.070000     -2.6544550E-37
   4.080000      2.2022652E-37
   4.090000      3.4712977E-37
   4.100000      1.5920125E-37
   4.110000     -2.4163652E-38
   4.120000     -2.5307116E-37
   4.130000     -5.1389059E-37
   4.140000     -7.8189853E-37
   4.150000     -1.0548743E-36
   4.160000     -1.1607712E-36
   4.170000     -1.2044980E-36
   4.180000     -1.2629087E-36
   4.190000     -1.2095132E-36
   4.200000     -1.1030488E-36
   4.210000     -9.4969266E-37
   4.220000     -8.1954293E-37
   4.230000     -7.3673749E-37
   4.240000     -6.7576585E-37
   4.250000     -6.5149742E-37
   4.260000     -5.3270727E-37
   4.270000     -4.6487012E-37
   4.280000     -6.3670693E-37
   4.290000     -8.8269750E-37
   4.300000     -1.1357446E-36
   4.310000     -1.3064589E-36
   4.320000     -1.2968125E-36
   4.330000     -1.1035794E-36
   4.340000     -6.9584881E-37
   4.350000     -2.6946280E-38
   4.360000      9.3780256E-37
   4.370000      2.2248132E-36
   4.380000      3.7404903E-36
   4.390000      5.3061879E-36
   4.400000      6.8119216E-36
   4.410000      8.1600308E-36
   4.420000      9.1717739E-36
   4.430000      9.8672986E-36
   4.440000      1.0330544E-35
   4.450000      1.0329694E-35
   4.460000      1.0021671E-35
   4.470000      1.0066412E-35
   4.480000      1.0571782E-35
   4.490000      1.1375977E-35
   4.500000      1.2301432E-35
   4.510000      1.3107964E-35
   4.520000      1.4190098E-35
   4.530000      1.5529500E-35
   4.540000      1.6787754E-35
   4.550000      1.8091254E-35
   4.560000      1.9649011E-35
   4.570000      2.0719156E-35
   4.580000      2.1169894E-35
   4.590000      2.1302796E-35
   4.600000      2.0019554E-35
   4.610000      1.7755466E-35
   4.620000      1.5625056E-35
   4.630000      1.3419000E-35
   4.640000      1.1992425E-35
   4.650000      1.2385447E-35
   4.660000      1.3748735E-35
   4.670000      1.5574640E-35
   4.680000      1.8123692E-35
   4.690000      2.0765063E-35
   4.700000      2.3059352E-35
   4.710000      2.4795994E-35
   4.720000      2.6031503E-35
   4.730000      2.7100850E-35
   4.740000      2.7433125E-35
   4.750000      2.0235002E-35
   4.760000      3.8819227E-36
   4.770000     -1.5404412E-35
   4.780000     -3.4702086E-35
   4.790000     -4.8877084E-35
   4.800000     -5.5806118E-35
   4.810000     -5.7366546E-35
   4.820000     -5.7066560E-35
   4.830000     -5.6494121E-35
   4.840000     -5.3947953E-35
   4.850000     -4.8877566E-35
   4.860000     -4.3104345E-35
   4.870000     -3.9058202E-35
   4.880000     -3.6146836E-35
   4.890000     -3.3867456E-35
   4.900000     -3.7816308E-35
   4.910000     -4.5736732E-35
   4.920000     -5.2963241E-35
   4.930000     -7.0239610E-35
   4.940000     -9.7253044E-35
   4.950000     -1.2748110E-34
   4.960000     -1.5861331E-34
   4.970000     -1.8391912E-34
   4.980000     -1.9911226E-34
   4.990000     -2.0448787E-34
   5.000000     -2.0390534E-34
   5.010000     -2.0657137E-34
   5.020000     -2.0562936E-34
   5.030000     -1.9479509E-34
   5.040000     -1.8440634E-34
   5.050000     -1.8121170E-34
   5.060000     -1.8283259E-34
   5.070000     -1.8138047E-34
   5.080000     -1.7682436E-34
   5.090000     -1.7613457E-34
   5.100000     -1.7473355E-34
   5.110000     -1.6725137E-34
   5.120000     -1.5983435E-34
   5.130000     -1.4737975E-34
   5.140000     -1.3210074E-34
   5.150000     -1.2660943E-34
   5.160000     -1.2660411E-34
   5.170000     -1.2264510E-34
   5.180000     -1.1529449E-34
   5.190000     -9.3011266E-35
   5.200000     -4.9172048E-35
   5.210000      1.1454203E-35
   5.220000      8.6827747E-35
   5.230000      1.6494953E-34
   5.240000      2.3916881E-34
   5.250000      3.1342360E-34
   5.260000      3.8516073E-34
   5.270000      4.4423892E-34
   5.280000      4.7920051E-34
   5.290000      4.9015185E-34
   5.300000      4.9134208E-34
   5.310000      4.9304747E-34
   5.320000      4.9904635E-34
   5.330000      5.1625026E-34
   5.340000      5.5181672E-34
   5.350000      6.0746412E-34
   5.360000      6.8351020E-34
   5.370000      7.7916376E-34
   5.380000      8.8889615E-34
   5.390000      1.0064516E-33
   5.400000      1.1254297E-33
   5.410000      1.2384700E-33
   5.420000      1.3391762E-33
   5.430000      1.4218561E-33
   5.440000      1.4838614E-33
   5.450000      1.5247943E-33
   5.460000      1.5463604E-33
   5.470000      1.5533122E-33
   5.480000      1.5493168E-33
   5.490000      1.5390230E-33
   5.500000      1.5297751E-33
   5.510000      1.5259629E-33
   5.520000      1.5282598E-33
   5.530000      1.5406659E-33
   5.540000      1.5628399E-33
   5.550000      1.5861393E-33
   5.560000      1.6069706E-33
   5.570000      1.6188128E-33
   5.580000      1.6152371E-33
   5.590000      1.5888703E-33
   5.600000      1.5320903E-33
   5.610000      1.4414814E-33
   5.620000      1.3142313E-33
   5.630000      1.1544128E-33
   5.640000      9.6362435E-34
   5.650000      7.4231642E-34
   5.660000      5.0256622E-34
   5.670000      2.4662464E-34
   5.680000     -2.5661891E-35
   5.690000     -3.0465824E-34
   5.700000     -5.8804968E-34
   5.710000     -8.7118366E-34
   5.720000     -1.1641892E-33
   5.730000     -1.4754211E-33
   5.740000     -1.8015742E-33
   5.750000     -2.1525160E-33
   5.760000     -2.5372873E-33
   5.770000     -2.9593509E-33
   5.780000     -3.4253057E-33
   5.790000     -3.9378322E-33
   5.800000     -4.4959518E-33
   5.810000     -5.0980011E-33
   5.820000     -5.7369319E-33
   5.830000     -6.4054098E-33
   5.840000     -7.0951972E-33
   5.850000     -7.7980385E-33
   5.860000     -8.5066603E-33
   5.870000     -9.2155671E-33
   5.880000     -9.9206331E-33
   5.890000     -1.0620105E-32
   5.900000     -1.1315353E-32
   5.910000     -1.2008115E-32
   5.920000     -1.2701167E-32
   5.930000     -1.3398035E-32
   5.940000     -1.4100712E-32
   5.950000     -1.4809632E-32
   5.960000     -1.5522296E-32
   5.970000     -1.6233430E-32
   5.980000     -1.6934924E-32
   5.990000     -1.7616643E-32
   6.000000     -1.8266514E-32
   6.010000     -1.8870424E-32
   6.020000     -1.9414591E-32
   6.030000     -1.9885529E-32
   6.040000     -2.0271141E-32
   6.050000     -2.0561696E-32
   6.060000     -2.0749494E-32
   6.070000     -2.0829031E-32
   6.080000     -2.0796555E-32
   6.090000     -2.0649527E-32
   6.100000     -2.0385749E-32
   6.110000     -2.0002469E-32
   6.120000     -1.9494598E-32
   6.130000     -1.8856756E-32
   6.140000     -1.8081143E-32
   6.150000     -1.7155505E-32
   6.160000     -1.6066053E-32
   6.170000     -1.4797276E-32
   6.180000     -1.3332250E-32
   6.190000     -1.1653921E-32
   6.200000     -9.7464468E-33
   6.210000     -7.5955045E-33
   6.220000     -5.1890909E-33
   6.230000     -2.5179502E-33
   6.240000      4.2421612E-34
   6.250000      3.6412756E-33
   6.260000      7.1352669E-33
   6.270000      1.0906691E-32
   6.280000      1.4955318E-32
   6.290000      1.9281128E-32
   6.300000      2.3884999E-32
   6.310000      2.8768958E-32
   6.320000      3.3936084E-32
   6.330000      3.9390916E-32
   6.340000      4.5138481E-32
   6.350000      5.1183046E-32
   6.360000      5.7527800E-32
   6.370000      6.4173675E-32
   6.380000      7.1118419E-32
   6.390000      7.8355832E-32
   6.400000      8.5875287E-32
   6.410000      9.3661509E-32
   6.420000      1.0169471E-31
   6.430000      1.0995095E-31
   6.440000      1.1840271E-31
   6.450000      1.2701972E-31
   6.460000      1.3576956E-31
   6.470000      1.4461834E-31
   6.480000      1.5353101E-31
   6.490000      1.6247179E-31
   6.500000      1.7140389E-31
   6.510000      1.8028890E-31
   6.520000      1.8908639E-31
   6.530000      1.9775297E-31
   6.540000      2.0624149E-31
   6.550000      2.1450017E-31
   6.560000      2.2247199E-31
   6.570000      2.3009411E-31
   6.580000      2.3729791E-31
   6.590000      2.4400902E-31
   6.600000      2.5014774E-31
   6.610000      2.5562982E-31
   6.620000      2.6036716E-31
   6.630000      2.6426874E-31
   6.640000      2.6724140E-31
   6.650000      2.6919044E-31
   6.660000      2.7002020E-31
   6.670000      2.6963412E-31
   6.680000      2.6793475E-31
   6.690000      2.6482355E-31
   6.700000      2.6020035E-31
   6.710000      2.5396299E-31
   6.720000      2.4600678E-31
   6.730000      2.3622443E-31
   6.740000      2.2450590E-31
   6.750000      2.1073849E-31
   6.760000      1.9480758E-31
   6.770000      1.7659743E-31
   6.780000      1.5599221E-31
   6.790000      1.3287718E-31
   6.800000      1.0714020E-31
   6.810000      7.8673004E-32
   6.820000      4.7372322E-32
   6.830000      1.3141161E-32
   6.840000     -2.4110428E-32
   6.850000     -6.4464721E-32
   6.860000     -1.0799583E-31
   6.870000     -1.5476939E-31
   6.880000     -2.0484233E-31
   6.890000     -2.5826241E-31
   6.900000     -3.1506796E-31
   6.910000     -3.7528717E-31
   6.920000     -4.3893730E-31
   6.930000     -5.0602366E-31
   6.940000     -5.7653790E-31
   6.950000     -6.5045655E-31
   6.960000     -7.2773948E-31
   6.970000     -8.0832803E-31
   6.980000     -8.9214332E-31
   6.990000     -9.7908410E-31
   7.000000     -1.0690255E-30
   7.010000     -1.1618171E-30
   7.020000     -1.2572825E-30
   7.030000     -1.3552186E-30
   7.040000     -1.4553936E-30
   7.050000     -1.5575475E-30
   7.060000     -1.6613914E-30