  -2.600000      0.0000000E+00
  -2.590000      0.0000000E+00
  -2.580000      0.0000000E+00
  -2.570000      0.0000000E+00
  -2.560000      0.0000000E+00
  -2.550000      0.0000000E+00
  -2.540000      0.0000000E+00
  -2.530000      0.0000000E+00
  -2.520000      0.0000000E+00
  -2.510000      0.0000000E+00
  -2.500000      0.0000000E+00
  -2.490000      0.0000000E+00
  -2.480000      0.0000000E+00
  -2.470000      0.0000000E+00
  -2.460000      0.0000000E+00
  -2.450000      0.0000000E+00
  -2.440000      0.0000000E+00
  -2.430000      0.0000000E+00
  -2.420000      0.0000000E+00
  -2.410000      0.0000000E+00
  -2.400000      0.0000000E+00
  -2.390000      0.0000000E+00
  -2.380000      0.0000000E+00
  -2.370000      0.0000000E+00
  -2.360000      0.0000000E+00
  -2.350000      0.0000000E+00
  -2.340000      0.0000000E+00
  -2.330000      0.0000000E+00
  -2.320000      0.0000000E+00
  -2.310000      0.0000000E+00
  -2.300000      0.0000000E+00
  -2.290000      0.0000000E+00
  -2.280000      0.0000000E+00
  -2.270000      0.0000000E+00
  -2.260000      0.0000000E+00
  -2.250000      0.0000000E+00
  -2.240000      0.0000000E+00
  -2.230000      0.0000000E+00
  -2.220000      0.0000000E+00
  -2.210000      0.0000000E+00
  -2.200000      0.0000000E+00
  -2.190000      0.0000000E+00
  -2.180000      0.0000000E+00
  -2.170000      0.0000000E+00
  -2.160000      0.0000000E+00
  -2.150000      0.0000000E+00
  -2.140000      0.0000000E+00
  -2.130000      0.0000000E+00
  -2.120000      0.0000000E+00
  -2.110000      0.0000000E+00
  -2.100000      0.0000000E+00
  -2.090000      0.0000000E+00
  -2.080000      0.0000000E+00
  -2.070000      0.0000000E+00
  -2.060000      0.0000000E+00
  -2.050000      0.0000000E+00
  -2.040000      0.0000000E+00
  -2.030000      0.0000000E+00
  -2.020000      0.0000000E+00
  -2.010000      0.0000000E+00
  -2.000000      0.0000000E+00
  -1.990000      0.0000000E+00
  -1.980000      0.0000000E+00
  -1.970000      0.0000000E+00
  -1.960000      0.0000000E+00
  -1.950000      0.0000000E+00
  -1.940000      0.0000000E+00
  -1.930000      0.0000000E+00
  -1.920000      0.0000000E+00
  -1.910000      0.0000000E+00
  -1.900000      0.0000000E+00
  -1.890000      0.0000000E+00
  -1.880000      0.0000000E+00
  -1.870000      0.0000000E+00
  -1.860000      0.0000000E+00
  -1.850000      0.0000000E+00
  -1.840000      0.0000000E+00
  -1.830000      0.0000000E+00
  -1.820000      0.0000000E+00
  -1.810000      0.0000000E+00
  -1.800000      0.0000000E+00
  -1.790000      0.0000000E+00
  -1.780000      0.0000000E+00
  -1.770000      0.0000000E+00
  -1.760000      0.0000000E+00
  -1.750000      0.0000000E+00
  -1.740000      0.0000000E+00
  -1.730000      0.0000000E+00
  -1.720000      0.0000000E+00
  -1.710000      0.0000000E+00
  -1.700000      0.0000000E+00
  -1.690000      0.0000000E+00
  -1.680000      0.0000000E+00
  -1.670000      0.0000000E+00
  -1.660000      0.0000000E+00
  -1.650000      0.0000000E+00
  -1.640000      0.0000000E+00
  -1.630000      0.0000000E+00
  -1.620000      0.0000000E+00
  -1.610000      0.0000000E+00
  -1.600000      0.0000000E+00
  -1.590000      0.0000000E+00
  -1.580000      0.0000000E+00
  -1.570000      0.0000000E+00
  -1.560000      0.0000000E+00
  -1.550000      0.0000000E+00
  -1.540000      0.0000000E+00
  -1.530000      0.0000000E+00
  -1.520000      0.0000000E+00
  -1.510000      0.0000000E+00
  -1.500000      0.0000000E+00
  -1.490000      0.0000000E+00
  -1.480000      0.0000000E+00
  -1.470000      0.0000000E+00
  -1.460000      0.0000000E+00
  -1.450000      0.0000000E+00
  -1.440000      0.0000000E+00
  -1.430000      0.0000000E+00
  -1.420000      0.0000000E+00
  -1.410000      0.0000000E+00
  -1.400000      0.0000000E+00
  -1.390000      0.0000000E+00
  -1.380000      0.0000000E+00
  -1.370000      0.0000000E+00
  -1.360000      0.0000000E+00
  -1.350000      0.0000000E+00
  -1.340000      0.0000000E+00
  -1.330000      0.0000000E+00
  -1.320000      0.0000000E+00
  -1.310000      0.0000000E+00
  -1.300000      0.0000000E+00
  -1.290000      0.0000000E+00
  -1.280000      0.0000000E+00
  -1.270000      0.0000000E+00
  -1.260000      0.0000000E+00
  -1.250000      0.0000000E+00
  -1.240000      0.0000000E+00
  -1.230000      0.0000000E+00
  -1.220000      0.0000000E+00
  -1.210000      0.0000000E+00
  -1.200000      0.0000000E+00
  -1.190000      0.0000000E+00
  -1.180000      0.0000000E+00
  -1.170000      0.0000000E+00
  -1.160000      0.0000000E+00
  -1.150000      0.0000000E+00
  -1.140000      0.0000000E+00
  -1.130000      0.0000000E+00
  -1.120000      0.0000000E+00
  -1.110000      0.0000000E+00
  -1.100000      0.0000000E+00
  -1.090000      0.0000000E+00
  -1.080000      0.0000000E+00
  -1.070000      0.0000000E+00
  -1.060000      0.0000000E+00
  -1.050000      0.0000000E+00
  -1.040000      0.0000000E+00
  -1.030000      0.0000000E+00
  -1.020000      0.0000000E+00
  -1.010000      0.0000000E+00
  -1.000000      0.0000000E+00
 -0.9900000      0.0000000E+00
 -0.9800000      0.0000000E+00
 -0.9700000      0.0000000E+00
 -0.9600000      0.0000000E+00
 -0.9500000      0.0000000E+00
 -0.9400000      0.0000000E+00
 -0.9300000      0.0000000E+00
 -0.9200000      0.0000000E+00
 -0.9100000      0.0000000E+00
 -0.9000000      0.0000000E+00
 -0.8900000      0.0000000E+00
 -0.8800000      0.0000000E+00
 -0.8700000      0.0000000E+00
 -0.8600000      0.0000000E+00
 -0.8500000      0.0000000E+00
 -0.8400000      0.0000000E+00
 -0.8300000      0.0000000E+00
 -0.8200000      0.0000000E+00
 -0.8100000      0.0000000E+00
 -0.8000000      0.0000000E+00
 -0.7900000      0.0000000E+00
 -0.7800000      0.0000000E+00
 -0.7700000      0.0000000E+00
 -0.7600000      0.0000000E+00
 -0.7500000      0.0000000E+00
 -0.7400000      0.0000000E+00
 -0.7300000      0.0000000E+00
 -0.7200000      0.0000000E+00
 -0.7100000      0.0000000E+00
 -0.7000000      0.0000000E+00
 -0.6900000      0.0000000E+00
 -0.6800000      0.0000000E+00
 -0.6700000      0.0000000E+00
 -0.6600000      0.0000000E+00
 -0.6500000      0.0000000E+00
 -0.6400000      0.0000000E+00
 -0.6300000      0.0000000E+00
 -0.6200000      0.0000000E+00
 -0.6100000      0.0000000E+00
 -0.6000000      0.0000000E+00
 -0.5900000      0.0000000E+00
 -0.5800000      0.0000000E+00
 -0.5700000      0.0000000E+00
 -0.5600000      0.0000000E+00
 -0.5500000      0.0000000E+00
 -0.5400000      0.0000000E+00
 -0.5300000      0.0000000E+00
 -0.5200000      0.0000000E+00
 -0.5100000      0.0000000E+00
 -0.5000000      0.0000000E+00
 -0.4900000      0.0000000E+00
 -0.4800000      0.0000000E+00
 -0.4700000      0.0000000E+00
 -0.4600000      0.0000000E+00
 -0.4500000      0.0000000E+00
 -0.4400000      0.0000000E+00
 -0.4300000      0.0000000E+00
 -0.4200000      0.0000000E+00
 -0.4100000      0.0000000E+00
 -0.4000000      0.0000000E+00
 -0.3900000      0.0000000E+00
 -0.3800000      0.0000000E+00
 -0.3700000      0.0000000E+00
 -0.3600000      0.0000000E+00
 -0.3500000      0.0000000E+00
 -0.3400000      0.0000000E+00
 -0.3300000      0.0000000E+00
 -0.3200000      0.0000000E+00
 -0.3100000      0.0000000E+00
 -0.3000000      0.0000000E+00
 -0.2900000      0.0000000E+00
 -0.2800000      0.0000000E+00
 -0.2700000      0.0000000E+00
 -0.2600000      0.0000000E+00
 -0.2500000      0.0000000E+00
 -0.2400000      0.0000000E+00
 -0.2300000      0.0000000E+00
 -0.2200000      0.0000000E+00
 -0.2100000      0.0000000E+00
 -0.2000000      0.0000000E+00
 -0.1900000      0.0000000E+00
 -0.1800000      0.0000000E+00
 -0.1700000      0.0000000E+00
 -0.1600000      0.0000000E+00
 -0.1500000      0.0000000E+00
 -0.1400000      0.0000000E+00
 -0.1300000      0.0000000E+00
 -0.1200000      0.0000000E+00
 -0.1100000      0.0000000E+00
 -0.1000000      0.0000000E+00
 -9.0000004E-02  0.0000000E+00
 -7.9999998E-02  0.0000000E+00
 -7.0000000E-02  0.0000000E+00
 -5.9999999E-02  0.0000000E+00
 -5.0000001E-02  0.0000000E+00
 -3.9999999E-02  0.0000000E+00
 -2.9999999E-02  0.0000000E+00
 -2.0000000E-02  0.0000000E+00
 -9.9999998E-03  0.0000000E+00
 -3.4694470E-17  0.0000000E+00
  9.9999998E-03  0.0000000E+00
  2.0000000E-02  0.0000000E+00
  2.9999999E-02  0.0000000E+00
  3.9999999E-02  0.0000000E+00
  5.0000001E-02  0.0000000E+00
  5.9999999E-02  0.0000000E+00
  7.0000000E-02  0.0000000E+00
  7.9999998E-02  0.0000000E+00
  9.0000004E-02  0.0000000E+00
  0.1000000      0.0000000E+00
  0.1100000      0.0000000E+00
  0.1200000      0.0000000E+00
  0.1300000      0.0000000E+00
  0.1400000      0.0000000E+00
  0.1500000      0.0000000E+00
  0.1600000      0.0000000E+00
  0.1700000      0.0000000E+00
  0.1800000      0.0000000E+00
  0.1900000      0.0000000E+00
  0.2000000      0.0000000E+00
  0.2100000      0.0000000E+00
  0.2200000      0.0000000E+00
  0.2300000      0.0000000E+00
  0.2400000      0.0000000E+00
  0.2500000      0.0000000E+00
  0.2600000      0.0000000E+00
  0.2700000      0.0000000E+00
  0.2800000      0.0000000E+00
  0.2900000      0.0000000E+00
  0.3000000      0.0000000E+00
  0.3100000      0.0000000E+00
  0.3200000      0.0000000E+00
  0.3300000      0.0000000E+00
  0.3400000      0.0000000E+00
  0.3500000      0.0000000E+00
  0.3600000      0.0000000E+00
  0.3700000      0.0000000E+00
  0.3800000      0.0000000E+00
  0.3900000      0.0000000E+00
  0.4000000      0.0000000E+00
  0.4100000      0.0000000E+00
  0.4200000      0.0000000E+00
  0.4300000      0.0000000E+00
  0.4400000      0.0000000E+00
  0.4500000      0.0000000E+00
  0.4600000      0.0000000E+00
  0.4700000      0.0000000E+00
  0.4800000      0.0000000E+00
  0.4900000      0.0000000E+00
  0.5000000      0.0000000E+00
  0.5100000      0.0000000E+00
  0.5200000      0.0000000E+00
  0.5300000      0.0000000E+00
  0.5400000      0.0000000E+00
  0.5500000      0.0000000E+00
  0.5600000      0.0000000E+00
  0.5700000      0.0000000E+00
  0.5800000      0.0000000E+00
  0.5900000      0.0000000E+00
  0.6000000      0.0000000E+00
  0.6100000      0.0000000E+00
  0.6200000      0.0000000E+00
  0.6300000      0.0000000E+00
  0.6400000      0.0000000E+00
  0.6500000      0.0000000E+00
  0.6600000      0.0000000E+00
  0.6700000      0.0000000E+00
  0.6800000      0.0000000E+00
  0.6900000      0.0000000E+00
  0.7000000      0.0000000E+00
  0.7100000      0.0000000E+00
  0.7200000      0.0000000E+00
  0.7300000      0.0000000E+00
  0.7400000      0.0000000E+00
  0.7500000      0.0000000E+00
  0.7600000      0.0000000E+00
  0.7700000      0.0000000E+00
  0.7800000      0.0000000E+00
  0.7900000      0.0000000E+00
  0.8000000      0.0000000E+00
  0.8100000      0.0000000E+00
  0.8200000      0.0000000E+00
  0.8300000      0.0000000E+00
  0.8400000      0.0000000E+00
  0.8500000      0.0000000E+00
  0.8600000      0.0000000E+00
  0.8700000      0.0000000E+00
  0.8800000      0.0000000E+00
  0.8900000      0.0000000E+00
  0.9000000      0.0000000E+00
  0.9100000      0.0000000E+00
  0.9200000      0.0000000E+00
  0.9300000      0.0000000E+00
  0.9400000      0.0000000E+00
  0.9500000      0.0000000E+00
  0.9600000      0.0000000E+00
  0.9700000      0.0000000E+00
  0.9800000      0.0000000E+00
  0.9900000      0.0000000E+00
   1.000000      0.0000000E+00
   1.010000      0.0000000E+00
   1.020000      0.0000000E+00
   1.030000      0.0000000E+00
   1.040000      0.0000000E+00
   1.050000      0.0000000E+00
   1.060000      0.0000000E+00
   1.070000      0.0000000E+00
   1.080000      0.0000000E+00
   1.090000      0.0000000E+00
   1.100000      0.0000000E+00
   1.110000      0.0000000E+00
   1.120000      0.0000000E+00
   1.130000      0.0000000E+00
   1.140000      0.0000000E+00
   1.150000      0.0000000E+00
   1.160000      0.0000000E+00
   1.170000      0.0000000E+00
   1.180000      0.0000000E+00
   1.190000      0.0000000E+00
   1.200000      0.0000000E+00
   1.210000      0.0000000E+00
   1.220000      0.0000000E+00
   1.230000      0.0000000E+00
   1.240000      0.0000000E+00
   1.250000      0.0000000E+00
   1.260000      0.0000000E+00
   1.270000      0.0000000E+00
   1.280000      0.0000000E+00
   1.290000      0.0000000E+00
   1.300000      0.0000000E+00
   1.310000      0.0000000E+00
   1.320000      0.0000000E+00
   1.330000      0.0000000E+00
   1.340000      0.0000000E+00
   1.350000      0.0000000E+00
   1.360000      0.0000000E+00
   1.370000      0.0000000E+00
   1.380000      0.0000000E+00
   1.390000      0.0000000E+00
   1.400000      0.0000000E+00
   1.410000      0.0000000E+00
   1.420000      0.0000000E+00
   1.430000      0.0000000E+00
   1.440000      0.0000000E+00
   1.450000      0.0000000E+00
   1.460000      0.0000000E+00
   1.470000      0.0000000E+00
   1.480000      0.0000000E+00
   1.490000      0.0000000E+00
   1.500000      0.0000000E+00
   1.510000      0.0000000E+00
   1.520000      0.0000000E+00
   1.530000      0.0000000E+00
   1.540000      0.0000000E+00
   1.550000      0.0000000E+00
   1.560000      0.0000000E+00
   1.570000      0.0000000E+00
   1.580000      0.0000000E+00
   1.590000      0.0000000E+00
   1.600000      0.0000000E+00
   1.610000      0.0000000E+00
   1.620000      0.0000000E+00
   1.630000      0.0000000E+00
   1.640000      0.0000000E+00
   1.650000      0.0000000E+00
   1.660000      0.0000000E+00
   1.670000      0.0000000E+00
   1.680000      0.0000000E+00
   1.690000      0.0000000E+00
   1.700000      0.0000000E+00
   1.710000      0.0000000E+00
   1.720000      0.0000000E+00
   1.730000      0.0000000E+00
   1.740000      0.0000000E+00
   1.750000      0.0000000E+00
   1.760000      0.0000000E+00
   1.770000      0.0000000E+00
   1.780000      0.0000000E+00
   1.790000      0.0000000E+00
   1.800000      0.0000000E+00
   1.810000      0.0000000E+00
   1.820000      0.0000000E+00
   1.830000      0.0000000E+00
   1.840000      0.0000000E+00
   1.850000      0.0000000E+00
   1.860000      0.0000000E+00
   1.870000      0.0000000E+00
   1.880000      0.0000000E+00
   1.890000      0.0000000E+00
   1.900000      0.0000000E+00
   1.910000      0.0000000E+00
   1.920000      0.0000000E+00
   1.930000      0.0000000E+00
   1.940000      0.0000000E+00
   1.950000      0.0000000E+00
   1.960000      0.0000000E+00
   1.970000      0.0000000E+00
   1.980000      0.0000000E+00
   1.990000      0.0000000E+00
   2.000000      0.0000000E+00
   2.010000      0.0000000E+00
   2.020000      0.0000000E+00
   2.030000      0.0000000E+00
   2.040000      0.0000000E+00
   2.050000      0.0000000E+00
   2.060000      0.0000000E+00
   2.070000      0.0000000E+00
   2.080000      0.0000000E+00
   2.090000      0.0000000E+00
   2.100000      0.0000000E+00
   2.110000      0.0000000E+00
   2.120000      0.0000000E+00
   2.130000      0.0000000E+00
   2.140000      0.0000000E+00
   2.150000      0.0000000E+00
   2.160000      0.0000000E+00
   2.170000      0.0000000E+00
   2.180000      0.0000000E+00
   2.190000      0.0000000E+00
   2.200000      0.0000000E+00
   2.210000      0.0000000E+00
   2.220000      0.0000000E+00
   2.230000      0.0000000E+00
   2.240000      0.0000000E+00
   2.250000      0.0000000E+00
   2.260000      0.0000000E+00
   2.270000      0.0000000E+00
   2.280000      0.0000000E+00
   2.290000      0.0000000E+00
   2.300000      0.0000000E+00
   2.310000      0.0000000E+00
   2.320000      0.0000000E+00
   2.330000      0.0000000E+00
   2.340000      0.0000000E+00
   2.350000      0.0000000E+00
   2.360000      0.0000000E+00
   2.370000      0.0000000E+00
   2.380000      0.0000000E+00
   2.390000      0.0000000E+00
   2.400000      0.0000000E+00
   2.410000      0.0000000E+00
   2.420000      0.0000000E+00
   2.430000      0.0000000E+00
   2.440000      0.0000000E+00
   2.450000      0.0000000E+00
   2.460000      0.0000000E+00
   2.470000      0.0000000E+00
   2.480000      0.0000000E+00
   2.490000      0.0000000E+00
   2.500000      0.0000000E+00
   2.510000      0.0000000E+00
   2.520000      0.0000000E+00
   2.530000      0.0000000E+00
   2.540000      0.0000000E+00
   2.550000      0.0000000E+00
   2.560000      0.0000000E+00
   2.570000      0.0000000E+00
   2.580000      0.0000000E+00
   2.590000      0.0000000E+00
   2.600000      0.0000000E+00
   2.610000      0.0000000E+00
   2.620000      0.0000000E+00
   2.630000      0.0000000E+00
   2.640000      0.0000000E+00
   2.650000      0.0000000E+00
   2.660000      0.0000000E+00
   2.670000      0.0000000E+00
   2.680000      0.0000000E+00
   2.690000      0.0000000E+00
   2.700000      0.0000000E+00
   2.710000      0.0000000E+00
   2.720000      0.0000000E+00
   2.730000      0.0000000E+00
   2.740000      0.0000000E+00
   2.750000      0.0000000E+00
   2.760000      0.0000000E+00
   2.770000      0.0000000E+00
   2.780000      0.0000000E+00
   2.790000      0.0000000E+00
   2.800000      0.0000000E+00
   2.810000      0.0000000E+00
   2.820000      0.0000000E+00
   2.830000      0.0000000E+00
   2.840000      0.0000000E+00
   2.850000      0.0000000E+00
   2.860000      0.0000000E+00
   2.870000      0.0000000E+00
   2.880000      0.0000000E+00
   2.890000      0.0000000E+00
   2.900000      0.0000000E+00
   2.910000      0.0000000E+00
   2.920000      0.0000000E+00
   2.930000      0.0000000E+00
   2.940000      0.0000000E+00
   2.950000      0.0000000E+00
   2.960000      0.0000000E+00
   2.970000      0.0000000E+00
   2.980000      0.0000000E+00
   2.990000      0.0000000E+00
   3.000000      0.0000000E+00
   3.010000      0.0000000E+00
   3.020000      0.0000000E+00
   3.030000      0.0000000E+00
   3.040000      0.0000000E+00
   3.050000      0.0000000E+00
   3.060000      0.0000000E+00
   3.070000      0.0000000E+00
   3.080000      0.0000000E+00
   3.090000      0.0000000E+00
   3.100000      0.0000000E+00
   3.110000      0.0000000E+00
   3.120000      0.0000000E+00
   3.130000      0.0000000E+00
   3.140000      0.0000000E+00
   3.150000      0.0000000E+00
   3.160000      0.0000000E+00
   3.170000      0.0000000E+00
   3.180000      0.0000000E+00
   3.190000      0.0000000E+00
   3.200000      0.0000000E+00
   3.210000      0.0000000E+00
   3.220000      0.0000000E+00
   3.230000      0.0000000E+00
   3.240000      0.0000000E+00
   3.250000      0.0000000E+00
   3.260000      0.0000000E+00
   3.270000      1.3453934E-38
   3.280000      1.5267759E-38
   3.290000      1.5477747E-38
   3.300000      1.5021777E-38
   3.310000      1.4218999E-38
   3.320000      1.3072872E-38
   3.330000      0.0000000E+00
   3.340000      0.0000000E+00
   3.350000      0.0000000E+00
   3.360000      0.0000000E+00
   3.370000      0.0000000E+00
   3.380000      0.0000000E+00
   3.390000      0.0000000E+00
   3.400000      0.0000000E+00
   3.410000      0.0000000E+00
   3.420000      0.0000000E+00
   3.430000     -1.5015226E-38
   3.440000     -2.0520183E-38
   3.450000     -2.5376761E-38
   3.460000     -2.9208004E-38
   3.470000     -3.2211922E-38
   3.480000     -3.5015349E-38
   3.490000     -3.8564874E-38
   3.500000     -4.1769344E-38
   3.510000     -4.3713060E-38
   3.520000     -4.4643435E-38
   3.530000     -4.5088936E-38
   3.540000     -4.5172515E-38
   3.550000     -4.4938594E-38
   3.560000     -4.4819010E-38
   3.570000     -4.5018613E-38
   3.580000     -4.5550255E-38
   3.590000     -4.5565364E-38
   3.600000     -4.5856514E-38
   3.610000     -4.5466849E-38
   3.620000     -4.3751761E-38
   3.630000     -4.0594877E-38
   3.640000     -3.5834002E-38
   3.650000     -3.1318519E-38
   3.660000     -2.7748806E-38
   3.670000     -2.6176297E-38
   3.680000     -2.5515518E-38
   3.690000     -2.3745681E-38
   3.700000     -2.0383328E-38
   3.710000     -1.6211335E-38
   3.720000      0.0000000E+00
   3.730000      0.0000000E+00
   3.740000      1.2758691E-38
   3.750000      2.7052616E-38
   3.760000      4.4491019E-38
   3.770000      6.4900214E-38
   3.780000      9.2829729E-38
   3.790000      1.2775303E-37
   3.800000      1.6593803E-37
   3.810000      2.0605363E-37
   3.820000      2.4219135E-37
   3.830000      2.7413335E-37
   3.840000      3.0761553E-37
   3.850000      3.4157000E-37
   3.860000      3.7497662E-37
   3.870000      4.1357187E-37
   3.880000      4.5721060E-37
   3.890000      5.0109819E-37
   3.900000      5.3856806E-37
   3.910000      5.7318515E-37
   3.920000      6.0873136E-37
   3.930000      6.4243916E-37
   3.940000      6.7986800E-37
   3.950000      7.1677955E-37
   3.960000      7.4578692E-37
   3.970000      7.6568338E-37
   3.980000      7.7980623E-37
   3.990000      7.9056461E-37
   4.000000      7.9555350E-37
   4.010000      7.6497471E-37
   4.020000      6.8145534E-37
   4.030000      4.9447841E-37
   4.040000      2.0807211E-37
   4.050000     -1.0825773E-37
   4.060000     -4.5734198E-37
   4.070000     -8.3786178E-37
   4.080000     -1.2619089E-36
   4.090000     -1.7176296E-36
   4.100000     -2.1625290E-36
   4.110000     -2.4631200E-36
   4.120000     -2.6025326E-36
   4.130000     -2.6924544E-36
   4.140000     -2.7351360E-36
   4.150000     -2.7741003E-36
   4.160000     -2.7991992E-36
   4.170000     -2.7443045E-36
   4.180000     -2.6206091E-36
   4.190000     -2.4874207E-36
   4.200000     -2.3379631E-36
   4.210000     -2.0977860E-36
   4.220000     -1.7032093E-36
   4.230000     -1.1996206E-36
   4.240000     -7.1973326E-37
   4.250000     -2.3023177E-37
   4.260000      2.6487891E-37
   4.270000      7.1086889E-37
   4.280000      9.6868350E-37
   4.290000      1.0950387E-36
   4.300000      1.2610988E-36
   4.310000      1.3970975E-36
   4.320000      1.4891932E-36
   4.330000      1.5455744E-36
   4.340000      1.5600087E-36
   4.350000      1.5489359E-36
   4.360000      1.5272030E-36
   4.370000      1.5728576E-36
   4.380000      1.7536422E-36
   4.390000      2.0754747E-36
   4.400000      2.5241738E-36
   4.410000      3.0874699E-36
   4.420000      3.8351411E-36
   4.430000      4.7466920E-36
   4.440000      5.7111946E-36
   4.450000      6.7327601E-36
   4.460000      7.8256571E-36
   4.470000      8.9667174E-36
   4.480000      1.0086805E-35
   4.490000      1.1138108E-35
   4.500000      1.2136949E-35
   4.510000      1.3026730E-35
   4.520000      1.3796019E-35
   4.530000      1.4563860E-35
   4.540000      1.5337422E-35
   4.550000      1.5858202E-35
   4.560000      1.6079727E-35
   4.570000      1.6216722E-35
   4.580000      1.6307271E-35
   4.590000      1.6268780E-35
   4.600000      1.6234026E-35
   4.610000      1.6324112E-35
   4.620000      1.5730687E-35
   4.630000      1.4297523E-35
   4.640000      1.2509724E-35
   4.650000      1.0300840E-35
   4.660000      7.8492193E-36
   4.670000      5.0270460E-36
   4.680000      1.7988710E-36
   4.690000     -1.6713876E-36
   4.700000     -5.4040472E-36
   4.710000     -9.0065202E-36
   4.720000     -1.2126074E-35
   4.730000     -1.5081389E-35
   4.740000     -1.8318468E-35
   4.750000     -2.1692183E-35
   4.760000     -2.4958116E-35
   4.770000     -2.8160784E-35
   4.780000     -3.1532955E-35
   4.790000     -3.5333242E-35
   4.800000     -3.9450956E-35
   4.810000     -4.3234740E-35
   4.820000     -4.6649014E-35
   4.830000     -5.0358855E-35
   4.840000     -5.4622066E-35
   4.850000     -5.9603527E-35
   4.860000     -6.5222126E-35
   4.870000     -7.0588866E-35
   4.880000     -7.5548356E-35
   4.890000     -8.0766346E-35
   4.900000     -8.6122054E-35
   4.910000     -9.0610985E-35
   4.920000     -9.5714111E-35
   4.930000     -1.0371986E-34
   4.940000     -1.1148059E-34
   4.950000     -1.1840582E-34
   4.960000     -1.2995907E-34
   4.970000     -1.4569621E-34
   4.980000     -1.6007810E-34
   4.990000     -1.7168026E-34
   5.000000     -1.7953565E-34
   5.010000     -1.8415623E-34
   5.020000     -1.8740483E-34
   5.030000     -1.8858452E-34
   5.040000     -1.8487268E-34
   5.050000     -1.7517654E-34
   5.060000     -1.6125721E-34
   5.070000     -1.4524895E-34
   5.080000     -1.2718622E-34
   5.090000     -1.0554992E-34
   5.100000     -8.1135915E-35
   5.110000     -5.2920027E-35
   5.120000     -2.3084422E-35
   5.130000      4.6979937E-36
   5.140000      2.9959307E-35
   5.150000      5.3213849E-35
   5.160000      7.6399746E-35
   5.170000      1.0204347E-34
   5.180000      1.2900512E-34
   5.190000      1.5498899E-34
   5.200000      1.8301429E-34
   5.210000      2.1091998E-34
   5.220000      2.3702886E-34
   5.230000      2.6652516E-34
   5.240000      2.9769280E-34
   5.250000      3.2904819E-34
   5.260000      3.6402112E-34
   5.270000      4.0388976E-34
   5.280000      4.4705827E-34
   5.290000      4.9348089E-34
   5.300000      5.4315535E-34
   5.310000      5.9350370E-34
   5.320000      6.4545022E-34
   5.330000      7.0046873E-34
   5.340000      7.5987628E-34
   5.350000      8.2680388E-34
   5.360000      8.9696418E-34
   5.370000      9.6513541E-34
   5.380000      1.0316920E-33
   5.390000      1.0978088E-33
   5.400000      1.1640553E-33
   5.410000      1.2287093E-33
   5.420000      1.2887963E-33
   5.430000      1.3422784E-33
   5.440000      1.3891396E-33
   5.450000      1.4287042E-33
   5.460000      1.4604192E-33
   5.470000      1.4835293E-33
   5.480000      1.4966691E-33
   5.490000      1.4990735E-33
   5.500000      1.4905628E-33
   5.510000      1.4708113E-33
   5.520000      1.4394972E-33
   5.530000      1.3970457E-33
   5.540000      1.3433893E-33
   5.550000      1.2752626E-33
   5.560000      1.1925318E-33
   5.570000      1.0953197E-33
   5.580000      9.8388060E-34
   5.590000      8.5950292E-34
   5.600000      7.1980249E-34
   5.610000      5.6525951E-34
   5.620000      3.9575593E-34
   5.630000      2.1209146E-34
   5.640000      1.0392649E-35
   5.650000     -2.1050213E-34
   5.660000     -4.4769584E-34
   5.670000     -7.0379887E-34
   5.680000     -9.7984112E-34
   5.690000     -1.2762059E-33
   5.700000     -1.5934667E-33
   5.710000     -1.9325423E-33
   5.720000     -2.2936260E-33
   5.730000     -2.6779255E-33
   5.740000     -3.0864584E-33
   5.750000     -3.5189419E-33
   5.760000     -3.9750781E-33
   5.770000     -4.4542467E-33
   5.780000     -4.9559099E-33
   5.790000     -5.4789876E-33
   5.800000     -6.0219992E-33
   5.810000     -6.5833179E-33
   5.820000     -7.1606796E-33
   5.830000     -7.7515521E-33
   5.840000     -8.3530886E-33
   5.850000     -8.9622099E-33
   5.860000     -9.5755593E-33
   5.870000     -1.0189457E-32
   5.880000     -1.0799913E-32
   5.890000     -1.1402719E-32
   5.900000     -1.1993553E-32
   5.910000     -1.2567406E-32
   5.920000     -1.3119806E-32
   5.930000     -1.3646223E-32
   5.940000     -1.4141037E-32
   5.950000     -1.4598799E-32
   5.960000     -1.5014082E-32
   5.970000     -1.5381163E-32
   5.980000     -1.5693956E-32
   5.990000     -1.5946562E-32
   6.000000     -1.6132778E-32
   6.010000     -1.6245808E-32
   6.020000     -1.6279033E-32
   6.030000     -1.6225713E-32
   6.040000     -1.6078910E-32
   6.050000     -1.5831270E-32
   6.060000     -1.5475805E-32
   6.070000     -1.5005272E-32
   6.080000     -1.4411058E-32
   6.090000     -1.3685024E-32
   6.100000     -1.2819336E-32
   6.110000     -1.1805693E-32
   6.120000     -1.0635692E-32
   6.130000     -9.3008955E-33
   6.140000     -7.7928810E-33
   6.150000     -6.1033103E-33
   6.160000     -4.2242697E-33
   6.170000     -2.1476352E-33
   6.180000      1.3437674E-34
   6.190000      2.6286238E-33
   6.200000      5.3416410E-33
   6.210000      8.2793395E-33
   6.220000      1.1446894E-32
   6.230000      1.4848640E-32
   6.240000      1.8488058E-32
   6.250000      2.2367517E-32
   6.260000      2.6488237E-32
   6.270000      3.0850438E-32
   6.280000      3.5452998E-32
   6.290000      4.0293325E-32
   6.300000      4.5367405E-32
   6.310000      5.0669660E-32
   6.320000      5.6192856E-32
   6.330000      6.1927993E-32
   6.340000      6.7864181E-32
   6.350000      7.3988718E-32
   6.360000      8.0286887E-32
   6.370000      8.6741774E-32
   6.380000      9.3334310E-32
   6.390000      1.0004323E-31
   6.400000      1.0684498E-31
   6.410000      1.1371366E-31
   6.420000      1.2062081E-31
   6.430000      1.2753564E-31
   6.440000      1.3442473E-31
   6.450000      1.4125195E-31
   6.460000      1.4797854E-31
   6.470000      1.5456294E-31
   6.480000      1.6095985E-31
   6.490000      1.6712297E-31
   6.500000      1.7300310E-31
   6.510000      1.7854607E-31
   6.520000      1.8369576E-31
   6.530000      1.8839299E-31
   6.540000      1.9257546E-31
   6.550000      1.9617817E-31
   6.560000      1.9913323E-31
   6.570000      2.0136968E-31
   6.580000      2.0281392E-31
   6.590000      2.0338979E-31
   6.600000      2.0301869E-31
   6.610000      2.0161971E-31
   6.620000      1.9910989E-31
   6.630000      1.9540440E-31
   6.640000      1.9041684E-31
   6.650000      1.8405947E-31
   6.660000      1.7624355E-31
   6.670000      1.6687966E-31
   6.680000      1.5587802E-31
   6.690000      1.4314896E-31
   6.700000      1.2860342E-31
   6.710000      1.1215321E-31
   6.720000      9.3711662E-32
   6.730000      7.3194131E-32
   6.740000      5.0518562E-32
   6.750000      2.5606070E-32
   6.760000     -1.6185145E-33
   6.770000     -3.1225858E-32
   6.780000     -6.3281486E-32
   6.790000     -9.7845076E-32
   6.800000     -1.3496979E-31
   6.810000     -1.7470142E-31
   6.820000     -2.1707767E-31
   6.830000     -2.6212748E-31
   6.840000     -3.0986983E-31
   6.850000     -3.6031321E-31
   6.860000     -4.1345447E-31
   6.870000     -4.6927813E-31
   6.880000     -5.2775540E-31
   6.890000     -5.8884311E-31
   6.900000     -6.5248268E-31
   6.910000     -7.1859949E-31
   6.920000     -7.8710128E-31
   6.930000     -8.5787756E-31
   6.940000     -9.3079865E-31
   6.950000     -1.0057145E-30
   6.960000     -1.0824535E-30
   6.970000     -1.1608220E-30
   6.980000     -1.2406028E-30
   6.990000     -1.3215548E-30
   7.000000     -1.4034115E-30
   7.010000     -1.4858803E-30
   7.020000     -1.5686424E-30
   7.030000     -1.6513506E-30
   7.040000     -1.7336302E-30
   7.050000     -1.8150771E-30
   7.060000     -1.8952578E-30