  -2.600000      0.0000000E+00
  -2.590000      0.0000000E+00
  -2.580000      0.0000000E+00
  -2.570000      0.0000000E+00
  -2.560000      0.0000000E+00
  -2.550000      0.0000000E+00
  -2.540000      0.0000000E+00
  -2.530000      0.0000000E+00
  -2.520000      0.0000000E+00
  -2.510000      0.0000000E+00
  -2.500000      0.0000000E+00
  -2.490000      0.0000000E+00
  -2.480000      0.0000000E+00
  -2.470000      0.0000000E+00
  -2.460000      0.0000000E+00
  -2.450000      0.0000000E+00
  -2.440000      0.0000000E+00
  -2.430000      0.0000000E+00
  -2.420000      0.0000000E+00
  -2.410000      0.0000000E+00
  -2.400000      0.0000000E+00
  -2.390000      0.0000000E+00
  -2.380000      0.0000000E+00
  -2.370000      0.0000000E+00
  -2.360000      0.0000000E+00
  -2.350000      0.0000000E+00
  -2.340000      0.0000000E+00
  -2.330000      0.0000000E+00
  -2.320000      0.0000000E+00
  -2.310000      0.0000000E+00
  -2.300000      0.0000000E+00
  -2.290000      0.0000000E+00
  -2.280000      0.0000000E+00
  -2.270000      0.0000000E+00
  -2.260000      0.0000000E+00
  -2.250000      0.0000000E+00
  -2.240000      0.0000000E+00
  -2.230000      0.0000000E+00
  -2.220000      0.0000000E+00
  -2.210000      0.0000000E+00
  -2.200000      0.0000000E+00
  -2.190000      0.0000000E+00
  -2.180000      0.0000000E+00
  -2.170000      0.0000000E+00
  -2.160000      0.0000000E+00
  -2.150000      0.0000000E+00
  -2.140000      0.0000000E+00
  -2.130000      0.0000000E+00
  -2.120000      0.0000000E+00
  -2.110000      0.0000000E+00
  -2.100000      0.0000000E+00
  -2.090000      0.0000000E+00
  -2.080000      0.0000000E+00
  -2.070000      0.0000000E+00
  -2.060000      0.0000000E+00
  -2.050000      0.0000000E+00
  -2.040000      0.0000000E+00
  -2.030000      0.0000000E+00
  -2.020000      0.0000000E+00
  -2.010000      0.0000000E+00
  -2.000000      0.0000000E+00
  -1.990000      0.0000000E+00
  -1.980000      0.0000000E+00
  -1.970000      0.0000000E+00
  -1.960000      0.0000000E+00
  -1.950000      0.0000000E+00
  -1.940000      0.0000000E+00
  -1.930000      0.0000000E+00
  -1.920000      0.0000000E+00
  -1.910000      0.0000000E+00
  -1.900000      0.0000000E+00
  -1.890000      0.0000000E+00
  -1.880000      0.0000000E+00
  -1.870000      0.0000000E+00
  -1.860000      0.0000000E+00
  -1.850000      0.0000000E+00
  -1.840000      0.0000000E+00
  -1.830000      0.0000000E+00
  -1.820000      0.0000000E+00
  -1.810000      0.0000000E+00
  -1.800000      0.0000000E+00
  -1.790000      0.0000000E+00
  -1.780000      0.0000000E+00
  -1.770000      0.0000000E+00
  -1.760000      0.0000000E+00
  -1.750000      0.0000000E+00
  -1.740000      0.0000000E+00
  -1.730000      0.0000000E+00
  -1.720000      0.0000000E+00
  -1.710000      0.0000000E+00
  -1.700000      0.0000000E+00
  -1.690000      0.0000000E+00
  -1.680000      0.0000000E+00
  -1.670000      0.0000000E+00
  -1.660000      0.0000000E+00
  -1.650000      0.0000000E+00
  -1.640000      0.0000000E+00
  -1.630000      0.0000000E+00
  -1.620000      0.0000000E+00
  -1.610000      0.0000000E+00
  -1.600000      0.0000000E+00
  -1.590000      0.0000000E+00
  -1.580000      0.0000000E+00
  -1.570000      0.0000000E+00
  -1.560000      0.0000000E+00
  -1.550000      0.0000000E+00
  -1.540000      0.0000000E+00
  -1.530000      0.0000000E+00
  -1.520000      0.0000000E+00
  -1.510000      0.0000000E+00
  -1.500000      0.0000000E+00
  -1.490000      0.0000000E+00
  -1.480000      0.0000000E+00
  -1.470000      0.0000000E+00
  -1.460000      0.0000000E+00
  -1.450000      0.0000000E+00
  -1.440000      0.0000000E+00
  -1.430000      0.0000000E+00
  -1.420000      0.0000000E+00
  -1.410000      0.0000000E+00
  -1.400000      0.0000000E+00
  -1.390000      0.0000000E+00
  -1.380000      0.0000000E+00
  -1.370000      0.0000000E+00
  -1.360000      0.0000000E+00
  -1.350000      0.0000000E+00
  -1.340000      0.0000000E+00
  -1.330000      0.0000000E+00
  -1.320000      0.0000000E+00
  -1.310000      0.0000000E+00
  -1.300000      0.0000000E+00
  -1.290000      0.0000000E+00
  -1.280000      0.0000000E+00
  -1.270000      0.0000000E+00
  -1.260000      0.0000000E+00
  -1.250000      0.0000000E+00
  -1.240000      0.0000000E+00
  -1.230000      0.0000000E+00
  -1.220000      0.0000000E+00
  -1.210000      0.0000000E+00
  -1.200000      0.0000000E+00
  -1.190000      0.0000000E+00
  -1.180000      0.0000000E+00
  -1.170000      0.0000000E+00
  -1.160000      0.0000000E+00
  -1.150000      0.0000000E+00
  -1.140000      0.0000000E+00
  -1.130000      0.0000000E+00
  -1.120000      0.0000000E+00
  -1.110000      0.0000000E+00
  -1.100000      0.0000000E+00
  -1.090000      0.0000000E+00
  -1.080000      0.0000000E+00
  -1.070000      0.0000000E+00
  -1.060000      0.0000000E+00
  -1.050000      0.0000000E+00
  -1.040000      0.0000000E+00
  -1.030000      0.0000000E+00
  -1.020000      0.0000000E+00
  -1.010000      0.0000000E+00
  -1.000000      0.0000000E+00
 -0.9900000      0.0000000E+00
 -0.9800000      0.0000000E+00
 -0.9700000      0.0000000E+00
 -0.9600000      0.0000000E+00
 -0.9500000      0.0000000E+00
 -0.9400000      0.0000000E+00
 -0.9300000      0.0000000E+00
 -0.9200000      0.0000000E+00
 -0.9100000      0.0000000E+00
 -0.9000000      0.0000000E+00
 -0.8900000      0.0000000E+00
 -0.8800000      0.0000000E+00
 -0.8700000      0.0000000E+00
 -0.8600000      0.0000000E+00
 -0.8500000      0.0000000E+00
 -0.8400000      0.0000000E+00
 -0.8300000      0.0000000E+00
 -0.8200000      0.0000000E+00
 -0.8100000      0.0000000E+00
 -0.8000000      0.0000000E+00
 -0.7900000      0.0000000E+00
 -0.7800000      0.0000000E+00
 -0.7700000      0.0000000E+00
 -0.7600000      0.0000000E+00
 -0.7500000      0.0000000E+00
 -0.7400000      0.0000000E+00
 -0.7300000      0.0000000E+00
 -0.7200000      0.0000000E+00
 -0.7100000      0.0000000E+00
 -0.7000000      0.0000000E+00
 -0.6900000      0.0000000E+00
 -0.6800000      0.0000000E+00
 -0.6700000      0.0000000E+00
 -0.6600000      0.0000000E+00
 -0.6500000      0.0000000E+00
 -0.6400000      0.0000000E+00
 -0.6300000      0.0000000E+00
 -0.6200000      0.0000000E+00
 -0.6100000      0.0000000E+00
 -0.6000000      0.0000000E+00
 -0.5900000      0.0000000E+00
 -0.5800000      0.0000000E+00
 -0.5700000      0.0000000E+00
 -0.5600000      0.0000000E+00
 -0.5500000      0.0000000E+00
 -0.5400000      0.0000000E+00
 -0.5300000      0.0000000E+00
 -0.5200000      0.0000000E+00
 -0.5100000      0.0000000E+00
 -0.5000000      0.0000000E+00
 -0.4900000      0.0000000E+00
 -0.4800000      0.0000000E+00
 -0.4700000      0.0000000E+00
 -0.4600000      0.0000000E+00
 -0.4500000      0.0000000E+00
 -0.4400000      0.0000000E+00
 -0.4300000      0.0000000E+00
 -0.4200000      0.0000000E+00
 -0.4100000      0.0000000E+00
 -0.4000000      0.0000000E+00
 -0.3900000      0.0000000E+00
 -0.3800000      0.0000000E+00
 -0.3700000      0.0000000E+00
 -0.3600000      0.0000000E+00
 -0.3500000      0.0000000E+00
 -0.3400000      0.0000000E+00
 -0.3300000      0.0000000E+00
 -0.3200000      0.0000000E+00
 -0.3100000      0.0000000E+00
 -0.3000000      0.0000000E+00
 -0.2900000      0.0000000E+00
 -0.2800000      0.0000000E+00
 -0.2700000      0.0000000E+00
 -0.2600000      0.0000000E+00
 -0.2500000      0.0000000E+00
 -0.2400000      0.0000000E+00
 -0.2300000      0.0000000E+00
 -0.2200000      0.0000000E+00
 -0.2100000      0.0000000E+00
 -0.2000000      0.0000000E+00
 -0.1900000      0.0000000E+00
 -0.1800000      0.0000000E+00
 -0.1700000      0.0000000E+00
 -0.1600000      0.0000000E+00
 -0.1500000      0.0000000E+00
 -0.1400000      0.0000000E+00
 -0.1300000      0.0000000E+00
 -0.1200000      0.0000000E+00
 -0.1100000      0.0000000E+00
 -0.1000000      0.0000000E+00
 -9.0000004E-02  0.0000000E+00
 -7.9999998E-02  0.0000000E+00
 -7.0000000E-02  0.0000000E+00
 -5.9999999E-02  0.0000000E+00
 -5.0000001E-02  0.0000000E+00
 -3.9999999E-02  0.0000000E+00
 -2.9999999E-02  0.0000000E+00
 -2.0000000E-02  0.0000000E+00
 -9.9999998E-03  0.0000000E+00
 -3.4694470E-17  0.0000000E+00
  9.9999998E-03  0.0000000E+00
  2.0000000E-02  0.0000000E+00
  2.9999999E-02  0.0000000E+00
  3.9999999E-02  0.0000000E+00
  5.0000001E-02  0.0000000E+00
  5.9999999E-02  0.0000000E+00
  7.0000000E-02  0.0000000E+00
  7.9999998E-02  0.0000000E+00
  9.0000004E-02  0.0000000E+00
  0.1000000      0.0000000E+00
  0.1100000      0.0000000E+00
  0.1200000      0.0000000E+00
  0.1300000      0.0000000E+00
  0.1400000      0.0000000E+00
  0.1500000      0.0000000E+00
  0.1600000      0.0000000E+00
  0.1700000      0.0000000E+00
  0.1800000      0.0000000E+00
  0.1900000      0.0000000E+00
  0.2000000      0.0000000E+00
  0.2100000      0.0000000E+00
  0.2200000      0.0000000E+00
  0.2300000      0.0000000E+00
  0.2400000      0.0000000E+00
  0.2500000      0.0000000E+00
  0.2600000      0.0000000E+00
  0.2700000      0.0000000E+00
  0.2800000      0.0000000E+00
  0.2900000      0.0000000E+00
  0.3000000      0.0000000E+00
  0.3100000      0.0000000E+00
  0.3200000      0.0000000E+00
  0.3300000      0.0000000E+00
  0.3400000      0.0000000E+00
  0.3500000      0.0000000E+00
  0.3600000      0.0000000E+00
  0.3700000      0.0000000E+00
  0.3800000      0.0000000E+00
  0.3900000      0.0000000E+00
  0.4000000      0.0000000E+00
  0.4100000      0.0000000E+00
  0.4200000      0.0000000E+00
  0.4300000      0.0000000E+00
  0.4400000      0.0000000E+00
  0.4500000      0.0000000E+00
  0.4600000      0.0000000E+00
  0.4700000      0.0000000E+00
  0.4800000      0.0000000E+00
  0.4900000      0.0000000E+00
  0.5000000      0.0000000E+00
  0.5100000      0.0000000E+00
  0.5200000      0.0000000E+00
  0.5300000      0.0000000E+00
  0.5400000      0.0000000E+00
  0.5500000      0.0000000E+00
  0.5600000      0.0000000E+00
  0.5700000      0.0000000E+00
  0.5800000      0.0000000E+00
  0.5900000      0.0000000E+00
  0.6000000      0.0000000E+00
  0.6100000      0.0000000E+00
  0.6200000      0.0000000E+00
  0.6300000      0.0000000E+00
  0.6400000      0.0000000E+00
  0.6500000      0.0000000E+00
  0.6600000      0.0000000E+00
  0.6700000      0.0000000E+00
  0.6800000      0.0000000E+00
  0.6900000      0.0000000E+00
  0.7000000      0.0000000E+00
  0.7100000      0.0000000E+00
  0.7200000      0.0000000E+00
  0.7300000      0.0000000E+00
  0.7400000      0.0000000E+00
  0.7500000      0.0000000E+00
  0.7600000      0.0000000E+00
  0.7700000      0.0000000E+00
  0.7800000      0.0000000E+00
  0.7900000      0.0000000E+00
  0.8000000      0.0000000E+00
  0.8100000      0.0000000E+00
  0.8200000      0.0000000E+00
  0.8300000      0.0000000E+00
  0.8400000      0.0000000E+00
  0.8500000      0.0000000E+00
  0.8600000      0.0000000E+00
  0.8700000      0.0000000E+00
  0.8800000      0.0000000E+00
  0.8900000      0.0000000E+00
  0.9000000      0.0000000E+00
  0.9100000      0.0000000E+00
  0.9200000      0.0000000E+00
  0.9300000      0.0000000E+00
  0.9400000      0.0000000E+00
  0.9500000      0.0000000E+00
  0.9600000      0.0000000E+00
  0.9700000      0.0000000E+00
  0.9800000      0.0000000E+00
  0.9900000      0.0000000E+00
   1.000000      0.0000000E+00
   1.010000      0.0000000E+00
   1.020000      0.0000000E+00
   1.030000      0.0000000E+00
   1.040000      0.0000000E+00
   1.050000      0.0000000E+00
   1.060000      0.0000000E+00
   1.070000      0.0000000E+00
   1.080000      0.0000000E+00
   1.090000      0.0000000E+00
   1.100000      0.0000000E+00
   1.110000      0.0000000E+00
   1.120000      0.0000000E+00
   1.130000      0.0000000E+00
   1.140000      0.0000000E+00
   1.150000      0.0000000E+00
   1.160000      0.0000000E+00
   1.170000      0.0000000E+00
   1.180000      0.0000000E+00
   1.190000      0.0000000E+00
   1.200000      0.0000000E+00
   1.210000      0.0000000E+00
   1.220000      0.0000000E+00
   1.230000      0.0000000E+00
   1.240000      0.0000000E+00
   1.250000      0.0000000E+00
   1.260000      0.0000000E+00
   1.270000      0.0000000E+00
   1.280000      0.0000000E+00
   1.290000      0.0000000E+00
   1.300000      0.0000000E+00
   1.310000      0.0000000E+00
   1.320000      0.0000000E+00
   1.330000      0.0000000E+00
   1.340000      0.0000000E+00
   1.350000      0.0000000E+00
   1.360000      0.0000000E+00
   1.370000      0.0000000E+00
   1.380000      0.0000000E+00
   1.390000      0.0000000E+00
   1.400000      0.0000000E+00
   1.410000      0.0000000E+00
   1.420000      0.0000000E+00
   1.430000      0.0000000E+00
   1.440000      0.0000000E+00
   1.450000      0.0000000E+00
   1.460000      0.0000000E+00
   1.470000      0.0000000E+00
   1.480000      0.0000000E+00
   1.490000      0.0000000E+00
   1.500000      0.0000000E+00
   1.510000      0.0000000E+00
   1.520000      0.0000000E+00
   1.530000      0.0000000E+00
   1.540000      0.0000000E+00
   1.550000      0.0000000E+00
   1.560000      0.0000000E+00
   1.570000      0.0000000E+00
   1.580000      0.0000000E+00
   1.590000      0.0000000E+00
   1.600000      0.0000000E+00
   1.610000      0.0000000E+00
   1.620000      0.0000000E+00
   1.630000      0.0000000E+00
   1.640000      0.0000000E+00
   1.650000      0.0000000E+00
   1.660000      0.0000000E+00
   1.670000      0.0000000E+00
   1.680000      0.0000000E+00
   1.690000      0.0000000E+00
   1.700000      0.0000000E+00
   1.710000      0.0000000E+00
   1.720000      0.0000000E+00
   1.730000      0.0000000E+00
   1.740000      0.0000000E+00
   1.750000      0.0000000E+00
   1.760000      0.0000000E+00
   1.770000      0.0000000E+00
   1.780000      0.0000000E+00
   1.790000      0.0000000E+00
   1.800000      0.0000000E+00
   1.810000      0.0000000E+00
   1.820000      0.0000000E+00
   1.830000      0.0000000E+00
   1.840000      0.0000000E+00
   1.850000      0.0000000E+00
   1.860000      0.0000000E+00
   1.870000      0.0000000E+00
   1.880000      0.0000000E+00
   1.890000      0.0000000E+00
   1.900000      0.0000000E+00
   1.910000      0.0000000E+00
   1.920000      0.0000000E+00
   1.930000      0.0000000E+00
   1.940000      0.0000000E+00
   1.950000      0.0000000E+00
   1.960000      0.0000000E+00
   1.970000      0.0000000E+00
   1.980000      0.0000000E+00
   1.990000      0.0000000E+00
   2.000000      0.0000000E+00
   2.010000      0.0000000E+00
   2.020000      0.0000000E+00
   2.030000      0.0000000E+00
   2.040000      0.0000000E+00
   2.050000      0.0000000E+00
   2.060000      0.0000000E+00
   2.070000      0.0000000E+00
   2.080000      0.0000000E+00
   2.090000      0.0000000E+00
   2.100000      0.0000000E+00
   2.110000      0.0000000E+00
   2.120000      0.0000000E+00
   2.130000      0.0000000E+00
   2.140000      0.0000000E+00
   2.150000      0.0000000E+00
   2.160000      0.0000000E+00
   2.170000      0.0000000E+00
   2.180000      0.0000000E+00
   2.190000      0.0000000E+00
   2.200000      0.0000000E+00
   2.210000      0.0000000E+00
   2.220000      0.0000000E+00
   2.230000      0.0000000E+00
   2.240000      0.0000000E+00
   2.250000      0.0000000E+00
   2.260000      0.0000000E+00
   2.270000      0.0000000E+00
   2.280000      0.0000000E+00
   2.290000      0.0000000E+00
   2.300000      0.0000000E+00
   2.310000      0.0000000E+00
   2.320000      0.0000000E+00
   2.330000      0.0000000E+00
   2.340000      0.0000000E+00
   2.350000      0.0000000E+00
   2.360000      0.0000000E+00
   2.370000      0.0000000E+00
   2.380000      0.0000000E+00
   2.390000      0.0000000E+00
   2.400000      0.0000000E+00
   2.410000      0.0000000E+00
   2.420000      0.0000000E+00
   2.430000      0.0000000E+00
   2.440000      0.0000000E+00
   2.450000      0.0000000E+00
   2.460000      0.0000000E+00
   2.470000      0.0000000E+00
   2.480000      0.0000000E+00
   2.490000      0.0000000E+00
   2.500000      0.0000000E+00
   2.510000      0.0000000E+00
   2.520000      0.0000000E+00
   2.530000      0.0000000E+00
   2.540000      0.0000000E+00
   2.550000      0.0000000E+00
   2.560000      0.0000000E+00
   2.570000      0.0000000E+00
   2.580000      0.0000000E+00
   2.590000      0.0000000E+00
   2.600000      0.0000000E+00
   2.610000      0.0000000E+00
   2.620000      0.0000000E+00
   2.630000      0.0000000E+00
   2.640000      0.0000000E+00
   2.650000      0.0000000E+00
   2.660000      0.0000000E+00
   2.670000      0.0000000E+00
   2.680000      0.0000000E+00
   2.690000      0.0000000E+00
   2.700000      0.0000000E+00
   2.710000      0.0000000E+00
   2.720000      0.0000000E+00
   2.730000      0.0000000E+00
   2.740000      0.0000000E+00
   2.750000      0.0000000E+00
   2.760000      0.0000000E+00
   2.770000      0.0000000E+00
   2.780000      0.0000000E+00
   2.790000      0.0000000E+00
   2.800000      0.0000000E+00
   2.810000      0.0000000E+00
   2.820000      0.0000000E+00
   2.830000      0.0000000E+00
   2.840000      0.0000000E+00
   2.850000      0.0000000E+00
   2.860000      0.0000000E+00
   2.870000      0.0000000E+00
   2.880000      0.0000000E+00
   2.890000      0.0000000E+00
   2.900000      0.0000000E+00
   2.910000      0.0000000E+00
   2.920000      0.0000000E+00
   2.930000      0.0000000E+00
   2.940000      0.0000000E+00
   2.950000      0.0000000E+00
   2.960000      0.0000000E+00
   2.970000      1.3171229E-38
   2.980000      1.6873609E-38
   2.990000      2.1713534E-38
   3.000000      2.5462944E-38
   3.010000      2.8247128E-38
   3.020000      3.0291718E-38
   3.030000      3.2211805E-38
   3.040000      3.4195205E-38
   3.050000      3.5197467E-38
   3.060000      3.5360040E-38
   3.070000      3.4548602E-38
   3.080000      3.3034224E-38
   3.090000      3.0907339E-38
   3.100000      2.9113453E-38
   3.110000      2.6053204E-38
   3.120000      1.9973361E-38
   3.130000      0.0000000E+00
   3.140000      0.0000000E+00
   3.150000     -2.5532734E-38
   3.160000     -4.3566128E-38
   3.170000     -6.4509403E-38
   3.180000     -8.8433474E-38
   3.190000     -1.1612761E-37
   3.200000     -1.4734708E-37
   3.210000     -1.8107487E-37
   3.220000     -2.1317348E-37
   3.230000     -2.3948191E-37
   3.240000     -2.6172038E-37
   3.250000     -2.8097935E-37
   3.260000     -2.9667441E-37
   3.270000     -3.1009625E-37
   3.280000     -3.2160407E-37
   3.290000     -3.3159775E-37
   3.300000     -3.4126613E-37
   3.310000     -3.5045412E-37
   3.320000     -3.5793346E-37
   3.330000     -3.6300197E-37
   3.340000     -3.6222442E-37
   3.350000     -3.5390116E-37
   3.360000     -3.4508636E-37
   3.370000     -3.3825612E-37
   3.380000     -3.2990711E-37
   3.390000     -3.1571360E-37
   3.400000     -2.9724004E-37
   3.410000     -2.8041581E-37
   3.420000     -2.6068259E-37
   3.430000     -2.3568804E-37
   3.440000     -2.0689557E-37
   3.450000     -1.7122780E-37
   3.460000     -1.2747686E-37
   3.470000     -7.3360704E-38
   3.480000      0.0000000E+00
   3.490000      6.7964651E-38
   3.500000      1.5373791E-37
   3.510000      2.4883258E-37
   3.520000      3.5159628E-37
   3.530000      4.6753814E-37
   3.540000      5.9442731E-37
   3.550000      7.2649048E-37
   3.560000      8.6847250E-37
   3.570000      1.0241437E-36
   3.580000      1.1894892E-36
   3.590000      1.3567623E-36
   3.600000      1.5260606E-36
   3.610000      1.7023359E-36
   3.620000      1.8780372E-36
   3.630000      2.0483663E-36
   3.640000      2.2090069E-36
   3.650000      2.3508757E-36
   3.660000      2.4706651E-36
   3.670000      2.5693410E-36
   3.680000      2.6438189E-36
   3.690000      2.6946597E-36
   3.700000      2.7203816E-36
   3.710000      2.7184446E-36
   3.720000      2.7221673E-36
   3.730000      2.7354695E-36
   3.740000      2.7293169E-36
   3.750000      2.7026810E-36
   3.760000      2.6192926E-36
   3.770000      2.4687315E-36
   3.780000      2.2317647E-36
   3.790000      1.9074430E-36
   3.800000      1.5118713E-36
   3.810000      9.5905548E-37
   3.820000      3.0184848E-37
   3.830000     -3.5774701E-37
   3.840000     -1.0333555E-36
   3.850000     -1.7172206E-36
   3.860000     -2.4222776E-36
   3.870000     -3.1424561E-36
   3.880000     -3.8508575E-36
   3.890000     -4.5911675E-36
   3.900000     -5.2968698E-36
   3.910000     -5.9633125E-36
   3.920000     -6.6163271E-36
   3.930000     -7.2257732E-36
   3.940000     -7.8176681E-36
   3.950000     -8.3529607E-36
   3.960000     -8.8306280E-36
   3.970000     -9.3449663E-36
   3.980000     -9.8605315E-36
   3.990000     -1.0359668E-35
   4.000000     -1.0893923E-35
   4.010000     -1.1479435E-35
   4.020000     -1.2224463E-35
   4.030000     -1.3064364E-35
   4.040000     -1.3751637E-35
   4.050000     -1.4287533E-35
   4.060000     -1.4623745E-35
   4.070000     -1.4713883E-35
   4.080000     -1.4627120E-35
   4.090000     -1.4542718E-35
   4.100000     -1.4475035E-35
   4.110000     -1.4179784E-35
   4.120000     -1.3525354E-35
   4.130000     -1.2507379E-35
   4.140000     -1.1320295E-35
   4.150000     -9.9208122E-36
   4.160000     -8.3328193E-36
   4.170000     -6.6937473E-36
   4.180000     -4.9426990E-36
   4.190000     -3.1170169E-36
   4.200000     -1.2234675E-36
   4.210000      7.8935515E-37
   4.220000      3.1264229E-36
   4.230000      5.4749051E-36
   4.240000      7.7291358E-36
   4.250000      1.0286210E-35
   4.260000      1.3143205E-35
   4.270000      1.6394480E-35
   4.280000      1.9940088E-35
   4.290000      2.3553581E-35
   4.300000      2.7236936E-35
   4.310000      3.1067452E-35
   4.320000      3.5033549E-35
   4.330000      3.9100245E-35
   4.340000      4.3320778E-35
   4.350000      4.7580481E-35
   4.360000      5.1751259E-35
   4.370000      5.5989858E-35
   4.380000      6.0246577E-35
   4.390000      6.4437862E-35
   4.400000      6.8565730E-35
   4.410000      7.2576060E-35
   4.420000      7.6718524E-35
   4.430000      8.0879717E-35
   4.440000      8.4678733E-35
   4.450000      8.8076589E-35
   4.460000      9.0966181E-35
   4.470000      9.2778670E-35
   4.480000      9.2653010E-35
   4.490000      9.1034536E-35
   4.500000      8.8590518E-35
   4.510000      8.5426136E-35
   4.520000      8.1272991E-35
   4.530000      7.5883475E-35
   4.540000      6.9654509E-35
   4.550000      6.2814974E-35
   4.560000      5.5853149E-35
   4.570000      4.8394947E-35
   4.580000      4.0339112E-35
   4.590000      3.2245922E-35
   4.600000      2.3787209E-35
   4.610000      1.4597410E-35
   4.620000      4.6879111E-36
   4.630000     -5.9279468E-36
   4.640000     -1.7875039E-35
   4.650000     -3.1315543E-35
   4.660000     -4.4856216E-35
   4.670000     -5.8253712E-35
   4.680000     -7.2452834E-35
   4.690000     -8.7297244E-35
   4.700000     -1.0311958E-34
   4.710000     -1.2034996E-34
   4.720000     -1.3827253E-34
   4.730000     -1.5633081E-34
   4.740000     -1.7510367E-34
   4.750000     -1.9438732E-34
   4.760000     -2.1456135E-34
   4.770000     -2.3646019E-34
   4.780000     -2.5996172E-34
   4.790000     -2.8592920E-34
   4.800000     -3.1390068E-34
   4.810000     -3.4105378E-34
   4.820000     -3.6696856E-34
   4.830000     -3.9444631E-34
   4.840000     -4.2164119E-34
   4.850000     -4.4593944E-34
   4.860000     -4.6749364E-34
   4.870000     -4.8357611E-34
   4.880000     -4.9483550E-34
   4.890000     -5.0321361E-34
   4.900000     -5.0755022E-34
   4.910000     -5.0445711E-34
   4.920000     -4.9409568E-34
   4.930000     -4.8270955E-34
   4.940000     -4.6946131E-34
   4.950000     -4.5138501E-34
   4.960000     -4.2893725E-34
   4.970000     -4.0664156E-34
   4.980000     -3.8548776E-34
   4.990000     -3.6199376E-34
   5.000000     -3.3607990E-34
   5.010000     -3.0781031E-34
   5.020000     -2.7764100E-34
   5.030000     -2.4509656E-34
   5.040000     -2.1128455E-34
   5.050000     -1.7466542E-34
   5.060000     -1.3166890E-34
   5.070000     -8.2068028E-35
   5.080000     -2.9890551E-35
   5.090000      2.2829400E-35
   5.100000      7.8982751E-35
   5.110000      1.4031527E-34
   5.120000      2.0517586E-34
   5.130000      2.7422137E-34
   5.140000      3.5365126E-34
   5.150000      4.4409492E-34
   5.160000      5.4168851E-34
   5.170000      6.4478657E-34
   5.180000      7.5552700E-34
   5.190000      8.7353033E-34
   5.200000      9.9371012E-34
   5.210000      1.1154334E-33
   5.220000      1.2478220E-33
   5.230000      1.3907610E-33
   5.240000      1.5345841E-33
   5.250000      1.6776995E-33
   5.260000      1.8224446E-33
   5.270000      1.9691626E-33
   5.280000      2.1136463E-33
   5.290000      2.2546553E-33
   5.300000      2.3884447E-33
   5.310000      2.5123554E-33
   5.320000      2.6280579E-33
   5.330000      2.7345577E-33
   5.340000      2.8307798E-33
   5.350000      2.9147945E-33
   5.360000      2.9862216E-33
   5.370000      3.0457275E-33
   5.380000      3.0929424E-33
   5.390000      3.1264700E-33
   5.400000      3.1457371E-33
   5.410000      3.1515610E-33
   5.420000      3.1437836E-33
   5.430000      3.1220164E-33
   5.440000      3.0848799E-33
   5.450000      3.0310989E-33
   5.460000      2.9616018E-33
   5.470000      2.8756592E-33
   5.480000      2.7708892E-33
   5.490000      2.6474493E-33
   5.500000      2.5004493E-33
   5.510000      2.3297865E-33
   5.520000      2.1374449E-33
   5.530000      1.9186263E-33
   5.540000      1.6720452E-33
   5.550000      1.3954506E-33
   5.560000      1.0868106E-33
   5.570000      7.4522535E-34
   5.580000      3.7005910E-34
   5.590000     -3.9865884E-35
   5.600000     -4.8627074E-34
   5.610000     -9.6951101E-34
   5.620000     -1.4891121E-33
   5.630000     -2.0462365E-33
   5.640000     -2.6403945E-33
   5.650000     -3.2701342E-33
   5.660000     -3.9351815E-33
   5.670000     -4.6337693E-33
   5.680000     -5.3641492E-33
   5.690000     -6.1242135E-33
   5.700000     -6.9120794E-33
   5.710000     -7.7245584E-33
   5.720000     -8.5578861E-33
   5.730000     -9.4089007E-33
   5.740000     -1.0275476E-32
   5.750000     -1.1154702E-32
   5.760000     -1.2042012E-32
   5.770000     -1.2933901E-32
   5.780000     -1.3826527E-32
   5.790000     -1.4715837E-32
   5.800000     -1.5598069E-32
   5.810000     -1.6468673E-32
   5.820000     -1.7323097E-32
   5.830000     -1.8157304E-32
   5.840000     -1.8966753E-32
   5.850000     -1.9746298E-32
   5.860000     -2.0490273E-32
   5.870000     -2.1193665E-32
   5.880000     -2.1851038E-32
   5.890000     -2.2454663E-32
   5.900000     -2.2999220E-32
   5.910000     -2.3478641E-32
   5.920000     -2.3884032E-32
   5.930000     -2.4207700E-32
   5.940000     -2.4441904E-32
   5.950000     -2.4577398E-32
   5.960000     -2.4604836E-32
   5.970000     -2.4515536E-32
   5.980000     -2.4299910E-32
   5.990000     -2.3948288E-32
   6.000000     -2.3450996E-32
   6.010000     -2.2798187E-32
   6.020000     -2.1980222E-32
   6.030000     -2.0987990E-32
   6.040000     -1.9811857E-32
   6.050000     -1.8442504E-32
   6.060000     -1.6871668E-32
   6.070000     -1.5091098E-32
   6.080000     -1.3093278E-32
   6.090000     -1.0871289E-32
   6.100000     -8.4186900E-33
   6.110000     -5.7298579E-33
   6.120000     -2.7997840E-33
   6.130000      3.7576348E-34
   6.140000      3.8000819E-33
   6.150000      7.4756349E-33
   6.160000      1.1404023E-32
   6.170000      1.5585900E-32
   6.180000      2.0020976E-32
   6.190000      2.4707960E-32
   6.200000      2.9644407E-32
   6.210000      3.4827073E-32
   6.220000      4.0251457E-32
   6.230000      4.5911688E-32
   6.240000      5.1800586E-32
   6.250000      5.7909524E-32
   6.260000      6.4228594E-32
   6.270000      7.0746169E-32
   6.280000      7.7448944E-32
   6.290000      8.4324081E-32
   6.300000      9.1352109E-32
   6.310000      9.8510788E-32
   6.320000      1.0578198E-31
   6.330000      1.1314295E-31
   6.340000      1.2056701E-31
   6.350000      1.2802585E-31
   6.360000      1.3548862E-31
   6.370000      1.4292190E-31
   6.380000      1.5028962E-31
   6.390000      1.5755308E-31
   6.400000      1.6467103E-31
   6.410000      1.7159936E-31
   6.420000      1.7829115E-31
   6.430000      1.8469710E-31
   6.440000      1.9076551E-31
   6.450000      1.9644201E-31
   6.460000      2.0166969E-31
   6.470000      2.0638951E-31
   6.480000      2.1054056E-31
   6.490000      2.1405954E-31
   6.500000      2.1688101E-31
   6.510000      2.1893808E-31
   6.520000      2.2016224E-31
   6.530000      2.2048341E-31
   6.540000      2.1983030E-31
   6.550000      2.1813070E-31
   6.560000      2.1531149E-31
   6.570000      2.1129892E-31
   6.580000      2.0601890E-31
   6.590000      1.9939723E-31
   6.600000      1.9135984E-31
   6.610000      1.8183314E-31
   6.620000      1.7074429E-31
   6.630000      1.5802154E-31
   6.640000      1.4359457E-31
   6.650000      1.2739492E-31
   6.660000      1.0935643E-31
   6.670000      8.9415629E-32
   6.680000      6.7512243E-32
   6.690000      4.3589734E-32
   6.700000      1.7595871E-32
   6.710000     -1.0516774E-32
   6.720000     -4.0790192E-32
   6.730000     -7.3260235E-32
   6.740000     -1.0795598E-31
   6.750000     -1.4489911E-31
   6.760000     -1.8410313E-31
   6.770000     -2.2557266E-31
   6.780000     -2.6930277E-31
   6.790000     -3.1527821E-31
   6.800000     -3.6347266E-31
   6.810000     -4.1384788E-31
   6.820000     -4.6635322E-31
   6.830000     -5.2092460E-31
   6.840000     -5.7748403E-31
   6.850000     -6.3593859E-31
   6.860000     -6.9618013E-31
   6.870000     -7.5808425E-31
   6.880000     -8.2150984E-31
   6.890000     -8.8629829E-31
   6.900000     -9.5227305E-31
   6.910000     -1.0192389E-30
   6.920000     -1.0869818E-30
   6.930000     -1.1552677E-30
   6.940000     -1.2238428E-30
   6.950000     -1.2924328E-30
   6.960000     -1.3607427E-30
   6.970000     -1.4284564E-30
   6.980000     -1.4952368E-30
   6.990000     -1.5607248E-30
   7.000000     -1.6245403E-30
   7.010000     -1.6862814E-30
   7.020000     -1.7455252E-30
   7.030000     -1.8018269E-30
   7.040000     -1.8547213E-30
   7.050000     -1.9037219E-30
   7.060000     -1.9483228E-30