  -2.600000      0.0000000E+00
  -2.590000      0.0000000E+00
  -2.580000      0.0000000E+00
  -2.570000      0.0000000E+00
  -2.560000      0.0000000E+00
  -2.550000      0.0000000E+00
  -2.540000      0.0000000E+00
  -2.530000      0.0000000E+00
  -2.520000      0.0000000E+00
  -2.510000      0.0000000E+00
  -2.500000      0.0000000E+00
  -2.490000      0.0000000E+00
  -2.480000      0.0000000E+00
  -2.470000      0.0000000E+00
  -2.460000      0.0000000E+00
  -2.450000      0.0000000E+00
  -2.440000      0.0000000E+00
  -2.430000      0.0000000E+00
  -2.420000      0.0000000E+00
  -2.410000      0.0000000E+00
  -2.400000      0.0000000E+00
  -2.390000      0.0000000E+00
  -2.380000      0.0000000E+00
  -2.370000      0.0000000E+00
  -2.360000      0.0000000E+00
  -2.350000      0.0000000E+00
  -2.340000      0.0000000E+00
  -2.330000      0.0000000E+00
  -2.320000      0.0000000E+00
  -2.310000      0.0000000E+00
  -2.300000      0.0000000E+00
  -2.290000      0.0000000E+00
  -2.280000      0.0000000E+00
  -2.270000      0.0000000E+00
  -2.260000      0.0000000E+00
  -2.250000      0.0000000E+00
  -2.240000      0.0000000E+00
  -2.230000      0.0000000E+00
  -2.220000      0.0000000E+00
  -2.210000      0.0000000E+00
  -2.200000      0.0000000E+00
  -2.190000      0.0000000E+00
  -2.180000      0.0000000E+00
  -2.170000      0.0000000E+00
  -2.160000      0.0000000E+00
  -2.150000      0.0000000E+00
  -2.140000      0.0000000E+00
  -2.130000      0.0000000E+00
  -2.120000      0.0000000E+00
  -2.110000      0.0000000E+00
  -2.100000      0.0000000E+00
  -2.090000      0.0000000E+00
  -2.080000      0.0000000E+00
  -2.070000      0.0000000E+00
  -2.060000      0.0000000E+00
  -2.050000      0.0000000E+00
  -2.040000      0.0000000E+00
  -2.030000      0.0000000E+00
  -2.020000      0.0000000E+00
  -2.010000      0.0000000E+00
  -2.000000      0.0000000E+00
  -1.990000      0.0000000E+00
  -1.980000      0.0000000E+00
  -1.970000      0.0000000E+00
  -1.960000      0.0000000E+00
  -1.950000      0.0000000E+00
  -1.940000      0.0000000E+00
  -1.930000      0.0000000E+00
  -1.920000      0.0000000E+00
  -1.910000      0.0000000E+00
  -1.900000      0.0000000E+00
  -1.890000      0.0000000E+00
  -1.880000      0.0000000E+00
  -1.870000      0.0000000E+00
  -1.860000      0.0000000E+00
  -1.850000      0.0000000E+00
  -1.840000      0.0000000E+00
  -1.830000      0.0000000E+00
  -1.820000      0.0000000E+00
  -1.810000      0.0000000E+00
  -1.800000      0.0000000E+00
  -1.790000      0.0000000E+00
  -1.780000      0.0000000E+00
  -1.770000      0.0000000E+00
  -1.760000      0.0000000E+00
  -1.750000      0.0000000E+00
  -1.740000      0.0000000E+00
  -1.730000      0.0000000E+00
  -1.720000      0.0000000E+00
  -1.710000      0.0000000E+00
  -1.700000      0.0000000E+00
  -1.690000      0.0000000E+00
  -1.680000      0.0000000E+00
  -1.670000      0.0000000E+00
  -1.660000      0.0000000E+00
  -1.650000      0.0000000E+00
  -1.640000      0.0000000E+00
  -1.630000      0.0000000E+00
  -1.620000      0.0000000E+00
  -1.610000      0.0000000E+00
  -1.600000      0.0000000E+00
  -1.590000      0.0000000E+00
  -1.580000      0.0000000E+00
  -1.570000      0.0000000E+00
  -1.560000      0.0000000E+00
  -1.550000      0.0000000E+00
  -1.540000      0.0000000E+00
  -1.530000      0.0000000E+00
  -1.520000      0.0000000E+00
  -1.510000      0.0000000E+00
  -1.500000      0.0000000E+00
  -1.490000      0.0000000E+00
  -1.480000      0.0000000E+00
  -1.470000      0.0000000E+00
  -1.460000      0.0000000E+00
  -1.450000      0.0000000E+00
  -1.440000      0.0000000E+00
  -1.430000      0.0000000E+00
  -1.420000      0.0000000E+00
  -1.410000      0.0000000E+00
  -1.400000      0.0000000E+00
  -1.390000      0.0000000E+00
  -1.380000      0.0000000E+00
  -1.370000      0.0000000E+00
  -1.360000      0.0000000E+00
  -1.350000      0.0000000E+00
  -1.340000      0.0000000E+00
  -1.330000      0.0000000E+00
  -1.320000      0.0000000E+00
  -1.310000      0.0000000E+00
  -1.300000      0.0000000E+00
  -1.290000      0.0000000E+00
  -1.280000      0.0000000E+00
  -1.270000      0.0000000E+00
  -1.260000      0.0000000E+00
  -1.250000      0.0000000E+00
  -1.240000      0.0000000E+00
  -1.230000      0.0000000E+00
  -1.220000      0.0000000E+00
  -1.210000      0.0000000E+00
  -1.200000      0.0000000E+00
  -1.190000      0.0000000E+00
  -1.180000      0.0000000E+00
  -1.170000      0.0000000E+00
  -1.160000      0.0000000E+00
  -1.150000      0.0000000E+00
  -1.140000      0.0000000E+00
  -1.130000      0.0000000E+00
  -1.120000      0.0000000E+00
  -1.110000      0.0000000E+00
  -1.100000      0.0000000E+00
  -1.090000      0.0000000E+00
  -1.080000      0.0000000E+00
  -1.070000      0.0000000E+00
  -1.060000      0.0000000E+00
  -1.050000      0.0000000E+00
  -1.040000      0.0000000E+00
  -1.030000      0.0000000E+00
  -1.020000      0.0000000E+00
  -1.010000      0.0000000E+00
  -1.000000      0.0000000E+00
 -0.9900000      0.0000000E+00
 -0.9800000      0.0000000E+00
 -0.9700000      0.0000000E+00
 -0.9600000      0.0000000E+00
 -0.9500000      0.0000000E+00
 -0.9400000      0.0000000E+00
 -0.9300000      0.0000000E+00
 -0.9200000      0.0000000E+00
 -0.9100000      0.0000000E+00
 -0.9000000      0.0000000E+00
 -0.8900000      0.0000000E+00
 -0.8800000      0.0000000E+00
 -0.8700000      0.0000000E+00
 -0.8600000      0.0000000E+00
 -0.8500000      0.0000000E+00
 -0.8400000      0.0000000E+00
 -0.8300000      0.0000000E+00
 -0.8200000      0.0000000E+00
 -0.8100000      0.0000000E+00
 -0.8000000      0.0000000E+00
 -0.7900000      0.0000000E+00
 -0.7800000      0.0000000E+00
 -0.7700000      0.0000000E+00
 -0.7600000      0.0000000E+00
 -0.7500000      0.0000000E+00
 -0.7400000      0.0000000E+00
 -0.7300000      0.0000000E+00
 -0.7200000      0.0000000E+00
 -0.7100000      0.0000000E+00
 -0.7000000      0.0000000E+00
 -0.6900000      0.0000000E+00
 -0.6800000      0.0000000E+00
 -0.6700000      0.0000000E+00
 -0.6600000      0.0000000E+00
 -0.6500000      0.0000000E+00
 -0.6400000      0.0000000E+00
 -0.6300000      0.0000000E+00
 -0.6200000      0.0000000E+00
 -0.6100000      0.0000000E+00
 -0.6000000      0.0000000E+00
 -0.5900000      0.0000000E+00
 -0.5800000      0.0000000E+00
 -0.5700000      0.0000000E+00
 -0.5600000      0.0000000E+00
 -0.5500000      0.0000000E+00
 -0.5400000      0.0000000E+00
 -0.5300000      0.0000000E+00
 -0.5200000      0.0000000E+00
 -0.5100000      0.0000000E+00
 -0.5000000      0.0000000E+00
 -0.4900000      0.0000000E+00
 -0.4800000      0.0000000E+00
 -0.4700000      0.0000000E+00
 -0.4600000      0.0000000E+00
 -0.4500000      0.0000000E+00
 -0.4400000      0.0000000E+00
 -0.4300000      0.0000000E+00
 -0.4200000      0.0000000E+00
 -0.4100000      0.0000000E+00
 -0.4000000      0.0000000E+00
 -0.3900000      0.0000000E+00
 -0.3800000      0.0000000E+00
 -0.3700000      0.0000000E+00
 -0.3600000      0.0000000E+00
 -0.3500000      0.0000000E+00
 -0.3400000      0.0000000E+00
 -0.3300000      0.0000000E+00
 -0.3200000      0.0000000E+00
 -0.3100000      0.0000000E+00
 -0.3000000      0.0000000E+00
 -0.2900000      0.0000000E+00
 -0.2800000      0.0000000E+00
 -0.2700000      0.0000000E+00
 -0.2600000      0.0000000E+00
 -0.2500000      0.0000000E+00
 -0.2400000      0.0000000E+00
 -0.2300000      0.0000000E+00
 -0.2200000      0.0000000E+00
 -0.2100000      0.0000000E+00
 -0.2000000      0.0000000E+00
 -0.1900000      0.0000000E+00
 -0.1800000      0.0000000E+00
 -0.1700000      0.0000000E+00
 -0.1600000      0.0000000E+00
 -0.1500000      0.0000000E+00
 -0.1400000      0.0000000E+00
 -0.1300000      0.0000000E+00
 -0.1200000      0.0000000E+00
 -0.1100000      0.0000000E+00
 -0.1000000      0.0000000E+00
 -9.0000004E-02  0.0000000E+00
 -7.9999998E-02  0.0000000E+00
 -7.0000000E-02  0.0000000E+00
 -5.9999999E-02  0.0000000E+00
 -5.0000001E-02  0.0000000E+00
 -3.9999999E-02  0.0000000E+00
 -2.9999999E-02  0.0000000E+00
 -2.0000000E-02  0.0000000E+00
 -9.9999998E-03  0.0000000E+00
 -3.4694470E-17  0.0000000E+00
  9.9999998E-03  0.0000000E+00
  2.0000000E-02  0.0000000E+00
  2.9999999E-02  0.0000000E+00
  3.9999999E-02  0.0000000E+00
  5.0000001E-02  0.0000000E+00
  5.9999999E-02  0.0000000E+00
  7.0000000E-02  0.0000000E+00
  7.9999998E-02  0.0000000E+00
  9.0000004E-02  0.0000000E+00
  0.1000000      0.0000000E+00
  0.1100000      0.0000000E+00
  0.1200000      0.0000000E+00
  0.1300000      0.0000000E+00
  0.1400000      0.0000000E+00
  0.1500000      0.0000000E+00
  0.1600000      0.0000000E+00
  0.1700000      0.0000000E+00
  0.1800000      0.0000000E+00
  0.1900000      0.0000000E+00
  0.2000000      0.0000000E+00
  0.2100000      0.0000000E+00
  0.2200000      0.0000000E+00
  0.2300000      0.0000000E+00
  0.2400000      0.0000000E+00
  0.2500000      0.0000000E+00
  0.2600000      0.0000000E+00
  0.2700000      0.0000000E+00
  0.2800000      0.0000000E+00
  0.2900000      0.0000000E+00
  0.3000000      0.0000000E+00
  0.3100000      0.0000000E+00
  0.3200000      0.0000000E+00
  0.3300000      0.0000000E+00
  0.3400000      0.0000000E+00
  0.3500000      0.0000000E+00
  0.3600000      0.0000000E+00
  0.3700000      0.0000000E+00
  0.3800000      0.0000000E+00
  0.3900000      0.0000000E+00
  0.4000000      0.0000000E+00
  0.4100000      0.0000000E+00
  0.4200000      0.0000000E+00
  0.4300000      0.0000000E+00
  0.4400000      0.0000000E+00
  0.4500000      0.0000000E+00
  0.4600000      0.0000000E+00
  0.4700000      0.0000000E+00
  0.4800000      0.0000000E+00
  0.4900000      0.0000000E+00
  0.5000000      0.0000000E+00
  0.5100000      0.0000000E+00
  0.5200000      0.0000000E+00
  0.5300000      0.0000000E+00
  0.5400000      0.0000000E+00
  0.5500000      0.0000000E+00
  0.5600000      0.0000000E+00
  0.5700000      0.0000000E+00
  0.5800000      0.0000000E+00
  0.5900000      0.0000000E+00
  0.6000000      0.0000000E+00
  0.6100000      0.0000000E+00
  0.6200000      0.0000000E+00
  0.6300000      0.0000000E+00
  0.6400000      0.0000000E+00
  0.6500000      0.0000000E+00
  0.6600000      0.0000000E+00
  0.6700000      0.0000000E+00
  0.6800000      0.0000000E+00
  0.6900000      0.0000000E+00
  0.7000000      0.0000000E+00
  0.7100000      0.0000000E+00
  0.7200000      0.0000000E+00
  0.7300000      0.0000000E+00
  0.7400000      0.0000000E+00
  0.7500000      0.0000000E+00
  0.7600000      0.0000000E+00
  0.7700000      0.0000000E+00
  0.7800000      0.0000000E+00
  0.7900000      0.0000000E+00
  0.8000000      0.0000000E+00
  0.8100000      0.0000000E+00
  0.8200000      0.0000000E+00
  0.8300000      0.0000000E+00
  0.8400000      0.0000000E+00
  0.8500000      0.0000000E+00
  0.8600000      0.0000000E+00
  0.8700000      0.0000000E+00
  0.8800000      0.0000000E+00
  0.8900000      0.0000000E+00
  0.9000000      0.0000000E+00
  0.9100000      0.0000000E+00
  0.9200000      0.0000000E+00
  0.9300000      0.0000000E+00
  0.9400000      0.0000000E+00
  0.9500000      0.0000000E+00
  0.9600000      0.0000000E+00
  0.9700000      0.0000000E+00
  0.9800000      0.0000000E+00
  0.9900000      0.0000000E+00
   1.000000      0.0000000E+00
   1.010000      0.0000000E+00
   1.020000      0.0000000E+00
   1.030000      0.0000000E+00
   1.040000      0.0000000E+00
   1.050000      0.0000000E+00
   1.060000      0.0000000E+00
   1.070000      0.0000000E+00
   1.080000      0.0000000E+00
   1.090000      0.0000000E+00
   1.100000      0.0000000E+00
   1.110000      0.0000000E+00
   1.120000      0.0000000E+00
   1.130000      0.0000000E+00
   1.140000      0.0000000E+00
   1.150000      0.0000000E+00
   1.160000      0.0000000E+00
   1.170000      0.0000000E+00
   1.180000      0.0000000E+00
   1.190000      0.0000000E+00
   1.200000      0.0000000E+00
   1.210000      0.0000000E+00
   1.220000      0.0000000E+00
   1.230000      0.0000000E+00
   1.240000      0.0000000E+00
   1.250000      0.0000000E+00
   1.260000      0.0000000E+00
   1.270000      0.0000000E+00
   1.280000      0.0000000E+00
   1.290000      0.0000000E+00
   1.300000      0.0000000E+00
   1.310000      0.0000000E+00
   1.320000      0.0000000E+00
   1.330000      0.0000000E+00
   1.340000      0.0000000E+00
   1.350000      0.0000000E+00
   1.360000      0.0000000E+00
   1.370000      0.0000000E+00
   1.380000      0.0000000E+00
   1.390000      0.0000000E+00
   1.400000      0.0000000E+00
   1.410000      0.0000000E+00
   1.420000      0.0000000E+00
   1.430000      0.0000000E+00
   1.440000      0.0000000E+00
   1.450000      0.0000000E+00
   1.460000      0.0000000E+00
   1.470000      0.0000000E+00
   1.480000      0.0000000E+00
   1.490000      0.0000000E+00
   1.500000      0.0000000E+00
   1.510000      0.0000000E+00
   1.520000      0.0000000E+00
   1.530000      0.0000000E+00
   1.540000      0.0000000E+00
   1.550000      0.0000000E+00
   1.560000      0.0000000E+00
   1.570000      0.0000000E+00
   1.580000      0.0000000E+00
   1.590000      0.0000000E+00
   1.600000      0.0000000E+00
   1.610000      0.0000000E+00
   1.620000      0.0000000E+00
   1.630000      0.0000000E+00
   1.640000      0.0000000E+00
   1.650000      0.0000000E+00
   1.660000      0.0000000E+00
   1.670000      0.0000000E+00
   1.680000      0.0000000E+00
   1.690000      0.0000000E+00
   1.700000      0.0000000E+00
   1.710000      0.0000000E+00
   1.720000      0.0000000E+00
   1.730000      0.0000000E+00
   1.740000      0.0000000E+00
   1.750000      0.0000000E+00
   1.760000      0.0000000E+00
   1.770000      0.0000000E+00
   1.780000      0.0000000E+00
   1.790000      0.0000000E+00
   1.800000      0.0000000E+00
   1.810000      0.0000000E+00
   1.820000      0.0000000E+00
   1.830000      0.0000000E+00
   1.840000      0.0000000E+00
   1.850000      0.0000000E+00
   1.860000      0.0000000E+00
   1.870000      0.0000000E+00
   1.880000      0.0000000E+00
   1.890000      0.0000000E+00
   1.900000      0.0000000E+00
   1.910000      0.0000000E+00
   1.920000      0.0000000E+00
   1.930000      0.0000000E+00
   1.940000      0.0000000E+00
   1.950000      0.0000000E+00
   1.960000      0.0000000E+00
   1.970000      0.0000000E+00
   1.980000      0.0000000E+00
   1.990000      0.0000000E+00
   2.000000      0.0000000E+00
   2.010000      0.0000000E+00
   2.020000      0.0000000E+00
   2.030000      0.0000000E+00
   2.040000      0.0000000E+00
   2.050000      0.0000000E+00
   2.060000      0.0000000E+00
   2.070000      0.0000000E+00
   2.080000      0.0000000E+00
   2.090000      0.0000000E+00
   2.100000      0.0000000E+00
   2.110000      0.0000000E+00
   2.120000      0.0000000E+00
   2.130000      0.0000000E+00
   2.140000      0.0000000E+00
   2.150000      0.0000000E+00
   2.160000      0.0000000E+00
   2.170000      0.0000000E+00
   2.180000      0.0000000E+00
   2.190000      0.0000000E+00
   2.200000      0.0000000E+00
   2.210000      0.0000000E+00
   2.220000      0.0000000E+00
   2.230000      0.0000000E+00
   2.240000      0.0000000E+00
   2.250000      0.0000000E+00
   2.260000      0.0000000E+00
   2.270000      0.0000000E+00
   2.280000      0.0000000E+00
   2.290000      0.0000000E+00
   2.300000      0.0000000E+00
   2.310000      0.0000000E+00
   2.320000      0.0000000E+00
   2.330000      0.0000000E+00
   2.340000      0.0000000E+00
   2.350000      0.0000000E+00
   2.360000      0.0000000E+00
   2.370000      0.0000000E+00
   2.380000      0.0000000E+00
   2.390000      0.0000000E+00
   2.400000      0.0000000E+00
   2.410000      0.0000000E+00
   2.420000      0.0000000E+00
   2.430000      0.0000000E+00
   2.440000      0.0000000E+00
   2.450000      0.0000000E+00
   2.460000      0.0000000E+00
   2.470000      0.0000000E+00
   2.480000      0.0000000E+00
   2.490000      0.0000000E+00
   2.500000      0.0000000E+00
   2.510000      0.0000000E+00
   2.520000      0.0000000E+00
   2.530000      0.0000000E+00
   2.540000      0.0000000E+00
   2.550000      0.0000000E+00
   2.560000      0.0000000E+00
   2.570000      0.0000000E+00
   2.580000      0.0000000E+00
   2.590000      0.0000000E+00
   2.600000      0.0000000E+00
   2.610000      0.0000000E+00
   2.620000      0.0000000E+00
   2.630000      0.0000000E+00
   2.640000      0.0000000E+00
   2.650000      0.0000000E+00
   2.660000      0.0000000E+00
   2.670000      0.0000000E+00
   2.680000      0.0000000E+00
   2.690000      0.0000000E+00
   2.700000      0.0000000E+00
   2.710000      0.0000000E+00
   2.720000      0.0000000E+00
   2.730000      0.0000000E+00
   2.740000      0.0000000E+00
   2.750000      0.0000000E+00
   2.760000      0.0000000E+00
   2.770000      0.0000000E+00
   2.780000      0.0000000E+00
   2.790000      0.0000000E+00
   2.800000      0.0000000E+00
   2.810000      0.0000000E+00
   2.820000      0.0000000E+00
   2.830000      0.0000000E+00
   2.840000      0.0000000E+00
   2.850000      0.0000000E+00
   2.860000      0.0000000E+00
   2.870000      0.0000000E+00
   2.880000      0.0000000E+00
   2.890000      0.0000000E+00
   2.900000      0.0000000E+00
   2.910000      0.0000000E+00
   2.920000      0.0000000E+00
   2.930000      0.0000000E+00
   2.940000      0.0000000E+00
   2.950000      0.0000000E+00
   2.960000      0.0000000E+00
   2.970000      0.0000000E+00
   2.980000      0.0000000E+00
   2.990000      0.0000000E+00
   3.000000      0.0000000E+00
   3.010000      0.0000000E+00
   3.020000      0.0000000E+00
   3.030000      0.0000000E+00
   3.040000      0.0000000E+00
   3.050000      0.0000000E+00
   3.060000      0.0000000E+00
   3.070000      0.0000000E+00
   3.080000      0.0000000E+00
   3.090000      0.0000000E+00
   3.100000      0.0000000E+00
   3.110000      0.0000000E+00
   3.120000      0.0000000E+00
   3.130000      0.0000000E+00
   3.140000      0.0000000E+00
   3.150000      0.0000000E+00
   3.160000      0.0000000E+00
   3.170000      0.0000000E+00
   3.180000      0.0000000E+00
   3.190000      0.0000000E+00
   3.200000      0.0000000E+00
   3.210000      0.0000000E+00
   3.220000      0.0000000E+00
   3.230000      0.0000000E+00
   3.240000      0.0000000E+00
   3.250000      0.0000000E+00
   3.260000      0.0000000E+00
   3.270000      0.0000000E+00
   3.280000      0.0000000E+00
   3.290000      0.0000000E+00
   3.300000      0.0000000E+00
   3.310000      0.0000000E+00
   3.320000      0.0000000E+00
   3.330000      0.0000000E+00
   3.340000      0.0000000E+00
   3.350000      0.0000000E+00
   3.360000      0.0000000E+00
   3.370000      0.0000000E+00
   3.380000      0.0000000E+00
   3.390000      0.0000000E+00
   3.400000      0.0000000E+00
   3.410000      0.0000000E+00
   3.420000      0.0000000E+00
   3.430000      0.0000000E+00
   3.440000      0.0000000E+00
   3.450000      0.0000000E+00
   3.460000      0.0000000E+00
   3.470000      0.0000000E+00
   3.480000      0.0000000E+00
   3.490000      0.0000000E+00
   3.500000      0.0000000E+00
   3.510000      0.0000000E+00
   3.520000      0.0000000E+00
   3.530000      0.0000000E+00
   3.540000      0.0000000E+00
   3.550000      0.0000000E+00
   3.560000      0.0000000E+00
   3.570000      0.0000000E+00
   3.580000      0.0000000E+00
   3.590000      0.0000000E+00
   3.600000      0.0000000E+00
   3.610000      0.0000000E+00
   3.620000      0.0000000E+00
   3.630000      0.0000000E+00
   3.640000      0.0000000E+00
   3.650000      0.0000000E+00
   3.660000      0.0000000E+00
   3.670000      0.0000000E+00
   3.680000      0.0000000E+00
   3.690000      0.0000000E+00
   3.700000      0.0000000E+00
   3.710000      0.0000000E+00
   3.720000      0.0000000E+00
   3.730000      0.0000000E+00
   3.740000      0.0000000E+00
   3.750000      0.0000000E+00
   3.760000      0.0000000E+00
   3.770000      0.0000000E+00
   3.780000      0.0000000E+00
   3.790000      0.0000000E+00
   3.800000      0.0000000E+00
   3.810000      0.0000000E+00
   3.820000      0.0000000E+00
   3.830000      0.0000000E+00
   3.840000      0.0000000E+00
   3.850000      0.0000000E+00
   3.860000      0.0000000E+00
   3.870000      0.0000000E+00
   3.880000      0.0000000E+00
   3.890000      0.0000000E+00
   3.900000      0.0000000E+00
   3.910000      0.0000000E+00
   3.920000      0.0000000E+00
   3.930000      0.0000000E+00
   3.940000      0.0000000E+00
   3.950000      0.0000000E+00
   3.960000      0.0000000E+00
   3.970000      0.0000000E+00
   3.980000      0.0000000E+00
   3.990000      0.0000000E+00
   4.000000      0.0000000E+00
   4.010000      0.0000000E+00
   4.020000      0.0000000E+00
   4.030000      0.0000000E+00
   4.040000      0.0000000E+00
   4.050000      0.0000000E+00
   4.060000      0.0000000E+00
   4.070000      0.0000000E+00
   4.080000      0.0000000E+00
   4.090000      0.0000000E+00
   4.100000      0.0000000E+00
   4.110000      0.0000000E+00
   4.120000      0.0000000E+00
   4.130000      0.0000000E+00
   4.140000      0.0000000E+00
   4.150000      0.0000000E+00
   4.160000      0.0000000E+00
   4.170000      0.0000000E+00
   4.180000      0.0000000E+00
   4.190000      0.0000000E+00
   4.200000      0.0000000E+00
   4.210000      0.0000000E+00
   4.220000      0.0000000E+00
   4.230000      0.0000000E+00
   4.240000      0.0000000E+00
   4.250000      0.0000000E+00
   4.260000      0.0000000E+00
   4.270000      0.0000000E+00
   4.280000      0.0000000E+00
   4.290000      0.0000000E+00
   4.300000      0.0000000E+00
   4.310000      0.0000000E+00
   4.320000      0.0000000E+00
   4.330000      0.0000000E+00
   4.340000      0.0000000E+00
   4.350000      0.0000000E+00
   4.360000      0.0000000E+00
   4.370000      0.0000000E+00
   4.380000      0.0000000E+00
   4.390000      0.0000000E+00
   4.400000      0.0000000E+00
   4.410000      0.0000000E+00
   4.420000      0.0000000E+00
   4.430000      0.0000000E+00
   4.440000      0.0000000E+00
   4.450000      0.0000000E+00
   4.460000      0.0000000E+00
   4.470000      0.0000000E+00
   4.480000      0.0000000E+00
   4.490000      0.0000000E+00
   4.500000      0.0000000E+00
   4.510000      0.0000000E+00
   4.520000      0.0000000E+00
   4.530000      0.0000000E+00
   4.540000      0.0000000E+00
   4.550000      0.0000000E+00
   4.560000      0.0000000E+00
   4.570000      0.0000000E+00
   4.580000      0.0000000E+00
   4.590000      0.0000000E+00
   4.600000      0.0000000E+00
   4.610000      0.0000000E+00
   4.620000      0.0000000E+00
   4.630000     -1.3009476E-38
   4.640000     -1.6514629E-38
   4.650000     -1.9848364E-38
   4.660000     -2.2957382E-38
   4.670000     -2.6197331E-38
   4.680000     -2.9535975E-38
   4.690000     -3.2939090E-38
   4.700000     -3.6691588E-38
   4.710000     -4.0028304E-38
   4.720000     -4.2962432E-38
   4.730000     -4.6338126E-38
   4.740000     -4.9884790E-38
   4.750000     -5.3521418E-38
   4.760000     -5.7155243E-38
   4.770000     -6.0696649E-38
   4.780000     -6.3871447E-38
   4.790000     -6.6767180E-38
   4.800000     -6.9692878E-38
   4.810000     -7.2630207E-38
   4.820000     -7.5559712E-38
   4.830000     -8.0269543E-38
   4.840000     -8.6696212E-38
   4.850000     -9.3019235E-38
   4.860000     -9.9231628E-38
   4.870000     -1.0508170E-37
   4.880000     -1.0997230E-37
   4.890000     -1.1357891E-37
   4.900000     -1.1569001E-37
   4.910000     -1.1383953E-37
   4.920000     -1.0844083E-37
   4.930000     -1.0205969E-37
   4.940000     -9.6865519E-38
   4.950000     -9.3324465E-38
   4.960000     -8.9074013E-38
   4.970000     -8.3745413E-38
   4.980000     -7.7554757E-38
   4.990000     -7.0175295E-38
   5.000000     -6.1348006E-38
   5.010000     -4.9868221E-38
   5.020000     -3.5723930E-38
   5.030000      0.0000000E+00
   5.040000      2.3134481E-38
   5.050000      5.6883110E-38
   5.060000      8.8692098E-38
   5.070000      1.2026015E-37
   5.080000      1.5107709E-37
   5.090000      1.8180963E-37
   5.100000      2.1403554E-37
   5.110000      2.4004586E-37
   5.120000      2.6050925E-37
   5.130000      2.8562010E-37
   5.140000      3.1689528E-37
   5.150000      3.5176914E-37
   5.160000      3.8548949E-37
   5.170000      4.1761631E-37
   5.180000      4.5867615E-37
   5.190000      5.0979189E-37
   5.200000      5.6251443E-37
   5.210000      6.1615820E-37
   5.220000      6.7170639E-37
   5.230000      7.2588507E-37
   5.240000      7.6536904E-37
   5.250000      8.1227707E-37
   5.260000      9.0228258E-37
   5.270000      1.0233541E-36
   5.280000      1.1678264E-36
   5.290000      1.3368207E-36
   5.300000      1.4640129E-36
   5.310000      1.5435961E-36
   5.320000      1.6352652E-36
   5.330000      1.7602590E-36
   5.340000      1.8939118E-36
   5.350000      1.9572871E-36
   5.360000      1.9625784E-36
   5.370000      1.9599567E-36
   5.380000      1.9447680E-36
   5.390000      1.9245784E-36
   5.400000      1.9318520E-36
   5.410000      1.9614742E-36
   5.420000      1.9947707E-36
   5.430000      2.0322856E-36
   5.440000      2.0625277E-36
   5.450000      2.0780220E-36
   5.460000      2.0754426E-36
   5.470000      2.0465214E-36
   5.480000      1.9759849E-36
   5.490000      1.8594634E-36
   5.500000      1.6955476E-36
   5.510000      1.4608569E-36
   5.520000      1.1794879E-36
   5.530000      8.9104117E-37
   5.540000      5.8307975E-37
   5.550000      2.2197825E-37
   5.560000     -1.8290337E-37
   5.570000     -5.9913186E-37
   5.580000     -1.0548839E-36
   5.590000     -1.6085828E-36
   5.600000     -2.2422402E-36
   5.610000     -2.7758565E-36
   5.620000     -2.9548867E-36
   5.630000     -2.7808118E-36
   5.640000     -2.5318106E-36
   5.650000     -2.2948788E-36
   5.660000     -1.8931181E-36
   5.670000     -1.3115106E-36
   5.680000     -6.1419732E-37
   5.690000     -1.9113581E-37
   5.700000     -3.0604668E-37
   5.710000     -6.0491476E-37
   5.720000     -1.3766849E-36
   5.730000     -2.7249692E-36
   5.740000     -4.2848272E-36
   5.750000     -6.0588583E-36
   5.760000     -7.9776218E-36
   5.770000     -9.9411006E-36
   5.780000     -1.1863556E-35
   5.790000     -1.3714541E-35
   5.800000     -1.5550522E-35
   5.810000     -1.7155311E-35
   5.820000     -1.8427623E-35
   5.830000     -1.9717212E-35
   5.840000     -2.0966573E-35
   5.850000     -2.1968190E-35
   5.860000     -2.2718228E-35
   5.870000     -2.3197900E-35
   5.880000     -2.3451916E-35
   5.890000     -2.3271156E-35
   5.900000     -2.2713744E-35
   5.910000     -2.2205900E-35
   5.920000     -2.1156775E-35
   5.930000     -1.9445663E-35
   5.940000     -1.7431649E-35
   5.950000     -1.5327016E-35
   5.960000     -1.3288951E-35
   5.970000     -1.0643127E-35
   5.980000     -7.7852437E-36
   5.990000     -5.3166277E-36
   6.000000     -3.3023302E-36
   6.010000     -1.7018369E-36
   6.020000     -3.3613718E-37
   6.030000      8.8468317E-37
   6.040000      1.7293714E-36
   6.050000      1.9648655E-36
   6.060000      1.6602539E-36
   6.070000      1.3271578E-36
   6.080000      1.0951126E-36
   6.090000      7.9129338E-37
   6.100000      1.3456721E-36
   6.110000      2.9309876E-36
   6.120000      4.7539703E-36
   6.130000      6.7647397E-36
   6.140000      9.3303982E-36
   6.150000      1.2337763E-35
   6.160000      1.5720693E-35
   6.170000      1.8855175E-35
   6.180000      2.1650706E-35
   6.190000      2.5149090E-35
   6.200000      2.9469279E-35
   6.210000      3.4043800E-35
   6.220000      3.9127862E-35
   6.230000      4.4719536E-35
   6.240000      5.0522317E-35
   6.250000      5.7585534E-35
   6.260000      6.5822535E-35
   6.270000      7.4853466E-35
   6.280000      8.4753206E-35
   6.290000      9.4960032E-35
   6.300000      1.0546306E-34
   6.310000      1.1618879E-34
   6.320000      1.2698917E-34
   6.330000      1.3779074E-34
   6.340000      1.4835966E-34
   6.350000      1.5807745E-34
   6.360000      1.6697606E-34
   6.370000      1.7558868E-34
   6.380000      1.8333031E-34
   6.390000      1.8767286E-34
   6.400000      1.8855604E-34
   6.410000      1.8890420E-34
   6.420000      1.8908215E-34
   6.430000      1.8831883E-34
   6.440000      1.8654837E-34
   6.450000      1.8558793E-34
   6.460000      1.8702036E-34
   6.470000      1.8769817E-34
   6.480000      1.8614659E-34
   6.490000      1.8453361E-34
   6.500000      1.8162253E-34
   6.510000      1.7622036E-34
   6.520000      1.7031774E-34
   6.530000      1.6512248E-34
   6.540000      1.5592022E-34
   6.550000      1.4127616E-34
   6.560000      1.2521854E-34
   6.570000      1.0787740E-34
   6.580000      8.8614309E-35
   6.590000      6.7789141E-35
   6.600000      4.8205491E-35
   6.610000      3.1743990E-35
   6.620000      1.4478390E-35
   6.630000     -7.5948558E-36
   6.640000     -3.3130757E-35
   6.650000     -5.7838082E-35
   6.660000     -8.1392251E-35
   6.670000     -1.0590968E-34
   6.680000     -1.3252909E-34
   6.690000     -1.6129423E-34
   6.700000     -1.9321362E-34
   6.710000     -2.3005908E-34
   6.720000     -2.7151291E-34
   6.730000     -3.1733827E-34
   6.740000     -3.6677754E-34
   6.750000     -4.2011939E-34
   6.760000     -4.7736320E-34
   6.770000     -5.3755168E-34
   6.780000     -5.9961012E-34
   6.790000     -6.6530661E-34
   6.800000     -7.3484326E-34
   6.810000     -8.0456803E-34
   6.820000     -8.7375221E-34
   6.830000     -9.4461440E-34
   6.840000     -1.0177088E-33
   6.850000     -1.0896504E-33
   6.860000     -1.1602729E-33
   6.870000     -1.2337938E-33
   6.880000     -1.3101880E-33
   6.890000     -1.3867370E-33
   6.900000     -1.4631056E-33
   6.910000     -1.5389128E-33
   6.920000     -1.6101398E-33
   6.930000     -1.6770526E-33
   6.940000     -1.7421491E-33
   6.950000     -1.7989523E-33
   6.960000     -1.8494238E-33
   6.970000     -1.8963714E-33
   6.980000     -1.9356799E-33
   6.990000     -1.9693152E-33
   7.000000     -1.9962994E-33
   7.010000     -2.0143515E-33
   7.020000     -2.0238865E-33
   7.030000     -2.0248217E-33
   7.040000     -2.0164283E-33
   7.050000     -1.9983617E-33
   7.060000     -1.9707567E-33