  -2.600000      0.0000000E+00
  -2.590000      0.0000000E+00
  -2.580000      0.0000000E+00
  -2.570000      0.0000000E+00
  -2.560000      0.0000000E+00
  -2.550000      0.0000000E+00
  -2.540000      0.0000000E+00
  -2.530000      0.0000000E+00
  -2.520000      0.0000000E+00
  -2.510000      0.0000000E+00
  -2.500000      0.0000000E+00
  -2.490000      0.0000000E+00
  -2.480000      0.0000000E+00
  -2.470000      0.0000000E+00
  -2.460000      0.0000000E+00
  -2.450000      0.0000000E+00
  -2.440000      0.0000000E+00
  -2.430000      0.0000000E+00
  -2.420000      0.0000000E+00
  -2.410000      0.0000000E+00
  -2.400000      0.0000000E+00
  -2.390000      0.0000000E+00
  -2.380000      0.0000000E+00
  -2.370000      0.0000000E+00
  -2.360000      0.0000000E+00
  -2.350000      0.0000000E+00
  -2.340000      0.0000000E+00
  -2.330000      0.0000000E+00
  -2.320000      0.0000000E+00
  -2.310000      0.0000000E+00
  -2.300000      0.0000000E+00
  -2.290000      0.0000000E+00
  -2.280000      0.0000000E+00
  -2.270000      0.0000000E+00
  -2.260000      0.0000000E+00
  -2.250000      0.0000000E+00
  -2.240000      0.0000000E+00
  -2.230000      0.0000000E+00
  -2.220000      0.0000000E+00
  -2.210000      0.0000000E+00
  -2.200000      0.0000000E+00
  -2.190000      0.0000000E+00
  -2.180000      0.0000000E+00
  -2.170000      0.0000000E+00
  -2.160000      0.0000000E+00
  -2.150000      0.0000000E+00
  -2.140000      0.0000000E+00
  -2.130000      0.0000000E+00
  -2.120000      0.0000000E+00
  -2.110000      0.0000000E+00
  -2.100000      0.0000000E+00
  -2.090000      0.0000000E+00
  -2.080000      0.0000000E+00
  -2.070000      0.0000000E+00
  -2.060000      0.0000000E+00
  -2.050000      0.0000000E+00
  -2.040000      0.0000000E+00
  -2.030000      0.0000000E+00
  -2.020000      0.0000000E+00
  -2.010000      0.0000000E+00
  -2.000000      0.0000000E+00
  -1.990000      0.0000000E+00
  -1.980000      0.0000000E+00
  -1.970000      0.0000000E+00
  -1.960000      0.0000000E+00
  -1.950000      0.0000000E+00
  -1.940000      0.0000000E+00
  -1.930000      0.0000000E+00
  -1.920000      0.0000000E+00
  -1.910000      0.0000000E+00
  -1.900000      0.0000000E+00
  -1.890000      0.0000000E+00
  -1.880000      0.0000000E+00
  -1.870000      0.0000000E+00
  -1.860000      0.0000000E+00
  -1.850000      0.0000000E+00
  -1.840000      0.0000000E+00
  -1.830000      0.0000000E+00
  -1.820000      0.0000000E+00
  -1.810000      0.0000000E+00
  -1.800000      0.0000000E+00
  -1.790000      0.0000000E+00
  -1.780000      0.0000000E+00
  -1.770000      0.0000000E+00
  -1.760000      0.0000000E+00
  -1.750000      0.0000000E+00
  -1.740000      0.0000000E+00
  -1.730000      0.0000000E+00
  -1.720000      0.0000000E+00
  -1.710000      0.0000000E+00
  -1.700000      0.0000000E+00
  -1.690000      0.0000000E+00
  -1.680000      0.0000000E+00
  -1.670000      0.0000000E+00
  -1.660000      0.0000000E+00
  -1.650000      0.0000000E+00
  -1.640000      0.0000000E+00
  -1.630000      0.0000000E+00
  -1.620000      0.0000000E+00
  -1.610000      0.0000000E+00
  -1.600000      0.0000000E+00
  -1.590000      0.0000000E+00
  -1.580000      0.0000000E+00
  -1.570000      0.0000000E+00
  -1.560000      0.0000000E+00
  -1.550000      0.0000000E+00
  -1.540000      0.0000000E+00
  -1.530000      0.0000000E+00
  -1.520000      0.0000000E+00
  -1.510000      0.0000000E+00
  -1.500000      0.0000000E+00
  -1.490000      0.0000000E+00
  -1.480000      0.0000000E+00
  -1.470000      0.0000000E+00
  -1.460000      0.0000000E+00
  -1.450000      0.0000000E+00
  -1.440000      0.0000000E+00
  -1.430000      0.0000000E+00
  -1.420000      0.0000000E+00
  -1.410000      0.0000000E+00
  -1.400000      0.0000000E+00
  -1.390000      0.0000000E+00
  -1.380000      0.0000000E+00
  -1.370000      0.0000000E+00
  -1.360000      0.0000000E+00
  -1.350000      0.0000000E+00
  -1.340000      0.0000000E+00
  -1.330000      0.0000000E+00
  -1.320000      0.0000000E+00
  -1.310000      0.0000000E+00
  -1.300000      0.0000000E+00
  -1.290000      0.0000000E+00
  -1.280000      0.0000000E+00
  -1.270000      0.0000000E+00
  -1.260000      0.0000000E+00
  -1.250000      0.0000000E+00
  -1.240000      0.0000000E+00
  -1.230000      0.0000000E+00
  -1.220000      0.0000000E+00
  -1.210000      0.0000000E+00
  -1.200000      0.0000000E+00
  -1.190000      0.0000000E+00
  -1.180000      0.0000000E+00
  -1.170000      0.0000000E+00
  -1.160000      0.0000000E+00
  -1.150000      0.0000000E+00
  -1.140000      0.0000000E+00
  -1.130000      0.0000000E+00
  -1.120000      0.0000000E+00
  -1.110000      0.0000000E+00
  -1.100000      0.0000000E+00
  -1.090000      0.0000000E+00
  -1.080000      0.0000000E+00
  -1.070000      0.0000000E+00
  -1.060000      0.0000000E+00
  -1.050000      0.0000000E+00
  -1.040000      0.0000000E+00
  -1.030000      0.0000000E+00
  -1.020000      0.0000000E+00
  -1.010000      0.0000000E+00
  -1.000000      0.0000000E+00
 -0.9900000      0.0000000E+00
 -0.9800000      0.0000000E+00
 -0.9700000      0.0000000E+00
 -0.9600000      0.0000000E+00
 -0.9500000      0.0000000E+00
 -0.9400000      0.0000000E+00
 -0.9300000      0.0000000E+00
 -0.9200000      0.0000000E+00
 -0.9100000      0.0000000E+00
 -0.9000000      0.0000000E+00
 -0.8900000      0.0000000E+00
 -0.8800000      0.0000000E+00
 -0.8700000      0.0000000E+00
 -0.8600000      0.0000000E+00
 -0.8500000      0.0000000E+00
 -0.8400000      0.0000000E+00
 -0.8300000      0.0000000E+00
 -0.8200000      0.0000000E+00
 -0.8100000      0.0000000E+00
 -0.8000000      0.0000000E+00
 -0.7900000      0.0000000E+00
 -0.7800000      0.0000000E+00
 -0.7700000      0.0000000E+00
 -0.7600000      0.0000000E+00
 -0.7500000      0.0000000E+00
 -0.7400000      0.0000000E+00
 -0.7300000      0.0000000E+00
 -0.7200000      0.0000000E+00
 -0.7100000      0.0000000E+00
 -0.7000000      0.0000000E+00
 -0.6900000      0.0000000E+00
 -0.6800000      0.0000000E+00
 -0.6700000      0.0000000E+00
 -0.6600000      0.0000000E+00
 -0.6500000      0.0000000E+00
 -0.6400000      0.0000000E+00
 -0.6300000      0.0000000E+00
 -0.6200000      0.0000000E+00
 -0.6100000      0.0000000E+00
 -0.6000000      0.0000000E+00
 -0.5900000      0.0000000E+00
 -0.5800000      0.0000000E+00
 -0.5700000      0.0000000E+00
 -0.5600000      0.0000000E+00
 -0.5500000      0.0000000E+00
 -0.5400000      0.0000000E+00
 -0.5300000      0.0000000E+00
 -0.5200000      0.0000000E+00
 -0.5100000      0.0000000E+00
 -0.5000000      0.0000000E+00
 -0.4900000      0.0000000E+00
 -0.4800000      0.0000000E+00
 -0.4700000      0.0000000E+00
 -0.4600000      0.0000000E+00
 -0.4500000      0.0000000E+00
 -0.4400000      0.0000000E+00
 -0.4300000      0.0000000E+00
 -0.4200000      0.0000000E+00
 -0.4100000      0.0000000E+00
 -0.4000000      0.0000000E+00
 -0.3900000      0.0000000E+00
 -0.3800000      0.0000000E+00
 -0.3700000      0.0000000E+00
 -0.3600000      0.0000000E+00
 -0.3500000      0.0000000E+00
 -0.3400000      0.0000000E+00
 -0.3300000      0.0000000E+00
 -0.3200000      0.0000000E+00
 -0.3100000      0.0000000E+00
 -0.3000000      0.0000000E+00
 -0.2900000      0.0000000E+00
 -0.2800000      0.0000000E+00
 -0.2700000      0.0000000E+00
 -0.2600000      0.0000000E+00
 -0.2500000      0.0000000E+00
 -0.2400000      0.0000000E+00
 -0.2300000      0.0000000E+00
 -0.2200000      0.0000000E+00
 -0.2100000      0.0000000E+00
 -0.2000000      0.0000000E+00
 -0.1900000      0.0000000E+00
 -0.1800000      0.0000000E+00
 -0.1700000      0.0000000E+00
 -0.1600000      0.0000000E+00
 -0.1500000      0.0000000E+00
 -0.1400000      0.0000000E+00
 -0.1300000      0.0000000E+00
 -0.1200000      0.0000000E+00
 -0.1100000      0.0000000E+00
 -0.1000000      0.0000000E+00
 -9.0000004E-02  0.0000000E+00
 -7.9999998E-02  0.0000000E+00
 -7.0000000E-02  0.0000000E+00
 -5.9999999E-02  0.0000000E+00
 -5.0000001E-02  0.0000000E+00
 -3.9999999E-02  0.0000000E+00
 -2.9999999E-02  0.0000000E+00
 -2.0000000E-02  0.0000000E+00
 -9.9999998E-03  0.0000000E+00
 -3.4694470E-17  0.0000000E+00
  9.9999998E-03  0.0000000E+00
  2.0000000E-02  0.0000000E+00
  2.9999999E-02  0.0000000E+00
  3.9999999E-02  0.0000000E+00
  5.0000001E-02  0.0000000E+00
  5.9999999E-02  0.0000000E+00
  7.0000000E-02  0.0000000E+00
  7.9999998E-02  0.0000000E+00
  9.0000004E-02  0.0000000E+00
  0.1000000      0.0000000E+00
  0.1100000      0.0000000E+00
  0.1200000      0.0000000E+00
  0.1300000      0.0000000E+00
  0.1400000      0.0000000E+00
  0.1500000      0.0000000E+00
  0.1600000      0.0000000E+00
  0.1700000      0.0000000E+00
  0.1800000      0.0000000E+00
  0.1900000      0.0000000E+00
  0.2000000      0.0000000E+00
  0.2100000      0.0000000E+00
  0.2200000      0.0000000E+00
  0.2300000      0.0000000E+00
  0.2400000      0.0000000E+00
  0.2500000      0.0000000E+00
  0.2600000      0.0000000E+00
  0.2700000      0.0000000E+00
  0.2800000      0.0000000E+00
  0.2900000      0.0000000E+00
  0.3000000      0.0000000E+00
  0.3100000      0.0000000E+00
  0.3200000      0.0000000E+00
  0.3300000      0.0000000E+00
  0.3400000      0.0000000E+00
  0.3500000      0.0000000E+00
  0.3600000      0.0000000E+00
  0.3700000      0.0000000E+00
  0.3800000      0.0000000E+00
  0.3900000      0.0000000E+00
  0.4000000      0.0000000E+00
  0.4100000      0.0000000E+00
  0.4200000      0.0000000E+00
  0.4300000      0.0000000E+00
  0.4400000      0.0000000E+00
  0.4500000      0.0000000E+00
  0.4600000      0.0000000E+00
  0.4700000      0.0000000E+00
  0.4800000      0.0000000E+00
  0.4900000      0.0000000E+00
  0.5000000      0.0000000E+00
  0.5100000      0.0000000E+00
  0.5200000      0.0000000E+00
  0.5300000      0.0000000E+00
  0.5400000      0.0000000E+00
  0.5500000      0.0000000E+00
  0.5600000      0.0000000E+00
  0.5700000      0.0000000E+00
  0.5800000      0.0000000E+00
  0.5900000      0.0000000E+00
  0.6000000      0.0000000E+00
  0.6100000      0.0000000E+00
  0.6200000      0.0000000E+00
  0.6300000      0.0000000E+00
  0.6400000      0.0000000E+00
  0.6500000      0.0000000E+00
  0.6600000      0.0000000E+00
  0.6700000      0.0000000E+00
  0.6800000      0.0000000E+00
  0.6900000      0.0000000E+00
  0.7000000      0.0000000E+00
  0.7100000      0.0000000E+00
  0.7200000      0.0000000E+00
  0.7300000      0.0000000E+00
  0.7400000      0.0000000E+00
  0.7500000      0.0000000E+00
  0.7600000      0.0000000E+00
  0.7700000      0.0000000E+00
  0.7800000      0.0000000E+00
  0.7900000      0.0000000E+00
  0.8000000      0.0000000E+00
  0.8100000      0.0000000E+00
  0.8200000      0.0000000E+00
  0.8300000      0.0000000E+00
  0.8400000      0.0000000E+00
  0.8500000      0.0000000E+00
  0.8600000      0.0000000E+00
  0.8700000      0.0000000E+00
  0.8800000      0.0000000E+00
  0.8900000      0.0000000E+00
  0.9000000      0.0000000E+00
  0.9100000      0.0000000E+00
  0.9200000      0.0000000E+00
  0.9300000      0.0000000E+00
  0.9400000      0.0000000E+00
  0.9500000      0.0000000E+00
  0.9600000      0.0000000E+00
  0.9700000      0.0000000E+00
  0.9800000      0.0000000E+00
  0.9900000      0.0000000E+00
   1.000000      0.0000000E+00
   1.010000      0.0000000E+00
   1.020000      0.0000000E+00
   1.030000      0.0000000E+00
   1.040000      0.0000000E+00
   1.050000      0.0000000E+00
   1.060000      0.0000000E+00
   1.070000      0.0000000E+00
   1.080000      0.0000000E+00
   1.090000      0.0000000E+00
   1.100000      0.0000000E+00
   1.110000      0.0000000E+00
   1.120000      0.0000000E+00
   1.130000      0.0000000E+00
   1.140000      0.0000000E+00
   1.150000      0.0000000E+00
   1.160000      0.0000000E+00
   1.170000      0.0000000E+00
   1.180000      0.0000000E+00
   1.190000      0.0000000E+00
   1.200000      0.0000000E+00
   1.210000      0.0000000E+00
   1.220000      0.0000000E+00
   1.230000      0.0000000E+00
   1.240000      0.0000000E+00
   1.250000      0.0000000E+00
   1.260000      0.0000000E+00
   1.270000      0.0000000E+00
   1.280000      0.0000000E+00
   1.290000      0.0000000E+00
   1.300000      0.0000000E+00
   1.310000      0.0000000E+00
   1.320000      0.0000000E+00
   1.330000      0.0000000E+00
   1.340000      0.0000000E+00
   1.350000      0.0000000E+00
   1.360000      0.0000000E+00
   1.370000      0.0000000E+00
   1.380000      0.0000000E+00
   1.390000      0.0000000E+00
   1.400000      0.0000000E+00
   1.410000      0.0000000E+00
   1.420000      0.0000000E+00
   1.430000      0.0000000E+00
   1.440000      0.0000000E+00
   1.450000      0.0000000E+00
   1.460000      0.0000000E+00
   1.470000      0.0000000E+00
   1.480000      0.0000000E+00
   1.490000      0.0000000E+00
   1.500000      0.0000000E+00
   1.510000      0.0000000E+00
   1.520000      0.0000000E+00
   1.530000      0.0000000E+00
   1.540000      0.0000000E+00
   1.550000      0.0000000E+00
   1.560000      0.0000000E+00
   1.570000      0.0000000E+00
   1.580000      0.0000000E+00
   1.590000      0.0000000E+00
   1.600000      0.0000000E+00
   1.610000      0.0000000E+00
   1.620000      0.0000000E+00
   1.630000      0.0000000E+00
   1.640000      0.0000000E+00
   1.650000      0.0000000E+00
   1.660000      0.0000000E+00
   1.670000      0.0000000E+00
   1.680000      0.0000000E+00
   1.690000      0.0000000E+00
   1.700000      0.0000000E+00
   1.710000      0.0000000E+00
   1.720000      0.0000000E+00
   1.730000      0.0000000E+00
   1.740000      0.0000000E+00
   1.750000      0.0000000E+00
   1.760000      0.0000000E+00
   1.770000      0.0000000E+00
   1.780000      0.0000000E+00
   1.790000      0.0000000E+00
   1.800000      0.0000000E+00
   1.810000      0.0000000E+00
   1.820000      0.0000000E+00
   1.830000      0.0000000E+00
   1.840000      0.0000000E+00
   1.850000      0.0000000E+00
   1.860000      0.0000000E+00
   1.870000      0.0000000E+00
   1.880000      0.0000000E+00
   1.890000      0.0000000E+00
   1.900000      0.0000000E+00
   1.910000      0.0000000E+00
   1.920000      0.0000000E+00
   1.930000      0.0000000E+00
   1.940000      0.0000000E+00
   1.950000      0.0000000E+00
   1.960000      0.0000000E+00
   1.970000      0.0000000E+00
   1.980000      0.0000000E+00
   1.990000      0.0000000E+00
   2.000000      0.0000000E+00
   2.010000      0.0000000E+00
   2.020000      0.0000000E+00
   2.030000      0.0000000E+00
   2.040000      0.0000000E+00
   2.050000      0.0000000E+00
   2.060000      0.0000000E+00
   2.070000      0.0000000E+00
   2.080000      0.0000000E+00
   2.090000      0.0000000E+00
   2.100000      0.0000000E+00
   2.110000      0.0000000E+00
   2.120000      0.0000000E+00
   2.130000      0.0000000E+00
   2.140000      0.0000000E+00
   2.150000      0.0000000E+00
   2.160000      0.0000000E+00
   2.170000      0.0000000E+00
   2.180000      0.0000000E+00
   2.190000      0.0000000E+00
   2.200000      0.0000000E+00
   2.210000      0.0000000E+00
   2.220000      0.0000000E+00
   2.230000      0.0000000E+00
   2.240000      0.0000000E+00
   2.250000      0.0000000E+00
   2.260000      0.0000000E+00
   2.270000      0.0000000E+00
   2.280000      0.0000000E+00
   2.290000      0.0000000E+00
   2.300000      0.0000000E+00
   2.310000      0.0000000E+00
   2.320000      0.0000000E+00
   2.330000      0.0000000E+00
   2.340000      0.0000000E+00
   2.350000      0.0000000E+00
   2.360000      0.0000000E+00
   2.370000      0.0000000E+00
   2.380000      0.0000000E+00
   2.390000      0.0000000E+00
   2.400000      0.0000000E+00
   2.410000      0.0000000E+00
   2.420000      0.0000000E+00
   2.430000      0.0000000E+00
   2.440000      0.0000000E+00
   2.450000      0.0000000E+00
   2.460000      0.0000000E+00
   2.470000      0.0000000E+00
   2.480000      0.0000000E+00
   2.490000      0.0000000E+00
   2.500000      0.0000000E+00
   2.510000      0.0000000E+00
   2.520000      0.0000000E+00
   2.530000      0.0000000E+00
   2.540000      0.0000000E+00
   2.550000      0.0000000E+00
   2.560000      0.0000000E+00
   2.570000      0.0000000E+00
   2.580000      0.0000000E+00
   2.590000      0.0000000E+00
   2.600000      0.0000000E+00
   2.610000      0.0000000E+00
   2.620000      0.0000000E+00
   2.630000      0.0000000E+00
   2.640000      0.0000000E+00
   2.650000      0.0000000E+00
   2.660000      0.0000000E+00
   2.670000      0.0000000E+00
   2.680000      0.0000000E+00
   2.690000      0.0000000E+00
   2.700000      0.0000000E+00
   2.710000      0.0000000E+00
   2.720000      0.0000000E+00
   2.730000      0.0000000E+00
   2.740000      0.0000000E+00
   2.750000      0.0000000E+00
   2.760000      0.0000000E+00
   2.770000      0.0000000E+00
   2.780000      0.0000000E+00
   2.790000      0.0000000E+00
   2.800000      0.0000000E+00
   2.810000      0.0000000E+00
   2.820000      0.0000000E+00
   2.830000      0.0000000E+00
   2.840000      0.0000000E+00
   2.850000      0.0000000E+00
   2.860000      0.0000000E+00
   2.870000      0.0000000E+00
   2.880000      0.0000000E+00
   2.890000      1.1892939E-38
   2.900000      1.3403050E-38
   2.910000      1.4951566E-38
   2.920000      1.6502461E-38
   2.930000      1.7836869E-38
   2.940000      1.9068340E-38
   2.950000      2.0606886E-38
   2.960000      2.1742515E-38
   2.970000      2.3642156E-38
   2.980000      2.6888908E-38
   2.990000      3.1492827E-38
   3.000000      3.7675243E-38
   3.010000      4.4166543E-38
   3.020000      5.1463589E-38
   3.030000      5.8876996E-38
   3.040000      6.6404154E-38
   3.050000      7.4688121E-38
   3.060000      8.1294638E-38
   3.070000      8.1930121E-38
   3.080000      7.5143913E-38
   3.090000      6.3924293E-38
   3.100000      4.9216881E-38
   3.110000      3.0268635E-38
   3.120000      0.0000000E+00
   3.130000     -1.8911490E-38
   3.140000     -4.6013280E-38
   3.150000     -7.3815431E-38
   3.160000     -1.0235834E-37
   3.170000     -1.3057176E-37
   3.180000     -1.5791523E-37
   3.190000     -1.8336497E-37
   3.200000     -2.0652018E-37
   3.210000     -2.2666713E-37
   3.220000     -2.4306206E-37
   3.230000     -2.5516268E-37
   3.240000     -2.6485859E-37
   3.250000     -2.7779691E-37
   3.260000     -2.9117877E-37
   3.270000     -3.0304382E-37
   3.280000     -3.2426421E-37
   3.290000     -3.5612409E-37
   3.300000     -3.8991145E-37
   3.310000     -4.2440470E-37
   3.320000     -4.5256286E-37
   3.330000     -4.7554169E-37
   3.340000     -5.0317821E-37
   3.350000     -5.2052426E-37
   3.360000     -5.2479690E-37
   3.370000     -5.2702118E-37
   3.380000     -5.2318821E-37
   3.390000     -4.9886140E-37
   3.400000     -4.5311553E-37
   3.410000     -4.0194262E-37
   3.420000     -3.4618076E-37
   3.430000     -2.8161779E-37
   3.440000     -2.0943764E-37
   3.450000     -1.2908777E-37
   3.460000     -3.9120484E-38
   3.470000      6.0830293E-38
   3.480000      1.6879186E-37
   3.490000      2.8411008E-37
   3.500000      4.0234907E-37
   3.510000      5.0735470E-37
   3.520000      6.1265702E-37
   3.530000      7.3480284E-37
   3.540000      8.6909185E-37
   3.550000      1.0117690E-36
   3.560000      1.1680540E-36
   3.570000      1.3390150E-36
   3.580000      1.5116227E-36
   3.590000      1.6886711E-36
   3.600000      1.8680030E-36
   3.610000      2.0217301E-36
   3.620000      2.1557446E-36
   3.630000      2.3046815E-36
   3.640000      2.5071040E-36
   3.650000      2.8178669E-36
   3.660000      3.1856349E-36
   3.670000      3.5715739E-36
   3.680000      3.9874133E-36
   3.690000      4.4136509E-36
   3.700000      4.8315024E-36
   3.710000      5.0367088E-36
   3.720000      5.0376003E-36
   3.730000      5.0053172E-36
   3.740000      4.9327568E-36
   3.750000      4.8146840E-36
   3.760000      4.5178246E-36
   3.770000      4.0209953E-36
   3.780000      3.4795408E-36
   3.790000      2.9286160E-36
   3.800000      2.3284858E-36
   3.810000      1.7143969E-36
   3.820000      1.1773926E-36
   3.830000      6.3541850E-37
   3.840000      0.0000000E+00
   3.850000     -5.1837765E-37
   3.860000     -8.8354599E-37
   3.870000     -1.2141280E-36
   3.880000     -1.5760847E-36
   3.890000     -2.0455361E-36
   3.900000     -2.5980628E-36
   3.910000     -3.2226105E-36
   3.920000     -4.0324317E-36
   3.930000     -5.0896154E-36
   3.940000     -6.3342314E-36
   3.950000     -7.7328702E-36
   3.960000     -9.2451382E-36
   3.970000     -1.0952688E-35
   3.980000     -1.2734863E-35
   3.990000     -1.4471219E-35
   4.000000     -1.6178974E-35
   4.010000     -1.7767672E-35
   4.020000     -1.9317813E-35
   4.030000     -2.0741619E-35
   4.040000     -2.1933710E-35
   4.050000     -2.3013376E-35
   4.060000     -2.3921828E-35
   4.070000     -2.4527961E-35
   4.080000     -2.4781014E-35
   4.090000     -2.4865497E-35
   4.100000     -2.4908975E-35
   4.110000     -2.4796296E-35
   4.120000     -2.4510211E-35
   4.130000     -2.4049376E-35
   4.140000     -2.3550709E-35
   4.150000     -2.3007515E-35
   4.160000     -2.2274761E-35
   4.170000     -2.1315779E-35
   4.180000     -2.0042278E-35
   4.190000     -1.8339447E-35
   4.200000     -1.6272217E-35
   4.210000     -1.3769730E-35
   4.220000     -1.0819752E-35
   4.230000     -7.6116043E-36
   4.240000     -4.0819052E-36
   4.250000     -2.1858850E-37
   4.260000      3.9312505E-36
   4.270000      8.5038808E-36
   4.280000      1.3416167E-35
   4.290000      1.8567672E-35
   4.300000      2.3889277E-35
   4.310000      2.9316272E-35
   4.320000      3.4923007E-35
   4.330000      4.0595032E-35
   4.340000      4.6300197E-35
   4.350000      5.1915381E-35
   4.360000      5.7554287E-35
   4.370000      6.4156438E-35
   4.380000      7.1432060E-35
   4.390000      7.9263441E-35
   4.400000      8.8042156E-35
   4.410000      9.6907984E-35
   4.420000      1.0532487E-34
   4.430000      1.1286841E-34
   4.440000      1.1899119E-34
   4.450000      1.2425182E-34
   4.460000      1.2960831E-34
   4.470000      1.3470614E-34
   4.480000      1.3940553E-34
   4.490000      1.4373729E-34
   4.500000      1.4737061E-34
   4.510000      1.5025668E-34
   4.520000      1.5357423E-34
   4.530000      1.5687818E-34
   4.540000      1.5873619E-34
   4.550000      1.5942969E-34
   4.560000      1.5905006E-34
   4.570000      1.5752086E-34
   4.580000      1.5438519E-34
   4.590000      1.4942757E-34
   4.600000      1.4301693E-34
   4.610000      1.3537139E-34
   4.620000      1.2461168E-34
   4.630000      1.1059453E-34
   4.640000      9.5494194E-35
   4.650000      7.9121262E-35
   4.660000      5.9911762E-35
   4.670000      3.7603562E-35
   4.680000      1.4737610E-35
   4.690000     -7.4829499E-36
   4.700000     -2.9721626E-35
   4.710000     -5.1010962E-35
   4.720000     -7.2497282E-35
   4.730000     -9.5242593E-35
   4.740000     -1.1803521E-34
   4.750000     -1.4636283E-34
   4.760000     -1.8546063E-34
   4.770000     -2.3050452E-34
   4.780000     -2.7866411E-34
   4.790000     -3.2985113E-34
   4.800000     -3.8112084E-34
   4.810000     -4.3413931E-34
   4.820000     -4.8659612E-34
   4.830000     -5.3674844E-34
   4.840000     -5.8804752E-34
   4.850000     -6.3939950E-34
   4.860000     -6.9011000E-34
   4.870000     -7.3945785E-34
   4.880000     -7.8697492E-34
   4.890000     -8.3361210E-34
   4.900000     -8.7810227E-34
   4.910000     -9.2137984E-34
   4.920000     -9.6293467E-34
   4.930000     -1.0002042E-33
   4.940000     -1.0320414E-33
   4.950000     -1.0585852E-33
   4.960000     -1.0799945E-33
   4.970000     -1.0957476E-33
   4.980000     -1.1065849E-33
   4.990000     -1.1110425E-33
   5.000000     -1.1095722E-33
   5.010000     -1.0997530E-33
   5.020000     -1.0807218E-33
   5.030000     -1.0532124E-33
   5.040000     -1.0169025E-33
   5.050000     -9.7433678E-34
   5.060000     -9.2544742E-34
   5.070000     -8.6787979E-34
   5.080000     -8.0210913E-34
   5.090000     -7.3018320E-34
   5.100000     -6.4857111E-34
   5.110000     -5.5357128E-34
   5.120000     -4.4679300E-34
   5.130000     -3.3129455E-34
   5.140000     -2.0568871E-34
   5.150000     -6.5590817E-35
   5.160000      8.8487226E-35
   5.170000      2.5245481E-34
   5.180000      4.2869710E-34
   5.190000      6.2242816E-34
   5.200000      8.3014366E-34
   5.210000      1.0494130E-33
   5.220000      1.2812726E-33
   5.230000      1.5252682E-33
   5.240000      1.7815473E-33
   5.250000      2.0491866E-33
   5.260000      2.3276193E-33
   5.270000      2.6168501E-33
   5.280000      2.9169207E-33
   5.290000      3.2250521E-33
   5.300000      3.5406602E-33
   5.310000      3.8650967E-33
   5.320000      4.1951277E-33
   5.330000      4.5289384E-33
   5.340000      4.8653906E-33
   5.350000      5.2019361E-33
   5.360000      5.5343134E-33
   5.370000      5.8604326E-33
   5.380000      6.1808103E-33
   5.390000      6.4928203E-33
   5.400000      6.7957143E-33
   5.410000      7.0892749E-33
   5.420000      7.3664903E-33
   5.430000      7.6233747E-33
   5.440000      7.8595514E-33
   5.450000      8.0697974E-33
   5.460000      8.2504650E-33
   5.470000      8.3995206E-33
   5.480000      8.5140725E-33
   5.490000      8.5921871E-33
   5.500000      8.6312884E-33
   5.510000      8.6282446E-33
   5.520000      8.5801206E-33
   5.530000      8.4825024E-33
   5.540000      8.3322169E-33
   5.550000      8.1267971E-33
   5.560000      7.8624394E-33
   5.570000      7.5358753E-33
   5.580000      7.1441000E-33
   5.590000      6.6863853E-33
   5.600000      6.1597182E-33
   5.610000      5.5586707E-33
   5.620000      4.8786913E-33
   5.630000      4.1166760E-33
   5.640000      3.2715738E-33
   5.650000      2.3404680E-33
   5.660000      1.3212959E-33
   5.670000      2.1334423E-34
   5.680000     -9.8607611E-34
   5.690000     -2.2789939E-33
   5.700000     -3.6660752E-33
   5.710000     -5.1482083E-33
   5.720000     -6.7245418E-33
   5.730000     -8.3944799E-33
   5.740000     -1.0157622E-32
   5.750000     -1.2012493E-32
   5.760000     -1.3957178E-32
   5.770000     -1.5989146E-32
   5.780000     -1.8104960E-32
   5.790000     -2.0300974E-32
   5.800000     -2.2572108E-32
   5.810000     -2.4913436E-32
   5.820000     -2.7319547E-32
   5.830000     -2.9783251E-32
   5.840000     -3.2297460E-32
   5.850000     -3.4854239E-32
   5.860000     -3.7444844E-32
   5.870000     -4.0059622E-32
   5.880000     -4.2688592E-32
   5.890000     -4.5320638E-32
   5.900000     -4.7943286E-32
   5.910000     -5.0541743E-32
   5.920000     -5.3102640E-32
   5.930000     -5.5613337E-32
   5.940000     -5.8057407E-32
   5.950000     -6.0417659E-32
   5.960000     -6.2678417E-32
   5.970000     -6.4821978E-32
   5.980000     -6.6828000E-32
   5.990000     -6.8676406E-32
   6.000000     -7.0346496E-32
   6.010000     -7.1816839E-32
   6.020000     -7.3064826E-32
   6.030000     -7.4067752E-32
   6.040000     -7.4799991E-32
   6.050000     -7.5235788E-32
   6.060000     -7.5350886E-32
   6.070000     -7.5120149E-32
   6.080000     -7.4518466E-32
   6.090000     -7.3519096E-32
   6.100000     -7.2095378E-32
   6.110000     -7.0221464E-32
   6.120000     -6.7871351E-32
   6.130000     -6.5018926E-32
   6.140000     -6.1638416E-32
   6.150000     -5.7704794E-32
   6.160000     -5.3193594E-32
   6.170000     -4.8080972E-32
   6.180000     -4.2343951E-32
   6.190000     -3.5960579E-32
   6.200000     -2.8910032E-32
   6.210000     -2.1172754E-32
   6.220000     -1.2730733E-32
   6.230000     -3.5675445E-33
   6.240000      6.3314102E-33
   6.250000      1.6978704E-32
   6.260000      2.8384712E-32
   6.270000      4.0557300E-32
   6.280000      5.3501685E-32
   6.290000      6.7220174E-32
   6.300000      8.1711827E-32
   6.310000      9.6972453E-32
   6.320000      1.1299422E-31
   6.330000      1.2976517E-31
   6.340000      1.4726924E-31
   6.350000      1.6548594E-31
   6.360000      1.8438997E-31
   6.370000      2.0395107E-31
   6.380000      2.2413381E-31
   6.390000      2.4489739E-31
   6.400000      2.6619509E-31
   6.410000      2.8797409E-31
   6.420000      3.1017593E-31
   6.430000      3.3273581E-31
   6.440000      3.5558206E-31
   6.450000      3.7863651E-31
   6.460000      4.0181411E-31
   6.470000      4.2502298E-31
   6.480000      4.4816404E-31
   6.490000      4.7113122E-31
   6.500000      4.9381116E-31
   6.510000      5.1608330E-31
   6.520000      5.3781965E-31
   6.530000      5.5888522E-31
   6.540000      5.7913762E-31
   6.550000      5.9842734E-31
   6.560000      6.1659780E-31
   6.570000      6.3348547E-31
   6.580000      6.4891990E-31
   6.590000      6.6272406E-31
   6.600000      6.7471448E-31
   6.610000      6.8470120E-31
   6.620000      6.9248899E-31
   6.630000      6.9787708E-31
   6.640000      7.0065900E-31
   6.650000      7.0062383E-31
   6.660000      6.9755678E-31
   6.670000      6.9123887E-31
   6.680000      6.8144823E-31
   6.690000      6.6796122E-31
   6.700000      6.5055243E-31
   6.710000      6.2899579E-31
   6.720000      6.0306561E-31
   6.730000      5.7253755E-31
   6.740000      5.3718940E-31
   6.750000      4.9680252E-31
   6.760000      4.5116310E-31
   6.770000      4.0006305E-31
   6.780000      3.4330188E-31
   6.790000      2.8068774E-31
   6.800000      2.1203899E-31
   6.810000      1.3718583E-31
   6.820000      5.5971922E-32
   6.830000     -3.1744034E-32
   6.840000     -1.2608647E-31
   6.850000     -2.2716137E-31
   6.860000     -3.3505442E-31
   6.870000     -4.4982892E-31
   6.880000     -5.7152385E-31
   6.890000     -7.0015237E-31
   6.900000     -8.3569928E-31
   6.910000     -9.7811935E-31
   6.920000     -1.1273354E-30
   6.930000     -1.2832356E-30
   6.940000     -1.4456719E-30
   6.950000     -1.6144582E-30
   6.960000     -1.7893674E-30
   6.970000     -1.9701300E-30
   6.980000     -2.1564320E-30
   6.990000     -2.3479119E-30
   7.000000     -2.5441600E-30
   7.010000     -2.7447154E-30
   7.020000     -2.9490644E-30
   7.030000     -3.1566387E-30
   7.040000     -3.3668137E-30
   7.050000     -3.5789060E-30
   7.060000     -3.7921734E-30