  -2.600000      0.0000000E+00
  -2.590000      0.0000000E+00
  -2.580000      0.0000000E+00
  -2.570000      0.0000000E+00
  -2.560000      0.0000000E+00
  -2.550000      0.0000000E+00
  -2.540000      0.0000000E+00
  -2.530000      0.0000000E+00
  -2.520000      0.0000000E+00
  -2.510000      0.0000000E+00
  -2.500000      0.0000000E+00
  -2.490000      0.0000000E+00
  -2.480000      0.0000000E+00
  -2.470000      0.0000000E+00
  -2.460000      0.0000000E+00
  -2.450000      0.0000000E+00
  -2.440000      0.0000000E+00
  -2.430000      0.0000000E+00
  -2.420000      0.0000000E+00
  -2.410000      0.0000000E+00
  -2.400000      0.0000000E+00
  -2.390000      0.0000000E+00
  -2.380000      0.0000000E+00
  -2.370000      0.0000000E+00
  -2.360000      0.0000000E+00
  -2.350000      0.0000000E+00
  -2.340000      0.0000000E+00
  -2.330000      0.0000000E+00
  -2.320000      0.0000000E+00
  -2.310000      0.0000000E+00
  -2.300000      0.0000000E+00
  -2.290000      0.0000000E+00
  -2.280000      0.0000000E+00
  -2.270000      0.0000000E+00
  -2.260000      0.0000000E+00
  -2.250000      0.0000000E+00
  -2.240000      0.0000000E+00
  -2.230000      0.0000000E+00
  -2.220000      0.0000000E+00
  -2.210000      0.0000000E+00
  -2.200000      0.0000000E+00
  -2.190000      0.0000000E+00
  -2.180000      0.0000000E+00
  -2.170000      0.0000000E+00
  -2.160000      0.0000000E+00
  -2.150000      0.0000000E+00
  -2.140000      0.0000000E+00
  -2.130000      0.0000000E+00
  -2.120000      0.0000000E+00
  -2.110000      0.0000000E+00
  -2.100000      0.0000000E+00
  -2.090000      0.0000000E+00
  -2.080000      0.0000000E+00
  -2.070000      0.0000000E+00
  -2.060000      0.0000000E+00
  -2.050000      0.0000000E+00
  -2.040000      0.0000000E+00
  -2.030000      0.0000000E+00
  -2.020000      0.0000000E+00
  -2.010000      0.0000000E+00
  -2.000000      0.0000000E+00
  -1.990000      0.0000000E+00
  -1.980000      0.0000000E+00
  -1.970000      0.0000000E+00
  -1.960000      0.0000000E+00
  -1.950000      0.0000000E+00
  -1.940000      0.0000000E+00
  -1.930000      0.0000000E+00
  -1.920000      0.0000000E+00
  -1.910000      0.0000000E+00
  -1.900000      0.0000000E+00
  -1.890000      0.0000000E+00
  -1.880000      0.0000000E+00
  -1.870000      0.0000000E+00
  -1.860000      0.0000000E+00
  -1.850000      0.0000000E+00
  -1.840000      0.0000000E+00
  -1.830000      0.0000000E+00
  -1.820000      0.0000000E+00
  -1.810000      0.0000000E+00
  -1.800000      0.0000000E+00
  -1.790000      0.0000000E+00
  -1.780000      0.0000000E+00
  -1.770000      0.0000000E+00
  -1.760000      0.0000000E+00
  -1.750000      0.0000000E+00
  -1.740000      0.0000000E+00
  -1.730000      0.0000000E+00
  -1.720000      0.0000000E+00
  -1.710000      0.0000000E+00
  -1.700000      0.0000000E+00
  -1.690000      0.0000000E+00
  -1.680000      0.0000000E+00
  -1.670000      0.0000000E+00
  -1.660000      0.0000000E+00
  -1.650000      0.0000000E+00
  -1.640000      0.0000000E+00
  -1.630000      0.0000000E+00
  -1.620000      0.0000000E+00
  -1.610000      0.0000000E+00
  -1.600000      0.0000000E+00
  -1.590000      0.0000000E+00
  -1.580000      0.0000000E+00
  -1.570000      0.0000000E+00
  -1.560000      0.0000000E+00
  -1.550000      0.0000000E+00
  -1.540000      0.0000000E+00
  -1.530000      0.0000000E+00
  -1.520000      0.0000000E+00
  -1.510000      0.0000000E+00
  -1.500000      0.0000000E+00
  -1.490000      0.0000000E+00
  -1.480000      0.0000000E+00
  -1.470000      0.0000000E+00
  -1.460000      0.0000000E+00
  -1.450000      0.0000000E+00
  -1.440000      0.0000000E+00
  -1.430000      0.0000000E+00
  -1.420000      0.0000000E+00
  -1.410000      0.0000000E+00
  -1.400000      0.0000000E+00
  -1.390000      0.0000000E+00
  -1.380000      0.0000000E+00
  -1.370000      0.0000000E+00
  -1.360000      0.0000000E+00
  -1.350000      0.0000000E+00
  -1.340000      0.0000000E+00
  -1.330000      0.0000000E+00
  -1.320000      0.0000000E+00
  -1.310000      0.0000000E+00
  -1.300000      0.0000000E+00
  -1.290000      0.0000000E+00
  -1.280000      0.0000000E+00
  -1.270000      0.0000000E+00
  -1.260000      0.0000000E+00
  -1.250000      0.0000000E+00
  -1.240000      0.0000000E+00
  -1.230000      0.0000000E+00
  -1.220000      0.0000000E+00
  -1.210000      0.0000000E+00
  -1.200000      0.0000000E+00
  -1.190000      0.0000000E+00
  -1.180000      0.0000000E+00
  -1.170000      0.0000000E+00
  -1.160000      0.0000000E+00
  -1.150000      0.0000000E+00
  -1.140000      0.0000000E+00
  -1.130000      0.0000000E+00
  -1.120000      0.0000000E+00
  -1.110000      0.0000000E+00
  -1.100000      0.0000000E+00
  -1.090000      0.0000000E+00
  -1.080000      0.0000000E+00
  -1.070000      0.0000000E+00
  -1.060000      0.0000000E+00
  -1.050000      0.0000000E+00
  -1.040000      0.0000000E+00
  -1.030000      0.0000000E+00
  -1.020000      0.0000000E+00
  -1.010000      0.0000000E+00
  -1.000000      0.0000000E+00
 -0.9900000      0.0000000E+00
 -0.9800000      0.0000000E+00
 -0.9700000      0.0000000E+00
 -0.9600000      0.0000000E+00
 -0.9500000      0.0000000E+00
 -0.9400000      0.0000000E+00
 -0.9300000      0.0000000E+00
 -0.9200000      0.0000000E+00
 -0.9100000      0.0000000E+00
 -0.9000000      0.0000000E+00
 -0.8900000      0.0000000E+00
 -0.8800000      0.0000000E+00
 -0.8700000      0.0000000E+00
 -0.8600000      0.0000000E+00
 -0.8500000      0.0000000E+00
 -0.8400000      0.0000000E+00
 -0.8300000      0.0000000E+00
 -0.8200000      0.0000000E+00
 -0.8100000      0.0000000E+00
 -0.8000000      0.0000000E+00
 -0.7900000      0.0000000E+00
 -0.7800000      0.0000000E+00
 -0.7700000      0.0000000E+00
 -0.7600000      0.0000000E+00
 -0.7500000      0.0000000E+00
 -0.7400000      0.0000000E+00
 -0.7300000      0.0000000E+00
 -0.7200000      0.0000000E+00
 -0.7100000      0.0000000E+00
 -0.7000000      0.0000000E+00
 -0.6900000      0.0000000E+00
 -0.6800000      0.0000000E+00
 -0.6700000      0.0000000E+00
 -0.6600000      0.0000000E+00
 -0.6500000      0.0000000E+00
 -0.6400000      0.0000000E+00
 -0.6300000      0.0000000E+00
 -0.6200000      0.0000000E+00
 -0.6100000      0.0000000E+00
 -0.6000000      0.0000000E+00
 -0.5900000      0.0000000E+00
 -0.5800000      0.0000000E+00
 -0.5700000      0.0000000E+00
 -0.5600000      0.0000000E+00
 -0.5500000      0.0000000E+00
 -0.5400000      0.0000000E+00
 -0.5300000      0.0000000E+00
 -0.5200000      0.0000000E+00
 -0.5100000      0.0000000E+00
 -0.5000000      0.0000000E+00
 -0.4900000      0.0000000E+00
 -0.4800000      0.0000000E+00
 -0.4700000      0.0000000E+00
 -0.4600000      0.0000000E+00
 -0.4500000      0.0000000E+00
 -0.4400000      0.0000000E+00
 -0.4300000      0.0000000E+00
 -0.4200000      0.0000000E+00
 -0.4100000      0.0000000E+00
 -0.4000000      0.0000000E+00
 -0.3900000      0.0000000E+00
 -0.3800000      0.0000000E+00
 -0.3700000      0.0000000E+00
 -0.3600000      0.0000000E+00
 -0.3500000      0.0000000E+00
 -0.3400000      0.0000000E+00
 -0.3300000      0.0000000E+00
 -0.3200000      0.0000000E+00
 -0.3100000      0.0000000E+00
 -0.3000000      0.0000000E+00
 -0.2900000      0.0000000E+00
 -0.2800000      0.0000000E+00
 -0.2700000      0.0000000E+00
 -0.2600000      0.0000000E+00
 -0.2500000      0.0000000E+00
 -0.2400000      0.0000000E+00
 -0.2300000      0.0000000E+00
 -0.2200000      0.0000000E+00
 -0.2100000      0.0000000E+00
 -0.2000000      0.0000000E+00
 -0.1900000      0.0000000E+00
 -0.1800000      0.0000000E+00
 -0.1700000      0.0000000E+00
 -0.1600000      0.0000000E+00
 -0.1500000      0.0000000E+00
 -0.1400000      0.0000000E+00
 -0.1300000      0.0000000E+00
 -0.1200000      0.0000000E+00
 -0.1100000      0.0000000E+00
 -0.1000000      0.0000000E+00
 -9.0000004E-02  0.0000000E+00
 -7.9999998E-02  0.0000000E+00
 -7.0000000E-02  0.0000000E+00
 -5.9999999E-02  0.0000000E+00
 -5.0000001E-02  0.0000000E+00
 -3.9999999E-02  0.0000000E+00
 -2.9999999E-02  0.0000000E+00
 -2.0000000E-02  0.0000000E+00
 -9.9999998E-03  0.0000000E+00
 -3.4694470E-17  0.0000000E+00
  9.9999998E-03  0.0000000E+00
  2.0000000E-02  0.0000000E+00
  2.9999999E-02  0.0000000E+00
  3.9999999E-02  0.0000000E+00
  5.0000001E-02  0.0000000E+00
  5.9999999E-02  0.0000000E+00
  7.0000000E-02  0.0000000E+00
  7.9999998E-02  0.0000000E+00
  9.0000004E-02  0.0000000E+00
  0.1000000      0.0000000E+00
  0.1100000      0.0000000E+00
  0.1200000      0.0000000E+00
  0.1300000      0.0000000E+00
  0.1400000      0.0000000E+00
  0.1500000      0.0000000E+00
  0.1600000      0.0000000E+00
  0.1700000      0.0000000E+00
  0.1800000      0.0000000E+00
  0.1900000      0.0000000E+00
  0.2000000      0.0000000E+00
  0.2100000      0.0000000E+00
  0.2200000      0.0000000E+00
  0.2300000      0.0000000E+00
  0.2400000      0.0000000E+00
  0.2500000      0.0000000E+00
  0.2600000      0.0000000E+00
  0.2700000      0.0000000E+00
  0.2800000      0.0000000E+00
  0.2900000      0.0000000E+00
  0.3000000      0.0000000E+00
  0.3100000      0.0000000E+00
  0.3200000      0.0000000E+00
  0.3300000      0.0000000E+00
  0.3400000      0.0000000E+00
  0.3500000      0.0000000E+00
  0.3600000      0.0000000E+00
  0.3700000      0.0000000E+00
  0.3800000      0.0000000E+00
  0.3900000      0.0000000E+00
  0.4000000      0.0000000E+00
  0.4100000      0.0000000E+00
  0.4200000      0.0000000E+00
  0.4300000      0.0000000E+00
  0.4400000      0.0000000E+00
  0.4500000      0.0000000E+00
  0.4600000      0.0000000E+00
  0.4700000      0.0000000E+00
  0.4800000      0.0000000E+00
  0.4900000      0.0000000E+00
  0.5000000      0.0000000E+00
  0.5100000      0.0000000E+00
  0.5200000      0.0000000E+00
  0.5300000      0.0000000E+00
  0.5400000      0.0000000E+00
  0.5500000      0.0000000E+00
  0.5600000      0.0000000E+00
  0.5700000      0.0000000E+00
  0.5800000      0.0000000E+00
  0.5900000      0.0000000E+00
  0.6000000      0.0000000E+00
  0.6100000      0.0000000E+00
  0.6200000      0.0000000E+00
  0.6300000      0.0000000E+00
  0.6400000      0.0000000E+00
  0.6500000      0.0000000E+00
  0.6600000      0.0000000E+00
  0.6700000      0.0000000E+00
  0.6800000      0.0000000E+00
  0.6900000      0.0000000E+00
  0.7000000      0.0000000E+00
  0.7100000      0.0000000E+00
  0.7200000      0.0000000E+00
  0.7300000      0.0000000E+00
  0.7400000      0.0000000E+00
  0.7500000      0.0000000E+00
  0.7600000      0.0000000E+00
  0.7700000      0.0000000E+00
  0.7800000      0.0000000E+00
  0.7900000      0.0000000E+00
  0.8000000      0.0000000E+00
  0.8100000      0.0000000E+00
  0.8200000      0.0000000E+00
  0.8300000      0.0000000E+00
  0.8400000      0.0000000E+00
  0.8500000      0.0000000E+00
  0.8600000      0.0000000E+00
  0.8700000      0.0000000E+00
  0.8800000      0.0000000E+00
  0.8900000      0.0000000E+00
  0.9000000      0.0000000E+00
  0.9100000      0.0000000E+00
  0.9200000      0.0000000E+00
  0.9300000      0.0000000E+00
  0.9400000      0.0000000E+00
  0.9500000      0.0000000E+00
  0.9600000      0.0000000E+00
  0.9700000      0.0000000E+00
  0.9800000      0.0000000E+00
  0.9900000      0.0000000E+00
   1.000000      0.0000000E+00
   1.010000      0.0000000E+00
   1.020000      0.0000000E+00
   1.030000      0.0000000E+00
   1.040000      0.0000000E+00
   1.050000      0.0000000E+00
   1.060000      0.0000000E+00
   1.070000      0.0000000E+00
   1.080000      0.0000000E+00
   1.090000      0.0000000E+00
   1.100000      0.0000000E+00
   1.110000      0.0000000E+00
   1.120000      0.0000000E+00
   1.130000      0.0000000E+00
   1.140000      0.0000000E+00
   1.150000      0.0000000E+00
   1.160000      0.0000000E+00
   1.170000      0.0000000E+00
   1.180000      0.0000000E+00
   1.190000      0.0000000E+00
   1.200000      0.0000000E+00
   1.210000      0.0000000E+00
   1.220000      0.0000000E+00
   1.230000      0.0000000E+00
   1.240000      0.0000000E+00
   1.250000      0.0000000E+00
   1.260000      0.0000000E+00
   1.270000      0.0000000E+00
   1.280000      0.0000000E+00
   1.290000      0.0000000E+00
   1.300000      0.0000000E+00
   1.310000      0.0000000E+00
   1.320000      0.0000000E+00
   1.330000      0.0000000E+00
   1.340000      0.0000000E+00
   1.350000      0.0000000E+00
   1.360000      0.0000000E+00
   1.370000      0.0000000E+00
   1.380000      0.0000000E+00
   1.390000      0.0000000E+00
   1.400000      0.0000000E+00
   1.410000      0.0000000E+00
   1.420000      0.0000000E+00
   1.430000      0.0000000E+00
   1.440000      0.0000000E+00
   1.450000      0.0000000E+00
   1.460000      0.0000000E+00
   1.470000      0.0000000E+00
   1.480000      0.0000000E+00
   1.490000      0.0000000E+00
   1.500000      0.0000000E+00
   1.510000      0.0000000E+00
   1.520000      0.0000000E+00
   1.530000      0.0000000E+00
   1.540000      0.0000000E+00
   1.550000      0.0000000E+00
   1.560000      0.0000000E+00
   1.570000      0.0000000E+00
   1.580000      0.0000000E+00
   1.590000      0.0000000E+00
   1.600000      0.0000000E+00
   1.610000      0.0000000E+00
   1.620000      0.0000000E+00
   1.630000      0.0000000E+00
   1.640000      0.0000000E+00
   1.650000      0.0000000E+00
   1.660000      0.0000000E+00
   1.670000      0.0000000E+00
   1.680000      0.0000000E+00
   1.690000      0.0000000E+00
   1.700000      0.0000000E+00
   1.710000      0.0000000E+00
   1.720000      0.0000000E+00
   1.730000      0.0000000E+00
   1.740000      0.0000000E+00
   1.750000      0.0000000E+00
   1.760000      0.0000000E+00
   1.770000      0.0000000E+00
   1.780000      0.0000000E+00
   1.790000      0.0000000E+00
   1.800000      0.0000000E+00
   1.810000      0.0000000E+00
   1.820000      0.0000000E+00
   1.830000      0.0000000E+00
   1.840000      0.0000000E+00
   1.850000      0.0000000E+00
   1.860000      0.0000000E+00
   1.870000      0.0000000E+00
   1.880000      0.0000000E+00
   1.890000      0.0000000E+00
   1.900000      0.0000000E+00
   1.910000      0.0000000E+00
   1.920000      0.0000000E+00
   1.930000      0.0000000E+00
   1.940000      0.0000000E+00
   1.950000      0.0000000E+00
   1.960000      0.0000000E+00
   1.970000      0.0000000E+00
   1.980000      0.0000000E+00
   1.990000      0.0000000E+00
   2.000000      0.0000000E+00
   2.010000      0.0000000E+00
   2.020000      0.0000000E+00
   2.030000      0.0000000E+00
   2.040000      0.0000000E+00
   2.050000      0.0000000E+00
   2.060000      0.0000000E+00
   2.070000      0.0000000E+00
   2.080000      0.0000000E+00
   2.090000      0.0000000E+00
   2.100000      0.0000000E+00
   2.110000      0.0000000E+00
   2.120000      0.0000000E+00
   2.130000      0.0000000E+00
   2.140000      0.0000000E+00
   2.150000      0.0000000E+00
   2.160000      0.0000000E+00
   2.170000      0.0000000E+00
   2.180000      0.0000000E+00
   2.190000      0.0000000E+00
   2.200000      0.0000000E+00
   2.210000      0.0000000E+00
   2.220000      0.0000000E+00
   2.230000      0.0000000E+00
   2.240000      0.0000000E+00
   2.250000      0.0000000E+00
   2.260000      0.0000000E+00
   2.270000      0.0000000E+00
   2.280000      0.0000000E+00
   2.290000      0.0000000E+00
   2.300000      0.0000000E+00
   2.310000      0.0000000E+00
   2.320000      0.0000000E+00
   2.330000      0.0000000E+00
   2.340000      0.0000000E+00
   2.350000      0.0000000E+00
   2.360000      0.0000000E+00
   2.370000      0.0000000E+00
   2.380000      0.0000000E+00
   2.390000      0.0000000E+00
   2.400000      0.0000000E+00
   2.410000      0.0000000E+00
   2.420000      0.0000000E+00
   2.430000      0.0000000E+00
   2.440000      0.0000000E+00
   2.450000      0.0000000E+00
   2.460000      0.0000000E+00
   2.470000      0.0000000E+00
   2.480000      0.0000000E+00
   2.490000      0.0000000E+00
   2.500000      0.0000000E+00
   2.510000      0.0000000E+00
   2.520000      0.0000000E+00
   2.530000      0.0000000E+00
   2.540000      0.0000000E+00
   2.550000      0.0000000E+00
   2.560000      0.0000000E+00
   2.570000      0.0000000E+00
   2.580000      0.0000000E+00
   2.590000      0.0000000E+00
   2.600000      0.0000000E+00
   2.610000      0.0000000E+00
   2.620000      0.0000000E+00
   2.630000      0.0000000E+00
   2.640000      0.0000000E+00
   2.650000      0.0000000E+00
   2.660000      0.0000000E+00
   2.670000      0.0000000E+00
   2.680000      0.0000000E+00
   2.690000      0.0000000E+00
   2.700000      0.0000000E+00
   2.710000      0.0000000E+00
   2.720000      0.0000000E+00
   2.730000      0.0000000E+00
   2.740000      0.0000000E+00
   2.750000      0.0000000E+00
   2.760000      0.0000000E+00
   2.770000      0.0000000E+00
   2.780000      0.0000000E+00
   2.790000      0.0000000E+00
   2.800000      0.0000000E+00
   2.810000      0.0000000E+00
   2.820000      0.0000000E+00
   2.830000      0.0000000E+00
   2.840000      0.0000000E+00
   2.850000      0.0000000E+00
   2.860000      0.0000000E+00
   2.870000      0.0000000E+00
   2.880000      0.0000000E+00
   2.890000      0.0000000E+00
   2.900000      0.0000000E+00
   2.910000      0.0000000E+00
   2.920000      0.0000000E+00
   2.930000      0.0000000E+00
   2.940000      0.0000000E+00
   2.950000      0.0000000E+00
   2.960000      0.0000000E+00
   2.970000      0.0000000E+00
   2.980000      0.0000000E+00
   2.990000      0.0000000E+00
   3.000000      0.0000000E+00
   3.010000      0.0000000E+00
   3.020000      0.0000000E+00
   3.030000     -1.5331706E-38
   3.040000     -2.0560920E-38
   3.050000     -2.7974620E-38
   3.060000     -3.6588323E-38
   3.070000     -4.5295423E-38
   3.080000     -5.5037617E-38
   3.090000     -6.5159414E-38
   3.100000     -6.5635200E-38
   3.110000     -5.3362993E-38
   3.120000     -3.4887800E-38
   3.130000     -1.2917391E-38
   3.140000      2.0565355E-38
   3.150000      6.7599966E-38
   3.160000      1.1598950E-37
   3.170000      1.5973597E-37
   3.180000      1.9482775E-37
   3.190000      2.1183729E-37
   3.200000      2.1679004E-37
   3.210000      2.1783658E-37
   3.220000      2.1496172E-37
   3.230000      2.1289044E-37
   3.240000      2.0939314E-37
   3.250000      2.1124339E-37
   3.260000      2.2024842E-37
   3.270000      2.3053866E-37
   3.280000      2.4577493E-37
   3.290000      2.6728405E-37
   3.300000      2.9894014E-37
   3.310000      3.3866651E-37
   3.320000      3.6934468E-37
   3.330000      4.0032160E-37
   3.340000      4.5648658E-37
   3.350000      5.0817948E-37
   3.360000      5.3335043E-37
   3.370000      5.4841271E-37
   3.380000      5.4953397E-37
   3.390000      5.3050537E-37
   3.400000      4.8735959E-37
   3.410000      4.2063899E-37
   3.420000      3.4030098E-37
   3.430000      2.4986654E-37
   3.440000      1.6873209E-37
   3.450000      9.9179231E-38
   3.460000      3.3007916E-38
   3.470000     -5.4204781E-38
   3.480000     -1.6958875E-37
   3.490000     -2.7973771E-37
   3.500000     -3.8260686E-37
   3.510000     -4.9521027E-37
   3.520000     -6.2549901E-37
   3.530000     -7.3313469E-37
   3.540000     -8.3859009E-37
   3.550000     -9.7952063E-37
   3.560000     -1.1001178E-36
   3.570000     -1.1988726E-36
   3.580000     -1.3096305E-36
   3.590000     -1.4400664E-36
   3.600000     -1.5831749E-36
   3.610000     -1.7859762E-36
   3.620000     -2.0825623E-36
   3.630000     -2.4813004E-36
   3.640000     -2.9368086E-36
   3.650000     -3.4701535E-36
   3.660000     -4.1014898E-36
   3.670000     -4.7000216E-36
   3.680000     -4.9681048E-36
   3.690000     -4.8551020E-36
   3.700000     -4.5526367E-36
   3.710000     -4.0897769E-36
   3.720000     -3.4613423E-36
   3.730000     -2.7271937E-36
   3.740000     -1.9700127E-36
   3.750000     -1.3058659E-36
   3.760000     -1.0845725E-36
   3.770000     -1.2381332E-36
   3.780000     -1.4974581E-36
   3.790000     -1.8414238E-36
   3.800000     -1.9359954E-36
   3.810000     -1.7580874E-36
   3.820000     -1.5679713E-36
   3.830000     -1.2920686E-36
   3.840000     -6.1498192E-37
   3.850000      3.1181505E-37
   3.860000      1.2395416E-36
   3.870000      2.3917504E-36
   3.880000      3.7279945E-36
   3.890000      4.7868592E-36
   3.900000      5.6929043E-36
   3.910000      6.6721917E-36
   3.920000      7.6226002E-36
   3.930000      8.5948575E-36
   3.940000      9.4266360E-36
   3.950000      1.0170755E-35
   3.960000      1.0762132E-35
   3.970000      1.1131655E-35
   3.980000      1.1835259E-35
   3.990000      1.3049630E-35
   4.000000      1.4410373E-35
   4.010000      1.6402102E-35
   4.020000      1.8755573E-35
   4.030000      2.0412817E-35
   4.040000      2.1446220E-35
   4.050000      2.2069866E-35
   4.060000      2.2005200E-35
   4.070000      2.1303622E-35
   4.080000      2.0363703E-35
   4.090000      1.9168800E-35
   4.100000      1.7688033E-35
   4.110000      1.6580029E-35
   4.120000      1.5919804E-35
   4.130000      1.5409570E-35
   4.140000      1.5270820E-35
   4.150000      1.5580576E-35
   4.160000      1.6083922E-35
   4.170000      1.6350598E-35
   4.180000      1.5836242E-35
   4.190000      1.4456092E-35
   4.200000      1.2538785E-35
   4.210000      9.9405869E-36
   4.220000      5.9685012E-36
   4.230000      5.5805826E-37
   4.240000     -5.5411964E-36
   4.250000     -1.2067114E-35
   4.260000     -1.8984786E-35
   4.270000     -2.5734550E-35
   4.280000     -3.1255608E-35
   4.290000     -3.5329388E-35
   4.300000     -3.8659966E-35
   4.310000     -4.1266386E-35
   4.320000     -4.3699516E-35
   4.330000     -4.6986116E-35
   4.340000     -5.0888407E-35
   4.350000     -5.4199806E-35
   4.360000     -5.6926109E-35
   4.370000     -5.9082940E-35
   4.380000     -6.1104303E-35
   4.390000     -6.4880865E-35
   4.400000     -6.9425196E-35
   4.410000     -7.2939470E-35
   4.420000     -7.6387687E-35
   4.430000     -7.9174280E-35
   4.440000     -8.0806231E-35
   4.450000     -8.5385080E-35
   4.460000     -9.3459113E-35
   4.470000     -1.0197951E-34
   4.480000     -1.0923714E-34
   4.490000     -1.1508064E-34
   4.500000     -1.1901254E-34
   4.510000     -1.2169859E-34
   4.520000     -1.2107813E-34
   4.530000     -1.1577919E-34
   4.540000     -1.0861975E-34
   4.550000     -1.0003631E-34
   4.560000     -9.1153141E-35
   4.570000     -8.4686855E-35
   4.580000     -7.9960277E-35
   4.590000     -6.7353398E-35
   4.600000     -5.0864645E-35
   4.610000     -3.8007618E-35
   4.620000     -2.4806699E-35
   4.630000     -7.0326633E-36
   4.640000      1.4204525E-35
   4.650000      2.9873811E-35
   4.660000      4.1261399E-35
   4.670000      5.8471873E-35
   4.680000      8.4415188E-35
   4.690000      1.0453311E-34
   4.700000      1.1115366E-34
   4.710000      1.1059115E-34
   4.720000      1.0733947E-34
   4.730000      1.0380990E-34
   4.740000      1.0704279E-34
   4.750000      1.2001979E-34
   4.760000      1.4079726E-34
   4.770000      1.6935527E-34
   4.780000      2.0745404E-34
   4.790000      2.5566621E-34
   4.800000      3.2022987E-34
   4.810000      4.0112464E-34
   4.820000      4.7902754E-34
   4.830000      5.5644725E-34
   4.840000      6.3692012E-34
   4.850000      7.0887585E-34
   4.860000      7.4942219E-34
   4.870000      7.5298031E-34
   4.880000      7.2759468E-34
   4.890000      6.7731865E-34
   4.900000      6.2205627E-34
   4.910000      5.7584644E-34
   4.920000      5.4149345E-34
   4.930000      5.1969340E-34
   4.940000      5.1441621E-34
   4.950000      5.3456216E-34
   4.960000      5.7087621E-34
   4.970000      6.0800526E-34
   4.980000      6.4314749E-34
   4.990000      6.7352640E-34
   5.000000      6.9883304E-34
   5.010000      7.1388961E-34
   5.020000      7.0619150E-34
   5.030000      6.6851709E-34
   5.040000      6.0331256E-34
   5.050000      5.1461040E-34
   5.060000      4.0848801E-34
   5.070000      2.8714232E-34
   5.080000      1.5204685E-34
   5.090000      1.8952664E-35
   5.100000     -9.8046090E-35
   5.110000     -1.9775266E-34
   5.120000     -2.7130740E-34
   5.130000     -3.3064852E-34
   5.140000     -3.9175686E-34
   5.150000     -4.5354108E-34
   5.160000     -5.2514292E-34
   5.170000     -6.2623424E-34
   5.180000     -7.6164274E-34
   5.190000     -9.2014539E-34
   5.200000     -1.1052741E-33
   5.210000     -1.3159847E-33
   5.220000     -1.5425208E-33
   5.230000     -1.7685535E-33
   5.240000     -1.9880442E-33
   5.250000     -2.2055510E-33
   5.260000     -2.4126156E-33
   5.270000     -2.6037159E-33
   5.280000     -2.7775673E-33
   5.290000     -2.9383537E-33
   5.300000     -3.0905109E-33
   5.310000     -3.2315434E-33
   5.320000     -3.3661372E-33
   5.330000     -3.5007419E-33
   5.340000     -3.6386535E-33
   5.350000     -3.7835104E-33
   5.360000     -3.9390342E-33
   5.370000     -4.1055264E-33
   5.380000     -4.2770737E-33
   5.390000     -4.4462251E-33
   5.400000     -4.6070287E-33
   5.410000     -4.7551307E-33
   5.420000     -4.8827390E-33
   5.430000     -4.9815919E-33
   5.440000     -5.0465335E-33
   5.450000     -5.0758944E-33
   5.460000     -5.0689149E-33
   5.470000     -5.0265747E-33
   5.480000     -4.9493808E-33
   5.490000     -4.8370197E-33
   5.500000     -4.6937258E-33
   5.510000     -4.5244598E-33
   5.520000     -4.3325805E-33
   5.530000     -4.1174841E-33
   5.540000     -3.8776330E-33
   5.550000     -3.6114030E-33
   5.560000     -3.3106024E-33
   5.570000     -2.9664382E-33
   5.580000     -2.5747145E-33
   5.590000     -2.1321350E-33
   5.600000     -1.6275366E-33
   5.610000     -1.0519947E-33
   5.620000     -4.0155406E-34
   5.630000      3.1997032E-34
   5.640000      1.1056308E-33
   5.650000      1.9542572E-33
   5.660000      2.8592117E-33
   5.670000      3.8161036E-33
   5.680000      4.8191499E-33
   5.690000      5.8614832E-33
   5.700000      6.9379425E-33
   5.710000      8.0534595E-33
   5.720000      9.2101812E-33
   5.730000      1.0403564E-32
   5.740000      1.1638177E-32
   5.750000      1.2916420E-32
   5.760000      1.4239934E-32
   5.770000      1.5610693E-32
   5.780000      1.7029404E-32
   5.790000      1.8494864E-32
   5.800000      2.0000146E-32
   5.810000      2.1541772E-32
   5.820000      2.3113720E-32
   5.830000      2.4703322E-32
   5.840000      2.6299279E-32
   5.850000      2.7889847E-32
   5.860000      2.9463399E-32
   5.870000      3.1008921E-32
   5.880000      3.2516745E-32
   5.890000      3.3978314E-32
   5.900000      3.5386938E-32
   5.910000      3.6736300E-32
   5.920000      3.8019654E-32
   5.930000      3.9230472E-32
   5.940000      4.0361883E-32
   5.950000      4.1405237E-32
   5.960000      4.2349244E-32
   5.970000      4.3180612E-32
   5.980000      4.3883649E-32
   5.990000      4.4440610E-32
   6.000000      4.4831991E-32
   6.010000      4.5037309E-32
   6.020000      4.5035904E-32
   6.030000      4.4807464E-32
   6.040000      4.4333044E-32
   6.050000      4.3594680E-32
   6.060000      4.2576629E-32
   6.070000      4.1265638E-32
   6.080000      3.9648990E-32
   6.090000      3.7715269E-32
   6.100000      3.5454314E-32
   6.110000      3.2855749E-32
   6.120000      2.9909049E-32
   6.130000      2.6602357E-32
   6.140000      2.2920418E-32
   6.150000      1.8851322E-32
   6.160000      1.4382295E-32
   6.170000      9.4951519E-33
   6.180000      4.1735446E-33
   6.190000     -1.5972514E-33
   6.200000     -7.8307055E-33
   6.210000     -1.4537844E-32
   6.220000     -2.1726896E-32
   6.230000     -2.9402684E-32
   6.240000     -3.7566334E-32
   6.250000     -4.6215298E-32
   6.260000     -5.5344325E-32
   6.270000     -6.4945381E-32
   6.280000     -7.5007507E-32
   6.290000     -8.5518213E-32
   6.300000     -9.6463594E-32
   6.310000     -1.0782847E-31
   6.320000     -1.1959652E-31
   6.330000     -1.3175007E-31
   6.340000     -1.4426962E-31
   6.350000     -1.5713311E-31
   6.360000     -1.7031530E-31
   6.370000     -1.8378705E-31
   6.380000     -1.9751441E-31
   6.390000     -2.1145820E-31
   6.400000     -2.2557349E-31
   6.410000     -2.3980943E-31
   6.420000     -2.5410918E-31
   6.430000     -2.6841038E-31
   6.440000     -2.8264552E-31
   6.450000     -2.9674248E-31
   6.460000     -3.1062497E-31
   6.470000     -3.2421321E-31
   6.480000     -3.3742452E-31
   6.490000     -3.5017309E-31
   6.500000     -3.6237051E-31
   6.510000     -3.7392532E-31
   6.520000     -3.8474243E-31
   6.530000     -3.9472296E-31
   6.540000     -4.0376378E-31
   6.550000     -4.1175672E-31
   6.560000     -4.1858855E-31
   6.570000     -4.2414060E-31
   6.580000     -4.2828897E-31
   6.590000     -4.3090473E-31
   6.600000     -4.3185438E-31
   6.610000     -4.3100069E-31
   6.620000     -4.2820353E-31
   6.630000     -4.2332100E-31
   6.640000     -4.1621025E-31
   6.650000     -4.0672824E-31
   6.660000     -3.9473284E-31
   6.670000     -3.8008319E-31
   6.680000     -3.6264015E-31
   6.690000     -3.4226676E-31
   6.700000     -3.1882837E-31
   6.710000     -2.9219268E-31
   6.720000     -2.6223024E-31
   6.730000     -2.2881444E-31
   6.740000     -1.9182208E-31
   6.750000     -1.5113414E-31
   6.760000     -1.0663664E-31
   6.770000     -5.8221771E-32
   6.780000     -5.7892718E-33
   6.790000      5.0751986E-32
   6.800000      1.1148232E-31
   6.810000      1.7646975E-31
   6.820000      2.4576824E-31
   6.830000      3.1941635E-31
   6.840000      3.9743553E-31
   6.850000      4.7982922E-31
   6.860000      5.6658174E-31
   6.870000      6.5765730E-31
   6.880000      7.5299930E-31
   6.890000      8.5252906E-31
   6.900000      9.5614551E-31
   6.910000      1.0637236E-30
   6.920000      1.1751139E-30
   6.930000      1.2901403E-30
   6.940000      1.4085999E-30
   6.950000      1.5302600E-30
   6.960000      1.6548574E-30
   6.970000      1.7820965E-30
   6.980000      1.9116465E-30
   6.990000      2.0431410E-30
   7.000000      2.1761771E-30
   7.010000      2.3103115E-30
   7.020000      2.4450629E-30
   7.030000      2.5799082E-30
   7.040000      2.7142845E-30
   7.050000      2.8475877E-30
   7.060000      2.9791727E-30