  -2.600000      0.0000000E+00
  -2.590000      0.0000000E+00
  -2.580000      0.0000000E+00
  -2.570000      0.0000000E+00
  -2.560000      0.0000000E+00
  -2.550000      0.0000000E+00
  -2.540000      0.0000000E+00
  -2.530000      0.0000000E+00
  -2.520000      0.0000000E+00
  -2.510000      0.0000000E+00
  -2.500000      0.0000000E+00
  -2.490000      0.0000000E+00
  -2.480000      0.0000000E+00
  -2.470000      0.0000000E+00
  -2.460000      0.0000000E+00
  -2.450000      0.0000000E+00
  -2.440000      0.0000000E+00
  -2.430000      0.0000000E+00
  -2.420000      0.0000000E+00
  -2.410000      0.0000000E+00
  -2.400000      0.0000000E+00
  -2.390000      0.0000000E+00
  -2.380000      0.0000000E+00
  -2.370000      0.0000000E+00
  -2.360000      0.0000000E+00
  -2.350000      0.0000000E+00
  -2.340000      0.0000000E+00
  -2.330000      0.0000000E+00
  -2.320000      0.0000000E+00
  -2.310000      0.0000000E+00
  -2.300000      0.0000000E+00
  -2.290000      0.0000000E+00
  -2.280000      0.0000000E+00
  -2.270000      0.0000000E+00
  -2.260000      0.0000000E+00
  -2.250000      0.0000000E+00
  -2.240000      0.0000000E+00
  -2.230000      0.0000000E+00
  -2.220000      0.0000000E+00
  -2.210000      0.0000000E+00
  -2.200000      0.0000000E+00
  -2.190000      0.0000000E+00
  -2.180000      0.0000000E+00
  -2.170000      0.0000000E+00
  -2.160000      0.0000000E+00
  -2.150000      0.0000000E+00
  -2.140000      0.0000000E+00
  -2.130000      0.0000000E+00
  -2.120000      0.0000000E+00
  -2.110000      0.0000000E+00
  -2.100000      0.0000000E+00
  -2.090000      0.0000000E+00
  -2.080000      0.0000000E+00
  -2.070000      0.0000000E+00
  -2.060000      0.0000000E+00
  -2.050000      0.0000000E+00
  -2.040000      0.0000000E+00
  -2.030000      0.0000000E+00
  -2.020000      0.0000000E+00
  -2.010000      0.0000000E+00
  -2.000000      0.0000000E+00
  -1.990000      0.0000000E+00
  -1.980000      0.0000000E+00
  -1.970000      0.0000000E+00
  -1.960000      0.0000000E+00
  -1.950000      0.0000000E+00
  -1.940000      0.0000000E+00
  -1.930000      0.0000000E+00
  -1.920000      0.0000000E+00
  -1.910000      0.0000000E+00
  -1.900000      0.0000000E+00
  -1.890000      0.0000000E+00
  -1.880000      0.0000000E+00
  -1.870000      0.0000000E+00
  -1.860000      0.0000000E+00
  -1.850000      0.0000000E+00
  -1.840000      0.0000000E+00
  -1.830000      0.0000000E+00
  -1.820000      0.0000000E+00
  -1.810000      0.0000000E+00
  -1.800000      0.0000000E+00
  -1.790000      0.0000000E+00
  -1.780000      0.0000000E+00
  -1.770000      0.0000000E+00
  -1.760000      0.0000000E+00
  -1.750000      0.0000000E+00
  -1.740000      0.0000000E+00
  -1.730000      0.0000000E+00
  -1.720000      0.0000000E+00
  -1.710000      0.0000000E+00
  -1.700000      0.0000000E+00
  -1.690000      0.0000000E+00
  -1.680000      0.0000000E+00
  -1.670000      0.0000000E+00
  -1.660000      0.0000000E+00
  -1.650000      0.0000000E+00
  -1.640000      0.0000000E+00
  -1.630000      0.0000000E+00
  -1.620000      0.0000000E+00
  -1.610000      0.0000000E+00
  -1.600000      0.0000000E+00
  -1.590000      0.0000000E+00
  -1.580000      0.0000000E+00
  -1.570000      0.0000000E+00
  -1.560000      0.0000000E+00
  -1.550000      0.0000000E+00
  -1.540000      0.0000000E+00
  -1.530000      0.0000000E+00
  -1.520000      0.0000000E+00
  -1.510000      0.0000000E+00
  -1.500000      0.0000000E+00
  -1.490000      0.0000000E+00
  -1.480000      0.0000000E+00
  -1.470000      0.0000000E+00
  -1.460000      0.0000000E+00
  -1.450000      0.0000000E+00
  -1.440000      0.0000000E+00
  -1.430000      0.0000000E+00
  -1.420000      0.0000000E+00
  -1.410000      0.0000000E+00
  -1.400000      0.0000000E+00
  -1.390000      0.0000000E+00
  -1.380000      0.0000000E+00
  -1.370000      0.0000000E+00
  -1.360000      0.0000000E+00
  -1.350000      0.0000000E+00
  -1.340000      0.0000000E+00
  -1.330000      0.0000000E+00
  -1.320000      0.0000000E+00
  -1.310000      0.0000000E+00
  -1.300000      0.0000000E+00
  -1.290000      0.0000000E+00
  -1.280000      0.0000000E+00
  -1.270000      0.0000000E+00
  -1.260000      0.0000000E+00
  -1.250000      0.0000000E+00
  -1.240000      0.0000000E+00
  -1.230000      0.0000000E+00
  -1.220000      0.0000000E+00
  -1.210000      0.0000000E+00
  -1.200000      0.0000000E+00
  -1.190000      0.0000000E+00
  -1.180000      0.0000000E+00
  -1.170000      0.0000000E+00
  -1.160000      0.0000000E+00
  -1.150000      0.0000000E+00
  -1.140000      0.0000000E+00
  -1.130000      0.0000000E+00
  -1.120000      0.0000000E+00
  -1.110000      0.0000000E+00
  -1.100000      0.0000000E+00
  -1.090000      0.0000000E+00
  -1.080000      0.0000000E+00
  -1.070000      0.0000000E+00
  -1.060000      0.0000000E+00
  -1.050000      0.0000000E+00
  -1.040000      0.0000000E+00
  -1.030000      0.0000000E+00
  -1.020000      0.0000000E+00
  -1.010000      0.0000000E+00
  -1.000000      0.0000000E+00
 -0.9900000      0.0000000E+00
 -0.9800000      0.0000000E+00
 -0.9700000      0.0000000E+00
 -0.9600000      0.0000000E+00
 -0.9500000      0.0000000E+00
 -0.9400000      0.0000000E+00
 -0.9300000      0.0000000E+00
 -0.9200000      0.0000000E+00
 -0.9100000      0.0000000E+00
 -0.9000000      0.0000000E+00
 -0.8900000      0.0000000E+00
 -0.8800000      0.0000000E+00
 -0.8700000      0.0000000E+00
 -0.8600000      0.0000000E+00
 -0.8500000      0.0000000E+00
 -0.8400000      0.0000000E+00
 -0.8300000      0.0000000E+00
 -0.8200000      0.0000000E+00
 -0.8100000      0.0000000E+00
 -0.8000000      0.0000000E+00
 -0.7900000      0.0000000E+00
 -0.7800000      0.0000000E+00
 -0.7700000      0.0000000E+00
 -0.7600000      0.0000000E+00
 -0.7500000      0.0000000E+00
 -0.7400000      0.0000000E+00
 -0.7300000      0.0000000E+00
 -0.7200000      0.0000000E+00
 -0.7100000      0.0000000E+00
 -0.7000000      0.0000000E+00
 -0.6900000      0.0000000E+00
 -0.6800000      0.0000000E+00
 -0.6700000      0.0000000E+00
 -0.6600000      0.0000000E+00
 -0.6500000      0.0000000E+00
 -0.6400000      0.0000000E+00
 -0.6300000      0.0000000E+00
 -0.6200000      0.0000000E+00
 -0.6100000      0.0000000E+00
 -0.6000000      0.0000000E+00
 -0.5900000      0.0000000E+00
 -0.5800000      0.0000000E+00
 -0.5700000      0.0000000E+00
 -0.5600000      0.0000000E+00
 -0.5500000      0.0000000E+00
 -0.5400000      0.0000000E+00
 -0.5300000      0.0000000E+00
 -0.5200000      0.0000000E+00
 -0.5100000      0.0000000E+00
 -0.5000000      0.0000000E+00
 -0.4900000      0.0000000E+00
 -0.4800000      0.0000000E+00
 -0.4700000      0.0000000E+00
 -0.4600000      0.0000000E+00
 -0.4500000      0.0000000E+00
 -0.4400000      0.0000000E+00
 -0.4300000      0.0000000E+00
 -0.4200000      0.0000000E+00
 -0.4100000      0.0000000E+00
 -0.4000000      0.0000000E+00
 -0.3900000      0.0000000E+00
 -0.3800000      0.0000000E+00
 -0.3700000      0.0000000E+00
 -0.3600000      0.0000000E+00
 -0.3500000      0.0000000E+00
 -0.3400000      0.0000000E+00
 -0.3300000      0.0000000E+00
 -0.3200000      0.0000000E+00
 -0.3100000      0.0000000E+00
 -0.3000000      0.0000000E+00
 -0.2900000      0.0000000E+00
 -0.2800000      0.0000000E+00
 -0.2700000      0.0000000E+00
 -0.2600000      0.0000000E+00
 -0.2500000      0.0000000E+00
 -0.2400000      0.0000000E+00
 -0.2300000      0.0000000E+00
 -0.2200000      0.0000000E+00
 -0.2100000      0.0000000E+00
 -0.2000000      0.0000000E+00
 -0.1900000      0.0000000E+00
 -0.1800000      0.0000000E+00
 -0.1700000      0.0000000E+00
 -0.1600000      0.0000000E+00
 -0.1500000      0.0000000E+00
 -0.1400000      0.0000000E+00
 -0.1300000      0.0000000E+00
 -0.1200000      0.0000000E+00
 -0.1100000      0.0000000E+00
 -0.1000000      0.0000000E+00
 -9.0000004E-02  0.0000000E+00
 -7.9999998E-02  0.0000000E+00
 -7.0000000E-02  0.0000000E+00
 -5.9999999E-02  0.0000000E+00
 -5.0000001E-02  0.0000000E+00
 -3.9999999E-02  0.0000000E+00
 -2.9999999E-02  0.0000000E+00
 -2.0000000E-02  0.0000000E+00
 -9.9999998E-03  0.0000000E+00
 -3.4694470E-17  0.0000000E+00
  9.9999998E-03  0.0000000E+00
  2.0000000E-02  0.0000000E+00
  2.9999999E-02  0.0000000E+00
  3.9999999E-02  0.0000000E+00
  5.0000001E-02  0.0000000E+00
  5.9999999E-02  0.0000000E+00
  7.0000000E-02  0.0000000E+00
  7.9999998E-02  0.0000000E+00
  9.0000004E-02  0.0000000E+00
  0.1000000      0.0000000E+00
  0.1100000      0.0000000E+00
  0.1200000      0.0000000E+00
  0.1300000      0.0000000E+00
  0.1400000      0.0000000E+00
  0.1500000      0.0000000E+00
  0.1600000      0.0000000E+00
  0.1700000      0.0000000E+00
  0.1800000      0.0000000E+00
  0.1900000      0.0000000E+00
  0.2000000      0.0000000E+00
  0.2100000      0.0000000E+00
  0.2200000      0.0000000E+00
  0.2300000      0.0000000E+00
  0.2400000      0.0000000E+00
  0.2500000      0.0000000E+00
  0.2600000      0.0000000E+00
  0.2700000      0.0000000E+00
  0.2800000      0.0000000E+00
  0.2900000      0.0000000E+00
  0.3000000      0.0000000E+00
  0.3100000      0.0000000E+00
  0.3200000      0.0000000E+00
  0.3300000      0.0000000E+00
  0.3400000      0.0000000E+00
  0.3500000      0.0000000E+00
  0.3600000      0.0000000E+00
  0.3700000      0.0000000E+00
  0.3800000      0.0000000E+00
  0.3900000      0.0000000E+00
  0.4000000      0.0000000E+00
  0.4100000      0.0000000E+00
  0.4200000      0.0000000E+00
  0.4300000      0.0000000E+00
  0.4400000      0.0000000E+00
  0.4500000      0.0000000E+00
  0.4600000      0.0000000E+00
  0.4700000      0.0000000E+00
  0.4800000      0.0000000E+00
  0.4900000      0.0000000E+00
  0.5000000      0.0000000E+00
  0.5100000      0.0000000E+00
  0.5200000      0.0000000E+00
  0.5300000      0.0000000E+00
  0.5400000      0.0000000E+00
  0.5500000      0.0000000E+00
  0.5600000      0.0000000E+00
  0.5700000      0.0000000E+00
  0.5800000      0.0000000E+00
  0.5900000      0.0000000E+00
  0.6000000      0.0000000E+00
  0.6100000      0.0000000E+00
  0.6200000      0.0000000E+00
  0.6300000      0.0000000E+00
  0.6400000      0.0000000E+00
  0.6500000      0.0000000E+00
  0.6600000      0.0000000E+00
  0.6700000      0.0000000E+00
  0.6800000      0.0000000E+00
  0.6900000      0.0000000E+00
  0.7000000      0.0000000E+00
  0.7100000      0.0000000E+00
  0.7200000      0.0000000E+00
  0.7300000      0.0000000E+00
  0.7400000      0.0000000E+00
  0.7500000      0.0000000E+00
  0.7600000      0.0000000E+00
  0.7700000      0.0000000E+00
  0.7800000      0.0000000E+00
  0.7900000      0.0000000E+00
  0.8000000      0.0000000E+00
  0.8100000      0.0000000E+00
  0.8200000      0.0000000E+00
  0.8300000      0.0000000E+00
  0.8400000      0.0000000E+00
  0.8500000      0.0000000E+00
  0.8600000      0.0000000E+00
  0.8700000      0.0000000E+00
  0.8800000      0.0000000E+00
  0.8900000      0.0000000E+00
  0.9000000      0.0000000E+00
  0.9100000      0.0000000E+00
  0.9200000      0.0000000E+00
  0.9300000      0.0000000E+00
  0.9400000      0.0000000E+00
  0.9500000      0.0000000E+00
  0.9600000      0.0000000E+00
  0.9700000      0.0000000E+00
  0.9800000      0.0000000E+00
  0.9900000      0.0000000E+00
   1.000000      0.0000000E+00
   1.010000      0.0000000E+00
   1.020000      0.0000000E+00
   1.030000      0.0000000E+00
   1.040000      0.0000000E+00
   1.050000      0.0000000E+00
   1.060000      0.0000000E+00
   1.070000      0.0000000E+00
   1.080000      0.0000000E+00
   1.090000      0.0000000E+00
   1.100000      0.0000000E+00
   1.110000      0.0000000E+00
   1.120000      0.0000000E+00
   1.130000      0.0000000E+00
   1.140000      0.0000000E+00
   1.150000      0.0000000E+00
   1.160000      0.0000000E+00
   1.170000      0.0000000E+00
   1.180000      0.0000000E+00
   1.190000      0.0000000E+00
   1.200000      0.0000000E+00
   1.210000      0.0000000E+00
   1.220000      0.0000000E+00
   1.230000      0.0000000E+00
   1.240000      0.0000000E+00
   1.250000      0.0000000E+00
   1.260000      0.0000000E+00
   1.270000      0.0000000E+00
   1.280000      0.0000000E+00
   1.290000      0.0000000E+00
   1.300000      0.0000000E+00
   1.310000      0.0000000E+00
   1.320000      0.0000000E+00
   1.330000      0.0000000E+00
   1.340000      0.0000000E+00
   1.350000      0.0000000E+00
   1.360000      0.0000000E+00
   1.370000      0.0000000E+00
   1.380000      0.0000000E+00
   1.390000      0.0000000E+00
   1.400000      0.0000000E+00
   1.410000      0.0000000E+00
   1.420000      0.0000000E+00
   1.430000      0.0000000E+00
   1.440000      0.0000000E+00
   1.450000      0.0000000E+00
   1.460000      0.0000000E+00
   1.470000      0.0000000E+00
   1.480000      0.0000000E+00
   1.490000      0.0000000E+00
   1.500000      0.0000000E+00
   1.510000      0.0000000E+00
   1.520000      0.0000000E+00
   1.530000      0.0000000E+00
   1.540000      0.0000000E+00
   1.550000      0.0000000E+00
   1.560000      0.0000000E+00
   1.570000      0.0000000E+00
   1.580000      0.0000000E+00
   1.590000      0.0000000E+00
   1.600000      0.0000000E+00
   1.610000      0.0000000E+00
   1.620000      0.0000000E+00
   1.630000      0.0000000E+00
   1.640000      0.0000000E+00
   1.650000      0.0000000E+00
   1.660000      0.0000000E+00
   1.670000      0.0000000E+00
   1.680000      0.0000000E+00
   1.690000      0.0000000E+00
   1.700000      0.0000000E+00
   1.710000      0.0000000E+00
   1.720000      0.0000000E+00
   1.730000      0.0000000E+00
   1.740000      0.0000000E+00
   1.750000      0.0000000E+00
   1.760000      0.0000000E+00
   1.770000      0.0000000E+00
   1.780000      0.0000000E+00
   1.790000      0.0000000E+00
   1.800000      0.0000000E+00
   1.810000      0.0000000E+00
   1.820000      0.0000000E+00
   1.830000      0.0000000E+00
   1.840000      0.0000000E+00
   1.850000      0.0000000E+00
   1.860000      0.0000000E+00
   1.870000      0.0000000E+00
   1.880000      0.0000000E+00
   1.890000      0.0000000E+00
   1.900000      0.0000000E+00
   1.910000      0.0000000E+00
   1.920000      0.0000000E+00
   1.930000      0.0000000E+00
   1.940000      0.0000000E+00
   1.950000      0.0000000E+00
   1.960000      0.0000000E+00
   1.970000      0.0000000E+00
   1.980000      0.0000000E+00
   1.990000      0.0000000E+00
   2.000000      0.0000000E+00
   2.010000      0.0000000E+00
   2.020000      0.0000000E+00
   2.030000      0.0000000E+00
   2.040000      0.0000000E+00
   2.050000      0.0000000E+00
   2.060000      0.0000000E+00
   2.070000      0.0000000E+00
   2.080000      0.0000000E+00
   2.090000      0.0000000E+00
   2.100000      0.0000000E+00
   2.110000      0.0000000E+00
   2.120000      0.0000000E+00
   2.130000      0.0000000E+00
   2.140000      0.0000000E+00
   2.150000      0.0000000E+00
   2.160000      0.0000000E+00
   2.170000      0.0000000E+00
   2.180000      0.0000000E+00
   2.190000      0.0000000E+00
   2.200000      0.0000000E+00
   2.210000      0.0000000E+00
   2.220000      0.0000000E+00
   2.230000      0.0000000E+00
   2.240000      0.0000000E+00
   2.250000      0.0000000E+00
   2.260000      0.0000000E+00
   2.270000      0.0000000E+00
   2.280000      0.0000000E+00
   2.290000      0.0000000E+00
   2.300000      0.0000000E+00
   2.310000      0.0000000E+00
   2.320000      0.0000000E+00
   2.330000      0.0000000E+00
   2.340000      0.0000000E+00
   2.350000      0.0000000E+00
   2.360000      0.0000000E+00
   2.370000      0.0000000E+00
   2.380000      0.0000000E+00
   2.390000      0.0000000E+00
   2.400000      0.0000000E+00
   2.410000      0.0000000E+00
   2.420000      0.0000000E+00
   2.430000      0.0000000E+00
   2.440000      0.0000000E+00
   2.450000      0.0000000E+00
   2.460000      0.0000000E+00
   2.470000      0.0000000E+00
   2.480000      0.0000000E+00
   2.490000      0.0000000E+00
   2.500000      0.0000000E+00
   2.510000      0.0000000E+00
   2.520000      0.0000000E+00
   2.530000      0.0000000E+00
   2.540000      0.0000000E+00
   2.550000      0.0000000E+00
   2.560000      0.0000000E+00
   2.570000      0.0000000E+00
   2.580000      0.0000000E+00
   2.590000      0.0000000E+00
   2.600000      0.0000000E+00
   2.610000      0.0000000E+00
   2.620000      0.0000000E+00
   2.630000      0.0000000E+00
   2.640000      0.0000000E+00
   2.650000      0.0000000E+00
   2.660000      0.0000000E+00
   2.670000      0.0000000E+00
   2.680000      0.0000000E+00
   2.690000      0.0000000E+00
   2.700000      0.0000000E+00
   2.710000      0.0000000E+00
   2.720000      0.0000000E+00
   2.730000      0.0000000E+00
   2.740000      0.0000000E+00
   2.750000      0.0000000E+00
   2.760000      0.0000000E+00
   2.770000      0.0000000E+00
   2.780000      0.0000000E+00
   2.790000      0.0000000E+00
   2.800000      0.0000000E+00
   2.810000      0.0000000E+00
   2.820000      0.0000000E+00
   2.830000      0.0000000E+00
   2.840000      0.0000000E+00
   2.850000      0.0000000E+00
   2.860000      0.0000000E+00
   2.870000      0.0000000E+00
   2.880000      0.0000000E+00
   2.890000      0.0000000E+00
   2.900000      0.0000000E+00
   2.910000      0.0000000E+00
   2.920000      0.0000000E+00
   2.930000      0.0000000E+00
   2.940000      0.0000000E+00
   2.950000      0.0000000E+00
   2.960000      0.0000000E+00
   2.970000      0.0000000E+00
   2.980000      0.0000000E+00
   2.990000      0.0000000E+00
   3.000000      0.0000000E+00
   3.010000      0.0000000E+00
   3.020000      0.0000000E+00
   3.030000      0.0000000E+00
   3.040000      0.0000000E+00
   3.050000      0.0000000E+00
   3.060000      0.0000000E+00
   3.070000      0.0000000E+00
   3.080000      0.0000000E+00
   3.090000      0.0000000E+00
   3.100000      0.0000000E+00
   3.110000      0.0000000E+00
   3.120000      0.0000000E+00
   3.130000      0.0000000E+00
   3.140000      0.0000000E+00
   3.150000      0.0000000E+00
   3.160000      0.0000000E+00
   3.170000      0.0000000E+00
   3.180000      0.0000000E+00
   3.190000      0.0000000E+00
   3.200000      0.0000000E+00
   3.210000      0.0000000E+00
   3.220000      0.0000000E+00
   3.230000      0.0000000E+00
   3.240000      0.0000000E+00
   3.250000      0.0000000E+00
   3.260000      0.0000000E+00
   3.270000      0.0000000E+00
   3.280000      0.0000000E+00
   3.290000      0.0000000E+00
   3.300000      0.0000000E+00
   3.310000      0.0000000E+00
   3.320000      0.0000000E+00
   3.330000      0.0000000E+00
   3.340000      0.0000000E+00
   3.350000      0.0000000E+00
   3.360000      0.0000000E+00
   3.370000      0.0000000E+00
   3.380000      0.0000000E+00
   3.390000      0.0000000E+00
   3.400000      0.0000000E+00
   3.410000      0.0000000E+00
   3.420000      0.0000000E+00
   3.430000      0.0000000E+00
   3.440000      0.0000000E+00
   3.450000      0.0000000E+00
   3.460000      0.0000000E+00
   3.470000      0.0000000E+00
   3.480000      0.0000000E+00
   3.490000      0.0000000E+00
   3.500000      0.0000000E+00
   3.510000      0.0000000E+00
   3.520000      0.0000000E+00
   3.530000      0.0000000E+00
   3.540000      0.0000000E+00
   3.550000      0.0000000E+00
   3.560000      0.0000000E+00
   3.570000      0.0000000E+00
   3.580000      0.0000000E+00
   3.590000      0.0000000E+00
   3.600000      0.0000000E+00
   3.610000      0.0000000E+00
   3.620000      0.0000000E+00
   3.630000      0.0000000E+00
   3.640000      0.0000000E+00
   3.650000      0.0000000E+00
   3.660000      0.0000000E+00
   3.670000      0.0000000E+00
   3.680000      0.0000000E+00
   3.690000      0.0000000E+00
   3.700000      0.0000000E+00
   3.710000      0.0000000E+00
   3.720000      0.0000000E+00
   3.730000      0.0000000E+00
   3.740000      0.0000000E+00
   3.750000      0.0000000E+00
   3.760000      0.0000000E+00
   3.770000      0.0000000E+00
   3.780000      0.0000000E+00
   3.790000      0.0000000E+00
   3.800000      0.0000000E+00
   3.810000      0.0000000E+00
   3.820000      0.0000000E+00
   3.830000      0.0000000E+00
   3.840000      0.0000000E+00
   3.850000      0.0000000E+00
   3.860000      0.0000000E+00
   3.870000      0.0000000E+00
   3.880000      0.0000000E+00
   3.890000      0.0000000E+00
   3.900000      0.0000000E+00
   3.910000      0.0000000E+00
   3.920000      0.0000000E+00
   3.930000      0.0000000E+00
   3.940000      0.0000000E+00
   3.950000      0.0000000E+00
   3.960000      0.0000000E+00
   3.970000      0.0000000E+00
   3.980000      0.0000000E+00
   3.990000      0.0000000E+00
   4.000000      0.0000000E+00
   4.010000      0.0000000E+00
   4.020000      0.0000000E+00
   4.030000      0.0000000E+00
   4.040000      0.0000000E+00
   4.050000      0.0000000E+00
   4.060000      0.0000000E+00
   4.070000      0.0000000E+00
   4.080000      0.0000000E+00
   4.090000      0.0000000E+00
   4.100000      0.0000000E+00
   4.110000      0.0000000E+00
   4.120000      0.0000000E+00
   4.130000      0.0000000E+00
   4.140000      0.0000000E+00
   4.150000      0.0000000E+00
   4.160000      0.0000000E+00
   4.170000      0.0000000E+00
   4.180000      0.0000000E+00
   4.190000      0.0000000E+00
   4.200000      0.0000000E+00
   4.210000      0.0000000E+00
   4.220000      0.0000000E+00
   4.230000      0.0000000E+00
   4.240000      0.0000000E+00
   4.250000      0.0000000E+00
   4.260000      0.0000000E+00
   4.270000      0.0000000E+00
   4.280000      0.0000000E+00
   4.290000      0.0000000E+00
   4.300000      0.0000000E+00
   4.310000      0.0000000E+00
   4.320000      0.0000000E+00
   4.330000      0.0000000E+00
   4.340000      0.0000000E+00
   4.350000      0.0000000E+00
   4.360000      0.0000000E+00
   4.370000      0.0000000E+00
   4.380000      0.0000000E+00
   4.390000      0.0000000E+00
   4.400000      0.0000000E+00
   4.410000      0.0000000E+00
   4.420000      0.0000000E+00
   4.430000      0.0000000E+00
   4.440000      0.0000000E+00
   4.450000      0.0000000E+00
   4.460000      0.0000000E+00
   4.470000      0.0000000E+00
   4.480000      0.0000000E+00
   4.490000      0.0000000E+00
   4.500000      0.0000000E+00
   4.510000      0.0000000E+00
   4.520000      0.0000000E+00
   4.530000      1.1891810E-38
   4.540000      1.2414062E-38
   4.550000      1.2903830E-38
   4.560000      1.3353487E-38
   4.570000      1.3755441E-38
   4.580000      1.4102177E-38
   4.590000      1.4386499E-38
   4.600000      1.4334276E-38
   4.610000      1.3929638E-38
   4.620000      1.3423537E-38
   4.630000      1.2809273E-38
   4.640000      1.2081363E-38
   4.650000      0.0000000E+00
   4.660000      0.0000000E+00
   4.670000      0.0000000E+00
   4.680000      0.0000000E+00
   4.690000      0.0000000E+00
   4.700000      0.0000000E+00
   4.710000      0.0000000E+00
   4.720000      0.0000000E+00
   4.730000      0.0000000E+00
   4.740000      0.0000000E+00
   4.750000     -1.1885298E-38
   4.760000     -1.5295307E-38
   4.770000     -1.8902554E-38
   4.780000     -2.2781300E-38
   4.790000     -2.6984530E-38
   4.800000     -3.1532029E-38
   4.810000     -3.6420879E-38
   4.820000     -4.1760025E-38
   4.830000     -4.6419105E-38
   4.840000     -5.0124715E-38
   4.850000     -5.3660376E-38
   4.860000     -5.7739421E-38
   4.870000     -6.2505927E-38
   4.880000     -6.7172458E-38
   4.890000     -7.1683154E-38
   4.900000     -7.5992690E-38
   4.910000     -8.0219612E-38
   4.920000     -8.4364457E-38
   4.930000     -8.8294577E-38
   4.940000     -9.2015406E-38
   4.950000     -9.5485778E-38
   4.960000     -1.0049779E-37
   4.970000     -1.0713050E-37
   4.980000     -1.1316620E-37
   4.990000     -1.1851805E-37
   5.000000     -1.2377156E-37
   5.010000     -1.2878099E-37
   5.020000     -1.3228208E-37
   5.030000     -1.3929160E-37
   5.040000     -1.5058793E-37
   5.050000     -1.6040347E-37
   5.060000     -1.6759503E-37
   5.070000     -1.7079912E-37
   5.080000     -1.7089052E-37
   5.090000     -1.7046977E-37
   5.100000     -1.6954206E-37
   5.110000     -1.6262476E-37
   5.120000     -1.4920172E-37
   5.130000     -1.3358063E-37
   5.140000     -1.0662488E-37
   5.150000     -6.4553061E-38
   5.160000     -2.6663683E-38
   5.170000      0.0000000E+00
   5.180000      2.2284705E-38
   5.190000      4.8340162E-38
   5.200000      7.7473745E-38
   5.210000      1.0789693E-37
   5.220000      1.4378406E-37
   5.230000      1.8335458E-37
   5.240000      2.2539310E-37
   5.250000      2.7482261E-37
   5.260000      3.3153520E-37
   5.270000      3.9215304E-37
   5.280000      4.5769520E-37
   5.290000      5.2906775E-37
   5.300000      6.0764727E-37
   5.310000      6.9122134E-37
   5.320000      7.6109735E-37
   5.330000      8.1476739E-37
   5.340000      8.6732949E-37
   5.350000      9.2407513E-37
   5.360000      9.8611718E-37
   5.370000      1.0515485E-36
   5.380000      1.1310262E-36
   5.390000      1.2170113E-36
   5.400000      1.2465877E-36
   5.410000      1.2165015E-36
   5.420000      1.1720399E-36
   5.430000      1.1144446E-36
   5.440000      1.0360152E-36
   5.450000      9.2939612E-37
   5.460000      7.9453210E-37
   5.470000      6.3076121E-37
   5.480000      4.0538565E-37
   5.490000      1.3902368E-37
   5.500000     -1.2640891E-37
   5.510000     -3.6539730E-37
   5.520000     -5.6056660E-37
   5.530000     -7.2868233E-37
   5.540000     -8.6217316E-37
   5.550000     -9.6237690E-37
   5.560000     -1.0066622E-36
   5.570000     -1.0018419E-36
   5.580000     -9.8848150E-37
   5.590000     -9.8944586E-37
   5.600000     -1.0201148E-36
   5.610000     -1.0712788E-36
   5.620000     -1.1277170E-36
   5.630000     -1.1324027E-36
   5.640000     -1.1039376E-36
   5.650000     -1.0898100E-36
   5.660000     -1.0727126E-36
   5.670000     -1.0837762E-36
   5.680000     -1.1477451E-36
   5.690000     -1.2896626E-36
   5.700000     -1.5231113E-36
   5.710000     -1.8189057E-36
   5.720000     -2.1323174E-36
   5.730000     -2.4578059E-36
   5.740000     -2.7953939E-36
   5.750000     -3.1896161E-36
   5.760000     -3.6505090E-36
   5.770000     -4.1067593E-36
   5.780000     -4.5929823E-36
   5.790000     -5.0910532E-36
   5.800000     -5.5757193E-36
   5.810000     -6.0355924E-36
   5.820000     -6.4180592E-36
   5.830000     -6.7183355E-36
   5.840000     -6.9725914E-36
   5.850000     -7.1878000E-36
   5.860000     -7.1998290E-36
   5.870000     -6.9582737E-36
   5.880000     -6.9079758E-36
   5.890000     -6.9974652E-36
   5.900000     -6.9239136E-36
   5.910000     -6.8096781E-36
   5.920000     -6.6483554E-36
   5.930000     -6.4434417E-36
   5.940000     -6.2487942E-36
   5.950000     -5.7512765E-36
   5.960000     -4.9146243E-36
   5.970000     -3.9083124E-36
   5.980000     -2.8044530E-36
   5.990000     -1.6819727E-36
   6.000000     -4.9583563E-37
   6.010000      6.2094064E-37
   6.020000      1.6012498E-36
   6.030000      2.4686140E-36
   6.040000      3.4001705E-36
   6.050000      4.3056821E-36
   6.060000      5.3168996E-36
   6.070000      6.6458472E-36
   6.080000      7.4780418E-36
   6.090000      7.4088287E-36
   6.100000      6.9910073E-36
   6.110000      6.8166791E-36
   6.120000      7.4762890E-36
   6.130000      8.9475360E-36
   6.140000      1.1212620E-35
   6.150000      1.3803971E-35
   6.160000      1.6508036E-35
   6.170000      1.9735958E-35
   6.180000      2.3368137E-35
   6.190000      2.7751774E-35
   6.200000      3.2842448E-35
   6.210000      3.7947782E-35
   6.220000      4.2959265E-35
   6.230000      4.7859380E-35
   6.240000      5.2512776E-35
   6.250000      5.7173393E-35
   6.260000      6.2057837E-35
   6.270000      6.8642642E-35
   6.280000      7.6597077E-35
   6.290000      8.2874389E-35
   6.300000      8.7484411E-35
   6.310000      9.1753154E-35
   6.320000      9.5302011E-35
   6.330000      9.8051703E-35
   6.340000      1.0056193E-34
   6.350000      1.0283265E-34
   6.360000      1.0436032E-34
   6.370000      1.0510252E-34
   6.380000      1.0484034E-34
   6.390000      1.0334333E-34
   6.400000      1.0126467E-34
   6.410000      9.9007883E-35
   6.420000      9.6988443E-35
   6.430000      9.4593873E-35
   6.440000      9.1441384E-35
   6.450000      8.7763011E-35
   6.460000      8.3536202E-35
   6.470000      7.9030586E-35
   6.480000      7.4132373E-35
   6.490000      6.8921197E-35
   6.500000      6.3345192E-35
   6.510000      5.6898914E-35
   6.520000      4.9205367E-35
   6.530000      4.0485369E-35
   6.540000      2.9938619E-35
   6.550000      1.8371022E-35
   6.560000      6.1071538E-36
   6.570000     -7.8909930E-36
   6.580000     -2.5261488E-35
   6.590000     -4.7842985E-35
   6.600000     -7.4646727E-35
   6.610000     -1.0380911E-34
   6.620000     -1.3483019E-34
   6.630000     -1.6794794E-34
   6.640000     -2.0210747E-34
   6.650000     -2.3479000E-34
   6.660000     -2.6437231E-34
   6.670000     -2.9329489E-34
   6.680000     -3.2341817E-34
   6.690000     -3.5291575E-34
   6.700000     -3.8166368E-34
   6.710000     -4.1090112E-34
   6.720000     -4.3894029E-34
   6.730000     -4.6616253E-34
   6.740000     -4.9490838E-34
   6.750000     -5.2611637E-34
   6.760000     -5.5925654E-34
   6.770000     -5.9345048E-34
   6.780000     -6.2783337E-34
   6.790000     -6.6191770E-34
   6.800000     -6.9596029E-34
   6.810000     -7.2977339E-34
   6.820000     -7.6291627E-34
   6.830000     -7.9413037E-34
   6.840000     -8.2350781E-34
   6.850000     -8.5393016E-34
   6.860000     -8.8647758E-34
   6.870000     -9.1653763E-34
   6.880000     -9.4449566E-34
   6.890000     -9.7219554E-34
   6.900000     -9.9624965E-34
   6.910000     -1.0178692E-33
   6.920000     -1.0377515E-33
   6.930000     -1.0527291E-33
   6.940000     -1.0616387E-33
   6.950000     -1.0667947E-33
   6.960000     -1.0678255E-33
   6.970000     -1.0593780E-33
   6.980000     -1.0412114E-33
   6.990000     -1.0167685E-33
   7.000000     -9.8139360E-34
   7.010000     -9.3578727E-34
   7.020000     -8.8536480E-34
   7.030000     -8.2858494E-34
   7.040000     -7.6649395E-34
   7.050000     -7.0175640E-34
   7.060000     -6.3348842E-34