  -2.600000      0.0000000E+00
  -2.590000      0.0000000E+00
  -2.580000      0.0000000E+00
  -2.570000      0.0000000E+00
  -2.560000      0.0000000E+00
  -2.550000      0.0000000E+00
  -2.540000      0.0000000E+00
  -2.530000      0.0000000E+00
  -2.520000      0.0000000E+00
  -2.510000      0.0000000E+00
  -2.500000      0.0000000E+00
  -2.490000      0.0000000E+00
  -2.480000      0.0000000E+00
  -2.470000      0.0000000E+00
  -2.460000      0.0000000E+00
  -2.450000      0.0000000E+00
  -2.440000      0.0000000E+00
  -2.430000      0.0000000E+00
  -2.420000      0.0000000E+00
  -2.410000      0.0000000E+00
  -2.400000      0.0000000E+00
  -2.390000      0.0000000E+00
  -2.380000      0.0000000E+00
  -2.370000      0.0000000E+00
  -2.360000      0.0000000E+00
  -2.350000      0.0000000E+00
  -2.340000      0.0000000E+00
  -2.330000      0.0000000E+00
  -2.320000      0.0000000E+00
  -2.310000      0.0000000E+00
  -2.300000      0.0000000E+00
  -2.290000      0.0000000E+00
  -2.280000      0.0000000E+00
  -2.270000      0.0000000E+00
  -2.260000      0.0000000E+00
  -2.250000      0.0000000E+00
  -2.240000      0.0000000E+00
  -2.230000      0.0000000E+00
  -2.220000      0.0000000E+00
  -2.210000      0.0000000E+00
  -2.200000      0.0000000E+00
  -2.190000      0.0000000E+00
  -2.180000      0.0000000E+00
  -2.170000      0.0000000E+00
  -2.160000      0.0000000E+00
  -2.150000      0.0000000E+00
  -2.140000      0.0000000E+00
  -2.130000      0.0000000E+00
  -2.120000      0.0000000E+00
  -2.110000      0.0000000E+00
  -2.100000      0.0000000E+00
  -2.090000      0.0000000E+00
  -2.080000      0.0000000E+00
  -2.070000      0.0000000E+00
  -2.060000      0.0000000E+00
  -2.050000      0.0000000E+00
  -2.040000      0.0000000E+00
  -2.030000      0.0000000E+00
  -2.020000      0.0000000E+00
  -2.010000      0.0000000E+00
  -2.000000      0.0000000E+00
  -1.990000      0.0000000E+00
  -1.980000      0.0000000E+00
  -1.970000      0.0000000E+00
  -1.960000      0.0000000E+00
  -1.950000      0.0000000E+00
  -1.940000      0.0000000E+00
  -1.930000      0.0000000E+00
  -1.920000      0.0000000E+00
  -1.910000      0.0000000E+00
  -1.900000      0.0000000E+00
  -1.890000      0.0000000E+00
  -1.880000      0.0000000E+00
  -1.870000      0.0000000E+00
  -1.860000      0.0000000E+00
  -1.850000      0.0000000E+00
  -1.840000      0.0000000E+00
  -1.830000      0.0000000E+00
  -1.820000      0.0000000E+00
  -1.810000      0.0000000E+00
  -1.800000      0.0000000E+00
  -1.790000      0.0000000E+00
  -1.780000      0.0000000E+00
  -1.770000      0.0000000E+00
  -1.760000      0.0000000E+00
  -1.750000      0.0000000E+00
  -1.740000      0.0000000E+00
  -1.730000      0.0000000E+00
  -1.720000      0.0000000E+00
  -1.710000      0.0000000E+00
  -1.700000      0.0000000E+00
  -1.690000      0.0000000E+00
  -1.680000      0.0000000E+00
  -1.670000      0.0000000E+00
  -1.660000      0.0000000E+00
  -1.650000      0.0000000E+00
  -1.640000      0.0000000E+00
  -1.630000      0.0000000E+00
  -1.620000      0.0000000E+00
  -1.610000      1.1991082E-38
  -1.600000      1.7912364E-38
  -1.590000      2.7726128E-38
  -1.580000      3.4638254E-38
  -1.570000      3.6567323E-38
  -1.560000      3.6931386E-38
  -1.550000      3.3637716E-38
  -1.540000      2.6136103E-38
  -1.530000      1.8026542E-38
  -1.520000      3.2117024E-38
  -1.510000      7.1573528E-38
  -1.500000      1.2348919E-37
  -1.490000      2.0264946E-37
  -1.480000      3.0838597E-37
  -1.470000      4.1944962E-37
  -1.460000      4.3448189E-37
  -1.450000      2.9241621E-37
  -1.440000      2.4453619E-38
  -1.430000     -2.8614019E-37
  -1.420000     -5.3604218E-37
  -1.410000     -9.6628045E-37
  -1.400000     -1.5273911E-36
  -1.390000     -2.1377526E-36
  -1.380000     -2.9537239E-36
  -1.370000     -3.4845932E-36
  -1.360000     -3.4438684E-36
  -1.350000     -3.2135296E-36
  -1.340000     -2.9814184E-36
  -1.330000     -3.2670905E-36
  -1.320000     -4.1733138E-36
  -1.310000     -6.8924018E-36
  -1.300000     -1.3169740E-35
  -1.290000     -2.3508499E-35
  -1.280000     -3.8010411E-35
  -1.270000     -5.5304748E-35
  -1.260000     -7.5273441E-35
  -1.250000     -9.6183740E-35
  -1.240000     -1.1684715E-34
  -1.230000     -1.3713061E-34
  -1.220000     -1.5748998E-34
  -1.210000     -1.7980607E-34
  -1.200000     -2.0558923E-34
  -1.190000     -2.4854618E-34
  -1.180000     -3.2128802E-34
  -1.170000     -4.1926274E-34
  -1.160000     -5.3247731E-34
  -1.150000     -6.6291223E-34
  -1.140000     -8.3323025E-34
  -1.130000     -1.0471535E-33
  -1.120000     -1.2944434E-33
  -1.110000     -1.5609920E-33
  -1.100000     -1.8416999E-33
  -1.090000     -2.1497922E-33
  -1.080000     -2.4930013E-33
  -1.070000     -2.8812898E-33
  -1.060000     -3.3315369E-33
  -1.050000     -3.8634822E-33
  -1.040000     -4.4938697E-33
  -1.030000     -5.2400104E-33
  -1.020000     -6.1179320E-33
  -1.010000     -7.1425322E-33
  -1.000000     -8.3272299E-33
 -0.9900000     -9.6853028E-33
 -0.9800000     -1.1231165E-32
 -0.9700000     -1.2981882E-32
 -0.9600000     -1.4958440E-32
 -0.9500000     -1.7187047E-32
 -0.9400000     -1.9700580E-32
 -0.9300000     -2.2534334E-32
 -0.9200000     -2.5745736E-32
 -0.9100000     -2.9387088E-32
 -0.9000000     -3.3504243E-32
 -0.8900000     -3.8163970E-32
 -0.8800000     -4.3436973E-32
 -0.8700000     -4.9398569E-32
 -0.8600000     -5.6123919E-32
 -0.8500000     -6.3691581E-32
 -0.8400000     -7.2185856E-32
 -0.8300000     -8.1697475E-32
 -0.8200000     -9.2325677E-32
 -0.8100000     -1.0418055E-31
 -0.8000000     -1.1738550E-31
 -0.7900000     -1.3207944E-31
 -0.7800000     -1.4841888E-31
 -0.7700000     -1.6657955E-31
 -0.7600000     -1.8675761E-31
 -0.7500000     -2.0917040E-31
 -0.7400000     -2.3405703E-31
 -0.7300000     -2.6167870E-31
 -0.7200000     -2.9231918E-31
 -0.7100000     -3.2628563E-31
 -0.7000000     -3.6390966E-31
 -0.6900000     -4.0554894E-31
 -0.6800000     -4.5158943E-31
 -0.6700000     -5.0244785E-31
 -0.6600000     -5.5857493E-31
 -0.6500000     -6.2045855E-31
 -0.6400000     -6.8862707E-31
 -0.6300000     -7.6365290E-31
 -0.6200000     -8.4615544E-31
 -0.6100000     -9.3680439E-31
 -0.6000000     -1.0363230E-30
 -0.5900000     -1.1454908E-30
 -0.5800000     -1.2651478E-30
 -0.5700000     -1.3961986E-30
 -0.5600000     -1.5396171E-30
 -0.5500000     -1.6964524E-30
 -0.5400000     -1.8678366E-30
 -0.5300000     -2.0549915E-30
 -0.5200000     -2.2592396E-30
 -0.5100000     -2.4820125E-30
 -0.5000000     -2.7248621E-30
 -0.4900000     -2.9894708E-30
 -0.4800000     -3.2776623E-30
 -0.4700000     -3.5914106E-30
 -0.4600000     -3.9328490E-30
 -0.4500000     -4.3042804E-30
 -0.4400000     -4.7081806E-30
 -0.4300000     -5.1472084E-30
 -0.4200000     -5.6242097E-30
 -0.4100000     -6.1422243E-30
 -0.4000000     -6.7044917E-30
 -0.3900000     -7.3144607E-30
 -0.3800000     -7.9757950E-30
 -0.3700000     -8.6923869E-30
 -0.3600000     -9.4683711E-30
 -0.3500000     -1.0308138E-29
 -0.3400000     -1.1216356E-29
 -0.3300000     -1.2197989E-29
 -0.3200000     -1.3258330E-29
 -0.3100000     -1.4403026E-29
 -0.3000000     -1.5638113E-29
 -0.2900000     -1.6970046E-29
 -0.2800000     -1.8405738E-29
 -0.2700000     -1.9952604E-29
 -0.2600000     -2.1618604E-29
 -0.2500000     -2.3412281E-29
 -0.2400000     -2.5342795E-29
 -0.2300000     -2.7419976E-29
 -0.2200000     -2.9654359E-29
 -0.2100000     -3.2057218E-29
 -0.2000000     -3.4640601E-29
 -0.1900000     -3.7417355E-29
 -0.1800000     -4.0401159E-29
 -0.1700000     -4.3606542E-29
 -0.1600000     -4.7048898E-29
 -0.1500000     -5.0744504E-29
 -0.1400000     -5.4710566E-29
 -0.1300000     -5.8965192E-29
 -0.1200000     -6.3527461E-29
 -0.1100000     -6.8417446E-29
 -0.1000000     -7.3656264E-29
 -9.0000004E-02 -7.9266113E-29
 -7.9999998E-02 -8.5270368E-29
 -7.0000000E-02 -9.1693681E-29
 -5.9999999E-02 -9.8562077E-29
 -5.0000001E-02 -1.0590308E-28
 -3.9999999E-02 -1.1374589E-28
 -2.9999999E-02 -1.2212151E-28
 -2.0000000E-02 -1.3106288E-28
 -9.9999998E-03 -1.4060514E-28
 -3.4694470E-17 -1.5078574E-28
  9.9999998E-03 -1.6164461E-28
  2.0000000E-02 -1.7322435E-28
  2.9999999E-02 -1.8557032E-28
  3.9999999E-02 -1.9873081E-28
  5.0000001E-02 -2.1275717E-28
  5.9999999E-02 -2.2770368E-28
  7.0000000E-02 -2.4362787E-28
  7.9999998E-02 -2.6059033E-28
  9.0000004E-02 -2.7865486E-28
  0.1000000     -2.9788833E-28
  0.1100000     -3.1836077E-28
  0.1200000     -3.4014530E-28
  0.1300000     -3.6331821E-28
  0.1400000     -3.8795897E-28
  0.1500000     -4.1415029E-28
  0.1600000     -4.4197839E-28
  0.1700000     -4.7153304E-28
  0.1800000     -5.0290798E-28
  0.1900000     -5.3620133E-28
  0.2000000     -5.7151586E-28
  0.2100000     -6.0895969E-28
  0.2200000     -6.4864661E-28
  0.2300000     -6.9069688E-28
  0.2400000     -7.3523777E-28
  0.2500000     -7.8240427E-28
  0.2600000     -8.3233935E-28
  0.2700000     -8.8519496E-28
  0.2800000     -9.4113215E-28
  0.2900000     -1.0003216E-27
  0.3000000     -1.0629437E-27
  0.3100000     -1.1291883E-27
  0.3200000     -1.1992558E-27
  0.3300000     -1.2733551E-27
  0.3400000     -1.3517049E-27
  0.3500000     -1.4345329E-27
  0.3600000     -1.5220750E-27
  0.3700000     -1.6145752E-27
  0.3800000     -1.7122852E-27
  0.3900000     -1.8154646E-27
  0.4000000     -1.9243801E-27
  0.4100000     -2.0393060E-27
  0.4200000     -2.1605244E-27
  0.4300000     -2.2883262E-27
  0.4400000     -2.4230121E-27
  0.4500000     -2.5648940E-27
  0.4600000     -2.7142967E-27
  0.4700000     -2.8715594E-27
  0.4800000     -3.0370380E-27
  0.4900000     -3.2111070E-27
  0.5000000     -3.3941615E-27
  0.5100000     -3.5866181E-27
  0.5200000     -3.7889193E-27
  0.5300000     -4.0015320E-27
  0.5400000     -4.2249487E-27
  0.5500000     -4.4596884E-27
  0.5600000     -4.7062968E-27
  0.5700000     -4.9653432E-27
  0.5800000     -5.2374220E-27
  0.5900000     -5.5231480E-27
  0.6000000     -5.8231543E-27
  0.6100000     -6.1380917E-27
  0.6200000     -6.4686232E-27
  0.6300000     -6.8154231E-27
  0.6400000     -7.1791735E-27
  0.6500000     -7.5605646E-27
  0.6600000     -7.9602929E-27
  0.6700000     -8.3790625E-27
  0.6800000     -8.8175829E-27
  0.6900000     -9.2765782E-27
  0.7000000     -9.7567842E-27
  0.7100000     -1.0258953E-26
  0.7200000     -1.0783868E-26
  0.7300000     -1.1332341E-26
  0.7400000     -1.1905219E-26
  0.7500000     -1.2503395E-26
  0.7600000     -1.3127812E-26
  0.7700000     -1.3779468E-26
  0.7800000     -1.4459418E-26
  0.7900000     -1.5168777E-26
  0.8000000     -1.5908718E-26
  0.8100000     -1.6680473E-26
  0.8200000     -1.7485324E-26
  0.8300000     -1.8324596E-26
  0.8400000     -1.9199646E-26
  0.8500000     -2.0111855E-26
  0.8600000     -2.1062614E-26
  0.8700000     -2.2053311E-26
  0.8800000     -2.3085318E-26
  0.8900000     -2.4159981E-26
  0.9000000     -2.5278612E-26
  0.9100000     -2.6442479E-26
  0.9200000     -2.7652816E-26
  0.9300000     -2.8910812E-26
  0.9400000     -3.0217616E-26
  0.9500000     -3.1574352E-26
  0.9600000     -3.2982136E-26
  0.9700000     -3.4442089E-26
  0.9800000     -3.5955368E-26
  0.9900000     -3.7523170E-26
   1.000000     -3.9146757E-26
   1.010000     -4.0827490E-26
   1.020000     -4.2566824E-26
   1.030000     -4.4366332E-26
   1.040000     -4.6227721E-26
   1.050000     -4.8152797E-26
   1.060000     -5.0143487E-26
   1.070000     -5.2201792E-26
   1.080000     -5.4329781E-26
   1.090000     -5.6529526E-26
   1.100000     -5.8803103E-26
   1.110000     -6.1152510E-26
   1.120000     -6.3579631E-26
   1.130000     -6.6086194E-26
   1.140000     -6.8673725E-26
   1.150000     -7.1343489E-26
   1.160000     -7.4096509E-26
   1.170000     -7.6933530E-26
   1.180000     -7.9855009E-26
   1.190000     -8.2861161E-26
   1.200000     -8.5951967E-26
   1.210000     -8.9127218E-26
   1.220000     -9.2386582E-26
   1.230000     -9.5729664E-26
   1.240000     -9.9156093E-26
   1.250000     -1.0266558E-25
   1.260000     -1.0625799E-25
   1.270000     -1.0993338E-25
   1.280000     -1.1369209E-25
   1.290000     -1.1753473E-25
   1.300000     -1.2146217E-25
   1.310000     -1.2547554E-25
   1.320000     -1.2957615E-25
   1.330000     -1.3376543E-25
   1.340000     -1.3804483E-25
   1.350000     -1.4241565E-25
   1.360000     -1.4687889E-25
   1.370000     -1.5143510E-25
   1.380000     -1.5608427E-25
   1.390000     -1.6082558E-25
   1.400000     -1.6565744E-25
   1.410000     -1.7057728E-25
   1.420000     -1.7558157E-25
   1.430000     -1.8066578E-25
   1.440000     -1.8582441E-25
   1.450000     -1.9105114E-25
   1.460000     -1.9633899E-25
   1.470000     -2.0168043E-25
   1.480000     -2.0706770E-25
   1.490000     -2.1249305E-25
   1.500000     -2.1794893E-25
   1.510000     -2.2342821E-25
   1.520000     -2.2892448E-25
   1.530000     -2.3443218E-25
   1.540000     -2.3994676E-25
   1.550000     -2.4546462E-25
   1.560000     -2.5098312E-25
   1.570000     -2.5650032E-25
   1.580000     -2.6201492E-25
   1.590000     -2.6752600E-25
   1.600000     -2.7303238E-25
   1.610000     -2.7853234E-25
   1.620000     -2.8402328E-25
   1.630000     -2.8950113E-25
   1.640000     -2.9495985E-25
   1.650000     -3.0039108E-25
   1.660000     -3.0578396E-25
   1.670000     -3.1112487E-25
   1.680000     -3.1639764E-25
   1.690000     -3.2158336E-25
   1.700000     -3.2666092E-25
   1.710000     -3.3160742E-25
   1.720000     -3.3639854E-25
   1.730000     -3.4100951E-25
   1.740000     -3.4541576E-25
   1.750000     -3.4959379E-25
   1.760000     -3.5352210E-25
   1.770000     -3.5718165E-25
   1.780000     -3.6055664E-25
   1.790000     -3.6363495E-25
   1.800000     -3.6640819E-25
   1.810000     -3.6887183E-25
   1.820000     -3.7102480E-25
   1.830000     -3.7286884E-25
   1.840000     -3.7440771E-25
   1.850000     -3.7564644E-25
   1.860000     -3.7658955E-25
   1.870000     -3.7723992E-25
   1.880000     -3.7759744E-25
   1.890000     -3.7765784E-25
   1.900000     -3.7741139E-25
   1.910000     -3.7684226E-25
   1.920000     -3.7592745E-25
   1.930000     -3.7463719E-25
   1.940000     -3.7293476E-25
   1.950000     -3.7077742E-25
   1.960000     -3.6811792E-25
   1.970000     -3.6490573E-25
   1.980000     -3.6108912E-25
   1.990000     -3.5661737E-25
   2.000000     -3.5144333E-25
   2.010000     -3.4552576E-25
   2.020000     -3.3883159E-25
   2.030000     -3.3133765E-25
   2.040000     -3.2303221E-25
   2.050000     -3.1391566E-25
   2.060000     -3.0400094E-25
   2.070000     -2.9331271E-25
   2.080000     -2.8188591E-25
   2.090000     -2.6976351E-25
   2.100000     -2.5699355E-25
   2.110000     -2.4362564E-25
   2.120000     -2.2970705E-25
   2.130000     -2.1527871E-25
   2.140000     -2.0037174E-25
   2.150000     -1.8500367E-25
   2.160000     -1.6917549E-25
   2.170000     -1.5286969E-25
   2.180000     -1.3604932E-25
   2.190000     -1.1865826E-25
   2.200000     -1.0062291E-25
   2.210000     -8.1855018E-26
   2.220000     -6.2255947E-26
   2.230000     -4.1721984E-26
   2.240000     -2.0150302E-26
   2.250000      2.5543663E-27
   2.260000      2.6473189E-26
   2.270000      5.1666812E-26
   2.280000      7.8169688E-26
   2.290000      1.0598592E-25
   2.300000      1.3508644E-25
   2.310000      1.6540824E-25
   2.320000      1.9685503E-25
   2.330000      2.2930084E-25
   2.340000      2.6259592E-25
   2.350000      2.9657386E-25
   2.360000      3.3106096E-25
   2.370000      3.6588656E-25
   2.380000      4.0089430E-25
   2.390000      4.3595284E-25
   2.400000      4.7096574E-25
   2.410000      5.0588097E-25
   2.420000      5.4069690E-25
   2.430000      5.7546624E-25
   2.440000      6.1029652E-25
   2.450000      6.4534734E-25
   2.460000      6.8082354E-25
   2.470000      7.1696516E-25
   2.480000      7.5403418E-25
   2.490000      7.9229876E-25
   2.500000      8.3201564E-25
   2.510000      8.7341230E-25
   2.520000      9.1666929E-25
   2.530000      9.6190425E-25
   2.540000      1.0091588E-24
   2.550000      1.0583889E-24
   2.560000      1.1094609E-24
   2.570000      1.1621514E-24
   2.580000      1.2161545E-24
   2.590000      1.2710946E-24
   2.600000      1.3265440E-24
   2.610000      1.3820458E-24
   2.620000      1.4371405E-24
   2.630000      1.4913939E-24
   2.640000      1.5444269E-24
   2.650000      1.5959420E-24
   2.660000      1.6457486E-24
   2.670000      1.6937820E-24
   2.680000      1.7401161E-24
   2.690000      1.7849674E-24
   2.700000      1.8286904E-24
   2.710000      1.8717636E-24
   2.720000      1.9147652E-24
   2.730000      1.9583423E-24
   2.740000      2.0031709E-24
   2.750000      2.0499107E-24
   2.760000      2.0991593E-24
   2.770000      2.1514043E-24
   2.780000      2.2069792E-24
   2.790000      2.2660241E-24
   2.800000      2.3284573E-24
   2.810000      2.3939578E-24
   2.820000      2.4619601E-24
   2.830000      2.5316649E-24
   2.840000      2.6020636E-24
   2.850000      2.6719794E-24
   2.860000      2.7401192E-24
   2.870000      2.8051359E-24
   2.880000      2.8656997E-24
   2.890000      2.9205705E-24
   2.900000      2.9686707E-24
   2.910000      3.0091494E-24
   2.920000      3.0414372E-24
   2.930000      3.0652845E-24
   2.940000      3.0807807E-24
   2.950000      3.0883500E-24
   2.960000      3.0887261E-24
   2.970000      3.0829023E-24
   2.980000      3.0720585E-24
   2.990000      3.0574671E-24
   3.000000      3.0403867E-24
   3.010000      3.0219463E-24
   3.020000      3.0030239E-24
   3.030000      2.9841330E-24
   3.040000      2.9653193E-24
   3.050000      2.9460766E-24
   3.060000      2.9252893E-24
   3.070000      2.9012093E-24
   3.080000      2.8714647E-24
   3.090000      2.8331072E-24
   3.100000      2.7826952E-24
   3.110000      2.7164147E-24
   3.120000      2.6302261E-24
   3.130000      2.5200308E-24
   3.140000      2.3818527E-24
   3.150000      2.2120204E-24
   3.160000      2.0073396E-24
   3.170000      1.7652413E-24
   3.180000      1.4838957E-24
   3.190000      1.1622848E-24
   3.200000      8.0022583E-25
   3.210000      3.9833300E-25
   3.220000     -4.2072353E-26
   3.230000     -5.1911160E-25
   3.240000     -1.0305487E-24
   3.250000     -1.5740307E-24
   3.260000     -2.1473589E-24
   3.270000     -2.7487677E-24
   3.280000     -3.3772046E-24
   3.290000     -4.0325875E-24
   3.300000     -4.7160235E-24
   3.310000     -5.4299639E-24
   3.320000     -6.1782927E-24
   3.330000     -6.9663376E-24
   3.340000     -7.8007765E-24
   3.350000     -8.6894709E-24
   3.360000     -9.6412071E-24
   3.370000     -1.0665360E-23
   3.380000     -1.1771497E-23
   3.390000     -1.2968945E-23
   3.400000     -1.4266346E-23
   3.410000     -1.5671208E-23
   3.420000     -1.7189527E-23
   3.430000     -1.8825452E-23
   3.440000     -2.0581042E-23
   3.450000     -2.2456148E-23
   3.460000     -2.4448413E-23
   3.470000     -2.6553427E-23
   3.480000     -2.8764980E-23
   3.490000     -3.1075481E-23
   3.500000     -3.3476448E-23
   3.510000     -3.5959117E-23
   3.520000     -3.8515048E-23
   3.530000     -4.1136805E-23
   3.540000     -4.3818532E-23
   3.550000     -4.6556532E-23
   3.560000     -4.9349652E-23
   3.570000     -5.2199592E-23
   3.580000     -5.5110952E-23
   3.590000     -5.8091149E-23
   3.600000     -6.1150087E-23
   3.610000     -6.4299617E-23
   3.620000     -6.7552835E-23
   3.630000     -7.0923221E-23
   3.640000     -7.4423612E-23
   3.650000     -7.8065259E-23
   3.660000     -8.1856701E-23
   3.670000     -8.5802804E-23
   3.680000     -8.9903890E-23
   3.690000     -9.4155124E-23
   3.700000     -9.8546082E-23
   3.710000     -1.0306058E-22
   3.720000     -1.0767685E-22
   3.730000     -1.1236806E-22
   3.740000     -1.1710304E-22
   3.750000     -1.2184738E-22
   3.760000     -1.2656460E-22
   3.770000     -1.3121768E-22
   3.780000     -1.3577051E-22
   3.790000     -1.4018932E-22
   3.800000     -1.4444405E-22
   3.810000     -1.4850945E-22
   3.820000     -1.5236585E-22
   3.830000     -1.5599963E-22
   3.840000     -1.5940328E-22
   3.850000     -1.6257487E-22
   3.860000     -1.6551712E-22
   3.870000     -1.6823614E-22
   3.880000     -1.7073954E-22
   3.890000     -1.7303442E-22
   3.900000     -1.7512519E-22
   3.910000     -1.7701131E-22
   3.920000     -1.7868500E-22
   3.930000     -1.8012928E-22
   3.940000     -1.8131638E-22
   3.950000     -1.8220652E-22
   3.960000     -1.8274749E-22
   3.970000     -1.8287472E-22
   3.980000     -1.8251207E-22
   3.990000     -1.8157341E-22
   4.000000     -1.7996467E-22
   4.010000     -1.7758659E-22
   4.020000     -1.7433791E-22
   4.030000     -1.7011871E-22
   4.040000     -1.6483375E-22
   4.050000     -1.5839584E-22
   4.060000     -1.5072866E-22
   4.070000     -1.4176925E-22
   4.080000     -1.3146941E-22
   4.090000     -1.1979649E-22
   4.100000     -1.0673306E-22
   4.110000     -9.2275540E-23
   4.120000     -7.6431982E-23
   4.130000     -5.9218766E-23
   4.140000     -4.0656720E-23
   4.150000     -2.0766583E-23
   4.160000      4.3566392E-25
   4.170000      2.2943519E-23
   4.180000      4.6764422E-23
   4.190000      7.1923617E-23
   4.200000      9.8466817E-23
   4.210000      1.2646171E-22
   4.220000      1.5599837E-22
   4.230000      1.8718792E-22
   4.240000      2.2015967E-22
   4.250000      2.5505721E-22
   4.260000      2.9203260E-22
   4.270000      3.3123992E-22
   4.280000      3.7282798E-22
   4.290000      4.1693278E-22
   4.300000      4.6366982E-22
   4.310000      5.1312734E-22
   4.320000      5.6536033E-22
   4.330000      6.2038607E-22
   4.340000      6.7818137E-22
   4.350000      7.3868213E-22
   4.360000      8.0178444E-22
   4.370000      8.6734845E-22
   4.380000      9.3520372E-22
   4.390000      1.0051568E-21
   4.400000      1.0770004E-21
   4.410000      1.1505228E-21
   4.420000      1.2255181E-21
   4.430000      1.3017956E-21
   4.440000      1.3791890E-21
   4.450000      1.4575633E-21
   4.460000      1.5368193E-21
   4.470000      1.6168959E-21
   4.480000      1.6977694E-21
   4.490000      1.7794497E-21
   4.500000      1.8619731E-21
   4.510000      1.9453909E-21
   4.520000      2.0297591E-21
   4.530000      2.1151218E-21
   4.540000      2.2014976E-21
   4.550000      2.2888623E-21
   4.560000      2.3771357E-21
   4.570000      2.4661671E-21
   4.580000      2.5557250E-21
   4.590000      2.6454896E-21
   4.600000      2.7350503E-21
   4.610000      2.8239062E-21
   4.620000      2.9114722E-21
   4.630000      2.9970888E-21
   4.640000      3.0800373E-21
   4.650000      3.1595577E-21
   4.660000      3.2348687E-21
   4.670000      3.3051892E-21
   4.680000      3.3697595E-21
   4.690000      3.4278639E-21
   4.700000      3.4788450E-21
   4.710000      3.5221205E-21
   4.720000      3.5571905E-21
   4.730000      3.5836413E-21
   4.740000      3.6011421E-21
   4.750000      3.6094357E-21
   4.760000      3.6083218E-21
   4.770000      3.5976367E-21
   4.780000      3.5772262E-21
   4.790000      3.5469186E-21
   4.800000      3.5064925E-21
   4.810000      3.4556500E-21
   4.820000      3.3939867E-21
   4.830000      3.3209704E-21
   4.840000      3.2359239E-21
   4.850000      3.1380161E-21
   4.860000      3.0262625E-21
   4.870000      2.8995306E-21
   4.880000      2.7565602E-21
   4.890000      2.5959933E-21
   4.900000      2.4164064E-21
   4.910000      2.2163529E-21
   4.920000      1.9944058E-21
   4.930000      1.7492075E-21
   4.940000      1.4795170E-21
   4.950000      1.1842479E-21
   4.960000      8.6250391E-22
   4.970000      5.1360868E-22
   4.980000      1.3711762E-22
   4.990000     -2.6717651E-22
   5.000000     -6.9925353E-22
   5.010000     -1.1588893E-21
   5.020000     -1.6456888E-21
   5.030000     -2.1591300E-21
   5.040000     -2.6986194E-21
   5.050000     -3.2635450E-21
   5.060000     -3.8533332E-21
   5.070000     -4.4675096E-21
   5.080000     -5.1057433E-21
   5.090000     -5.7678856E-21
   5.100000     -6.4539976E-21
   5.110000     -7.1643599E-21
   5.120000     -7.8994593E-21
   5.130000     -8.6599695E-21
   5.140000     -9.4467007E-21
   5.150000     -1.0260538E-20
   5.160000     -1.1102367E-20
   5.170000     -1.1972986E-20
   5.180000     -1.2873018E-20
   5.190000     -1.3802816E-20
   5.200000     -1.4762382E-20
   5.210000     -1.5751277E-20
   5.220000     -1.6768562E-20
   5.230000     -1.7812769E-20
   5.240000     -1.8881861E-20
   5.250000     -1.9973255E-20
   5.260000     -2.1083852E-20
   5.270000     -2.2210082E-20
   5.280000     -2.3347989E-20
   5.290000     -2.4493337E-20
   5.300000     -2.5641717E-20
   5.310000     -2.6788663E-20
   5.320000     -2.7929763E-20
   5.330000     -2.9060781E-20
   5.340000     -3.0177743E-20
   5.350000     -3.1277014E-20
   5.360000     -3.2355344E-20
   5.370000     -3.3409857E-20
   5.380000     -3.4438062E-20
   5.390000     -3.5437768E-20
   5.400000     -3.6406991E-20
   5.410000     -3.7343857E-20
   5.420000     -3.8246434E-20
   5.430000     -3.9112595E-20
   5.440000     -3.9939828E-20
   5.450000     -4.0725068E-20
   5.460000     -4.1464564E-20
   5.470000     -4.2153754E-20
   5.480000     -4.2787171E-20
   5.490000     -4.3358381E-20
   5.500000     -4.3860002E-20
   5.510000     -4.4283751E-20
   5.520000     -4.4620526E-20
   5.530000     -4.4860560E-20
   5.540000     -4.4993617E-20
   5.550000     -4.5009175E-20
   5.560000     -4.4896695E-20
   5.570000     -4.4645849E-20
   5.580000     -4.4246780E-20
   5.590000     -4.3690300E-20
   5.600000     -4.2968097E-20
   5.610000     -4.2072858E-20
   5.620000     -4.0998335E-20
   5.630000     -3.9739411E-20
   5.640000     -3.8291997E-20
   5.650000     -3.6652938E-20
   5.660000     -3.4819851E-20
   5.670000     -3.2790864E-20
   5.680000     -3.0564343E-20
   5.690000     -2.8138633E-20
   5.700000     -2.5511743E-20
   5.710000     -2.2681113E-20
   5.720000     -1.9643344E-20
   5.730000     -1.6393947E-20
   5.740000     -1.2927265E-20
   5.750000     -9.2364910E-21
   5.760000     -5.3136519E-21
   5.770000     -1.1497947E-21
   5.780000      3.2647876E-21
   5.790000      7.9402683E-21
   5.800000      1.2886859E-20
   5.810000      1.8114373E-20
   5.820000      2.3631742E-20
   5.830000      2.9446576E-20
   5.840000      3.5564711E-20
   5.850000      4.1989795E-20
   5.860000      4.8722974E-20
   5.870000      5.5762636E-20
   5.880000      6.3104316E-20
   5.890000      7.0740732E-20
   5.900000      7.8661904E-20
   5.910000      8.6855373E-20
   5.920000      9.5306665E-20
   5.930000      1.0399971E-19
   5.940000      1.1291733E-19
   5.950000      1.2204189E-19
   5.960000      1.3135574E-19
   5.970000      1.4084178E-19
   5.980000      1.5048389E-19
   5.990000      1.6026723E-19
   6.000000      1.7017843E-19
   6.010000      1.8020572E-19
   6.020000      1.9033868E-19
   6.030000      2.0056800E-19
   6.040000      2.1088501E-19
   6.050000      2.2128105E-19
   6.060000      2.3174675E-19
   6.070000      2.4227120E-19
   6.080000      2.5284120E-19
   6.090000      2.6344043E-19
   6.100000      2.7404879E-19
   6.110000      2.8464166E-19
   6.120000      2.9518946E-19
   6.130000      3.0565740E-19
   6.140000      3.1600553E-19
   6.150000      3.2618880E-19
   6.160000      3.3615749E-19
   6.170000      3.4585797E-19
   6.180000      3.5523352E-19
   6.190000      3.6422523E-19
   6.200000      3.7277295E-19
   6.210000      3.8081676E-19
   6.220000      3.8829794E-19
   6.230000      3.9515987E-19
   6.240000      4.0134889E-19
   6.250000      4.0681482E-19
   6.260000      4.1151165E-19
   6.270000      4.1539726E-19
   6.280000      4.1843337E-19
   6.290000      4.2058507E-19
   6.300000      4.2181982E-19
   6.310000      4.2210665E-19
   6.320000      4.2141461E-19
   6.330000      4.1971183E-19
   6.340000      4.1696417E-19
   6.350000      4.1313388E-19
   6.360000      4.0817832E-19
   6.370000      4.0204907E-19
   6.380000      3.9469148E-19
   6.390000      3.8604449E-19
   6.400000      3.7604096E-19
   6.410000      3.6460811E-19
   6.420000      3.5166883E-19
   6.430000      3.3714295E-19
   6.440000      3.2094879E-19
   6.450000      3.0300590E-19
   6.460000      2.8323667E-19
   6.470000      2.6156829E-19
   6.480000      2.3793509E-19
   6.490000      2.1228017E-19
   6.500000      1.8455698E-19
   6.510000      1.5473044E-19
   6.520000      1.2277764E-19
   6.530000      8.8687507E-20
   6.540000      5.2460557E-20
   6.550000      1.4107851E-20
   6.560000     -2.6350481E-20
   6.570000     -6.8886981E-20
   6.580000     -1.1346944E-19
   6.590000     -1.6006296E-19
   6.600000     -2.0863187E-19
   6.610000     -2.5914258E-19
   6.620000     -3.1156515E-19
   6.630000     -3.6587434E-19
   6.640000     -4.2205037E-19
   6.650000     -4.8007914E-19
   6.660000     -5.3995166E-19
   6.670000     -6.0166295E-19
   6.680000     -6.6520955E-19
   6.690000     -7.3058701E-19
   6.700000     -7.9778665E-19
   6.710000     -8.6679243E-19
   6.720000     -9.3757676E-19
   6.730000     -1.0100973E-18
   6.740000     -1.0842934E-18
   6.750000     -1.1600828E-18
   6.760000     -1.2373608E-18
   6.770000     -1.3159982E-18
   6.780000     -1.3958415E-18
   6.790000     -1.4767121E-18
   6.800000     -1.5584087E-18
   6.810000     -1.6407097E-18
   6.820000     -1.7233770E-18
   6.830000     -1.8061584E-18
   6.840000     -1.8887931E-18
   6.850000     -1.9710157E-18
   6.860000     -2.0525604E-18
   6.870000     -2.1331650E-18
   6.880000     -2.2125752E-18
   6.890000     -2.2905450E-18
   6.900000     -2.3668400E-18
   6.910000     -2.4412387E-18
   6.920000     -2.5135291E-18
   6.930000     -2.5835082E-18
   6.940000     -2.6509776E-18
   6.950000     -2.7157402E-18
   6.960000     -2.7775956E-18
   6.970000     -2.8363326E-18
   6.980000     -2.8917254E-18
   6.990000     -2.9435274E-18
   7.000000     -2.9914666E-18
   7.010000     -3.0352425E-18
   7.020000     -3.0745222E-18
   7.030000     -3.1089412E-18
   7.040000     -3.1381047E-18
   7.050000     -3.1615889E-18
   7.060000     -3.1789446E-18