  -2.600000      0.0000000E+00
  -2.590000      0.0000000E+00
  -2.580000      0.0000000E+00
  -2.570000      0.0000000E+00
  -2.560000      0.0000000E+00
  -2.550000      0.0000000E+00
  -2.540000      0.0000000E+00
  -2.530000      0.0000000E+00
  -2.520000      0.0000000E+00
  -2.510000      0.0000000E+00
  -2.500000      0.0000000E+00
  -2.490000      0.0000000E+00
  -2.480000      0.0000000E+00
  -2.470000      0.0000000E+00
  -2.460000      0.0000000E+00
  -2.450000      0.0000000E+00
  -2.440000      0.0000000E+00
  -2.430000      0.0000000E+00
  -2.420000      0.0000000E+00
  -2.410000      0.0000000E+00
  -2.400000      0.0000000E+00
  -2.390000      0.0000000E+00
  -2.380000      0.0000000E+00
  -2.370000      0.0000000E+00
  -2.360000      0.0000000E+00
  -2.350000      0.0000000E+00
  -2.340000      0.0000000E+00
  -2.330000      0.0000000E+00
  -2.320000      0.0000000E+00
  -2.310000      0.0000000E+00
  -2.300000      0.0000000E+00
  -2.290000      0.0000000E+00
  -2.280000      0.0000000E+00
  -2.270000      0.0000000E+00
  -2.260000      0.0000000E+00
  -2.250000      0.0000000E+00
  -2.240000      0.0000000E+00
  -2.230000      0.0000000E+00
  -2.220000      0.0000000E+00
  -2.210000      0.0000000E+00
  -2.200000      0.0000000E+00
  -2.190000      0.0000000E+00
  -2.180000      0.0000000E+00
  -2.170000      0.0000000E+00
  -2.160000      0.0000000E+00
  -2.150000      0.0000000E+00
  -2.140000      0.0000000E+00
  -2.130000      0.0000000E+00
  -2.120000      0.0000000E+00
  -2.110000      0.0000000E+00
  -2.100000      0.0000000E+00
  -2.090000      0.0000000E+00
  -2.080000      0.0000000E+00
  -2.070000      0.0000000E+00
  -2.060000      0.0000000E+00
  -2.050000      0.0000000E+00
  -2.040000      0.0000000E+00
  -2.030000      0.0000000E+00
  -2.020000      0.0000000E+00
  -2.010000      0.0000000E+00
  -2.000000      0.0000000E+00
  -1.990000      0.0000000E+00
  -1.980000      0.0000000E+00
  -1.970000      0.0000000E+00
  -1.960000      0.0000000E+00
  -1.950000      0.0000000E+00
  -1.940000      0.0000000E+00
  -1.930000      0.0000000E+00
  -1.920000      0.0000000E+00
  -1.910000      0.0000000E+00
  -1.900000      0.0000000E+00
  -1.890000      0.0000000E+00
  -1.880000      0.0000000E+00
  -1.870000      0.0000000E+00
  -1.860000      0.0000000E+00
  -1.850000      0.0000000E+00
  -1.840000      0.0000000E+00
  -1.830000      0.0000000E+00
  -1.820000      0.0000000E+00
  -1.810000      0.0000000E+00
  -1.800000      0.0000000E+00
  -1.790000      0.0000000E+00
  -1.780000      0.0000000E+00
  -1.770000      0.0000000E+00
  -1.760000      0.0000000E+00
  -1.750000      0.0000000E+00
  -1.740000      0.0000000E+00
  -1.730000      0.0000000E+00
  -1.720000      0.0000000E+00
  -1.710000      0.0000000E+00
  -1.700000      0.0000000E+00
  -1.690000      0.0000000E+00
  -1.680000      0.0000000E+00
  -1.670000      0.0000000E+00
  -1.660000      0.0000000E+00
  -1.650000      0.0000000E+00
  -1.640000      0.0000000E+00
  -1.630000      0.0000000E+00
  -1.620000      0.0000000E+00
  -1.610000      0.0000000E+00
  -1.600000      0.0000000E+00
  -1.590000      0.0000000E+00
  -1.580000      0.0000000E+00
  -1.570000      0.0000000E+00
  -1.560000      0.0000000E+00
  -1.550000      0.0000000E+00
  -1.540000      0.0000000E+00
  -1.530000      0.0000000E+00
  -1.520000      0.0000000E+00
  -1.510000      0.0000000E+00
  -1.500000      0.0000000E+00
  -1.490000      0.0000000E+00
  -1.480000      0.0000000E+00
  -1.470000      0.0000000E+00
  -1.460000      0.0000000E+00
  -1.450000      0.0000000E+00
  -1.440000      0.0000000E+00
  -1.430000      0.0000000E+00
  -1.420000      0.0000000E+00
  -1.410000      0.0000000E+00
  -1.400000      0.0000000E+00
  -1.390000      0.0000000E+00
  -1.380000      0.0000000E+00
  -1.370000      0.0000000E+00
  -1.360000      0.0000000E+00
  -1.350000      0.0000000E+00
  -1.340000      0.0000000E+00
  -1.330000      0.0000000E+00
  -1.320000      0.0000000E+00
  -1.310000      0.0000000E+00
  -1.300000      0.0000000E+00
  -1.290000      0.0000000E+00
  -1.280000      0.0000000E+00
  -1.270000      0.0000000E+00
  -1.260000      0.0000000E+00
  -1.250000      0.0000000E+00
  -1.240000      0.0000000E+00
  -1.230000      0.0000000E+00
  -1.220000      0.0000000E+00
  -1.210000      0.0000000E+00
  -1.200000      0.0000000E+00
  -1.190000      0.0000000E+00
  -1.180000      0.0000000E+00
  -1.170000      0.0000000E+00
  -1.160000      0.0000000E+00
  -1.150000      0.0000000E+00
  -1.140000      0.0000000E+00
  -1.130000      0.0000000E+00
  -1.120000      0.0000000E+00
  -1.110000      0.0000000E+00
  -1.100000      0.0000000E+00
  -1.090000      0.0000000E+00
  -1.080000      0.0000000E+00
  -1.070000      0.0000000E+00
  -1.060000      0.0000000E+00
  -1.050000      0.0000000E+00
  -1.040000      0.0000000E+00
  -1.030000      0.0000000E+00
  -1.020000      0.0000000E+00
  -1.010000      0.0000000E+00
  -1.000000      0.0000000E+00
 -0.9900000      0.0000000E+00
 -0.9800000      0.0000000E+00
 -0.9700000      0.0000000E+00
 -0.9600000      0.0000000E+00
 -0.9500000      0.0000000E+00
 -0.9400000      0.0000000E+00
 -0.9300000      0.0000000E+00
 -0.9200000      0.0000000E+00
 -0.9100000      0.0000000E+00
 -0.9000000      0.0000000E+00
 -0.8900000      0.0000000E+00
 -0.8800000      0.0000000E+00
 -0.8700000      0.0000000E+00
 -0.8600000      0.0000000E+00
 -0.8500000      0.0000000E+00
 -0.8400000      0.0000000E+00
 -0.8300000      0.0000000E+00
 -0.8200000      0.0000000E+00
 -0.8100000      0.0000000E+00
 -0.8000000      0.0000000E+00
 -0.7900000      0.0000000E+00
 -0.7800000      0.0000000E+00
 -0.7700000      0.0000000E+00
 -0.7600000      0.0000000E+00
 -0.7500000      0.0000000E+00
 -0.7400000      0.0000000E+00
 -0.7300000      0.0000000E+00
 -0.7200000      0.0000000E+00
 -0.7100000      0.0000000E+00
 -0.7000000      0.0000000E+00
 -0.6900000      0.0000000E+00
 -0.6800000      0.0000000E+00
 -0.6700000      0.0000000E+00
 -0.6600000      0.0000000E+00
 -0.6500000      0.0000000E+00
 -0.6400000      0.0000000E+00
 -0.6300000      0.0000000E+00
 -0.6200000      0.0000000E+00
 -0.6100000      0.0000000E+00
 -0.6000000      0.0000000E+00
 -0.5900000      0.0000000E+00
 -0.5800000      0.0000000E+00
 -0.5700000      0.0000000E+00
 -0.5600000      0.0000000E+00
 -0.5500000      0.0000000E+00
 -0.5400000      0.0000000E+00
 -0.5300000      0.0000000E+00
 -0.5200000      0.0000000E+00
 -0.5100000      0.0000000E+00
 -0.5000000      0.0000000E+00
 -0.4900000      0.0000000E+00
 -0.4800000      0.0000000E+00
 -0.4700000      0.0000000E+00
 -0.4600000      0.0000000E+00
 -0.4500000      0.0000000E+00
 -0.4400000      0.0000000E+00
 -0.4300000      0.0000000E+00
 -0.4200000      0.0000000E+00
 -0.4100000      0.0000000E+00
 -0.4000000      0.0000000E+00
 -0.3900000      0.0000000E+00
 -0.3800000      0.0000000E+00
 -0.3700000      0.0000000E+00
 -0.3600000      0.0000000E+00
 -0.3500000      0.0000000E+00
 -0.3400000      0.0000000E+00
 -0.3300000      0.0000000E+00
 -0.3200000      0.0000000E+00
 -0.3100000      0.0000000E+00
 -0.3000000      0.0000000E+00
 -0.2900000      0.0000000E+00
 -0.2800000      0.0000000E+00
 -0.2700000      0.0000000E+00
 -0.2600000      0.0000000E+00
 -0.2500000      0.0000000E+00
 -0.2400000      0.0000000E+00
 -0.2300000      0.0000000E+00
 -0.2200000      0.0000000E+00
 -0.2100000      0.0000000E+00
 -0.2000000      0.0000000E+00
 -0.1900000      0.0000000E+00
 -0.1800000      0.0000000E+00
 -0.1700000      0.0000000E+00
 -0.1600000      0.0000000E+00
 -0.1500000      0.0000000E+00
 -0.1400000      0.0000000E+00
 -0.1300000      0.0000000E+00
 -0.1200000      0.0000000E+00
 -0.1100000      0.0000000E+00
 -0.1000000      0.0000000E+00
 -9.0000004E-02  0.0000000E+00
 -7.9999998E-02  0.0000000E+00
 -7.0000000E-02  0.0000000E+00
 -5.9999999E-02  0.0000000E+00
 -5.0000001E-02  0.0000000E+00
 -3.9999999E-02  0.0000000E+00
 -2.9999999E-02  0.0000000E+00
 -2.0000000E-02  0.0000000E+00
 -9.9999998E-03  0.0000000E+00
 -3.4694470E-17  0.0000000E+00
  9.9999998E-03  0.0000000E+00
  2.0000000E-02  0.0000000E+00
  2.9999999E-02  0.0000000E+00
  3.9999999E-02  0.0000000E+00
  5.0000001E-02  0.0000000E+00
  5.9999999E-02  0.0000000E+00
  7.0000000E-02  0.0000000E+00
  7.9999998E-02  0.0000000E+00
  9.0000004E-02  0.0000000E+00
  0.1000000      0.0000000E+00
  0.1100000      0.0000000E+00
  0.1200000      0.0000000E+00
  0.1300000      0.0000000E+00
  0.1400000      0.0000000E+00
  0.1500000      0.0000000E+00
  0.1600000      0.0000000E+00
  0.1700000      0.0000000E+00
  0.1800000      0.0000000E+00
  0.1900000      0.0000000E+00
  0.2000000      0.0000000E+00
  0.2100000      0.0000000E+00
  0.2200000      0.0000000E+00
  0.2300000      0.0000000E+00
  0.2400000      0.0000000E+00
  0.2500000      0.0000000E+00
  0.2600000      0.0000000E+00
  0.2700000      0.0000000E+00
  0.2800000      0.0000000E+00
  0.2900000      0.0000000E+00
  0.3000000      0.0000000E+00
  0.3100000      0.0000000E+00
  0.3200000      0.0000000E+00
  0.3300000      0.0000000E+00
  0.3400000      0.0000000E+00
  0.3500000      0.0000000E+00
  0.3600000      0.0000000E+00
  0.3700000      0.0000000E+00
  0.3800000      0.0000000E+00
  0.3900000      0.0000000E+00
  0.4000000      0.0000000E+00
  0.4100000      0.0000000E+00
  0.4200000      0.0000000E+00
  0.4300000      0.0000000E+00
  0.4400000      0.0000000E+00
  0.4500000      0.0000000E+00
  0.4600000      0.0000000E+00
  0.4700000      0.0000000E+00
  0.4800000      0.0000000E+00
  0.4900000      0.0000000E+00
  0.5000000      0.0000000E+00
  0.5100000      0.0000000E+00
  0.5200000      0.0000000E+00
  0.5300000      0.0000000E+00
  0.5400000      0.0000000E+00
  0.5500000      0.0000000E+00
  0.5600000      0.0000000E+00
  0.5700000      0.0000000E+00
  0.5800000      0.0000000E+00
  0.5900000      0.0000000E+00
  0.6000000      0.0000000E+00
  0.6100000      0.0000000E+00
  0.6200000      0.0000000E+00
  0.6300000      0.0000000E+00
  0.6400000      0.0000000E+00
  0.6500000      0.0000000E+00
  0.6600000      0.0000000E+00
  0.6700000      0.0000000E+00
  0.6800000      0.0000000E+00
  0.6900000      0.0000000E+00
  0.7000000      0.0000000E+00
  0.7100000      0.0000000E+00
  0.7200000      0.0000000E+00
  0.7300000      0.0000000E+00
  0.7400000      0.0000000E+00
  0.7500000      0.0000000E+00
  0.7600000      0.0000000E+00
  0.7700000      0.0000000E+00
  0.7800000      0.0000000E+00
  0.7900000      0.0000000E+00
  0.8000000      0.0000000E+00
  0.8100000      0.0000000E+00
  0.8200000      0.0000000E+00
  0.8300000      0.0000000E+00
  0.8400000      0.0000000E+00
  0.8500000      0.0000000E+00
  0.8600000      0.0000000E+00
  0.8700000      0.0000000E+00
  0.8800000      0.0000000E+00
  0.8900000      0.0000000E+00
  0.9000000      0.0000000E+00
  0.9100000      0.0000000E+00
  0.9200000      0.0000000E+00
  0.9300000      0.0000000E+00
  0.9400000      0.0000000E+00
  0.9500000      0.0000000E+00
  0.9600000      0.0000000E+00
  0.9700000      0.0000000E+00
  0.9800000      0.0000000E+00
  0.9900000      0.0000000E+00
   1.000000      0.0000000E+00
   1.010000      0.0000000E+00
   1.020000      0.0000000E+00
   1.030000      0.0000000E+00
   1.040000      0.0000000E+00
   1.050000      0.0000000E+00
   1.060000      0.0000000E+00
   1.070000      0.0000000E+00
   1.080000      0.0000000E+00
   1.090000      0.0000000E+00
   1.100000      0.0000000E+00
   1.110000      0.0000000E+00
   1.120000      0.0000000E+00
   1.130000      0.0000000E+00
   1.140000      0.0000000E+00
   1.150000      0.0000000E+00
   1.160000      0.0000000E+00
   1.170000      0.0000000E+00
   1.180000      0.0000000E+00
   1.190000      0.0000000E+00
   1.200000      0.0000000E+00
   1.210000      0.0000000E+00
   1.220000      0.0000000E+00
   1.230000      0.0000000E+00
   1.240000      0.0000000E+00
   1.250000      0.0000000E+00
   1.260000      0.0000000E+00
   1.270000      0.0000000E+00
   1.280000      0.0000000E+00
   1.290000      0.0000000E+00
   1.300000      0.0000000E+00
   1.310000      0.0000000E+00
   1.320000      0.0000000E+00
   1.330000      0.0000000E+00
   1.340000      0.0000000E+00
   1.350000      0.0000000E+00
   1.360000      0.0000000E+00
   1.370000      0.0000000E+00
   1.380000      0.0000000E+00
   1.390000      0.0000000E+00
   1.400000      0.0000000E+00
   1.410000      0.0000000E+00
   1.420000      0.0000000E+00
   1.430000      0.0000000E+00
   1.440000      0.0000000E+00
   1.450000      0.0000000E+00
   1.460000      0.0000000E+00
   1.470000      0.0000000E+00
   1.480000      0.0000000E+00
   1.490000      0.0000000E+00
   1.500000      0.0000000E+00
   1.510000      0.0000000E+00
   1.520000      0.0000000E+00
   1.530000      0.0000000E+00
   1.540000      0.0000000E+00
   1.550000      0.0000000E+00
   1.560000      0.0000000E+00
   1.570000      0.0000000E+00
   1.580000      0.0000000E+00
   1.590000      0.0000000E+00
   1.600000      0.0000000E+00
   1.610000      0.0000000E+00
   1.620000      0.0000000E+00
   1.630000      0.0000000E+00
   1.640000      0.0000000E+00
   1.650000      0.0000000E+00
   1.660000      0.0000000E+00
   1.670000      0.0000000E+00
   1.680000      0.0000000E+00
   1.690000      0.0000000E+00
   1.700000      0.0000000E+00
   1.710000      0.0000000E+00
   1.720000      0.0000000E+00
   1.730000      0.0000000E+00
   1.740000      0.0000000E+00
   1.750000      0.0000000E+00
   1.760000      0.0000000E+00
   1.770000      0.0000000E+00
   1.780000      0.0000000E+00
   1.790000      0.0000000E+00
   1.800000      0.0000000E+00
   1.810000      0.0000000E+00
   1.820000      0.0000000E+00
   1.830000      0.0000000E+00
   1.840000      0.0000000E+00
   1.850000      0.0000000E+00
   1.860000      0.0000000E+00
   1.870000      0.0000000E+00
   1.880000      0.0000000E+00
   1.890000      0.0000000E+00
   1.900000      0.0000000E+00
   1.910000      0.0000000E+00
   1.920000      0.0000000E+00
   1.930000      0.0000000E+00
   1.940000      0.0000000E+00
   1.950000      0.0000000E+00
   1.960000      0.0000000E+00
   1.970000      0.0000000E+00
   1.980000      0.0000000E+00
   1.990000      0.0000000E+00
   2.000000      0.0000000E+00
   2.010000      0.0000000E+00
   2.020000      0.0000000E+00
   2.030000      0.0000000E+00
   2.040000      0.0000000E+00
   2.050000      0.0000000E+00
   2.060000      0.0000000E+00
   2.070000      0.0000000E+00
   2.080000      0.0000000E+00
   2.090000      0.0000000E+00
   2.100000      0.0000000E+00
   2.110000      0.0000000E+00
   2.120000      0.0000000E+00
   2.130000      0.0000000E+00
   2.140000      0.0000000E+00
   2.150000      0.0000000E+00
   2.160000      0.0000000E+00
   2.170000      0.0000000E+00
   2.180000      0.0000000E+00
   2.190000      0.0000000E+00
   2.200000      0.0000000E+00
   2.210000      0.0000000E+00
   2.220000      0.0000000E+00
   2.230000      0.0000000E+00
   2.240000      0.0000000E+00
   2.250000      0.0000000E+00
   2.260000      0.0000000E+00
   2.270000      0.0000000E+00
   2.280000      0.0000000E+00
   2.290000      0.0000000E+00
   2.300000      0.0000000E+00
   2.310000      0.0000000E+00
   2.320000      0.0000000E+00
   2.330000      0.0000000E+00
   2.340000      0.0000000E+00
   2.350000      0.0000000E+00
   2.360000      0.0000000E+00
   2.370000      0.0000000E+00
   2.380000      0.0000000E+00
   2.390000      0.0000000E+00
   2.400000      0.0000000E+00
   2.410000      0.0000000E+00
   2.420000      0.0000000E+00
   2.430000      0.0000000E+00
   2.440000      0.0000000E+00
   2.450000      0.0000000E+00
   2.460000      0.0000000E+00
   2.470000      0.0000000E+00
   2.480000      0.0000000E+00
   2.490000      0.0000000E+00
   2.500000      0.0000000E+00
   2.510000      0.0000000E+00
   2.520000      0.0000000E+00
   2.530000      0.0000000E+00
   2.540000      0.0000000E+00
   2.550000      0.0000000E+00
   2.560000      0.0000000E+00
   2.570000      0.0000000E+00
   2.580000      0.0000000E+00
   2.590000      0.0000000E+00
   2.600000      0.0000000E+00
   2.610000      0.0000000E+00
   2.620000      0.0000000E+00
   2.630000      0.0000000E+00
   2.640000      0.0000000E+00
   2.650000      0.0000000E+00
   2.660000      0.0000000E+00
   2.670000      0.0000000E+00
   2.680000      0.0000000E+00
   2.690000      0.0000000E+00
   2.700000      0.0000000E+00
   2.710000      0.0000000E+00
   2.720000      0.0000000E+00
   2.730000      0.0000000E+00
   2.740000      0.0000000E+00
   2.750000      0.0000000E+00
   2.760000     -1.2305752E-38
   2.770000     -1.3284351E-38
   2.780000     -1.4374066E-38
   2.790000     -1.5575102E-38
   2.800000     -1.6885438E-38
   2.810000     -1.8300993E-38
   2.820000     -1.9816276E-38
   2.830000     -2.1424815E-38
   2.840000     -2.3119042E-38
   2.850000     -2.4890387E-38
   2.860000     -2.6729014E-38
   2.870000     -2.8624377E-38
   2.880000     -3.0532133E-38
   2.890000     -3.2531573E-38
   2.900000     -3.4664335E-38
   2.910000     -3.6818355E-38
   2.920000     -3.8983759E-38
   2.930000     -4.1187833E-38
   2.940000     -4.3435494E-38
   2.950000     -4.5637516E-38
   2.960000     -4.7797859E-38
   2.970000     -5.0054050E-38
   2.980000     -5.1399162E-38
   2.990000     -5.1772620E-38
   3.000000     -5.2444559E-38
   3.010000     -5.3286768E-38
   3.020000     -5.4177130E-38
   3.030000     -5.6338947E-38
   3.040000     -5.8678970E-38
   3.050000     -6.0176184E-38
   3.060000     -6.1845304E-38
   3.070000     -6.3684542E-38
   3.080000     -6.5683270E-38
   3.090000     -6.7775336E-38
   3.100000     -6.9590886E-38
   3.110000     -7.0658547E-38
   3.120000     -7.1113969E-38
   3.130000     -7.1876029E-38
   3.140000     -7.1326451E-38
   3.150000     -6.7252792E-38
   3.160000     -5.9859709E-38
   3.170000     -5.3571489E-38
   3.180000     -4.9209527E-38
   3.190000     -4.3527665E-38
   3.200000     -3.7016784E-38
   3.210000     -3.2686251E-38
   3.220000     -1.2664898E-38
   3.230000      2.6449237E-38
   3.240000      6.5851196E-38
   3.250000      8.5527759E-38
   3.260000      8.6400936E-38
   3.270000      8.5385835E-38
   3.280000      1.2602984E-37
   3.290000      2.1098199E-37
   3.300000      2.7771480E-37
   3.310000      3.2646988E-37
   3.320000      3.6413667E-37
   3.330000      3.6323358E-37
   3.340000      3.3501959E-37
   3.350000      2.9509947E-37
   3.360000      2.6149819E-37
   3.370000      2.7824763E-37
   3.380000      3.3639051E-37
   3.390000      4.1172351E-37
   3.400000      4.9669555E-37
   3.410000      5.8128771E-37
   3.420000      6.6536162E-37
   3.430000      7.5243934E-37
   3.440000      9.0771191E-37
   3.450000      1.1278448E-36
   3.460000      1.3169085E-36
   3.470000      1.4565793E-36
   3.480000      1.5284243E-36
   3.490000      1.5810715E-36
   3.500000      1.6673161E-36
   3.510000      1.7611507E-36
   3.520000      1.8549931E-36
   3.530000      1.9475548E-36
   3.540000      2.0440094E-36
   3.550000      2.1209148E-36
   3.560000      2.1715701E-36
   3.570000      2.2207731E-36
   3.580000      2.2675380E-36
   3.590000      2.3109920E-36
   3.600000      2.3892317E-36
   3.610000      2.4833115E-36
   3.620000      2.5350242E-36
   3.630000      2.5443030E-36
   3.640000      2.5343340E-36
   3.650000      2.5040245E-36
   3.660000      2.5377873E-36
   3.670000      2.6604442E-36
   3.680000      2.9320541E-36
   3.690000      3.3746277E-36
   3.700000      3.8699076E-36
   3.710000      3.6896970E-36
   3.720000      2.8475425E-36
   3.730000      2.0829456E-36
   3.740000      1.4407475E-36
   3.750000      9.3254668E-37
   3.760000      9.5488235E-37
   3.770000      1.4726556E-36
   3.780000      2.0753030E-36
   3.790000      2.8505051E-36
   3.800000      3.0142390E-36
   3.810000      2.4420075E-36
   3.820000      1.7217213E-36
   3.830000      9.2664975E-37
   3.840000      1.3133421E-37
   3.850000     -1.1342011E-36
   3.860000     -2.3626210E-36
   3.870000     -2.3393894E-36
   3.880000     -2.0204229E-36
   3.890000     -2.3740229E-36
   3.900000     -2.9848513E-36
   3.910000     -3.7121586E-36
   3.920000     -4.6028758E-36
   3.930000     -5.5921625E-36
   3.940000     -6.3050915E-36
   3.950000     -6.7304011E-36
   3.960000     -6.9236689E-36
   3.970000     -6.9104482E-36
   3.980000     -6.8474454E-36
   3.990000     -6.8084979E-36
   4.000000     -7.2985722E-36
   4.010000     -8.3498368E-36
   4.020000     -9.5788096E-36
   4.030000     -1.1061425E-35
   4.040000     -1.2570245E-35
   4.050000     -1.3912365E-35
   4.060000     -1.6282950E-35
   4.070000     -1.9563859E-35
   4.080000     -2.1904109E-35
   4.090000     -2.3431573E-35
   4.100000     -2.5174285E-35
   4.110000     -2.7104575E-35
   4.120000     -2.9063653E-35
   4.130000     -3.1041864E-35
   4.140000     -3.2384557E-35
   4.150000     -3.2978015E-35
   4.160000     -3.4059343E-35
   4.170000     -3.6430255E-35
   4.180000     -3.9461787E-35
   4.190000     -4.1844534E-35
   4.200000     -4.3729305E-35
   4.210000     -4.6109443E-35
   4.220000     -4.8859256E-35
   4.230000     -5.1537283E-35
   4.240000     -5.3921223E-35
   4.250000     -5.5778871E-35
   4.260000     -5.7103070E-35
   4.270000     -5.7429431E-35
   4.280000     -5.8002232E-35
   4.290000     -5.9448899E-35
   4.300000     -6.0796378E-35
   4.310000     -6.2258222E-35
   4.320000     -6.3489862E-35
   4.330000     -6.4598282E-35
   4.340000     -6.6195491E-35
   4.350000     -6.8547202E-35
   4.360000     -7.1826596E-35
   4.370000     -7.1689067E-35
   4.380000     -6.7133751E-35
   4.390000     -6.5038645E-35
   4.400000     -6.7463555E-35
   4.410000     -7.1619892E-35
   4.420000     -7.4827976E-35
   4.430000     -7.6507624E-35
   4.440000     -7.5637086E-35
   4.450000     -7.2547878E-35
   4.460000     -6.8135888E-35
   4.470000     -6.2335076E-35
   4.480000     -5.8043650E-35
   4.490000     -5.5469690E-35
   4.500000     -5.2870487E-35
   4.510000     -5.0065843E-35
   4.520000     -4.7102842E-35
   4.530000     -4.4274699E-35
   4.540000     -4.0767238E-35
   4.550000     -3.8558160E-35
   4.560000     -3.6193437E-35
   4.570000     -3.0631202E-35
   4.580000     -2.5190947E-35
   4.590000     -2.1136479E-35
   4.600000     -1.6693161E-35
   4.610000     -9.9604643E-36
   4.620000     -1.8654851E-36
   4.630000      7.9145553E-36
   4.640000      1.8763773E-35
   4.650000      2.8718926E-35
   4.660000      4.6674955E-35
   4.670000      7.5430835E-35
   4.680000      1.0781150E-34
   4.690000      1.4018737E-34
   4.700000      1.7541635E-34
   4.710000      2.1568025E-34
   4.720000      2.4580221E-34
   4.730000      2.6756781E-34
   4.740000      2.9364391E-34
   4.750000      3.2447848E-34
   4.760000      3.6216643E-34
   4.770000      4.0023200E-34
   4.780000      4.2322228E-34
   4.790000      4.2450228E-34
   4.800000      4.1492655E-34
   4.810000      4.0727445E-34
   4.820000      4.1264007E-34
   4.830000      4.3057963E-34
   4.840000      4.6049670E-34
   4.850000      5.0327188E-34
   4.860000      5.4947446E-34
   4.870000      6.0819981E-34
   4.880000      6.8090069E-34
   4.890000      7.5748057E-34
   4.900000      8.2328318E-34
   4.910000      8.7228376E-34
   4.920000      9.1911867E-34
   4.930000      9.6752277E-34
   4.940000      1.0175764E-33
   4.950000      1.0652835E-33
   4.960000      1.1021884E-33
   4.970000      1.1262476E-33
   4.980000      1.1412897E-33
   4.990000      1.1522161E-33
   5.000000      1.1640748E-33
   5.010000      1.1836221E-33
   5.020000      1.2179411E-33
   5.030000      1.2684207E-33
   5.040000      1.3382271E-33
   5.050000      1.4211832E-33
   5.060000      1.5058249E-33
   5.070000      1.5918436E-33
   5.080000      1.6763203E-33
   5.090000      1.7551345E-33
   5.100000      1.8225937E-33
   5.110000      1.8710211E-33
   5.120000      1.8983802E-33
   5.130000      1.9059447E-33
   5.140000      1.9002867E-33
   5.150000      1.8847645E-33
   5.160000      1.8568704E-33
   5.170000      1.8185068E-33
   5.180000      1.7799238E-33
   5.190000      1.7567666E-33
   5.200000      1.7606189E-33
   5.210000      1.7838410E-33
   5.220000      1.8133723E-33
   5.230000      1.8426840E-33
   5.240000      1.8626665E-33
   5.250000      1.8617349E-33
   5.260000      1.8251229E-33
   5.270000      1.7521836E-33
   5.280000      1.6508727E-33
   5.290000      1.5322810E-33
   5.300000      1.4063336E-33
   5.310000      1.2692664E-33
   5.320000      1.1169933E-33
   5.330000      9.5088677E-34
   5.340000      7.7736819E-34
   5.350000      6.1481289E-34
   5.360000      4.6456850E-34
   5.370000      3.1344084E-34
   5.380000      1.5168786E-34
   5.390000     -2.8808445E-35
   5.400000     -2.3712405E-34
   5.410000     -4.7784617E-34
   5.420000     -7.5200818E-34
   5.430000     -1.0742220E-33
   5.440000     -1.4473258E-33
   5.450000     -1.8663875E-33
   5.460000     -2.3277169E-33
   5.470000     -2.8261356E-33
   5.480000     -3.3565503E-33
   5.490000     -3.9100303E-33
   5.500000     -4.4742533E-33
   5.510000     -5.0418878E-33
   5.520000     -5.6112197E-33
   5.530000     -6.1794078E-33
   5.540000     -6.7476300E-33
   5.550000     -7.3200347E-33
   5.560000     -7.9039248E-33
   5.570000     -8.5078431E-33
   5.580000     -9.1396838E-33
   5.590000     -9.8081390E-33
   5.600000     -1.0521425E-32
   5.610000     -1.1283185E-32
   5.620000     -1.2093689E-32
   5.630000     -1.2951921E-32
   5.640000     -1.3856029E-32
   5.650000     -1.4799819E-32
   5.660000     -1.5777645E-32
   5.670000     -1.6778555E-32
   5.680000     -1.7796464E-32
   5.690000     -1.8832976E-32
   5.700000     -1.9880138E-32
   5.710000     -2.0935710E-32
   5.720000     -2.2003769E-32
   5.730000     -2.3087072E-32
   5.740000     -2.4188523E-32
   5.750000     -2.5310306E-32
   5.760000     -2.6452984E-32
   5.770000     -2.7613773E-32
   5.780000     -2.8787072E-32
   5.790000     -2.9964726E-32
   5.800000     -3.1135704E-32
   5.810000     -3.2287242E-32
   5.820000     -3.3405704E-32
   5.830000     -3.4478093E-32
   5.840000     -3.5493508E-32
   5.850000     -3.6444251E-32
   5.860000     -3.7325978E-32
   5.870000     -3.8138227E-32
   5.880000     -3.8884903E-32
   5.890000     -3.9572812E-32
   5.900000     -4.0210273E-32
   5.910000     -4.0805723E-32
   5.920000     -4.1366772E-32
   5.930000     -4.1898092E-32
   5.940000     -4.2399435E-32
   5.950000     -4.2865533E-32
   5.960000     -4.3285710E-32
   5.970000     -4.3643528E-32
   5.980000     -4.3916351E-32
   5.990000     -4.4078664E-32
   6.000000     -4.4104072E-32
   6.010000     -4.3964658E-32
   6.020000     -4.3634042E-32
   6.030000     -4.3088274E-32
   6.040000     -4.2306585E-32
   6.050000     -4.1273640E-32
   6.060000     -3.9979274E-32
   6.070000     -3.8414095E-32
   6.080000     -3.6572154E-32
   6.090000     -3.4453081E-32
   6.100000     -3.2056392E-32
   6.110000     -2.9383483E-32
   6.120000     -2.6430626E-32
   6.130000     -2.3193234E-32
   6.140000     -1.9670536E-32
   6.150000     -1.5858355E-32
   6.160000     -1.1752209E-32
   6.170000     -7.3460462E-33
   6.180000     -2.6339449E-33
   6.190000      2.3894231E-33
   6.200000      7.7298106E-33
   6.210000      1.3392823E-32
   6.220000      1.9384686E-32
   6.230000      2.5713416E-32
   6.240000      3.2390168E-32
   6.250000      3.9429539E-32
   6.260000      4.6850770E-32
   6.270000      5.4677691E-32
   6.280000      6.2938706E-32
   6.290000      7.1666111E-32
   6.300000      8.0894718E-32
   6.310000      9.0659731E-32
   6.320000      1.0099428E-31
   6.330000      1.1192698E-31
   6.340000      1.2347916E-31
   6.350000      1.3566246E-31
   6.360000      1.4847727E-31
   6.370000      1.6191151E-31
   6.380000      1.7594052E-31
   6.390000      1.9052769E-31
   6.400000      2.0562673E-31
   6.410000      2.2118393E-31
   6.420000      2.3714059E-31
   6.430000      2.5343712E-31
   6.440000      2.7001639E-31
   6.450000      2.8682662E-31
   6.460000      3.0382415E-31
   6.470000      3.2097550E-31
   6.480000      3.3825783E-31
   6.490000      3.5565924E-31
   6.500000      3.7317796E-31
   6.510000      3.9082051E-31
   6.520000      4.0859930E-31
   6.530000      4.2652986E-31
   6.540000      4.4462792E-31
   6.550000      4.6290601E-31
   6.560000      4.8137067E-31
   6.570000      5.0001947E-31
   6.580000      5.1883890E-31
   6.590000      5.3780183E-31
   6.600000      5.5686619E-31
   6.610000      5.7597342E-31
   6.620000      5.9504789E-31
   6.630000      6.1399611E-31
   6.640000      6.3270697E-31
   6.650000      6.5105220E-31
   6.660000      6.6888751E-31
   6.670000      6.8605457E-31
   6.680000      7.0238355E-31
   6.690000      7.1769624E-31
   6.700000      7.3181017E-31
   6.710000      7.4454312E-31
   6.720000      7.5571827E-31
   6.730000      7.6516886E-31
   6.740000      7.7274333E-31
   6.750000      7.7830873E-31
   6.760000      7.8175452E-31
   6.770000      7.8299382E-31
   6.780000      7.8196381E-31
   6.790000      7.7862240E-31
   6.800000      7.7294556E-31
   6.810000      7.6492267E-31
   6.820000      7.5454780E-31
   6.830000      7.4181170E-31
   6.840000      7.2669282E-31
   6.850000      7.0914838E-31
   6.860000      6.8910639E-31
   6.870000      6.6645828E-31
   6.880000      6.4105434E-31
   6.890000      6.1270062E-31
   6.900000      5.8115923E-31
   6.910000      5.4615047E-31
   6.920000      5.0735907E-31
   6.930000      4.6444200E-31
   6.940000      4.1703822E-31
   6.950000      3.6478039E-31
   6.960000      3.0730711E-31
   6.970000      2.4427563E-31
   6.980000      1.7537414E-31
   6.990000      1.0033216E-31
   7.000000      1.8929748E-32
   7.010000     -6.8995512E-32
   7.020000     -1.6354420E-31
   7.030000     -2.6475405E-31
   7.040000     -3.7260185E-31
   7.050000     -4.8700778E-31
   7.060000     -6.0784324E-31