  -2.600000      0.0000000E+00
  -2.590000      0.0000000E+00
  -2.580000      0.0000000E+00
  -2.570000      0.0000000E+00
  -2.560000      0.0000000E+00
  -2.550000      0.0000000E+00
  -2.540000      0.0000000E+00
  -2.530000      0.0000000E+00
  -2.520000      0.0000000E+00
  -2.510000      0.0000000E+00
  -2.500000      0.0000000E+00
  -2.490000      0.0000000E+00
  -2.480000      0.0000000E+00
  -2.470000      0.0000000E+00
  -2.460000      0.0000000E+00
  -2.450000      0.0000000E+00
  -2.440000      0.0000000E+00
  -2.430000      0.0000000E+00
  -2.420000      0.0000000E+00
  -2.410000      0.0000000E+00
  -2.400000      0.0000000E+00
  -2.390000      0.0000000E+00
  -2.380000      0.0000000E+00
  -2.370000      0.0000000E+00
  -2.360000      0.0000000E+00
  -2.350000      0.0000000E+00
  -2.340000      0.0000000E+00
  -2.330000      0.0000000E+00
  -2.320000      0.0000000E+00
  -2.310000      0.0000000E+00
  -2.300000      0.0000000E+00
  -2.290000      0.0000000E+00
  -2.280000      0.0000000E+00
  -2.270000      0.0000000E+00
  -2.260000      0.0000000E+00
  -2.250000      0.0000000E+00
  -2.240000      0.0000000E+00
  -2.230000      0.0000000E+00
  -2.220000      0.0000000E+00
  -2.210000      0.0000000E+00
  -2.200000      0.0000000E+00
  -2.190000      0.0000000E+00
  -2.180000      0.0000000E+00
  -2.170000      0.0000000E+00
  -2.160000      0.0000000E+00
  -2.150000      0.0000000E+00
  -2.140000      0.0000000E+00
  -2.130000      0.0000000E+00
  -2.120000      0.0000000E+00
  -2.110000      0.0000000E+00
  -2.100000      0.0000000E+00
  -2.090000      0.0000000E+00
  -2.080000      0.0000000E+00
  -2.070000      0.0000000E+00
  -2.060000      0.0000000E+00
  -2.050000      0.0000000E+00
  -2.040000      0.0000000E+00
  -2.030000      0.0000000E+00
  -2.020000      0.0000000E+00
  -2.010000      0.0000000E+00
  -2.000000      0.0000000E+00
  -1.990000      0.0000000E+00
  -1.980000      0.0000000E+00
  -1.970000      0.0000000E+00
  -1.960000      0.0000000E+00
  -1.950000      0.0000000E+00
  -1.940000      0.0000000E+00
  -1.930000      0.0000000E+00
  -1.920000      0.0000000E+00
  -1.910000      0.0000000E+00
  -1.900000      0.0000000E+00
  -1.890000      0.0000000E+00
  -1.880000      0.0000000E+00
  -1.870000      0.0000000E+00
  -1.860000      0.0000000E+00
  -1.850000      0.0000000E+00
  -1.840000      0.0000000E+00
  -1.830000      0.0000000E+00
  -1.820000      0.0000000E+00
  -1.810000      0.0000000E+00
  -1.800000      0.0000000E+00
  -1.790000      0.0000000E+00
  -1.780000      0.0000000E+00
  -1.770000      0.0000000E+00
  -1.760000      0.0000000E+00
  -1.750000      0.0000000E+00
  -1.740000      0.0000000E+00
  -1.730000      0.0000000E+00
  -1.720000      0.0000000E+00
  -1.710000      0.0000000E+00
  -1.700000      0.0000000E+00
  -1.690000      0.0000000E+00
  -1.680000      0.0000000E+00
  -1.670000      0.0000000E+00
  -1.660000      0.0000000E+00
  -1.650000      0.0000000E+00
  -1.640000      0.0000000E+00
  -1.630000      0.0000000E+00
  -1.620000      0.0000000E+00
  -1.610000      0.0000000E+00
  -1.600000      0.0000000E+00
  -1.590000      0.0000000E+00
  -1.580000      0.0000000E+00
  -1.570000      0.0000000E+00
  -1.560000      0.0000000E+00
  -1.550000      0.0000000E+00
  -1.540000      0.0000000E+00
  -1.530000      0.0000000E+00
  -1.520000      0.0000000E+00
  -1.510000      0.0000000E+00
  -1.500000      0.0000000E+00
  -1.490000      0.0000000E+00
  -1.480000      0.0000000E+00
  -1.470000      0.0000000E+00
  -1.460000      0.0000000E+00
  -1.450000      0.0000000E+00
  -1.440000      0.0000000E+00
  -1.430000      0.0000000E+00
  -1.420000      0.0000000E+00
  -1.410000      0.0000000E+00
  -1.400000      0.0000000E+00
  -1.390000      0.0000000E+00
  -1.380000      0.0000000E+00
  -1.370000      0.0000000E+00
  -1.360000      0.0000000E+00
  -1.350000      0.0000000E+00
  -1.340000      0.0000000E+00
  -1.330000      0.0000000E+00
  -1.320000      0.0000000E+00
  -1.310000      0.0000000E+00
  -1.300000      0.0000000E+00
  -1.290000      0.0000000E+00
  -1.280000      0.0000000E+00
  -1.270000      0.0000000E+00
  -1.260000      0.0000000E+00
  -1.250000      0.0000000E+00
  -1.240000      0.0000000E+00
  -1.230000      0.0000000E+00
  -1.220000      0.0000000E+00
  -1.210000      0.0000000E+00
  -1.200000      0.0000000E+00
  -1.190000      0.0000000E+00
  -1.180000      0.0000000E+00
  -1.170000      0.0000000E+00
  -1.160000      0.0000000E+00
  -1.150000      0.0000000E+00
  -1.140000      0.0000000E+00
  -1.130000      0.0000000E+00
  -1.120000      0.0000000E+00
  -1.110000      0.0000000E+00
  -1.100000      0.0000000E+00
  -1.090000      0.0000000E+00
  -1.080000      0.0000000E+00
  -1.070000      0.0000000E+00
  -1.060000      0.0000000E+00
  -1.050000      0.0000000E+00
  -1.040000      0.0000000E+00
  -1.030000      0.0000000E+00
  -1.020000      0.0000000E+00
  -1.010000      0.0000000E+00
  -1.000000      0.0000000E+00
 -0.9900000      0.0000000E+00
 -0.9800000      0.0000000E+00
 -0.9700000      0.0000000E+00
 -0.9600000      0.0000000E+00
 -0.9500000      0.0000000E+00
 -0.9400000      0.0000000E+00
 -0.9300000      0.0000000E+00
 -0.9200000      0.0000000E+00
 -0.9100000      0.0000000E+00
 -0.9000000      0.0000000E+00
 -0.8900000      0.0000000E+00
 -0.8800000      0.0000000E+00
 -0.8700000      0.0000000E+00
 -0.8600000      0.0000000E+00
 -0.8500000      0.0000000E+00
 -0.8400000      0.0000000E+00
 -0.8300000      0.0000000E+00
 -0.8200000      0.0000000E+00
 -0.8100000      0.0000000E+00
 -0.8000000      0.0000000E+00
 -0.7900000      0.0000000E+00
 -0.7800000      0.0000000E+00
 -0.7700000      0.0000000E+00
 -0.7600000      0.0000000E+00
 -0.7500000      0.0000000E+00
 -0.7400000      0.0000000E+00
 -0.7300000      0.0000000E+00
 -0.7200000      0.0000000E+00
 -0.7100000      0.0000000E+00
 -0.7000000      0.0000000E+00
 -0.6900000      0.0000000E+00
 -0.6800000      0.0000000E+00
 -0.6700000      0.0000000E+00
 -0.6600000      0.0000000E+00
 -0.6500000      0.0000000E+00
 -0.6400000      0.0000000E+00
 -0.6300000      0.0000000E+00
 -0.6200000      0.0000000E+00
 -0.6100000      0.0000000E+00
 -0.6000000      0.0000000E+00
 -0.5900000      0.0000000E+00
 -0.5800000      0.0000000E+00
 -0.5700000      0.0000000E+00
 -0.5600000      0.0000000E+00
 -0.5500000      0.0000000E+00
 -0.5400000      0.0000000E+00
 -0.5300000      0.0000000E+00
 -0.5200000      0.0000000E+00
 -0.5100000      0.0000000E+00
 -0.5000000      0.0000000E+00
 -0.4900000      0.0000000E+00
 -0.4800000      0.0000000E+00
 -0.4700000      0.0000000E+00
 -0.4600000      0.0000000E+00
 -0.4500000      0.0000000E+00
 -0.4400000      0.0000000E+00
 -0.4300000      0.0000000E+00
 -0.4200000      0.0000000E+00
 -0.4100000      0.0000000E+00
 -0.4000000      0.0000000E+00
 -0.3900000      0.0000000E+00
 -0.3800000      0.0000000E+00
 -0.3700000      0.0000000E+00
 -0.3600000      0.0000000E+00
 -0.3500000      0.0000000E+00
 -0.3400000      0.0000000E+00
 -0.3300000      0.0000000E+00
 -0.3200000      0.0000000E+00
 -0.3100000      0.0000000E+00
 -0.3000000      0.0000000E+00
 -0.2900000      0.0000000E+00
 -0.2800000      0.0000000E+00
 -0.2700000      0.0000000E+00
 -0.2600000      0.0000000E+00
 -0.2500000      0.0000000E+00
 -0.2400000      0.0000000E+00
 -0.2300000      0.0000000E+00
 -0.2200000      0.0000000E+00
 -0.2100000      0.0000000E+00
 -0.2000000      0.0000000E+00
 -0.1900000      0.0000000E+00
 -0.1800000      0.0000000E+00
 -0.1700000      0.0000000E+00
 -0.1600000      0.0000000E+00
 -0.1500000      0.0000000E+00
 -0.1400000      0.0000000E+00
 -0.1300000      0.0000000E+00
 -0.1200000      0.0000000E+00
 -0.1100000      0.0000000E+00
 -0.1000000      0.0000000E+00
 -9.0000004E-02  0.0000000E+00
 -7.9999998E-02  0.0000000E+00
 -7.0000000E-02  0.0000000E+00
 -5.9999999E-02  0.0000000E+00
 -5.0000001E-02  0.0000000E+00
 -3.9999999E-02  0.0000000E+00
 -2.9999999E-02  0.0000000E+00
 -2.0000000E-02  0.0000000E+00
 -9.9999998E-03  0.0000000E+00
 -3.4694470E-17  0.0000000E+00
  9.9999998E-03  0.0000000E+00
  2.0000000E-02  0.0000000E+00
  2.9999999E-02  0.0000000E+00
  3.9999999E-02  0.0000000E+00
  5.0000001E-02  0.0000000E+00
  5.9999999E-02  0.0000000E+00
  7.0000000E-02  0.0000000E+00
  7.9999998E-02  0.0000000E+00
  9.0000004E-02  0.0000000E+00
  0.1000000      0.0000000E+00
  0.1100000      0.0000000E+00
  0.1200000      0.0000000E+00
  0.1300000      0.0000000E+00
  0.1400000      0.0000000E+00
  0.1500000      0.0000000E+00
  0.1600000      0.0000000E+00
  0.1700000      0.0000000E+00
  0.1800000      0.0000000E+00
  0.1900000      0.0000000E+00
  0.2000000      0.0000000E+00
  0.2100000      0.0000000E+00
  0.2200000      0.0000000E+00
  0.2300000      0.0000000E+00
  0.2400000      0.0000000E+00
  0.2500000      0.0000000E+00
  0.2600000      0.0000000E+00
  0.2700000      0.0000000E+00
  0.2800000      0.0000000E+00
  0.2900000      0.0000000E+00
  0.3000000      0.0000000E+00
  0.3100000      0.0000000E+00
  0.3200000      0.0000000E+00
  0.3300000      0.0000000E+00
  0.3400000      0.0000000E+00
  0.3500000      0.0000000E+00
  0.3600000      0.0000000E+00
  0.3700000      0.0000000E+00
  0.3800000      0.0000000E+00
  0.3900000      0.0000000E+00
  0.4000000      0.0000000E+00
  0.4100000      0.0000000E+00
  0.4200000      0.0000000E+00
  0.4300000      0.0000000E+00
  0.4400000      0.0000000E+00
  0.4500000      0.0000000E+00
  0.4600000      0.0000000E+00
  0.4700000      0.0000000E+00
  0.4800000      0.0000000E+00
  0.4900000      0.0000000E+00
  0.5000000      0.0000000E+00
  0.5100000      0.0000000E+00
  0.5200000      0.0000000E+00
  0.5300000      0.0000000E+00
  0.5400000      0.0000000E+00
  0.5500000      0.0000000E+00
  0.5600000      0.0000000E+00
  0.5700000      0.0000000E+00
  0.5800000      0.0000000E+00
  0.5900000      0.0000000E+00
  0.6000000      0.0000000E+00
  0.6100000      0.0000000E+00
  0.6200000      0.0000000E+00
  0.6300000      0.0000000E+00
  0.6400000      0.0000000E+00
  0.6500000      0.0000000E+00
  0.6600000      0.0000000E+00
  0.6700000      0.0000000E+00
  0.6800000      0.0000000E+00
  0.6900000      0.0000000E+00
  0.7000000      0.0000000E+00
  0.7100000      0.0000000E+00
  0.7200000      0.0000000E+00
  0.7300000      0.0000000E+00
  0.7400000      0.0000000E+00
  0.7500000      0.0000000E+00
  0.7600000      0.0000000E+00
  0.7700000      0.0000000E+00
  0.7800000      0.0000000E+00
  0.7900000      0.0000000E+00
  0.8000000      0.0000000E+00
  0.8100000      0.0000000E+00
  0.8200000      0.0000000E+00
  0.8300000      0.0000000E+00
  0.8400000      0.0000000E+00
  0.8500000      0.0000000E+00
  0.8600000      0.0000000E+00
  0.8700000      0.0000000E+00
  0.8800000      0.0000000E+00
  0.8900000      0.0000000E+00
  0.9000000      0.0000000E+00
  0.9100000      0.0000000E+00
  0.9200000      0.0000000E+00
  0.9300000      0.0000000E+00
  0.9400000      0.0000000E+00
  0.9500000      0.0000000E+00
  0.9600000      0.0000000E+00
  0.9700000      0.0000000E+00
  0.9800000      0.0000000E+00
  0.9900000      0.0000000E+00
   1.000000      0.0000000E+00
   1.010000      0.0000000E+00
   1.020000      0.0000000E+00
   1.030000      0.0000000E+00
   1.040000      0.0000000E+00
   1.050000      0.0000000E+00
   1.060000      0.0000000E+00
   1.070000      0.0000000E+00
   1.080000      0.0000000E+00
   1.090000      0.0000000E+00
   1.100000      0.0000000E+00
   1.110000      0.0000000E+00
   1.120000      0.0000000E+00
   1.130000      0.0000000E+00
   1.140000      0.0000000E+00
   1.150000      0.0000000E+00
   1.160000      0.0000000E+00
   1.170000      0.0000000E+00
   1.180000      0.0000000E+00
   1.190000      0.0000000E+00
   1.200000      0.0000000E+00
   1.210000      0.0000000E+00
   1.220000      0.0000000E+00
   1.230000      0.0000000E+00
   1.240000      0.0000000E+00
   1.250000      0.0000000E+00
   1.260000      0.0000000E+00
   1.270000      0.0000000E+00
   1.280000      0.0000000E+00
   1.290000      0.0000000E+00
   1.300000      0.0000000E+00
   1.310000      0.0000000E+00
   1.320000      0.0000000E+00
   1.330000      0.0000000E+00
   1.340000      0.0000000E+00
   1.350000      0.0000000E+00
   1.360000      0.0000000E+00
   1.370000      0.0000000E+00
   1.380000      0.0000000E+00
   1.390000      0.0000000E+00
   1.400000      0.0000000E+00
   1.410000      0.0000000E+00
   1.420000      0.0000000E+00
   1.430000      0.0000000E+00
   1.440000      0.0000000E+00
   1.450000      0.0000000E+00
   1.460000      0.0000000E+00
   1.470000      0.0000000E+00
   1.480000      0.0000000E+00
   1.490000      0.0000000E+00
   1.500000      0.0000000E+00
   1.510000      0.0000000E+00
   1.520000      0.0000000E+00
   1.530000      0.0000000E+00
   1.540000      0.0000000E+00
   1.550000      0.0000000E+00
   1.560000      0.0000000E+00
   1.570000      0.0000000E+00
   1.580000      0.0000000E+00
   1.590000      0.0000000E+00
   1.600000      0.0000000E+00
   1.610000      0.0000000E+00
   1.620000      0.0000000E+00
   1.630000      0.0000000E+00
   1.640000      0.0000000E+00
   1.650000      0.0000000E+00
   1.660000      0.0000000E+00
   1.670000      0.0000000E+00
   1.680000      0.0000000E+00
   1.690000      0.0000000E+00
   1.700000      0.0000000E+00
   1.710000      0.0000000E+00
   1.720000      0.0000000E+00
   1.730000      0.0000000E+00
   1.740000      0.0000000E+00
   1.750000      0.0000000E+00
   1.760000      0.0000000E+00
   1.770000      0.0000000E+00
   1.780000      0.0000000E+00
   1.790000      0.0000000E+00
   1.800000      0.0000000E+00
   1.810000      0.0000000E+00
   1.820000      0.0000000E+00
   1.830000      0.0000000E+00
   1.840000      0.0000000E+00
   1.850000      0.0000000E+00
   1.860000      0.0000000E+00
   1.870000      0.0000000E+00
   1.880000      0.0000000E+00
   1.890000      0.0000000E+00
   1.900000      0.0000000E+00
   1.910000      0.0000000E+00
   1.920000      0.0000000E+00
   1.930000      0.0000000E+00
   1.940000      0.0000000E+00
   1.950000      0.0000000E+00
   1.960000      0.0000000E+00
   1.970000     -1.1779936E-38
   1.980000     -1.2247192E-38
   1.990000     -1.2719550E-38
   2.000000     -1.3217037E-38
   2.010000     -1.3229126E-38
   2.020000     -1.2679056E-38
   2.030000     -1.2055885E-38
   2.040000      0.0000000E+00
   2.050000      0.0000000E+00
   2.060000      0.0000000E+00
   2.070000     -1.2056076E-38
   2.080000     -1.6760118E-38
   2.090000     -2.1794824E-38
   2.100000     -2.7097371E-38
   2.110000     -3.2587591E-38
   2.120000     -3.8195643E-38
   2.130000     -4.3826456E-38
   2.140000     -4.9458145E-38
   2.150000     -5.4717179E-38
   2.160000     -5.9106467E-38
   2.170000     -5.9632710E-38
   2.180000     -5.6513369E-38
   2.190000     -5.2966571E-38
   2.200000     -4.9240260E-38
   2.210000     -4.5418323E-38
   2.220000     -4.0403459E-38
   2.230000     -3.4930111E-38
   2.240000     -2.9760676E-38
   2.250000     -2.9109453E-38
   2.260000     -3.3227785E-38
   2.270000     -3.8888953E-38
   2.280000     -4.6742079E-38
   2.290000     -5.9398553E-38
   2.300000     -7.7044443E-38
   2.310000     -9.5096789E-38
   2.320000     -1.1241199E-37
   2.330000     -1.2780496E-37
   2.340000     -1.4074422E-37
   2.350000     -1.5519959E-37
   2.360000     -1.6011077E-37
   2.370000     -1.5308106E-37
   2.380000     -1.4554641E-37
   2.390000     -1.3680391E-37
   2.400000     -1.2703325E-37
   2.410000     -1.1637348E-37
   2.420000     -9.7768751E-38
   2.430000     -6.5283827E-38
   2.440000     -1.6418738E-38
   2.450000      4.3831579E-38
   2.460000      1.0717946E-37
   2.470000      1.7163877E-37
   2.480000      2.2549175E-37
   2.490000      2.5979984E-37
   2.500000      2.8528116E-37
   2.510000      3.1076231E-37
   2.520000      3.3647822E-37
   2.530000      3.6341620E-37
   2.540000      3.6775235E-37
   2.550000      3.3960630E-37
   2.560000      3.0072152E-37
   2.570000      2.6012617E-37
   2.580000      2.1984198E-37
   2.590000      1.7784882E-37
   2.600000      1.4140530E-37
   2.610000      1.1737145E-37
   2.620000      1.0051219E-37
   2.630000      8.9466265E-38
   2.640000      7.8051355E-38
   2.650000      6.4306965E-38
   2.660000      5.7201093E-38
   2.670000      6.8106894E-38
   2.680000      8.8202607E-38
   2.690000      7.9424919E-38
   2.700000      1.6811735E-38
   2.710000     -6.1434163E-38
   2.720000      9.7717990E-38
   2.730000      4.9285097E-37
   2.740000      8.9139649E-37
   2.750000      1.2317952E-36
   2.760000      1.5246522E-36
   2.770000      1.7412276E-36
   2.780000      1.7981180E-36
   2.790000      1.6377368E-36
   2.800000      1.2874820E-36
   2.810000      9.8699150E-37
   2.820000      9.2191574E-37
   2.830000      1.1236279E-36
   2.840000      1.4343378E-36
   2.850000      1.8019988E-36
   2.860000      2.3283434E-36
   2.870000      2.4808633E-36
   2.880000      2.0818442E-36
   2.890000      1.4984278E-36
   2.900000      8.5699253E-37
   2.910000      3.9470784E-37
   2.920000      0.0000000E+00
   2.930000     -4.3063776E-37
   2.940000     -7.4543316E-37
   2.950000     -8.2160546E-37
   2.960000      5.9508763E-38
   2.970000      1.7172558E-36
   2.980000      2.8278368E-36
   2.990000      3.4141352E-36
   3.000000      4.0472258E-36
   3.010000      4.7953859E-36
   3.020000      5.5767823E-36
   3.030000      6.3569592E-36
   3.040000      7.2224428E-36
   3.050000      8.1039703E-36
   3.060000      8.5825803E-36
   3.070000      8.6536653E-36
   3.080000      8.5967760E-36
   3.090000      8.4512699E-36
   3.100000      8.5171037E-36
   3.110000      8.8270457E-36
   3.120000      9.1095259E-36
   3.130000      9.2212617E-36
   3.140000      9.1135875E-36
   3.150000      8.8649185E-36
   3.160000      8.4245034E-36
   3.170000      7.9545754E-36
   3.180000      7.7379018E-36
   3.190000      7.7783424E-36
   3.200000      7.1909755E-36
   3.210000      5.7680673E-36
   3.220000      2.8134077E-36
   3.230000     -2.0081641E-36
   3.240000     -6.6204302E-36
   3.250000     -8.7471143E-36
   3.260000     -6.6462905E-36
   3.270000     -2.5565827E-36
   3.280000      1.0961776E-36
   3.290000      2.3231853E-36
   3.300000      8.8396293E-37
   3.310000     -1.1472360E-36
   3.320000     -5.1046330E-36
   3.330000     -1.3279055E-35
   3.340000     -2.3314422E-35
   3.350000     -3.3618579E-35
   3.360000     -4.4473876E-35
   3.370000     -5.4973709E-35
   3.380000     -5.4372549E-35
   3.390000     -3.9562198E-35
   3.400000     -2.2999869E-35
   3.410000     -9.9169335E-36
   3.420000     -1.8875226E-36
   3.430000      3.1907562E-36
   3.440000      8.2755627E-36
   3.450000      1.0421037E-35
   3.460000      8.6938569E-36
   3.470000      4.0251455E-36
   3.480000     -3.6318650E-36
   3.490000     -1.4554316E-35
   3.500000     -2.8063473E-35
   3.510000     -4.1873247E-35
   3.520000     -5.5876854E-35
   3.530000     -6.9727461E-35
   3.540000     -8.5506825E-35
   3.550000     -1.0098325E-34
   3.560000     -1.1089758E-34
   3.570000     -1.1822228E-34
   3.580000     -1.2616752E-34
   3.590000     -1.3780420E-34
   3.600000     -1.4883444E-34
   3.610000     -1.4967641E-34
   3.620000     -1.4751079E-34
   3.630000     -1.5227316E-34
   3.640000     -1.6238573E-34
   3.650000     -1.6958418E-34
   3.660000     -1.7209820E-34
   3.670000     -1.7252710E-34
   3.680000     -1.7118674E-34
   3.690000     -1.7077455E-34
   3.700000     -1.7026032E-34
   3.710000     -1.6882201E-34
   3.720000     -1.7052245E-34
   3.730000     -1.7755545E-34
   3.740000     -1.8893255E-34
   3.750000     -2.0449446E-34
   3.760000     -2.2066933E-34
   3.770000     -2.3951173E-34
   3.780000     -2.6206292E-34
   3.790000     -2.8467355E-34
   3.800000     -3.0870151E-34
   3.810000     -3.3453070E-34
   3.820000     -3.6080663E-34
   3.830000     -3.8672322E-34
   3.840000     -4.1305274E-34
   3.850000     -4.3877062E-34
   3.860000     -4.6173684E-34
   3.870000     -4.8134166E-34
   3.880000     -4.9788573E-34
   3.890000     -5.1029064E-34
   3.900000     -5.1906708E-34
   3.910000     -5.2801787E-34
   3.920000     -5.3742288E-34
   3.930000     -5.4483676E-34
   3.940000     -5.4976323E-34
   3.950000     -5.5303818E-34
   3.960000     -5.5245732E-34
   3.970000     -5.4927389E-34
   3.980000     -5.4714101E-34
   3.990000     -5.4295597E-34
   4.000000     -5.3823646E-34
   4.010000     -5.3656202E-34
   4.020000     -5.3381513E-34
   4.030000     -5.2821321E-34
   4.040000     -5.1910561E-34
   4.050000     -5.0531040E-34
   4.060000     -4.8961884E-34
   4.070000     -4.7177837E-34
   4.080000     -4.4953948E-34
   4.090000     -4.2259063E-34
   4.100000     -3.9014492E-34
   4.110000     -3.5098854E-34
   4.120000     -3.0482267E-34
   4.130000     -2.5101924E-34
   4.140000     -1.8853961E-34
   4.150000     -1.1820284E-34
   4.160000     -4.2176003E-35
   4.170000      3.9191105E-35
   4.180000      1.2613980E-34
   4.190000      2.2048752E-34
   4.200000      3.2227987E-34
   4.210000      4.2945460E-34
   4.220000      5.3978788E-34
   4.230000      6.5709060E-34
   4.240000      7.8493176E-34
   4.250000      9.2175260E-34
   4.260000      1.0687004E-33
   4.270000      1.2239637E-33
   4.280000      1.3859973E-33
   4.290000      1.5578895E-33
   4.300000      1.7414253E-33
   4.310000      1.9365373E-33
   4.320000      2.1440718E-33
   4.330000      2.3647187E-33
   4.340000      2.5987377E-33
   4.350000      2.8463530E-33
   4.360000      3.1082521E-33
   4.370000      3.3845079E-33
   4.380000      3.6737582E-33
   4.390000      3.9752321E-33
   4.400000      4.2877824E-33
   4.410000      4.6102760E-33
   4.420000      4.9418113E-33
   4.430000      5.2816853E-33
   4.440000      5.6330666E-33
   4.450000      5.9985444E-33
   4.460000      6.3711015E-33
   4.470000      6.7467131E-33
   4.480000      7.1260841E-33
   4.490000      7.5106970E-33
   4.500000      7.9031586E-33
   4.510000      8.3019913E-33
   4.520000      8.7073605E-33
   4.530000      9.1205519E-33
   4.540000      9.5418543E-33
   4.550000      9.9716451E-33
   4.560000      1.0411169E-32
   4.570000      1.0861231E-32
   4.580000      1.1321609E-32
   4.590000      1.1791808E-32
   4.600000      1.2271690E-32
   4.610000      1.2760197E-32
   4.620000      1.3255399E-32
   4.630000      1.3754382E-32
   4.640000      1.4252062E-32
   4.650000      1.4744046E-32
   4.660000      1.5232018E-32
   4.670000      1.5709229E-32
   4.680000      1.6165695E-32
   4.690000      1.6598043E-32
   4.700000      1.7000752E-32
   4.710000      1.7368592E-32
   4.720000      1.7695228E-32
   4.730000      1.7977361E-32
   4.740000      1.8212795E-32
   4.750000      1.8397337E-32
   4.760000      1.8528781E-32
   4.770000      1.8605748E-32
   4.780000      1.8627487E-32
   4.790000      1.8594011E-32
   4.800000      1.8505631E-32
   4.810000      1.8362809E-32
   4.820000      1.8165912E-32
   4.830000      1.7914779E-32
   4.840000      1.7608490E-32
   4.850000      1.7245144E-32
   4.860000      1.6821478E-32
   4.870000      1.6332755E-32
   4.880000      1.5771418E-32
   4.890000      1.5130162E-32
   4.900000      1.4400082E-32
   4.910000      1.3568562E-32
   4.920000      1.2622571E-32
   4.930000      1.1548030E-32
   4.940000      1.0330170E-32
   4.950000      8.9540241E-33
   4.960000      7.4049363E-33
   4.970000      5.6690809E-33
   4.980000      3.7339780E-33
   4.990000      1.5889704E-33
   5.000000     -7.7438280E-34
   5.010000     -3.3620163E-33
   5.020000     -6.1772258E-33
   5.030000     -9.2206196E-33
   5.040000     -1.2490189E-32
   5.050000     -1.5981768E-32
   5.060000     -1.9689405E-32
   5.070000     -2.3605925E-32
   5.080000     -2.7723602E-32
   5.090000     -3.2034742E-32
   5.100000     -3.6532845E-32
   5.110000     -4.1213305E-32
   5.120000     -4.6073915E-32
   5.130000     -5.1115578E-32
   5.140000     -5.6342714E-32
   5.150000     -6.1763488E-32
   5.160000     -6.7389816E-32
   5.170000     -7.3237077E-32
   5.180000     -7.9323646E-32
   5.190000     -8.5670093E-32
   5.200000     -9.2298182E-32
   5.210000     -9.9229732E-32
   5.220000     -1.0648528E-31
   5.230000     -1.1408276E-31
   5.240000     -1.2203610E-31
   5.250000     -1.3035395E-31
   5.260000     -1.3903876E-31
   5.270000     -1.4808551E-31
   5.280000     -1.5748144E-31
   5.290000     -1.6720603E-31
   5.300000     -1.7723088E-31
   5.310000     -1.8752041E-31
   5.320000     -1.9803283E-31
   5.330000     -2.0872155E-31
   5.340000     -2.1953674E-31
   5.350000     -2.3042727E-31
   5.360000     -2.4134256E-31
   5.370000     -2.5223471E-31
   5.380000     -2.6306028E-31
   5.390000     -2.7378197E-31
   5.400000     -2.8436979E-31
   5.410000     -2.9480188E-31
   5.420000     -3.0506488E-31
   5.430000     -3.1515347E-31
   5.440000     -3.2506937E-31
   5.450000     -3.3481991E-31
   5.460000     -3.4441573E-31
   5.470000     -3.5386821E-31
   5.480000     -3.6318642E-31
   5.490000     -3.7237397E-31
   5.500000     -3.8142570E-31
   5.510000     -3.9032459E-31
   5.520000     -3.9903905E-31
   5.530000     -4.0752052E-31
   5.540000     -4.1570210E-31
   5.550000     -4.2349789E-31
   5.560000     -4.3080293E-31
   5.570000     -4.3749455E-31
   5.580000     -4.4343460E-31
   5.590000     -4.4847244E-31
   5.600000     -4.5244890E-31
   5.610000     -4.5520055E-31
   5.620000     -4.5656483E-31
   5.630000     -4.5638484E-31
   5.640000     -4.5451444E-31
   5.650000     -4.5082240E-31
   5.660000     -4.4519620E-31
   5.670000     -4.3754462E-31
   5.680000     -4.2779935E-31
   5.690000     -4.1591482E-31
   5.700000     -4.0186682E-31
   5.710000     -3.8564996E-31
   5.720000     -3.6727287E-31
   5.730000     -3.4675297E-31
   5.740000     -3.2410979E-31
   5.750000     -2.9935797E-31
   5.760000     -2.7249997E-31
   5.770000     -2.4351858E-31
   5.780000     -2.1237043E-31
   5.790000     -1.7898072E-31
   5.800000     -1.4323895E-31
   5.810000     -1.0499664E-31
   5.820000     -6.4067786E-32
   5.830000     -2.0230577E-32
   5.840000      2.6767758E-32
   5.850000      7.7204471E-32
   5.860000      1.3137261E-31
   5.870000      1.8957041E-31
   5.880000      2.5208984E-31
   5.890000      3.1920493E-31
   5.900000      3.9115931E-31
   5.910000      4.6815544E-31
   5.920000      5.5034501E-31
   5.930000      6.3782088E-31
   5.940000      7.3061206E-31
   5.950000      8.2868223E-31
   5.960000      9.3193126E-31
   5.970000      1.0401996E-30
   5.980000      1.1532766E-30
   5.990000      1.2709101E-30
   6.000000      1.3928261E-30
   6.010000      1.5187405E-30
   6.020000      1.6483711E-30
   6.030000      1.7814611E-30
   6.040000      1.9177918E-30
   6.050000      2.0571969E-30
   6.060000      2.1995728E-30
   6.070000      2.3448850E-30
   6.080000      2.4931712E-30
   6.090000      2.6445371E-30
   6.100000      2.7991485E-30
   6.110000      2.9572194E-30
   6.120000      3.1189916E-30
   6.130000      3.2847149E-30
   6.140000      3.4546214E-30
   6.150000      3.6288978E-30
   6.160000      3.8076587E-30
   6.170000      3.9909218E-30
   6.180000      4.1785830E-30
   6.190000      4.3703985E-30
   6.200000      4.5659699E-30
   6.210000      4.7647394E-30
   6.220000      4.9659885E-30
   6.230000      5.1688476E-30
   6.240000      5.3723112E-30
   6.250000      5.5752625E-30
   6.260000      5.7765019E-30
   6.270000      5.9747812E-30
   6.280000      6.1688439E-30
   6.290000      6.3574601E-30
   6.300000      6.5394658E-30
   6.310000      6.7137986E-30
   6.320000      6.8795218E-30
   6.330000      7.0358494E-30
   6.340000      7.1821516E-30
   6.350000      7.3179598E-30
   6.360000      7.4429526E-30
   6.370000      7.5569338E-30
   6.380000      7.6597973E-30
   6.390000      7.7514843E-30
   6.400000      7.8319363E-30
   6.410000      7.9010336E-30
   6.420000      7.9585406E-30
   6.430000      8.0040490E-30
   6.440000      8.0369260E-30
   6.450000      8.0562710E-30
   6.460000      8.0608835E-30
   6.470000      8.0492429E-30
   6.480000      8.0195061E-30
   6.490000      7.9695244E-30
   6.500000      7.8968740E-30
   6.510000      7.7989021E-30
   6.520000      7.6727921E-30
   6.530000      7.5156392E-30
   6.540000      7.3245328E-30
   6.550000      7.0966456E-30
   6.560000      6.8293205E-30
   6.570000      6.5201523E-30
   6.580000      6.1670609E-30
   6.590000      5.7683456E-30
   6.600000      5.3227227E-30
   6.610000      4.8293416E-30
   6.620000      4.2877738E-30
   6.630000      3.6979755E-30
   6.640000      3.0602314E-30
   6.650000      2.3750741E-30
   6.660000      1.6431841E-30
   6.670000      8.6527716E-31
   6.680000      4.1985646E-32
   6.690000     -8.2626222E-31
   6.700000     -1.7393575E-30
   6.710000     -2.6976044E-30
   6.720000     -3.7017991E-30
   6.730000     -4.7532779E-30
   6.740000     -5.8539340E-30
   6.750000     -7.0062014E-30
   6.760000     -8.2129891E-30
   6.770000     -9.4775983E-30
   6.780000     -1.0803595E-29
   6.790000     -1.2194648E-29
   6.800000     -1.3654356E-29
   6.810000     -1.5186070E-29
   6.820000     -1.6792687E-29
   6.830000     -1.8476463E-29
   6.840000     -2.0238858E-29
   6.850000     -2.2080391E-29
   6.860000     -2.4000543E-29
   6.870000     -2.5997704E-29
   6.880000     -2.8069177E-29
   6.890000     -3.0211211E-29
   6.900000     -3.2419113E-29
   6.910000     -3.4687407E-29
   6.920000     -3.7010024E-29
   6.930000     -3.9380531E-29
   6.940000     -4.1792379E-29
   6.950000     -4.4239162E-29
   6.960000     -4.6714872E-29
   6.970000     -4.9214118E-29
   6.980000     -5.1732314E-29
   6.990000     -5.4265803E-29
   7.000000     -5.6811954E-29
   7.010000     -5.9369132E-29
   7.020000     -6.1936625E-29
   7.030000     -6.4514500E-29
   7.040000     -6.7103365E-29
   7.050000     -6.9704063E-29
   7.060000     -7.2317351E-29