  -2.600000      0.0000000E+00
  -2.590000      0.0000000E+00
  -2.580000      0.0000000E+00
  -2.570000      0.0000000E+00
  -2.560000      0.0000000E+00
  -2.550000      0.0000000E+00
  -2.540000      0.0000000E+00
  -2.530000      0.0000000E+00
  -2.520000      0.0000000E+00
  -2.510000      0.0000000E+00
  -2.500000      0.0000000E+00
  -2.490000      0.0000000E+00
  -2.480000      0.0000000E+00
  -2.470000      0.0000000E+00
  -2.460000      0.0000000E+00
  -2.450000      0.0000000E+00
  -2.440000      0.0000000E+00
  -2.430000      0.0000000E+00
  -2.420000      0.0000000E+00
  -2.410000      0.0000000E+00
  -2.400000      0.0000000E+00
  -2.390000      0.0000000E+00
  -2.380000      0.0000000E+00
  -2.370000      0.0000000E+00
  -2.360000      0.0000000E+00
  -2.350000      0.0000000E+00
  -2.340000      0.0000000E+00
  -2.330000      0.0000000E+00
  -2.320000      0.0000000E+00
  -2.310000      0.0000000E+00
  -2.300000      0.0000000E+00
  -2.290000      0.0000000E+00
  -2.280000      0.0000000E+00
  -2.270000      0.0000000E+00
  -2.260000      0.0000000E+00
  -2.250000      0.0000000E+00
  -2.240000      0.0000000E+00
  -2.230000      0.0000000E+00
  -2.220000      0.0000000E+00
  -2.210000      0.0000000E+00
  -2.200000      0.0000000E+00
  -2.190000      0.0000000E+00
  -2.180000      0.0000000E+00
  -2.170000      0.0000000E+00
  -2.160000      0.0000000E+00
  -2.150000      0.0000000E+00
  -2.140000      0.0000000E+00
  -2.130000      0.0000000E+00
  -2.120000      0.0000000E+00
  -2.110000      0.0000000E+00
  -2.100000      0.0000000E+00
  -2.090000      0.0000000E+00
  -2.080000      0.0000000E+00
  -2.070000      0.0000000E+00
  -2.060000      0.0000000E+00
  -2.050000      0.0000000E+00
  -2.040000      0.0000000E+00
  -2.030000      0.0000000E+00
  -2.020000      0.0000000E+00
  -2.010000      0.0000000E+00
  -2.000000      0.0000000E+00
  -1.990000      0.0000000E+00
  -1.980000      0.0000000E+00
  -1.970000      0.0000000E+00
  -1.960000      0.0000000E+00
  -1.950000      0.0000000E+00
  -1.940000      0.0000000E+00
  -1.930000      0.0000000E+00
  -1.920000      0.0000000E+00
  -1.910000      0.0000000E+00
  -1.900000      0.0000000E+00
  -1.890000      0.0000000E+00
  -1.880000      0.0000000E+00
  -1.870000      0.0000000E+00
  -1.860000      0.0000000E+00
  -1.850000      0.0000000E+00
  -1.840000      0.0000000E+00
  -1.830000      0.0000000E+00
  -1.820000      0.0000000E+00
  -1.810000      0.0000000E+00
  -1.800000      0.0000000E+00
  -1.790000      0.0000000E+00
  -1.780000      0.0000000E+00
  -1.770000      0.0000000E+00
  -1.760000      0.0000000E+00
  -1.750000      0.0000000E+00
  -1.740000      0.0000000E+00
  -1.730000      0.0000000E+00
  -1.720000      0.0000000E+00
  -1.710000      0.0000000E+00
  -1.700000      0.0000000E+00
  -1.690000      0.0000000E+00
  -1.680000      0.0000000E+00
  -1.670000      0.0000000E+00
  -1.660000      0.0000000E+00
  -1.650000      0.0000000E+00
  -1.640000      0.0000000E+00
  -1.630000      0.0000000E+00
  -1.620000      0.0000000E+00
  -1.610000      0.0000000E+00
  -1.600000      0.0000000E+00
  -1.590000      0.0000000E+00
  -1.580000      0.0000000E+00
  -1.570000      0.0000000E+00
  -1.560000      0.0000000E+00
  -1.550000      0.0000000E+00
  -1.540000      0.0000000E+00
  -1.530000      0.0000000E+00
  -1.520000      0.0000000E+00
  -1.510000      0.0000000E+00
  -1.500000      0.0000000E+00
  -1.490000      0.0000000E+00
  -1.480000      0.0000000E+00
  -1.470000      0.0000000E+00
  -1.460000      0.0000000E+00
  -1.450000      0.0000000E+00
  -1.440000      0.0000000E+00
  -1.430000      0.0000000E+00
  -1.420000      0.0000000E+00
  -1.410000      0.0000000E+00
  -1.400000      0.0000000E+00
  -1.390000      0.0000000E+00
  -1.380000      0.0000000E+00
  -1.370000      0.0000000E+00
  -1.360000      0.0000000E+00
  -1.350000      0.0000000E+00
  -1.340000      0.0000000E+00
  -1.330000      0.0000000E+00
  -1.320000      0.0000000E+00
  -1.310000      0.0000000E+00
  -1.300000      0.0000000E+00
  -1.290000      0.0000000E+00
  -1.280000      0.0000000E+00
  -1.270000      0.0000000E+00
  -1.260000      0.0000000E+00
  -1.250000      0.0000000E+00
  -1.240000      0.0000000E+00
  -1.230000      0.0000000E+00
  -1.220000      0.0000000E+00
  -1.210000      0.0000000E+00
  -1.200000      0.0000000E+00
  -1.190000      0.0000000E+00
  -1.180000      0.0000000E+00
  -1.170000      0.0000000E+00
  -1.160000      0.0000000E+00
  -1.150000      0.0000000E+00
  -1.140000      0.0000000E+00
  -1.130000      0.0000000E+00
  -1.120000      0.0000000E+00
  -1.110000      0.0000000E+00
  -1.100000      0.0000000E+00
  -1.090000      0.0000000E+00
  -1.080000      0.0000000E+00
  -1.070000      0.0000000E+00
  -1.060000      0.0000000E+00
  -1.050000      0.0000000E+00
  -1.040000      0.0000000E+00
  -1.030000      0.0000000E+00
  -1.020000      0.0000000E+00
  -1.010000      0.0000000E+00
  -1.000000      0.0000000E+00
 -0.9900000      0.0000000E+00
 -0.9800000      0.0000000E+00
 -0.9700000      0.0000000E+00
 -0.9600000      0.0000000E+00
 -0.9500000      0.0000000E+00
 -0.9400000      0.0000000E+00
 -0.9300000      0.0000000E+00
 -0.9200000      0.0000000E+00
 -0.9100000      0.0000000E+00
 -0.9000000      0.0000000E+00
 -0.8900000      0.0000000E+00
 -0.8800000      0.0000000E+00
 -0.8700000      0.0000000E+00
 -0.8600000      0.0000000E+00
 -0.8500000      0.0000000E+00
 -0.8400000      0.0000000E+00
 -0.8300000      0.0000000E+00
 -0.8200000      0.0000000E+00
 -0.8100000      0.0000000E+00
 -0.8000000      0.0000000E+00
 -0.7900000      0.0000000E+00
 -0.7800000      0.0000000E+00
 -0.7700000      0.0000000E+00
 -0.7600000      0.0000000E+00
 -0.7500000      0.0000000E+00
 -0.7400000      0.0000000E+00
 -0.7300000      0.0000000E+00
 -0.7200000      0.0000000E+00
 -0.7100000      0.0000000E+00
 -0.7000000      0.0000000E+00
 -0.6900000      0.0000000E+00
 -0.6800000      0.0000000E+00
 -0.6700000      0.0000000E+00
 -0.6600000      0.0000000E+00
 -0.6500000      0.0000000E+00
 -0.6400000      0.0000000E+00
 -0.6300000      0.0000000E+00
 -0.6200000      0.0000000E+00
 -0.6100000      0.0000000E+00
 -0.6000000      0.0000000E+00
 -0.5900000      0.0000000E+00
 -0.5800000      0.0000000E+00
 -0.5700000      0.0000000E+00
 -0.5600000      0.0000000E+00
 -0.5500000      0.0000000E+00
 -0.5400000      0.0000000E+00
 -0.5300000      0.0000000E+00
 -0.5200000      0.0000000E+00
 -0.5100000      0.0000000E+00
 -0.5000000      0.0000000E+00
 -0.4900000      0.0000000E+00
 -0.4800000      0.0000000E+00
 -0.4700000      0.0000000E+00
 -0.4600000      0.0000000E+00
 -0.4500000      0.0000000E+00
 -0.4400000      0.0000000E+00
 -0.4300000      0.0000000E+00
 -0.4200000      0.0000000E+00
 -0.4100000      0.0000000E+00
 -0.4000000      0.0000000E+00
 -0.3900000      0.0000000E+00
 -0.3800000      0.0000000E+00
 -0.3700000      0.0000000E+00
 -0.3600000      0.0000000E+00
 -0.3500000      0.0000000E+00
 -0.3400000      0.0000000E+00
 -0.3300000      0.0000000E+00
 -0.3200000      0.0000000E+00
 -0.3100000      0.0000000E+00
 -0.3000000      0.0000000E+00
 -0.2900000      0.0000000E+00
 -0.2800000      0.0000000E+00
 -0.2700000      0.0000000E+00
 -0.2600000      0.0000000E+00
 -0.2500000      0.0000000E+00
 -0.2400000      0.0000000E+00
 -0.2300000      0.0000000E+00
 -0.2200000      0.0000000E+00
 -0.2100000      0.0000000E+00
 -0.2000000      0.0000000E+00
 -0.1900000      0.0000000E+00
 -0.1800000      0.0000000E+00
 -0.1700000      0.0000000E+00
 -0.1600000      0.0000000E+00
 -0.1500000      0.0000000E+00
 -0.1400000      0.0000000E+00
 -0.1300000      0.0000000E+00
 -0.1200000      0.0000000E+00
 -0.1100000      0.0000000E+00
 -0.1000000      0.0000000E+00
 -9.0000004E-02  0.0000000E+00
 -7.9999998E-02  0.0000000E+00
 -7.0000000E-02  0.0000000E+00
 -5.9999999E-02  0.0000000E+00
 -5.0000001E-02  0.0000000E+00
 -3.9999999E-02  0.0000000E+00
 -2.9999999E-02  0.0000000E+00
 -2.0000000E-02  0.0000000E+00
 -9.9999998E-03  0.0000000E+00
 -3.4694470E-17  0.0000000E+00
  9.9999998E-03  0.0000000E+00
  2.0000000E-02  0.0000000E+00
  2.9999999E-02  0.0000000E+00
  3.9999999E-02  0.0000000E+00
  5.0000001E-02  0.0000000E+00
  5.9999999E-02  0.0000000E+00
  7.0000000E-02  0.0000000E+00
  7.9999998E-02  0.0000000E+00
  9.0000004E-02  0.0000000E+00
  0.1000000      0.0000000E+00
  0.1100000      0.0000000E+00
  0.1200000      0.0000000E+00
  0.1300000      0.0000000E+00
  0.1400000      0.0000000E+00
  0.1500000      0.0000000E+00
  0.1600000      0.0000000E+00
  0.1700000      0.0000000E+00
  0.1800000      0.0000000E+00
  0.1900000      0.0000000E+00
  0.2000000      0.0000000E+00
  0.2100000      0.0000000E+00
  0.2200000      0.0000000E+00
  0.2300000      0.0000000E+00
  0.2400000      0.0000000E+00
  0.2500000      0.0000000E+00
  0.2600000      0.0000000E+00
  0.2700000      0.0000000E+00
  0.2800000      0.0000000E+00
  0.2900000      0.0000000E+00
  0.3000000      0.0000000E+00
  0.3100000      0.0000000E+00
  0.3200000      0.0000000E+00
  0.3300000      0.0000000E+00
  0.3400000      0.0000000E+00
  0.3500000      0.0000000E+00
  0.3600000      0.0000000E+00
  0.3700000      0.0000000E+00
  0.3800000      0.0000000E+00
  0.3900000      0.0000000E+00
  0.4000000      0.0000000E+00
  0.4100000      0.0000000E+00
  0.4200000      0.0000000E+00
  0.4300000      0.0000000E+00
  0.4400000      0.0000000E+00
  0.4500000      0.0000000E+00
  0.4600000      0.0000000E+00
  0.4700000      0.0000000E+00
  0.4800000      0.0000000E+00
  0.4900000      0.0000000E+00
  0.5000000      0.0000000E+00
  0.5100000      0.0000000E+00
  0.5200000      0.0000000E+00
  0.5300000      0.0000000E+00
  0.5400000      0.0000000E+00
  0.5500000      0.0000000E+00
  0.5600000      0.0000000E+00
  0.5700000      0.0000000E+00
  0.5800000      0.0000000E+00
  0.5900000      0.0000000E+00
  0.6000000      0.0000000E+00
  0.6100000      0.0000000E+00
  0.6200000      0.0000000E+00
  0.6300000      0.0000000E+00
  0.6400000      0.0000000E+00
  0.6500000      0.0000000E+00
  0.6600000      0.0000000E+00
  0.6700000      0.0000000E+00
  0.6800000      0.0000000E+00
  0.6900000      0.0000000E+00
  0.7000000      0.0000000E+00
  0.7100000      0.0000000E+00
  0.7200000      0.0000000E+00
  0.7300000      0.0000000E+00
  0.7400000      0.0000000E+00
  0.7500000      0.0000000E+00
  0.7600000      0.0000000E+00
  0.7700000      0.0000000E+00
  0.7800000      0.0000000E+00
  0.7900000      0.0000000E+00
  0.8000000      0.0000000E+00
  0.8100000      0.0000000E+00
  0.8200000      0.0000000E+00
  0.8300000      0.0000000E+00
  0.8400000      0.0000000E+00
  0.8500000      0.0000000E+00
  0.8600000      0.0000000E+00
  0.8700000      0.0000000E+00
  0.8800000      0.0000000E+00
  0.8900000      0.0000000E+00
  0.9000000      0.0000000E+00
  0.9100000      0.0000000E+00
  0.9200000      0.0000000E+00
  0.9300000      0.0000000E+00
  0.9400000      0.0000000E+00
  0.9500000      0.0000000E+00
  0.9600000      0.0000000E+00
  0.9700000      0.0000000E+00
  0.9800000      0.0000000E+00
  0.9900000      0.0000000E+00
   1.000000      0.0000000E+00
   1.010000      0.0000000E+00
   1.020000      0.0000000E+00
   1.030000      0.0000000E+00
   1.040000      0.0000000E+00
   1.050000      0.0000000E+00
   1.060000      0.0000000E+00
   1.070000      0.0000000E+00
   1.080000      0.0000000E+00
   1.090000      0.0000000E+00
   1.100000      0.0000000E+00
   1.110000      0.0000000E+00
   1.120000      0.0000000E+00
   1.130000      0.0000000E+00
   1.140000      0.0000000E+00
   1.150000      0.0000000E+00
   1.160000      0.0000000E+00
   1.170000      0.0000000E+00
   1.180000      0.0000000E+00
   1.190000      0.0000000E+00
   1.200000      0.0000000E+00
   1.210000      0.0000000E+00
   1.220000      0.0000000E+00
   1.230000      0.0000000E+00
   1.240000      0.0000000E+00
   1.250000      0.0000000E+00
   1.260000      0.0000000E+00
   1.270000      0.0000000E+00
   1.280000      0.0000000E+00
   1.290000      0.0000000E+00
   1.300000      0.0000000E+00
   1.310000      0.0000000E+00
   1.320000      0.0000000E+00
   1.330000      0.0000000E+00
   1.340000      0.0000000E+00
   1.350000      0.0000000E+00
   1.360000      0.0000000E+00
   1.370000      0.0000000E+00
   1.380000      0.0000000E+00
   1.390000      0.0000000E+00
   1.400000      0.0000000E+00
   1.410000      0.0000000E+00
   1.420000      0.0000000E+00
   1.430000      0.0000000E+00
   1.440000      0.0000000E+00
   1.450000      0.0000000E+00
   1.460000      0.0000000E+00
   1.470000      0.0000000E+00
   1.480000      0.0000000E+00
   1.490000      0.0000000E+00
   1.500000      0.0000000E+00
   1.510000      0.0000000E+00
   1.520000      0.0000000E+00
   1.530000      0.0000000E+00
   1.540000      0.0000000E+00
   1.550000      0.0000000E+00
   1.560000      0.0000000E+00
   1.570000      0.0000000E+00
   1.580000      0.0000000E+00
   1.590000      0.0000000E+00
   1.600000      0.0000000E+00
   1.610000      0.0000000E+00
   1.620000      0.0000000E+00
   1.630000      0.0000000E+00
   1.640000      0.0000000E+00
   1.650000      0.0000000E+00
   1.660000      0.0000000E+00
   1.670000      0.0000000E+00
   1.680000      0.0000000E+00
   1.690000      0.0000000E+00
   1.700000      0.0000000E+00
   1.710000      0.0000000E+00
   1.720000      0.0000000E+00
   1.730000      0.0000000E+00
   1.740000      0.0000000E+00
   1.750000      0.0000000E+00
   1.760000      0.0000000E+00
   1.770000      0.0000000E+00
   1.780000      0.0000000E+00
   1.790000      0.0000000E+00
   1.800000      0.0000000E+00
   1.810000      0.0000000E+00
   1.820000      0.0000000E+00
   1.830000      0.0000000E+00
   1.840000      0.0000000E+00
   1.850000      0.0000000E+00
   1.860000      0.0000000E+00
   1.870000      0.0000000E+00
   1.880000      0.0000000E+00
   1.890000      0.0000000E+00
   1.900000      0.0000000E+00
   1.910000      0.0000000E+00
   1.920000      0.0000000E+00
   1.930000      0.0000000E+00
   1.940000      0.0000000E+00
   1.950000      0.0000000E+00
   1.960000      0.0000000E+00
   1.970000      0.0000000E+00
   1.980000      0.0000000E+00
   1.990000      0.0000000E+00
   2.000000      0.0000000E+00
   2.010000      0.0000000E+00
   2.020000      0.0000000E+00
   2.030000      0.0000000E+00
   2.040000      0.0000000E+00
   2.050000      0.0000000E+00
   2.060000      0.0000000E+00
   2.070000      0.0000000E+00
   2.080000      0.0000000E+00
   2.090000      0.0000000E+00
   2.100000      0.0000000E+00
   2.110000      0.0000000E+00
   2.120000      0.0000000E+00
   2.130000      0.0000000E+00
   2.140000      0.0000000E+00
   2.150000      0.0000000E+00
   2.160000      0.0000000E+00
   2.170000      0.0000000E+00
   2.180000      0.0000000E+00
   2.190000      0.0000000E+00
   2.200000      0.0000000E+00
   2.210000      0.0000000E+00
   2.220000      0.0000000E+00
   2.230000      0.0000000E+00
   2.240000      0.0000000E+00
   2.250000      0.0000000E+00
   2.260000      0.0000000E+00
   2.270000      0.0000000E+00
   2.280000      0.0000000E+00
   2.290000      0.0000000E+00
   2.300000      0.0000000E+00
   2.310000      0.0000000E+00
   2.320000      0.0000000E+00
   2.330000      0.0000000E+00
   2.340000      0.0000000E+00
   2.350000      0.0000000E+00
   2.360000      0.0000000E+00
   2.370000      0.0000000E+00
   2.380000      0.0000000E+00
   2.390000      0.0000000E+00
   2.400000      0.0000000E+00
   2.410000      0.0000000E+00
   2.420000      0.0000000E+00
   2.430000      0.0000000E+00
   2.440000      0.0000000E+00
   2.450000      0.0000000E+00
   2.460000      0.0000000E+00
   2.470000      0.0000000E+00
   2.480000      0.0000000E+00
   2.490000      0.0000000E+00
   2.500000      0.0000000E+00
   2.510000      0.0000000E+00
   2.520000      0.0000000E+00
   2.530000      0.0000000E+00
   2.540000      0.0000000E+00
   2.550000      0.0000000E+00
   2.560000      0.0000000E+00
   2.570000      0.0000000E+00
   2.580000      0.0000000E+00
   2.590000      0.0000000E+00
   2.600000      0.0000000E+00
   2.610000      0.0000000E+00
   2.620000      0.0000000E+00
   2.630000      0.0000000E+00
   2.640000      0.0000000E+00
   2.650000      0.0000000E+00
   2.660000      0.0000000E+00
   2.670000      0.0000000E+00
   2.680000      0.0000000E+00
   2.690000      0.0000000E+00
   2.700000      0.0000000E+00
   2.710000      0.0000000E+00
   2.720000      0.0000000E+00
   2.730000      0.0000000E+00
   2.740000      0.0000000E+00
   2.750000      0.0000000E+00
   2.760000      0.0000000E+00
   2.770000      0.0000000E+00
   2.780000      0.0000000E+00
   2.790000      0.0000000E+00
   2.800000      0.0000000E+00
   2.810000      0.0000000E+00
   2.820000     -1.1985027E-38
   2.830000     -1.2926013E-38
   2.840000     -1.3764359E-38
   2.850000     -1.4578186E-38
   2.860000     -1.5203134E-38
   2.870000     -1.5592947E-38
   2.880000     -1.6137870E-38
   2.890000     -1.6905468E-38
   2.900000     -1.7832851E-38
   2.910000     -1.8901384E-38
   2.920000     -2.0168576E-38
   2.930000     -2.2466023E-38
   2.940000     -2.5751690E-38
   2.950000     -2.9237493E-38
   2.960000     -3.2851273E-38
   2.970000     -3.5583937E-38
   2.980000     -3.7528729E-38
   2.990000     -3.9565060E-38
   3.000000     -4.1682562E-38
   3.010000     -4.3982807E-38
   3.020000     -4.6471939E-38
   3.030000     -4.9162600E-38
   3.040000     -5.2038833E-38
   3.050000     -5.5109565E-38
   3.060000     -5.8331515E-38
   3.070000     -6.1671409E-38
   3.080000     -6.5136422E-38
   3.090000     -6.8711656E-38
   3.100000     -7.7028682E-38
   3.110000     -9.3504213E-38
   3.120000     -1.1429292E-37
   3.130000     -1.3676153E-37
   3.140000     -1.6005337E-37
   3.150000     -1.8219659E-37
   3.160000     -1.9452861E-37
   3.170000     -1.9489755E-37
   3.180000     -1.9144764E-37
   3.190000     -1.7800505E-37
   3.200000     -1.5363122E-37
   3.210000     -1.2567092E-37
   3.220000     -9.4746867E-38
   3.230000     -6.1208095E-38
   3.240000     -2.5771628E-38
   3.250000      0.0000000E+00
   3.260000      3.0807774E-38
   3.270000      5.3459486E-38
   3.280000      7.5526064E-38
   3.290000      9.6506170E-38
   3.300000      1.1335740E-37
   3.310000      1.2498475E-37
   3.320000      1.2598712E-37
   3.330000      1.1802121E-37
   3.340000      1.1492626E-37
   3.350000      1.1857495E-37
   3.360000      1.2519589E-37
   3.370000      1.3624082E-37
   3.380000      1.5202840E-37
   3.390000      1.7777714E-37
   3.400000      2.1820744E-37
   3.410000      2.7146382E-37
   3.420000      3.3643284E-37
   3.430000      4.1317023E-37
   3.440000      5.0381263E-37
   3.450000      6.0803982E-37
   3.460000      7.2175234E-37
   3.470000      8.3436539E-37
   3.480000      9.3852962E-37
   3.490000      1.0404237E-36
   3.500000      1.1441121E-36
   3.510000      1.2487429E-36
   3.520000      1.3600170E-36
   3.530000      1.4764799E-36
   3.540000      1.5899637E-36
   3.550000      1.7139705E-36
   3.560000      1.8264052E-36
   3.570000      1.9141003E-36
   3.580000      2.0974691E-36
   3.590000      2.5140100E-36
   3.600000      3.0892733E-36
   3.610000      3.4346128E-36
   3.620000      3.5411308E-36
   3.630000      3.6345243E-36
   3.640000      3.6784141E-36
   3.650000      3.7108737E-36
   3.660000      3.7359752E-36
   3.670000      3.8065734E-36
   3.680000      3.8976265E-36
   3.690000      3.6988335E-36
   3.700000      3.2474811E-36
   3.710000      2.7748083E-36
   3.720000      2.2941447E-36
   3.730000      1.9274660E-36
   3.740000      1.7134714E-36
   3.750000      1.6641921E-36
   3.760000      1.8223773E-36
   3.770000      2.1714747E-36
   3.780000      2.8642399E-36
   3.790000      3.7686730E-36
   3.800000      4.6227815E-36
   3.810000      5.4718699E-36
   3.820000      6.1457921E-36
   3.830000      6.5975194E-36
   3.840000      6.8543482E-36
   3.850000      6.8310750E-36
   3.860000      6.7644778E-36
   3.870000      6.7134008E-36
   3.880000      6.5049076E-36
   3.890000      6.1326848E-36
   3.900000      5.7347328E-36
   3.910000      5.3123796E-36
   3.920000      4.8190892E-36
   3.930000      4.2838271E-36
   3.940000      3.6895685E-36
   3.950000      3.0662828E-36
   3.960000      2.4694308E-36
   3.970000      1.9235409E-36
   3.980000      1.4114071E-36
   3.990000      1.0217795E-36
   4.000000      8.2983828E-37
   4.010000      7.2076941E-37
   4.020000      5.0086443E-37
   4.030000      4.9512280E-38
   4.040000     -5.5325627E-37
   4.050000     -1.3599858E-36
   4.060000     -2.3718673E-36
   4.070000     -3.5499779E-36
   4.080000     -4.9725140E-36
   4.090000     -6.7041189E-36
   4.100000     -8.6726472E-36
   4.110000     -1.0526952E-35
   4.120000     -1.2164452E-35
   4.130000     -1.3763049E-35
   4.140000     -1.5371148E-35
   4.150000     -1.7258128E-35
   4.160000     -1.9562401E-35
   4.170000     -2.1672437E-35
   4.180000     -2.3589582E-35
   4.190000     -2.5731764E-35
   4.200000     -2.8178141E-35
   4.210000     -3.1025761E-35
   4.220000     -3.4218902E-35
   4.230000     -3.7543220E-35
   4.240000     -4.0888549E-35
   4.250000     -4.4367485E-35
   4.260000     -4.7623073E-35
   4.270000     -5.0361966E-35
   4.280000     -5.2803149E-35
   4.290000     -5.5797962E-35
   4.300000     -6.1025232E-35
   4.310000     -6.8010108E-35
   4.320000     -7.5292479E-35
   4.330000     -8.2101364E-35
   4.340000     -8.8261563E-35
   4.350000     -9.2954931E-35
   4.360000     -9.5114305E-35
   4.370000     -9.5513364E-35
   4.380000     -9.4839751E-35
   4.390000     -9.3372719E-35
   4.400000     -9.1396947E-35
   4.410000     -8.9453519E-35
   4.420000     -8.7715274E-35
   4.430000     -8.6173436E-35
   4.440000     -8.5355830E-35
   4.450000     -8.5532424E-35
   4.460000     -8.6915995E-35
   4.470000     -8.9302093E-35
   4.480000     -9.2001793E-35
   4.490000     -9.4735512E-35
   4.500000     -9.8032108E-35
   4.510000     -1.0284893E-34
   4.520000     -1.0890854E-34
   4.530000     -1.1500914E-34
   4.540000     -1.2075424E-34
   4.550000     -1.2598081E-34
   4.560000     -1.3083491E-34
   4.570000     -1.3558476E-34
   4.580000     -1.4040579E-34
   4.590000     -1.4423199E-34
   4.600000     -1.4584303E-34
   4.610000     -1.4593567E-34
   4.620000     -1.4484648E-34
   4.630000     -1.4149297E-34
   4.640000     -1.3428582E-34
   4.650000     -1.2461286E-34
   4.660000     -1.1312818E-34
   4.670000     -9.9125777E-35
   4.680000     -8.3357134E-35
   4.690000     -6.6578743E-35
   4.700000     -4.8038887E-35
   4.710000     -2.7635976E-35
   4.720000     -6.4540638E-36
   4.730000      1.6188975E-35
   4.740000      3.9929505E-35
   4.750000      6.3269302E-35
   4.760000      8.5236857E-35
   4.770000      1.0631248E-34
   4.780000      1.2931953E-34
   4.790000      1.5348386E-34
   4.800000      1.7985776E-34
   4.810000      2.0474010E-34
   4.820000      2.2588756E-34
   4.830000      2.4835950E-34
   4.840000      2.7315238E-34
   4.850000      3.0117012E-34
   4.860000      3.3183413E-34
   4.870000      3.6816194E-34
   4.880000      4.1056179E-34
   4.890000      4.5956438E-34
   4.900000      5.1757081E-34
   4.910000      5.8024665E-34
   4.920000      6.4330880E-34
   4.930000      7.0555692E-34
   4.940000      7.6575408E-34
   4.950000      8.2386533E-34
   4.960000      8.8207618E-34
   4.970000      9.4075098E-34
   4.980000      1.0001347E-33
   4.990000      1.0610719E-33
   5.000000      1.1226824E-33
   5.010000      1.1848941E-33
   5.020000      1.2486043E-33
   5.030000      1.3152382E-33
   5.040000      1.3844864E-33
   5.050000      1.4551496E-33
   5.060000      1.5274710E-33
   5.070000      1.6020772E-33
   5.080000      1.6795384E-33
   5.090000      1.7559634E-33
   5.100000      1.8306115E-33
   5.110000      1.9064779E-33
   5.120000      1.9862688E-33
   5.130000      2.0696029E-33
   5.140000      2.1530928E-33
   5.150000      2.2378141E-33
   5.160000      2.3227478E-33
   5.170000      2.4040513E-33
   5.180000      2.4816306E-33
   5.190000      2.5556652E-33
   5.200000      2.6239502E-33
   5.210000      2.6861091E-33
   5.220000      2.7419072E-33
   5.230000      2.7904985E-33
   5.240000      2.8316821E-33
   5.250000      2.8651356E-33
   5.260000      2.8911465E-33
   5.270000      2.9121144E-33
   5.280000      2.9281869E-33
   5.290000      2.9380497E-33
   5.300000      2.9425112E-33
   5.310000      2.9400546E-33
   5.320000      2.9310549E-33
   5.330000      2.9171975E-33
   5.340000      2.8977446E-33
   5.350000      2.8722003E-33
   5.360000      2.8396492E-33
   5.370000      2.7982773E-33
   5.380000      2.7465449E-33
   5.390000      2.6835847E-33
   5.400000      2.6054772E-33
   5.410000      2.5077115E-33
   5.420000      2.3865445E-33
   5.430000      2.2400119E-33
   5.440000      2.0695627E-33
   5.450000      1.8740060E-33
   5.460000      1.6491903E-33
   5.470000      1.3872592E-33
   5.480000      1.0854429E-33
   5.490000      7.4654737E-34
   5.500000      3.7072302E-34
   5.510000     -3.8835148E-35
   5.520000     -4.8199690E-34
   5.530000     -9.5283322E-34
   5.540000     -1.4514473E-33
   5.550000     -1.9815646E-33
   5.560000     -2.5378008E-33
   5.570000     -3.1168325E-33
   5.580000     -3.7134796E-33
   5.590000     -4.3262240E-33
   5.600000     -4.9566604E-33
   5.610000     -5.6017375E-33
   5.620000     -6.2598167E-33
   5.630000     -6.9351103E-33
   5.640000     -7.6309611E-33
   5.650000     -8.3514561E-33
   5.660000     -9.1020842E-33
   5.670000     -9.8885928E-33
   5.680000     -1.0717046E-32
   5.690000     -1.1594000E-32
   5.700000     -1.2525526E-32
   5.710000     -1.3516719E-32
   5.720000     -1.4572101E-32
   5.730000     -1.5694611E-32
   5.740000     -1.6884351E-32
   5.750000     -1.8141683E-32
   5.760000     -1.9464403E-32
   5.770000     -2.0845438E-32
   5.780000     -2.2275474E-32
   5.790000     -2.3743950E-32
   5.800000     -2.5240065E-32
   5.810000     -2.6755492E-32
   5.820000     -2.8278168E-32
   5.830000     -2.9792534E-32
   5.840000     -3.1286443E-32
   5.850000     -3.2748003E-32
   5.860000     -3.4168097E-32
   5.870000     -3.5540781E-32
   5.880000     -3.6860317E-32
   5.890000     -3.8123789E-32
   5.900000     -3.9332679E-32
   5.910000     -4.0491657E-32
   5.920000     -4.1608092E-32
   5.930000     -4.2690781E-32
   5.940000     -4.3750019E-32
   5.950000     -4.4796350E-32
   5.960000     -4.5840057E-32
   5.970000     -4.6890546E-32
   5.980000     -4.7954180E-32
   5.990000     -4.9034395E-32
   6.000000     -5.0130638E-32
   6.010000     -5.1237189E-32
   6.020000     -5.2342912E-32
   6.030000     -5.3430044E-32
   6.040000     -5.4477457E-32
   6.050000     -5.5459247E-32
   6.060000     -5.6342338E-32
   6.070000     -5.7091921E-32
   6.080000     -5.7671810E-32
   6.090000     -5.8044265E-32
   6.100000     -5.8172923E-32
   6.110000     -5.8023800E-32
   6.120000     -5.7567179E-32
   6.130000     -5.6778834E-32
   6.140000     -5.5641138E-32
   6.150000     -5.4143799E-32
   6.160000     -5.2284966E-32
   6.170000     -5.0071592E-32
   6.180000     -4.7515430E-32
   6.190000     -4.4635525E-32
   6.200000     -4.1457755E-32
   6.210000     -3.8009619E-32
   6.220000     -3.4319712E-32
   6.230000     -3.0415399E-32
   6.240000     -2.6320423E-32
   6.250000     -2.2052295E-32
   6.260000     -1.7618819E-32
   6.270000     -1.3019936E-32
   6.280000     -8.2445295E-33
   6.290000     -3.2668505E-33
   6.300000      1.9503235E-33
   6.310000      7.4559307E-33
   6.320000      1.3308421E-32
   6.330000      1.9574211E-32
   6.340000      2.6326366E-32
   6.350000      3.3637605E-32
   6.360000      4.1578766E-32
   6.370000      5.0216801E-32
   6.380000      5.9608025E-32
   6.390000      6.9795588E-32
   6.400000      8.0806479E-32
   6.410000      9.2648926E-32
   6.420000      1.0531094E-31
   6.430000      1.1875981E-31
   6.440000      1.3294376E-31
   6.450000      1.4779071E-31
   6.460000      1.6321310E-31
   6.470000      1.7911180E-31
   6.480000      1.9538424E-31
   6.490000      2.1192644E-31
   6.500000      2.2863440E-31
   6.510000      2.4541642E-31
   6.520000      2.6219580E-31
   6.530000      2.7891606E-31
   6.540000      2.9554491E-31
   6.550000      3.1207614E-31
   6.560000      3.2853076E-31
   6.570000      3.4495634E-31
   6.580000      3.6142429E-31
   6.590000      3.7802579E-31
   6.600000      3.9486595E-31
   6.610000      4.1205647E-31
   6.620000      4.2970774E-31
   6.630000      4.4791982E-31
   6.640000      4.6677343E-31
   6.650000      4.8632157E-31
   6.660000      5.0658159E-31
   6.670000      5.2752909E-31
   6.680000      5.4909363E-31
   6.690000      5.7115630E-31
   6.700000      5.9355012E-31
   6.710000      6.1606305E-31
   6.720000      6.3844347E-31
   6.730000      6.6040848E-31
   6.740000      6.8165399E-31
   6.750000      7.0186675E-31
   6.760000      7.2073729E-31
   6.770000      7.3797343E-31
   6.780000      7.5331339E-31
   6.790000      7.6653737E-31
   6.800000      7.7747756E-31
   6.810000      7.8602679E-31
   6.820000      7.9214166E-31
   6.830000      7.9584184E-31
   6.840000      7.9720833E-31
   6.850000      7.9637532E-31
   6.860000      7.9351925E-31
   6.870000      7.8884407E-31
   6.880000      7.8256406E-31
   6.890000      7.7488461E-31
   6.900000      7.6598240E-31
   6.910000      7.5598581E-31
   6.920000      7.4495661E-31
   6.930000      7.3287446E-31
   6.940000      7.1962513E-31
   6.950000      7.0499376E-31
   6.960000      6.8866275E-31
   6.970000      6.7021610E-31
   6.980000      6.4914973E-31
   6.990000      6.2488730E-31
   7.000000      5.9680159E-31
   7.010000      5.6423978E-31
   7.020000      5.2655254E-31
   7.030000      4.8312432E-31
   7.040000      4.3340359E-31
   7.050000      3.7693164E-31
   7.060000      3.1336768E-31