  -2.600000      0.0000000E+00
  -2.590000      0.0000000E+00
  -2.580000      0.0000000E+00
  -2.570000      0.0000000E+00
  -2.560000      0.0000000E+00
  -2.550000      0.0000000E+00
  -2.540000      0.0000000E+00
  -2.530000      0.0000000E+00
  -2.520000      0.0000000E+00
  -2.510000      0.0000000E+00
  -2.500000      0.0000000E+00
  -2.490000      0.0000000E+00
  -2.480000      0.0000000E+00
  -2.470000      0.0000000E+00
  -2.460000      0.0000000E+00
  -2.450000      0.0000000E+00
  -2.440000      0.0000000E+00
  -2.430000      0.0000000E+00
  -2.420000      0.0000000E+00
  -2.410000      0.0000000E+00
  -2.400000      0.0000000E+00
  -2.390000      0.0000000E+00
  -2.380000      0.0000000E+00
  -2.370000      0.0000000E+00
  -2.360000      0.0000000E+00
  -2.350000      0.0000000E+00
  -2.340000      0.0000000E+00
  -2.330000      0.0000000E+00
  -2.320000      0.0000000E+00
  -2.310000      0.0000000E+00
  -2.300000      0.0000000E+00
  -2.290000      0.0000000E+00
  -2.280000      0.0000000E+00
  -2.270000      0.0000000E+00
  -2.260000      0.0000000E+00
  -2.250000      0.0000000E+00
  -2.240000      0.0000000E+00
  -2.230000      0.0000000E+00
  -2.220000      0.0000000E+00
  -2.210000      0.0000000E+00
  -2.200000      0.0000000E+00
  -2.190000      0.0000000E+00
  -2.180000      0.0000000E+00
  -2.170000      0.0000000E+00
  -2.160000      0.0000000E+00
  -2.150000      0.0000000E+00
  -2.140000      0.0000000E+00
  -2.130000      0.0000000E+00
  -2.120000      0.0000000E+00
  -2.110000      0.0000000E+00
  -2.100000      0.0000000E+00
  -2.090000      0.0000000E+00
  -2.080000      0.0000000E+00
  -2.070000      0.0000000E+00
  -2.060000      0.0000000E+00
  -2.050000      0.0000000E+00
  -2.040000      0.0000000E+00
  -2.030000      0.0000000E+00
  -2.020000      0.0000000E+00
  -2.010000      0.0000000E+00
  -2.000000      0.0000000E+00
  -1.990000      0.0000000E+00
  -1.980000      0.0000000E+00
  -1.970000      0.0000000E+00
  -1.960000      0.0000000E+00
  -1.950000      0.0000000E+00
  -1.940000      0.0000000E+00
  -1.930000      0.0000000E+00
  -1.920000      0.0000000E+00
  -1.910000      0.0000000E+00
  -1.900000      0.0000000E+00
  -1.890000      0.0000000E+00
  -1.880000      0.0000000E+00
  -1.870000      0.0000000E+00
  -1.860000      0.0000000E+00
  -1.850000      0.0000000E+00
  -1.840000      0.0000000E+00
  -1.830000      0.0000000E+00
  -1.820000      0.0000000E+00
  -1.810000      0.0000000E+00
  -1.800000      0.0000000E+00
  -1.790000      0.0000000E+00
  -1.780000      0.0000000E+00
  -1.770000      0.0000000E+00
  -1.760000      0.0000000E+00
  -1.750000      0.0000000E+00
  -1.740000      0.0000000E+00
  -1.730000      0.0000000E+00
  -1.720000      0.0000000E+00
  -1.710000      0.0000000E+00
  -1.700000      0.0000000E+00
  -1.690000      0.0000000E+00
  -1.680000      0.0000000E+00
  -1.670000      0.0000000E+00
  -1.660000      0.0000000E+00
  -1.650000      0.0000000E+00
  -1.640000      0.0000000E+00
  -1.630000      0.0000000E+00
  -1.620000      0.0000000E+00
  -1.610000      0.0000000E+00
  -1.600000      0.0000000E+00
  -1.590000      0.0000000E+00
  -1.580000      0.0000000E+00
  -1.570000      0.0000000E+00
  -1.560000      0.0000000E+00
  -1.550000      0.0000000E+00
  -1.540000      0.0000000E+00
  -1.530000      0.0000000E+00
  -1.520000      0.0000000E+00
  -1.510000      0.0000000E+00
  -1.500000      0.0000000E+00
  -1.490000      0.0000000E+00
  -1.480000      0.0000000E+00
  -1.470000      0.0000000E+00
  -1.460000      0.0000000E+00
  -1.450000      0.0000000E+00
  -1.440000      0.0000000E+00
  -1.430000      0.0000000E+00
  -1.420000      0.0000000E+00
  -1.410000      0.0000000E+00
  -1.400000      0.0000000E+00
  -1.390000      0.0000000E+00
  -1.380000      0.0000000E+00
  -1.370000      0.0000000E+00
  -1.360000      0.0000000E+00
  -1.350000      0.0000000E+00
  -1.340000      0.0000000E+00
  -1.330000      0.0000000E+00
  -1.320000      0.0000000E+00
  -1.310000      0.0000000E+00
  -1.300000      0.0000000E+00
  -1.290000      0.0000000E+00
  -1.280000      0.0000000E+00
  -1.270000      0.0000000E+00
  -1.260000      0.0000000E+00
  -1.250000      0.0000000E+00
  -1.240000      0.0000000E+00
  -1.230000      0.0000000E+00
  -1.220000      0.0000000E+00
  -1.210000      0.0000000E+00
  -1.200000      0.0000000E+00
  -1.190000      0.0000000E+00
  -1.180000      0.0000000E+00
  -1.170000      0.0000000E+00
  -1.160000      0.0000000E+00
  -1.150000      0.0000000E+00
  -1.140000      0.0000000E+00
  -1.130000      0.0000000E+00
  -1.120000      0.0000000E+00
  -1.110000      0.0000000E+00
  -1.100000      0.0000000E+00
  -1.090000      0.0000000E+00
  -1.080000      0.0000000E+00
  -1.070000      0.0000000E+00
  -1.060000      0.0000000E+00
  -1.050000      0.0000000E+00
  -1.040000      0.0000000E+00
  -1.030000      0.0000000E+00
  -1.020000      0.0000000E+00
  -1.010000      0.0000000E+00
  -1.000000      0.0000000E+00
 -0.9900000      0.0000000E+00
 -0.9800000      0.0000000E+00
 -0.9700000      0.0000000E+00
 -0.9600000      0.0000000E+00
 -0.9500000      0.0000000E+00
 -0.9400000      0.0000000E+00
 -0.9300000      0.0000000E+00
 -0.9200000      0.0000000E+00
 -0.9100000      0.0000000E+00
 -0.9000000      0.0000000E+00
 -0.8900000      0.0000000E+00
 -0.8800000      0.0000000E+00
 -0.8700000      0.0000000E+00
 -0.8600000      0.0000000E+00
 -0.8500000      0.0000000E+00
 -0.8400000      0.0000000E+00
 -0.8300000      0.0000000E+00
 -0.8200000      0.0000000E+00
 -0.8100000      0.0000000E+00
 -0.8000000      0.0000000E+00
 -0.7900000      0.0000000E+00
 -0.7800000      0.0000000E+00
 -0.7700000      0.0000000E+00
 -0.7600000      0.0000000E+00
 -0.7500000      0.0000000E+00
 -0.7400000      0.0000000E+00
 -0.7300000      0.0000000E+00
 -0.7200000      0.0000000E+00
 -0.7100000      0.0000000E+00
 -0.7000000      0.0000000E+00
 -0.6900000      0.0000000E+00
 -0.6800000      0.0000000E+00
 -0.6700000      0.0000000E+00
 -0.6600000      0.0000000E+00
 -0.6500000      0.0000000E+00
 -0.6400000      0.0000000E+00
 -0.6300000      0.0000000E+00
 -0.6200000      0.0000000E+00
 -0.6100000      0.0000000E+00
 -0.6000000      0.0000000E+00
 -0.5900000      0.0000000E+00
 -0.5800000      0.0000000E+00
 -0.5700000      0.0000000E+00
 -0.5600000      0.0000000E+00
 -0.5500000      0.0000000E+00
 -0.5400000      0.0000000E+00
 -0.5300000      0.0000000E+00
 -0.5200000      0.0000000E+00
 -0.5100000      0.0000000E+00
 -0.5000000      0.0000000E+00
 -0.4900000      0.0000000E+00
 -0.4800000      0.0000000E+00
 -0.4700000      0.0000000E+00
 -0.4600000      0.0000000E+00
 -0.4500000      0.0000000E+00
 -0.4400000      0.0000000E+00
 -0.4300000      0.0000000E+00
 -0.4200000      0.0000000E+00
 -0.4100000      0.0000000E+00
 -0.4000000      0.0000000E+00
 -0.3900000      0.0000000E+00
 -0.3800000      0.0000000E+00
 -0.3700000      0.0000000E+00
 -0.3600000      0.0000000E+00
 -0.3500000      0.0000000E+00
 -0.3400000      0.0000000E+00
 -0.3300000      0.0000000E+00
 -0.3200000      0.0000000E+00
 -0.3100000      0.0000000E+00
 -0.3000000      0.0000000E+00
 -0.2900000      0.0000000E+00
 -0.2800000      0.0000000E+00
 -0.2700000      0.0000000E+00
 -0.2600000      0.0000000E+00
 -0.2500000      0.0000000E+00
 -0.2400000      0.0000000E+00
 -0.2300000      0.0000000E+00
 -0.2200000      0.0000000E+00
 -0.2100000      0.0000000E+00
 -0.2000000      0.0000000E+00
 -0.1900000      0.0000000E+00
 -0.1800000      0.0000000E+00
 -0.1700000      0.0000000E+00
 -0.1600000      0.0000000E+00
 -0.1500000      0.0000000E+00
 -0.1400000      0.0000000E+00
 -0.1300000      0.0000000E+00
 -0.1200000      0.0000000E+00
 -0.1100000      0.0000000E+00
 -0.1000000      0.0000000E+00
 -9.0000004E-02  0.0000000E+00
 -7.9999998E-02  0.0000000E+00
 -7.0000000E-02  0.0000000E+00
 -5.9999999E-02  0.0000000E+00
 -5.0000001E-02  0.0000000E+00
 -3.9999999E-02  0.0000000E+00
 -2.9999999E-02  0.0000000E+00
 -2.0000000E-02  0.0000000E+00
 -9.9999998E-03  0.0000000E+00
 -3.4694470E-17  0.0000000E+00
  9.9999998E-03  0.0000000E+00
  2.0000000E-02  0.0000000E+00
  2.9999999E-02  0.0000000E+00
  3.9999999E-02  0.0000000E+00
  5.0000001E-02  0.0000000E+00
  5.9999999E-02  0.0000000E+00
  7.0000000E-02  0.0000000E+00
  7.9999998E-02  0.0000000E+00
  9.0000004E-02  0.0000000E+00
  0.1000000      0.0000000E+00
  0.1100000      0.0000000E+00
  0.1200000      0.0000000E+00
  0.1300000      0.0000000E+00
  0.1400000      0.0000000E+00
  0.1500000      0.0000000E+00
  0.1600000      0.0000000E+00
  0.1700000      0.0000000E+00
  0.1800000      0.0000000E+00
  0.1900000      0.0000000E+00
  0.2000000      0.0000000E+00
  0.2100000      0.0000000E+00
  0.2200000      0.0000000E+00
  0.2300000      0.0000000E+00
  0.2400000      0.0000000E+00
  0.2500000      0.0000000E+00
  0.2600000      0.0000000E+00
  0.2700000      0.0000000E+00
  0.2800000      0.0000000E+00
  0.2900000      0.0000000E+00
  0.3000000      0.0000000E+00
  0.3100000      0.0000000E+00
  0.3200000      0.0000000E+00
  0.3300000      0.0000000E+00
  0.3400000      0.0000000E+00
  0.3500000      0.0000000E+00
  0.3600000      0.0000000E+00
  0.3700000      0.0000000E+00
  0.3800000      0.0000000E+00
  0.3900000      0.0000000E+00
  0.4000000      0.0000000E+00
  0.4100000      0.0000000E+00
  0.4200000      0.0000000E+00
  0.4300000      0.0000000E+00
  0.4400000      0.0000000E+00
  0.4500000      0.0000000E+00
  0.4600000      0.0000000E+00
  0.4700000      0.0000000E+00
  0.4800000      0.0000000E+00
  0.4900000      0.0000000E+00
  0.5000000      0.0000000E+00
  0.5100000      0.0000000E+00
  0.5200000      0.0000000E+00
  0.5300000      0.0000000E+00
  0.5400000      0.0000000E+00
  0.5500000      0.0000000E+00
  0.5600000      0.0000000E+00
  0.5700000      0.0000000E+00
  0.5800000      0.0000000E+00
  0.5900000      0.0000000E+00
  0.6000000      0.0000000E+00
  0.6100000      0.0000000E+00
  0.6200000      0.0000000E+00
  0.6300000      0.0000000E+00
  0.6400000      0.0000000E+00
  0.6500000      0.0000000E+00
  0.6600000      0.0000000E+00
  0.6700000      0.0000000E+00
  0.6800000      0.0000000E+00
  0.6900000      0.0000000E+00
  0.7000000      0.0000000E+00
  0.7100000      0.0000000E+00
  0.7200000      0.0000000E+00
  0.7300000      0.0000000E+00
  0.7400000      0.0000000E+00
  0.7500000      0.0000000E+00
  0.7600000      0.0000000E+00
  0.7700000      0.0000000E+00
  0.7800000      0.0000000E+00
  0.7900000      0.0000000E+00
  0.8000000      0.0000000E+00
  0.8100000      0.0000000E+00
  0.8200000      0.0000000E+00
  0.8300000      0.0000000E+00
  0.8400000      0.0000000E+00
  0.8500000      0.0000000E+00
  0.8600000      0.0000000E+00
  0.8700000      0.0000000E+00
  0.8800000      0.0000000E+00
  0.8900000      0.0000000E+00
  0.9000000      0.0000000E+00
  0.9100000      0.0000000E+00
  0.9200000      0.0000000E+00
  0.9300000      0.0000000E+00
  0.9400000      0.0000000E+00
  0.9500000      0.0000000E+00
  0.9600000      0.0000000E+00
  0.9700000      0.0000000E+00
  0.9800000      0.0000000E+00
  0.9900000      0.0000000E+00
   1.000000      0.0000000E+00
   1.010000      0.0000000E+00
   1.020000      0.0000000E+00
   1.030000      0.0000000E+00
   1.040000      0.0000000E+00
   1.050000      0.0000000E+00
   1.060000      0.0000000E+00
   1.070000      0.0000000E+00
   1.080000      0.0000000E+00
   1.090000      0.0000000E+00
   1.100000      0.0000000E+00
   1.110000      0.0000000E+00
   1.120000      0.0000000E+00
   1.130000      0.0000000E+00
   1.140000      0.0000000E+00
   1.150000      0.0000000E+00
   1.160000      0.0000000E+00
   1.170000      0.0000000E+00
   1.180000      0.0000000E+00
   1.190000      0.0000000E+00
   1.200000      0.0000000E+00
   1.210000      0.0000000E+00
   1.220000      0.0000000E+00
   1.230000      0.0000000E+00
   1.240000      0.0000000E+00
   1.250000      0.0000000E+00
   1.260000      0.0000000E+00
   1.270000      0.0000000E+00
   1.280000      0.0000000E+00
   1.290000      0.0000000E+00
   1.300000      0.0000000E+00
   1.310000      0.0000000E+00
   1.320000      0.0000000E+00
   1.330000      0.0000000E+00
   1.340000      0.0000000E+00
   1.350000      0.0000000E+00
   1.360000      0.0000000E+00
   1.370000      0.0000000E+00
   1.380000      0.0000000E+00
   1.390000      0.0000000E+00
   1.400000      0.0000000E+00
   1.410000      0.0000000E+00
   1.420000      0.0000000E+00
   1.430000      0.0000000E+00
   1.440000      0.0000000E+00
   1.450000      0.0000000E+00
   1.460000      0.0000000E+00
   1.470000      0.0000000E+00
   1.480000      0.0000000E+00
   1.490000      0.0000000E+00
   1.500000      0.0000000E+00
   1.510000      0.0000000E+00
   1.520000      0.0000000E+00
   1.530000      0.0000000E+00
   1.540000      0.0000000E+00
   1.550000      0.0000000E+00
   1.560000      0.0000000E+00
   1.570000      0.0000000E+00
   1.580000      0.0000000E+00
   1.590000      0.0000000E+00
   1.600000      0.0000000E+00
   1.610000      0.0000000E+00
   1.620000      0.0000000E+00
   1.630000      1.1825401E-38
   1.640000      1.2762912E-38
   1.650000      1.3685588E-38
   1.660000      1.5029914E-38
   1.670000      1.6761825E-38
   1.680000      1.8172326E-38
   1.690000      1.9309334E-38
   1.700000      2.0449150E-38
   1.710000      2.1591308E-38
   1.720000      2.2739455E-38
   1.730000      2.3900575E-38
   1.740000      2.4982091E-38
   1.750000      2.5976240E-38
   1.760000      2.6983378E-38
   1.770000      2.8027634E-38
   1.780000      2.9128315E-38
   1.790000      3.0283792E-38
   1.800000      3.1477922E-38
   1.810000      3.2794013E-38
   1.820000      3.3907900E-38
   1.830000      3.5138061E-38
   1.840000      3.6798227E-38
   1.850000      3.8592410E-38
   1.860000      4.0742360E-38
   1.870000      4.3196864E-38
   1.880000      4.5881942E-38
   1.890000      4.8448964E-38
   1.900000      5.0759487E-38
   1.910000      5.3223569E-38
   1.920000      5.5889713E-38
   1.930000      5.8950390E-38
   1.940000      6.2368140E-38
   1.950000      6.6307958E-38
   1.960000      7.0879150E-38
   1.970000      7.5673144E-38
   1.980000      8.0114324E-38
   1.990000      8.4112313E-38
   2.000000      8.8185882E-38
   2.010000      9.2369055E-38
   2.020000      9.6770286E-38
   2.030000      1.0177629E-37
   2.040000      1.1332601E-37
   2.050000      1.3228163E-37
   2.060000      1.5115660E-37
   2.070000      1.6945442E-37
   2.080000      1.8950053E-37
   2.090000      2.1092156E-37
   2.100000      2.3371658E-37
   2.110000      2.5762229E-37
   2.120000      2.8165312E-37
   2.130000      3.0385749E-37
   2.140000      3.2306604E-37
   2.150000      3.4026060E-37
   2.160000      3.5833345E-37
   2.170000      3.7697601E-37
   2.180000      3.8946959E-37
   2.190000      3.9768909E-37
   2.200000      4.0626705E-37
   2.210000      4.1376680E-37
   2.220000      4.1974194E-37
   2.230000      4.4175883E-37
   2.240000      4.8245594E-37
   2.250000      5.2775864E-37
   2.260000      5.5445784E-37
   2.270000      5.6299181E-37
   2.280000      5.7794643E-37
   2.290000      5.7975641E-37
   2.300000      5.6095372E-37
   2.310000      5.4419841E-37
   2.320000      5.4161213E-37
   2.330000      5.9659181E-37
   2.340000      7.0559772E-37
   2.350000      8.2139596E-37
   2.360000      9.2444633E-37
   2.370000      1.0119884E-36
   2.380000      1.0632779E-36
   2.390000      1.0794501E-36
   2.400000      1.0968504E-36
   2.410000      1.1244300E-36
   2.420000      1.1724338E-36
   2.430000      1.2358740E-36
   2.440000      1.3080218E-36
   2.450000      1.4040862E-36
   2.460000      1.5236022E-36
   2.470000      1.6505226E-36
   2.480000      1.7891917E-36
   2.490000      1.9354768E-36
   2.500000      2.0794636E-36
   2.510000      2.2201995E-36
   2.520000      2.3070174E-36
   2.530000      2.3283084E-36
   2.540000      2.1804147E-36
   2.550000      1.8963921E-36
   2.560000      1.5925852E-36
   2.570000      1.2582553E-36
   2.580000      9.4757336E-37
   2.590000      7.0439032E-37
   2.600000      5.2409011E-37
   2.610000      4.0914776E-37
   2.620000      3.5165746E-37
   2.630000      9.8617144E-37
   2.640000      2.3976725E-36
   2.650000      3.7694661E-36
   2.660000      5.0431456E-36
   2.670000      6.1052223E-36
   2.680000      6.4313596E-36
   2.690000      5.8402350E-36
   2.700000      4.7980603E-36
   2.710000      3.7975814E-36
   2.720000      3.1426060E-36
   2.730000      3.0970786E-36
   2.740000      2.6921630E-36
   2.750000      1.5522080E-36
   2.760000     -1.9309749E-37
   2.770000     -2.8273539E-36
   2.780000     -4.8562438E-36
   2.790000     -5.3699343E-36
   2.800000     -5.3604383E-36
   2.810000     -5.1422095E-36
   2.820000     -4.6189879E-36
   2.830000     -4.6048592E-36
   2.840000     -5.2921051E-36
   2.850000     -6.1111924E-36
   2.860000     -6.7931032E-36
   2.870000     -7.5295012E-36
   2.880000     -8.3159503E-36
   2.890000     -8.7699893E-36
   2.900000     -8.8128320E-36
   2.910000     -8.6893713E-36
   2.920000     -8.6365078E-36
   2.930000     -8.9819958E-36
   2.940000     -9.6824883E-36
   2.950000     -1.0417899E-35
   2.960000     -1.1171199E-35
   2.970000     -1.2598206E-35
   2.980000     -1.4632846E-35
   2.990000     -1.6602302E-35
   3.000000     -1.8348515E-35
   3.010000     -2.1247198E-35
   3.020000     -2.5612366E-35
   3.030000     -3.0013904E-35
   3.040000     -3.3345512E-35
   3.050000     -3.5905288E-35
   3.060000     -3.8662718E-35
   3.070000     -3.9940589E-35
   3.080000     -4.0134138E-35
   3.090000     -4.0817747E-35
   3.100000     -4.1632187E-35
   3.110000     -4.3373317E-35
   3.120000     -4.6190987E-35
   3.130000     -5.0579932E-35
   3.140000     -5.6014085E-35
   3.150000     -6.1569903E-35
   3.160000     -6.6061003E-35
   3.170000     -6.7879667E-35
   3.180000     -6.8110645E-35
   3.190000     -6.7329458E-35
   3.200000     -7.2607944E-35
   3.210000     -7.6929017E-35
   3.220000     -7.2572266E-35
   3.230000     -6.7554248E-35
   3.240000     -6.1690133E-35
   3.250000     -5.4909562E-35
   3.260000     -5.1128339E-35
   3.270000     -5.2507743E-35
   3.280000     -5.8074788E-35
   3.290000     -6.4710539E-35
   3.300000     -6.5065633E-35
   3.310000     -6.1387328E-35
   3.320000     -5.6533254E-35
   3.330000     -5.2276880E-35
   3.340000     -5.1435552E-35
   3.350000     -5.6097334E-35
   3.360000     -6.1343259E-35
   3.370000     -5.2007038E-35
   3.380000     -3.1199316E-35
   3.390000     -8.8334526E-36
   3.400000      5.0595590E-36
   3.410000      1.0786763E-35
   3.420000      1.5371995E-35
   3.430000      1.7531089E-35
   3.440000      1.5483940E-35
   3.450000      1.5886800E-35
   3.460000      1.9944186E-35
   3.470000      2.3103664E-35
   3.480000      3.0107441E-35
   3.490000      3.7522974E-35
   3.500000      3.9104458E-35
   3.510000      4.3283444E-35
   3.520000      5.6416210E-35
   3.530000      8.5767781E-35
   3.540000      1.2935622E-34
   3.550000      1.6525613E-34
   3.560000      1.9204636E-34
   3.570000      2.2173974E-34
   3.580000      2.5433829E-34
   3.590000      2.8493005E-34
   3.600000      3.1125125E-34
   3.610000      3.3192976E-34
   3.620000      3.4818763E-34
   3.630000      3.6013818E-34
   3.640000      3.6761937E-34
   3.650000      3.7369452E-34
   3.660000      3.8205348E-34
   3.670000      3.9393107E-34
   3.680000      4.1219187E-34
   3.690000      4.3879092E-34
   3.700000      4.7658807E-34
   3.710000      5.2907467E-34
   3.720000      5.9775403E-34
   3.730000      6.7655481E-34
   3.740000      7.4682605E-34
   3.750000      8.0132605E-34
   3.760000      8.4520817E-34
   3.770000      8.8359890E-34
   3.780000      9.1695943E-34
   3.790000      9.4283105E-34
   3.800000      9.6434811E-34
   3.810000      9.8336026E-34
   3.820000      1.0033628E-33
   3.830000      1.0335880E-33
   3.840000      1.0774786E-33
   3.850000      1.1326144E-33
   3.860000      1.1998697E-33
   3.870000      1.2716774E-33
   3.880000      1.3330971E-33
   3.890000      1.3847215E-33
   3.900000      1.4369300E-33
   3.910000      1.4879354E-33
   3.920000      1.5311175E-33
   3.930000      1.5636273E-33
   3.940000      1.5822047E-33
   3.950000      1.5895505E-33
   3.960000      1.5883427E-33
   3.970000      1.5798297E-33
   3.980000      1.5672365E-33
   3.990000      1.5535703E-33
   4.000000      1.5402344E-33
   4.010000      1.5284231E-33
   4.020000      1.5199458E-33
   4.030000      1.5148031E-33
   4.040000      1.5113403E-33
   4.050000      1.5071622E-33
   4.060000      1.4991479E-33
   4.070000      1.4818971E-33
   4.080000      1.4507072E-33
   4.090000      1.4065166E-33
   4.100000      1.3427587E-33
   4.110000      1.2486990E-33
   4.120000      1.1299690E-33
   4.130000      9.9330402E-34
   4.140000      8.3610948E-34
   4.150000      6.6031182E-34
   4.160000      4.6795980E-34
   4.170000      2.6051728E-34
   4.180000      4.1104518E-35
   4.190000     -1.9116550E-34
   4.200000     -4.3581816E-34
   4.210000     -6.9275574E-34
   4.220000     -9.6377322E-34
   4.230000     -1.2513305E-33
   4.240000     -1.5588166E-33
   4.250000     -1.8889518E-33
   4.260000     -2.2448777E-33
   4.270000     -2.6285158E-33
   4.280000     -3.0405596E-33
   4.290000     -3.4867943E-33
   4.300000     -3.9556737E-33
   4.310000     -4.4451385E-33
   4.320000     -4.9650879E-33
   4.330000     -5.5081693E-33
   4.340000     -6.0736522E-33
   4.350000     -6.6628923E-33
   4.360000     -7.2765804E-33
   4.370000     -7.9164181E-33
   4.380000     -8.5853097E-33
   4.390000     -9.2846664E-33
   4.400000     -1.0016624E-32
   4.410000     -1.0785366E-32
   4.420000     -1.1593302E-32
   4.430000     -1.2444746E-32
   4.440000     -1.3335691E-32
   4.450000     -1.4270040E-32
   4.460000     -1.5252571E-32
   4.470000     -1.6272512E-32
   4.480000     -1.7323770E-32
   4.490000     -1.8399045E-32
   4.500000     -1.9490422E-32
   4.510000     -2.0590969E-32
   4.520000     -2.1692476E-32
   4.530000     -2.2788958E-32
   4.540000     -2.3876483E-32
   4.550000     -2.4952883E-32
   4.560000     -2.6017155E-32
   4.570000     -2.7071747E-32
   4.580000     -2.8120238E-32
   4.590000     -2.9164926E-32
   4.600000     -3.0208853E-32
   4.610000     -3.1254299E-32
   4.620000     -3.2302385E-32
   4.630000     -3.3352410E-32
   4.640000     -3.4404175E-32
   4.650000     -3.5450559E-32
   4.660000     -3.6481873E-32
   4.670000     -3.7493365E-32
   4.680000     -3.8476884E-32
   4.690000     -3.9422287E-32
   4.700000     -4.0319562E-32
   4.710000     -4.1158386E-32
   4.720000     -4.1928200E-32
   4.730000     -4.2618191E-32
   4.740000     -4.3217164E-32
   4.750000     -4.3713417E-32
   4.760000     -4.4094406E-32
   4.770000     -4.4346735E-32
   4.780000     -4.4456015E-32
   4.790000     -4.4407009E-32
   4.800000     -4.4183876E-32
   4.810000     -4.3770725E-32
   4.820000     -4.3152189E-32
   4.830000     -4.2313959E-32
   4.840000     -4.1243471E-32
   4.850000     -3.9930409E-32
   4.860000     -3.8366948E-32
   4.870000     -3.6547859E-32
   4.880000     -3.4470337E-32
   4.890000     -3.2133284E-32
   4.900000     -2.9536485E-32
   4.910000     -2.6679643E-32
   4.920000     -2.3561102E-32
   4.930000     -2.0176638E-32
   4.940000     -1.6518527E-32
   4.950000     -1.2574555E-32
   4.960000     -8.3275274E-33
   4.970000     -3.7552052E-33
   4.980000      1.1694867E-33
   4.990000      6.4777938E-33
   5.000000      1.2203630E-32
   5.010000      1.8382707E-32
   5.020000      2.5051313E-32
   5.030000      3.2243942E-32
   5.040000      3.9992304E-32
   5.050000      4.8324132E-32
   5.060000      5.7261933E-32
   5.070000      6.6822275E-32
   5.080000      7.7015439E-32
   5.090000      8.7845392E-32
   5.100000      9.9310089E-32
   5.110000      1.1140206E-31
   5.120000      1.2410913E-31
   5.130000      1.3741532E-31
   5.140000      1.5130186E-31
   5.150000      1.6574809E-31
   5.160000      1.8073289E-31
   5.170000      1.9623543E-31
   5.180000      2.1223605E-31
   5.190000      2.2871735E-31
   5.200000      2.4566515E-31
   5.210000      2.6306905E-31
   5.220000      2.8092312E-31
   5.230000      2.9922625E-31
   5.240000      3.1798244E-31
   5.250000      3.3720036E-31
   5.260000      3.5689259E-31
   5.270000      3.7707473E-31
   5.280000      3.9776364E-31
   5.290000      4.1897501E-31
   5.300000      4.4072180E-31
   5.310000      4.6301086E-31
   5.320000      4.8583920E-31
   5.330000      5.0919180E-31
   5.340000      5.3303877E-31
   5.350000      5.5733328E-31
   5.360000      5.8200982E-31
   5.370000      6.0698372E-31
   5.380000      6.3215143E-31
   5.390000      6.5739197E-31
   5.400000      6.8256904E-31
   5.410000      7.0753461E-31
   5.420000      7.3213277E-31
   5.430000      7.5620426E-31
   5.440000      7.7959086E-31
   5.450000      8.0214042E-31
   5.460000      8.2371055E-31
   5.470000      8.4417243E-31
   5.480000      8.6341217E-31
   5.490000      8.8133263E-31
   5.500000      8.9785321E-31
   5.510000      9.1290800E-31
   5.520000      9.2644246E-31
   5.530000      9.3840984E-31
   5.540000      9.4876641E-31
   5.550000      9.5746516E-31
   5.560000      9.6444995E-31
   5.570000      9.6964883E-31
   5.580000      9.7296852E-31
   5.590000      9.7428912E-31
   5.600000      9.7345932E-31
   5.610000      9.7029385E-31
   5.620000      9.6457070E-31
   5.630000      9.5603219E-31
   5.640000      9.4438511E-31
   5.650000      9.2930493E-31
   5.660000      9.1044050E-31
   5.670000      8.8742018E-31
   5.680000      8.5986067E-31
   5.690000      8.2737537E-31
   5.700000      7.8958388E-31
   5.710000      7.4612181E-31
   5.720000      6.9665108E-31
   5.730000      6.4086762E-31
   5.740000      5.7850868E-31
   5.750000      5.0935896E-31
   5.760000      4.3325266E-31
   5.770000      3.5007360E-31
   5.780000      2.5975289E-31
   5.790000      1.6226232E-31
   5.800000      5.7605559E-32
   5.810000     -5.4192588E-32
   5.820000     -1.7309977E-31
   5.830000     -2.9909069E-31
   5.840000     -4.3216133E-31
   5.850000     -5.7234298E-31
   5.860000     -7.1971494E-31
   5.870000     -8.7441432E-31
   5.880000     -1.0366419E-30
   5.890000     -1.2066654E-30
   5.900000     -1.3848165E-30
   5.910000     -1.5714845E-30
   5.920000     -1.7671032E-30
   5.930000     -1.9721350E-30
   5.940000     -2.1870518E-30
   5.950000     -2.4123115E-30
   5.960000     -2.6483337E-30
   5.970000     -2.8954751E-30
   5.980000     -3.1540065E-30
   5.990000     -3.4240902E-30
   6.000000     -3.7057634E-30
   6.010000     -3.9989250E-30
   6.020000     -4.3033291E-30
   6.030000     -4.6185843E-30
   6.040000     -4.9441593E-30
   6.050000     -5.2793968E-30
   6.060000     -5.6235296E-30
   6.070000     -5.9757077E-30
   6.080000     -6.3350268E-30
   6.090000     -6.7005555E-30
   6.100000     -7.0713700E-30
   6.110000     -7.4465863E-30
   6.120000     -7.8253874E-30
   6.130000     -8.2070473E-30
   6.140000     -8.5909461E-30
   6.150000     -8.9765804E-30
   6.160000     -9.3635637E-30
   6.170000     -9.7516145E-30
   6.180000     -1.0140541E-29
   6.190000     -1.0530200E-29
   6.200000     -1.0920470E-29
   6.210000     -1.1311201E-29
   6.220000     -1.1702162E-29
   6.230000     -1.2092993E-29
   6.240000     -1.2483153E-29
   6.250000     -1.2871870E-29
   6.260000     -1.3258096E-29
   6.270000     -1.3640477E-29
   6.280000     -1.4017335E-29
   6.290000     -1.4386665E-29
   6.300000     -1.4746137E-29
   6.310000     -1.5093128E-29
   6.320000     -1.5424758E-29
   6.330000     -1.5737949E-29
   6.340000     -1.6029485E-29
   6.350000     -1.6296092E-29
   6.360000     -1.6534515E-29
   6.370000     -1.6741587E-29
   6.380000     -1.6914298E-29
   6.390000     -1.7049873E-29
   6.400000     -1.7145813E-29
   6.410000     -1.7199922E-29
   6.420000     -1.7210330E-29
   6.430000     -1.7175476E-29
   6.440000     -1.7094079E-29
   6.450000     -1.6965078E-29
   6.460000     -1.6787556E-29
   6.470000     -1.6560667E-29
   6.480000     -1.6283516E-29
   6.490000     -1.5955063E-29
   6.500000     -1.5574008E-29
   6.510000     -1.5138688E-29
   6.520000     -1.4646998E-29
   6.530000     -1.4096319E-29
   6.540000     -1.3483470E-29
   6.550000     -1.2804693E-29
   6.560000     -1.2055685E-29
   6.570000     -1.1231638E-29
   6.580000     -1.0327319E-29
   6.590000     -9.3371927E-30
   6.600000     -8.2555566E-30
   6.610000     -7.0767070E-30
   6.620000     -5.7951036E-30
   6.630000     -4.4055576E-30
   6.640000     -2.9033868E-30
   6.650000     -1.2845742E-30
   6.660000      4.5410132E-31
   6.670000      2.3149919E-30
   6.680000      4.2995194E-30
   6.690000      6.4081663E-30
   6.700000      8.6405297E-30
   6.710000      1.0995397E-29
   6.720000      1.3470894E-29
   6.730000      1.6064657E-29
   6.740000      1.8774028E-29
   6.750000      2.1596291E-29
   6.760000      2.4528886E-29
   6.770000      2.7569630E-29
   6.780000      3.0716912E-29
   6.790000      3.3969871E-29
   6.800000      3.7328492E-29
   6.810000      4.0793646E-29
   6.820000      4.4367094E-29
   6.830000      4.8051401E-29
   6.840000      5.1849760E-29
   6.850000      5.5765801E-29
   6.860000      5.9803272E-29
   6.870000      6.3965755E-29
   6.880000      6.8256245E-29
   6.890000      7.2676838E-29
   6.900000      7.7228364E-29
   6.910000      8.1910011E-29
   6.920000      8.6719082E-29
   6.930000      9.1650769E-29
   6.940000      9.6698011E-29
   6.950000      1.0185148E-28
   6.960000      1.0709966E-28
   6.970000      1.1242895E-28
   6.980000      1.1782399E-28
   6.990000      1.2326795E-28
   7.000000      1.2874305E-28
   7.010000      1.3423087E-28
   7.020000      1.3971301E-28
   7.030000      1.4517152E-28
   7.040000      1.5058928E-28
   7.050000      1.5595049E-28
   7.060000      1.6124094E-28