  -2.600000      0.0000000E+00
  -2.590000      0.0000000E+00
  -2.580000      0.0000000E+00
  -2.570000      0.0000000E+00
  -2.560000      0.0000000E+00
  -2.550000      0.0000000E+00
  -2.540000      0.0000000E+00
  -2.530000      0.0000000E+00
  -2.520000      0.0000000E+00
  -2.510000      0.0000000E+00
  -2.500000      0.0000000E+00
  -2.490000      0.0000000E+00
  -2.480000      0.0000000E+00
  -2.470000      0.0000000E+00
  -2.460000      0.0000000E+00
  -2.450000      0.0000000E+00
  -2.440000      0.0000000E+00
  -2.430000      0.0000000E+00
  -2.420000      0.0000000E+00
  -2.410000      0.0000000E+00
  -2.400000      0.0000000E+00
  -2.390000      0.0000000E+00
  -2.380000      0.0000000E+00
  -2.370000      0.0000000E+00
  -2.360000      0.0000000E+00
  -2.350000      0.0000000E+00
  -2.340000      0.0000000E+00
  -2.330000      0.0000000E+00
  -2.320000      0.0000000E+00
  -2.310000      0.0000000E+00
  -2.300000      0.0000000E+00
  -2.290000      0.0000000E+00
  -2.280000      0.0000000E+00
  -2.270000      0.0000000E+00
  -2.260000      0.0000000E+00
  -2.250000      0.0000000E+00
  -2.240000      0.0000000E+00
  -2.230000      0.0000000E+00
  -2.220000      0.0000000E+00
  -2.210000      0.0000000E+00
  -2.200000      0.0000000E+00
  -2.190000      0.0000000E+00
  -2.180000      0.0000000E+00
  -2.170000      0.0000000E+00
  -2.160000      0.0000000E+00
  -2.150000      0.0000000E+00
  -2.140000      0.0000000E+00
  -2.130000      0.0000000E+00
  -2.120000      0.0000000E+00
  -2.110000      0.0000000E+00
  -2.100000      0.0000000E+00
  -2.090000      0.0000000E+00
  -2.080000      0.0000000E+00
  -2.070000      0.0000000E+00
  -2.060000      0.0000000E+00
  -2.050000      0.0000000E+00
  -2.040000      0.0000000E+00
  -2.030000      0.0000000E+00
  -2.020000      0.0000000E+00
  -2.010000      0.0000000E+00
  -2.000000      0.0000000E+00
  -1.990000      0.0000000E+00
  -1.980000      0.0000000E+00
  -1.970000      0.0000000E+00
  -1.960000      0.0000000E+00
  -1.950000      0.0000000E+00
  -1.940000      0.0000000E+00
  -1.930000      0.0000000E+00
  -1.920000      0.0000000E+00
  -1.910000      0.0000000E+00
  -1.900000      0.0000000E+00
  -1.890000      0.0000000E+00
  -1.880000      0.0000000E+00
  -1.870000      0.0000000E+00
  -1.860000      0.0000000E+00
  -1.850000      0.0000000E+00
  -1.840000      0.0000000E+00
  -1.830000      0.0000000E+00
  -1.820000      0.0000000E+00
  -1.810000      0.0000000E+00
  -1.800000      0.0000000E+00
  -1.790000      0.0000000E+00
  -1.780000      0.0000000E+00
  -1.770000      0.0000000E+00
  -1.760000      0.0000000E+00
  -1.750000      0.0000000E+00
  -1.740000      0.0000000E+00
  -1.730000      0.0000000E+00
  -1.720000      0.0000000E+00
  -1.710000      0.0000000E+00
  -1.700000      0.0000000E+00
  -1.690000      0.0000000E+00
  -1.680000      0.0000000E+00
  -1.670000      0.0000000E+00
  -1.660000      0.0000000E+00
  -1.650000      0.0000000E+00
  -1.640000      0.0000000E+00
  -1.630000      0.0000000E+00
  -1.620000      0.0000000E+00
  -1.610000      0.0000000E+00
  -1.600000      0.0000000E+00
  -1.590000      0.0000000E+00
  -1.580000      0.0000000E+00
  -1.570000      0.0000000E+00
  -1.560000      0.0000000E+00
  -1.550000      0.0000000E+00
  -1.540000      0.0000000E+00
  -1.530000      0.0000000E+00
  -1.520000      0.0000000E+00
  -1.510000      0.0000000E+00
  -1.500000      0.0000000E+00
  -1.490000      0.0000000E+00
  -1.480000      0.0000000E+00
  -1.470000      0.0000000E+00
  -1.460000      0.0000000E+00
  -1.450000      0.0000000E+00
  -1.440000      0.0000000E+00
  -1.430000      0.0000000E+00
  -1.420000      0.0000000E+00
  -1.410000      0.0000000E+00
  -1.400000      0.0000000E+00
  -1.390000      0.0000000E+00
  -1.380000      0.0000000E+00
  -1.370000      0.0000000E+00
  -1.360000      0.0000000E+00
  -1.350000      0.0000000E+00
  -1.340000      0.0000000E+00
  -1.330000      0.0000000E+00
  -1.320000      0.0000000E+00
  -1.310000      0.0000000E+00
  -1.300000      0.0000000E+00
  -1.290000      0.0000000E+00
  -1.280000      0.0000000E+00
  -1.270000      0.0000000E+00
  -1.260000      0.0000000E+00
  -1.250000      0.0000000E+00
  -1.240000      0.0000000E+00
  -1.230000      0.0000000E+00
  -1.220000      0.0000000E+00
  -1.210000      0.0000000E+00
  -1.200000      0.0000000E+00
  -1.190000      0.0000000E+00
  -1.180000      0.0000000E+00
  -1.170000      0.0000000E+00
  -1.160000      0.0000000E+00
  -1.150000      0.0000000E+00
  -1.140000      0.0000000E+00
  -1.130000      0.0000000E+00
  -1.120000      0.0000000E+00
  -1.110000      0.0000000E+00
  -1.100000      0.0000000E+00
  -1.090000      0.0000000E+00
  -1.080000      0.0000000E+00
  -1.070000      0.0000000E+00
  -1.060000      0.0000000E+00
  -1.050000      0.0000000E+00
  -1.040000      0.0000000E+00
  -1.030000      0.0000000E+00
  -1.020000      0.0000000E+00
  -1.010000      0.0000000E+00
  -1.000000      0.0000000E+00
 -0.9900000      0.0000000E+00
 -0.9800000      0.0000000E+00
 -0.9700000      0.0000000E+00
 -0.9600000      0.0000000E+00
 -0.9500000      0.0000000E+00
 -0.9400000      0.0000000E+00
 -0.9300000      0.0000000E+00
 -0.9200000      0.0000000E+00
 -0.9100000      0.0000000E+00
 -0.9000000      0.0000000E+00
 -0.8900000      0.0000000E+00
 -0.8800000      0.0000000E+00
 -0.8700000      0.0000000E+00
 -0.8600000      0.0000000E+00
 -0.8500000      0.0000000E+00
 -0.8400000      0.0000000E+00
 -0.8300000      0.0000000E+00
 -0.8200000      0.0000000E+00
 -0.8100000      0.0000000E+00
 -0.8000000      0.0000000E+00
 -0.7900000      0.0000000E+00
 -0.7800000      0.0000000E+00
 -0.7700000      0.0000000E+00
 -0.7600000      0.0000000E+00
 -0.7500000      0.0000000E+00
 -0.7400000      0.0000000E+00
 -0.7300000      0.0000000E+00
 -0.7200000      0.0000000E+00
 -0.7100000      0.0000000E+00
 -0.7000000      0.0000000E+00
 -0.6900000      0.0000000E+00
 -0.6800000      0.0000000E+00
 -0.6700000      0.0000000E+00
 -0.6600000      0.0000000E+00
 -0.6500000      0.0000000E+00
 -0.6400000      0.0000000E+00
 -0.6300000      0.0000000E+00
 -0.6200000      0.0000000E+00
 -0.6100000      0.0000000E+00
 -0.6000000      0.0000000E+00
 -0.5900000      0.0000000E+00
 -0.5800000      0.0000000E+00
 -0.5700000      0.0000000E+00
 -0.5600000      0.0000000E+00
 -0.5500000      0.0000000E+00
 -0.5400000      0.0000000E+00
 -0.5300000      0.0000000E+00
 -0.5200000      0.0000000E+00
 -0.5100000      0.0000000E+00
 -0.5000000      0.0000000E+00
 -0.4900000      0.0000000E+00
 -0.4800000      0.0000000E+00
 -0.4700000      0.0000000E+00
 -0.4600000      0.0000000E+00
 -0.4500000      0.0000000E+00
 -0.4400000      0.0000000E+00
 -0.4300000      0.0000000E+00
 -0.4200000      0.0000000E+00
 -0.4100000      0.0000000E+00
 -0.4000000      0.0000000E+00
 -0.3900000      0.0000000E+00
 -0.3800000      0.0000000E+00
 -0.3700000      0.0000000E+00
 -0.3600000      0.0000000E+00
 -0.3500000      0.0000000E+00
 -0.3400000      0.0000000E+00
 -0.3300000      0.0000000E+00
 -0.3200000      0.0000000E+00
 -0.3100000      0.0000000E+00
 -0.3000000      0.0000000E+00
 -0.2900000      0.0000000E+00
 -0.2800000      0.0000000E+00
 -0.2700000      0.0000000E+00
 -0.2600000      0.0000000E+00
 -0.2500000      0.0000000E+00
 -0.2400000      0.0000000E+00
 -0.2300000      0.0000000E+00
 -0.2200000      0.0000000E+00
 -0.2100000      0.0000000E+00
 -0.2000000      0.0000000E+00
 -0.1900000      0.0000000E+00
 -0.1800000      0.0000000E+00
 -0.1700000      0.0000000E+00
 -0.1600000      0.0000000E+00
 -0.1500000      0.0000000E+00
 -0.1400000      0.0000000E+00
 -0.1300000      0.0000000E+00
 -0.1200000      0.0000000E+00
 -0.1100000      0.0000000E+00
 -0.1000000      0.0000000E+00
 -9.0000004E-02  0.0000000E+00
 -7.9999998E-02  0.0000000E+00
 -7.0000000E-02  0.0000000E+00
 -5.9999999E-02  0.0000000E+00
 -5.0000001E-02  0.0000000E+00
 -3.9999999E-02  0.0000000E+00
 -2.9999999E-02  0.0000000E+00
 -2.0000000E-02  0.0000000E+00
 -9.9999998E-03  0.0000000E+00
 -3.4694470E-17  0.0000000E+00
  9.9999998E-03  0.0000000E+00
  2.0000000E-02  0.0000000E+00
  2.9999999E-02  0.0000000E+00
  3.9999999E-02  0.0000000E+00
  5.0000001E-02  0.0000000E+00
  5.9999999E-02  0.0000000E+00
  7.0000000E-02  0.0000000E+00
  7.9999998E-02  0.0000000E+00
  9.0000004E-02  0.0000000E+00
  0.1000000      0.0000000E+00
  0.1100000      0.0000000E+00
  0.1200000      0.0000000E+00
  0.1300000      0.0000000E+00
  0.1400000      0.0000000E+00
  0.1500000      0.0000000E+00
  0.1600000      0.0000000E+00
  0.1700000      0.0000000E+00
  0.1800000      0.0000000E+00
  0.1900000      0.0000000E+00
  0.2000000      0.0000000E+00
  0.2100000      0.0000000E+00
  0.2200000      0.0000000E+00
  0.2300000      0.0000000E+00
  0.2400000      0.0000000E+00
  0.2500000      0.0000000E+00
  0.2600000      0.0000000E+00
  0.2700000      0.0000000E+00
  0.2800000      0.0000000E+00
  0.2900000      0.0000000E+00
  0.3000000      0.0000000E+00
  0.3100000      0.0000000E+00
  0.3200000      0.0000000E+00
  0.3300000      0.0000000E+00
  0.3400000      0.0000000E+00
  0.3500000      0.0000000E+00
  0.3600000      0.0000000E+00
  0.3700000      0.0000000E+00
  0.3800000      0.0000000E+00
  0.3900000      0.0000000E+00
  0.4000000      0.0000000E+00
  0.4100000      0.0000000E+00
  0.4200000      0.0000000E+00
  0.4300000      0.0000000E+00
  0.4400000      0.0000000E+00
  0.4500000      0.0000000E+00
  0.4600000      0.0000000E+00
  0.4700000      0.0000000E+00
  0.4800000      0.0000000E+00
  0.4900000      0.0000000E+00
  0.5000000      0.0000000E+00
  0.5100000      0.0000000E+00
  0.5200000      0.0000000E+00
  0.5300000      0.0000000E+00
  0.5400000      0.0000000E+00
  0.5500000      0.0000000E+00
  0.5600000      0.0000000E+00
  0.5700000      0.0000000E+00
  0.5800000      0.0000000E+00
  0.5900000      0.0000000E+00
  0.6000000      0.0000000E+00
  0.6100000      0.0000000E+00
  0.6200000      0.0000000E+00
  0.6300000      0.0000000E+00
  0.6400000      0.0000000E+00
  0.6500000      0.0000000E+00
  0.6600000      0.0000000E+00
  0.6700000      0.0000000E+00
  0.6800000      0.0000000E+00
  0.6900000      0.0000000E+00
  0.7000000      0.0000000E+00
  0.7100000      0.0000000E+00
  0.7200000      0.0000000E+00
  0.7300000      0.0000000E+00
  0.7400000      0.0000000E+00
  0.7500000      0.0000000E+00
  0.7600000      0.0000000E+00
  0.7700000      0.0000000E+00
  0.7800000      0.0000000E+00
  0.7900000      0.0000000E+00
  0.8000000      0.0000000E+00
  0.8100000      0.0000000E+00
  0.8200000      0.0000000E+00
  0.8300000      0.0000000E+00
  0.8400000      0.0000000E+00
  0.8500000      0.0000000E+00
  0.8600000      0.0000000E+00
  0.8700000      0.0000000E+00
  0.8800000      0.0000000E+00
  0.8900000      0.0000000E+00
  0.9000000      0.0000000E+00
  0.9100000      0.0000000E+00
  0.9200000      0.0000000E+00
  0.9300000      0.0000000E+00
  0.9400000      0.0000000E+00
  0.9500000      0.0000000E+00
  0.9600000      0.0000000E+00
  0.9700000      0.0000000E+00
  0.9800000      0.0000000E+00
  0.9900000      0.0000000E+00
   1.000000      0.0000000E+00
   1.010000      0.0000000E+00
   1.020000      0.0000000E+00
   1.030000      0.0000000E+00
   1.040000      0.0000000E+00
   1.050000      0.0000000E+00
   1.060000      0.0000000E+00
   1.070000      0.0000000E+00
   1.080000      0.0000000E+00
   1.090000      0.0000000E+00
   1.100000      0.0000000E+00
   1.110000      0.0000000E+00
   1.120000      0.0000000E+00
   1.130000      0.0000000E+00
   1.140000      0.0000000E+00
   1.150000      0.0000000E+00
   1.160000      0.0000000E+00
   1.170000      0.0000000E+00
   1.180000      0.0000000E+00
   1.190000      0.0000000E+00
   1.200000      0.0000000E+00
   1.210000      0.0000000E+00
   1.220000      0.0000000E+00
   1.230000      0.0000000E+00
   1.240000      0.0000000E+00
   1.250000      0.0000000E+00
   1.260000      0.0000000E+00
   1.270000      0.0000000E+00
   1.280000      0.0000000E+00
   1.290000      0.0000000E+00
   1.300000      0.0000000E+00
   1.310000      0.0000000E+00
   1.320000      0.0000000E+00
   1.330000      0.0000000E+00
   1.340000      0.0000000E+00
   1.350000      0.0000000E+00
   1.360000      0.0000000E+00
   1.370000      0.0000000E+00
   1.380000      0.0000000E+00
   1.390000      0.0000000E+00
   1.400000      0.0000000E+00
   1.410000      0.0000000E+00
   1.420000      0.0000000E+00
   1.430000      0.0000000E+00
   1.440000      0.0000000E+00
   1.450000      0.0000000E+00
   1.460000      0.0000000E+00
   1.470000      0.0000000E+00
   1.480000      0.0000000E+00
   1.490000      0.0000000E+00
   1.500000      0.0000000E+00
   1.510000      0.0000000E+00
   1.520000      0.0000000E+00
   1.530000      0.0000000E+00
   1.540000      0.0000000E+00
   1.550000      0.0000000E+00
   1.560000      0.0000000E+00
   1.570000      0.0000000E+00
   1.580000      0.0000000E+00
   1.590000      0.0000000E+00
   1.600000      0.0000000E+00
   1.610000      0.0000000E+00
   1.620000      0.0000000E+00
   1.630000      0.0000000E+00
   1.640000      0.0000000E+00
   1.650000      0.0000000E+00
   1.660000      0.0000000E+00
   1.670000      0.0000000E+00
   1.680000      0.0000000E+00
   1.690000      1.1946850E-38
   1.700000      1.2628832E-38
   1.710000      1.3189643E-38
   1.720000      1.3395926E-38
   1.730000      1.3198392E-38
   1.740000      1.3137776E-38
   1.750000      1.3512346E-38
   1.760000      1.3991476E-38
   1.770000      1.4772069E-38
   1.780000      1.5873770E-38
   1.790000      1.6763994E-38
   1.800000      1.7359295E-38
   1.810000      1.7985985E-38
   1.820000      1.8441418E-38
   1.830000      1.8509330E-38
   1.840000      1.8424404E-38
   1.850000      1.8369945E-38
   1.860000      1.9025750E-38
   1.870000      2.0459860E-38
   1.880000      2.2122299E-38
   1.890000      2.3796240E-38
   1.900000      2.5324933E-38
   1.910000      2.6823075E-38
   1.920000      2.7878847E-38
   1.930000      2.8828129E-38
   1.940000      3.0133082E-38
   1.950000      3.1458220E-38
   1.960000      3.2840416E-38
   1.970000      3.8784351E-38
   1.980000      5.2929924E-38
   1.990000      7.1405119E-38
   2.000000      9.0885382E-38
   2.010000      1.0982919E-37
   2.020000      1.2856502E-37
   2.030000      1.4901521E-37
   2.040000      1.6269163E-37
   2.050000      1.6838891E-37
   2.060000      1.7447073E-37
   2.070000      1.7149180E-37
   2.080000      1.5683981E-37
   2.090000      1.4081028E-37
   2.100000      1.2546411E-37
   2.110000      1.1059099E-37
   2.120000      9.7121822E-38
   2.130000      8.5863201E-38
   2.140000      8.1306375E-38
   2.150000      8.5116718E-38
   2.160000      9.4317532E-38
   2.170000      1.0925058E-37
   2.180000      1.3559436E-37
   2.190000      1.7512578E-37
   2.200000      2.2166333E-37
   2.210000      2.7297408E-37
   2.220000      3.2794821E-37
   2.230000      3.7758563E-37
   2.240000      4.1948926E-37
   2.250000      4.6872873E-37
   2.260000      5.2511510E-37
   2.270000      5.7764070E-37
   2.280000      6.2528996E-37
   2.290000      6.7174988E-37
   2.300000      7.1841406E-37
   2.310000      7.6211911E-37
   2.320000      8.0233642E-37
   2.330000      8.3286410E-37
   2.340000      8.5485439E-37
   2.350000      8.7762260E-37
   2.360000      9.0937804E-37
   2.370000      9.5280708E-37
   2.380000      1.0197212E-36
   2.390000      1.1119315E-36
   2.400000      1.2154293E-36
   2.410000      1.3377967E-36
   2.420000      1.4785805E-36
   2.430000      1.6275879E-36
   2.440000      1.7855197E-36
   2.450000      1.9372789E-36
   2.460000      2.0760013E-36
   2.470000      2.2102567E-36
   2.480000      2.3410391E-36
   2.490000      2.4784745E-36
   2.500000      2.5880455E-36
   2.510000      2.4607287E-36
   2.520000      2.1177389E-36
   2.530000      1.7600513E-36
   2.540000      1.4046996E-36
   2.550000      1.2292073E-36
   2.560000      1.2363017E-36
   2.570000      1.2521953E-36
   2.580000      1.3022405E-36
   2.590000      1.3803905E-36
   2.600000      1.5001950E-36
   2.610000      1.6276297E-36
   2.620000      1.6577511E-36
   2.630000      1.6045249E-36
   2.640000      1.5749981E-36
   2.650000      1.7104227E-36
   2.660000      1.8670912E-36
   2.670000      1.9457470E-36
   2.680000      2.0034242E-36
   2.690000      2.1226537E-36
   2.700000      2.3669123E-36
   2.710000      2.5264354E-36
   2.720000      2.6183498E-36
   2.730000      2.7320475E-36
   2.740000      3.1267956E-36
   2.750000      3.8002579E-36
   2.760000      4.4133076E-36
   2.770000      4.8274301E-36
   2.780000      5.0168099E-36
   2.790000      4.7410437E-36
   2.800000      4.0481036E-36
   2.810000      3.2474129E-36
   2.820000      2.3404938E-36
   2.830000      1.4651147E-36
   2.840000      6.6007494E-37
   2.850000     -1.4759201E-37
   2.860000     -1.0532274E-36
   2.870000     -1.9512087E-36
   2.880000     -2.7509456E-36
   2.890000     -3.7149596E-36
   2.900000     -4.8806814E-36
   2.910000     -6.1279703E-36
   2.920000     -7.4700585E-36
   2.930000     -8.8589484E-36
   2.940000     -1.0054814E-35
   2.950000     -1.1076743E-35
   2.960000     -1.2303006E-35
   2.970000     -1.3725174E-35
   2.980000     -1.5274632E-35
   2.990000     -1.6890165E-35
   3.000000     -1.8593172E-35
   3.010000     -2.0570187E-35
   3.020000     -2.2759602E-35
   3.030000     -2.4362875E-35
   3.040000     -2.5402760E-35
   3.050000     -2.6590974E-35
   3.060000     -2.7928721E-35
   3.070000     -2.9533087E-35
   3.080000     -3.1642463E-35
   3.090000     -3.4193145E-35
   3.100000     -3.7641212E-35
   3.110000     -4.1803271E-35
   3.120000     -4.5963264E-35
   3.130000     -5.0240198E-35
   3.140000     -5.4505779E-35
   3.150000     -5.8817536E-35
   3.160000     -6.2939825E-35
   3.170000     -6.7365257E-35
   3.180000     -7.0799962E-35
   3.190000     -7.3045684E-35
   3.200000     -7.8344718E-35
   3.210000     -8.6271516E-35
   3.220000     -9.8587770E-35
   3.230000     -1.0755676E-34
   3.240000     -1.1121560E-34
   3.250000     -1.1679207E-34
   3.260000     -1.2096822E-34
   3.270000     -1.1990831E-34
   3.280000     -1.1443640E-34
   3.290000     -1.0860551E-34
   3.300000     -1.0457195E-34
   3.310000     -1.0434198E-34
   3.320000     -1.1041851E-34
   3.330000     -1.2160698E-34
   3.340000     -1.3346981E-34
   3.350000     -1.4580232E-34
   3.360000     -1.5953897E-34
   3.370000     -1.7405889E-34
   3.380000     -1.8882745E-34
   3.390000     -2.0697827E-34
   3.400000     -2.2569397E-34
   3.410000     -2.4235190E-34
   3.420000     -2.6000631E-34
   3.430000     -2.7824906E-34
   3.440000     -2.9044124E-34
   3.450000     -2.9521501E-34
   3.460000     -2.9139479E-34
   3.470000     -2.7696011E-34
   3.480000     -2.5700106E-34
   3.490000     -2.3177851E-34
   3.500000     -2.0204509E-34
   3.510000     -1.7048647E-34
   3.520000     -1.3828631E-34
   3.530000     -1.0538153E-34
   3.540000     -7.3623610E-35
   3.550000     -4.6044048E-35
   3.560000     -2.0091540E-35
   3.570000      3.1120481E-36
   3.580000      1.5567366E-35
   3.590000      2.0022382E-35
   3.600000      2.1319836E-35
   3.610000      1.9793645E-35
   3.620000      1.8043243E-35
   3.630000      1.4959741E-35
   3.640000      1.0523405E-35
   3.650000      7.8291203E-36
   3.660000      1.5850492E-35
   3.670000      3.8748248E-35
   3.680000      6.9974234E-35
   3.690000      1.0769691E-34
   3.700000      1.5122636E-34
   3.710000      2.0018299E-34
   3.720000      2.5931557E-34
   3.730000      3.2920277E-34
   3.740000      4.0747837E-34
   3.750000      4.9503961E-34
   3.760000      5.9031288E-34
   3.770000      6.8692189E-34
   3.780000      7.8371246E-34
   3.790000      8.8581278E-34
   3.800000      9.9225958E-34
   3.810000      1.0993979E-33
   3.820000      1.2059483E-33
   3.830000      1.3171257E-33
   3.840000      1.4333218E-33
   3.850000      1.5493644E-33
   3.860000      1.6637811E-33
   3.870000      1.7756041E-33
   3.880000      1.8868264E-33
   3.890000      1.9981949E-33
   3.900000      2.1097600E-33
   3.910000      2.2227000E-33
   3.920000      2.3389404E-33
   3.930000      2.4593698E-33
   3.940000      2.5848072E-33
   3.950000      2.7164661E-33
   3.960000      2.8549163E-33
   3.970000      2.9967748E-33
   3.980000      3.1438846E-33
   3.990000      3.2992894E-33
   4.000000      3.4608648E-33
   4.010000      3.6287661E-33
   4.020000      3.8025707E-33
   4.030000      3.9815878E-33
   4.040000      4.1643269E-33
   4.050000      4.3500447E-33
   4.060000      4.5383277E-33
   4.070000      4.7273009E-33
   4.080000      4.9124596E-33
   4.090000      5.0933447E-33
   4.100000      5.2690087E-33
   4.110000      5.4352467E-33
   4.120000      5.5905373E-33
   4.130000      5.7322130E-33
   4.140000      5.8579229E-33
   4.150000      5.9657764E-33
   4.160000      6.0537856E-33
   4.170000      6.1200299E-33
   4.180000      6.1634967E-33
   4.190000      6.1831098E-33
   4.200000      6.1778392E-33
   4.210000      6.1475831E-33
   4.220000      6.0922529E-33
   4.230000      6.0121639E-33
   4.240000      5.9084585E-33
   4.250000      5.7815147E-33
   4.260000      5.6297503E-33
   4.270000      5.4535929E-33
   4.280000      5.2542305E-33
   4.290000      5.0306486E-33
   4.300000      4.7824712E-33
   4.310000      4.5094953E-33
   4.320000      4.2084057E-33
   4.330000      3.8752658E-33
   4.340000      3.5075701E-33
   4.350000      3.1003219E-33
   4.360000      2.6480029E-33
   4.370000      2.1452957E-33
   4.380000      1.5854612E-33
   4.390000      9.6185918E-34
   4.400000      2.6710152E-34
   4.410000     -5.0519997E-34
   4.420000     -1.3613596E-33
   4.430000     -2.3074976E-33
   4.440000     -3.3487406E-33
   4.450000     -4.4895924E-33
   4.460000     -5.7321483E-33
   4.470000     -7.0771820E-33
   4.480000     -8.5252375E-33
   4.490000     -1.0075043E-32
   4.500000     -1.1723235E-32
   4.510000     -1.3464744E-32
   4.520000     -1.5294948E-32
   4.530000     -1.7209834E-32
   4.540000     -1.9203131E-32
   4.550000     -2.1268341E-32
   4.560000     -2.3400545E-32
   4.570000     -2.5595858E-32
   4.580000     -2.7851282E-32
   4.590000     -3.0165848E-32
   4.600000     -3.2540267E-32
   4.610000     -3.4977249E-32
   4.620000     -3.7481675E-32
   4.630000     -4.0060233E-32
   4.640000     -4.2721453E-32
   4.650000     -4.5474031E-32
   4.660000     -4.8328085E-32
   4.670000     -5.1294212E-32
   4.680000     -5.4381143E-32
   4.690000     -5.7596296E-32
   4.700000     -6.0945144E-32
   4.710000     -6.4430103E-32
   4.720000     -6.8049627E-32
   4.730000     -7.1798155E-32
   4.740000     -7.5665649E-32
   4.750000     -7.9636980E-32
   4.760000     -8.3693476E-32
   4.770000     -8.7812226E-32
   4.780000     -9.1965670E-32
   4.790000     -9.6123917E-32
   4.800000     -1.0025509E-31
   4.810000     -1.0432649E-31
   4.820000     -1.0830571E-31
   4.830000     -1.1216194E-31
   4.840000     -1.1586704E-31
   4.850000     -1.1939657E-31
   4.860000     -1.2273059E-31
   4.870000     -1.2585434E-31
   4.880000     -1.2875838E-31
   4.890000     -1.3143848E-31
   4.900000     -1.3389517E-31
   4.910000     -1.3613292E-31
   4.920000     -1.3815888E-31
   4.930000     -1.3998131E-31
   4.940000     -1.4160782E-31
   4.950000     -1.4304343E-31
   4.960000     -1.4428856E-31
   4.970000     -1.4533710E-31
   4.980000     -1.4617462E-31
   4.990000     -1.4677539E-31
   5.000000     -1.4710597E-31
   5.010000     -1.4712152E-31
   5.020000     -1.4676266E-31
   5.030000     -1.4596072E-31
   5.040000     -1.4463750E-31
   5.050000     -1.4270709E-31
   5.060000     -1.4007823E-31
   5.070000     -1.3665713E-31
   5.080000     -1.3235059E-31
   5.090000     -1.2706926E-31
   5.100000     -1.2073088E-31
   5.110000     -1.1326324E-31
   5.120000     -1.0460678E-31
   5.130000     -9.4716556E-32
   5.140000     -8.3563572E-32
   5.150000     -7.1135029E-32
   5.160000     -5.7433814E-32
   5.170000     -4.2476917E-32
   5.180000     -2.6292917E-32
   5.190000     -8.9190399E-33
   5.200000      9.6041826E-33
   5.210000      2.9237057E-32
   5.220000      4.9943740E-32
   5.230000      7.1699031E-32
   5.240000      9.4493359E-32
   5.250000      1.1833557E-31
   5.260000      1.4325643E-31
   5.270000      1.6931044E-31
   5.280000      1.9657644E-31
   5.290000      2.2515673E-31
   5.300000      2.5517446E-31
   5.310000      2.8676939E-31
   5.320000      3.2009275E-31
   5.330000      3.5530015E-31
   5.340000      3.9254409E-31
   5.350000      4.3196568E-31
   5.360000      4.7368633E-31
   5.370000      5.1780000E-31
   5.380000      5.6436570E-31
   5.390000      6.1340168E-31
   5.400000      6.6488133E-31
   5.410000      7.1873138E-31
   5.420000      7.7483180E-31
   5.430000      8.3301840E-31
   5.440000      8.9308813E-31
   5.450000      9.5480620E-31
   5.460000      1.0179158E-30
   5.470000      1.0821484E-30
   5.480000      1.1472359E-30
   5.490000      1.2129228E-30
   5.500000      1.2789779E-30
   5.510000      1.3452047E-30
   5.520000      1.4114505E-30
   5.530000      1.4776126E-30
   5.540000      1.5436407E-30
   5.550000      1.6095376E-30
   5.560000      1.6753535E-30
   5.570000      1.7411793E-30
   5.580000      1.8071343E-30
   5.590000      1.8733517E-30
   5.600000      1.9399610E-30
   5.610000      2.0070693E-30
   5.620000      2.0747409E-30
   5.630000      2.1429789E-30
   5.640000      2.2117062E-30
   5.650000      2.2807511E-30
   5.660000      2.3498358E-30
   5.670000      2.4185691E-30
   5.680000      2.4864455E-30
   5.690000      2.5528497E-30
   5.700000      2.6170665E-30
   5.710000      2.6782975E-30
   5.720000      2.7356812E-30
   5.730000      2.7883196E-30
   5.740000      2.8353055E-30
   5.750000      2.8757535E-30
   5.760000      2.9088289E-30
   5.770000      2.9337759E-30
   5.780000      2.9499416E-30
   5.790000      2.9567958E-30
   5.800000      2.9539413E-30
   5.810000      2.9411200E-30
   5.820000      2.9182065E-30
   5.830000      2.8851960E-30
   5.840000      2.8421810E-30
   5.850000      2.7893219E-30
   5.860000      2.7268097E-30
   5.870000      2.6548237E-30
   5.880000      2.5734887E-30
   5.890000      2.4828280E-30
   5.900000      2.3827229E-30
   5.910000      2.2728751E-30
   5.920000      2.1527782E-30
   5.930000      2.0216970E-30
   5.940000      1.8786619E-30
   5.950000      1.7224752E-30
   5.960000      1.5517299E-30
   5.970000      1.3648438E-30
   5.980000      1.1601062E-30
   5.990000      9.3573469E-31
   6.000000      6.8994089E-31
   6.010000      4.2100025E-31
   6.020000      1.2732447E-31
   6.030000     -1.9246943E-31
   6.040000     -5.3949586E-31
   6.050000     -9.1455050E-31
   6.060000     -1.3180718E-30
   6.070000     -1.7501213E-30
   6.080000     -2.2103838E-30
   6.090000     -2.6981867E-30
   6.100000     -3.2125403E-30
   6.110000     -3.7521998E-30
   6.120000     -4.3157389E-30
   6.130000     -4.9016418E-30
   6.140000     -5.5084011E-30
   6.150000     -6.1346199E-30
   6.160000     -6.7791102E-30
   6.170000     -7.4409808E-30
   6.180000     -8.1197154E-30
   6.190000     -8.8152191E-30
   6.200000     -9.5278523E-30
   6.210000     -1.0258428E-29
   6.220000     -1.1008183E-29
   6.230000     -1.1778705E-29
   6.240000     -1.2571847E-29
   6.250000     -1.3389613E-29
   6.260000     -1.4234002E-29
   6.270000     -1.5106868E-29
   6.280000     -1.6009749E-29
   6.290000     -1.6943707E-29
   6.300000     -1.7909191E-29
   6.310000     -1.8905896E-29
   6.320000     -1.9932672E-29
   6.330000     -2.0987463E-29
   6.340000     -2.2067289E-29
   6.350000     -2.3168269E-29
   6.360000     -2.4285695E-29
   6.370000     -2.5414156E-29
   6.380000     -2.6547701E-29
   6.390000     -2.7680025E-29
   6.400000     -2.8804675E-29
   6.410000     -2.9915313E-29
   6.420000     -3.1005919E-29
   6.430000     -3.2071016E-29
   6.440000     -3.3105854E-29
   6.450000     -3.4106567E-29
   6.460000     -3.5070257E-29
   6.470000     -3.5995041E-29
   6.480000     -3.6880006E-29
   6.490000     -3.7725107E-29
   6.500000     -3.8531012E-29
   6.510000     -3.9298850E-29
   6.520000     -4.0029951E-29
   6.530000     -4.0725510E-29
   6.540000     -4.1386245E-29
   6.550000     -4.2012058E-29
   6.560000     -4.2601700E-29
   6.570000     -4.3152477E-29
   6.580000     -4.3660031E-29
   6.590000     -4.4118156E-29
   6.600000     -4.4518758E-29
   6.610000     -4.4851866E-29
   6.620000     -4.5105758E-29
   6.630000     -4.5267208E-29
   6.640000     -4.5321799E-29
   6.650000     -4.5254349E-29
   6.660000     -4.5049367E-29
   6.670000     -4.4691568E-29
   6.680000     -4.4166407E-29
   6.690000     -4.3460574E-29
   6.700000     -4.2562459E-29
   6.710000     -4.1462518E-29
   6.720000     -4.0153572E-29
   6.730000     -3.8630947E-29
   6.740000     -3.6892494E-29
   6.750000     -3.4938452E-29
   6.760000     -3.2771167E-29
   6.770000     -3.0394653E-29
   6.780000     -2.7814076E-29
   6.790000     -2.5035094E-29
   6.800000     -2.2063159E-29
   6.810000     -1.8902765E-29
   6.820000     -1.5556768E-29
   6.830000     -1.2025715E-29
   6.840000     -8.3073130E-30
   6.850000     -4.3960325E-30
   6.860000     -2.8288610E-31
   6.870000      4.0446007E-30
   6.880000      8.6021714E-30
   6.890000      1.3408425E-29
   6.900000      1.8484197E-29
   6.910000      2.3851717E-29
   6.920000      2.9533645E-29
   6.930000      3.5552017E-29
   6.940000      4.1927092E-29
   6.950000      4.8676248E-29
   6.960000      5.5812932E-29
   6.970000      6.3345774E-29
   6.980000      7.1277855E-29
   6.990000      7.9606280E-29
   7.000000      8.8321986E-29
   7.010000      9.7409865E-29
   7.020000      1.0684926E-28
   7.030000      1.1661468E-28
   7.040000      1.2667695E-28
   7.050000      1.3700429E-28
   7.060000      1.4756396E-28