  -2.600000      0.0000000E+00
  -2.590000      0.0000000E+00
  -2.580000      0.0000000E+00
  -2.570000      0.0000000E+00
  -2.560000      0.0000000E+00
  -2.550000      0.0000000E+00
  -2.540000      0.0000000E+00
  -2.530000      0.0000000E+00
  -2.520000      0.0000000E+00
  -2.510000      0.0000000E+00
  -2.500000      0.0000000E+00
  -2.490000      0.0000000E+00
  -2.480000      0.0000000E+00
  -2.470000      0.0000000E+00
  -2.460000      0.0000000E+00
  -2.450000      0.0000000E+00
  -2.440000      0.0000000E+00
  -2.430000      0.0000000E+00
  -2.420000      0.0000000E+00
  -2.410000      0.0000000E+00
  -2.400000      0.0000000E+00
  -2.390000      0.0000000E+00
  -2.380000      0.0000000E+00
  -2.370000      0.0000000E+00
  -2.360000      0.0000000E+00
  -2.350000      0.0000000E+00
  -2.340000      0.0000000E+00
  -2.330000      0.0000000E+00
  -2.320000      0.0000000E+00
  -2.310000      0.0000000E+00
  -2.300000      0.0000000E+00
  -2.290000      0.0000000E+00
  -2.280000      0.0000000E+00
  -2.270000      0.0000000E+00
  -2.260000      0.0000000E+00
  -2.250000      0.0000000E+00
  -2.240000      0.0000000E+00
  -2.230000      0.0000000E+00
  -2.220000      0.0000000E+00
  -2.210000      0.0000000E+00
  -2.200000      0.0000000E+00
  -2.190000      0.0000000E+00
  -2.180000      0.0000000E+00
  -2.170000      0.0000000E+00
  -2.160000      0.0000000E+00
  -2.150000      0.0000000E+00
  -2.140000      0.0000000E+00
  -2.130000      0.0000000E+00
  -2.120000      0.0000000E+00
  -2.110000      0.0000000E+00
  -2.100000      0.0000000E+00
  -2.090000      0.0000000E+00
  -2.080000      0.0000000E+00
  -2.070000      0.0000000E+00
  -2.060000      0.0000000E+00
  -2.050000      0.0000000E+00
  -2.040000      0.0000000E+00
  -2.030000      0.0000000E+00
  -2.020000      0.0000000E+00
  -2.010000      0.0000000E+00
  -2.000000      0.0000000E+00
  -1.990000      0.0000000E+00
  -1.980000      0.0000000E+00
  -1.970000      0.0000000E+00
  -1.960000      0.0000000E+00
  -1.950000      0.0000000E+00
  -1.940000      0.0000000E+00
  -1.930000      0.0000000E+00
  -1.920000      0.0000000E+00
  -1.910000      0.0000000E+00
  -1.900000      0.0000000E+00
  -1.890000      0.0000000E+00
  -1.880000      0.0000000E+00
  -1.870000      0.0000000E+00
  -1.860000      0.0000000E+00
  -1.850000      0.0000000E+00
  -1.840000      0.0000000E+00
  -1.830000      0.0000000E+00
  -1.820000      0.0000000E+00
  -1.810000      0.0000000E+00
  -1.800000      0.0000000E+00
  -1.790000      0.0000000E+00
  -1.780000      0.0000000E+00
  -1.770000      0.0000000E+00
  -1.760000      0.0000000E+00
  -1.750000      0.0000000E+00
  -1.740000      0.0000000E+00
  -1.730000      0.0000000E+00
  -1.720000      0.0000000E+00
  -1.710000      0.0000000E+00
  -1.700000      0.0000000E+00
  -1.690000      0.0000000E+00
  -1.680000      0.0000000E+00
  -1.670000      0.0000000E+00
  -1.660000      0.0000000E+00
  -1.650000      0.0000000E+00
  -1.640000      0.0000000E+00
  -1.630000      0.0000000E+00
  -1.620000      0.0000000E+00
  -1.610000      0.0000000E+00
  -1.600000      0.0000000E+00
  -1.590000      0.0000000E+00
  -1.580000      0.0000000E+00
  -1.570000      1.9448759E-38
  -1.560000      3.3825349E-38
  -1.550000      4.8500633E-38
  -1.540000      6.3086720E-38
  -1.530000      7.8367493E-38
  -1.520000      8.9693539E-38
  -1.510000      9.1947690E-38
  -1.500000      8.2812395E-38
  -1.490000      5.4858425E-38
  -1.480000     -2.7263167E-38
  -1.470000     -1.6787886E-37
  -1.460000     -2.5227215E-37
  -1.450000     -2.8470968E-37
  -1.440000     -3.2889560E-37
  -1.430000     -2.7321345E-37
  -1.420000     -7.9578871E-38
  -1.410000      2.2655898E-37
  -1.400000      5.2303252E-37
  -1.390000      8.0627377E-37
  -1.380000      1.0967879E-36
  -1.370000      1.3551910E-36
  -1.360000      1.7185327E-36
  -1.350000      2.3562619E-36
  -1.340000      3.7817305E-36
  -1.330000      6.3622527E-36
  -1.320000      1.0539419E-35
  -1.310000      1.6766401E-35
  -1.300000      2.5020724E-35
  -1.290000      3.5660091E-35
  -1.280000      4.8687656E-35
  -1.270000      6.4224695E-35
  -1.260000      8.4154771E-35
  -1.250000      1.0894408E-34
  -1.240000      1.3800113E-34
  -1.230000      1.7373406E-34
  -1.220000      2.1575788E-34
  -1.210000      2.6436110E-34
  -1.200000      3.2121191E-34
  -1.190000      3.8775017E-34
  -1.180000      4.6797229E-34
  -1.170000      5.7446358E-34
  -1.160000      7.1284457E-34
  -1.150000      8.7959368E-34
  -1.140000      1.0847690E-33
  -1.130000      1.3347368E-33
  -1.120000      1.6305510E-33
  -1.110000      1.9733139E-33
  -1.100000      2.3684103E-33
  -1.090000      2.8276818E-33
  -1.080000      3.3601554E-33
  -1.070000      3.9769777E-33
  -1.060000      4.6916775E-33
  -1.050000      5.5180945E-33
  -1.040000      6.4721448E-33
  -1.030000      7.5722018E-33
  -1.020000      8.8388315E-33
  -1.010000      1.0295256E-32
  -1.000000      1.1967739E-32
 -0.9900000      1.3885905E-32
 -0.9800000      1.6083095E-32
 -0.9700000      1.8596841E-32
 -0.9600000      2.1469244E-32
 -0.9500000      2.4747494E-32
 -0.9400000      2.8484462E-32
 -0.9300000      3.2739140E-32
 -0.9200000      3.7577278E-32
 -0.9100000      4.3072020E-32
 -0.9000000      4.9304506E-32
 -0.8900000      5.6364525E-32
 -0.8800000      6.4351227E-32
 -0.8700000      7.3373905E-32
 -0.8600000      8.3552781E-32
 -0.8500000      9.5019869E-32
 -0.8400000      1.0791997E-31
 -0.8300000      1.2241173E-31
 -0.8200000      1.3866875E-31
 -0.8100000      1.5688102E-31
 -0.8000000      1.7725634E-31
 -0.7900000      2.0002278E-31
 -0.7800000      2.2542815E-31
 -0.7700000      2.5374421E-31
 -0.7600000      2.8527012E-31
 -0.7500000      3.2033462E-31
 -0.7400000      3.5929394E-31
 -0.7300000      4.0253911E-31
 -0.7200000      4.5050332E-31
 -0.7100000      5.0365950E-31
 -0.7000000      5.6252549E-31
 -0.6900000      6.2766884E-31
 -0.6800000      6.9971076E-31
 -0.6700000      7.7932962E-31
 -0.6600000      8.6726563E-31
 -0.6500000      9.6432469E-31
 -0.6400000      1.0713826E-30
 -0.6300000      1.1893894E-30
 -0.6200000      1.3193734E-30
 -0.6100000      1.4624457E-30
 -0.6000000      1.6198041E-30
 -0.5900000      1.7927391E-30
 -0.5800000      1.9826384E-30
 -0.5700000      2.1909932E-30
 -0.5600000      2.4194045E-30
 -0.5500000      2.6695917E-30
 -0.5400000      2.9434004E-30
 -0.5300000      3.2428131E-30
 -0.5200000      3.5699613E-30
 -0.5100000      3.9271374E-30
 -0.5000000      4.3168114E-30
 -0.4900000      4.7416444E-30
 -0.4800000      5.2045082E-30
 -0.4700000      5.7085030E-30
 -0.4600000      6.2569781E-30
 -0.4500000      6.8535511E-30
 -0.4400000      7.5021298E-30
 -0.4300000      8.2069344E-30
 -0.4200000      8.9725157E-30
 -0.4100000      9.8037779E-30
 -0.4000000      1.0705996E-29
 -0.3900000      1.1684834E-29
 -0.3800000      1.2746367E-29
 -0.3700000      1.3897094E-29
 -0.3600000      1.5143954E-29
 -0.3500000      1.6494349E-29
 -0.3400000      1.7956152E-29
 -0.3300000      1.9537735E-29
 -0.3200000      2.1247988E-29
 -0.3100000      2.3096340E-29
 -0.3000000      2.5092798E-29
 -0.2900000      2.7247976E-29
 -0.2800000      2.9573148E-29
 -0.2700000      3.2080278E-29
 -0.2600000      3.4782105E-29
 -0.2500000      3.7692185E-29
 -0.2400000      4.0824981E-29
 -0.2300000      4.4195939E-29
 -0.2200000      4.7821575E-29
 -0.2100000      5.1719561E-29
 -0.2000000      5.5908831E-29
 -0.1900000      6.0409676E-29
 -0.1800000      6.5243820E-29
 -0.1700000      7.0434544E-29
 -0.1600000      7.6006735E-29
 -0.1500000      8.1986982E-29
 -0.1400000      8.8403651E-29
 -0.1300000      9.5286937E-29
 -0.1200000      1.0266893E-28
 -0.1100000      1.1058365E-28
 -0.1000000      1.1906709E-28
 -9.0000004E-02  1.2815732E-28
 -7.9999998E-02  1.3789445E-28
 -7.0000000E-02  1.4832073E-28
 -5.9999999E-02  1.5948064E-28
 -5.0000001E-02  1.7142097E-28
 -3.9999999E-02  1.8419093E-28
 -2.9999999E-02  1.9784236E-28
 -2.0000000E-02  2.1242983E-28
 -9.9999998E-03  2.2801094E-28
 -3.4694470E-17  2.4464652E-28
  9.9999998E-03  2.6240102E-28
  2.0000000E-02  2.8134274E-28
  2.9999999E-02  3.0154420E-28
  3.9999999E-02  3.2308267E-28
  5.0000001E-02  3.4604028E-28
  5.9999999E-02  3.7050467E-28
  7.0000000E-02  3.9656920E-28
  7.9999998E-02  4.2433331E-28
  9.0000004E-02  4.5390293E-28
  0.1000000      4.8539058E-28
  0.1100000      5.1891578E-28
  0.1200000      5.5460504E-28
  0.1300000      5.9259203E-28
  0.1400000      6.3301778E-28
  0.1500000      6.7603049E-28
  0.1600000      7.2178572E-28
  0.1700000      7.7044637E-28
  0.1800000      8.2218277E-28
  0.1900000      8.7717269E-28
  0.2000000      9.3560155E-28
  0.2100000      9.9766291E-28
  0.2200000      1.0635587E-27
  0.2300000      1.1334996E-27
  0.2400000      1.2077064E-27
  0.2500000      1.2864100E-27
  0.2600000      1.3698533E-27
  0.2700000      1.4582917E-27
  0.2800000      1.5519948E-27
  0.2900000      1.6512473E-27
  0.3000000      1.7563508E-27
  0.3100000      1.8676245E-27
  0.3200000      1.9854075E-27
  0.3300000      2.1100583E-27
  0.3400000      2.2419575E-27
  0.3500000      2.3815067E-27
  0.3600000      2.5291300E-27
  0.3700000      2.6852748E-27
  0.3800000      2.8504093E-27
  0.3900000      3.0250243E-27
  0.4000000      3.2096322E-27
  0.4100000      3.4047653E-27
  0.4200000      3.6109765E-27
  0.4300000      3.8288377E-27
  0.4400000      4.0589386E-27
  0.4500000      4.3018889E-27
  0.4600000      4.5583153E-27
  0.4700000      4.8288649E-27
  0.4800000      5.1142053E-27
  0.4900000      5.4150248E-27
  0.5000000      5.7320386E-27
  0.5100000      6.0659879E-27
  0.5200000      6.4176465E-27
  0.5300000      6.7878230E-27
  0.5400000      7.1773639E-27
  0.5500000      7.5871594E-27
  0.5600000      8.0181494E-27
  0.5700000      8.4713223E-27
  0.5800000      8.9477211E-27
  0.5900000      9.4484467E-27
  0.6000000      9.9746531E-27
  0.6100000      1.0527556E-26
  0.6200000      1.1108424E-26
  0.6300000      1.1718580E-26
  0.6400000      1.2359399E-26
  0.6500000      1.3032300E-26
  0.6600000      1.3738740E-26
  0.6700000      1.4480217E-26
  0.6800000      1.5258255E-26
  0.6900000      1.6074408E-26
  0.7000000      1.6930245E-26
  0.7100000      1.7827360E-26
  0.7200000      1.8767363E-26
  0.7300000      1.9751886E-26
  0.7400000      2.0782584E-26
  0.7500000      2.1861140E-26
  0.7600000      2.2989280E-26
  0.7700000      2.4168778E-26
  0.7800000      2.5401468E-26
  0.7900000      2.6689257E-26
  0.8000000      2.8034141E-26
  0.8100000      2.9438218E-26
  0.8200000      3.0903688E-26
  0.8300000      3.2432873E-26
  0.8400000      3.4028224E-26
  0.8500000      3.5692311E-26
  0.8600000      3.7427829E-26
  0.8700000      3.9237590E-26
  0.8800000      4.1124505E-26
  0.8900000      4.3091573E-26
  0.9000000      4.5141857E-26
  0.9100000      4.7278468E-26
  0.9200000      4.9504535E-26
  0.9300000      5.1823182E-26
  0.9400000      5.4237497E-26
  0.9500000      5.6750543E-26
  0.9600000      5.9365302E-26
  0.9700000      6.2084703E-26
  0.9800000      6.4911604E-26
  0.9900000      6.7848805E-26
   1.000000      7.0899065E-26
   1.010000      7.4065121E-26
   1.020000      7.7349735E-26
   1.030000      8.0755716E-26
   1.040000      8.4285961E-26
   1.050000      8.7943520E-26
   1.060000      9.1731624E-26
   1.070000      9.5653705E-26
   1.080000      9.9713448E-26
   1.090000      1.0391481E-25
   1.100000      1.0826200E-25
   1.110000      1.1275949E-25
   1.120000      1.1741199E-25
   1.130000      1.2222436E-25
   1.140000      1.2720159E-25
   1.150000      1.3234875E-25
   1.160000      1.3767085E-25
   1.170000      1.4317278E-25
   1.180000      1.4885924E-25
   1.190000      1.5473459E-25
   1.200000      1.6080287E-25
   1.210000      1.6706771E-25
   1.220000      1.7353224E-25
   1.230000      1.8019911E-25
   1.240000      1.8707057E-25
   1.250000      1.9414846E-25
   1.260000      2.0143428E-25
   1.270000      2.0892932E-25
   1.280000      2.1663481E-25
   1.290000      2.2455197E-25
   1.300000      2.3268229E-25
   1.310000      2.4102750E-25
   1.320000      2.4958985E-25
   1.330000      2.5837216E-25
   1.340000      2.6737787E-25
   1.350000      2.7661102E-25
   1.360000      2.8607634E-25
   1.370000      2.9577906E-25
   1.380000      3.0572487E-25
   1.390000      3.1591964E-25
   1.400000      3.2636919E-25
   1.410000      3.3707913E-25
   1.420000      3.4805453E-25
   1.430000      3.5929947E-25
   1.440000      3.7081701E-25
   1.450000      3.8260876E-25
   1.460000      3.9467470E-25
   1.470000      4.0701323E-25
   1.480000      4.1962080E-25
   1.490000      4.3249235E-25
   1.500000      4.4562107E-25
   1.510000      4.5899901E-25
   1.520000      4.7261712E-25
   1.530000      4.8646567E-25
   1.540000      5.0053491E-25
   1.550000      5.1481551E-25
   1.560000      5.2929880E-25
   1.570000      5.4397753E-25
   1.580000      5.5884608E-25
   1.590000      5.7390065E-25
   1.600000      5.8913952E-25
   1.610000      6.0456298E-25
   1.620000      6.2017311E-25
   1.630000      6.3597345E-25
   1.640000      6.5196849E-25
   1.650000      6.6816297E-25
   1.660000      6.8456102E-25
   1.670000      7.0116541E-25
   1.680000      7.1797663E-25
   1.690000      7.3499206E-25
   1.700000      7.5220500E-25
   1.710000      7.6960432E-25
   1.720000      7.8717393E-25
   1.730000      8.0489263E-25
   1.740000      8.2273430E-25
   1.750000      8.4066836E-25
   1.760000      8.5866030E-25
   1.770000      8.7667266E-25
   1.780000      8.9466668E-25
   1.790000      9.1260350E-25
   1.800000      9.3044566E-25
   1.810000      9.4815904E-25
   1.820000      9.6571366E-25
   1.830000      9.8308566E-25
   1.840000      1.0002577E-24
   1.850000      1.0172202E-24
   1.860000      1.0339707E-24
   1.870000      1.0505146E-24
   1.880000      1.0668631E-24
   1.890000      1.0830327E-24
   1.900000      1.0990431E-24
   1.910000      1.1149150E-24
   1.920000      1.1306678E-24
   1.930000      1.1463168E-24
   1.940000      1.1618704E-24
   1.950000      1.1773290E-24
   1.960000      1.1926819E-24
   1.970000      1.2079065E-24
   1.980000      1.2229679E-24
   1.990000      1.2378188E-24
   2.000000      1.2524009E-24
   2.010000      1.2666467E-24
   2.020000      1.2804829E-24
   2.030000      1.2938335E-24
   2.040000      1.3066245E-24
   2.050000      1.3187880E-24
   2.060000      1.3302676E-24
   2.070000      1.3410226E-24
   2.080000      1.3510319E-24
   2.090000      1.3602977E-24
   2.100000      1.3688477E-24
   2.110000      1.3767356E-24
   2.120000      1.3840416E-24
   2.130000      1.3908690E-24
   2.140000      1.3973421E-24
   2.150000      1.4036004E-24
   2.160000      1.4097931E-24
   2.170000      1.4160725E-24
   2.180000      1.4225854E-24
   2.190000      1.4294671E-24
   2.200000      1.4368340E-24
   2.210000      1.4447778E-24
   2.220000      1.4533606E-24
   2.230000      1.4626127E-24
   2.240000      1.4725335E-24
   2.250000      1.4830918E-24
   2.260000      1.4942319E-24
   2.270000      1.5058801E-24
   2.280000      1.5179550E-24
   2.290000      1.5303776E-24
   2.300000      1.5430843E-24
   2.310000      1.5560395E-24
   2.320000      1.5692486E-24
   2.330000      1.5827685E-24
   2.340000      1.5967183E-24
   2.350000      1.6112855E-24
   2.360000      1.6267287E-24
   2.370000      1.6433779E-24
   2.380000      1.6616286E-24
   2.390000      1.6819331E-24
   2.400000      1.7047868E-24
   2.410000      1.7307121E-24
   2.420000      1.7602384E-24
   2.430000      1.7938807E-24
   2.440000      1.8321186E-24
   2.450000      1.8753734E-24
   2.460000      1.9239915E-24
   2.470000      1.9782279E-24
   2.480000      2.0382367E-24
   2.490000      2.1040656E-24
   2.500000      2.1756577E-24
   2.510000      2.2528605E-24
   2.520000      2.3354416E-24
   2.530000      2.4231099E-24
   2.540000      2.5155425E-24
   2.550000      2.6124141E-24
   2.560000      2.7134309E-24
   2.570000      2.8183628E-24
   2.580000      2.9270717E-24
   2.590000      3.0395375E-24
   2.600000      3.1558785E-24
   2.610000      3.2763581E-24
   2.620000      3.4013860E-24
   2.630000      3.5315058E-24
   2.640000      3.6673721E-24
   2.650000      3.8097150E-24
   2.660000      3.9592976E-24
   2.670000      4.1168631E-24
   2.680000      4.2830745E-24
   2.690000      4.4584565E-24
   2.700000      4.6433343E-24
   2.710000      4.8377782E-24
   2.720000      5.0415576E-24
   2.730000      5.2541055E-24
   2.740000      5.4744975E-24
   2.750000      5.7014472E-24
   2.760000      5.9333191E-24
   2.770000      6.1681622E-24
   2.780000      6.4037567E-24
   2.790000      6.6376768E-24
   2.800000      6.8673710E-24
   2.810000      7.0902369E-24
   2.820000      7.3037113E-24
   2.830000      7.5053489E-24
   2.840000      7.6928927E-24
   2.850000      7.8643303E-24
   2.860000      8.0179278E-24
   2.870000      8.1522432E-24
   2.880000      8.2661058E-24
   2.890000      8.3585698E-24
   2.900000      8.4288415E-24
   2.910000      8.4761787E-24
   2.920000      8.4997656E-24
   2.930000      8.4985737E-24
   2.940000      8.4712097E-24
   2.950000      8.4157709E-24
   2.960000      8.3296998E-24
   2.970000      8.2096660E-24
   2.980000      8.0514694E-24
   2.990000      7.8499825E-24
   3.000000      7.5991318E-24
   3.010000      7.2919249E-24
   3.020000      6.9205213E-24
   3.030000      6.4763619E-24
   3.040000      5.9503202E-24
   3.050000      5.3329048E-24
   3.060000      4.6144738E-24
   3.070000      3.7854705E-24
   3.080000      2.8366527E-24
   3.090000      1.7593032E-24
   3.100000      5.4541128E-25
   3.110000     -8.1218787E-25
   3.120000     -2.3197370E-24
   3.130000     -3.9825398E-24
   3.140000     -5.8050160E-24
   3.150000     -7.7908163E-24
   3.160000     -9.9430316E-24
   3.170000     -1.2264439E-23
   3.180000     -1.4757783E-23
   3.190000     -1.7426116E-23
   3.200000     -2.0273130E-23
   3.210000     -2.3303469E-23
   3.220000     -2.6523009E-23
   3.230000     -2.9939089E-23
   3.240000     -3.3560639E-23
   3.250000     -3.7398220E-23
   3.260000     -4.1463981E-23
   3.270000     -4.5771448E-23
   3.280000     -5.0335236E-23
   3.290000     -5.5170635E-23
   3.300000     -6.0293112E-23
   3.310000     -6.5717762E-23
   3.320000     -7.1458656E-23
   3.330000     -7.7528240E-23
   3.340000     -8.3936719E-23
   3.350000     -9.0691539E-23
   3.360000     -9.7796917E-23
   3.370000     -1.0525355E-22
   3.380000     -1.1305841E-22
   3.390000     -1.2120477E-22
   3.400000     -1.2968232E-22
   3.410000     -1.3847755E-22
   3.420000     -1.4757422E-22
   3.430000     -1.5695394E-22
   3.440000     -1.6659690E-22
   3.450000     -1.7648262E-22
   3.460000     -1.8659066E-22
   3.470000     -1.9690128E-22
   3.480000     -2.0739606E-22
   3.490000     -2.1805819E-22
   3.500000     -2.2887273E-22
   3.510000     -2.3982646E-22
   3.520000     -2.5090760E-22
   3.530000     -2.6210518E-22
   3.540000     -2.7340821E-22
   3.550000     -2.8480443E-22
   3.560000     -2.9627922E-22
   3.570000     -3.0781406E-22
   3.580000     -3.1938509E-22
   3.590000     -3.3096168E-22
   3.600000     -3.4250508E-22
   3.610000     -3.5396732E-22
   3.620000     -3.6529033E-22
   3.630000     -3.7640550E-22
   3.640000     -3.8723339E-22
   3.650000     -3.9768412E-22
   3.660000     -4.0765805E-22
   3.670000     -4.1704685E-22
   3.680000     -4.2573498E-22
   3.690000     -4.3360117E-22
   3.700000     -4.4052068E-22
   3.710000     -4.4636668E-22
   3.720000     -4.5101261E-22
   3.730000     -4.5433339E-22
   3.740000     -4.5620712E-22
   3.750000     -4.5651570E-22
   3.760000     -4.5514538E-22
   3.770000     -4.5198665E-22
   3.780000     -4.4693315E-22
   3.790000     -4.3988076E-22
   3.800000     -4.3072527E-22
   3.810000     -4.1936020E-22
   3.820000     -4.0567406E-22
   3.830000     -3.8954739E-22
   3.840000     -3.7084992E-22
   3.850000     -3.4943794E-22
   3.860000     -3.2515196E-22
   3.870000     -2.9781488E-22
   3.880000     -2.6723111E-22
   3.890000     -2.3318637E-22
   3.900000     -1.9544868E-22
   3.910000     -1.5376982E-22
   3.920000     -1.0788828E-22
   3.930000     -5.7532806E-23
   3.940000     -2.4265740E-24
   3.950000      5.7707813E-23
   3.960000      1.2314324E-22
   3.970000      1.9414307E-22
   3.980000      2.7095620E-22
   3.990000      3.5381288E-22
   4.000000      4.4292089E-22
   4.010000      5.3846338E-22
   4.020000      6.4059772E-22
   4.030000      7.4945537E-22
   4.040000      8.6514338E-22
   4.050000      9.8774695E-22
   4.060000      1.1173337E-21
   4.070000      1.2539575E-21
   4.080000      1.3976648E-21
   4.090000      1.5484994E-21
   4.100000      1.7065075E-21
   4.110000      1.8717421E-21
   4.120000      2.0442678E-21
   4.130000      2.2241614E-21
   4.140000      2.4115128E-21
   4.150000      2.6064233E-21
   4.160000      2.8090016E-21
   4.170000      3.0193583E-21
   4.180000      3.2375974E-21
   4.190000      3.4638071E-21
   4.200000      3.6980483E-21
   4.210000      3.9403423E-21
   4.220000      4.1906610E-21
   4.230000      4.4489130E-21
   4.240000      4.7149319E-21
   4.250000      4.9884698E-21
   4.260000      5.2691886E-21
   4.270000      5.5566560E-21
   4.280000      5.8503423E-21
   4.290000      6.1496234E-21
   4.300000      6.4537843E-21
   4.310000      6.7620262E-21
   4.320000      7.0734759E-21
   4.330000      7.3871970E-21
   4.340000      7.7022018E-21
   4.350000      8.0174642E-21
   4.360000      8.3319302E-21
   4.370000      8.6445285E-21
   4.380000      8.9541768E-21
   4.390000      9.2597894E-21
   4.400000      9.5602700E-21
   4.410000      9.8545136E-21
   4.420000      1.0141400E-20
   4.430000      1.0419773E-20
   4.440000      1.0688431E-20
   4.450000      1.0946105E-20
   4.460000      1.1191437E-20
   4.470000      1.1422956E-20
   4.480000      1.1639060E-20
   4.490000      1.1837988E-20
   4.500000      1.2017809E-20
   4.510000      1.2176407E-20
   4.520000      1.2311469E-20
   4.530000      1.2420485E-20
   4.540000      1.2500757E-20
   4.550000      1.2549404E-20
   4.560000      1.2563382E-20
   4.570000      1.2539510E-20
   4.580000      1.2474498E-20
   4.590000      1.2364973E-20
   4.600000      1.2207520E-20
   4.610000      1.1998716E-20
   4.620000      1.1735151E-20
   4.630000      1.1413466E-20
   4.640000      1.1030369E-20
   4.650000      1.0582653E-20
   4.660000      1.0067199E-20
   4.670000      9.4809778E-21
   4.680000      8.8210330E-21
   4.690000      8.0844659E-21
   4.700000      7.2684078E-21
   4.710000      6.3699866E-21
   4.720000      5.3862980E-21
   4.730000      4.3143636E-21
   4.740000      3.1511003E-21
   4.750000      1.8932926E-21
   4.760000      5.3757415E-22
   4.770000     -9.1958452E-22
   4.780000     -2.4818767E-21
   4.790000     -4.1531418E-21
   4.800000     -5.9373348E-21
   4.810000     -7.8384806E-21
   4.820000     -9.8606214E-21
   4.830000     -1.2007749E-20
   4.840000     -1.4283726E-20
   4.850000     -1.6692196E-20
   4.860000     -1.9236518E-20
   4.870000     -2.1919667E-20
   4.880000     -2.4744166E-20
   4.890000     -2.7712024E-20
   4.900000     -3.0824676E-20
   4.910000     -3.4082950E-20
   4.920000     -3.7487047E-20
   4.930000     -4.1036543E-20
   4.940000     -4.4730409E-20
   4.950000     -4.8567053E-20
   4.960000     -5.2544341E-20
   4.970000     -5.6659681E-20
   4.980000     -6.0910071E-20
   4.990000     -6.5292170E-20
   5.000000     -6.9802353E-20
   5.010000     -7.4436762E-20
   5.020000     -7.9191325E-20
   5.030000     -8.4061764E-20
   5.040000     -8.9043557E-20
   5.050000     -9.4131932E-20
   5.060000     -9.9321780E-20
   5.070000     -1.0460754E-19
   5.080000     -1.0998310E-19
   5.090000     -1.1544165E-19
   5.100000     -1.2097551E-19
   5.110000     -1.2657603E-19
   5.120000     -1.3223331E-19
   5.130000     -1.3793619E-19
   5.140000     -1.4367204E-19
   5.150000     -1.4942668E-19
   5.160000     -1.5518428E-19
   5.170000     -1.6092738E-19
   5.180000     -1.6663687E-19
   5.190000     -1.7229196E-19
   5.200000     -1.7787043E-19
   5.210000     -1.8334859E-19
   5.220000     -1.8870144E-19
   5.230000     -1.9390294E-19
   5.240000     -1.9892608E-19
   5.250000     -2.0374308E-19
   5.260000     -2.0832555E-19
   5.270000     -2.1264461E-19
   5.280000     -2.1667104E-19
   5.290000     -2.2037524E-19
   5.300000     -2.2372731E-19
   5.310000     -2.2669696E-19
   5.320000     -2.2925355E-19
   5.330000     -2.3136573E-19
   5.340000     -2.3300148E-19
   5.350000     -2.3412781E-19
   5.360000     -2.3471051E-19
   5.370000     -2.3471400E-19
   5.380000     -2.3410106E-19
   5.390000     -2.3283268E-19
   5.400000     -2.3086794E-19
   5.410000     -2.2816397E-19
   5.420000     -2.2467580E-19
   5.430000     -2.2035668E-19
   5.440000     -2.1515799E-19
   5.450000     -2.0902969E-19
   5.460000     -2.0192054E-19
   5.470000     -1.9377841E-19
   5.480000     -1.8455084E-19
   5.490000     -1.7418546E-19
   5.500000     -1.6263039E-19
   5.510000     -1.4983482E-19
   5.520000     -1.3574940E-19
   5.530000     -1.2032659E-19
   5.540000     -1.0352107E-19
   5.550000     -8.5289798E-20
   5.560000     -6.5592295E-20
   5.570000     -4.4390622E-20
   5.580000     -2.1649368E-20
   5.590000      2.6645766E-21
   5.600000      2.8582176E-20
   5.610000      5.6132515E-20
   5.620000      8.5343022E-20
   5.630000      1.1623987E-19
   5.640000      1.4884817E-19
   5.650000      1.8319203E-19
   5.660000      2.1929476E-19
   5.670000      2.5717867E-19
   5.680000      2.9686504E-19
   5.690000      3.3837374E-19
   5.700000      3.8172273E-19
   5.710000      4.2692743E-19
   5.720000      4.7399988E-19
   5.730000      5.2294808E-19
   5.740000      5.7377471E-19
   5.750000      6.2647651E-19
   5.760000      6.8104313E-19
   5.770000      7.3745628E-19
   5.780000      7.9568876E-19
   5.790000      8.5570371E-19
   5.800000      9.1745414E-19
   5.810000      9.8088256E-19
   5.820000      1.0459210E-18
   5.830000      1.1124906E-18
   5.840000      1.1805021E-18
   5.850000      1.2498563E-18
   5.860000      1.3204442E-18
   5.870000      1.3921482E-18
   5.880000      1.4648419E-18
   5.890000      1.5383922E-18
   5.900000      1.6126581E-18
   5.910000      1.6874923E-18
   5.920000      1.7627411E-18
   5.930000      1.8382447E-18
   5.940000      1.9138368E-18
   5.950000      1.9893437E-18
   5.960000      2.0645847E-18
   5.970000      2.1393705E-18
   5.980000      2.2135020E-18
   5.990000      2.2867691E-18
   6.000000      2.3589495E-18
   6.010000      2.4298075E-18
   6.020000      2.4990915E-18
   6.030000      2.5665349E-18
   6.040000      2.6318532E-18
   6.050000      2.6947447E-18
   6.060000      2.7548895E-18
   6.070000      2.8119496E-18
   6.080000      2.8655702E-18
   6.090000      2.9153795E-18
   6.100000      2.9609906E-18
   6.110000      3.0020041E-18
   6.120000      3.0380075E-18
   6.130000      3.0685793E-18
   6.140000      3.0932903E-18
   6.150000      3.1117064E-18
   6.160000      3.1233902E-18
   6.170000      3.1279020E-18
   6.180000      3.1248030E-18
   6.190000      3.1136540E-18
   6.200000      3.0940182E-18
   6.210000      3.0654598E-18
   6.220000      3.0275449E-18
   6.230000      2.9798396E-18
   6.240000      2.9219107E-18
   6.250000      2.8533229E-18
   6.260000      2.7736381E-18
   6.270000      2.6824148E-18
   6.280000      2.5792056E-18
   6.290000      2.4635575E-18
   6.300000      2.3350124E-18
   6.310000      2.1931064E-18
   6.320000      2.0373705E-18
   6.330000      1.8673329E-18
   6.340000      1.6825219E-18
   6.350000      1.4824690E-18
   6.360000      1.2667120E-18
   6.370000      1.0348011E-18
   6.380000      7.8630186E-19
   6.390000      5.2080155E-19
   6.400000      2.3791392E-19
   6.410000     -6.2716188E-20
   6.420000     -3.8140729E-19
   6.430000     -7.1843826E-19
   6.440000     -1.0740434E-18
   6.450000     -1.4484107E-18
   6.460000     -1.8416796E-18
   6.470000     -2.2539406E-18
   6.480000     -2.6852351E-18
   6.490000     -3.1355559E-18
   6.500000     -3.6048477E-18
   6.510000     -4.0930096E-18
   6.520000     -4.5998964E-18
   6.530000     -5.1253203E-18
   6.540000     -5.6690525E-18
   6.550000     -6.2308240E-18
   6.560000     -6.8103252E-18
   6.570000     -7.4072047E-18
   6.580000     -8.0210687E-18
   6.590000     -8.6514738E-18
   6.600000     -9.2979286E-18
   6.610000     -9.9598808E-18
   6.620000     -1.0636717E-17
   6.630000     -1.1327750E-17
   6.640000     -1.2032215E-17
   6.650000     -1.2749259E-17
   6.660000     -1.3477936E-17
   6.670000     -1.4217197E-17
   6.680000     -1.4965883E-17
   6.690000     -1.5722726E-17
   6.700000     -1.6486337E-17
   6.710000     -1.7255204E-17
   6.720000     -1.8027707E-17
   6.730000     -1.8802100E-17
   6.740000     -1.9576528E-17
   6.750000     -2.0349020E-17
   6.760000     -2.1117509E-17
   6.770000     -2.1879824E-17
   6.780000     -2.2633710E-17
   6.790000     -2.3376829E-17
   6.800000     -2.4106764E-17
   6.810000     -2.4821035E-17
   6.820000     -2.5517088E-17
   6.830000     -2.6192308E-17
   6.840000     -2.6844024E-17
   6.850000     -2.7469497E-17
   6.860000     -2.8065924E-17
   6.870000     -2.8630432E-17
   6.880000     -2.9160072E-17
   6.890000     -2.9651818E-17
   6.900000     -3.0102548E-17
   6.910000     -3.0509048E-17
   6.920000     -3.0868005E-17
   6.930000     -3.1176001E-17
   6.940000     -3.1429505E-17
   6.950000     -3.1624878E-17
   6.960000     -3.1758372E-17
   6.970000     -3.1826148E-17
   6.980000     -3.1824272E-17
   6.990000     -3.1748737E-17
   7.000000     -3.1595467E-17
   7.010000     -3.1360349E-17
   7.020000     -3.1039248E-17
   7.030000     -3.0628020E-17
   7.040000     -3.0122543E-17
   7.050000     -2.9518741E-17
   7.060000     -2.8812600E-17