  -2.600000      0.0000000E+00
  -2.590000      0.0000000E+00
  -2.580000      0.0000000E+00
  -2.570000      0.0000000E+00
  -2.560000     -1.0844979E-26
  -2.550000     -1.1282103E-25
  -2.540000     -6.2204951E-25
  -2.530000     -2.4208327E-24
  -2.520000     -7.4569089E-24
  -2.510000     -1.9311973E-23
  -2.500000     -4.3597436E-23
  -2.490000     -8.7794697E-23
  -2.480000     -1.6007629E-22
  -2.470000     -2.6668764E-22
  -2.460000     -4.0768935E-22
  -2.450000     -5.7127873E-22
  -2.440000     -7.2749868E-22
  -2.430000     -8.2281716E-22
  -2.420000     -7.7767872E-22
  -2.410000     -4.8950740E-22
  -2.400000      1.5641345E-22
  -2.390000      1.2664154E-21
  -2.380000      2.9078500E-21
  -2.370000      5.0700166E-21
  -2.360000      7.6207342E-21
  -2.350000      1.0265376E-20
  -2.340000      1.2517647E-20
  -2.330000      1.3693002E-20
  -2.320000      1.2935894E-20
  -2.310000      9.2904136E-21
  -2.300000      1.8201609E-21
  -2.290000     -1.0222846E-20
  -2.280000     -2.7188325E-20
  -2.270000     -4.8794289E-20
  -2.260000     -7.3896826E-20
  -2.250000     -1.0029841E-19
  -2.240000     -1.2463590E-19
  -2.230000     -1.4239170E-19
  -2.220000     -1.4806766E-19
  -2.210000     -1.3555265E-19
  -2.200000     -9.8698157E-20
  -2.190000     -3.2094879E-20
  -2.180000      6.7983797E-20
  -2.170000      2.0253466E-19
  -2.160000      3.6876655E-19
  -2.150000      5.5915026E-19
  -2.140000      7.6071355E-19
  -2.130000      9.5472907E-19
  -2.120000      1.1169347E-18
  -2.110000      1.2184100E-18
  -2.100000      1.2271884E-18
  -2.090000      1.1106389E-18
  -2.080000      8.3857285E-19
  -2.070000      3.8696029E-19
  -2.060000     -2.5795134E-19
  -2.050000     -1.0954048E-18
  -2.040000     -2.1061526E-18
  -2.030000     -3.2491518E-18
  -2.020000     -4.4593952E-18
  -2.010000     -5.6473316E-18
  -2.000000     -6.7003036E-18
  -1.990000     -7.4863344E-18
  -1.980000     -7.8604823E-18
  -1.970000     -7.6737984E-18
  -1.960000     -6.7847463E-18
  -1.950000     -5.0726574E-18
  -1.940000     -2.4526176E-18
  -1.930000      1.1091263E-18
  -1.920000      5.5803312E-18
  -1.910000      1.0849778E-17
  -1.900000      1.6717542E-17
  -1.890000      2.2889931E-17
  -1.880000      2.8980435E-17
  -1.870000      3.4517830E-17
  -1.860000      3.8962248E-17
  -1.850000      4.1729657E-17
  -1.840000      4.2224536E-17
  -1.830000      3.9880015E-17
  -1.820000      3.4203968E-17
  -1.810000      2.4828946E-17
  -1.800000      1.1563063E-17
  -1.790000     -5.5614971E-18
  -1.780000     -2.6246244E-17
  -1.770000     -4.9894429E-17
  -1.760000     -7.5593436E-17
  -1.750000     -1.0211522E-16
  -1.740000     -1.2793797E-16
  -1.730000     -1.5129121E-16
  -1.720000     -1.7022535E-16
  -1.710000     -1.8270517E-16
  -1.700000     -1.8672542E-16
  -1.690000     -1.8044459E-16
  -1.680000     -1.6233134E-16
  -1.670000     -1.3131664E-16
  -1.660000     -8.6943220E-17
  -1.650000     -2.9502756E-17
  -1.640000      3.9848834E-17
  -1.630000      1.1900790E-16
  -1.620000      2.0488050E-16
  -1.610000      2.9338823E-16
  -1.600000      3.7952841E-16
  -1.590000      4.5749128E-16
  -1.580000      5.2083442E-16
  -1.570000      5.6271035E-16
  -1.560000      5.7614064E-16
  -1.550000      5.5432510E-16
  -1.540000      4.9097211E-16
  -1.530000      3.8063360E-16
  -1.520000      2.1902513E-16
  -1.510000      3.3114160E-18
  -1.500000     -2.6766220E-16
  -1.490000     -5.9321105E-16
  -1.480000     -9.7074042E-16
  -1.470000     -1.3957755E-15
  -1.460000     -1.8620967E-15
  -1.450000     -2.3619840E-15
  -1.440000     -2.8865606E-15
  -1.430000     -3.4262256E-15
  -1.420000     -3.9711568E-15
  -1.410000     -4.5118540E-15
  -1.400000     -5.0396961E-15
  -1.390000     -5.5474775E-15
  -1.380000     -6.0298836E-15
  -1.370000     -6.4838733E-15
  -1.360000     -6.9089386E-15
  -1.350000     -7.3072042E-15
  -1.340000     -7.6833571E-15
  -1.330000     -8.0443930E-15
  -1.320000     -8.3991652E-15
  -1.310000     -8.7577769E-15
  -1.300000     -9.1308085E-15
  -1.290000     -9.5284413E-15
  -1.280000     -9.9595083E-15
  -1.270000     -1.0430538E-14
  -1.260000     -1.0944837E-14
  -1.250000     -1.1501696E-14
  -1.240000     -1.2095763E-14
  -1.230000     -1.2716650E-14
  -1.220000     -1.3348817E-14
  -1.210000     -1.3971776E-14
  -1.200000     -1.4560613E-14
  -1.190000     -1.5086853E-14
  -1.180000     -1.5519631E-14
  -1.170000     -1.5827124E-14
  -1.160000     -1.5978194E-14
  -1.150000     -1.5944155E-14
  -1.140000     -1.5700567E-14
  -1.130000     -1.5228958E-14
  -1.120000     -1.4518363E-14
  -1.110000     -1.3566591E-14
  -1.100000     -1.2381076E-14
  -1.090000     -1.0979300E-14
  -1.080000     -9.3886750E-15
  -1.070000     -7.6458742E-15
  -1.060000     -5.7956154E-15
  -1.050000     -3.8889104E-15
  -1.040000     -1.9808729E-15
  -1.030000     -1.2816563E-16
  -1.020000      1.6137800E-15
  -1.010000      3.1936242E-15
  -1.000000      4.5668942E-15
 -0.9900000      5.6984989E-15
 -0.9800000      6.5648170E-15
 -0.9700000      7.1552244E-15
 -0.9600000      7.4729033E-15
 -0.9500000      7.5348731E-15
 -0.9400000      7.3711729E-15
 -0.9300000      7.0231978E-15
 -0.9200000      6.5412551E-15
 -0.9100000      5.9814337E-15
 -0.9000000      5.4019370E-15
 -0.8900000      4.8590799E-15
 -0.8800000      4.4031890E-15
 -0.8700000      4.0746397E-15
 -0.8600000      3.9003055E-15
 -0.8500000      3.8906730E-15
 -0.8400000      4.0378340E-15
 -0.8300000      4.3145656E-15
 -0.8200000      4.6746296E-15
 -0.8100000      5.0543362E-15
 -0.8000000      5.3753990E-15
 -0.7900000      5.5489870E-15
 -0.7800000      5.4808105E-15
 -0.7700000      5.0770066E-15
 -0.7600000      4.2505341E-15
 -0.7500000      2.9277164E-15
 -0.7400000      1.0545558E-15
 -0.7300000     -1.3975330E-15
 -0.7200000     -4.4270101E-15
 -0.7100000     -7.9988269E-15
 -0.7000000     -1.2042605E-14
 -0.6900000     -1.6452661E-14
 -0.6800000     -2.1089907E-14
 -0.6700000     -2.5785662E-14
 -0.6600000     -3.0347246E-14
 -0.6500000     -3.4565094E-14
 -0.6400000     -3.8221054E-14
 -0.6300000     -4.1097476E-14
 -0.6200000     -4.2986529E-14
 -0.6100000     -4.3699226E-14
 -0.6000000     -4.3073590E-14
 -0.5900000     -4.0981456E-14
 -0.5800000     -3.7333343E-14
 -0.5700000     -3.2081095E-14
 -0.5600000     -2.5217975E-14
 -0.5500000     -1.6776001E-14
 -0.5400000     -6.8206409E-15
 -0.5300000      4.5569771E-15
 -0.5200000      1.7250039E-14
 -0.5100000      3.1147665E-14
 -0.5000000      4.6147558E-14
 -0.4900000      6.2169101E-14
 -0.4800000      7.9165874E-14
 -0.4700000      9.7137074E-14
 -0.4600000      1.1613682E-13
 -0.4500000      1.3628096E-13
 -0.4400000      1.5775047E-13
 -0.4300000      1.8079146E-13
 -0.4200000      2.0571144E-13
 -0.4100000      2.3287164E-13
 -0.4000000      2.6267603E-13
 -0.3900000      2.9555728E-13
 -0.3800000      3.3196040E-13
 -0.3700000      3.7232508E-13
 -0.3600000      4.1706718E-13
 -0.3500000      4.6656136E-13
 -0.3400000      5.2112503E-13
 -0.3300000      5.8100502E-13
 -0.3200000      6.4636827E-13
 -0.3100000      7.1729601E-13
 -0.3000000      7.9378382E-13
 -0.2900000      8.7574614E-13
 -0.2800000      9.6302599E-13
 -0.2700000      1.0554092E-12
 -0.2600000      1.1526432E-12
 -0.2500000      1.2544578E-12
 -0.2400000      1.3605891E-12
 -0.2300000      1.4708025E-12
 -0.2200000      1.5849168E-12
 -0.2100000      1.7028229E-12
 -0.2000000      1.8245019E-12
 -0.1900000      1.9500365E-12
 -0.1800000      2.0796162E-12
 -0.1700000      2.2135366E-12
 -0.1600000      2.3521929E-12
 -0.1500000      2.4960633E-12
 -0.1400000      2.6456899E-12
 -0.1300000      2.8016508E-12
 -0.1200000      2.9645318E-12
 -0.1100000      3.1348914E-12
 -0.1000000      3.3132286E-12
 -9.0000004E-02  3.4999497E-12
 -7.9999998E-02  3.6953392E-12
 -7.0000000E-02  3.8995348E-12
 -5.9999999E-02  4.1125111E-12
 -5.0000001E-02  4.3340665E-12
 -3.9999999E-02  4.5638233E-12
 -2.9999999E-02  4.8012345E-12
 -2.0000000E-02  5.0455985E-12
 -9.9999998E-03  5.2960856E-12
 -3.4694470E-17  5.5517665E-12
  9.9999998E-03  5.8116485E-12
  2.0000000E-02  6.0747158E-12
  2.9999999E-02  6.3399676E-12
  3.9999999E-02  6.6064576E-12
  5.0000001E-02  6.8733253E-12
  5.9999999E-02  7.1398269E-12
  7.0000000E-02  7.4053498E-12
  7.9999998E-02  7.6694250E-12
  9.0000004E-02  7.9317213E-12
  0.1000000      8.1920356E-12
  0.1100000      8.4502613E-12
  0.1200000      8.7063586E-12
  0.1300000      8.9603073E-12
  0.1400000      9.2120539E-12
  0.1500000      9.4614620E-12
  0.1600000      9.7082533E-12
  0.1700000      9.9519551E-12
  0.1800000      1.0191855E-11
  0.1900000      1.0426958E-11
  0.2000000      1.0655963E-11
  0.2100000      1.0877246E-11
  0.2200000      1.1088860E-11
  0.2300000      1.1288550E-11
  0.2400000      1.1473780E-11
  0.2500000      1.1641778E-11
  0.2600000      1.1789587E-11
  0.2700000      1.1914125E-11
  0.2800000      1.2012256E-11
  0.2900000      1.2080850E-11
  0.3000000      1.2116857E-11
  0.3100000      1.2117354E-11
  0.3200000      1.2079601E-11
  0.3300000      1.2001070E-11
  0.3400000      1.1879464E-11
  0.3500000      1.1712718E-11
  0.3600000      1.1498981E-11
  0.3700000      1.1236582E-11
  0.3800000      1.0923976E-11
  0.3900000      1.0559687E-11
  0.4000000      1.0142233E-11
  0.4100000      9.6700495E-12
  0.4200000      9.1414107E-12
  0.4300000      8.5543647E-12
  0.4400000      7.9066588E-12
  0.4500000      7.1957019E-12
  0.4600000      6.4185311E-12
  0.4700000      5.5718026E-12
  0.4800000      4.6518041E-12
  0.4900000      3.6544882E-12
  0.5000000      2.5755366E-12
  0.5100000      1.4104403E-12
  0.5200000      1.5458793E-13
  0.5300000     -1.1966230E-12
  0.5400000     -2.6476714E-12
  0.5500000     -4.2028004E-12
  0.5600000     -5.8659093E-12
  0.5700000     -7.6404447E-12
  0.5800000     -9.5293209E-12
  0.5900000     -1.1534866E-11
  0.6000000     -1.3658776E-11
  0.6100000     -1.5902104E-11
  0.6200000     -1.8265271E-11
  0.6300000     -2.0748112E-11
  0.6400000     -2.3349930E-11
  0.6500000     -2.6069579E-11
  0.6600000     -2.8905560E-11
  0.6700000     -3.1856111E-11
  0.6800000     -3.4919314E-11
  0.6900000     -3.8093174E-11
  0.7000000     -4.1375698E-11
  0.7100000     -4.4764952E-11
  0.7200000     -4.8259088E-11
  0.7300000     -5.1856321E-11
  0.7400000     -5.5554925E-11
  0.7500000     -5.9353134E-11
  0.7600000     -6.3249066E-11
  0.7700000     -6.7240588E-11
  0.7800000     -7.1325161E-11
  0.7900000     -7.5499697E-11
  0.8000000     -7.9760365E-11
  0.8100000     -8.4102468E-11
  0.8200000     -8.8520240E-11
  0.8300000     -9.3006741E-11
  0.8400000     -9.7553722E-11
  0.8500000     -1.0215159E-10
  0.8600000     -1.0678932E-10
  0.8700000     -1.1145448E-10
  0.8800000     -1.1613325E-10
  0.8900000     -1.2081054E-10
  0.9000000     -1.2547004E-10
  0.9100000     -1.3009438E-10
  0.9200000     -1.3466531E-10
  0.9300000     -1.3916381E-10
  0.9400000     -1.4357028E-10
  0.9500000     -1.4786469E-10
  0.9600000     -1.5202668E-10
  0.9700000     -1.5603568E-10
  0.9800000     -1.5987102E-10
  0.9900000     -1.6351190E-10
   1.000000     -1.6693735E-10
   1.010000     -1.7012627E-10
   1.020000     -1.7305728E-10
   1.030000     -1.7570859E-10
   1.040000     -1.7805789E-10
   1.050000     -1.8008214E-10
   1.060000     -1.8175751E-10
   1.070000     -1.8305912E-10
   1.080000     -1.8396101E-10
   1.090000     -1.8443592E-10
   1.100000     -1.8445535E-10
   1.110000     -1.8398952E-10
   1.120000     -1.8300743E-10
   1.130000     -1.8147689E-10
   1.140000     -1.7936483E-10
   1.150000     -1.7663736E-10
   1.160000     -1.7326010E-10
   1.170000     -1.6919847E-10
   1.180000     -1.6441798E-10
   1.190000     -1.5888456E-10
   1.200000     -1.5256489E-10
   1.210000     -1.4542667E-10
   1.220000     -1.3743896E-10
   1.230000     -1.2857233E-10
   1.240000     -1.1879912E-10
   1.250000     -1.0809350E-10
   1.260000     -9.6431599E-11
   1.270000     -8.3791536E-11
   1.280000     -7.0153425E-11
   1.290000     -5.5499261E-11
   1.300000     -3.9812868E-11
   1.310000     -2.3079823E-11
   1.320000     -5.2873647E-12
   1.330000      1.3575665E-11
   1.340000      3.3518886E-11
   1.350000      5.4550385E-11
   1.360000      7.6676623E-11
   1.370000      9.9902323E-11
   1.380000      1.2423031E-10
   1.390000      1.4966119E-10
   1.400000      1.7619312E-10
   1.410000      2.0382139E-10
   1.420000      2.3253800E-10
   1.430000      2.6233130E-10
   1.440000      2.9318542E-10
   1.450000      3.2507982E-10
   1.460000      3.5798897E-10
   1.470000      3.9188192E-10
   1.480000      4.2672196E-10
   1.490000      4.6246623E-10
   1.500000      4.9906579E-10
   1.510000      5.3646526E-10
   1.520000      5.7460287E-10
   1.530000      6.1341060E-10
   1.540000      6.5281425E-10
   1.550000      6.9273348E-10
   1.560000      7.3308198E-10
   1.570000      7.7376799E-10
   1.580000      8.1469415E-10
   1.590000      8.5575791E-10
   1.600000      8.9685165E-10
   1.610000      9.3786279E-10
   1.620000      9.7867392E-10
   1.630000      1.0191629E-09
   1.640000      1.0592026E-09
   1.650000      1.0986608E-09
   1.660000      1.1374002E-09
   1.670000      1.1752781E-09
   1.680000      1.2121461E-09
   1.690000      1.2478497E-09
   1.700000      1.2822285E-09
   1.710000      1.3151159E-09
   1.720000      1.3463388E-09
   1.730000      1.3757181E-09
   1.740000      1.4030676E-09
   1.750000      1.4281955E-09
   1.760000      1.4509036E-09
   1.770000      1.4709887E-09
   1.780000      1.4882421E-09
   1.790000      1.5024512E-09
   1.800000      1.5133993E-09
   1.810000      1.5208669E-09
   1.820000      1.5246324E-09
   1.830000      1.5244732E-09
   1.840000      1.5201658E-09
   1.850000      1.5114872E-09
   1.860000      1.4982152E-09
   1.870000      1.4801297E-09
   1.880000      1.4570126E-09
   1.890000      1.4286489E-09
   1.900000      1.3948266E-09
   1.910000      1.3553378E-09
   1.920000      1.3099790E-09
   1.930000      1.2585507E-09
   1.940000      1.2008583E-09
   1.950000      1.1367123E-09
   1.960000      1.0659283E-09
   1.970000      9.8832853E-10
   1.980000      9.0374075E-10
   1.990000      8.1200030E-10
   2.000000      7.1295014E-10
   2.010000      6.0644190E-10
   2.020000      4.9233695E-10
   2.030000      3.7050735E-10
   2.040000      2.4083738E-10
   2.050000      1.0322444E-10
   2.060000     -4.2419478E-11
   2.070000     -1.9616597E-10
   2.080000     -3.5806952E-10
   2.090000     -5.2816623E-10
   2.100000     -7.0647199E-10
   2.110000     -8.9298180E-10
   2.120000     -1.0876683E-09
   2.130000     -1.2904811E-09
   2.140000     -1.5013463E-09
   2.150000     -1.7201652E-09
   2.160000     -1.9468149E-09
   2.170000     -2.1811468E-09
   2.180000     -2.4229869E-09
   2.190000     -2.6721354E-09
   2.200000     -2.9283671E-09
   2.210000     -3.1914311E-09
   2.220000     -3.4610499E-09
   2.230000     -3.7369188E-09
   2.240000     -4.0187080E-09
   2.250000     -4.3060586E-09
   2.260000     -4.5985868E-09
   2.270000     -4.8958784E-09
   2.280000     -5.1974909E-09
   2.290000     -5.5029514E-09
   2.300000     -5.8117586E-09
   2.310000     -6.1233787E-09
   2.320000     -6.4372450E-09
   2.330000     -6.7527606E-09
   2.340000     -7.0692949E-09
   2.350000     -7.3861837E-09
   2.360000     -7.7027291E-09
   2.370000     -8.0182021E-09
   2.380000     -8.3318374E-09
   2.390000     -8.6428393E-09
   2.400000     -8.9503818E-09
   2.410000     -9.2536085E-09
   2.420000     -9.5516324E-09
   2.430000     -9.8435411E-09
   2.440000     -1.0128396E-08
   2.450000     -1.0405235E-08
   2.460000     -1.0673072E-08
   2.470000     -1.0930903E-08
   2.480000     -1.1177704E-08
   2.490000     -1.1412436E-08
   2.500000     -1.1634045E-08
   2.510000     -1.1841459E-08
   2.520000     -1.2033600E-08
   2.530000     -1.2209374E-08
   2.540000     -1.2367682E-08
   2.550000     -1.2507413E-08
   2.560000     -1.2627452E-08
   2.570000     -1.2726677E-08
   2.580000     -1.2803961E-08
   2.590000     -1.2858175E-08
   2.600000     -1.2888189E-08
   2.610000     -1.2892875E-08
   2.620000     -1.2871109E-08
   2.630000     -1.2821771E-08
   2.640000     -1.2743754E-08
   2.650000     -1.2635962E-08
   2.660000     -1.2497312E-08
   2.670000     -1.2326748E-08
   2.680000     -1.2123235E-08
   2.690000     -1.1885764E-08
   2.700000     -1.1613365E-08
   2.710000     -1.1305099E-08
   2.720000     -1.0960071E-08
   2.730000     -1.0577432E-08
   2.740000     -1.0156380E-08
   2.750000     -9.6961674E-09
   2.760000     -9.1961034E-09
   2.770000     -8.6555527E-09
   2.780000     -8.0739415E-09
   2.790000     -7.4507627E-09
   2.800000     -6.7855725E-09
   2.810000     -6.0779981E-09
   2.820000     -5.3277343E-09
   2.830000     -4.5345470E-09
   2.840000     -3.6982764E-09
   2.850000     -2.8188420E-09
   2.860000     -1.8962414E-09
   2.870000     -9.3054836E-10
   2.880000      7.8076483E-11
   2.890000      1.1293849E-09
   2.900000      2.2230391E-09
   2.910000      3.3586065E-09
   2.920000      4.5355595E-09
   2.930000      5.7532676E-09
   2.940000      7.0109971E-09
   2.950000      8.3079073E-09
   2.960000      9.6430401E-09
   2.970000      1.1015323E-08
   2.980000      1.2423569E-08
   2.990000      1.3866470E-08
   3.000000      1.5342595E-08
   3.010000      1.6850393E-08
   3.020000      1.8388185E-08
   3.030000      1.9954177E-08
   3.040000      2.1546439E-08
   3.050000      2.3162931E-08
   3.060000      2.4801496E-08
   3.070000      2.6459849E-08
   3.080000      2.8135595E-08
   3.090000      2.9826232E-08
   3.100000      3.1529144E-08
   3.110000      3.3241619E-08
   3.120000      3.4960834E-08
   3.130000      3.6683854E-08
   3.140000      3.8407663E-08
   3.150000      4.0129134E-08
   3.160000      4.1845052E-08
   3.170000      4.3552099E-08
   3.180000      4.5246871E-08
   3.190000      4.6925862E-08
   3.200000      4.8585488E-08
   3.210000      5.0222067E-08
   3.220000      5.1831829E-08
   3.230000      5.3410933E-08
   3.240000      5.4955446E-08
   3.250000      5.6461364E-08
   3.260000      5.7924613E-08
   3.270000      5.9341048E-08
   3.280000      6.0706469E-08
   3.290000      6.2016625E-08
   3.300000      6.3267215E-08
   3.310000      6.4453936E-08
   3.320000      6.5572429E-08
   3.330000      6.6618327E-08
   3.340000      6.7587280E-08
   3.350000      6.8474932E-08
   3.360000      6.9276943E-08
   3.370000      6.9989014E-08
   3.380000      7.0606866E-08
   3.390000      7.1126280E-08
   3.400000      7.1543099E-08
   3.410000      7.1853208E-08
   3.420000      7.2052579E-08
   3.430000      7.2137261E-08
   3.440000      7.2103376E-08
   3.450000      7.1947149E-08
   3.460000      7.1664886E-08
   3.470000      7.1253005E-08
   3.480000      7.0708040E-08
   3.490000      7.0026616E-08
   3.500000      6.9205491E-08
   3.510000      6.8241569E-08
   3.520000      6.7131879E-08
   3.530000      6.5873600E-08
   3.540000      6.4464082E-08
   3.550000      6.2900831E-08
   3.560000      6.1181566E-08
   3.570000      5.9304188E-08
   3.580000      5.7266806E-08
   3.590000      5.5067758E-08
   3.600000      5.2705616E-08
   3.610000      5.0179203E-08
   3.620000      4.7487607E-08
   3.630000      4.4630188E-08
   3.640000      4.1606569E-08
   3.650000      3.8416676E-08
   3.660000      3.5060729E-08
   3.670000      3.1539244E-08
   3.680000      2.7853039E-08
   3.690000      2.4003240E-08
   3.700000      1.9991276E-08
   3.710000      1.5818891E-08
   3.720000      1.1488137E-08
   3.730000      7.0013759E-09
   3.740000      2.3612736E-09
   3.750000     -2.4291895E-09
   3.760000     -7.3667232E-09
   3.770000     -1.2447739E-08
   3.780000     -1.7668317E-08
   3.790000     -2.3024221E-08
   3.800000     -2.8510918E-08
   3.810000     -3.4123548E-08
   3.820000     -3.9856928E-08
   3.830000     -4.5705544E-08
   3.840000     -5.1663537E-08
   3.850000     -5.7724712E-08
   3.860000     -6.3882538E-08
   3.870000     -7.0130149E-08
   3.880000     -7.6460317E-08
   3.890000     -8.2865490E-08
   3.900000     -8.9337775E-08
   3.910000     -9.5868927E-08
   3.920000     -1.0245040E-07
   3.930000     -1.0907331E-07
   3.940000     -1.1572848E-07
   3.950000     -1.2240643E-07
   3.960000     -1.2909743E-07
   3.970000     -1.3579144E-07
   3.980000     -1.4247823E-07
   3.990000     -1.4914728E-07
   4.000000     -1.5578793E-07
   4.010000     -1.6238928E-07
   4.020000     -1.6894028E-07
   4.030000     -1.7542966E-07
   4.040000     -1.8184608E-07
   4.050000     -1.8817801E-07
   4.060000     -1.9441381E-07
   4.070000     -2.0054171E-07
   4.080000     -2.0654987E-07
   4.090000     -2.1242634E-07
   4.100000     -2.1815910E-07
   4.110000     -2.2373602E-07
   4.120000     -2.2914494E-07
   4.130000     -2.3437366E-07
   4.140000     -2.3940990E-07
   4.150000     -2.4424145E-07
   4.160000     -2.4885603E-07
   4.170000     -2.5324130E-07
   4.180000     -2.5738510E-07
   4.190000     -2.6127526E-07
   4.200000     -2.6489971E-07
   4.210000     -2.6824648E-07
   4.220000     -2.7130372E-07
   4.230000     -2.7405980E-07
   4.240000     -2.7650327E-07
   4.250000     -2.7862285E-07
   4.260000     -2.8040759E-07
   4.270000     -2.8184681E-07
   4.280000     -2.8293010E-07
   4.290000     -2.8364741E-07
   4.300000     -2.8398907E-07
   4.310000     -2.8394572E-07
   4.320000     -2.8350848E-07
   4.330000     -2.8266885E-07
   4.340000     -2.8141875E-07
   4.350000     -2.7975048E-07
   4.360000     -2.7765685E-07
   4.370000     -2.7513113E-07
   4.380000     -2.7216694E-07
   4.390000     -2.6875855E-07
   4.400000     -2.6490059E-07
   4.410000     -2.6058819E-07
   4.420000     -2.5581701E-07
   4.430000     -2.5058321E-07
   4.440000     -2.4488352E-07
   4.450000     -2.3871527E-07
   4.460000     -2.3207626E-07
   4.470000     -2.2496501E-07
   4.480000     -2.1738052E-07
   4.490000     -2.0932254E-07
   4.500000     -2.0079146E-07
   4.510000     -1.9178837E-07
   4.520000     -1.8231505E-07
   4.530000     -1.7237403E-07
   4.540000     -1.6196852E-07
   4.550000     -1.5110254E-07
   4.560000     -1.3978089E-07
   4.570000     -1.2800906E-07
   4.580000     -1.1579333E-07
   4.590000     -1.0314071E-07
   4.600000     -9.0059004E-08
   4.610000     -7.6556745E-08
   4.620000     -6.2643188E-08
   4.630000     -4.8328307E-08
   4.640000     -3.3622769E-08
   4.650000     -1.8537889E-08
   4.660000     -3.0857044E-09
   4.670000      1.2721079E-08
   4.680000      2.8869149E-08
   4.690000      4.5344567E-08
   4.700000      6.2132749E-08
   4.710000      7.9218466E-08
   4.720000      9.6585865E-08
   4.730000      1.1421851E-07
   4.740000      1.3209936E-07
   4.750000      1.5021074E-07
   4.760000      1.6853443E-07
   4.770000      1.8705151E-07
   4.780000      2.0574254E-07
   4.790000      2.2458744E-07
   4.800000      2.4356552E-07
   4.810000      2.6265562E-07
   4.820000      2.8183592E-07
   4.830000      3.0108419E-07
   4.840000      3.2037761E-07
   4.850000      3.3969300E-07
   4.860000      3.5900666E-07
   4.870000      3.7829454E-07
   4.880000      3.9753223E-07
   4.890000      4.1669509E-07
   4.900000      4.3575804E-07
   4.910000      4.5469588E-07
   4.920000      4.7348320E-07
   4.930000      4.9209456E-07
   4.940000      5.1050421E-07
   4.950000      5.2868660E-07
   4.960000      5.4661592E-07
   4.970000      5.6426649E-07
   4.980000      5.8161254E-07
   4.990000      5.9862850E-07
   5.000000      6.1528874E-07
   5.010000      6.3156773E-07
   5.020000      6.4744000E-07
   5.030000      6.6288027E-07
   5.040000      6.7786328E-07
   5.050000      6.9236404E-07
   5.060000      7.0635753E-07
   5.070000      7.1981913E-07
   5.080000      7.3272446E-07
   5.090000      7.4504925E-07
   5.100000      7.5676968E-07
   5.110000      7.6786216E-07
   5.120000      7.7830344E-07
   5.130000      7.8807062E-07
   5.140000      7.9714158E-07
   5.150000      8.0549438E-07
   5.160000      8.1310793E-07
   5.170000      8.1996154E-07
   5.180000      8.2603532E-07
   5.190000      8.3131005E-07
   5.200000      8.3576708E-07
   5.210000      8.3938880E-07
   5.220000      8.4215833E-07
   5.230000      8.4405951E-07
   5.240000      8.4507724E-07
   5.250000      8.4519712E-07
   5.260000      8.4440558E-07
   5.270000      8.4269004E-07
   5.280000      8.4003864E-07
   5.290000      8.3644062E-07
   5.300000      8.3188587E-07
   5.310000      8.2636518E-07
   5.320000      8.1987031E-07
   5.330000      8.1239375E-07
   5.340000      8.0392903E-07
   5.350000      7.9447040E-07
   5.360000      7.8401308E-07
   5.370000      7.7255328E-07
   5.380000      7.6008803E-07
   5.390000      7.4661540E-07
   5.400000      7.3213454E-07
   5.410000      7.1664567E-07
   5.420000      7.0014994E-07
   5.430000      6.8264956E-07
   5.440000      6.6414793E-07
   5.450000      6.4464962E-07
   5.460000      6.2416018E-07
   5.470000      6.0268644E-07
   5.480000      5.8023625E-07
   5.490000      5.5681869E-07
   5.500000      5.3244395E-07
   5.510000      5.0712322E-07
   5.520000      4.8086889E-07
   5.530000      4.5369455E-07
   5.540000      4.2561456E-07
   5.550000      3.9664423E-07
   5.560000      3.6679998E-07
   5.570000      3.3609916E-07
   5.580000      3.0455990E-07
   5.590000      2.7220131E-07
   5.600000      2.3904317E-07
   5.610000      2.0510623E-07
   5.620000      1.7041201E-07
   5.630000      1.3498273E-07
   5.640000      9.8841433E-08
   5.650000      6.2012056E-08
   5.660000      2.4519146E-08
   5.670000     -1.3611994E-08
   5.680000     -5.2355091E-08
   5.690000     -9.1683042E-08
   5.700000     -1.3156806E-07
   5.710000     -1.7198168E-07
   5.720000     -2.1289465E-07
   5.730000     -2.5427681E-07
   5.740000     -2.9609726E-07
   5.750000     -3.3832441E-07
   5.760000     -3.8092594E-07
   5.770000     -4.2386876E-07
   5.780000     -4.6711938E-07
   5.790000     -5.1064376E-07
   5.800000     -5.5440717E-07
   5.810000     -5.9837430E-07
   5.820000     -6.4250969E-07
   5.830000     -6.8677753E-07
   5.840000     -7.3114165E-07
   5.850000     -7.7556547E-07
   5.860000     -8.2001225E-07
   5.870000     -8.6444516E-07
   5.880000     -9.0882719E-07
   5.890000     -9.5312095E-07
   5.900000     -9.9728913E-07
   5.910000     -1.0412944E-06
   5.920000     -1.0850989E-06
   5.930000     -1.1286652E-06
   5.940000     -1.1719553E-06
   5.950000     -1.2149311E-06
   5.960000     -1.2575543E-06
   5.970000     -1.2997867E-06
   5.980000     -1.3415898E-06
   5.990000     -1.3829249E-06
   6.000000     -1.4237531E-06
   6.010000     -1.4640357E-06
   6.020000     -1.5037338E-06
   6.030000     -1.5428084E-06
   6.040000     -1.5812203E-06
   6.050000     -1.6189304E-06
   6.060000     -1.6558998E-06
   6.070000     -1.6920897E-06
   6.080000     -1.7274610E-06
   6.090000     -1.7619758E-06
   6.100000     -1.7955956E-06
   6.110000     -1.8282826E-06
   6.120000     -1.8599991E-06
   6.130000     -1.8907079E-06
   6.140000     -1.9203724E-06
   6.150000     -1.9489557E-06
   6.160000     -1.9764220E-06
   6.170000     -2.0027355E-06
   6.180000     -2.0278610E-06
   6.190000     -2.0517630E-06
   6.200000     -2.0744073E-06
   6.210000     -2.0957596E-06
   6.220000     -2.1157859E-06
   6.230000     -2.1344529E-06
   6.240000     -2.1517267E-06
   6.250000     -2.1675746E-06
   6.260000     -2.1819635E-06
   6.270000     -2.1948608E-06
   6.280000     -2.2062343E-06
   6.290000     -2.2160521E-06
   6.300000     -2.2242825E-06
   6.310000     -2.2308943E-06
   6.320000     -2.2358565E-06
   6.330000     -2.2391389E-06
   6.340000     -2.2407119E-06
   6.350000     -2.2405459E-06
   6.360000     -2.2386128E-06
   6.370000     -2.2348847E-06
   6.380000     -2.2293341E-06
   6.390000     -2.2219349E-06
   6.400000     -2.2126615E-06
   6.410000     -2.2014895E-06
   6.420000     -2.1883943E-06
   6.430000     -2.1733533E-06
   6.440000     -2.1563440E-06
   6.450000     -2.1373448E-06
   6.460000     -2.1163353E-06
   6.470000     -2.0932957E-06
   6.480000     -2.0682071E-06
   6.490000     -2.0410505E-06
   6.500000     -2.0118089E-06
   6.510000     -1.9804654E-06
   6.520000     -1.9470042E-06
   6.530000     -1.9114098E-06
   6.540000     -1.8736680E-06
   6.550000     -1.8337655E-06
   6.560000     -1.7916899E-06
   6.570000     -1.7474296E-06
   6.580000     -1.7009739E-06
   6.590000     -1.6523139E-06
   6.600000     -1.6014413E-06
   6.610000     -1.5483494E-06
   6.620000     -1.4930326E-06
   6.630000     -1.4354873E-06
   6.640000     -1.3757108E-06
   6.650000     -1.3137022E-06
   6.660000     -1.2494626E-06
   6.670000     -1.1829943E-06
   6.680000     -1.1143015E-06
   6.690000     -1.0433902E-06
   6.700000     -9.7026805E-07
   6.710000     -8.9494489E-07
   6.720000     -8.1743224E-07
   6.730000     -7.3774333E-07
   6.740000     -6.5589313E-07
   6.750000     -5.7189868E-07
   6.760000     -4.8577880E-07
   6.770000     -3.9755395E-07
   6.780000     -3.0724655E-07
   6.790000     -2.1488115E-07
   6.800000     -1.2048417E-07
   6.810000     -2.4083985E-08
   6.820000      7.4288678E-08
   6.830000      1.7460110E-07
   6.840000      2.7681844E-07
   6.850000      3.8090337E-07
   6.860000      4.8681625E-07
   6.870000      5.9451457E-07
   6.880000      7.0395362E-07
   6.890000      8.1508608E-07
   6.900000      9.2786161E-07
   6.910000      1.0422272E-06
   6.920000      1.1581269E-06
   6.930000      1.2755016E-06
   6.940000      1.3942897E-06
   6.950000      1.5144265E-06
   6.960000      1.6358443E-06
   6.970000      1.7584728E-06
   6.980000      1.8822382E-06
   6.990000      2.0070638E-06
   7.000000      2.1328703E-06
   7.010000      2.2595759E-06
   7.020000      2.3870953E-06
   7.030000      2.5153404E-06
   7.040000      2.6442210E-06
   7.050000      2.7736432E-06
   7.060000      2.9035109E-06