  -2.600000      0.0000000E+00
  -2.590000      0.0000000E+00
  -2.580000      0.0000000E+00
  -2.570000      0.0000000E+00
  -2.560000      0.0000000E+00
  -2.550000      0.0000000E+00
  -2.540000      0.0000000E+00
  -2.530000      0.0000000E+00
  -2.520000      0.0000000E+00
  -2.510000      0.0000000E+00
  -2.500000      0.0000000E+00
  -2.490000      0.0000000E+00
  -2.480000      0.0000000E+00
  -2.470000      0.0000000E+00
  -2.460000      0.0000000E+00
  -2.450000      0.0000000E+00
  -2.440000      0.0000000E+00
  -2.430000      0.0000000E+00
  -2.420000      0.0000000E+00
  -2.410000      0.0000000E+00
  -2.400000      0.0000000E+00
  -2.390000      0.0000000E+00
  -2.380000      0.0000000E+00
  -2.370000      0.0000000E+00
  -2.360000      0.0000000E+00
  -2.350000      0.0000000E+00
  -2.340000      0.0000000E+00
  -2.330000      0.0000000E+00
  -2.320000      0.0000000E+00
  -2.310000      0.0000000E+00
  -2.300000      0.0000000E+00
  -2.290000      0.0000000E+00
  -2.280000      0.0000000E+00
  -2.270000      0.0000000E+00
  -2.260000      0.0000000E+00
  -2.250000      0.0000000E+00
  -2.240000      0.0000000E+00
  -2.230000      0.0000000E+00
  -2.220000      0.0000000E+00
  -2.210000      0.0000000E+00
  -2.200000      0.0000000E+00
  -2.190000      0.0000000E+00
  -2.180000      0.0000000E+00
  -2.170000      0.0000000E+00
  -2.160000      0.0000000E+00
  -2.150000      0.0000000E+00
  -2.140000      0.0000000E+00
  -2.130000      0.0000000E+00
  -2.120000      0.0000000E+00
  -2.110000      0.0000000E+00
  -2.100000      0.0000000E+00
  -2.090000      0.0000000E+00
  -2.080000      0.0000000E+00
  -2.070000      0.0000000E+00
  -2.060000      0.0000000E+00
  -2.050000      0.0000000E+00
  -2.040000      0.0000000E+00
  -2.030000      0.0000000E+00
  -2.020000      0.0000000E+00
  -2.010000      0.0000000E+00
  -2.000000      0.0000000E+00
  -1.990000      0.0000000E+00
  -1.980000      0.0000000E+00
  -1.970000      0.0000000E+00
  -1.960000      0.0000000E+00
  -1.950000      0.0000000E+00
  -1.940000      0.0000000E+00
  -1.930000      0.0000000E+00
  -1.920000      0.0000000E+00
  -1.910000      0.0000000E+00
  -1.900000      0.0000000E+00
  -1.890000      0.0000000E+00
  -1.880000      0.0000000E+00
  -1.870000      0.0000000E+00
  -1.860000      0.0000000E+00
  -1.850000      0.0000000E+00
  -1.840000      0.0000000E+00
  -1.830000      0.0000000E+00
  -1.820000      0.0000000E+00
  -1.810000      0.0000000E+00
  -1.800000      0.0000000E+00
  -1.790000      0.0000000E+00
  -1.780000      0.0000000E+00
  -1.770000      0.0000000E+00
  -1.760000      0.0000000E+00
  -1.750000      0.0000000E+00
  -1.740000      0.0000000E+00
  -1.730000      0.0000000E+00
  -1.720000      0.0000000E+00
  -1.710000      0.0000000E+00
  -1.700000      0.0000000E+00
  -1.690000      0.0000000E+00
  -1.680000      0.0000000E+00
  -1.670000      0.0000000E+00
  -1.660000      0.0000000E+00
  -1.650000      0.0000000E+00
  -1.640000      0.0000000E+00
  -1.630000      0.0000000E+00
  -1.620000      0.0000000E+00
  -1.610000      0.0000000E+00
  -1.600000      0.0000000E+00
  -1.590000      0.0000000E+00
  -1.580000      0.0000000E+00
  -1.570000      0.0000000E+00
  -1.560000      0.0000000E+00
  -1.550000      0.0000000E+00
  -1.540000      0.0000000E+00
  -1.530000      0.0000000E+00
  -1.520000      0.0000000E+00
  -1.510000      0.0000000E+00
  -1.500000      0.0000000E+00
  -1.490000      0.0000000E+00
  -1.480000      0.0000000E+00
  -1.470000      0.0000000E+00
  -1.460000      0.0000000E+00
  -1.450000      0.0000000E+00
  -1.440000      0.0000000E+00
  -1.430000      0.0000000E+00
  -1.420000      0.0000000E+00
  -1.410000      0.0000000E+00
  -1.400000      0.0000000E+00
  -1.390000      0.0000000E+00
  -1.380000      0.0000000E+00
  -1.370000      0.0000000E+00
  -1.360000      0.0000000E+00
  -1.350000      0.0000000E+00
  -1.340000      0.0000000E+00
  -1.330000      0.0000000E+00
  -1.320000      0.0000000E+00
  -1.310000      0.0000000E+00
  -1.300000      0.0000000E+00
  -1.290000      0.0000000E+00
  -1.280000      0.0000000E+00
  -1.270000      0.0000000E+00
  -1.260000      0.0000000E+00
  -1.250000      0.0000000E+00
  -1.240000      0.0000000E+00
  -1.230000      0.0000000E+00
  -1.220000      0.0000000E+00
  -1.210000      0.0000000E+00
  -1.200000      0.0000000E+00
  -1.190000      0.0000000E+00
  -1.180000      0.0000000E+00
  -1.170000      0.0000000E+00
  -1.160000      0.0000000E+00
  -1.150000      0.0000000E+00
  -1.140000      0.0000000E+00
  -1.130000      0.0000000E+00
  -1.120000      0.0000000E+00
  -1.110000      0.0000000E+00
  -1.100000      0.0000000E+00
  -1.090000      0.0000000E+00
  -1.080000      0.0000000E+00
  -1.070000      0.0000000E+00
  -1.060000      0.0000000E+00
  -1.050000      0.0000000E+00
  -1.040000      0.0000000E+00
  -1.030000      0.0000000E+00
  -1.020000      0.0000000E+00
  -1.010000      0.0000000E+00
  -1.000000      0.0000000E+00
 -0.9900000      0.0000000E+00
 -0.9800000      0.0000000E+00
 -0.9700000      0.0000000E+00
 -0.9600000      0.0000000E+00
 -0.9500000      0.0000000E+00
 -0.9400000      0.0000000E+00
 -0.9300000      0.0000000E+00
 -0.9200000      0.0000000E+00
 -0.9100000      0.0000000E+00
 -0.9000000      0.0000000E+00
 -0.8900000      0.0000000E+00
 -0.8800000      0.0000000E+00
 -0.8700000      0.0000000E+00
 -0.8600000      0.0000000E+00
 -0.8500000      0.0000000E+00
 -0.8400000      0.0000000E+00
 -0.8300000      0.0000000E+00
 -0.8200000      0.0000000E+00
 -0.8100000      0.0000000E+00
 -0.8000000      0.0000000E+00
 -0.7900000      0.0000000E+00
 -0.7800000      0.0000000E+00
 -0.7700000      0.0000000E+00
 -0.7600000      0.0000000E+00
 -0.7500000      0.0000000E+00
 -0.7400000      0.0000000E+00
 -0.7300000      0.0000000E+00
 -0.7200000      0.0000000E+00
 -0.7100000      0.0000000E+00
 -0.7000000      0.0000000E+00
 -0.6900000      0.0000000E+00
 -0.6800000      0.0000000E+00
 -0.6700000      0.0000000E+00
 -0.6600000      0.0000000E+00
 -0.6500000      0.0000000E+00
 -0.6400000      0.0000000E+00
 -0.6300000      0.0000000E+00
 -0.6200000      0.0000000E+00
 -0.6100000      0.0000000E+00
 -0.6000000      0.0000000E+00
 -0.5900000      0.0000000E+00
 -0.5800000      0.0000000E+00
 -0.5700000      0.0000000E+00
 -0.5600000      0.0000000E+00
 -0.5500000      0.0000000E+00
 -0.5400000      0.0000000E+00
 -0.5300000      0.0000000E+00
 -0.5200000      0.0000000E+00
 -0.5100000      0.0000000E+00
 -0.5000000      0.0000000E+00
 -0.4900000      0.0000000E+00
 -0.4800000      0.0000000E+00
 -0.4700000      0.0000000E+00
 -0.4600000      0.0000000E+00
 -0.4500000      0.0000000E+00
 -0.4400000      0.0000000E+00
 -0.4300000      0.0000000E+00
 -0.4200000      0.0000000E+00
 -0.4100000      0.0000000E+00
 -0.4000000      0.0000000E+00
 -0.3900000      0.0000000E+00
 -0.3800000      0.0000000E+00
 -0.3700000      0.0000000E+00
 -0.3600000      0.0000000E+00
 -0.3500000      0.0000000E+00
 -0.3400000      0.0000000E+00
 -0.3300000      0.0000000E+00
 -0.3200000      0.0000000E+00
 -0.3100000      0.0000000E+00
 -0.3000000      0.0000000E+00
 -0.2900000      0.0000000E+00
 -0.2800000      0.0000000E+00
 -0.2700000      0.0000000E+00
 -0.2600000      0.0000000E+00
 -0.2500000      0.0000000E+00
 -0.2400000      0.0000000E+00
 -0.2300000      0.0000000E+00
 -0.2200000      0.0000000E+00
 -0.2100000      0.0000000E+00
 -0.2000000      0.0000000E+00
 -0.1900000      0.0000000E+00
 -0.1800000      0.0000000E+00
 -0.1700000      0.0000000E+00
 -0.1600000      0.0000000E+00
 -0.1500000      0.0000000E+00
 -0.1400000      0.0000000E+00
 -0.1300000      0.0000000E+00
 -0.1200000      0.0000000E+00
 -0.1100000      0.0000000E+00
 -0.1000000      0.0000000E+00
 -9.0000004E-02  0.0000000E+00
 -7.9999998E-02  0.0000000E+00
 -7.0000000E-02  0.0000000E+00
 -5.9999999E-02  0.0000000E+00
 -5.0000001E-02  0.0000000E+00
 -3.9999999E-02  0.0000000E+00
 -2.9999999E-02  0.0000000E+00
 -2.0000000E-02  0.0000000E+00
 -9.9999998E-03  0.0000000E+00
 -3.4694470E-17  0.0000000E+00
  9.9999998E-03  0.0000000E+00
  2.0000000E-02  0.0000000E+00
  2.9999999E-02  0.0000000E+00
  3.9999999E-02  0.0000000E+00
  5.0000001E-02  0.0000000E+00
  5.9999999E-02  0.0000000E+00
  7.0000000E-02  0.0000000E+00
  7.9999998E-02  0.0000000E+00
  9.0000004E-02  0.0000000E+00
  0.1000000      0.0000000E+00
  0.1100000      0.0000000E+00
  0.1200000      0.0000000E+00
  0.1300000      0.0000000E+00
  0.1400000      0.0000000E+00
  0.1500000      0.0000000E+00
  0.1600000      0.0000000E+00
  0.1700000      0.0000000E+00
  0.1800000      0.0000000E+00
  0.1900000      0.0000000E+00
  0.2000000      0.0000000E+00
  0.2100000      0.0000000E+00
  0.2200000      0.0000000E+00
  0.2300000      0.0000000E+00
  0.2400000      0.0000000E+00
  0.2500000      0.0000000E+00
  0.2600000      0.0000000E+00
  0.2700000      0.0000000E+00
  0.2800000      0.0000000E+00
  0.2900000      0.0000000E+00
  0.3000000      0.0000000E+00
  0.3100000      0.0000000E+00
  0.3200000      0.0000000E+00
  0.3300000      0.0000000E+00
  0.3400000      0.0000000E+00
  0.3500000      0.0000000E+00
  0.3600000      0.0000000E+00
  0.3700000      0.0000000E+00
  0.3800000      0.0000000E+00
  0.3900000      0.0000000E+00
  0.4000000      0.0000000E+00
  0.4100000      0.0000000E+00
  0.4200000      0.0000000E+00
  0.4300000      0.0000000E+00
  0.4400000      0.0000000E+00
  0.4500000      0.0000000E+00
  0.4600000      0.0000000E+00
  0.4700000      0.0000000E+00
  0.4800000      0.0000000E+00
  0.4900000      0.0000000E+00
  0.5000000      0.0000000E+00
  0.5100000      0.0000000E+00
  0.5200000      0.0000000E+00
  0.5300000      0.0000000E+00
  0.5400000      0.0000000E+00
  0.5500000      0.0000000E+00
  0.5600000      0.0000000E+00
  0.5700000      0.0000000E+00
  0.5800000      0.0000000E+00
  0.5900000      0.0000000E+00
  0.6000000      0.0000000E+00
  0.6100000      0.0000000E+00
  0.6200000      0.0000000E+00
  0.6300000      0.0000000E+00
  0.6400000      0.0000000E+00
  0.6500000      0.0000000E+00
  0.6600000      0.0000000E+00
  0.6700000      0.0000000E+00
  0.6800000      0.0000000E+00
  0.6900000      0.0000000E+00
  0.7000000      0.0000000E+00
  0.7100000      0.0000000E+00
  0.7200000      0.0000000E+00
  0.7300000      0.0000000E+00
  0.7400000      0.0000000E+00
  0.7500000      0.0000000E+00
  0.7600000      0.0000000E+00
  0.7700000      0.0000000E+00
  0.7800000      0.0000000E+00
  0.7900000      0.0000000E+00
  0.8000000      0.0000000E+00
  0.8100000      0.0000000E+00
  0.8200000      0.0000000E+00
  0.8300000      0.0000000E+00
  0.8400000      0.0000000E+00
  0.8500000      0.0000000E+00
  0.8600000      0.0000000E+00
  0.8700000      0.0000000E+00
  0.8800000      0.0000000E+00
  0.8900000      0.0000000E+00
  0.9000000      0.0000000E+00
  0.9100000      0.0000000E+00
  0.9200000      0.0000000E+00
  0.9300000      0.0000000E+00
  0.9400000      0.0000000E+00
  0.9500000      0.0000000E+00
  0.9600000      0.0000000E+00
  0.9700000      0.0000000E+00
  0.9800000      0.0000000E+00
  0.9900000      0.0000000E+00
   1.000000      0.0000000E+00
   1.010000      0.0000000E+00
   1.020000      0.0000000E+00
   1.030000      0.0000000E+00
   1.040000      0.0000000E+00
   1.050000      0.0000000E+00
   1.060000      0.0000000E+00
   1.070000      0.0000000E+00
   1.080000      0.0000000E+00
   1.090000      0.0000000E+00
   1.100000      0.0000000E+00
   1.110000      0.0000000E+00
   1.120000      0.0000000E+00
   1.130000      0.0000000E+00
   1.140000      0.0000000E+00
   1.150000      0.0000000E+00
   1.160000      0.0000000E+00
   1.170000      0.0000000E+00
   1.180000      0.0000000E+00
   1.190000      0.0000000E+00
   1.200000      0.0000000E+00
   1.210000      0.0000000E+00
   1.220000      0.0000000E+00
   1.230000      0.0000000E+00
   1.240000      0.0000000E+00
   1.250000      0.0000000E+00
   1.260000      0.0000000E+00
   1.270000      0.0000000E+00
   1.280000      0.0000000E+00
   1.290000      0.0000000E+00
   1.300000      0.0000000E+00
   1.310000      0.0000000E+00
   1.320000      0.0000000E+00
   1.330000      0.0000000E+00
   1.340000      0.0000000E+00
   1.350000      0.0000000E+00
   1.360000      0.0000000E+00
   1.370000      0.0000000E+00
   1.380000      0.0000000E+00
   1.390000      0.0000000E+00
   1.400000      0.0000000E+00
   1.410000      0.0000000E+00
   1.420000      0.0000000E+00
   1.430000      0.0000000E+00
   1.440000      0.0000000E+00
   1.450000      0.0000000E+00
   1.460000      0.0000000E+00
   1.470000      0.0000000E+00
   1.480000      0.0000000E+00
   1.490000      0.0000000E+00
   1.500000      0.0000000E+00
   1.510000      0.0000000E+00
   1.520000      0.0000000E+00
   1.530000      0.0000000E+00
   1.540000      0.0000000E+00
   1.550000      0.0000000E+00
   1.560000      0.0000000E+00
   1.570000      0.0000000E+00
   1.580000      0.0000000E+00
   1.590000      0.0000000E+00
   1.600000      0.0000000E+00
   1.610000      0.0000000E+00
   1.620000      0.0000000E+00
   1.630000      0.0000000E+00
   1.640000      0.0000000E+00
   1.650000      0.0000000E+00
   1.660000      0.0000000E+00
   1.670000      0.0000000E+00
   1.680000      0.0000000E+00
   1.690000      0.0000000E+00
   1.700000      0.0000000E+00
   1.710000      0.0000000E+00
   1.720000      0.0000000E+00
   1.730000      0.0000000E+00
   1.740000      0.0000000E+00
   1.750000      0.0000000E+00
   1.760000      0.0000000E+00
   1.770000      0.0000000E+00
   1.780000      0.0000000E+00
   1.790000      0.0000000E+00
   1.800000      0.0000000E+00
   1.810000      0.0000000E+00
   1.820000      0.0000000E+00
   1.830000      0.0000000E+00
   1.840000      0.0000000E+00
   1.850000      0.0000000E+00
   1.860000      0.0000000E+00
   1.870000      0.0000000E+00
   1.880000      0.0000000E+00
   1.890000      0.0000000E+00
   1.900000      0.0000000E+00
   1.910000      0.0000000E+00
   1.920000      0.0000000E+00
   1.930000      0.0000000E+00
   1.940000      0.0000000E+00
   1.950000      0.0000000E+00
   1.960000      0.0000000E+00
   1.970000      0.0000000E+00
   1.980000      0.0000000E+00
   1.990000      0.0000000E+00
   2.000000      0.0000000E+00
   2.010000      0.0000000E+00
   2.020000      0.0000000E+00
   2.030000      0.0000000E+00
   2.040000      0.0000000E+00
   2.050000      0.0000000E+00
   2.060000      0.0000000E+00
   2.070000      0.0000000E+00
   2.080000      0.0000000E+00
   2.090000      0.0000000E+00
   2.100000      0.0000000E+00
   2.110000      0.0000000E+00
   2.120000      0.0000000E+00
   2.130000      0.0000000E+00
   2.140000      0.0000000E+00
   2.150000      0.0000000E+00
   2.160000      0.0000000E+00
   2.170000      0.0000000E+00
   2.180000      0.0000000E+00
   2.190000      0.0000000E+00
   2.200000      0.0000000E+00
   2.210000      0.0000000E+00
   2.220000      0.0000000E+00
   2.230000      0.0000000E+00
   2.240000      0.0000000E+00
   2.250000      0.0000000E+00
   2.260000      0.0000000E+00
   2.270000      0.0000000E+00
   2.280000      0.0000000E+00
   2.290000      0.0000000E+00
   2.300000      0.0000000E+00
   2.310000      0.0000000E+00
   2.320000      0.0000000E+00
   2.330000      0.0000000E+00
   2.340000      0.0000000E+00
   2.350000      0.0000000E+00
   2.360000      0.0000000E+00
   2.370000      0.0000000E+00
   2.380000      0.0000000E+00
   2.390000      0.0000000E+00
   2.400000      0.0000000E+00
   2.410000      0.0000000E+00
   2.420000      0.0000000E+00
   2.430000      0.0000000E+00
   2.440000      0.0000000E+00
   2.450000      0.0000000E+00
   2.460000      0.0000000E+00
   2.470000      0.0000000E+00
   2.480000      0.0000000E+00
   2.490000      0.0000000E+00
   2.500000      0.0000000E+00
   2.510000      0.0000000E+00
   2.520000      0.0000000E+00
   2.530000      0.0000000E+00
   2.540000      0.0000000E+00
   2.550000      0.0000000E+00
   2.560000      0.0000000E+00
   2.570000      0.0000000E+00
   2.580000      0.0000000E+00
   2.590000      0.0000000E+00
   2.600000      0.0000000E+00
   2.610000      0.0000000E+00
   2.620000      0.0000000E+00
   2.630000      0.0000000E+00
   2.640000      0.0000000E+00
   2.650000      0.0000000E+00
   2.660000      0.0000000E+00
   2.670000      0.0000000E+00
   2.680000      0.0000000E+00
   2.690000      0.0000000E+00
   2.700000      0.0000000E+00
   2.710000      0.0000000E+00
   2.720000      0.0000000E+00
   2.730000      0.0000000E+00
   2.740000      0.0000000E+00
   2.750000      0.0000000E+00
   2.760000      0.0000000E+00
   2.770000      0.0000000E+00
   2.780000      0.0000000E+00
   2.790000      0.0000000E+00
   2.800000      0.0000000E+00
   2.810000      0.0000000E+00
   2.820000      0.0000000E+00
   2.830000      0.0000000E+00
   2.840000     -1.2220944E-38
   2.850000     -1.2942847E-38
   2.860000     -1.3497205E-38
   2.870000     -1.3842986E-38
   2.880000     -1.4326843E-38
   2.890000     -1.5008882E-38
   2.900000     -1.5832978E-38
   2.910000     -1.6782515E-38
   2.920000     -1.7908386E-38
   2.930000     -2.0030761E-38
   2.940000     -2.3119108E-38
   2.950000     -2.6390517E-38
   2.960000     -2.9762537E-38
   2.970000     -3.2264387E-38
   2.980000     -3.3990439E-38
   2.990000     -3.5797744E-38
   3.000000     -3.7676625E-38
   3.010000     -3.9717221E-38
   3.020000     -4.1925628E-38
   3.030000     -4.4313113E-38
   3.040000     -4.6865561E-38
   3.050000     -4.9590563E-38
   3.060000     -5.2450260E-38
   3.070000     -5.5415245E-38
   3.080000     -5.8491044E-38
   3.090000     -6.1664273E-38
   3.100000     -6.9042575E-38
   3.110000     -8.3655046E-38
   3.120000     -1.0208784E-37
   3.130000     -1.2200549E-37
   3.140000     -1.4256406E-37
   3.150000     -1.6200079E-37
   3.160000     -1.7271913E-37
   3.170000     -1.7254466E-37
   3.180000     -1.6869819E-37
   3.190000     -1.5603324E-37
   3.200000     -1.3369448E-37
   3.210000     -1.0811981E-37
   3.220000     -7.9834546E-38
   3.230000     -4.9071723E-38
   3.240000     -1.6481330E-38
   3.250000      1.2446451E-38
   3.260000      3.6181582E-38
   3.270000      5.7740144E-38
   3.280000      7.9112625E-38
   3.290000      9.9789064E-38
   3.300000      1.1693466E-37
   3.310000      1.2955930E-37
   3.320000      1.3289142E-37
   3.330000      1.2837735E-37
   3.340000      1.2826499E-37
   3.350000      1.3421665E-37
   3.360000      1.4291674E-37
   3.370000      1.5566812E-37
   3.380000      1.7273834E-37
   3.390000      1.9886672E-37
   3.400000      2.3842829E-37
   3.410000      2.8971267E-37
   3.420000      3.5161632E-37
   3.430000      4.2420201E-37
   3.440000      5.0946647E-37
   3.450000      6.0710926E-37
   3.460000      7.1335356E-37
   3.470000      8.1799302E-37
   3.480000      9.1438496E-37
   3.490000      1.0087789E-36
   3.500000      1.1048571E-36
   3.510000      1.2018371E-36
   3.520000      1.3055040E-36
   3.530000      1.4145132E-36
   3.540000      1.5208211E-36
   3.550000      1.6364508E-36
   3.560000      1.7415404E-36
   3.570000      1.8241688E-36
   3.580000      2.0011616E-36
   3.590000      2.4082883E-36
   3.600000      2.9717344E-36
   3.610000      3.3125221E-36
   3.620000      3.4205383E-36
   3.630000      3.5162538E-36
   3.640000      3.5680228E-36
   3.650000      3.6096742E-36
   3.660000      3.6414812E-36
   3.670000      3.7089631E-36
   3.680000      3.7868600E-36
   3.690000      3.5758816E-36
   3.700000      3.1132617E-36
   3.710000      2.6252319E-36
   3.720000      2.1250556E-36
   3.730000      1.7366096E-36
   3.740000      1.4996234E-36
   3.750000      1.4184496E-36
   3.760000      1.5364757E-36
   3.770000      1.8432365E-36
   3.780000      2.4879558E-36
   3.790000      3.3449939E-36
   3.800000      4.1598786E-36
   3.810000      4.9731802E-36
   3.820000      5.6140488E-36
   3.830000      6.0381071E-36
   3.840000      6.2824053E-36
   3.850000      6.2680460E-36
   3.860000      6.2120299E-36
   3.870000      6.1665369E-36
   3.880000      5.9659104E-36
   3.890000      5.6039257E-36
   3.900000      5.2174267E-36
   3.910000      4.8073766E-36
   3.920000      4.3222785E-36
   3.930000      3.7890838E-36
   3.940000      3.1944593E-36
   3.950000      2.5661220E-36
   3.960000      1.9601765E-36
   3.970000      1.3971950E-36
   3.980000      8.5659048E-37
   3.990000      4.1951042E-37
   4.000000      1.5905351E-37
   4.010000     -2.4626198E-38
   4.020000     -3.0945639E-37
   4.030000     -8.0311935E-37
   4.040000     -1.4328417E-36
   4.050000     -2.2497727E-36
   4.060000     -3.2550349E-36
   4.070000     -4.4120588E-36
   4.080000     -5.7841016E-36
   4.090000     -7.4420867E-36
   4.100000     -9.3290665E-36
   4.110000     -1.1099154E-35
   4.120000     -1.2650377E-35
   4.130000     -1.4159969E-35
   4.140000     -1.5674256E-35
   4.150000     -1.7453256E-35
   4.160000     -1.9642209E-35
   4.170000     -2.1670930E-35
   4.180000     -2.3526308E-35
   4.190000     -2.5596619E-35
   4.200000     -2.7944689E-35
   4.210000     -3.0658236E-35
   4.220000     -3.3706778E-35
   4.230000     -3.6883250E-35
   4.240000     -4.0063462E-35
   4.250000     -4.3356775E-35
   4.260000     -4.6436578E-35
   4.270000     -4.9019693E-35
   4.280000     -5.1311511E-35
   4.290000     -5.4145669E-35
   4.300000     -5.9125087E-35
   4.310000     -6.5778259E-35
   4.320000     -7.2706036E-35
   4.330000     -7.9128632E-35
   4.340000     -8.4882195E-35
   4.350000     -8.9292416E-35
   4.360000     -9.1306334E-35
   4.370000     -9.1551822E-35
   4.380000     -9.0699233E-35
   4.390000     -8.9052795E-35
   4.400000     -8.6915490E-35
   4.410000     -8.4755335E-35
   4.420000     -8.2733462E-35
   4.430000     -8.0888906E-35
   4.440000     -7.9710593E-35
   4.450000     -7.9453649E-35
   4.460000     -8.0355847E-35
   4.470000     -8.2239479E-35
   4.480000     -8.4411532E-35
   4.490000     -8.6587476E-35
   4.500000     -8.9312850E-35
   4.510000     -9.3526199E-35
   4.520000     -9.8923061E-35
   4.530000     -1.0434140E-34
   4.540000     -1.0941454E-34
   4.550000     -1.1397691E-34
   4.560000     -1.1819495E-34
   4.570000     -1.2237818E-34
   4.580000     -1.2668353E-34
   4.590000     -1.3000334E-34
   4.600000     -1.3115290E-34
   4.610000     -1.3083544E-34
   4.620000     -1.2935388E-34
   4.630000     -1.2565558E-34
   4.640000     -1.1816224E-34
   4.650000     -1.0820572E-34
   4.660000     -9.6480995E-35
   4.670000     -8.2304630E-35
   4.680000     -6.6379397E-35
   4.690000     -4.9432074E-35
   4.700000     -3.0776953E-35
   4.710000     -1.0350011E-35
   4.720000      1.0803015E-35
   4.730000      3.3341916E-35
   4.740000      5.6977020E-35
   4.750000      8.0255895E-35
   4.760000      1.0212872E-34
   4.770000      1.2308573E-34
   4.780000      1.4615729E-34
   4.790000      1.7063842E-34
   4.800000      1.9745704E-34
   4.810000      2.2255738E-34
   4.820000      2.4335647E-34
   4.830000      2.6518308E-34
   4.840000      2.8924462E-34
   4.850000      3.1625463E-34
   4.860000      3.4564879E-34
   4.870000      3.8064045E-34
   4.880000      4.2162934E-34
   4.890000      4.6914861E-34
   4.900000      5.2568893E-34
   4.910000      5.8677762E-34
   4.920000      6.4813980E-34
   4.930000      7.0867864E-34
   4.940000      7.6699790E-34
   4.950000      8.2306232E-34
   4.960000      8.7908298E-34
   4.970000      9.3535004E-34
   4.980000      9.9214102E-34
   4.990000      1.0502359E-33
   5.000000      1.1087763E-33
   5.010000      1.1677435E-33
   5.020000      1.2279656E-33
   5.030000      1.2907267E-33
   5.040000      1.3556732E-33
   5.050000      1.4216803E-33
   5.060000      1.4889878E-33
   5.070000      1.5582307E-33
   5.080000      1.6299531E-33
   5.090000      1.7002411E-33
   5.100000      1.7684159E-33
   5.110000      1.8375511E-33
   5.120000      1.9104257E-33
   5.130000      1.9866903E-33
   5.140000      2.0629121E-33
   5.150000      2.1400791E-33
   5.160000      2.2172540E-33
   5.170000      2.2907700E-33
   5.180000      2.3604784E-33
   5.190000      2.4265149E-33
   5.200000      2.4867660E-33
   5.210000      2.5408878E-33
   5.220000      2.5886358E-33
   5.230000      2.6291255E-33
   5.240000      2.6621018E-33
   5.250000      2.6872275E-33
   5.260000      2.7047409E-33
   5.270000      2.7168025E-33
   5.280000      2.7235345E-33
   5.290000      2.7237560E-33
   5.300000      2.7181867E-33
   5.310000      2.7053925E-33
   5.320000      2.6857346E-33
   5.330000      2.6608134E-33
   5.340000      2.6299873E-33
   5.350000      2.5928604E-33
   5.360000      2.5486170E-33
   5.370000      2.4955916E-33
   5.380000      2.4323943E-33
   5.390000      2.3582141E-33
   5.400000      2.2693247E-33
   5.410000      2.1614470E-33
   5.420000      2.0310169E-33
   5.430000      1.8762954E-33
   5.440000      1.6988077E-33
   5.450000      1.4973419E-33
   5.460000      1.2677657E-33
   5.470000      1.0022281E-33
   5.480000      6.9793485E-34
   5.490000      3.5772233E-34
   5.500000     -1.8105849E-35
   5.510000     -4.2647918E-34
   5.520000     -8.6738727E-34
   5.530000     -1.3349672E-33
   5.540000     -1.8295122E-33
   5.550000     -2.3548316E-33
   5.560000     -2.9054262E-33
   5.570000     -3.4779271E-33
   5.580000     -4.0673269E-33
   5.590000     -4.6720736E-33
   5.600000     -5.2935365E-33
   5.610000     -5.9283358E-33
   5.620000     -6.5746457E-33
   5.630000     -7.2364916E-33
   5.640000     -7.9168369E-33
   5.650000     -8.6193998E-33
   5.660000     -9.3493046E-33
   5.670000     -1.0111861E-32
   5.680000     -1.0912723E-32
   5.690000     -1.1758089E-32
   5.700000     -1.2653712E-32
   5.710000     -1.3604435E-32
   5.720000     -1.4614574E-32
   5.730000     -1.5686968E-32
   5.740000     -1.6821739E-32
   5.750000     -1.8019316E-32
   5.760000     -1.9277564E-32
   5.770000     -2.0589828E-32
   5.780000     -2.1947163E-32
   5.790000     -2.3339196E-32
   5.800000     -2.4755561E-32
   5.810000     -2.6188421E-32
   5.820000     -2.7626057E-32
   5.830000     -2.9053148E-32
   5.840000     -3.0457793E-32
   5.850000     -3.1828143E-32
   5.860000     -3.3155115E-32
   5.870000     -3.4432769E-32
   5.880000     -3.5654877E-32
   5.890000     -3.6818041E-32
   5.900000     -3.7923349E-32
   5.910000     -3.8974832E-32
   5.920000     -3.9979171E-32
   5.930000     -4.0944508E-32
   5.940000     -4.1880460E-32
   5.950000     -4.2796987E-32
   5.960000     -4.3703916E-32
   5.970000     -4.4610287E-32
   5.980000     -4.5522368E-32
   5.990000     -4.6443685E-32
   6.000000     -4.7374024E-32
   6.010000     -4.8308269E-32
   6.020000     -4.9236095E-32
   6.030000     -5.0140847E-32
   6.040000     -5.1002649E-32
   6.050000     -5.1797054E-32
   6.060000     -5.2492523E-32
   6.070000     -5.3055785E-32
   6.080000     -5.3452185E-32
   6.090000     -5.3645436E-32
   6.100000     -5.3600432E-32
   6.110000     -5.3284254E-32
   6.120000     -5.2667948E-32
   6.130000     -5.1727752E-32
   6.140000     -5.0446199E-32
   6.150000     -4.8812841E-32
   6.160000     -4.6825353E-32
   6.170000     -4.4489990E-32
   6.180000     -4.1817641E-32
   6.190000     -3.8826337E-32
   6.200000     -3.5540951E-32
   6.210000     -3.1988137E-32
   6.220000     -2.8195869E-32
   6.230000     -2.4191190E-32
   6.240000     -1.9997929E-32
   6.250000     -1.5634157E-32
   6.260000     -1.1108828E-32
   6.270000     -6.4236366E-33
   6.280000     -1.5697465E-33
   6.290000      3.4757877E-33
   6.300000      8.7468270E-33
   6.310000      1.4288560E-32
   6.320000      2.0155474E-32
   6.330000      2.6409899E-32
   6.340000      3.3120764E-32
   6.350000      4.0356981E-32
   6.360000      4.8185929E-32
   6.370000      5.6671558E-32
   6.380000      6.5867886E-32
   6.390000      7.5816476E-32
   6.400000      8.6543568E-32
   6.410000      9.8057470E-32
   6.420000      1.1034705E-31
   6.430000      1.2338117E-31
   6.440000      1.3711014E-31
   6.450000      1.5146452E-31
   6.460000      1.6635955E-31
   6.470000      1.8169871E-31
   6.480000      1.9738196E-31
   6.490000      2.1330725E-31
   6.500000      2.2937177E-31
   6.510000      2.4548396E-31
   6.520000      2.6156635E-31
   6.530000      2.7756036E-31
   6.540000      2.9343050E-31
   6.550000      3.0916609E-31
   6.560000      3.2478267E-31
   6.570000      3.4032148E-31
   6.580000      3.5584706E-31
   6.590000      3.7144343E-31
   6.600000      3.8720852E-31
   6.610000      4.0324755E-31
   6.620000      4.1966507E-31
   6.630000      4.3655660E-31
   6.640000      4.5399999E-31
   6.650000      4.7204693E-31
   6.660000      4.9071571E-31
   6.670000      5.0998479E-31
   6.680000      5.2978867E-31
   6.690000      5.5001526E-31
   6.700000      5.7050615E-31
   6.710000      5.9105906E-31
   6.720000      6.1143310E-31
   6.730000      6.3135642E-31
   6.740000      6.5053578E-31
   6.750000      6.6866807E-31
   6.760000      6.8545271E-31
   6.770000      7.0060470E-31
   6.780000      7.1386709E-31
   6.790000      7.2502286E-31
   6.800000      7.3390410E-31
   6.810000      7.4040124E-31
   6.820000      7.4446615E-31
   6.830000      7.4611166E-31
   6.840000      7.4541064E-31
   6.850000      7.4248841E-31
   6.860000      7.3751240E-31
   6.870000      7.3067840E-31
   6.880000      7.2219425E-31
   6.890000      7.1226123E-31
   6.900000      7.0105533E-31
   6.910000      6.8870799E-31
   6.920000      6.7528845E-31
   6.930000      6.6078835E-31
   6.940000      6.4511027E-31
   6.950000      6.2806033E-31
   6.960000      6.0934604E-31
   6.970000      5.8857966E-31
   6.980000      5.6528771E-31
   6.990000      5.3892574E-31
   7.000000      5.0889826E-31
   7.010000      4.7458332E-31
   7.020000      4.3535976E-31
   7.030000      3.9063654E-31
   7.040000      3.3988227E-31
   7.050000      2.8265295E-31
   7.060000      2.1861672E-31