  -2.600000      0.0000000E+00
  -2.590000      0.0000000E+00
  -2.580000      0.0000000E+00
  -2.570000      0.0000000E+00
  -2.560000      0.0000000E+00
  -2.550000      0.0000000E+00
  -2.540000      0.0000000E+00
  -2.530000      0.0000000E+00
  -2.520000      0.0000000E+00
  -2.510000      0.0000000E+00
  -2.500000      0.0000000E+00
  -2.490000      0.0000000E+00
  -2.480000      0.0000000E+00
  -2.470000      0.0000000E+00
  -2.460000      0.0000000E+00
  -2.450000      0.0000000E+00
  -2.440000      0.0000000E+00
  -2.430000      0.0000000E+00
  -2.420000      0.0000000E+00
  -2.410000      0.0000000E+00
  -2.400000      0.0000000E+00
  -2.390000      0.0000000E+00
  -2.380000      0.0000000E+00
  -2.370000      0.0000000E+00
  -2.360000      0.0000000E+00
  -2.350000      0.0000000E+00
  -2.340000      0.0000000E+00
  -2.330000      0.0000000E+00
  -2.320000      0.0000000E+00
  -2.310000      0.0000000E+00
  -2.300000      0.0000000E+00
  -2.290000      0.0000000E+00
  -2.280000      0.0000000E+00
  -2.270000      0.0000000E+00
  -2.260000      0.0000000E+00
  -2.250000      0.0000000E+00
  -2.240000      0.0000000E+00
  -2.230000      0.0000000E+00
  -2.220000      0.0000000E+00
  -2.210000      0.0000000E+00
  -2.200000      0.0000000E+00
  -2.190000      0.0000000E+00
  -2.180000      0.0000000E+00
  -2.170000      0.0000000E+00
  -2.160000      0.0000000E+00
  -2.150000      0.0000000E+00
  -2.140000      0.0000000E+00
  -2.130000      0.0000000E+00
  -2.120000      0.0000000E+00
  -2.110000      0.0000000E+00
  -2.100000      0.0000000E+00
  -2.090000      0.0000000E+00
  -2.080000      0.0000000E+00
  -2.070000      0.0000000E+00
  -2.060000      0.0000000E+00
  -2.050000      0.0000000E+00
  -2.040000      0.0000000E+00
  -2.030000      0.0000000E+00
  -2.020000      0.0000000E+00
  -2.010000      0.0000000E+00
  -2.000000      0.0000000E+00
  -1.990000      0.0000000E+00
  -1.980000      0.0000000E+00
  -1.970000      0.0000000E+00
  -1.960000      0.0000000E+00
  -1.950000      0.0000000E+00
  -1.940000      0.0000000E+00
  -1.930000      0.0000000E+00
  -1.920000      0.0000000E+00
  -1.910000      0.0000000E+00
  -1.900000      0.0000000E+00
  -1.890000      0.0000000E+00
  -1.880000      0.0000000E+00
  -1.870000      0.0000000E+00
  -1.860000      0.0000000E+00
  -1.850000      0.0000000E+00
  -1.840000      0.0000000E+00
  -1.830000      0.0000000E+00
  -1.820000      0.0000000E+00
  -1.810000      0.0000000E+00
  -1.800000      0.0000000E+00
  -1.790000      0.0000000E+00
  -1.780000      0.0000000E+00
  -1.770000      0.0000000E+00
  -1.760000      0.0000000E+00
  -1.750000      0.0000000E+00
  -1.740000      0.0000000E+00
  -1.730000      0.0000000E+00
  -1.720000      0.0000000E+00
  -1.710000      0.0000000E+00
  -1.700000      0.0000000E+00
  -1.690000      0.0000000E+00
  -1.680000      0.0000000E+00
  -1.670000      0.0000000E+00
  -1.660000      0.0000000E+00
  -1.650000      0.0000000E+00
  -1.640000      0.0000000E+00
  -1.630000      0.0000000E+00
  -1.620000      0.0000000E+00
  -1.610000      0.0000000E+00
  -1.600000      0.0000000E+00
  -1.590000      0.0000000E+00
  -1.580000      0.0000000E+00
  -1.570000      0.0000000E+00
  -1.560000      0.0000000E+00
  -1.550000      0.0000000E+00
  -1.540000      0.0000000E+00
  -1.530000      0.0000000E+00
  -1.520000      0.0000000E+00
  -1.510000      0.0000000E+00
  -1.500000      0.0000000E+00
  -1.490000      0.0000000E+00
  -1.480000      0.0000000E+00
  -1.470000      0.0000000E+00
  -1.460000      0.0000000E+00
  -1.450000      0.0000000E+00
  -1.440000      0.0000000E+00
  -1.430000      0.0000000E+00
  -1.420000      0.0000000E+00
  -1.410000      0.0000000E+00
  -1.400000      0.0000000E+00
  -1.390000      0.0000000E+00
  -1.380000      0.0000000E+00
  -1.370000      0.0000000E+00
  -1.360000      0.0000000E+00
  -1.350000      0.0000000E+00
  -1.340000      0.0000000E+00
  -1.330000      0.0000000E+00
  -1.320000      0.0000000E+00
  -1.310000      0.0000000E+00
  -1.300000      0.0000000E+00
  -1.290000      0.0000000E+00
  -1.280000      0.0000000E+00
  -1.270000      0.0000000E+00
  -1.260000      0.0000000E+00
  -1.250000      0.0000000E+00
  -1.240000      0.0000000E+00
  -1.230000      0.0000000E+00
  -1.220000      0.0000000E+00
  -1.210000      0.0000000E+00
  -1.200000      0.0000000E+00
  -1.190000      0.0000000E+00
  -1.180000      0.0000000E+00
  -1.170000      0.0000000E+00
  -1.160000      0.0000000E+00
  -1.150000      0.0000000E+00
  -1.140000      0.0000000E+00
  -1.130000      0.0000000E+00
  -1.120000      0.0000000E+00
  -1.110000      0.0000000E+00
  -1.100000      0.0000000E+00
  -1.090000      0.0000000E+00
  -1.080000      0.0000000E+00
  -1.070000      0.0000000E+00
  -1.060000      0.0000000E+00
  -1.050000      0.0000000E+00
  -1.040000      0.0000000E+00
  -1.030000      0.0000000E+00
  -1.020000      0.0000000E+00
  -1.010000      0.0000000E+00
  -1.000000      0.0000000E+00
 -0.9900000      0.0000000E+00
 -0.9800000      0.0000000E+00
 -0.9700000      0.0000000E+00
 -0.9600000      0.0000000E+00
 -0.9500000      0.0000000E+00
 -0.9400000      0.0000000E+00
 -0.9300000      0.0000000E+00
 -0.9200000      0.0000000E+00
 -0.9100000      0.0000000E+00
 -0.9000000      0.0000000E+00
 -0.8900000      0.0000000E+00
 -0.8800000      0.0000000E+00
 -0.8700000      0.0000000E+00
 -0.8600000      0.0000000E+00
 -0.8500000      0.0000000E+00
 -0.8400000      0.0000000E+00
 -0.8300000      0.0000000E+00
 -0.8200000      0.0000000E+00
 -0.8100000      0.0000000E+00
 -0.8000000      0.0000000E+00
 -0.7900000      0.0000000E+00
 -0.7800000      0.0000000E+00
 -0.7700000      0.0000000E+00
 -0.7600000      0.0000000E+00
 -0.7500000      0.0000000E+00
 -0.7400000      0.0000000E+00
 -0.7300000      0.0000000E+00
 -0.7200000      0.0000000E+00
 -0.7100000      0.0000000E+00
 -0.7000000      0.0000000E+00
 -0.6900000      0.0000000E+00
 -0.6800000      0.0000000E+00
 -0.6700000      0.0000000E+00
 -0.6600000     -1.2909531E-38
 -0.6500000     -1.5592342E-38
 -0.6400000     -2.0921319E-38
 -0.6300000     -3.2324668E-38
 -0.6200000     -4.8429576E-38
 -0.6100000     -4.4774496E-38
 -0.6000000     -1.6912689E-38
 -0.5900000      1.7010628E-38
 -0.5800000      5.5413855E-38
 -0.5700000      9.2318810E-38
 -0.5600000      1.2214683E-37
 -0.5500000      1.4327260E-37
 -0.5400000      1.5438220E-37
 -0.5300000      1.4307344E-37
 -0.5200000      1.1380520E-37
 -0.5100000      8.1234331E-38
 -0.5000000      4.5425396E-38
 -0.4900000      3.9918030E-38
 -0.4800000      7.3618341E-38
 -0.4700000      1.4706377E-37
 -0.4600000      2.5396324E-37
 -0.4500000      3.6148485E-37
 -0.4400000      4.4387136E-37
 -0.4300000      4.8626505E-37
 -0.4200000      5.1422699E-37
 -0.4100000      5.4354376E-37
 -0.4000000      5.7579506E-37
 -0.3900000      5.9284342E-37
 -0.3800000      5.6399147E-37
 -0.3700000      4.8986063E-37
 -0.3600000      3.8898149E-37
 -0.3500000      2.6261842E-37
 -0.3400000      1.4881648E-37
 -0.3300000      1.2282686E-37
 -0.3200000      1.1870377E-37
 -0.3100000      8.3455272E-38
 -0.3000000      6.9106962E-38
 -0.2900000      6.2624505E-38
 -0.2800000      2.7881196E-38
 -0.2700000     -8.5435923E-38
 -0.2600000     -2.6489166E-37
 -0.2500000     -3.4130111E-37
 -0.2400000     -5.4949886E-37
 -0.2300000     -1.0439798E-36
 -0.2200000     -1.2787658E-36
 -0.2100000     -1.1390766E-36
 -0.2000000     -9.3198069E-37
 -0.1900000     -5.1307492E-37
 -0.1800000     -2.1353555E-37
 -0.1700000     -2.1195980E-37
 -0.1600000     -1.4087839E-37
 -0.1500000     -4.3664093E-38
 -0.1400000     -1.2549274E-38
 -0.1300000     -4.3331862E-38
 -0.1200000     -7.6331317E-38
 -0.1100000     -2.0580530E-37
 -0.1000000     -3.5546763E-37
 -9.0000004E-02 -5.6407689E-37
 -7.9999998E-02 -9.2712220E-37
 -7.0000000E-02 -1.0966323E-36
 -5.9999999E-02 -7.8957711E-37
 -5.0000001E-02 -1.4180871E-37
 -3.9999999E-02  4.7760960E-37
 -2.9999999E-02  1.0298011E-36
 -2.0000000E-02  1.1456035E-36
 -9.9999998E-03  1.0905821E-36
 -3.4694470E-17  1.2699490E-36
  9.9999998E-03  1.4351739E-36
  2.0000000E-02  1.4846811E-36
  2.9999999E-02  1.4605197E-36
  3.9999999E-02  1.7206681E-36
  5.0000001E-02  2.0354957E-36
  5.9999999E-02  2.2723777E-36
  7.0000000E-02  2.7256616E-36
  7.9999998E-02  3.4488627E-36
  9.0000004E-02  4.4084887E-36
  0.1000000      5.7915650E-36
  0.1100000      7.4574060E-36
  0.1200000      9.1365126E-36
  0.1300000      1.0565814E-35
  0.1400000      1.1563298E-35
  0.1500000      1.2210882E-35
  0.1600000      1.2475397E-35
  0.1700000      1.2608077E-35
  0.1800000      1.2527696E-35
  0.1900000      1.1666695E-35
  0.2000000      1.0183102E-35
  0.2100000      8.5199148E-36
  0.2200000      6.0988850E-36
  0.2300000      2.9862267E-36
  0.2400000     -3.1241436E-37
  0.2500000     -2.7538398E-36
  0.2600000     -5.6161725E-36
  0.2700000     -1.0076717E-35
  0.2800000     -1.4114661E-35
  0.2900000     -1.6814569E-35
  0.3000000     -1.8291441E-35
  0.3100000     -1.9556831E-35
  0.3200000     -2.0456417E-35
  0.3300000     -2.1171851E-35
  0.3400000     -2.3440619E-35
  0.3500000     -2.7813172E-35
  0.3600000     -3.3401273E-35
  0.3700000     -4.0027480E-35
  0.3800000     -4.6907703E-35
  0.3900000     -5.2181715E-35
  0.4000000     -5.7513110E-35
  0.4100000     -6.4518161E-35
  0.4200000     -7.2417805E-35
  0.4300000     -8.1519276E-35
  0.4400000     -9.1351420E-35
  0.4500000     -1.0157448E-34
  0.4600000     -1.1234554E-34
  0.4700000     -1.2479334E-34
  0.4800000     -1.3624195E-34
  0.4900000     -1.4553197E-34
  0.5000000     -1.5945125E-34
  0.5100000     -1.7965078E-34
  0.5200000     -2.0477630E-34
  0.5300000     -2.2831677E-34
  0.5400000     -2.4540770E-34
  0.5500000     -2.5686085E-34
  0.5600000     -2.7426180E-34
  0.5700000     -3.0925789E-34
  0.5800000     -3.4475105E-34
  0.5900000     -3.6677451E-34
  0.6000000     -3.7427938E-34
  0.6100000     -3.7923996E-34
  0.6200000     -3.9476282E-34
  0.6300000     -4.1445020E-34
  0.6400000     -4.3294049E-34
  0.6500000     -4.4903893E-34
  0.6600000     -4.5469054E-34
  0.6700000     -4.4674461E-34
  0.6800000     -4.3914986E-34
  0.6900000     -4.4232172E-34
  0.7000000     -4.4670264E-34
  0.7100000     -4.5014863E-34
  0.7200000     -4.7304239E-34
  0.7300000     -5.1355778E-34
  0.7400000     -5.5826637E-34
  0.7500000     -5.9522438E-34
  0.7600000     -6.1807626E-34
  0.7700000     -6.3505807E-34
  0.7800000     -6.4483028E-34
  0.7900000     -6.4645136E-34
  0.8000000     -6.4344894E-34
  0.8100000     -6.3556459E-34
  0.8200000     -6.1999062E-34
  0.8300000     -6.0345022E-34
  0.8400000     -5.8909165E-34
  0.8500000     -5.7090445E-34
  0.8600000     -5.4788074E-34
  0.8700000     -5.0988812E-34
  0.8800000     -4.5253470E-34
  0.8900000     -3.8347064E-34
  0.9000000     -2.9910658E-34
  0.9100000     -1.9647603E-34
  0.9200000     -7.8561967E-35
  0.9300000      4.8335926E-35
  0.9400000      1.7927649E-34
  0.9500000      3.1402893E-34
  0.9600000      4.4924827E-34
  0.9700000      5.8775067E-34
  0.9800000      7.2383255E-34
  0.9900000      8.4786075E-34
   1.000000      9.6226684E-34
   1.010000      1.0693732E-33
   1.020000      1.1692475E-33
   1.030000      1.2645598E-33
   1.040000      1.3600572E-33
   1.050000      1.4597292E-33
   1.060000      1.5760593E-33
   1.070000      1.7184256E-33
   1.080000      1.8854211E-33
   1.090000      2.0813169E-33
   1.100000      2.3181461E-33
   1.110000      2.6002925E-33
   1.120000      2.9269442E-33
   1.130000      3.2995517E-33
   1.140000      3.7139799E-33
   1.150000      4.1650700E-33
   1.160000      4.6473731E-33
   1.170000      5.1522571E-33
   1.180000      5.6712974E-33
   1.190000      6.1970865E-33
   1.200000      6.7173235E-33
   1.210000      7.2340062E-33
   1.220000      7.7474129E-33
   1.230000      8.2422615E-33
   1.240000      8.7127972E-33
   1.250000      9.1568556E-33
   1.260000      9.5696709E-33
   1.270000      9.9492446E-33
   1.280000      1.0299868E-32
   1.290000      1.0624163E-32
   1.300000      1.0930154E-32
   1.310000      1.1233627E-32
   1.320000      1.1550138E-32
   1.330000      1.1897388E-32
   1.340000      1.2295434E-32
   1.350000      1.2762242E-32
   1.360000      1.3322265E-32
   1.370000      1.3997123E-32
   1.380000      1.4805240E-32
   1.390000      1.5760990E-32
   1.400000      1.6863266E-32
   1.410000      1.8095945E-32
   1.420000      1.9440862E-32
   1.430000      2.0882516E-32
   1.440000      2.2402056E-32
   1.450000      2.3964855E-32
   1.460000      2.5522001E-32
   1.470000      2.7043646E-32
   1.480000      2.8504427E-32
   1.490000      2.9872806E-32
   1.500000      3.1129121E-32
   1.510000      3.2259929E-32
   1.520000      3.3258976E-32
   1.530000      3.4135374E-32
   1.540000      3.4909138E-32
   1.550000      3.5610061E-32
   1.560000      3.6283073E-32
   1.570000      3.6980453E-32
   1.580000      3.7760149E-32
   1.590000      3.8687115E-32
   1.600000      3.9826715E-32
   1.610000      4.1243533E-32
   1.620000      4.2996889E-32
   1.630000      4.5138237E-32
   1.640000      4.7706759E-32
   1.650000      5.0725197E-32
   1.660000      5.4196913E-32
   1.670000      5.8103839E-32
   1.680000      6.2405185E-32
   1.690000      6.7037444E-32
   1.700000      7.1916492E-32
   1.710000      7.6941354E-32
   1.720000      8.1997043E-32
   1.730000      8.6960974E-32
   1.740000      9.1709536E-32
   1.750000      9.6130899E-32
   1.760000      1.0012382E-31
   1.770000      1.0360978E-31
   1.780000      1.0654500E-31
   1.790000      1.0892010E-31
   1.800000      1.1076479E-31
   1.810000      1.1214713E-31
   1.820000      1.1317551E-31
   1.830000      1.1399193E-31
   1.840000      1.1476653E-31
   1.850000      1.1568256E-31
   1.860000      1.1692814E-31
   1.870000      1.1868691E-31
   1.880000      1.2111918E-31
   1.890000      1.2434927E-31
   1.900000      1.2845292E-31
   1.910000      1.3344614E-31
   1.920000      1.3927621E-31
   1.930000      1.4581644E-31
   1.940000      1.5286458E-31
   1.950000      1.6014403E-31
   1.960000      1.6731428E-31
   1.970000      1.7397963E-31
   1.980000      1.7970198E-31
   1.990000      1.8402238E-31
   2.000000      1.8648127E-31
   2.010000      1.8664053E-31
   2.020000      1.8410655E-31
   2.030000      1.7855248E-31
   2.040000      1.6973701E-31
   2.050000      1.5751990E-31
   2.060000      1.4187206E-31
   2.070000      1.2287944E-31
   2.080000      1.0073943E-31
   2.090000      7.5749661E-32
   2.100000      4.8288914E-32
   2.110000      1.8790667E-32
   2.120000     -1.2289510E-32
   2.130000     -4.4511681E-32
   2.140000     -7.7492420E-32
   2.150000     -1.1094600E-31
   2.160000     -1.4472378E-31
   2.170000     -1.7884911E-31
   2.180000     -2.1354484E-31
   2.190000     -2.4925128E-31
   2.200000     -2.8663247E-31
   2.210000     -3.2656940E-31
   2.220000     -3.7013933E-31
   2.230000     -4.1858188E-31
   2.240000     -4.7325149E-31
   2.250000     -5.3556012E-31
   2.260000     -6.0691149E-31
   2.270000     -6.8863022E-31
   2.280000     -7.8189055E-31
   2.290000     -8.8764870E-31
   2.300000     -1.0065831E-30
   2.310000     -1.1390472E-30
   2.320000     -1.2850376E-30
   2.330000     -1.4441829E-30
   2.340000     -1.6157523E-30
   2.350000     -1.7986892E-30
   2.360000     -1.9916638E-30
   2.370000     -2.1931499E-30
   2.380000     -2.4015162E-30
   2.390000     -2.6151323E-30
   2.400000     -2.8324812E-30
   2.410000     -3.0522766E-30
   2.420000     -3.2735697E-30
   2.430000     -3.4958420E-30
   2.440000     -3.7190832E-30
   2.450000     -3.9438385E-30
   2.460000     -4.1712238E-30
   2.470000     -4.4029053E-30
   2.480000     -4.6410398E-30
   2.490000     -4.8881798E-30
   2.500000     -5.1471407E-30
   2.510000     -5.4208375E-30
   2.520000     -5.7121006E-30
   2.530000     -6.0234749E-30
   2.540000     -6.3570185E-30
   2.550000     -6.7141108E-30
   2.560000     -7.0952786E-30
   2.570000     -7.5000587E-30
   2.580000     -7.9269050E-30
   2.590000     -8.3731474E-30
   2.600000     -8.8350155E-30
   2.610000     -9.3077162E-30
   2.620000     -9.7855853E-30
   2.630000     -1.0262291E-29
   2.640000     -1.0731084E-29
   2.650000     -1.1185097E-29
   2.660000     -1.1617655E-29
   2.670000     -1.2022594E-29
   2.680000     -1.2394562E-29
   2.690000     -1.2729291E-29
   2.700000     -1.3023806E-29
   2.710000     -1.3276562E-29
   2.720000     -1.3487494E-29
   2.730000     -1.3657971E-29
   2.740000     -1.3790651E-29
   2.750000     -1.3889212E-29
   2.760000     -1.3958018E-29
   2.770000     -1.4001679E-29
   2.780000     -1.4024577E-29
   2.790000     -1.4030321E-29
   2.800000     -1.4021226E-29
   2.810000     -1.3997802E-29
   2.820000     -1.3958310E-29
   2.830000     -1.3898394E-29
   2.840000     -1.3810853E-29
   2.850000     -1.3685538E-29
   2.860000     -1.3509422E-29
   2.870000     -1.3266824E-29
   2.880000     -1.2939818E-29
   2.890000     -1.2508776E-29
   2.900000     -1.1953068E-29
   2.910000     -1.1251839E-29
   2.920000     -1.0384878E-29
   2.930000     -9.3334718E-30
   2.940000     -8.0812419E-30
   2.950000     -6.6148780E-30
   2.960000     -4.9247390E-30
   2.970000     -3.0052647E-30
   2.980000     -8.5515691E-31
   2.990000      1.5226907E-30
   3.000000      4.1215254E-30
   3.010000      6.9313429E-30
   3.020000      9.9397297E-30
   3.030000      1.3132913E-29
   3.040000      1.6497004E-29
   3.050000      2.0019297E-29
   3.060000      2.3689597E-29
   3.070000      2.7501488E-29
   3.080000      3.1453451E-29
   3.090000      3.5549772E-29
   3.100000      3.9801100E-29
   3.110000      4.4224687E-29
   3.120000      4.8844192E-29
   3.130000      5.3689065E-29
   3.140000      5.8793489E-29
   3.150000      6.4194940E-29
   3.160000      6.9932394E-29
   3.170000      7.6044285E-29
   3.180000      8.2566278E-29
   3.190000      8.9529020E-29
   3.200000      9.6956020E-29
   3.210000      1.0486163E-28
   3.220000      1.1324953E-28
   3.230000      1.2211159E-28
   3.240000      1.3142728E-28
   3.250000      1.4116382E-28
   3.260000      1.5127686E-28
   3.270000      1.6171200E-28
   3.280000      1.7240673E-28
   3.290000      1.8329306E-28
   3.300000      1.9430050E-28
   3.310000      2.0535924E-28
   3.320000      2.1640346E-28
   3.330000      2.2737459E-28
   3.340000      2.3822393E-28
   3.350000      2.4891501E-28
   3.360000      2.5942515E-28
   3.370000      2.6974594E-28
   3.380000      2.7988302E-28
   3.390000      2.8985460E-28
   3.400000      2.9968893E-28
   3.410000      3.0942092E-28
   3.420000      3.1908793E-28
   3.430000      3.2872480E-28
   3.440000      3.3835854E-28
   3.450000      3.4800295E-28
   3.460000      3.5765340E-28
   3.470000      3.6728213E-28
   3.480000      3.7683448E-28
   3.490000      3.8622614E-28
   3.500000      3.9534197E-28
   3.510000      4.0403617E-28
   3.520000      4.1213423E-28
   3.530000      4.1943644E-28
   3.540000      4.2572277E-28
   3.550000      4.3075941E-28
   3.560000      4.3430611E-28
   3.570000      4.3612419E-28
   3.580000      4.3598485E-28
   3.590000      4.3367686E-28
   3.600000      4.2901404E-28
   3.610000      4.2184067E-28
   3.620000      4.1203605E-28
   3.630000      3.9951650E-28
   3.640000      3.8423506E-28
   3.650000      3.6617879E-28
   3.660000      3.4536366E-28
   3.670000      3.2182703E-28
   3.680000      2.9561845E-28
   3.690000      2.6678843E-28
   3.700000      2.3537681E-28
   3.710000      2.0140014E-28
   3.720000      1.6484014E-28
   3.730000      1.2563349E-28
   3.740000      8.3663167E-29
   3.750000      3.8752374E-29
   3.760000     -9.3378736E-30
   3.770000     -6.0907944E-29
   3.780000     -1.1631472E-28
   3.790000     -1.7596297E-28
   3.800000     -2.4029289E-28
   3.810000     -3.0976506E-28
   3.820000     -3.8484281E-28
   3.830000     -4.6597249E-28
   3.840000     -5.5356364E-28
   3.850000     -6.4796984E-28
   3.860000     -7.4947082E-28
   3.870000     -8.5825794E-28
   3.880000     -9.7442339E-28
   3.890000     -1.0979536E-27
   3.900000     -1.2287290E-27
   3.910000     -1.3665282E-27
   3.920000     -1.5110392E-27
   3.930000     -1.6618745E-27
   3.940000     -1.8185919E-27
   3.950000     -1.9807184E-27
   3.960000     -2.1477769E-27
   3.970000     -2.3193127E-27
   3.980000     -2.4949207E-27
   3.990000     -2.6742683E-27
   4.000000     -2.8571155E-27
   4.010000     -3.0433271E-27
   4.020000     -3.2328803E-27
   4.030000     -3.4258611E-27
   4.040000     -3.6224558E-27
   4.050000     -3.8229324E-27
   4.060000     -4.0276114E-27
   4.070000     -4.2368329E-27
   4.080000     -4.4509177E-27
   4.090000     -4.6701220E-27
   4.100000     -4.8945953E-27
   4.110000     -5.1243334E-27
   4.120000     -5.3591416E-27
   4.130000     -5.5986002E-27
   4.140000     -5.8420416E-27
   4.150000     -6.0885340E-27
   4.160000     -6.3368796E-27
   4.170000     -6.5856265E-27
   4.180000     -6.8330893E-27
   4.190000     -7.0773866E-27
   4.200000     -7.3164869E-27
   4.210000     -7.5482618E-27
   4.220000     -7.7705480E-27
   4.230000     -7.9812078E-27
   4.240000     -8.1781903E-27
   4.250000     -8.3595891E-27
   4.260000     -8.5236860E-27
   4.270000     -8.6689897E-27
   4.280000     -8.7942506E-27
   4.290000     -8.8984635E-27
   4.300000     -8.9808517E-27
   4.310000     -9.0408282E-27
   4.320000     -9.0779471E-27
   4.330000     -9.0918299E-27
   4.340000     -9.0820909E-27
   4.350000     -9.0482431E-27
   4.360000     -8.9896093E-27
   4.370000     -8.9052281E-27
   4.380000     -8.7937761E-27
   4.390000     -8.6534960E-27
   4.400000     -8.4821498E-27
   4.410000     -8.2769905E-27
   4.420000     -8.0347640E-27
   4.430000     -7.7517340E-27
   4.440000     -7.4237335E-27
   4.450000     -7.0462551E-27
   4.460000     -6.6145502E-27
   4.470000     -6.1237527E-27
   4.480000     -5.5690167E-27
   4.490000     -4.9456621E-27
   4.500000     -4.2493137E-27
   4.510000     -3.4760308E-27
   4.520000     -2.6224215E-27
   4.530000     -1.6857307E-27
   4.540000     -6.6389068E-28
   4.550000      4.4445990E-28
   4.560000      1.6399933E-27
   4.570000      2.9227578E-27
   4.580000      4.2922727E-27
   4.590000      5.7476602E-27
   4.600000      7.2878090E-27
   4.610000      8.9115467E-27
   4.620000      1.0617830E-26
   4.630000      1.2405920E-26
   4.640000      1.4275549E-26
   4.650000      1.6227063E-26
   4.660000      1.8261515E-26
   4.670000      2.0380725E-26
   4.680000      2.2587271E-26
   4.690000      2.4884439E-26
   4.700000      2.7276095E-26
   4.710000      2.9766523E-26
   4.720000      3.2360190E-26
   4.730000      3.5061484E-26
   4.740000      3.7874426E-26
   4.750000      4.0802357E-26
   4.760000      4.3847641E-26
   4.770000      4.7011377E-26
   4.780000      5.0293158E-26
   4.790000      5.3690865E-26
   4.800000      5.7200551E-26
   4.810000      6.0816399E-26
   4.820000      6.4530733E-26
   4.830000      6.8334139E-26
   4.840000      7.2215705E-26
   4.850000      7.6163208E-26
   4.860000      8.0163521E-26
   4.870000      8.4202933E-26
   4.880000      8.8267533E-26
   4.890000      9.2343626E-26
   4.900000      9.6418062E-26
   4.910000      1.0047857E-25
   4.920000      1.0451393E-25
   4.930000      1.0851419E-25
   4.940000      1.1247064E-25
   4.950000      1.1637572E-25
   4.960000      1.2022285E-25
   4.970000      1.2400610E-25
   4.980000      1.2771974E-25
   4.990000      1.3135777E-25
   5.000000      1.3491332E-25
   5.010000      1.3837810E-25
   5.020000      1.4174179E-25
   5.030000      1.4499146E-25
   5.040000      1.4811122E-25
   5.050000      1.5108170E-25
   5.060000      1.5387988E-25
   5.070000      1.5647903E-25
   5.080000      1.5884877E-25
   5.090000      1.6095537E-25
   5.100000      1.6276218E-25
   5.110000      1.6423013E-25
   5.120000      1.6531852E-25
   5.130000      1.6598587E-25
   5.140000      1.6619065E-25
   5.150000      1.6589216E-25
   5.160000      1.6505141E-25
   5.170000      1.6363169E-25
   5.180000      1.6159925E-25
   5.190000      1.5892366E-25
   5.200000      1.5557794E-25
   5.210000      1.5153854E-25
   5.220000      1.4678502E-25
   5.230000      1.4129958E-25
   5.240000      1.3506626E-25
   5.250000      1.2807014E-25
   5.260000      1.2029627E-25
   5.270000      1.1172863E-25
   5.280000      1.0234901E-25
   5.290000      9.2136094E-26
   5.300000      8.1064542E-26
   5.310000      6.9104326E-26
   5.320000      5.6220354E-26
   5.330000      4.2372425E-26
   5.340000      2.7515468E-26
   5.350000      1.1600109E-26
   5.360000     -5.4264159E-27
   5.370000     -2.3619084E-26
   5.380000     -4.3033567E-26
   5.390000     -6.3724523E-26
   5.400000     -8.5743874E-26
   5.410000     -1.0913912E-25
   5.420000     -1.3395139E-25
   5.430000     -1.6021411E-25
   5.440000     -1.8795176E-25
   5.450000     -2.1717886E-25
   5.460000     -2.4789944E-25
   5.470000     -2.8010718E-25
   5.480000     -3.1378562E-25
   5.490000     -3.4890911E-25
   5.500000     -3.8544407E-25
   5.510000     -4.2335054E-25
   5.520000     -4.6258404E-25
   5.530000     -5.0309792E-25
   5.540000     -5.4484498E-25
   5.550000     -5.8777952E-25
   5.560000     -6.3185915E-25
   5.570000     -6.7704613E-25
   5.580000     -7.2330775E-25
   5.590000     -7.7061697E-25
   5.600000     -8.1895210E-25
   5.610000     -8.6829555E-25
   5.620000     -9.1863217E-25
   5.630000     -9.6994688E-25
   5.640000     -1.0222222E-24
   5.650000     -1.0754355E-24
   5.660000     -1.1295550E-24
   5.670000     -1.1845369E-24
   5.680000     -1.2403219E-24
   5.690000     -1.2968323E-24
   5.700000     -1.3539702E-24
   5.710000     -1.4116150E-24
   5.720000     -1.4696232E-24
   5.730000     -1.5278280E-24
   5.740000     -1.5860401E-24
   5.750000     -1.6440498E-24
   5.760000     -1.7016294E-24
   5.770000     -1.7585366E-24
   5.780000     -1.8145177E-24
   5.790000     -1.8693128E-24
   5.800000     -1.9226591E-24
   5.810000     -1.9742950E-24
   5.820000     -2.0239639E-24
   5.830000     -2.0714176E-24
   5.840000     -2.1164180E-24
   5.850000     -2.1587378E-24
   5.860000     -2.1981625E-24
   5.870000     -2.2344872E-24
   5.880000     -2.2675150E-24
   5.890000     -2.2970533E-24
   5.900000     -2.3229086E-24
   5.910000     -2.3448835E-24
   5.920000     -2.3627694E-24
   5.930000     -2.3763407E-24
   5.940000     -2.3853507E-24
   5.950000     -2.3895261E-24
   5.960000     -2.3885627E-24
   5.970000     -2.3821239E-24
   5.980000     -2.3698385E-24
   5.990000     -2.3513021E-24
   6.000000     -2.3260785E-24
   6.010000     -2.2937050E-24
   6.020000     -2.2536965E-24
   6.030000     -2.2055519E-24
   6.040000     -2.1487640E-24
   6.050000     -2.0828263E-24
   6.060000     -2.0072420E-24
   6.070000     -1.9215332E-24
   6.080000     -1.8252482E-24
   6.090000     -1.7179689E-24
   6.100000     -1.5993146E-24
   6.110000     -1.4689475E-24
   6.120000     -1.3265726E-24
   6.130000     -1.1719372E-24
   6.140000     -1.0048286E-24
   6.150000     -8.2506794E-25
   6.160000     -6.3250374E-25
   6.170000     -4.2700390E-25
   6.180000     -2.0844668E-25
   6.190000      2.3288366E-26
   6.200000      2.6833010E-25
   6.210000      5.2682340E-25
   6.220000      7.9893624E-25
   6.230000      1.0848642E-24
   6.240000      1.3848314E-24
   6.250000      1.6990896E-24
   6.260000      2.0279145E-24
   6.270000      2.3715969E-24
   6.280000      2.7304349E-24
   6.290000      3.1047177E-24
   6.300000      3.4947130E-24
   6.310000      3.9006513E-24
   6.320000      4.3227097E-24
   6.330000      4.7609933E-24
   6.340000      5.2155211E-24
   6.350000      5.6862159E-24
   6.360000      6.1728906E-24
   6.370000      6.6752432E-24
   6.380000      7.1928527E-24
   6.390000      7.7251792E-24
   6.400000      8.2715726E-24
   6.410000      8.8312765E-24
   6.420000      9.4034444E-24
   6.430000      9.9871534E-24
   6.440000      1.0581421E-23
   6.450000      1.1185222E-23
   6.460000      1.1797506E-23
   6.470000      1.2417214E-23
   6.480000      1.3043290E-23
   6.490000      1.3674696E-23
   6.500000      1.4310405E-23
   6.510000      1.4949421E-23
   6.520000      1.5590752E-23
   6.530000      1.6233415E-23
   6.540000      1.6876418E-23
   6.550000      1.7518733E-23
   6.560000      1.8159278E-23
   6.570000      1.8796899E-23
   6.580000      1.9430327E-23
   6.590000      2.0058166E-23
   6.600000      2.0678859E-23
   6.610000      2.1290676E-23
   6.620000      2.1891690E-23
   6.630000      2.2479776E-23
   6.640000      2.3052598E-23
   6.650000      2.3607623E-23
   6.660000      2.4142133E-23
   6.670000      2.4653235E-23
   6.680000      2.5137892E-23
   6.690000      2.5592951E-23
   6.700000      2.6015187E-23
   6.710000      2.6401325E-23
   6.720000      2.6748087E-23
   6.730000      2.7052208E-23
   6.740000      2.7310500E-23
   6.750000      2.7519836E-23
   6.760000      2.7677204E-23
   6.770000      2.7779686E-23
   6.780000      2.7824475E-23
   6.790000      2.7808862E-23
   6.800000      2.7730215E-23
   6.810000      2.7585955E-23
   6.820000      2.7373521E-23
   6.830000      2.7090329E-23
   6.840000      2.6733748E-23
   6.850000      2.6301049E-23
   6.860000      2.5789356E-23
   6.870000      2.5195646E-23
   6.880000      2.4516710E-23
   6.890000      2.3749140E-23
   6.900000      2.2889351E-23
   6.910000      2.1933571E-23
   6.920000      2.0877874E-23
   6.930000      1.9718225E-23
   6.940000      1.8450518E-23
   6.950000      1.7070645E-23
   6.960000      1.5574563E-23
   6.970000      1.3958349E-23
   6.980000      1.2218290E-23
   6.990000      1.0350938E-23
   7.000000      8.3531700E-24
   7.010000      6.2222500E-24
   7.020000      3.9558574E-24
   7.030000      1.5521108E-24
   7.040000     -9.9041733E-25
   7.050000     -3.6727092E-24
   7.060000     -6.4953249E-24