  -2.600000      0.0000000E+00
  -2.590000      0.0000000E+00
  -2.580000      0.0000000E+00
  -2.570000      0.0000000E+00
  -2.560000     -1.1793434E-30
  -2.550000     -1.2024658E-29
  -2.540000     -6.4416458E-29
  -2.530000     -2.4054270E-28
  -2.520000     -6.9783308E-28
  -2.510000     -1.6532314E-27
  -2.500000     -3.2506909E-27
  -2.490000     -5.1925436E-27
  -2.480000     -5.9784012E-27
  -2.470000     -1.5830049E-27
  -2.460000      1.6559745E-26
  -2.450000      6.4291048E-26
  -2.440000      1.6800420E-25
  -2.430000      3.6799114E-25
  -2.420000      7.2100615E-25
  -2.410000      1.3007822E-24
  -2.400000      2.1948737E-24
  -2.390000      3.4960059E-24
  -2.380000      5.2862441E-24
  -2.370000      7.6128785E-24
  -2.360000      1.0456139E-23
  -2.350000      1.3690687E-23
  -2.340000      1.7045315E-23
  -2.330000      2.0068186E-23
  -2.320000      2.2107783E-23
  -2.310000      2.2322190E-23
  -2.300000      1.9730246E-23
  -2.290000      1.3317091E-23
  -2.280000      2.2026300E-24
  -2.270000     -1.4126265E-23
  -2.260000     -3.5530178E-23
  -2.250000     -6.0903476E-23
  -2.240000     -8.7874795E-23
  -2.230000     -1.1258147E-22
  -2.220000     -1.2959267E-22
  -2.210000     -1.3206508E-22
  -2.200000     -1.1221471E-22
  -2.190000     -6.2173315E-23
  -2.180000      2.4731608E-23
  -2.170000      1.5228476E-22
  -2.160000      3.1935652E-22
  -2.150000      5.1770142E-22
  -2.140000      7.2983139E-22
  -2.130000      9.2730087E-22
  -2.120000      1.0698173E-21
  -2.110000      1.1056334E-21
  -2.100000      9.7368215E-22
  -2.090000      6.0785466E-22
  -2.080000     -5.6305591E-23
  -2.070000     -1.0724228E-21
  -2.060000     -2.4718380E-21
  -2.050000     -4.2504454E-21
  -2.040000     -6.3547638E-21
  -2.030000     -8.6685959E-21
  -2.020000     -1.1002004E-20
  -2.010000     -1.3084613E-20
  -2.000000     -1.4565424E-20
  -1.990000     -1.5021306E-20
  -1.980000     -1.3976055E-20
  -1.970000     -1.0931412E-20
  -1.960000     -5.4106086E-21
  -1.950000      2.9860542E-21
  -1.940000      1.4515419E-20
  -1.930000      2.9218766E-20
  -1.920000      4.6847086E-20
  -1.910000      6.6790679E-20
  -1.900000      8.8020728E-20
  -1.890000      1.0905149E-19
  -1.880000      1.2793195E-19
  -1.870000      1.4227593E-19
  -1.860000      1.4933774E-19
  -1.850000      1.4613937E-19
  -1.840000      1.2965147E-19
  -1.830000      9.7027110E-20
  -1.820000      4.5882219E-20
  -1.810000     -2.5388010E-20
  -1.800000     -1.1727317E-19
  -1.790000     -2.2881372E-19
  -1.780000     -3.5729547E-19
  -1.770000     -4.9800192E-19
  -1.760000     -6.4405673E-19
  -1.750000     -7.8638851E-19
  -1.740000     -9.1384763E-19
  -1.730000     -1.0135002E-18
  -1.720000     -1.0711174E-18
  -1.710000     -1.0718682E-18
  -1.700000     -1.0012090E-18
  -1.690000     -8.4595477E-19
  -1.680000     -5.9549503E-19
  -1.670000     -2.4310662E-19
  -1.660000      2.1269976E-19
  -1.650000      7.6687589E-19
  -1.640000      1.4066589E-18
  -1.630000      2.1106101E-18
  -1.620000      2.8479566E-18
  -1.610000      3.5783167E-18
  -1.600000      4.2518771E-18
  -1.590000      4.8100623E-18
  -1.580000      5.1867219E-18
  -1.570000      5.3098204E-18
  -1.560000      5.1035811E-18
  -1.550000      4.4910055E-18
  -1.540000      3.3966375E-18
  -1.530000      1.7494365E-18
  -1.520000     -5.1443220E-19
  -1.510000     -3.4490762E-18
  -1.500000     -7.0968275E-18
  -1.490000     -1.1486864E-17
  -1.480000     -1.6634667E-17
  -1.470000     -2.2542445E-17
  -1.460000     -2.9200637E-17
  -1.450000     -3.6590497E-17
  -1.440000     -4.4687708E-17
  -1.430000     -5.3466940E-17
  -1.420000     -6.2907105E-17
  -1.410000     -7.2997068E-17
  -1.400000     -8.3741449E-17
  -1.390000     -9.5166203E-17
  -1.380000     -1.0732339E-16
  -1.370000     -1.2029492E-16
  -1.360000     -1.3419477E-16
  -1.350000     -1.4916932E-16
  -1.340000     -1.6539560E-16
  -1.330000     -1.8307726E-16
  -1.320000     -2.0243836E-16
  -1.310000     -2.2371480E-16
  -1.300000     -2.4714418E-16
  -1.290000     -2.7295417E-16
  -1.280000     -3.0135000E-16
  -1.270000     -3.3250207E-16
  -1.260000     -3.6653429E-16
  -1.250000     -4.0351403E-16
  -1.240000     -4.4344454E-16
  -1.230000     -4.8626081E-16
  -1.220000     -5.3182928E-16
  -1.210000     -5.7995197E-16
  -1.200000     -6.3037574E-16
  -1.190000     -6.8280586E-16
  -1.180000     -7.3692438E-16
  -1.170000     -7.9241235E-16
  -1.160000     -8.4897461E-16
  -1.150000     -9.0636750E-16
  -1.140000     -9.6442515E-16
  -1.130000     -1.0230864E-15
  -1.120000     -1.0824175E-15
  -1.110000     -1.1426310E-15
  -1.100000     -1.2040993E-15
  -1.090000     -1.2673584E-15
  -1.080000     -1.3331065E-15
  -1.070000     -1.4021915E-15
  -1.060000     -1.4755915E-15
  -1.050000     -1.5543859E-15
  -1.040000     -1.6397204E-15
  -1.030000     -1.7327653E-15
  -1.020000     -1.8346715E-15
  -1.010000     -1.9465251E-15
  -1.000000     -2.0693059E-15
 -0.9900000     -2.2038484E-15
 -0.9800000     -2.3508116E-15
 -0.9700000     -2.5106613E-15
 -0.9600000     -2.6836617E-15
 -0.9500000     -2.8698851E-15
 -0.9400000     -3.0692334E-15
 -0.9300000     -3.2814770E-15
 -0.9200000     -3.5063079E-15
 -0.9100000     -3.7434041E-15
 -0.9000000     -3.9925025E-15
 -0.8900000     -4.2534801E-15
 -0.8800000     -4.5264327E-15
 -0.8700000     -4.8117528E-15
 -0.8600000     -5.1101964E-15
 -0.8500000     -5.4229366E-15
 -0.8400000     -5.7515989E-15
 -0.8300000     -6.0982768E-15
 -0.8200000     -6.4655194E-15
 -0.8100000     -6.8562946E-15
 -0.8000000     -7.2739293E-15
 -0.7900000     -7.7220225E-15
 -0.7800000     -8.2043340E-15
 -0.7700000     -8.7246672E-15
 -0.7600000     -9.2867379E-15
 -0.7500000     -9.8940402E-15
 -0.7400000     -1.0549728E-14
 -0.7300000     -1.1256494E-14
 -0.7200000     -1.2016491E-14
 -0.7100000     -1.2831271E-14
 -0.7000000     -1.3701773E-14
 -0.6900000     -1.4628335E-14
 -0.6800000     -1.5610761E-14
 -0.6700000     -1.6648433E-14
 -0.6600000     -1.7740439E-14
 -0.6500000     -1.8885770E-14
 -0.6400000     -2.0083515E-14
 -0.6300000     -2.1333075E-14
 -0.6200000     -2.2634391E-14
 -0.6100000     -2.3988141E-14
 -0.6000000     -2.5395942E-14
 -0.5900000     -2.6860479E-14
 -0.5800000     -2.8385614E-14
 -0.5700000     -2.9976428E-14
 -0.5600000     -3.1639178E-14
 -0.5500000     -3.3381219E-14
 -0.5400000     -3.5210831E-14
 -0.5300000     -3.7137004E-14
 -0.5200000     -3.9169141E-14
 -0.5100000     -4.1316739E-14
 -0.5000000     -4.3589074E-14
 -0.4900000     -4.5994848E-14
 -0.4800000     -4.8541845E-14
 -0.4700000     -5.1236664E-14
 -0.4600000     -5.4084443E-14
 -0.4500000     -5.7088747E-14
 -0.4400000     -6.0251486E-14
 -0.4300000     -6.3572960E-14
 -0.4200000     -6.7051975E-14
 -0.4100000     -7.0686119E-14
 -0.4000000     -7.4472085E-14
 -0.3900000     -7.8406106E-14
 -0.3800000     -8.2484441E-14
 -0.3700000     -8.6703885E-14
 -0.3600000     -9.1062296E-14
 -0.3500000     -9.5559086E-14
 -0.3400000     -1.0019566E-13
 -0.3300000     -1.0497576E-13
 -0.3200000     -1.0990572E-13
 -0.3100000     -1.1499456E-13
 -0.3000000     -1.2025393E-13
 -0.2900000     -1.2569787E-13
 -0.2800000     -1.3134241E-13
 -0.2700000     -1.3720509E-13
 -0.2600000     -1.4330435E-13
 -0.2500000     -1.4965870E-13
 -0.2400000     -1.5628595E-13
 -0.2300000     -1.6320238E-13
 -0.2200000     -1.7042200E-13
 -0.2100000     -1.7795597E-13
 -0.2000000     -1.8581196E-13
 -0.1900000     -1.9399387E-13
 -0.1800000     -2.0250149E-13
 -0.1700000     -2.1133068E-13
 -0.1600000     -2.2047366E-13
 -0.1500000     -2.2991960E-13
 -0.1400000     -2.3965544E-13
 -0.1300000     -2.4966677E-13
 -0.1200000     -2.5993880E-13
 -0.1100000     -2.7045759E-13
 -0.1000000     -2.8121133E-13
 -9.0000004E-02 -2.9219121E-13
 -7.9999998E-02 -3.0339265E-13
 -7.0000000E-02 -3.1481591E-13
 -5.9999999E-02 -3.2646680E-13
 -5.0000001E-02 -3.3835673E-13
 -3.9999999E-02 -3.5050261E-13
 -2.9999999E-02 -3.6292649E-13
 -2.0000000E-02 -3.7565464E-13
 -9.9999998E-03 -3.8871657E-13
 -3.4694470E-17 -4.0214362E-13
  9.9999998E-03 -4.1596742E-13
  2.0000000E-02 -4.3021804E-13
  2.9999999E-02 -4.4492234E-13
  3.9999999E-02 -4.6010255E-13
  5.0000001E-02 -4.7577486E-13
  5.9999999E-02 -4.9194785E-13
  7.0000000E-02 -5.0862184E-13
  7.9999998E-02 -5.2578894E-13
  9.0000004E-02 -5.4343265E-13
  0.1000000     -5.6152874E-13
  0.1100000     -5.8004637E-13
  0.1200000     -5.9894944E-13
  0.1300000     -6.1819880E-13
  0.1400000     -6.3775439E-13
  0.1500000     -6.5757756E-13
  0.1600000     -6.7763357E-13
  0.1700000     -6.9789378E-13
  0.1800000     -7.1833777E-13
  0.1900000     -7.3895496E-13
  0.2000000     -7.5974573E-13
  0.2100000     -7.8072168E-13
  0.2200000     -8.0190574E-13
  0.2300000     -8.2333110E-13
  0.2400000     -8.4503980E-13
  0.2500000     -8.6708033E-13
  0.2600000     -8.8950505E-13
  0.2700000     -9.1236719E-13
  0.2800000     -9.3571722E-13
  0.2900000     -9.5959915E-13
  0.3000000     -9.8404780E-13
  0.3100000     -1.0090856E-12
  0.3200000     -1.0347203E-12
  0.3300000     -1.0609430E-12
  0.3400000     -1.0877283E-12
  0.3500000     -1.1150335E-12
  0.3600000     -1.1428007E-12
  0.3700000     -1.1709582E-12
  0.3800000     -1.1994242E-12
  0.3900000     -1.2281098E-12
  0.4000000     -1.2569227E-12
  0.4100000     -1.2857736E-12
  0.4200000     -1.3145796E-12
  0.4300000     -1.3432686E-12
  0.4400000     -1.3717834E-12
  0.4500000     -1.4000856E-12
  0.4600000     -1.4281559E-12
  0.4700000     -1.4559960E-12
  0.4800000     -1.4836284E-12
  0.4900000     -1.5110945E-12
  0.5000000     -1.5384518E-12
  0.5100000     -1.5657693E-12
  0.5200000     -1.5931222E-12
  0.5300000     -1.6205863E-12
  0.5400000     -1.6482320E-12
  0.5500000     -1.6761160E-12
  0.5600000     -1.7042755E-12
  0.5700000     -1.7327244E-12
  0.5800000     -1.7614470E-12
  0.5900000     -1.7903953E-12
  0.6000000     -1.8194871E-12
  0.6100000     -1.8486072E-12
  0.6200000     -1.8776072E-12
  0.6300000     -1.9063093E-12
  0.6400000     -1.9345142E-12
  0.6500000     -1.9620050E-12
  0.6600000     -1.9885554E-12
  0.6700000     -2.0139381E-12
  0.6800000     -2.0379343E-12
  0.6900000     -2.0603406E-12
  0.7000000     -2.0809771E-12
  0.7100000     -2.0996915E-12
  0.7200000     -2.1163626E-12
  0.7300000     -2.1309029E-12
  0.7400000     -2.1432584E-12
  0.7500000     -2.1534038E-12
  0.7600000     -2.1613377E-12
  0.7700000     -2.1670755E-12
  0.7800000     -2.1706406E-12
  0.7900000     -2.1720505E-12
  0.8000000     -2.1713070E-12
  0.8100000     -2.1683835E-12
  0.8200000     -2.1632134E-12
  0.8300000     -2.1556804E-12
  0.8400000     -2.1456094E-12
  0.8500000     -2.1327614E-12
  0.8600000     -2.1168299E-12
  0.8700000     -2.0974420E-12
  0.8800000     -2.0741618E-12
  0.8900000     -2.0464943E-12
  0.9000000     -2.0138951E-12
  0.9100000     -1.9757841E-12
  0.9200000     -1.9315591E-12
  0.9300000     -1.8806057E-12
  0.9400000     -1.8223186E-12
  0.9500000     -1.7561131E-12
  0.9600000     -1.6814358E-12
  0.9700000     -1.5977790E-12
  0.9800000     -1.5046823E-12
  0.9900000     -1.4017408E-12
   1.000000     -1.2886037E-12
   1.010000     -1.1649668E-12
   1.020000     -1.0305666E-12
   1.030000     -8.8516575E-13
   1.040000     -7.2853588E-13
   1.050000     -5.6044389E-13
   1.060000     -3.8063194E-13
   1.070000     -1.8879726E-13
   1.080000      1.5426220E-14
   1.090000      2.3248618E-13
   1.100000      4.6292261E-13
   1.110000      7.0737909E-13
   1.120000      9.6660700E-13
   1.130000      1.2414633E-12
   1.140000      1.5329064E-12
   1.150000      1.8419842E-12
   1.160000      2.1698151E-12
   1.170000      2.5175641E-12
   1.180000      2.8864192E-12
   1.190000      3.2775692E-12
   1.200000      3.6921742E-12
   1.210000      4.1313372E-12
   1.220000      4.5960753E-12
   1.230000      5.0873047E-12
   1.240000      5.6058292E-12
   1.250000      6.1523278E-12
   1.260000      6.7273522E-12
   1.270000      7.3313326E-12
   1.280000      7.9645943E-12
   1.290000      8.6273679E-12
   1.300000      9.3198140E-12
   1.310000      1.0042056E-11
   1.320000      1.0794199E-11
   1.330000      1.1576368E-11
   1.340000      1.2388724E-11
   1.350000      1.3231494E-11
   1.360000      1.4104999E-11
   1.370000      1.5009653E-11
   1.380000      1.5945974E-11
   1.390000      1.6914562E-11
   1.400000      1.7916110E-11
   1.410000      1.8951377E-11
   1.420000      2.0021143E-11
   1.430000      2.1126184E-11
   1.440000      2.2267218E-11
   1.450000      2.3444859E-11
   1.460000      2.4659587E-11
   1.470000      2.5911686E-11
   1.480000      2.7201200E-11
   1.490000      2.8527909E-11
   1.500000      2.9891287E-11
   1.510000      3.1290488E-11
   1.520000      3.2724351E-11
   1.530000      3.4191382E-11
   1.540000      3.5689795E-11
   1.550000      3.7217521E-11
   1.560000      3.8772260E-11
   1.570000      4.0351500E-11
   1.580000      4.1952580E-11
   1.590000      4.3572725E-11
   1.600000      4.5209097E-11
   1.610000      4.6858826E-11
   1.620000      4.8519039E-11
   1.630000      5.0186893E-11
   1.640000      5.1859576E-11
   1.650000      5.3534309E-11
   1.660000      5.5208324E-11
   1.670000      5.6878814E-11
   1.680000      5.8542914E-11
   1.690000      6.0197645E-11
   1.700000      6.1839818E-11
   1.710000      6.3466017E-11
   1.720000      6.5072475E-11
   1.730000      6.6655022E-11
   1.740000      6.8209043E-11
   1.750000      6.9729410E-11
   1.760000      7.1210468E-11
   1.770000      7.2645986E-11
   1.780000      7.4029186E-11
   1.790000      7.5352738E-11
   1.800000      7.6608810E-11
   1.810000      7.7789108E-11
   1.820000      7.8884961E-11
   1.830000      7.9887388E-11
   1.840000      8.0787155E-11
   1.850000      8.1574879E-11
   1.860000      8.2241124E-11
   1.870000      8.2776487E-11
   1.880000      8.3171643E-11
   1.890000      8.3417412E-11
   1.900000      8.3504731E-11
   1.910000      8.3424767E-11
   1.920000      8.3168861E-11
   1.930000      8.2728498E-11
   1.940000      8.2095275E-11
   1.950000      8.1260804E-11
   1.960000      8.0216681E-11
   1.970000      7.8954406E-11
   1.980000      7.7465243E-11
   1.990000      7.5740234E-11
   2.000000      7.3770066E-11
   2.010000      7.1545013E-11
   2.020000      6.9054977E-11
   2.030000      6.6289481E-11
   2.040000      6.3237630E-11
   2.050000      5.9888150E-11
   2.060000      5.6229549E-11
   2.070000      5.2250176E-11
   2.080000      4.7938362E-11
   2.090000      4.3282537E-11
   2.100000      3.8271351E-11
   2.110000      3.2893920E-11
   2.120000      2.7139943E-11
   2.130000      2.0999879E-11
   2.140000      1.4465078E-11
   2.150000      7.5278603E-12
   2.160000      1.8160567E-13
   2.170000     -7.5792012E-12
   2.180000     -1.5758905E-11
   2.190000     -2.4360765E-11
   2.200000     -3.3387033E-11
   2.210000     -4.2838937E-11
   2.220000     -5.2716796E-11
   2.230000     -6.3020075E-11
   2.240000     -7.3747522E-11
   2.250000     -8.4897284E-11
   2.260000     -9.6466980E-11
   2.270000     -1.0845374E-10
   2.280000     -1.2085424E-10
   2.290000     -1.3366472E-10
   2.300000     -1.4688088E-10
   2.310000     -1.6049784E-10
   2.320000     -1.7451002E-10
   2.330000     -1.8891103E-10
   2.340000     -2.0369344E-10
   2.350000     -2.1884854E-10
   2.360000     -2.3436622E-10
   2.370000     -2.5023469E-10
   2.380000     -2.6644034E-10
   2.390000     -2.8296743E-10
   2.400000     -2.9979794E-10
   2.410000     -3.1691141E-10
   2.420000     -3.3428485E-10
   2.430000     -3.5189279E-10
   2.440000     -3.6970724E-10
   2.450000     -3.8769768E-10
   2.460000     -4.0583131E-10
   2.470000     -4.2407311E-10
   2.480000     -4.4238585E-10
   2.490000     -4.6073054E-10
   2.500000     -4.7906662E-10
   2.510000     -4.9735210E-10
   2.520000     -5.1554355E-10
   2.530000     -5.3359650E-10
   2.540000     -5.5146554E-10
   2.550000     -5.6910437E-10
   2.560000     -5.8646582E-10
   2.570000     -6.0350197E-10
   2.580000     -6.2016386E-10
   2.590000     -6.3640160E-10
   2.600000     -6.5216416E-10
   2.610000     -6.6739891E-10
   2.620000     -6.8205186E-10
   2.630000     -6.9606698E-10
   2.640000     -7.0938655E-10
   2.650000     -7.2195078E-10
   2.660000     -7.3369733E-10
   2.670000     -7.4456180E-10
   2.680000     -7.5447759E-10
   2.690000     -7.6337558E-10
   2.700000     -7.7118473E-10
   2.710000     -7.7783230E-10
   2.720000     -7.8324391E-10
   2.730000     -7.8734413E-10
   2.740000     -7.9005619E-10
   2.750000     -7.9130325E-10
   2.760000     -7.9100859E-10
   2.770000     -7.8909612E-10
   2.780000     -7.8549084E-10
   2.790000     -7.8011853E-10
   2.800000     -7.7290707E-10
   2.810000     -7.6378642E-10
   2.820000     -7.5268852E-10
   2.830000     -7.3954798E-10
   2.840000     -7.2430195E-10
   2.850000     -7.0688971E-10
   2.860000     -6.8725287E-10
   2.870000     -6.6533534E-10
   2.880000     -6.4108319E-10
   2.890000     -6.1444477E-10
   2.900000     -5.8537014E-10
   2.910000     -5.5381155E-10
   2.920000     -5.1972310E-10
   2.930000     -4.8306004E-10
   2.940000     -4.4377976E-10
   2.950000     -4.0184195E-10
   2.960000     -3.5720871E-10
   2.970000     -3.0984526E-10
   2.980000     -2.5971997E-10
   2.990000     -2.0680503E-10
   3.000000     -1.5107735E-10
   3.010000     -9.2518958E-11
   3.020000     -3.1117692E-11
   3.030000      3.3132178E-11
   3.040000      1.0022922E-10
   3.050000      1.7016447E-10
   3.060000      2.4292074E-10
   3.070000      3.1847242E-10
   3.080000      3.9678519E-10
   3.090000      4.7781512E-10
   3.100000      5.6150912E-10
   3.110000      6.4780542E-10
   3.120000      7.3663331E-10
   3.130000      8.2791329E-10
   3.140000      9.2155739E-10
   3.150000      1.0174698E-09
   3.160000      1.1155472E-09
   3.170000      1.2156791E-09
   3.180000      1.3177468E-09
   3.190000      1.4216254E-09
   3.200000      1.5271830E-09
   3.210000      1.6342813E-09
   3.220000      1.7427740E-09
   3.230000      1.8525081E-09
   3.240000      1.9633226E-09
   3.250000      2.0750484E-09
   3.260000      2.1875086E-09
   3.270000      2.3005167E-09
   3.280000      2.4138769E-09
   3.290000      2.5273830E-09
   3.300000      2.6408176E-09
   3.310000      2.7539533E-09
   3.320000      2.8665517E-09
   3.330000      2.9783638E-09
   3.340000      3.0891281E-09
   3.350000      3.1985736E-09
   3.360000      3.3064176E-09
   3.370000      3.4123691E-09
   3.380000      3.5161278E-09
   3.390000      3.6173846E-09
   3.400000      3.7158245E-09
   3.410000      3.8111261E-09
   3.420000      3.9029624E-09
   3.430000      3.9910031E-09
   3.440000      4.0749146E-09
   3.450000      4.1543609E-09
   3.460000      4.2290038E-09
   3.470000      4.2985064E-09
   3.480000      4.3625303E-09
   3.490000      4.4207376E-09
   3.500000      4.4727897E-09
   3.510000      4.5183501E-09
   3.520000      4.5570823E-09
   3.530000      4.5886481E-09
   3.540000      4.6127142E-09
   3.550000      4.6289452E-09
   3.560000      4.6370059E-09
   3.570000      4.6365640E-09
   3.580000      4.6272879E-09
   3.590000      4.6088475E-09
   3.600000      4.5809152E-09
   3.610000      4.5431681E-09
   3.620000      4.4952841E-09
   3.630000      4.4369495E-09
   3.640000      4.3678599E-09
   3.650000      4.2877164E-09
   3.660000      4.1962327E-09
   3.670000      4.0931343E-09
   3.680000      3.9781627E-09
   3.690000      3.8510763E-09
   3.700000      3.7116508E-09
   3.710000      3.5596819E-09
   3.720000      3.3949856E-09
   3.730000      3.2173997E-09
   3.740000      3.0267853E-09
   3.750000      2.8230269E-09
   3.760000      2.6060334E-09
   3.770000      2.3757392E-09
   3.780000      2.1321029E-09
   3.790000      1.8751096E-09
   3.800000      1.6047694E-09
   3.810000      1.3211170E-09
   3.820000      1.0242118E-09
   3.830000      7.1413714E-10
   3.840000      3.9100115E-10
   3.850000      5.4937915E-11
   3.860000     -2.9389349E-10
   3.870000     -6.5530525E-10
   3.880000     -1.0290847E-09
   3.890000     -1.4149895E-09
   3.900000     -1.8127447E-09
   3.910000     -2.2220439E-09
   3.920000     -2.6425484E-09
   3.930000     -3.0738840E-09
   3.940000     -3.5156378E-09
   3.950000     -3.9673602E-09
   3.960000     -4.4285633E-09
   3.970000     -4.8987179E-09
   3.980000     -5.3772524E-09
   3.990000     -5.8635559E-09
   4.000000     -6.3569754E-09
   4.010000     -6.8568182E-09
   4.020000     -7.3623521E-09
   4.030000     -7.8728055E-09
   4.040000     -8.3873699E-09
   4.050000     -8.9052019E-09
   4.060000     -9.4254178E-09
   4.070000     -9.9471045E-09
   4.080000     -1.0469315E-08
   4.090000     -1.0991075E-08
   4.100000     -1.1511384E-08
   4.110000     -1.2029211E-08
   4.120000     -1.2543499E-08
   4.130000     -1.3053166E-08
   4.140000     -1.3557104E-08
   4.150000     -1.4054184E-08
   4.160000     -1.4543257E-08
   4.170000     -1.5023151E-08
   4.180000     -1.5492672E-08
   4.190000     -1.5950606E-08
   4.200000     -1.6395719E-08
   4.210000     -1.6826752E-08
   4.220000     -1.7242430E-08
   4.230000     -1.7641453E-08
   4.240000     -1.8022508E-08
   4.250000     -1.8384261E-08
   4.260000     -1.8725368E-08
   4.270000     -1.9044469E-08
   4.280000     -1.9340195E-08
   4.290000     -1.9611177E-08
   4.300000     -1.9856040E-08
   4.310000     -2.0073413E-08
   4.320000     -2.0261941E-08
   4.330000     -2.0420277E-08
   4.340000     -2.0547086E-08
   4.350000     -2.0641055E-08
   4.360000     -2.0700902E-08
   4.370000     -2.0725366E-08
   4.380000     -2.0713209E-08
   4.390000     -2.0663238E-08
   4.400000     -2.0574294E-08
   4.410000     -2.0445263E-08
   4.420000     -2.0275071E-08
   4.430000     -2.0062677E-08
   4.440000     -1.9807098E-08
   4.450000     -1.9507397E-08
   4.460000     -1.9162682E-08
   4.470000     -1.8772123E-08
   4.480000     -1.8334937E-08
   4.490000     -1.7850386E-08
   4.500000     -1.7317792E-08
   4.510000     -1.6736545E-08
   4.520000     -1.6106100E-08
   4.530000     -1.5425963E-08
   4.540000     -1.4695718E-08
   4.550000     -1.3915028E-08
   4.560000     -1.3083635E-08
   4.570000     -1.2201357E-08
   4.580000     -1.1268100E-08
   4.590000     -1.0283866E-08
   4.600000     -9.2487529E-09
   4.610000     -8.1629645E-09
   4.620000     -7.0268045E-09
   4.630000     -5.8406902E-09
   4.640000     -4.6051563E-09
   4.650000     -3.3208503E-09
   4.660000     -1.9885391E-09
   4.670000     -6.0910432E-10
   4.680000      8.1646201E-10
   4.690000      2.2870434E-09
   4.700000      3.8014139E-09
   4.710000      5.3582392E-09
   4.720000      6.9560691E-09
   4.730000      8.5933314E-09
   4.740000      1.0268342E-08
   4.750000      1.1979320E-08
   4.760000      1.3724358E-08
   4.770000      1.5501438E-08
   4.780000      1.7308432E-08
   4.790000      1.9143089E-08
   4.800000      2.1003046E-08
   4.810000      2.2885841E-08
   4.820000      2.4788914E-08
   4.830000      2.6709593E-08
   4.840000      2.8645085E-08
   4.850000      3.0592485E-08
   4.860000      3.2548801E-08
   4.870000      3.4510908E-08
   4.880000      3.6475566E-08
   4.890000      3.8439445E-08
   4.900000      4.0399090E-08
   4.910000      4.2350930E-08
   4.920000      4.4291305E-08
   4.930000      4.6216456E-08
   4.940000      4.8122551E-08
   4.950000      5.0005671E-08
   4.960000      5.1861818E-08
   4.970000      5.3686929E-08
   4.980000      5.5476875E-08
   4.990000      5.7227485E-08
   5.000000      5.8934532E-08
   5.010000      6.0593742E-08
   5.020000      6.2200847E-08
   5.030000      6.3751543E-08
   5.040000      6.5241501E-08
   5.050000      6.6666374E-08
   5.060000      6.8021841E-08
   5.070000      6.9303553E-08
   5.080000      7.0507205E-08
   5.090000      7.1628492E-08
   5.100000      7.2663113E-08
   5.110000      7.3606820E-08
   5.120000      7.4455393E-08
   5.130000      7.5204639E-08
   5.140000      7.5850402E-08
   5.150000      7.6388616E-08
   5.160000      7.6815240E-08
   5.170000      7.7126337E-08
   5.180000      7.7318028E-08
   5.190000      7.7386510E-08
   5.200000      7.7328082E-08
   5.210000      7.7139163E-08
   5.220000      7.6816306E-08
   5.230000      7.6356159E-08
   5.240000      7.5755516E-08
   5.250000      7.5011350E-08
   5.260000      7.4120834E-08
   5.270000      7.3081253E-08
   5.280000      7.1890149E-08
   5.290000      7.0545255E-08
   5.300000      6.9044482E-08
   5.310000      6.7385976E-08
   5.320000      6.5568145E-08
   5.330000      6.3589610E-08
   5.340000      6.1449192E-08
   5.350000      5.9145993E-08
   5.360000      5.6679383E-08
   5.370000      5.4048972E-08
   5.380000      5.1254585E-08
   5.390000      4.8296339E-08
   5.400000      4.5174605E-08
   5.410000      4.1890029E-08
   5.420000      3.8443584E-08
   5.430000      3.4836521E-08
   5.440000      3.1070364E-08
   5.450000      2.7146950E-08
   5.460000      2.3068417E-08
   5.470000      1.8837216E-08
   5.480000      1.4456098E-08
   5.490000      9.9281170E-09
   5.500000      5.2566405E-09
   5.510000      4.4534970E-10
   5.520000     -4.5017057E-09
   5.530000     -9.5801429E-09
   5.540000     -1.4785251E-08
   5.550000     -2.0111974E-08
   5.560000     -2.5554890E-08
   5.570000     -3.1108243E-08
   5.580000     -3.6765933E-08
   5.590000     -4.2521496E-08
   5.600000     -4.8368136E-08
   5.610000     -5.4298727E-08
   5.620000     -6.0305808E-08
   5.630000     -6.6381638E-08
   5.640000     -7.2518198E-08
   5.650000     -7.8707153E-08
   5.660000     -8.4939920E-08
   5.670000     -9.1207610E-08
   5.680000     -9.7501086E-08
   5.690000     -1.0381098E-07
   5.700000     -1.1012764E-07
   5.710000     -1.1644121E-07
   5.720000     -1.2274157E-07
   5.730000     -1.2901830E-07
   5.740000     -1.3526088E-07
   5.750000     -1.4145847E-07
   5.760000     -1.4760010E-07
   5.770000     -1.5367465E-07
   5.780000     -1.5967079E-07
   5.790000     -1.6557708E-07
   5.800000     -1.7138193E-07
   5.810000     -1.7707359E-07
   5.820000     -1.8264022E-07
   5.830000     -1.8806990E-07
   5.840000     -1.9335060E-07
   5.850000     -1.9847022E-07
   5.860000     -2.0341665E-07
   5.870000     -2.0817770E-07
   5.880000     -2.1274113E-07
   5.890000     -2.1709484E-07
   5.900000     -2.2122668E-07
   5.910000     -2.2512462E-07
   5.920000     -2.2877674E-07
   5.930000     -2.3217117E-07
   5.940000     -2.3529626E-07
   5.950000     -2.3814047E-07
   5.960000     -2.4069254E-07
   5.970000     -2.4294141E-07
   5.980000     -2.4487616E-07
   5.990000     -2.4648625E-07
   6.000000     -2.4776136E-07
   6.010000     -2.4869149E-07
   6.020000     -2.4926692E-07
   6.030000     -2.4947821E-07
   6.040000     -2.4931629E-07
   6.050000     -2.4877249E-07
   6.060000     -2.4783847E-07
   6.070000     -2.4650640E-07
   6.080000     -2.4476876E-07
   6.090000     -2.4261846E-07
   6.100000     -2.4004893E-07
   6.110000     -2.3705415E-07
   6.120000     -2.3362847E-07
   6.130000     -2.2976678E-07
   6.140000     -2.2546465E-07
   6.150000     -2.2071818E-07
   6.160000     -2.1552417E-07
   6.170000     -2.0987986E-07
   6.180000     -2.0378320E-07
   6.190000     -1.9723286E-07
   6.200000     -1.9022815E-07
   6.210000     -1.8276896E-07
   6.220000     -1.7485617E-07
   6.230000     -1.6649135E-07
   6.240000     -1.5767671E-07
   6.250000     -1.4841527E-07
   6.260000     -1.3871066E-07
   6.270000     -1.2856735E-07
   6.280000     -1.1799057E-07
   6.290000     -1.0698625E-07
   6.300000     -9.5561155E-08
   6.310000     -8.3722867E-08
   6.320000     -7.1479690E-08
   6.330000     -5.8840694E-08
   6.340000     -4.5815767E-08
   6.350000     -3.2415610E-08
   6.360000     -1.8651596E-08
   6.370000     -4.5359934E-09
   6.380000      9.9181605E-09
   6.390000      2.4697098E-08
   6.400000      3.9786190E-08
   6.410000      5.5170084E-08
   6.420000      7.0832712E-08
   6.430000      8.6757268E-08
   6.440000      1.0292618E-07
   6.450000      1.1932109E-07
   6.460000      1.3592297E-07
   6.470000      1.5271209E-07
   6.480000      1.6966798E-07
   6.490000      1.8676960E-07
   6.500000      2.0399511E-07
   6.510000      2.2132210E-07
   6.520000      2.3872744E-07
   6.530000      2.5618738E-07
   6.540000      2.7367770E-07
   6.550000      2.9117359E-07
   6.560000      3.0864959E-07
   6.570000      3.2607994E-07
   6.580000      3.4343830E-07
   6.590000      3.6069810E-07
   6.600000      3.7783221E-07
   6.610000      3.9481330E-07
   6.620000      4.1161374E-07
   6.630000      4.2820568E-07
   6.640000      4.4456110E-07
   6.650000      4.6065179E-07
   6.660000      4.7644932E-07
   6.670000      4.9192522E-07
   6.680000      5.0705097E-07
   6.690000      5.2179780E-07
   6.700000      5.3613701E-07
   6.710000      5.5003983E-07
   6.720000      5.6347733E-07
   6.730000      5.7642086E-07
   6.740000      5.8884194E-07
   6.750000      6.0071221E-07
   6.760000      6.1200348E-07
   6.770000      6.2268822E-07
   6.780000      6.3273910E-07
   6.790000      6.4212929E-07
   6.800000      6.5083225E-07
   6.810000      6.5882193E-07
   6.820000      6.6607294E-07
   6.830000      6.7256030E-07
   6.840000      6.7825977E-07
   6.850000      6.8314768E-07
   6.860000      6.8720095E-07
   6.870000      6.9039743E-07
   6.880000      6.9271584E-07
   6.890000      6.9413562E-07
   6.900000      6.9463709E-07
   6.910000      6.9420173E-07
   6.920000      6.9281225E-07
   6.930000      6.9045205E-07
   6.940000      6.8710557E-07
   6.950000      6.8275847E-07
   6.960000      6.7739751E-07
   6.970000      6.7101058E-07
   6.980000      6.6358695E-07
   6.990000      6.5511728E-07
   7.000000      6.4559345E-07
   7.010000      6.3500858E-07
   7.020000      6.2335721E-07
   7.030000      6.1063491E-07
   7.040000      5.9683885E-07
   7.050000      5.8196764E-07
   7.060000      5.6602084E-07