  -2.600000      0.0000000E+00
  -2.590000      0.0000000E+00
  -2.580000      0.0000000E+00
  -2.570000      0.0000000E+00
  -2.560000      0.0000000E+00
  -2.550000      0.0000000E+00
  -2.540000      0.0000000E+00
  -2.530000      0.0000000E+00
  -2.520000      0.0000000E+00
  -2.510000      0.0000000E+00
  -2.500000      0.0000000E+00
  -2.490000      0.0000000E+00
  -2.480000      0.0000000E+00
  -2.470000      0.0000000E+00
  -2.460000      0.0000000E+00
  -2.450000      0.0000000E+00
  -2.440000      0.0000000E+00
  -2.430000      0.0000000E+00
  -2.420000      0.0000000E+00
  -2.410000      0.0000000E+00
  -2.400000      0.0000000E+00
  -2.390000      0.0000000E+00
  -2.380000      0.0000000E+00
  -2.370000      0.0000000E+00
  -2.360000      0.0000000E+00
  -2.350000      0.0000000E+00
  -2.340000      0.0000000E+00
  -2.330000      0.0000000E+00
  -2.320000      0.0000000E+00
  -2.310000      0.0000000E+00
  -2.300000      0.0000000E+00
  -2.290000      0.0000000E+00
  -2.280000      0.0000000E+00
  -2.270000      0.0000000E+00
  -2.260000      0.0000000E+00
  -2.250000      0.0000000E+00
  -2.240000      0.0000000E+00
  -2.230000      0.0000000E+00
  -2.220000      0.0000000E+00
  -2.210000      0.0000000E+00
  -2.200000      0.0000000E+00
  -2.190000      0.0000000E+00
  -2.180000      0.0000000E+00
  -2.170000      0.0000000E+00
  -2.160000      0.0000000E+00
  -2.150000     -1.2665918E-38
  -2.140000     -1.4692296E-38
  -2.130000     -1.5840508E-38
  -2.120000     -1.6605617E-38
  -2.110000     -1.6799872E-38
  -2.100000     -1.8118250E-38
  -2.090000     -2.0697410E-38
  -2.080000     -2.2186136E-38
  -2.070000     -2.3028203E-38
  -2.060000     -2.2013363E-38
  -2.050000     -1.9833290E-38
  -2.040000      0.0000000E+00
  -2.030000      4.2202421E-38
  -2.020000      9.7595001E-38
  -2.010000      1.6599176E-37
  -2.000000      2.4323313E-37
  -1.990000      3.0827403E-37
  -1.980000      3.4386858E-37
  -1.970000      3.4014608E-37
  -1.960000      2.8135105E-37
  -1.950000      1.4819418E-37
  -1.940000     -8.4483606E-38
  -1.930000     -4.3314732E-37
  -1.920000     -9.0638890E-37
  -1.910000     -1.5213090E-36
  -1.900000     -2.2518862E-36
  -1.890000     -3.0862011E-36
  -1.880000     -4.0377492E-36
  -1.870000     -5.0804157E-36
  -1.860000     -6.1579969E-36
  -1.850000     -7.1940082E-36
  -1.840000     -8.1482493E-36
  -1.830000     -8.9310666E-36
  -1.820000     -9.3125440E-36
  -1.810000     -8.7382465E-36
  -1.800000     -6.6319900E-36
  -1.790000     -2.3267036E-36
  -1.780000      4.9463402E-36
  -1.770000      1.5890805E-35
  -1.760000      3.1484735E-35
  -1.750000      5.1765230E-35
  -1.740000      7.6081341E-35
  -1.730000      1.0448957E-34
  -1.720000      1.3653514E-34
  -1.710000      1.6968533E-34
  -1.700000      2.0077099E-34
  -1.690000      2.2656216E-34
  -1.680000      2.4274753E-34
  -1.670000      2.4314251E-34
  -1.660000      2.2177983E-34
  -1.650000      1.7259161E-34
  -1.640000      8.9043973E-35
  -1.630000     -3.4201858E-35
  -1.620000     -2.0406534E-34
  -1.610000     -4.2853271E-34
  -1.600000     -7.0348318E-34
  -1.590000     -1.0263721E-33
  -1.580000     -1.3987249E-33
  -1.570000     -1.8162512E-33
  -1.560000     -2.2600888E-33
  -1.550000     -2.6913090E-33
  -1.540000     -3.0733107E-33
  -1.530000     -3.3619219E-33
  -1.520000     -3.4955411E-33
  -1.510000     -3.3905625E-33
  -1.500000     -2.9434988E-33
  -1.490000     -2.0500061E-33
  -1.480000     -5.7850366E-34
  -1.470000      1.6084983E-33
  -1.460000      4.6650195E-33
  -1.450000      8.7658796E-33
  -1.440000      1.4080987E-32
  -1.430000      2.0803524E-32
  -1.420000      2.9144090E-32
  -1.410000      3.9336555E-32
  -1.400000      5.1648265E-32
  -1.390000      6.6390305E-32
  -1.380000      8.3931772E-32
  -1.370000      1.0471734E-31
  -1.360000      1.2928786E-31
  -1.350000      1.5830515E-31
  -1.340000      1.9257962E-31
  -1.330000      2.3309999E-31
  -1.320000      2.8106684E-31
  -1.310000      3.3792550E-31
  -1.300000      4.0539880E-31
  -1.290000      4.8552022E-31
  -1.280000      5.8066308E-31
  -1.270000      6.9356461E-31
  -1.260000      8.2734452E-31
  -1.250000      9.8551556E-31
  -1.240000      1.1719856E-30
  -1.230000      1.3910508E-30
  -1.220000      1.6473795E-30
  -1.210000      1.9459899E-30
  -1.200000      2.2922202E-30
  -1.190000      2.6916983E-30
  -1.180000      3.1503111E-30
  -1.170000      3.6741827E-30
  -1.160000      4.2696622E-30
  -1.150000      4.9433299E-30
  -1.140000      5.7020293E-30
  -1.130000      6.5529255E-30
  -1.120000      7.5035984E-30
  -1.110000      8.5621722E-30
  -1.100000      9.7374845E-30
  -1.090000      1.1039290E-29
  -1.080000      1.2478495E-29
  -1.070000      1.4067424E-29
  -1.060000      1.5820093E-29
  -1.050000      1.7752495E-29
  -1.040000      1.9882879E-29
  -1.030000      2.2231983E-29
  -1.020000      2.4823240E-29
  -1.010000      2.7682923E-29
  -1.000000      3.0840196E-29
 -0.9900000      3.4327110E-29
 -0.9800000      3.8178468E-29
 -0.9700000      4.2431607E-29
 -0.9600000      4.7126094E-29
 -0.9500000      5.2303316E-29
 -0.9400000      5.8006055E-29
 -0.9300000      6.4277972E-29
 -0.9200000      7.1163130E-29
 -0.9100000      7.8705541E-29
 -0.9000000      8.6948870E-29
 -0.8900000      9.5936150E-29
 -0.8800000      1.0570982E-28
 -0.8700000      1.1631192E-28
 -0.8600000      1.2778452E-28
 -0.8500000      1.4017054E-28
 -0.8400000      1.5351472E-28
 -0.8300000      1.6786496E-28
 -0.8200000      1.8327384E-28
 -0.8100000      1.9980040E-28
 -0.8000000      2.1751190E-28
 -0.7900000      2.3648571E-28
 -0.7800000      2.5681101E-28
 -0.7700000      2.7859039E-28
 -0.7600000      3.0194084E-28
 -0.7500000      3.2699467E-28
 -0.7400000      3.5389938E-28
 -0.7300000      3.8281738E-28
 -0.7200000      4.1392467E-28
 -0.7100000      4.4740898E-28
 -0.7000000      4.8346725E-28
 -0.6900000      5.2230276E-28
 -0.6800000      5.6412135E-28
 -0.6700000      6.0912812E-28
 -0.6600000      6.5752380E-28
 -0.6500000      7.0950161E-28
 -0.6400000      7.6524486E-28
 -0.6300000      8.2492529E-28
 -0.6200000      8.8870314E-28
 -0.6100000      9.5672814E-28
 -0.6000000      1.0291429E-27
 -0.5900000      1.1060871E-27
 -0.5800000      1.1877043E-27
 -0.5700000      1.2741507E-27
 -0.5600000      1.3656035E-27
 -0.5500000      1.4622725E-27
 -0.5400000      1.5644102E-27
 -0.5300000      1.6723229E-27
 -0.5200000      1.7863813E-27
 -0.5100000      1.9070279E-27
 -0.5000000      2.0347831E-27
 -0.4900000      2.1702494E-27
 -0.4800000      2.3141104E-27
 -0.4700000      2.4671270E-27
 -0.4600000      2.6301295E-27
 -0.4500000      2.8040044E-27
 -0.4400000      2.9896806E-27
 -0.4300000      3.1881097E-27
 -0.4200000      3.4002459E-27
 -0.4100000      3.6270234E-27
 -0.4000000      3.8693377E-27
 -0.3900000      4.1280278E-27
 -0.3800000      4.4038580E-27
 -0.3700000      4.6975115E-27
 -0.3600000      5.0095880E-27
 -0.3500000      5.3406080E-27
 -0.3400000      5.6910275E-27
 -0.3300000      6.0612625E-27
 -0.3200000      6.4517178E-27
 -0.3100000      6.8628272E-27
 -0.3000000      7.2951006E-27
 -0.2900000      7.7491686E-27
 -0.2800000      8.2258371E-27
 -0.2700000      8.7261320E-27
 -0.2600000      9.2513447E-27
 -0.2500000      9.8030628E-27
 -0.2400000      1.0383190E-26
 -0.2300000      1.0993954E-26
 -0.2200000      1.1637892E-26
 -0.2100000      1.2317818E-26
 -0.2000000      1.3036774E-26
 -0.1900000      1.3797958E-26
 -0.1800000      1.4604640E-26
 -0.1700000      1.5460056E-26
 -0.1600000      1.6367312E-26
 -0.1500000      1.7329266E-26
 -0.1400000      1.8348427E-26
 -0.1300000      1.9426862E-26
 -0.1200000      2.0566121E-26
 -0.1100000      2.1767196E-26
 -0.1000000      2.3030498E-26
 -9.0000004E-02  2.4355888E-26
 -7.9999998E-02  2.5742727E-26
 -7.0000000E-02  2.7189980E-26
 -5.9999999E-02  2.8696359E-26
 -5.0000001E-02  3.0260467E-26
 -3.9999999E-02  3.1881009E-26
 -2.9999999E-02  3.3556997E-26
 -2.0000000E-02  3.5287927E-26
 -9.9999998E-03  3.7073988E-26
 -3.4694470E-17  3.8916203E-26
  9.9999998E-03  4.0816566E-26
  2.0000000E-02  4.2778096E-26
  2.9999999E-02  4.4804822E-26
  3.9999999E-02  4.6901676E-26
  5.0000001E-02  4.9074356E-26
  5.9999999E-02  5.1329062E-26
  7.0000000E-02  5.3672179E-26
  7.9999998E-02  5.6109901E-26
  9.0000004E-02  5.8647790E-26
  0.1000000      6.1290338E-26
  0.1100000      6.4040511E-26
  0.1200000      6.6899331E-26
  0.1300000      6.9865546E-26
  0.1400000      7.2935312E-26
  0.1500000      7.6102059E-26
  0.1600000      7.9356480E-26
  0.1700000      8.2686668E-26
  0.1800000      8.6078437E-26
  0.1900000      8.9515702E-26
  0.2000000      9.2981112E-26
  0.2100000      9.6456716E-26
  0.2200000      9.9924758E-26
  0.2300000      1.0336847E-25
  0.2400000      1.0677285E-25
  0.2500000      1.1012535E-25
  0.2600000      1.1341652E-25
  0.2700000      1.1664034E-25
  0.2800000      1.1979447E-25
  0.2900000      1.2288006E-25
  0.3000000      1.2590141E-25
  0.3100000      1.2886525E-25
  0.3200000      1.3177982E-25
  0.3300000      1.3465348E-25
  0.3400000      1.3749333E-25
  0.3500000      1.4030363E-25
  0.3600000      1.4308421E-25
  0.3700000      1.4582869E-25
  0.3800000      1.4852321E-25
  0.3900000      1.5114515E-25
  0.4000000      1.5366240E-25
  0.4100000      1.5603287E-25
  0.4200000      1.5820469E-25
  0.4300000      1.6011693E-25
  0.4400000      1.6170077E-25
  0.4500000      1.6288126E-25
  0.4600000      1.6357979E-25
  0.4700000      1.6371632E-25
  0.4800000      1.6321245E-25
  0.4900000      1.6199431E-25
  0.5000000      1.5999522E-25
  0.5100000      1.5715805E-25
  0.5200000      1.5343727E-25
  0.5300000      1.4879997E-25
  0.5400000      1.4322633E-25
  0.5500000      1.3670899E-25
  0.5600000      1.2925137E-25
  0.5700000      1.2086492E-25
  0.5800000      1.1156565E-25
  0.5900000      1.0136940E-25
  0.6000000      9.0286702E-26
  0.6100000      7.8317611E-26
  0.6200000      6.5446008E-26
  0.6300000      5.1634407E-26
  0.6400000      3.6819396E-26
  0.6500000      2.0907781E-26
  0.6600000      3.7745076E-27
  0.6700000     -1.4737707E-26
  0.6800000     -3.4817954E-26
  0.6900000     -5.6683976E-26
  0.7000000     -8.0577045E-26
  0.7100000     -1.0675600E-25
  0.7200000     -1.3548978E-25
  0.7300000     -1.6704785E-25
  0.7400000     -2.0169096E-25
  0.7500000     -2.3966203E-25
  0.7600000     -2.8117761E-25
  0.7700000     -3.2642049E-25
  0.7800000     -3.7553336E-25
  0.7900000     -4.2861682E-25
  0.8000000     -4.8572853E-25
  0.8100000     -5.4688611E-25
  0.8200000     -6.1207387E-25
  0.8300000     -6.8125140E-25
  0.8400000     -7.5436712E-25
  0.8500000     -8.3137134E-25
  0.8600000     -9.1223293E-25
  0.8700000     -9.9695728E-25
  0.8800000     -1.0856025E-24
  0.8900000     -1.1782948E-24
  0.9000000     -1.2752428E-24
  0.9100000     -1.3767450E-24
  0.9200000     -1.4831967E-24
  0.9300000     -1.5950896E-24
  0.9400000     -1.7130057E-24
  0.9500000     -1.8376071E-24
  0.9600000     -1.9696173E-24
  0.9700000     -2.1098006E-24
  0.9800000     -2.2589365E-24
  0.9900000     -2.4177902E-24
   1.000000     -2.5870831E-24
   1.010000     -2.7674647E-24
   1.020000     -2.9594856E-24
   1.030000     -3.1635770E-24
   1.040000     -3.3800327E-24
   1.050000     -3.6090016E-24
   1.060000     -3.8504896E-24
   1.070000     -4.1043687E-24
   1.080000     -4.3703995E-24
   1.090000     -4.6482552E-24
   1.100000     -4.9375636E-24
   1.110000     -5.2379492E-24
   1.120000     -5.5490807E-24
   1.130000     -5.8707178E-24
   1.140000     -6.2027600E-24
   1.150000     -6.5452882E-24
   1.160000     -6.8985965E-24
   1.170000     -7.2632167E-24
   1.180000     -7.6399238E-24
   1.190000     -8.0297284E-24
   1.200000     -8.4338555E-24
   1.210000     -8.8537039E-24
   1.220000     -9.2907896E-24
   1.230000     -9.7466763E-24
   1.240000     -1.0222898E-23
   1.250000     -1.0720871E-23
   1.260000     -1.1241804E-23
   1.270000     -1.1786620E-23
   1.280000     -1.2355879E-23
   1.290000     -1.2949717E-23
   1.300000     -1.3567803E-23
   1.310000     -1.4209329E-23
   1.320000     -1.4873002E-23
   1.330000     -1.5557099E-23
   1.340000     -1.6259513E-23
   1.350000     -1.6977849E-23
   1.360000     -1.7709525E-23
   1.370000     -1.8451898E-23
   1.380000     -1.9202402E-23
   1.390000     -1.9958668E-23
   1.400000     -2.0718668E-23
   1.410000     -2.1480804E-23
   1.420000     -2.2244003E-23
   1.430000     -2.3007763E-23
   1.440000     -2.3772164E-23
   1.450000     -2.4537843E-23
   1.460000     -2.5305910E-23
   1.470000     -2.6077817E-23
   1.480000     -2.6855208E-23
   1.490000     -2.7639723E-23
   1.500000     -2.8432778E-23
   1.510000     -2.9235321E-23
   1.520000     -3.0047620E-23
   1.530000     -3.0869036E-23
   1.540000     -3.1697842E-23
   1.550000     -3.2531074E-23
   1.560000     -3.3364455E-23
   1.570000     -3.4192356E-23
   1.580000     -3.5007874E-23
   1.590000     -3.5802938E-23
   1.600000     -3.6568509E-23
   1.610000     -3.7294844E-23
   1.620000     -3.7971810E-23
   1.630000     -3.8589236E-23
   1.640000     -3.9137270E-23
   1.650000     -3.9606756E-23
   1.660000     -3.9989581E-23
   1.670000     -4.0278951E-23
   1.680000     -4.0469612E-23
   1.690000     -4.0557983E-23
   1.700000     -4.0542175E-23
   1.710000     -4.0421892E-23
   1.720000     -4.0198234E-23
   1.730000     -3.9873369E-23
   1.740000     -3.9450117E-23
   1.750000     -3.8931463E-23
   1.760000     -3.8319988E-23
   1.770000     -3.7617321E-23
   1.780000     -3.6823607E-23
   1.790000     -3.5936969E-23
   1.800000     -3.4953117E-23
   1.810000     -3.3865038E-23
   1.820000     -3.2662884E-23
   1.830000     -3.1334006E-23
   1.840000     -2.9863188E-23
   1.850000     -2.8233060E-23
   1.860000     -2.6424680E-23
   1.870000     -2.4418296E-23
   1.880000     -2.2194221E-23
   1.890000     -1.9733793E-23
   1.900000     -1.7020334E-23
   1.910000     -1.4040148E-23
   1.920000     -1.0783400E-23
   1.930000     -7.2448331E-24
   1.940000     -3.4243119E-24
   1.950000      6.7287128E-25
   1.960000      5.0359685E-24
   1.970000      9.6490358E-24
   1.980000      1.4491446E-23
   1.990000      1.9538718E-23
   2.000000      2.4763579E-23
   2.010000      3.0137175E-23
   2.020000      3.5630402E-23
   2.030000      4.1215272E-23
   2.040000      4.6866211E-23
   2.050000      5.2561228E-23
   2.060000      5.8282785E-23
   2.070000      6.4018391E-23
   2.080000      6.9760838E-23
   2.090000      7.5507974E-23
   2.100000      8.1261988E-23
   2.110000      8.7028303E-23
   2.120000      9.2814017E-23
   2.130000      9.8625997E-23
   2.140000      1.0446870E-22
   2.150000      1.1034186E-22
   2.160000      1.1623810E-22
   2.170000      1.2214071E-22
   2.180000      1.2802166E-22
   2.190000      1.3384001E-22
   2.200000      1.3954079E-22
   2.210000      1.4505449E-22
   2.220000      1.5029735E-22
   2.230000      1.5517221E-22
   2.240000      1.5957003E-22
   2.250000      1.6337221E-22
   2.260000      1.6645339E-22
   2.270000      1.6868453E-22
   2.280000      1.6993634E-22
   2.290000      1.7008282E-22
   2.300000      1.6900431E-22
   2.310000      1.6659054E-22
   2.320000      1.6274270E-22
   2.330000      1.5737501E-22
   2.340000      1.5041529E-22
   2.350000      1.4180439E-22
   2.360000      1.3149476E-22
   2.370000      1.1944783E-22
   2.380000      1.0563077E-22
   2.390000      9.0012109E-23
   2.400000      7.2557072E-23
   2.410000      5.3222666E-23
   2.420000      3.1952596E-23
   2.430000      8.6726658E-24
   2.440000     -1.6713019E-23
   2.450000     -4.4325066E-23
   2.460000     -7.4310312E-23
   2.470000     -1.0684200E-22
   2.480000     -1.4211840E-22
   2.490000     -1.8035963E-22
   2.500000     -2.2180295E-22
   2.510000     -2.6669671E-22
   2.520000     -3.1529291E-22
   2.530000     -3.6783910E-22
   2.540000     -4.2456968E-22
   2.550000     -4.8569744E-22
   2.560000     -5.5140544E-22
   2.570000     -6.2183989E-22
   2.580000     -6.9710469E-22
   2.590000     -7.7725766E-22
   2.600000     -8.6230903E-22
   2.610000     -9.5222231E-22
   2.620000     -1.0469170E-21
   2.630000     -1.1462745E-21
   2.640000     -1.2501447E-21
   2.650000     -1.3583552E-21
   2.660000     -1.4707218E-21
   2.670000     -1.5870584E-21
   2.680000     -1.7071877E-21
   2.690000     -1.8309501E-21
   2.700000     -1.9582112E-21
   2.710000     -2.0888669E-21
   2.720000     -2.2228464E-21
   2.730000     -2.3601105E-21
   2.740000     -2.5006470E-21
   2.750000     -2.6444623E-21
   2.760000     -2.7915700E-21
   2.770000     -2.9419761E-21
   2.780000     -3.0956623E-21
   2.790000     -3.2525667E-21
   2.800000     -3.4125651E-21
   2.810000     -3.5754531E-21
   2.820000     -3.7409255E-21
   2.830000     -3.9085657E-21
   2.840000     -4.0778324E-21
   2.850000     -4.2480515E-21
   2.860000     -4.4184159E-21
   2.870000     -4.5879888E-21
   2.880000     -4.7557114E-21
   2.890000     -4.9204168E-21
   2.900000     -5.0808487E-21
   2.910000     -5.2356817E-21
   2.920000     -5.3835463E-21
   2.930000     -5.5230506E-21
   2.940000     -5.6528085E-21
   2.950000     -5.7714568E-21
   2.960000     -5.8776756E-21
   2.970000     -5.9701999E-21
   2.980000     -6.0478252E-21
   2.990000     -6.1094086E-21
   3.000000     -6.1538594E-21
   3.010000     -6.1801228E-21
   3.020000     -6.1871575E-21
   3.030000     -6.1739069E-21
   3.040000     -6.1392687E-21
   3.050000     -6.0820567E-21
   3.060000     -6.0009639E-21
   3.070000     -5.8945311E-21
   3.080000     -5.7611134E-21
   3.090000     -5.5988580E-21
   3.100000     -5.4056875E-21
   3.110000     -5.1792933E-21
   3.120000     -4.9171400E-21
   3.130000     -4.6164841E-21
   3.140000     -4.2743985E-21
   3.150000     -3.8878151E-21
   3.160000     -3.4535683E-21
   3.170000     -2.9684529E-21
   3.180000     -2.4292863E-21
   3.190000     -1.8329612E-21
   3.200000     -1.1765074E-21
   3.210000     -4.5714588E-22
   3.220000      3.2766359E-22
   3.230000      1.1801929E-21
   3.240000      2.1024227E-21
   3.250000      3.0960338E-21
   3.260000      4.1624185E-21
   3.270000      5.3027067E-21
   3.280000      6.5178036E-21
   3.290000      7.8084347E-21
   3.300000      9.1752126E-21
   3.310000      1.0618693E-20
   3.320000      1.2139441E-20
   3.330000      1.3738092E-20
   3.340000      1.5415396E-20
   3.350000      1.7172253E-20
   3.360000      1.9009738E-20
   3.370000      2.0929096E-20
   3.380000      2.2931712E-20
   3.390000      2.5019065E-20
   3.400000      2.7192655E-20
   3.410000      2.9453908E-20
   3.420000      3.1804077E-20
   3.430000      3.4244098E-20
   3.440000      3.6774485E-20
   3.450000      3.9395171E-20
   3.460000      4.2105403E-20
   3.470000      4.4903622E-20
   3.480000      4.7787361E-20
   3.490000      5.0753182E-20
   3.500000      5.3796631E-20
   3.510000      5.6912243E-20
   3.520000      6.0093534E-20
   3.530000      6.3333084E-20
   3.540000      6.6622600E-20
   3.550000      6.9953029E-20
   3.560000      7.3314698E-20
   3.570000      7.6697414E-20
   3.580000      8.0090632E-20
   3.590000      8.3483565E-20
   3.600000      8.6865273E-20
   3.610000      9.0224771E-20
   3.620000      9.3551058E-20
   3.630000      9.6833110E-20
   3.640000      1.0005985E-19
   3.650000      1.0322008E-19
   3.660000      1.0630234E-19
   3.670000      1.0929472E-19
   3.680000      1.1218469E-19
   3.690000      1.1495892E-19
   3.700000      1.1760294E-19
   3.710000      1.2010103E-19
   3.720000      1.2243593E-19
   3.730000      1.2458874E-19
   3.740000      1.2653879E-19
   3.750000      1.2826345E-19
   3.760000      1.2973821E-19
   3.770000      1.3093671E-19
   3.780000      1.3183081E-19
   3.790000      1.3239083E-19
   3.800000      1.3258569E-19
   3.810000      1.3238332E-19
   3.820000      1.3175091E-19
   3.830000      1.3065530E-19
   3.840000      1.2906321E-19
   3.850000      1.2694170E-19
   3.860000      1.2425839E-19
   3.870000      1.2098170E-19
   3.880000      1.1708099E-19
   3.890000      1.1252666E-19
   3.900000      1.0729025E-19
   3.910000      1.0134426E-19
   3.920000      9.4662032E-20
   3.930000      8.7217555E-20
   3.940000      7.8985137E-20
   3.950000      6.9939103E-20
   3.960000      6.0053545E-20
   3.970000      4.9301929E-20
   3.980000      3.7656829E-20
   3.990000      2.5089779E-20
   4.000000      1.1571077E-20
   4.010000     -2.9301179E-21
   4.020000     -1.8445808E-20
   4.030000     -3.5008885E-20
   4.040000     -5.2652612E-20
   4.050000     -7.1410321E-20
   4.060000     -9.1314781E-20
   4.070000     -1.1239743E-19
   4.080000     -1.3468773E-19
   4.090000     -1.5821235E-19
   4.100000     -1.8299434E-19
   4.110000     -2.0905239E-19
   4.120000     -2.3640034E-19
   4.130000     -2.6504653E-19
   4.140000     -2.9499339E-19
   4.150000     -3.2623724E-19
   4.160000     -3.5876806E-19
   4.170000     -3.9256963E-19
   4.180000     -4.2761986E-19
   4.190000     -4.6389095E-19
   4.200000     -5.0135019E-19
   4.210000     -5.3996014E-19
   4.220000     -5.7967938E-19
   4.230000     -6.2046301E-19
   4.240000     -6.6226313E-19
   4.250000     -7.0502920E-19
   4.260000     -7.4870806E-19
   4.270000     -7.9324429E-19
   4.280000     -8.3857989E-19
   4.290000     -8.8465364E-19
   4.300000     -9.3140041E-19
   4.310000     -9.7875081E-19
   4.320000     -1.0266296E-18
   4.330000     -1.0749544E-18
   4.340000     -1.1236351E-18
   4.350000     -1.1725720E-18
   4.360000     -1.2216547E-18
   4.370000     -1.2707610E-18
   4.380000     -1.3197558E-18
   4.390000     -1.3684906E-18
   4.400000     -1.4168029E-18
   4.410000     -1.4645162E-18
   4.420000     -1.5114400E-18
   4.430000     -1.5573705E-18
   4.440000     -1.6020911E-18
   4.450000     -1.6453736E-18
   4.460000     -1.6869802E-18
   4.470000     -1.7266637E-18
   4.480000     -1.7641703E-18
   4.490000     -1.7992398E-18
   4.500000     -1.8316087E-18
   4.510000     -1.8610091E-18
   4.520000     -1.8871722E-18
   4.530000     -1.9098271E-18
   4.540000     -1.9287017E-18
   4.550000     -1.9435225E-18
   4.560000     -1.9540138E-18
   4.570000     -1.9598973E-18
   4.580000     -1.9608908E-18
   4.590000     -1.9567063E-18
   4.600000     -1.9470496E-18
   4.610000     -1.9316173E-18
   4.620000     -1.9100973E-18
   4.630000     -1.8821655E-18
   4.640000     -1.8474872E-18
   4.650000     -1.8057152E-18
   4.660000     -1.7564914E-18
   4.670000     -1.6994460E-18
   4.680000     -1.6342002E-18
   4.690000     -1.5603687E-18
   4.700000     -1.4775608E-18
   4.710000     -1.3853841E-18
   4.720000     -1.2834490E-18
   4.730000     -1.1713720E-18
   4.740000     -1.0487790E-18
   4.750000     -9.1530968E-19
   4.760000     -7.7062126E-19
   4.770000     -6.1439078E-19
   4.780000     -4.4631812E-19
   4.790000     -2.6612905E-19
   4.800000     -7.3576022E-20
   4.810000      1.3156018E-19
   4.820000      3.4947194E-19
   4.830000      5.8032474E-19
   4.840000      8.2425674E-19
   4.850000      1.0813826E-18
   4.860000      1.3517939E-18
   4.870000      1.6355602E-18
   4.880000      1.9327325E-18
   4.890000      2.2433432E-18
   4.900000      2.5674067E-18
   4.910000      2.9049196E-18
   4.920000      3.2558569E-18
   4.930000      3.6201733E-18
   4.940000      3.9977986E-18
   4.950000      4.3886332E-18
   4.960000      4.7925422E-18
   4.970000      5.2093523E-18
   4.980000      5.6388427E-18
   4.990000      6.0807383E-18
   5.000000      6.5347045E-18
   5.010000      7.0003410E-18
   5.020000      7.4771734E-18
   5.030000      7.9646467E-18
   5.040000      8.4621271E-18
   5.050000      8.9688960E-18
   5.060000      9.4841468E-18
   5.070000      1.0006985E-17
   5.080000      1.0536435E-17
   5.090000      1.1071434E-17
   5.100000      1.1610842E-17
   5.110000      1.2153445E-17
   5.120000      1.2697957E-17
   5.130000      1.3243025E-17
   5.140000      1.3787238E-17
   5.150000      1.4329129E-17
   5.160000      1.4867175E-17
   5.170000      1.5399805E-17
   5.180000      1.5925397E-17
   5.190000      1.6442281E-17
   5.200000      1.6948727E-17
   5.210000      1.7442959E-17
   5.220000      1.7923129E-17
   5.230000      1.8387330E-17
   5.240000      1.8833577E-17
   5.250000      1.9259809E-17
   5.260000      1.9663872E-17
   5.270000      2.0043516E-17
   5.280000      2.0396393E-17
   5.290000      2.0720057E-17
   5.300000      2.1011954E-17
   5.310000      2.1269427E-17
   5.320000      2.1489722E-17
   5.330000      2.1669990E-17
   5.340000      2.1807297E-17
   5.350000      2.1898637E-17
   5.360000      2.1940951E-17
   5.370000      2.1931126E-17
   5.380000      2.1866020E-17
   5.390000      2.1742490E-17
   5.400000      2.1557395E-17
   5.410000      2.1307603E-17
   5.420000      2.0990024E-17
   5.430000      2.0601603E-17
   5.440000      2.0139342E-17
   5.450000      1.9600299E-17
   5.460000      1.8981603E-17
   5.470000      1.8280447E-17
   5.480000      1.7494078E-17
   5.490000      1.6619815E-17
   5.500000      1.5655035E-17
   5.510000      1.4597174E-17
   5.520000      1.3443720E-17
   5.530000      1.2192212E-17
   5.540000      1.0840242E-17
   5.550000      9.3854493E-18
   5.560000      7.8255347E-18
   5.570000      6.1582658E-18
   5.580000      4.3815013E-18
   5.590000      2.4932055E-18
   5.600000      4.9146554E-19
   5.610000     -1.6254734E-18
   5.620000     -3.8591938E-18
   5.630000     -6.2110680E-18
   5.640000     -8.6822209E-18
   5.650000     -1.1273516E-17
   5.660000     -1.3985505E-17
   5.670000     -1.6818402E-17
   5.680000     -1.9772057E-17
   5.690000     -2.2845953E-17
   5.700000     -2.6039163E-17
   5.710000     -2.9350350E-17
   5.720000     -3.2777770E-17
   5.730000     -3.6319228E-17
   5.740000     -3.9972110E-17
   5.750000     -4.3733380E-17
   5.760000     -4.7599592E-17
   5.770000     -5.1566903E-17
   5.780000     -5.5631073E-17
   5.790000     -5.9787490E-17
   5.800000     -6.4031151E-17
   5.810000     -6.8356690E-17
   5.820000     -7.2758357E-17
   5.830000     -7.7230036E-17
   5.840000     -8.1765196E-17
   5.850000     -8.6356862E-17
   5.860000     -9.0997649E-17
   5.870000     -9.5679677E-17
   5.880000     -1.0039455E-16
   5.890000     -1.0513333E-16
   5.900000     -1.0988653E-16
   5.910000     -1.1464403E-16
   5.920000     -1.1939505E-16
   5.930000     -1.2412819E-16
   5.940000     -1.2883134E-16
   5.950000     -1.3349165E-16
   5.960000     -1.3809563E-16
   5.970000     -1.4262907E-16
   5.980000     -1.4707712E-16
   5.990000     -1.5142423E-16
   6.000000     -1.5565426E-16
   6.010000     -1.5975047E-16
   6.020000     -1.6369558E-16
   6.030000     -1.6747189E-16
   6.040000     -1.7106123E-16
   6.050000     -1.7444510E-16
   6.060000     -1.7760460E-16
   6.070000     -1.8052060E-16
   6.080000     -1.8317372E-16
   6.090000     -1.8554430E-16
   6.100000     -1.8761257E-16
   6.110000     -1.8935850E-16
   6.120000     -1.9076194E-16
   6.130000     -1.9180258E-16
   6.140000     -1.9245985E-16
   6.150000     -1.9271307E-16
   6.160000     -1.9254131E-16
   6.170000     -1.9192344E-16
   6.180000     -1.9083819E-16
   6.190000     -1.8926403E-16
   6.200000     -1.8717934E-16
   6.210000     -1.8456229E-16
   6.220000     -1.8139102E-16
   6.230000     -1.7764365E-16
   6.240000     -1.7329841E-16
   6.250000     -1.6833361E-16
   6.260000     -1.6272784E-16
   6.270000     -1.5646013E-16
   6.280000     -1.4950997E-16
   6.290000     -1.4185749E-16
   6.300000     -1.3348360E-16
   6.310000     -1.2437019E-16
   6.320000     -1.1450011E-16
   6.330000     -1.0385736E-16
   6.340000     -9.2427163E-17
   6.350000     -8.0196100E-17
   6.360000     -6.7152150E-17
   6.370000     -5.3284768E-17
   6.380000     -3.8584908E-17
   6.390000     -2.3045063E-17
   6.400000     -6.6593197E-18
   6.410000      1.0576630E-17
   6.420000      2.8665557E-17
   6.430000      4.7608602E-17
   6.440000      6.7405241E-17
   6.450000      8.8053343E-17
   6.460000      1.0954897E-16
   6.470000      1.3188646E-16
   6.480000      1.5505838E-16
   6.490000      1.7905522E-16
   6.500000      2.0386542E-16
   6.510000      2.2947523E-16
   6.520000      2.5586856E-16
   6.530000      2.8302674E-16
   6.540000      3.1092856E-16
   6.550000      3.3954983E-16
   6.560000      3.6886331E-16
   6.570000      3.9883846E-16
   6.580000      4.2944160E-16
   6.590000      4.6063542E-16
   6.600000      4.9237903E-16
   6.610000      5.2462801E-16
   6.620000      5.5733423E-16
   6.630000      5.9044602E-16
   6.640000      6.2390790E-16
   6.650000      6.5766100E-16
   6.660000      6.9164285E-16
   6.670000      7.2578759E-16
   6.680000      7.6002604E-16
   6.690000      7.9428582E-16
   6.700000      8.2849145E-16
   6.710000      8.6256451E-16
   6.720000      8.9642344E-16
   6.730000      9.2998415E-16
   6.740000      9.6315958E-16
   6.750000      9.9585992E-16
   6.760000      1.0279924E-15
   6.770000      1.0594614E-15
   6.780000      1.0901684E-15
   6.790000      1.1200120E-15
   6.800000      1.1488877E-15
   6.810000      1.1766884E-15
   6.820000      1.2033035E-15
   6.830000      1.2286194E-15
   6.840000      1.2525194E-15
   6.850000      1.2748840E-15
   6.860000      1.2955910E-15
   6.870000      1.3145153E-15
   6.880000      1.3315298E-15
   6.890000      1.3465043E-15
   6.900000      1.3593073E-15
   6.910000      1.3698052E-15
   6.920000      1.3778634E-15
   6.930000      1.3833470E-15
   6.940000      1.3861200E-15
   6.950000      1.3860466E-15
   6.960000      1.3829920E-15
   6.970000      1.3768220E-15
   6.980000      1.3674038E-15
   6.990000      1.3546065E-15
   7.000000      1.3383016E-15
   7.010000      1.3183625E-15
   7.020000      1.2946659E-15
   7.030000      1.2670912E-15
   7.040000      1.2355213E-15
   7.050000      1.1998423E-15
   7.060000      1.1599431E-15