  -2.600000      0.0000000E+00
  -2.590000      0.0000000E+00
  -2.580000      0.0000000E+00
  -2.570000      0.0000000E+00
  -2.560000      0.0000000E+00
  -2.550000      0.0000000E+00
  -2.540000      0.0000000E+00
  -2.530000      0.0000000E+00
  -2.520000      0.0000000E+00
  -2.510000      0.0000000E+00
  -2.500000      0.0000000E+00
  -2.490000      0.0000000E+00
  -2.480000      0.0000000E+00
  -2.470000      0.0000000E+00
  -2.460000      0.0000000E+00
  -2.450000      0.0000000E+00
  -2.440000      0.0000000E+00
  -2.430000      0.0000000E+00
  -2.420000      0.0000000E+00
  -2.410000      0.0000000E+00
  -2.400000      0.0000000E+00
  -2.390000      0.0000000E+00
  -2.380000      0.0000000E+00
  -2.370000      0.0000000E+00
  -2.360000      0.0000000E+00
  -2.350000      0.0000000E+00
  -2.340000      0.0000000E+00
  -2.330000      0.0000000E+00
  -2.320000      0.0000000E+00
  -2.310000      0.0000000E+00
  -2.300000      0.0000000E+00
  -2.290000      0.0000000E+00
  -2.280000      0.0000000E+00
  -2.270000      0.0000000E+00
  -2.260000      0.0000000E+00
  -2.250000      0.0000000E+00
  -2.240000      0.0000000E+00
  -2.230000      0.0000000E+00
  -2.220000      0.0000000E+00
  -2.210000      0.0000000E+00
  -2.200000      0.0000000E+00
  -2.190000      0.0000000E+00
  -2.180000      0.0000000E+00
  -2.170000      0.0000000E+00
  -2.160000      0.0000000E+00
  -2.150000      0.0000000E+00
  -2.140000      0.0000000E+00
  -2.130000      0.0000000E+00
  -2.120000      0.0000000E+00
  -2.110000      0.0000000E+00
  -2.100000      0.0000000E+00
  -2.090000      0.0000000E+00
  -2.080000      0.0000000E+00
  -2.070000      0.0000000E+00
  -2.060000      0.0000000E+00
  -2.050000      0.0000000E+00
  -2.040000      0.0000000E+00
  -2.030000      0.0000000E+00
  -2.020000      0.0000000E+00
  -2.010000      0.0000000E+00
  -2.000000      0.0000000E+00
  -1.990000      0.0000000E+00
  -1.980000      0.0000000E+00
  -1.970000      0.0000000E+00
  -1.960000      0.0000000E+00
  -1.950000      0.0000000E+00
  -1.940000      0.0000000E+00
  -1.930000      0.0000000E+00
  -1.920000      0.0000000E+00
  -1.910000      0.0000000E+00
  -1.900000      0.0000000E+00
  -1.890000      0.0000000E+00
  -1.880000      0.0000000E+00
  -1.870000      0.0000000E+00
  -1.860000      0.0000000E+00
  -1.850000      0.0000000E+00
  -1.840000      0.0000000E+00
  -1.830000      0.0000000E+00
  -1.820000      0.0000000E+00
  -1.810000      0.0000000E+00
  -1.800000      0.0000000E+00
  -1.790000      0.0000000E+00
  -1.780000      0.0000000E+00
  -1.770000      0.0000000E+00
  -1.760000      0.0000000E+00
  -1.750000      0.0000000E+00
  -1.740000      0.0000000E+00
  -1.730000      0.0000000E+00
  -1.720000      0.0000000E+00
  -1.710000      0.0000000E+00
  -1.700000      0.0000000E+00
  -1.690000      0.0000000E+00
  -1.680000      0.0000000E+00
  -1.670000      0.0000000E+00
  -1.660000      0.0000000E+00
  -1.650000      0.0000000E+00
  -1.640000      0.0000000E+00
  -1.630000      0.0000000E+00
  -1.620000      0.0000000E+00
  -1.610000      0.0000000E+00
  -1.600000      0.0000000E+00
  -1.590000      0.0000000E+00
  -1.580000      0.0000000E+00
  -1.570000      0.0000000E+00
  -1.560000      0.0000000E+00
  -1.550000      0.0000000E+00
  -1.540000      0.0000000E+00
  -1.530000      0.0000000E+00
  -1.520000      0.0000000E+00
  -1.510000      0.0000000E+00
  -1.500000      0.0000000E+00
  -1.490000      0.0000000E+00
  -1.480000      0.0000000E+00
  -1.470000      0.0000000E+00
  -1.460000      0.0000000E+00
  -1.450000      0.0000000E+00
  -1.440000      0.0000000E+00
  -1.430000      0.0000000E+00
  -1.420000      0.0000000E+00
  -1.410000      0.0000000E+00
  -1.400000      0.0000000E+00
  -1.390000      0.0000000E+00
  -1.380000      0.0000000E+00
  -1.370000      0.0000000E+00
  -1.360000      0.0000000E+00
  -1.350000      0.0000000E+00
  -1.340000      0.0000000E+00
  -1.330000      0.0000000E+00
  -1.320000      0.0000000E+00
  -1.310000      0.0000000E+00
  -1.300000      0.0000000E+00
  -1.290000      0.0000000E+00
  -1.280000      0.0000000E+00
  -1.270000      0.0000000E+00
  -1.260000      0.0000000E+00
  -1.250000      0.0000000E+00
  -1.240000      0.0000000E+00
  -1.230000      0.0000000E+00
  -1.220000      0.0000000E+00
  -1.210000      0.0000000E+00
  -1.200000      0.0000000E+00
  -1.190000      0.0000000E+00
  -1.180000      0.0000000E+00
  -1.170000      0.0000000E+00
  -1.160000      0.0000000E+00
  -1.150000      0.0000000E+00
  -1.140000      0.0000000E+00
  -1.130000      0.0000000E+00
  -1.120000      0.0000000E+00
  -1.110000      0.0000000E+00
  -1.100000      0.0000000E+00
  -1.090000      0.0000000E+00
  -1.080000      0.0000000E+00
  -1.070000      0.0000000E+00
  -1.060000      0.0000000E+00
  -1.050000      0.0000000E+00
  -1.040000      0.0000000E+00
  -1.030000      0.0000000E+00
  -1.020000      0.0000000E+00
  -1.010000      0.0000000E+00
  -1.000000      0.0000000E+00
 -0.9900000      0.0000000E+00
 -0.9800000      0.0000000E+00
 -0.9700000      0.0000000E+00
 -0.9600000      0.0000000E+00
 -0.9500000      0.0000000E+00
 -0.9400000      0.0000000E+00
 -0.9300000      0.0000000E+00
 -0.9200000      0.0000000E+00
 -0.9100000      0.0000000E+00
 -0.9000000      0.0000000E+00
 -0.8900000      0.0000000E+00
 -0.8800000      0.0000000E+00
 -0.8700000      0.0000000E+00
 -0.8600000      0.0000000E+00
 -0.8500000      0.0000000E+00
 -0.8400000      0.0000000E+00
 -0.8300000      0.0000000E+00
 -0.8200000      0.0000000E+00
 -0.8100000      0.0000000E+00
 -0.8000000      0.0000000E+00
 -0.7900000      0.0000000E+00
 -0.7800000      0.0000000E+00
 -0.7700000      0.0000000E+00
 -0.7600000      0.0000000E+00
 -0.7500000      0.0000000E+00
 -0.7400000      0.0000000E+00
 -0.7300000      0.0000000E+00
 -0.7200000      1.2492813E-38
 -0.7100000      1.5367170E-38
 -0.7000000      1.8889760E-38
 -0.6900000      2.2983514E-38
 -0.6800000      2.7721557E-38
 -0.6700000      3.3071389E-38
 -0.6600000      3.9748540E-38
 -0.6500000      4.7722133E-38
 -0.6400000      5.5938540E-38
 -0.6300000      6.4356538E-38
 -0.6200000      7.2985493E-38
 -0.6100000      8.0575183E-38
 -0.6000000      8.7188006E-38
 -0.5900000      9.3921335E-38
 -0.5800000      1.0092867E-37
 -0.5700000      1.0822693E-37
 -0.5600000      1.1593284E-37
 -0.5500000      1.2393155E-37
 -0.5400000      1.3261224E-37
 -0.5300000      1.4236023E-37
 -0.5200000      1.4772105E-37
 -0.5100000      1.4303367E-37
 -0.5000000      1.3170487E-37
 -0.4900000      1.2172208E-37
 -0.4800000      1.0251829E-37
 -0.4700000      6.9576391E-38
 -0.4600000      3.1799069E-38
 -0.4500000      0.0000000E+00
 -0.4400000     -5.0819440E-38
 -0.4300000     -8.7331773E-38
 -0.4200000     -1.2125855E-37
 -0.4100000     -1.4745612E-37
 -0.4000000     -1.7418121E-37
 -0.3900000     -2.0210639E-37
 -0.3800000     -2.2737747E-37
 -0.3700000     -2.5681202E-37
 -0.3600000     -2.8919769E-37
 -0.3500000     -3.2545159E-37
 -0.3400000     -3.7352158E-37
 -0.3300000     -4.3756462E-37
 -0.3200000     -5.1141278E-37
 -0.3100000     -5.9481295E-37
 -0.3000000     -6.9104982E-37
 -0.2900000     -8.0022734E-37
 -0.2800000     -9.2955154E-37
 -0.2700000     -1.0732297E-36
 -0.2600000     -1.2240955E-36
 -0.2500000     -1.3871832E-36
 -0.2400000     -1.5565518E-36
 -0.2300000     -1.7228972E-36
 -0.2200000     -1.8848613E-36
 -0.2100000     -2.0388137E-36
 -0.2000000     -2.1870066E-36
 -0.1900000     -2.3367253E-36
 -0.1800000     -2.4763006E-36
 -0.1700000     -2.5867491E-36
 -0.1600000     -2.6183868E-36
 -0.1500000     -2.5748931E-36
 -0.1400000     -2.4995143E-36
 -0.1300000     -2.3823394E-36
 -0.1200000     -2.2370533E-36
 -0.1100000     -2.0714718E-36
 -0.1000000     -1.8980284E-36
 -9.0000004E-02 -1.7139189E-36
 -7.9999998E-02 -1.4961895E-36
 -7.0000000E-02 -1.3103094E-36
 -5.9999999E-02 -1.1716939E-36
 -5.0000001E-02 -1.0145767E-36
 -3.9999999E-02 -8.1329148E-37
 -2.9999999E-02 -5.4293903E-37
 -2.0000000E-02 -1.6924638E-37
 -9.9999998E-03  2.9551255E-37
 -3.4694470E-17  8.0101592E-37
  9.9999998E-03  1.3519250E-36
  2.0000000E-02  1.9627086E-36
  2.9999999E-02  2.6547640E-36
  3.9999999E-02  3.4643068E-36
  5.0000001E-02  4.4017130E-36
  5.9999999E-02  5.3779458E-36
  7.0000000E-02  6.3078545E-36
  7.9999998E-02  7.5595572E-36
  9.0000004E-02  9.1721053E-36
  0.1000000      1.0608697E-35
  0.1100000      1.1804220E-35
  0.1200000      1.2943615E-35
  0.1300000      1.3968499E-35
  0.1400000      1.4856954E-35
  0.1500000      1.5688816E-35
  0.1600000      1.6327292E-35
  0.1700000      1.6907883E-35
  0.1800000      1.7548802E-35
  0.1900000      1.8443473E-35
  0.2000000      1.9746022E-35
  0.2100000      2.1210517E-35
  0.2200000      2.2752045E-35
  0.2300000      2.4192400E-35
  0.2400000      2.5597167E-35
  0.2500000      2.7016849E-35
  0.2600000      2.8526467E-35
  0.2700000      3.0174840E-35
  0.2800000      3.1627491E-35
  0.2900000      3.2825697E-35
  0.3000000      3.3921596E-35
  0.3100000      3.4813336E-35
  0.3200000      3.5412614E-35
  0.3300000      3.5661637E-35
  0.3400000      3.5632678E-35
  0.3500000      3.5169830E-35
  0.3600000      3.3844859E-35
  0.3700000      3.1718132E-35
  0.3800000      2.9438330E-35
  0.3900000      2.6978574E-35
  0.4000000      2.3879288E-35
  0.4100000      2.0176601E-35
  0.4200000      1.5683913E-35
  0.4300000      1.0588039E-35
  0.4400000      4.9725632E-36
  0.4500000     -5.8167231E-37
  0.4600000     -6.1591972E-36
  0.4700000     -1.2401966E-35
  0.4800000     -1.8616755E-35
  0.4900000     -2.4119947E-35
  0.5000000     -2.8744017E-35
  0.5100000     -3.2496559E-35
  0.5200000     -3.5196258E-35
  0.5300000     -3.7776115E-35
  0.5400000     -4.0404341E-35
  0.5500000     -4.2363425E-35
  0.5600000     -4.3817335E-35
  0.5700000     -4.4090557E-35
  0.5800000     -4.2328943E-35
  0.5900000     -3.9168611E-35
  0.6000000     -3.5756747E-35
  0.6100000     -3.2513089E-35
  0.6200000     -3.0080992E-35
  0.6300000     -2.8712879E-35
  0.6400000     -3.0141724E-35
  0.6500000     -3.4952880E-35
  0.6600000     -4.1573608E-35
  0.6700000     -4.9532192E-35
  0.6800000     -5.9334535E-35
  0.6900000     -6.9989663E-35
  0.7000000     -8.1279012E-35
  0.7100000     -9.4097852E-35
  0.7200000     -1.0713570E-34
  0.7300000     -1.1921701E-34
  0.7400000     -1.2836724E-34
  0.7500000     -1.3408995E-34
  0.7600000     -1.3550270E-34
  0.7700000     -1.3078096E-34
  0.7800000     -1.2107964E-34
  0.7900000     -1.0567066E-34
  0.8000000     -8.5137618E-35
  0.8100000     -6.0066120E-35
  0.8200000     -3.1397715E-35
  0.8300000      9.3214697E-37
  0.8400000      4.4657028E-35
  0.8500000      9.8782771E-35
  0.8600000      1.5483900E-34
  0.8700000      2.1219907E-34
  0.8800000      2.7070889E-34
  0.8900000      3.2817940E-34
  0.9000000      3.8248692E-34
  0.9100000      4.2861183E-34
  0.9200000      4.6875946E-34
  0.9300000      5.0494981E-34
  0.9400000      5.3467494E-34
  0.9500000      5.5926463E-34
  0.9600000      5.8093583E-34
  0.9700000      5.9925793E-34
  0.9800000      6.1216784E-34
  0.9900000      6.2309484E-34
   1.000000      6.3736654E-34
   1.010000      6.5885623E-34
   1.020000      6.9095443E-34
   1.030000      7.3578604E-34
   1.040000      7.9414286E-34
   1.050000      8.6905436E-34
   1.060000      9.6238430E-34
   1.070000      1.0734709E-33
   1.080000      1.2017059E-33
   1.090000      1.3444038E-33
   1.100000      1.4995285E-33
   1.110000      1.6623193E-33
   1.120000      1.8250490E-33
   1.130000      1.9806676E-33
   1.140000      2.1217974E-33
   1.150000      2.2413948E-33
   1.160000      2.3349517E-33
   1.170000      2.3964256E-33
   1.180000      2.4209032E-33
   1.190000      2.4039300E-33
   1.200000      2.3424579E-33
   1.210000      2.2400657E-33
   1.220000      2.1004615E-33
   1.230000      1.9264558E-33
   1.240000      1.7237883E-33
   1.250000      1.5013327E-33
   1.260000      1.2686280E-33
   1.270000      1.0358007E-33
   1.280000      8.1297648E-34
   1.290000      6.0843978E-34
   1.300000      4.3312260E-34
   1.310000      2.9313831E-34
   1.320000      1.8986083E-34
   1.330000      1.2428180E-34
   1.340000      9.0725848E-35
   1.350000      8.0367539E-35
   1.360000      8.0956233E-35
   1.370000      7.5944115E-35
   1.380000      4.5643981E-35
   1.390000     -3.1822440E-35
   1.400000     -1.7955536E-34
   1.410000     -4.2075737E-34
   1.420000     -7.7728921E-34
   1.430000     -1.2680271E-33
   1.440000     -1.9088550E-33
   1.450000     -2.7076416E-33
   1.460000     -3.6650613E-33
   1.470000     -4.7768310E-33
   1.480000     -6.0299249E-33
   1.490000     -7.4034566E-33
   1.500000     -8.8687779E-33
   1.510000     -1.0390725E-32
   1.520000     -1.1929976E-32
   1.530000     -1.3444784E-32
   1.540000     -1.4894442E-32
   1.550000     -1.6239313E-32
   1.560000     -1.7443337E-32
   1.570000     -1.8481660E-32
   1.580000     -1.9338685E-32
   1.590000     -2.0009377E-32
   1.600000     -2.0502682E-32
   1.610000     -2.0841612E-32
   1.620000     -2.1063908E-32
   1.630000     -2.1220557E-32
   1.640000     -2.1372935E-32
   1.650000     -2.1589839E-32
   1.660000     -2.1943100E-32
   1.670000     -2.2507252E-32
   1.680000     -2.3352189E-32
   1.690000     -2.4534673E-32
   1.700000     -2.6098202E-32
   1.710000     -2.8066970E-32
   1.720000     -3.0442527E-32
   1.730000     -3.3201521E-32
   1.740000     -3.6294684E-32
   1.750000     -3.9645710E-32
   1.760000     -4.3154884E-32
   1.770000     -4.6702887E-32
   1.780000     -5.0155064E-32
   1.790000     -5.3369559E-32
   1.800000     -5.6204370E-32
   1.810000     -5.8528111E-32
   1.820000     -6.0223667E-32
   1.830000     -6.1200474E-32
   1.840000     -6.1405885E-32
   1.850000     -6.0827107E-32
   1.860000     -5.9496924E-32
   1.870000     -5.7495380E-32
   1.880000     -5.4949918E-32
   1.890000     -5.2031588E-32
   1.900000     -4.8948446E-32
   1.910000     -4.5936027E-32
   1.920000     -4.3245388E-32
   1.930000     -4.1129049E-32
   1.940000     -3.9825649E-32
   1.950000     -3.9544088E-32
   1.960000     -4.0448249E-32
   1.970000     -4.2643153E-32
   1.980000     -4.6163591E-32
   1.990000     -5.0965521E-32
   2.000000     -5.6925001E-32
   2.010000     -6.3837725E-32
   2.020000     -7.1423818E-32
   2.030000     -7.9342289E-32
   2.040000     -8.7207111E-32
   2.050000     -9.4608640E-32
   2.060000     -1.0113852E-31
   2.070000     -1.0641683E-31
   2.080000     -1.1012017E-31
   2.090000     -1.1200861E-31
   2.100000     -1.1195027E-31
   2.110000     -1.0994125E-31
   2.120000     -1.0611956E-31
   2.130000     -1.0077173E-31
   2.140000     -9.4330618E-32
   2.150000     -8.7364192E-32
   2.160000     -8.0554982E-32
   2.170000     -7.4670787E-32
   2.180000     -7.0527645E-32
   2.190000     -6.8946511E-32
   2.200000     -7.0706191E-32
   2.210000     -7.6494725E-32
   2.220000     -8.6862450E-32
   2.230000     -1.0217953E-31
   2.240000     -1.2260103E-31
   2.250000     -1.4804257E-31
   2.260000     -1.7816874E-31
   2.270000     -2.1239603E-31
   2.280000     -2.4991156E-31
   2.290000     -2.8970771E-31
   2.300000     -3.3063160E-31
   2.310000     -3.7144782E-31
   2.320000     -4.1091102E-31
   2.330000     -4.4784581E-31
   2.340000     -4.8122957E-31
   2.350000     -5.1027058E-31
   2.360000     -5.3447899E-31
   2.370000     -5.5372550E-31
   2.380000     -5.6828104E-31
   2.390000     -5.7883505E-31
   2.400000     -5.8648864E-31
   2.410000     -5.9272116E-31
   2.420000     -5.9932932E-31
   2.430000     -6.0834033E-31
   2.440000     -6.2190398E-31
   2.450000     -6.4216603E-31
   2.460000     -6.7113054E-31
   2.470000     -7.1051802E-31
   2.480000     -7.6162856E-31
   2.490000     -8.2521725E-31
   2.500000     -9.0139267E-31
   2.510000     -9.8954497E-31
   2.520000     -1.0883104E-30
   2.530000     -1.1955780E-30
   2.540000     -1.3085407E-30
   2.550000     -1.4237917E-30
   2.560000     -1.5374639E-30
   2.570000     -1.6454056E-30
   2.580000     -1.7433879E-30
   2.590000     -1.8273276E-30
   2.600000     -1.8935190E-30
   2.610000     -1.9388572E-30
   2.620000     -1.9610392E-30
   2.630000     -1.9587285E-30
   2.640000     -1.9316694E-30
   2.650000     -1.8807396E-30
   2.660000     -1.8079349E-30
   2.670000     -1.7162782E-30
   2.680000     -1.6096533E-30
   2.690000     -1.4925698E-30
   2.700000     -1.3698642E-30
   2.710000     -1.2463532E-30
   2.720000     -1.1264553E-30
   2.730000     -1.0138031E-30
   2.740000     -9.1086678E-31
   2.750000     -8.1861539E-31
   2.760000     -7.3623877E-31
   2.770000     -6.6095062E-31
   2.780000     -5.8789482E-31
   2.790000     -5.1016229E-31
   2.800000     -4.1893514E-31
   2.810000     -3.0375169E-31
   2.820000     -1.5288819E-31
   2.830000      4.6157323E-32
   2.840000      3.0610129E-31
   2.850000      6.3925659E-31
   2.860000      1.0568981E-30
   2.870000      1.5686461E-30
   2.880000      2.1819110E-30
   2.890000      2.9014334E-30
   2.900000      3.7289573E-30
   2.910000      4.6630612E-30
   2.920000      5.6991897E-30
   2.930000      6.8298599E-30
   2.940000      8.0450856E-30
   2.950000      9.3329850E-30
   2.960000      1.0680539E-29
   2.970000      1.2074497E-29
   2.980000      1.3502353E-29
   2.990000      1.4953365E-29
   3.000000      1.6419522E-29
   3.010000      1.7896420E-29
   3.020000      1.9383987E-29
   3.030000      2.0886999E-29
   3.040000      2.2415306E-29
   3.050000      2.3983773E-29
   3.060000      2.5611901E-29
   3.070000      2.7323132E-29
   3.080000      2.9143825E-29
   3.090000      3.1101984E-29
   3.100000      3.3225785E-29
   3.110000      3.5541936E-29
   3.120000      3.8073989E-29
   3.130000      4.0840738E-29
   3.140000      4.3854722E-29
   3.150000      4.7121006E-29
   3.160000      5.0636273E-29
   3.170000      5.4388364E-29
   3.180000      5.8356261E-29
   3.190000      6.2510618E-29
   3.200000      6.6814747E-29
   3.210000      7.1226138E-29
   3.220000      7.5698376E-29
   3.230000      8.0183403E-29
   3.240000      8.4633968E-29
   3.250000      8.9006202E-29
   3.260000      9.3262068E-29
   3.270000      9.7371624E-29
   3.280000      1.0131486E-28
   3.290000      1.0508299E-28
   3.300000      1.0867910E-28
   3.310000      1.1211807E-28
   3.320000      1.1542564E-28
   3.330000      1.1863666E-28
   3.340000      1.2179270E-28
   3.350000      1.2493882E-28
   3.360000      1.2811990E-28
   3.370000      1.3137663E-28
   3.380000      1.3474128E-28
   3.390000      1.3823379E-28
   3.400000      1.4185792E-28
   3.410000      1.4559832E-28
   3.420000      1.4941820E-28
   3.430000      1.5325819E-28
   3.440000      1.5703630E-28
   3.450000      1.6064912E-28
   3.460000      1.6397441E-28
   3.470000      1.6687469E-28
   3.480000      1.6920213E-28
   3.490000      1.7080402E-28
   3.500000      1.7152910E-28
   3.510000      1.7123372E-28
   3.520000      1.6978829E-28
   3.530000      1.6708280E-28
   3.540000      1.6303165E-28
   3.550000      1.5757710E-28
   3.560000      1.5069105E-28
   3.570000      1.4237530E-28
   3.580000      1.3265952E-28
   3.590000      1.2159756E-28
   3.600000      1.0926168E-28
   3.610000      9.5735378E-29
   3.620000      8.1104762E-29
   3.630000      6.5449088E-29
   3.640000      4.8831027E-29
   3.650000      3.1287234E-29
   3.660000      1.2819584E-29
   3.670000     -6.6120056E-30
   3.680000     -2.7094687E-29
   3.690000     -4.8765524E-29
   3.700000     -7.1811392E-29
   3.710000     -9.6465949E-29
   3.720000     -1.2300366E-28
   3.730000     -1.5173049E-28
   3.740000     -1.8297259E-28
   3.750000     -2.1706273E-28
   3.760000     -2.5432528E-28
   3.770000     -2.9506063E-28
   3.780000     -3.3953001E-28
   3.790000     -3.8794146E-28
   3.800000     -4.4043789E-28
   3.810000     -4.9708834E-28
   3.820000     -5.5788249E-28
   3.830000     -6.2272971E-28
   3.840000     -6.9146282E-28
   3.850000     -7.6384582E-28
   3.860000     -8.3958634E-28
   3.870000     -9.1835215E-28
   3.880000     -9.9979039E-28
   3.890000     -1.0835488E-27
   3.900000     -1.1692981E-27
   3.910000     -1.2567541E-27
   3.920000     -1.3456972E-27
   3.930000     -1.4359894E-27
   3.940000     -1.5275859E-27
   3.950000     -1.6205427E-27
   3.960000     -1.7150158E-27
   3.970000     -1.8112551E-27
   3.980000     -1.9095900E-27
   3.990000     -2.0104093E-27
   4.000000     -2.1141353E-27
   4.010000     -2.2211925E-27
   4.020000     -2.3319732E-27
   4.030000     -2.4468014E-27
   4.040000     -2.5658986E-27
   4.050000     -2.6893505E-27
   4.060000     -2.8170795E-27
   4.070000     -2.9488239E-27
   4.080000     -3.0841247E-27
   4.090000     -3.2223231E-27
   4.100000     -3.3625674E-27
   4.110000     -3.5038309E-27
   4.120000     -3.6449391E-27
   4.130000     -3.7846064E-27
   4.140000     -3.9214803E-27
   4.150000     -4.0541892E-27
   4.160000     -4.1813957E-27
   4.170000     -4.3018442E-27
   4.180000     -4.4144086E-27
   4.190000     -4.5181327E-27
   4.200000     -4.6122582E-27
   4.210000     -4.6962446E-27
   4.220000     -4.7697693E-27
   4.230000     -4.8327198E-27
   4.240000     -4.8851637E-27
   4.250000     -4.9273065E-27
   4.260000     -4.9594379E-27
   4.270000     -4.9818646E-27
   4.280000     -4.9948373E-27
   4.290000     -4.9984723E-27
   4.300000     -4.9926795E-27
   4.310000     -4.9770875E-27
   4.320000     -4.9509873E-27
   4.330000     -4.9132861E-27
   4.340000     -4.8624781E-27
   4.350000     -4.7966418E-27
   4.360000     -4.7134555E-27
   4.370000     -4.6102364E-27
   4.380000     -4.4840052E-27
   4.390000     -4.3315667E-27
   4.400000     -4.1496106E-27
   4.410000     -3.9348193E-27
   4.420000     -3.6839866E-27
   4.430000     -3.3941326E-27
   4.440000     -3.0626105E-27
   4.450000     -2.6872025E-27
   4.460000     -2.2661915E-27
   4.470000     -1.7984078E-27
   4.480000     -1.2832467E-27
   4.490000     -7.2065058E-28
   4.500000     -1.1106158E-28
   4.510000      5.4465958E-28
   4.520000      1.2453469E-27
   4.530000      1.9896622E-27
   4.540000      2.7762479E-27
   4.550000      3.6038849E-27
   4.560000      4.4716492E-27
   4.570000      5.3790607E-27
   4.580000      6.3262096E-27
   4.590000      7.3138492E-27
   4.600000      8.3434552E-27
   4.610000      9.4172351E-27
   4.620000      1.0538099E-26
   4.630000      1.1709563E-26
   4.640000      1.2935624E-26
   4.650000      1.4220577E-26
   4.660000      1.5568808E-26
   4.670000      1.6984553E-26
   4.680000      1.8471640E-26
   4.690000      2.0033243E-26
   4.700000      2.1671647E-26
   4.710000      2.3388036E-26
   4.720000      2.5182324E-26
   4.730000      2.7053051E-26
   4.740000      2.8997331E-26
   4.750000      3.1010883E-26
   4.760000      3.3088105E-26
   4.770000      3.5222257E-26
   4.780000      3.7405673E-26
   4.790000      3.9630036E-26
   4.800000      4.1886702E-26
   4.810000      4.4167028E-26
   4.820000      4.6462706E-26
   4.830000      4.8766081E-26
   4.840000      5.1070417E-26
   4.850000      5.3370120E-26
   4.860000      5.5660861E-26
   4.870000      5.7939633E-26
   4.880000      6.0204693E-26
   4.890000      6.2455381E-26
   4.900000      6.4691919E-26
   4.910000      6.6914997E-26
   4.920000      6.9125404E-26
   4.930000      7.1323515E-26
   4.940000      7.3508820E-26
   4.950000      7.5679389E-26
   4.960000      7.7831390E-26
   4.970000      7.9958689E-26
   4.980000      8.2052492E-26
   4.990000      8.4101151E-26
   5.000000      8.6090030E-26
   5.010000      8.8001563E-26
   5.020000      8.9815493E-26
   5.030000      9.1509153E-26
   5.040000      9.3057977E-26
   5.050000      9.4436074E-26
   5.060000      9.5616887E-26
   5.070000      9.6573905E-26
   5.080000      9.7281409E-26
   5.090000      9.7715122E-26
   5.100000      9.7852864E-26
   5.110000      9.7675019E-26
   5.120000      9.7164867E-26
   5.130000      9.6308774E-26
   5.140000      9.5096159E-26
   5.150000      9.3519208E-26
   5.160000      9.1572490E-26
   5.170000      8.9252314E-26
   5.180000      8.6555932E-26
   5.190000      8.3480651E-26
   5.200000      8.0022895E-26
   5.210000      7.6177204E-26
   5.220000      7.1935345E-26
   5.230000      6.7285472E-26
   5.240000      6.2211506E-26
   5.250000      5.6692740E-26
   5.260000      5.0703613E-26
   5.270000      4.4213842E-26
   5.280000      3.7188857E-26
   5.290000      2.9590518E-26
   5.300000      2.1378075E-26
   5.310000      1.2509371E-26
   5.320000      2.9421935E-27
   5.330000     -7.3642315E-27
   5.340000     -1.8447689E-26
   5.350000     -3.0341544E-26
   5.360000     -4.3073432E-26
   5.370000     -5.6664181E-26
   5.380000     -7.1126996E-26
   5.390000     -8.6467068E-26
   5.400000     -1.0268141E-25
   5.410000     -1.1975929E-25
   5.420000     -1.3768298E-25
   5.430000     -1.5642881E-25
   5.440000     -1.7596869E-25
   5.450000     -1.9627167E-25
   5.460000     -2.1730589E-25
   5.470000     -2.3904031E-25
   5.480000     -2.6144670E-25
   5.490000     -2.8450101E-25
   5.500000     -3.0818473E-25
   5.510000     -3.3248591E-25
   5.520000     -3.5739925E-25
   5.530000     -3.8292615E-25
   5.540000     -4.0907398E-25
   5.550000     -4.3585472E-25
   5.560000     -4.6328317E-25
   5.570000     -4.9137451E-25
   5.580000     -5.2014209E-25
   5.590000     -5.4959407E-25
   5.600000     -5.7973092E-25
   5.610000     -6.1054240E-25
   5.620000     -6.4200503E-25
   5.630000     -6.7408016E-25
   5.640000     -7.0671209E-25
   5.650000     -7.3982733E-25
   5.660000     -7.7333435E-25
   5.670000     -8.0712437E-25
   5.680000     -8.4107265E-25
   5.690000     -8.7504080E-25
   5.700000     -9.0887929E-25
   5.710000     -9.4243112E-25
   5.720000     -9.7553508E-25
   5.730000     -1.0080299E-24
   5.740000     -1.0397578E-24
   5.750000     -1.0705676E-24
   5.760000     -1.1003175E-24
   5.770000     -1.1288774E-24
   5.780000     -1.1561300E-24
   5.790000     -1.1819707E-24
   5.800000     -1.2063068E-24
   5.810000     -1.2290556E-24
   5.820000     -1.2501414E-24
   5.830000     -1.2694916E-24
   5.840000     -1.2870319E-24
   5.850000     -1.3026818E-24
   5.860000     -1.3163491E-24
   5.870000     -1.3279252E-24
   5.880000     -1.3372801E-24
   5.890000     -1.3442591E-24
   5.900000     -1.3486800E-24
   5.910000     -1.3503315E-24
   5.920000     -1.3489728E-24
   5.930000     -1.3443355E-24
   5.940000     -1.3361265E-24
   5.950000     -1.3240317E-24
   5.960000     -1.3077227E-24
   5.970000     -1.2868627E-24
   5.980000     -1.2611140E-24
   5.990000     -1.2301451E-24
   6.000000     -1.1936387E-24
   6.010000     -1.1512992E-24
   6.020000     -1.1028576E-24
   6.030000     -1.0480766E-24
   6.040000     -9.8675396E-25
   6.050000     -9.1872368E-25
   6.060000     -8.4385516E-25
   6.070000     -7.6205014E-25
   6.080000     -6.7323860E-25
   6.090000     -5.7737252E-25
   6.100000     -4.7441814E-25
   6.110000     -3.6434702E-25
   6.120000     -2.4712811E-25
   6.130000     -1.2271856E-25
   6.140000      8.9447521E-27
   6.150000      1.4795152E-25
   6.160000      2.9442195E-25
   6.170000      4.4851071E-25
   6.180000      6.1040676E-25
   6.190000      7.8032957E-25
   6.200000      9.5852477E-25
   6.210000      1.1452562E-24
   6.220000      1.3407954E-24
   6.230000      1.5454089E-24
   6.240000      1.7593440E-24
   6.250000      1.9828161E-24
   6.260000      2.2159937E-24
   6.270000      2.4589848E-24
   6.280000      2.7118255E-24
   6.290000      2.9744704E-24
   6.300000      3.2467868E-24
   6.310000      3.5285516E-24
   6.320000      3.8194503E-24
   6.330000      4.1190842E-24
   6.340000      4.4269750E-24
   6.350000      4.7425773E-24
   6.360000      5.0652928E-24
   6.370000      5.3944845E-24
   6.380000      5.7294924E-24
   6.390000      6.0696516E-24
   6.400000      6.4143065E-24
   6.410000      6.7628241E-24
   6.420000      7.1146024E-24
   6.430000      7.4690818E-24
   6.440000      7.8257416E-24
   6.450000      8.1840974E-24
   6.460000      8.5436973E-24
   6.470000      8.9041058E-24
   6.480000      9.2648889E-24
   6.490000      9.6255948E-24
   6.500000      9.9857279E-24
   6.510000      1.0344727E-23
   6.520000      1.0701942E-23
   6.530000      1.1056610E-23
   6.540000      1.1407836E-23
   6.550000      1.1754580E-23
   6.560000      1.2095643E-23
   6.570000      1.2429662E-23
   6.580000      1.2755116E-23
   6.590000      1.3070332E-23
   6.600000      1.3373497E-23
   6.610000      1.3662687E-23
   6.620000      1.3935892E-23
   6.630000      1.4191033E-23
   6.640000      1.4426013E-23
   6.650000      1.4638737E-23
   6.660000      1.4827144E-23
   6.670000      1.4989239E-23
   6.680000      1.5123112E-23
   6.690000      1.5226954E-23
   6.700000      1.5299072E-23
   6.710000      1.5337883E-23
   6.720000      1.5341906E-23
   6.730000      1.5309750E-23
   6.740000      1.5240091E-23
   6.750000      1.5131640E-23
   6.760000      1.4983105E-23
   6.770000      1.4793161E-23
   6.780000      1.4560406E-23
   6.790000      1.4283333E-23
   6.800000      1.3960292E-23
   6.810000      1.3589472E-23
   6.820000      1.3168881E-23
   6.830000      1.2696346E-23
   6.840000      1.2169512E-23
   6.850000      1.1585867E-23
   6.860000      1.0942765E-23
   6.870000      1.0237475E-23
   6.880000      9.4672183E-24
   6.890000      8.6292335E-24
   6.900000      7.7208341E-24
   6.910000      6.7394651E-24
   6.920000      5.6827713E-24
   6.930000      4.5486371E-24
   6.940000      3.3352471E-24
   6.950000      2.0411161E-24
   6.960000      6.6511244E-25
   6.970000     -7.9353397E-25
   6.980000     -2.3352385E-24
   6.990000     -3.9600802E-24
   7.000000     -5.6678370E-24
   7.010000     -7.4580314E-24
   7.020000     -9.3299826E-24
   7.030000     -1.1282865E-23
   7.040000     -1.3315778E-23
   7.050000     -1.5427800E-23
   7.060000     -1.7618033E-23