  -2.600000      0.0000000E+00
  -2.590000      0.0000000E+00
  -2.580000      0.0000000E+00
  -2.570000      0.0000000E+00
  -2.560000      0.0000000E+00
  -2.550000      0.0000000E+00
  -2.540000      0.0000000E+00
  -2.530000      0.0000000E+00
  -2.520000      0.0000000E+00
  -2.510000      0.0000000E+00
  -2.500000      0.0000000E+00
  -2.490000      0.0000000E+00
  -2.480000      0.0000000E+00
  -2.470000      0.0000000E+00
  -2.460000      0.0000000E+00
  -2.450000      0.0000000E+00
  -2.440000      0.0000000E+00
  -2.430000      0.0000000E+00
  -2.420000      0.0000000E+00
  -2.410000      0.0000000E+00
  -2.400000      0.0000000E+00
  -2.390000      0.0000000E+00
  -2.380000      0.0000000E+00
  -2.370000      0.0000000E+00
  -2.360000      0.0000000E+00
  -2.350000      0.0000000E+00
  -2.340000      0.0000000E+00
  -2.330000      0.0000000E+00
  -2.320000      0.0000000E+00
  -2.310000      0.0000000E+00
  -2.300000      0.0000000E+00
  -2.290000      0.0000000E+00
  -2.280000      0.0000000E+00
  -2.270000      0.0000000E+00
  -2.260000      0.0000000E+00
  -2.250000      0.0000000E+00
  -2.240000      0.0000000E+00
  -2.230000      0.0000000E+00
  -2.220000      0.0000000E+00
  -2.210000      0.0000000E+00
  -2.200000      0.0000000E+00
  -2.190000      0.0000000E+00
  -2.180000      0.0000000E+00
  -2.170000      0.0000000E+00
  -2.160000      0.0000000E+00
  -2.150000      0.0000000E+00
  -2.140000      0.0000000E+00
  -2.130000      0.0000000E+00
  -2.120000      0.0000000E+00
  -2.110000      0.0000000E+00
  -2.100000      0.0000000E+00
  -2.090000      0.0000000E+00
  -2.080000      0.0000000E+00
  -2.070000      1.3986978E-38
  -2.060000      3.1574430E-38
  -2.050000      5.4410189E-38
  -2.040000      7.7819838E-38
  -2.030000      9.8810308E-38
  -2.020000      1.1134510E-37
  -2.010000      1.0273077E-37
  -2.000000      6.5209312E-38
  -1.990000      0.0000000E+00
  -1.980000     -1.2307427E-37
  -1.970000     -2.9055199E-37
  -1.960000     -5.2050328E-37
  -1.950000     -8.2060765E-37
  -1.940000     -1.1775259E-36
  -1.930000     -1.5869075E-36
  -1.920000     -2.0372709E-36
  -1.910000     -2.4818679E-36
  -1.900000     -2.8631784E-36
  -1.890000     -3.0859719E-36
  -1.880000     -2.9819099E-36
  -1.870000     -2.3915018E-36
  -1.860000     -1.0948596E-36
  -1.850000      1.1477622E-36
  -1.840000      4.6131606E-36
  -1.830000      9.5852976E-36
  -1.820000      1.6008270E-35
  -1.810000      2.3952294E-35
  -1.800000      3.3362573E-35
  -1.790000      4.3817244E-35
  -1.780000      5.4326332E-35
  -1.770000      6.3439140E-35
  -1.760000      6.9567070E-35
  -1.750000      7.0825498E-35
  -1.740000      6.5002743E-35
  -1.730000      4.9466880E-35
  -1.720000      2.1459655E-35
  -1.710000     -2.1613121E-35
  -1.700000     -8.1978356E-35
  -1.690000     -1.6229733E-34
  -1.680000     -2.6333362E-34
  -1.670000     -3.8399146E-34
  -1.660000     -5.2328435E-34
  -1.650000     -6.7622103E-34
  -1.640000     -8.3390690E-34
  -1.630000     -9.8411561E-34
  -1.620000     -1.1115617E-33
  -1.610000     -1.1977484E-33
  -1.600000     -1.2178012E-33
  -1.590000     -1.1450715E-33
  -1.580000     -9.5141546E-34
  -1.570000     -6.0593703E-34
  -1.560000     -7.9368058E-35
  -1.550000      6.5213153E-34
  -1.540000      1.5995201E-33
  -1.530000      2.7584797E-33
  -1.520000      4.1087991E-33
  -1.510000      5.6082281E-33
  -1.500000      7.1834746E-33
  -1.490000      8.7281631E-33
  -1.480000      1.0099851E-32
  -1.470000      1.1108403E-32
  -1.460000      1.1518414E-32
  -1.450000      1.1045769E-32
  -1.440000      9.3512170E-33
  -1.430000      6.0415135E-33
  -1.420000      6.7377697E-34
  -1.410000     -7.2453747E-33
  -1.400000     -1.8263764E-32
  -1.390000     -3.2977962E-32
  -1.380000     -5.2034568E-32
  -1.370000     -7.6134489E-32
  -1.360000     -1.0603944E-31
  -1.350000     -1.4258436E-31
  -1.340000     -1.8669425E-31
  -1.330000     -2.3941035E-31
  -1.320000     -3.0192535E-31
  -1.310000     -3.7562623E-31
  -1.300000     -4.6214852E-31
  -1.290000     -5.6343927E-31
  -1.280000     -6.8182984E-31
  -1.270000     -8.2011598E-31
  -1.260000     -9.8164254E-31
  -1.250000     -1.1703908E-30
  -1.240000     -1.3910653E-30
  -1.230000     -1.6491746E-30
  -1.220000     -1.9511025E-30
  -1.210000     -2.3041653E-30
  -1.200000     -2.7166536E-30
  -1.190000     -3.1978487E-30
  -1.180000     -3.7580182E-30
  -1.170000     -4.4083901E-30
  -1.160000     -5.1610977E-30
  -1.150000     -6.0291117E-30
  -1.140000     -7.0261551E-30
  -1.130000     -8.1666125E-30
  -1.120000     -9.4654476E-30
  -1.110000     -1.0938133E-29
  -1.100000     -1.2600615E-29
  -1.090000     -1.4469322E-29
  -1.080000     -1.6561237E-29
  -1.070000     -1.8894035E-29
  -1.060000     -2.1486312E-29
  -1.050000     -2.4357910E-29
  -1.040000     -2.7530323E-29
  -1.030000     -3.1027210E-29
  -1.020000     -3.4874971E-29
  -1.010000     -3.9103420E-29
  -1.000000     -4.3746457E-29
 -0.9900000     -4.8842793E-29
 -0.9800000     -5.4436627E-29
 -0.9700000     -6.0578279E-29
 -0.9600000     -6.7324691E-29
 -0.9500000     -7.4739816E-29
 -0.9400000     -8.2894829E-29
 -0.9300000     -9.1868104E-29
 -0.9200000     -1.0174499E-28
 -0.9100000     -1.1261737E-28
 -0.9000000     -1.2458294E-28
 -0.8900000     -1.3774444E-28
 -0.8800000     -1.5220854E-28
 -0.8700000     -1.6808492E-28
 -0.8600000     -1.8548510E-28
 -0.8500000     -2.0452160E-28
 -0.8400000     -2.2530727E-28
 -0.8300000     -2.4795479E-28
 -0.8200000     -2.7257687E-28
 -0.8100000     -2.9928684E-28
 -0.8000000     -3.2819984E-28
 -0.7900000     -3.5943469E-28
 -0.7800000     -3.9311646E-28
 -0.7700000     -4.2937948E-28
 -0.7600000     -4.6837114E-28
 -0.7500000     -5.1025574E-28
 -0.7400000     -5.5521888E-28
 -0.7300000     -6.0347176E-28
 -0.7200000     -6.5525486E-28
 -0.7100000     -7.1084163E-28
 -0.7000000     -7.7054088E-28
 -0.6900000     -8.3469833E-28
 -0.6800000     -9.0369669E-28
 -0.6700000     -9.7795458E-28
 -0.6600000     -1.0579234E-27
 -0.6500000     -1.1440830E-27
 -0.6400000     -1.2369356E-27
 -0.6300000     -1.3369989E-27
 -0.6200000     -1.4447977E-27
 -0.6100000     -1.5608562E-27
 -0.6000000     -1.6856887E-27
 -0.5900000     -1.8197933E-27
 -0.5800000     -1.9636450E-27
 -0.5700000     -2.1176923E-27
 -0.5600000     -2.2823554E-27
 -0.5500000     -2.4580291E-27
 -0.5400000     -2.6450878E-27
 -0.5300000     -2.8438946E-27
 -0.5200000     -3.0548159E-27
 -0.5100000     -3.2782359E-27
 -0.5000000     -3.5145772E-27
 -0.4900000     -3.7643221E-27
 -0.4800000     -4.0280339E-27
 -0.4700000     -4.3063794E-27
 -0.4600000     -4.6001472E-27
 -0.4500000     -4.9102655E-27
 -0.4400000     -5.2378118E-27
 -0.4300000     -5.5840189E-27
 -0.4200000     -5.9502711E-27
 -0.4100000     -6.3380925E-27
 -0.4000000     -6.7491311E-27
 -0.3900000     -7.1851262E-27
 -0.3800000     -7.6478786E-27
 -0.3700000     -8.1392057E-27
 -0.3600000     -8.6608985E-27
 -0.3500000     -9.2146750E-27
 -0.3400000     -9.8021368E-27
 -0.3300000     -1.0424730E-26
 -0.3200000     -1.1083711E-26
 -0.3100000     -1.1780136E-26
 -0.3000000     -1.2514845E-26
 -0.2900000     -1.3288485E-26
 -0.2800000     -1.4101539E-26
 -0.2700000     -1.4954370E-26
 -0.2600000     -1.5847297E-26
 -0.2500000     -1.6780680E-26
 -0.2400000     -1.7755009E-26
 -0.2300000     -1.8771021E-26
 -0.2200000     -1.9829798E-26
 -0.2100000     -2.0932877E-26
 -0.2000000     -2.2082343E-26
 -0.1900000     -2.3280895E-26
 -0.1800000     -2.4531907E-26
 -0.1700000     -2.5839430E-26
 -0.1600000     -2.7208185E-26
 -0.1500000     -2.8643502E-26
 -0.1400000     -3.0151210E-26
 -0.1300000     -3.1737526E-26
 -0.1200000     -3.3408863E-26
 -0.1100000     -3.5171659E-26
 -0.1000000     -3.7032157E-26
 -9.0000004E-02 -3.8996193E-26
 -7.9999998E-02 -4.1069008E-26
 -7.0000000E-02 -4.3255065E-26
 -5.9999999E-02 -4.5557916E-26
 -5.0000001E-02 -4.7980135E-26
 -3.9999999E-02 -5.0523308E-26
 -2.9999999E-02 -5.3188078E-26
 -2.0000000E-02 -5.5974297E-26
 -9.9999998E-03 -5.8881250E-26
 -3.4694470E-17 -6.1907936E-26
  9.9999998E-03 -6.5053452E-26
  2.0000000E-02 -6.8317370E-26
  2.9999999E-02 -7.1700190E-26
  3.9999999E-02 -7.5203743E-26
  5.0000001E-02 -7.8831597E-26
  5.9999999E-02 -8.2589392E-26
  7.0000000E-02 -8.6485114E-26
  7.9999998E-02 -9.0529166E-26
  9.0000004E-02 -9.4734411E-26
  0.1000000     -9.9115997E-26
  0.1100000     -1.0369100E-25
  0.1200000     -1.0847794E-25
  0.1300000     -1.1349620E-25
  0.1400000     -1.1876515E-25
  0.1500000     -1.2430339E-25
  0.1600000     -1.3012780E-25
  0.1700000     -1.3625261E-25
  0.1800000     -1.4268857E-25
  0.1900000     -1.4944227E-25
  0.2000000     -1.5651551E-25
  0.2100000     -1.6390507E-25
  0.2200000     -1.7160252E-25
  0.2300000     -1.7959459E-25
  0.2400000     -1.8786363E-25
  0.2500000     -1.9638846E-25
  0.2600000     -2.0514551E-25
  0.2700000     -2.1411011E-25
  0.2800000     -2.2325804E-25
  0.2900000     -2.3256699E-25
  0.3000000     -2.4201809E-25
  0.3100000     -2.5159725E-25
  0.3200000     -2.6129635E-25
  0.3300000     -2.7111372E-25
  0.3400000     -2.8105467E-25
  0.3500000     -2.9113104E-25
  0.3600000     -3.0136047E-25
  0.3700000     -3.1176476E-25
  0.3800000     -3.2236793E-25
  0.3900000     -3.3319365E-25
  0.4000000     -3.4426220E-25
  0.4100000     -3.5558734E-25
  0.4200000     -3.6717284E-25
  0.4300000     -3.7900921E-25
  0.4400000     -3.9107069E-25
  0.4500000     -4.0331300E-25
  0.4600000     -4.1567122E-25
  0.4700000     -4.2805920E-25
  0.4800000     -4.4036952E-25
  0.4900000     -4.5247464E-25
  0.5000000     -4.6422926E-25
  0.5100000     -4.7547368E-25
  0.5200000     -4.8603796E-25
  0.5300000     -4.9574682E-25
  0.5400000     -5.0442547E-25
  0.5500000     -5.1190461E-25
  0.5600000     -5.1802607E-25
  0.5700000     -5.2264747E-25
  0.5800000     -5.2564583E-25
  0.5900000     -5.2692018E-25
  0.6000000     -5.2639209E-25
  0.6100000     -5.2400441E-25
  0.6200000     -5.1971848E-25
  0.6300000     -5.1350866E-25
  0.6400000     -5.0535549E-25
  0.6500000     -4.9523721E-25
  0.6600000     -4.8311942E-25
  0.6700000     -4.6894492E-25
  0.6800000     -4.5262319E-25
  0.6900000     -4.3401993E-25
  0.7000000     -4.1294840E-25
  0.7100000     -3.8916205E-25
  0.7200000     -3.6235039E-25
  0.7300000     -3.3213761E-25
  0.7400000     -2.9808448E-25
  0.7500000     -2.5969380E-25
  0.7600000     -2.1642000E-25
  0.7700000     -1.6768146E-25
  0.7800000     -1.1287564E-25
  0.7900000     -5.1396648E-26
  0.8000000      1.7346090E-26
  0.8100000      9.3909250E-26
  0.8200000      1.7879811E-25
  0.8300000      2.7245145E-25
  0.8400000      3.7523034E-25
  0.8500000      4.8741033E-25
  0.8600000      6.0918013E-25
  0.8700000      7.4064627E-25
  0.8800000      8.8184473E-25
  0.8900000      1.0327573E-24
  0.9000000      1.1933336E-24
  0.9100000      1.3635200E-24
  0.9200000      1.5432905E-24
  0.9300000      1.7326780E-24
  0.9400000      1.9318072E-24
  0.9500000      2.1409263E-24
  0.9600000      2.3604306E-24
  0.9700000      2.5908823E-24
  0.9800000      2.8330216E-24
  0.9900000      3.0877676E-24
   1.000000      3.3562091E-24
   1.010000      3.6395833E-24
   1.020000      3.9392456E-24
   1.030000      4.2566284E-24
   1.040000      4.5931915E-24
   1.050000      4.9503704E-24
   1.060000      5.3295182E-24
   1.070000      5.7318495E-24
   1.080000      6.1583921E-24
   1.090000      6.6099424E-24
   1.100000      7.0870357E-24
   1.110000      7.5899266E-24
   1.120000      8.1185943E-24
   1.130000      8.6727605E-24
   1.140000      9.2519256E-24
   1.150000      9.8554270E-24
   1.160000      1.0482511E-23
   1.170000      1.1132414E-23
   1.180000      1.1804464E-23
   1.190000      1.2498173E-23
   1.200000      1.3213332E-23
   1.210000      1.3950095E-23
   1.220000      1.4709055E-23
   1.230000      1.5491289E-23
   1.240000      1.6298392E-23
   1.250000      1.7132464E-23
   1.260000      1.7996083E-23
   1.270000      1.8892231E-23
   1.280000      1.9824202E-23
   1.290000      2.0795483E-23
   1.300000      2.1809600E-23
   1.310000      2.2869969E-23
   1.320000      2.3979731E-23
   1.330000      2.5141603E-23
   1.340000      2.6357731E-23
   1.350000      2.7629579E-23
   1.360000      2.8957847E-23
   1.370000      3.0342440E-23
   1.380000      3.1782483E-23
   1.390000      3.3276378E-23
   1.400000      3.4821926E-23
   1.410000      3.6416495E-23
   1.420000      3.8057234E-23
   1.430000      3.9741301E-23
   1.440000      4.1466123E-23
   1.450000      4.3229679E-23
   1.460000      4.5030727E-23
   1.470000      4.6869044E-23
   1.480000      4.8745596E-23
   1.490000      5.0662648E-23
   1.500000      5.2623819E-23
   1.510000      5.4634032E-23
   1.520000      5.6699378E-23
   1.530000      5.8826916E-23
   1.540000      6.1024380E-23
   1.550000      6.3299796E-23
   1.560000      6.5661084E-23
   1.570000      6.8115590E-23
   1.580000      7.0669675E-23
   1.590000      7.3328231E-23
   1.600000      7.6094343E-23
   1.610000      7.8968952E-23
   1.620000      8.1950664E-23
   1.630000      8.5035684E-23
   1.640000      8.8217816E-23
   1.650000      9.1488680E-23
   1.660000      9.4838026E-23
   1.670000      9.8254166E-23
   1.680000      1.0172455E-22
   1.690000      1.0523635E-22
   1.700000      1.0877719E-22
   1.710000      1.1233575E-22
   1.720000      1.1590240E-22
   1.730000      1.1946974E-22
   1.740000      1.2303303E-22
   1.750000      1.2659036E-22
   1.760000      1.3014274E-22
   1.770000      1.3369384E-22
   1.780000      1.3724962E-22
   1.790000      1.4081770E-22
   1.800000      1.4440652E-22
   1.810000      1.4802423E-22
   1.820000      1.5167773E-22
   1.830000      1.5537134E-22
   1.840000      1.5910571E-22
   1.850000      1.6287664E-22
   1.860000      1.6667415E-22
   1.870000      1.7048178E-22
   1.880000      1.7427598E-22
   1.890000      1.7802608E-22
   1.900000      1.8169443E-22
   1.910000      1.8523697E-22
   1.920000      1.8860407E-22
   1.930000      1.9174181E-22
   1.940000      1.9459336E-22
   1.950000      1.9710068E-22
   1.960000      1.9920622E-22
   1.970000      2.0085461E-22
   1.980000      2.0199425E-22
   1.990000      2.0257857E-22
   2.000000      2.0256712E-22
   2.010000      2.0192603E-22
   2.020000      2.0062805E-22
   2.030000      1.9865210E-22
   2.040000      1.9598217E-22
   2.050000      1.9260569E-22
   2.060000      1.8851154E-22
   2.070000      1.8368759E-22
   2.080000      1.7811799E-22
   2.090000      1.7178039E-22
   2.100000      1.6464325E-22
   2.110000      1.5666330E-22
   2.120000      1.4778356E-22
   2.130000      1.3793182E-22
   2.140000      1.2701986E-22
   2.150000      1.1494352E-22
   2.160000      1.0158364E-22
   2.170000      8.6807926E-23
   2.180000      7.0473596E-23
   2.190000      5.2430807E-23
   2.200000      3.2526685E-23
   2.210000      1.0609786E-23
   2.220000     -1.3465356E-23
   2.230000     -3.9833639E-23
   2.240000     -6.8615292E-23
   2.250000     -9.9912313E-23
   2.260000     -1.3380573E-22
   2.270000     -1.7035417E-22
   2.280000     -2.0959334E-22
   2.290000     -2.5153690E-22
   2.300000     -2.9617872E-22
   2.310000     -3.4349639E-22
   2.320000     -3.9345552E-22
   2.330000     -4.4601529E-22
   2.340000     -5.0113403E-22
   2.350000     -5.5877535E-22
   2.360000     -6.1891371E-22
   2.370000     -6.8153942E-22
   2.380000     -7.4666278E-22
   2.390000     -8.1431610E-22
   2.400000     -8.8455486E-22
   2.410000     -9.5745611E-22
   2.420000     -1.0331153E-21
   2.430000     -1.1116407E-21
   2.440000     -1.1931460E-21
   2.450000     -1.2777417E-21
   2.460000     -1.3655237E-21
   2.470000     -1.4565631E-21
   2.480000     -1.5508942E-21
   2.490000     -1.6485034E-21
   2.500000     -1.7493194E-21
   2.510000     -1.8532039E-21
   2.520000     -1.9599461E-21
   2.530000     -2.0692583E-21
   2.540000     -2.1807755E-21
   2.550000     -2.2940566E-21
   2.560000     -2.4085906E-21
   2.570000     -2.5238048E-21
   2.580000     -2.6390741E-21
   2.590000     -2.7537341E-21
   2.600000     -2.8670944E-21
   2.610000     -2.9784522E-21
   2.620000     -3.0871045E-21
   2.630000     -3.1923610E-21
   2.640000     -3.2935511E-21
   2.650000     -3.3900305E-21
   2.660000     -3.4811819E-21
   2.670000     -3.5664130E-21
   2.680000     -3.6451479E-21
   2.690000     -3.7168165E-21
   2.700000     -3.7808358E-21
   2.710000     -3.8365933E-21
   2.720000     -3.8834223E-21
   2.730000     -3.9205800E-21
   2.740000     -3.9472223E-21
   2.750000     -3.9623821E-21
   2.760000     -3.9649493E-21
   2.770000     -3.9536559E-21
   2.780000     -3.9270646E-21
   2.790000     -3.8835645E-21
   2.800000     -3.8213749E-21
   2.810000     -3.7385539E-21
   2.820000     -3.6330164E-21
   2.830000     -3.5025578E-21
   2.840000     -3.3448805E-21
   2.850000     -3.1576293E-21
   2.860000     -2.9384262E-21
   2.870000     -2.6849053E-21
   2.880000     -2.3947487E-21
   2.890000     -2.0657158E-21
   2.900000     -1.6956704E-21
   2.910000     -1.2825972E-21
   2.920000     -8.2461188E-22
   2.930000     -3.1996153E-22
   2.940000      2.3298498E-22
   2.950000      8.3575645E-22
   2.960000      1.4898064E-21
   2.970000      2.1965478E-21
   2.980000      2.9573916E-21
   2.990000      3.7737898E-21
   3.000000      4.6472752E-21
   3.010000      5.5794984E-21
   3.020000      6.5722585E-21
   3.030000      7.6275245E-21
   3.040000      8.7474431E-21
   3.050000      9.9343358E-21
   3.060000      1.1190674E-20
   3.070000      1.2519046E-20
   3.080000      1.3922104E-20
   3.090000      1.5402502E-20
   3.100000      1.6962813E-20
   3.110000      1.8605452E-20
   3.120000      2.0332574E-20
   3.130000      2.2145998E-20
   3.140000      2.4047107E-20
   3.150000      2.6036781E-20
   3.160000      2.8115323E-20
   3.170000      3.0282410E-20
   3.180000      3.2537072E-20
   3.190000      3.4877670E-20
   3.200000      3.7301913E-20
   3.210000      3.9806878E-20
   3.220000      4.2389077E-20
   3.230000      4.5044514E-20
   3.240000      4.7768750E-20
   3.250000      5.0556991E-20
   3.260000      5.3404163E-20
   3.270000      5.6304976E-20
   3.280000      5.9253991E-20
   3.290000      6.2245632E-20
   3.300000      6.5274237E-20
   3.310000      6.8333985E-20
   3.320000      7.1418903E-20
   3.330000      7.4522743E-20
   3.340000      7.7638894E-20
   3.350000      8.0760241E-20
   3.360000      8.3879003E-20
   3.370000      8.6986572E-20
   3.380000      9.0073312E-20
   3.390000      9.3128414E-20
   3.400000      9.6139700E-20
   3.410000      9.9093504E-20
   3.420000      1.0197454E-19
   3.430000      1.0476584E-19
   3.440000      1.0744872E-19
   3.450000      1.1000278E-19
   3.460000      1.1240597E-19
   3.470000      1.1463472E-19
   3.480000      1.1666402E-19
   3.490000      1.1846764E-19
   3.500000      1.2001836E-19
   3.510000      1.2128810E-19
   3.520000      1.2224820E-19
   3.530000      1.2286956E-19
   3.540000      1.2312290E-19
   3.550000      1.2297882E-19
   3.560000      1.2240788E-19
   3.570000      1.2138069E-19
   3.580000      1.1986783E-19
   3.590000      1.1783979E-19
   3.600000      1.1526683E-19
   3.610000      1.1211879E-19
   3.620000      1.0836488E-19
   3.630000      1.0397340E-19
   3.640000      9.8911537E-20
   3.650000      9.3145074E-20
   3.660000      8.6638199E-20
   3.670000      7.9353362E-20
   3.680000      7.1251173E-20
   3.690000      6.2290397E-20
   3.700000      5.2428042E-20
   3.710000      4.1619505E-20
   3.720000      2.9818879E-20
   3.730000      1.6979313E-20
   3.740000      3.0534645E-21
   3.750000     -1.2006001E-20
   3.760000     -2.8245811E-20
   3.770000     -4.5711500E-20
   3.780000     -6.4446811E-20
   3.790000     -8.4493178E-20
   3.800000     -1.0588917E-19
   3.810000     -1.2867009E-19
   3.820000     -1.5286759E-19
   3.830000     -1.7850944E-19
   3.840000     -2.0561945E-19
   3.850000     -2.3421741E-19
   3.860000     -2.6431918E-19
   3.870000     -2.9593700E-19
   3.880000     -3.2907962E-19
   3.890000     -3.6375270E-19
   3.900000     -3.9995909E-19
   3.910000     -4.3769916E-19
   3.920000     -4.7697095E-19
   3.930000     -5.1777045E-19
   3.940000     -5.6009144E-19
   3.950000     -6.0392550E-19
   3.960000     -6.4926161E-19
   3.970000     -6.9608572E-19
   3.980000     -7.4437994E-19
   3.990000     -7.9412187E-19
   4.000000     -8.4528341E-19
   4.010000     -8.9782980E-19
   4.020000     -9.5171844E-19
   4.030000     -1.0068976E-18
   4.040000     -1.0633055E-18
   4.050000     -1.1208687E-18
   4.060000     -1.1795015E-18
   4.070000     -1.2391051E-18
   4.080000     -1.2995666E-18
   4.090000     -1.3607595E-18
   4.100000     -1.4225422E-18
   4.110000     -1.4847598E-18
   4.120000     -1.5472430E-18
   4.130000     -1.6098094E-18
   4.140000     -1.6722642E-18
   4.150000     -1.7344008E-18
   4.160000     -1.7960016E-18
   4.170000     -1.8568395E-18
   4.180000     -1.9166776E-18
   4.190000     -1.9752709E-18
   4.200000     -2.0323664E-18
   4.210000     -2.0877027E-18
   4.220000     -2.1410104E-18
   4.230000     -2.1920113E-18
   4.240000     -2.2404185E-18
   4.250000     -2.2859345E-18
   4.260000     -2.3282504E-18
   4.270000     -2.3670441E-18
   4.280000     -2.4019795E-18
   4.290000     -2.4327036E-18
   4.300000     -2.4588477E-18
   4.310000     -2.4800238E-18
   4.320000     -2.4958244E-18
   4.330000     -2.5058225E-18
   4.340000     -2.5095713E-18
   4.350000     -2.5066044E-18
   4.360000     -2.4964369E-18
   4.370000     -2.4785671E-18
   4.380000     -2.4524778E-18
   4.390000     -2.4176394E-18
   4.400000     -2.3735127E-18
   4.410000     -2.3195507E-18
   4.420000     -2.2552035E-18
   4.430000     -2.1799199E-18
   4.440000     -2.0931518E-18
   4.450000     -1.9943552E-18
   4.460000     -1.8829942E-18
   4.470000     -1.7585419E-18
   4.480000     -1.6204827E-18
   4.490000     -1.4683119E-18
   4.500000     -1.3015378E-18
   4.510000     -1.1196803E-18
   4.520000     -9.2227081E-19
   4.530000     -7.0885191E-19
   4.540000     -4.7897619E-19
   4.550000     -2.3220544E-19
   4.560000      3.1890168E-20
   4.570000      3.1373255E-19
   4.580000      6.1373488E-19
   4.590000      9.3230017E-19
   4.600000      1.2698209E-18
   4.610000      1.6266747E-18
   4.620000      2.0032215E-18
   4.630000      2.3997992E-18
   4.640000      2.8167173E-18
   4.650000      3.2542520E-18
   4.660000      3.7126389E-18
   4.670000      4.1920649E-18
   4.680000      4.6926634E-18
   4.690000      5.2145052E-18
   4.700000      5.7575911E-18
   4.710000      6.3218474E-18
   4.720000      6.9071207E-18
   4.730000      7.5131715E-18
   4.740000      8.1396706E-18
   4.750000      8.7862000E-18
   4.760000      9.4522466E-18
   4.770000      1.0137208E-17
   4.780000      1.0840384E-17
   4.790000      1.1560988E-17
   4.800000      1.2298144E-17
   4.810000      1.3050886E-17
   4.820000      1.3818163E-17
   4.830000      1.4598839E-17
   4.840000      1.5391694E-17
   4.850000      1.6195422E-17
   4.860000      1.7008632E-17
   4.870000      1.7829838E-17
   4.880000      1.8657467E-17
   4.890000      1.9489836E-17
   4.900000      2.0325159E-17
   4.910000      2.1161533E-17
   4.920000      2.1996929E-17
   4.930000      2.2829186E-17
   4.940000      2.3655997E-17
   4.950000      2.4474908E-17
   4.960000      2.5283303E-17
   4.970000      2.6078401E-17
   4.980000      2.6857248E-17
   4.990000      2.7616725E-17
   5.000000      2.8353538E-17
   5.010000      2.9064225E-17
   5.020000      2.9745150E-17
   5.030000      3.0392538E-17
   5.040000      3.1002448E-17
   5.050000      3.1570807E-17
   5.060000      3.2093417E-17
   5.070000      3.2565962E-17
   5.080000      3.2984029E-17
   5.090000      3.3343108E-17
   5.100000      3.3638616E-17
   5.110000      3.3865899E-17
   5.120000      3.4020235E-17
   5.130000      3.4096855E-17
   5.140000      3.4090932E-17
   5.150000      3.3997593E-17
   5.160000      3.3811917E-17
   5.170000      3.3528926E-17
   5.180000      3.3143592E-17
   5.190000      3.2650830E-17
   5.200000      3.2045506E-17
   5.210000      3.1322421E-17
   5.220000      3.0476325E-17
   5.230000      2.9501916E-17
   5.240000      2.8393845E-17
   5.250000      2.7146743E-17
   5.260000      2.5755210E-17
   5.270000      2.4213860E-17
   5.280000      2.2517332E-17
   5.290000      2.0660325E-17
   5.300000      1.8637623E-17
   5.310000      1.6444136E-17
   5.320000      1.4074923E-17
   5.330000      1.1525243E-17
   5.340000      8.7905898E-18
   5.350000      5.8667318E-18
   5.360000      2.7497260E-18
   5.370000     -5.6403538E-19
   5.380000     -4.0777887E-18
   5.390000     -7.7943939E-18
   5.400000     -1.1716297E-17
   5.410000     -1.5845518E-17
   5.420000     -2.0183650E-17
   5.430000     -2.4731843E-17
   5.440000     -2.9490782E-17
   5.450000     -3.4460702E-17
   5.460000     -3.9641350E-17
   5.470000     -4.5032017E-17
   5.480000     -5.0631507E-17
   5.490000     -5.6438116E-17
   5.500000     -6.2449622E-17
   5.510000     -6.8663270E-17
   5.520000     -7.5075733E-17
   5.530000     -8.1683047E-17
   5.540000     -8.8480632E-17
   5.550000     -9.5463207E-17
   5.560000     -1.0262474E-16
   5.570000     -1.0995840E-16
   5.580000     -1.1745650E-16
   5.590000     -1.2511046E-16
   5.600000     -1.3291072E-16
   5.610000     -1.4084672E-16
   5.620000     -1.4890684E-16
   5.630000     -1.5707841E-16
   5.640000     -1.6534762E-16
   5.650000     -1.7369951E-16
   5.660000     -1.8211799E-16
   5.670000     -1.9058583E-16
   5.680000     -1.9908464E-16
   5.690000     -2.0759492E-16
   5.700000     -2.1609605E-16
   5.710000     -2.2456635E-16
   5.720000     -2.3298303E-16
   5.730000     -2.4132239E-16
   5.740000     -2.4955960E-16
   5.750000     -2.5766893E-16
   5.760000     -2.6562371E-16
   5.770000     -2.7339629E-16
   5.780000     -2.8095816E-16
   5.790000     -2.8827975E-16
   5.800000     -2.9533069E-16
   5.810000     -3.0207958E-16
   5.820000     -3.0849406E-16
   5.830000     -3.1454084E-16
   5.840000     -3.2018557E-16
   5.850000     -3.2539295E-16
   5.860000     -3.3012659E-16
   5.870000     -3.3434913E-16
   5.880000     -3.3802221E-16
   5.890000     -3.4110649E-16
   5.900000     -3.4356170E-16
   5.910000     -3.4534671E-16
   5.920000     -3.4641953E-16
   5.930000     -3.4673757E-16
   5.940000     -3.4625754E-16
   5.950000     -3.4493580E-16
   5.960000     -3.4272830E-16
   5.970000     -3.3959089E-16
   5.980000     -3.3547928E-16
   5.990000     -3.3034939E-16
   6.000000     -3.2415739E-16
   6.010000     -3.1685991E-16
   6.020000     -3.0841412E-16
   6.030000     -2.9877793E-16
   6.040000     -2.8791007E-16
   6.050000     -2.7577018E-16
   6.060000     -2.6231896E-16
   6.070000     -2.4751827E-16
   6.080000     -2.3133116E-16
   6.090000     -2.1372196E-16
   6.100000     -1.9465651E-16
   6.110000     -1.7410196E-16
   6.120000     -1.5202706E-16
   6.130000     -1.2840224E-16
   6.140000     -1.0319967E-16
   6.150000     -7.6393465E-17
   6.160000     -4.7959747E-17
   6.170000     -1.7876930E-17
   6.180000      1.3874159E-17
   6.190000      4.7309986E-17
   6.200000      8.2444086E-17
   6.210000      1.1928679E-16
   6.220000      1.5784496E-16
   6.230000      1.9812176E-16
   6.240000      2.4011621E-16
   6.250000      2.8382298E-16
   6.260000      3.2923223E-16
   6.270000      3.7632917E-16
   6.280000      4.2509383E-16
   6.290000      4.7550111E-16
   6.300000      5.2752021E-16
   6.310000      5.8111474E-16
   6.320000      6.3624234E-16
   6.330000      6.9285495E-16
   6.340000      7.5089836E-16
   6.350000      8.1031232E-16
   6.360000      8.7103061E-16
   6.370000      9.3298064E-16
   6.380000      9.9608375E-16
   6.390000      1.0602552E-15
   6.400000      1.1254037E-15
   6.410000      1.1914317E-15
   6.420000      1.2582354E-15
   6.430000      1.3257042E-15
   6.440000      1.3937209E-15
   6.450000      1.4621616E-15
   6.460000      1.5308954E-15
   6.470000      1.5997841E-15
   6.480000      1.6686821E-15
   6.490000      1.7374366E-15
   6.500000      1.8058867E-15
   6.510000      1.8738643E-15
   6.520000      1.9411924E-15
   6.530000      2.0076868E-15
   6.540000      2.0731551E-15
   6.550000      2.1373970E-15
   6.560000      2.2002041E-15
   6.570000      2.2613605E-15
   6.580000      2.3206424E-15
   6.590000      2.3778193E-15
   6.600000      2.4326534E-15
   6.610000      2.4849010E-15
   6.620000      2.5343118E-15
   6.630000      2.5806301E-15
   6.640000      2.6235952E-15
   6.650000      2.6629416E-15
   6.660000      2.6983998E-15
   6.670000      2.7296962E-15
   6.680000      2.7565542E-15
   6.690000      2.7786948E-15
   6.700000      2.7958360E-15
   6.710000      2.8076942E-15
   6.720000      2.8139836E-15
   6.730000      2.8144182E-15
   6.740000      2.8087096E-15
   6.750000      2.7965701E-15
   6.760000      2.7777116E-15
   6.770000      2.7518455E-15
   6.780000      2.7186848E-15
   6.790000      2.6779434E-15
   6.800000      2.6293372E-15
   6.810000      2.5725854E-15
   6.820000      2.5074098E-15
   6.830000      2.4335367E-15
   6.840000      2.3506977E-15
   6.850000      2.2586316E-15
   6.860000      2.1570842E-15
   6.870000      2.0458099E-15
   6.880000      1.9245736E-15
   6.890000      1.7931512E-15
   6.900000      1.6513312E-15
   6.910000      1.4989160E-15
   6.920000      1.3357227E-15
   6.930000      1.1615849E-15
   6.940000      9.7635413E-16
   6.950000      7.7990019E-16
   6.960000      5.7211210E-16
   6.970000      3.5290003E-16
   6.980000      1.2219528E-16
   6.990000     -1.2004835E-16
   7.000000     -3.7385432E-16
   7.010000     -6.3922204E-16
   7.020000     -9.1612606E-16
   7.030000     -1.2045160E-15
   7.040000     -1.5043151E-15
   7.050000     -1.8154197E-15
   7.060000     -2.1376981E-15