  -2.600000      0.0000000E+00
  -2.590000      0.0000000E+00
  -2.580000      0.0000000E+00
  -2.570000      0.0000000E+00
  -2.560000      0.0000000E+00
  -2.550000      0.0000000E+00
  -2.540000      0.0000000E+00
  -2.530000      0.0000000E+00
  -2.520000      0.0000000E+00
  -2.510000      0.0000000E+00
  -2.500000      0.0000000E+00
  -2.490000      0.0000000E+00
  -2.480000      0.0000000E+00
  -2.470000      0.0000000E+00
  -2.460000      0.0000000E+00
  -2.450000      0.0000000E+00
  -2.440000      0.0000000E+00
  -2.430000      0.0000000E+00
  -2.420000      0.0000000E+00
  -2.410000      0.0000000E+00
  -2.400000      0.0000000E+00
  -2.390000      0.0000000E+00
  -2.380000      0.0000000E+00
  -2.370000      0.0000000E+00
  -2.360000      0.0000000E+00
  -2.350000      0.0000000E+00
  -2.340000      0.0000000E+00
  -2.330000      0.0000000E+00
  -2.320000      0.0000000E+00
  -2.310000      0.0000000E+00
  -2.300000      0.0000000E+00
  -2.290000      0.0000000E+00
  -2.280000      0.0000000E+00
  -2.270000      0.0000000E+00
  -2.260000      0.0000000E+00
  -2.250000      0.0000000E+00
  -2.240000      0.0000000E+00
  -2.230000      0.0000000E+00
  -2.220000      0.0000000E+00
  -2.210000      0.0000000E+00
  -2.200000      0.0000000E+00
  -2.190000      0.0000000E+00
  -2.180000      0.0000000E+00
  -2.170000      0.0000000E+00
  -2.160000      0.0000000E+00
  -2.150000      0.0000000E+00
  -2.140000      1.2170011E-38
  -2.130000      1.2810853E-38
  -2.120000      1.2057035E-38
  -2.110000      0.0000000E+00
  -2.100000      0.0000000E+00
  -2.090000      0.0000000E+00
  -2.080000     -2.6177306E-38
  -2.070000     -4.2668969E-38
  -2.060000     -6.5034727E-38
  -2.050000     -9.0394193E-38
  -2.040000     -1.0993126E-37
  -2.030000     -1.1093232E-37
  -2.020000     -8.6427740E-38
  -2.010000     -3.3374000E-38
  -2.000000      5.6649077E-38
  -1.990000      1.9372339E-37
  -1.980000      3.8461051E-37
  -1.970000      6.3854310E-37
  -1.960000      9.5698883E-37
  -1.950000      1.3251740E-36
  -1.940000      1.7245888E-36
  -1.930000      2.1309148E-36
  -1.920000      2.5095034E-36
  -1.910000      2.7992987E-36
  -1.900000      2.9098599E-36
  -1.890000      2.7241708E-36
  -1.880000      2.0593437E-36
  -1.870000      7.1481750E-37
  -1.860000     -1.5029767E-36
  -1.850000     -4.8720740E-36
  -1.840000     -9.7760787E-36
  -1.830000     -1.6379122E-35
  -1.820000     -2.4443860E-35
  -1.810000     -3.3750607E-35
  -1.800000     -4.4112377E-35
  -1.790000     -5.4697187E-35
  -1.780000     -6.4428019E-35
  -1.770000     -7.1514689E-35
  -1.760000     -7.3837725E-35
  -1.750000     -6.9421614E-35
  -1.740000     -5.5596756E-35
  -1.730000     -2.9558276E-35
  -1.720000      1.1471067E-35
  -1.710000      7.0028279E-35
  -1.700000      1.4800730E-34
  -1.690000      2.4661759E-34
  -1.680000      3.6611061E-34
  -1.670000      5.0458256E-34
  -1.660000      6.5793277E-34
  -1.650000      8.1943528E-34
  -1.640000      9.7767739E-34
  -1.630000      1.1172449E-33
  -1.620000      1.2189268E-33
  -1.610000      1.2604900E-33
  -1.600000      1.2171059E-33
  -1.590000      1.0605803E-33
  -1.580000      7.6037449E-34
  -1.570000      2.8812850E-34
  -1.560000     -3.8153842E-34
  -1.550000     -1.2680387E-33
  -1.540000     -2.3734820E-33
  -1.530000     -3.6877726E-33
  -1.520000     -5.1795896E-33
  -1.510000     -6.7852737E-33
  -1.500000     -8.4099605E-33
  -1.490000     -9.9241118E-33
  -1.480000     -1.1155613E-32
  -1.470000     -1.1881935E-32
  -1.460000     -1.1831256E-32
  -1.450000     -1.0677349E-32
  -1.440000     -8.0398568E-33
  -1.430000     -3.4842497E-33
  -1.420000      3.4800863E-33
  -1.410000      1.3398139E-32
  -1.400000      2.6869497E-32
  -1.390000      4.4549546E-32
  -1.380000      6.7152501E-32
  -1.370000      9.5458293E-32
  -1.360000      1.3032400E-31
  -1.350000      1.7270205E-31
  -1.340000      2.2366580E-31
  -1.330000      2.8444304E-31
  -1.320000      3.5646149E-31
  -1.310000      4.4140434E-31
  -1.300000      5.4127589E-31
  -1.290000      6.5847916E-31
  -1.280000      7.9590212E-31
  -1.270000      9.5701236E-31
  -1.260000      1.1459564E-30
  -1.250000      1.3676618E-30
  -1.240000      1.6279357E-30
  -1.230000      1.9335596E-30
  -1.220000      2.2923705E-30
  -1.210000      2.7133291E-30
  -1.200000      3.2065680E-30
  -1.190000      3.7834172E-30
  -1.180000      4.4564074E-30
  -1.170000      5.2392472E-30
  -1.160000      6.1467811E-30
  -1.150000      7.1949275E-30
  -1.140000      8.4006077E-30
  -1.130000      9.7816748E-30
  -1.120000      1.1356847E-29
  -1.110000      1.3145671E-29
  -1.100000      1.5168528E-29
  -1.090000      1.7446677E-29
  -1.080000      2.0002386E-29
  -1.070000      2.2859129E-29
  -1.060000      2.6041886E-29
  -1.050000      2.9577529E-29
  -1.040000      3.3495328E-29
  -1.030000      3.7827509E-29
  -1.020000      4.2609936E-29
  -1.010000      4.7882819E-29
  -1.000000      5.3691472E-29
 -0.9900000      6.0087034E-29
 -0.9800000      6.7127223E-29
 -0.9700000      7.4876888E-29
 -0.9600000      8.3408541E-29
 -0.9500000      9.2802674E-29
 -0.9400000      1.0314784E-28
 -0.9300000      1.1454055E-28
 -0.9200000      1.2708491E-28
 -0.9100000      1.4089196E-28
 -0.9000000      1.5607888E-28
 -0.8900000      1.7276793E-28
 -0.8800000      1.9108532E-28
 -0.8700000      2.1115995E-28
 -0.8600000      2.3312231E-28
 -0.8500000      2.5710346E-28
 -0.8400000      2.8323426E-28
 -0.8300000      3.1164520E-28
 -0.8200000      3.4246633E-28
 -0.8100000      3.7582833E-28
 -0.8000000      4.1186373E-28
 -0.7900000      4.5070926E-28
 -0.7800000      4.9250848E-28
 -0.7700000      5.3741554E-28
 -0.7600000      5.8559908E-28
 -0.7500000      6.3724660E-28
 -0.7400000      6.9256917E-28
 -0.7300000      7.5180572E-28
 -0.7200000      8.1522737E-28
 -0.7100000      8.8314057E-28
 -0.7000000      9.5589026E-28
 -0.6900000      1.0338604E-27
 -0.6800000      1.1174743E-27
 -0.6700000      1.2071927E-27
 -0.6600000      1.3035103E-27
 -0.6500000      1.4069510E-27
 -0.6400000      1.5180612E-27
 -0.6300000      1.6374027E-27
 -0.6200000      1.7655437E-27
 -0.6100000      1.9030511E-27
 -0.6000000      2.0504821E-27
 -0.5900000      2.2083784E-27
 -0.5800000      2.3772589E-27
 -0.5700000      2.5576207E-27
 -0.5600000      2.7499381E-27
 -0.5500000      2.9546677E-27
 -0.5400000      3.1722574E-27
 -0.5300000      3.4031598E-27
 -0.5200000      3.6478488E-27
 -0.5100000      3.9068417E-27
 -0.5000000      4.1807205E-27
 -0.4900000      4.4701597E-27
 -0.4800000      4.7759515E-27
 -0.4700000      5.0990297E-27
 -0.4600000      5.4404929E-27
 -0.4500000      5.8016221E-27
 -0.4400000      6.1838930E-27
 -0.4300000      6.5889800E-27
 -0.4200000      7.0187535E-27
 -0.4100000      7.4752652E-27
 -0.4000000      7.9607251E-27
 -0.3900000      8.4774729E-27
 -0.3800000      9.0279368E-27
 -0.3700000      9.6145874E-27
 -0.3600000      1.0239894E-26
 -0.3500000      1.0906269E-26
 -0.3400000      1.1616031E-26
 -0.3300000      1.2371352E-26
 -0.3200000      1.3174242E-26
 -0.3100000      1.4026525E-26
 -0.3000000      1.4929844E-26
 -0.2900000      1.5885679E-26
 -0.2800000      1.6895391E-26
 -0.2700000      1.7960278E-26
 -0.2600000      1.9081658E-26
 -0.2500000      2.0260959E-26
 -0.2400000      2.1499834E-26
 -0.2300000      2.2800268E-26
 -0.2200000      2.4164694E-26
 -0.2100000      2.5596090E-26
 -0.2000000      2.7098072E-26
 -0.1900000      2.8674952E-26
 -0.1800000      3.0331779E-26
 -0.1700000      3.2074323E-26
 -0.1600000      3.3909029E-26
 -0.1500000      3.5842928E-26
 -0.1400000      3.7883489E-26
 -0.1300000      4.0038450E-26
 -0.1200000      4.2315608E-26
 -0.1100000      4.4722568E-26
 -0.1000000      4.7266505E-26
 -9.0000004E-02  4.9953920E-26
 -7.9999998E-02  5.2790393E-26
 -7.0000000E-02  5.5780404E-26
 -5.9999999E-02  5.8927164E-26
 -5.0000001E-02  6.2232559E-26
 -3.9999999E-02  6.5697150E-26
 -2.9999999E-02  6.9320215E-26
 -2.0000000E-02  7.3099950E-26
 -9.9999998E-03  7.7033716E-26
 -3.4694470E-17  8.1118370E-26
  9.9999998E-03  8.5350689E-26
  2.0000000E-02  8.9727745E-26
  2.9999999E-02  9.4247425E-26
  3.9999999E-02  9.8908853E-26
  5.0000001E-02  1.0371276E-25
  5.9999999E-02  1.0866188E-25
  7.0000000E-02  1.1376104E-25
  7.9999998E-02  1.1901734E-25
  9.0000004E-02  1.2443999E-25
  0.1000000      1.3004005E-25
  0.1100000      1.3583003E-25
  0.1200000      1.4182319E-25
  0.1300000      1.4803277E-25
  0.1400000      1.5447114E-25
  0.1500000      1.6114876E-25
  0.1600000      1.6807316E-25
  0.1700000      1.7524805E-25
  0.1800000      1.8267230E-25
  0.1900000      1.9033932E-25
  0.2000000      1.9823649E-25
  0.2100000      2.0634505E-25
  0.2200000      2.1464005E-25
  0.2300000      2.2309097E-25
  0.2400000      2.3166239E-25
  0.2500000      2.4031506E-25
  0.2600000      2.4900749E-25
  0.2700000      2.5769749E-25
  0.2800000      2.6634387E-25
  0.2900000      2.7490834E-25
  0.3000000      2.8335716E-25
  0.3100000      2.9166268E-25
  0.3200000      2.9980452E-25
  0.3300000      3.0777016E-25
  0.3400000      3.1555516E-25
  0.3500000      3.2316256E-25
  0.3600000      3.3060199E-25
  0.3700000      3.3788752E-25
  0.3800000      3.4503538E-25
  0.3900000      3.5206098E-25
  0.4000000      3.5897547E-25
  0.4100000      3.6578220E-25
  0.4200000      3.7247303E-25
  0.4300000      3.7902489E-25
  0.4400000      3.8539681E-25
  0.4500000      3.9152752E-25
  0.4600000      3.9733413E-25
  0.4700000      4.0271172E-25
  0.4800000      4.0753397E-25
  0.4900000      4.1165526E-25
  0.5000000      4.1491382E-25
  0.5100000      4.1713633E-25
  0.5200000      4.1814307E-25
  0.5300000      4.1775401E-25
  0.5400000      4.1579488E-25
  0.5500000      4.1210370E-25
  0.5600000      4.0653644E-25
  0.5700000      3.9897210E-25
  0.5800000      3.8931619E-25
  0.5900000      3.7750256E-25
  0.6000000      3.6349298E-25
  0.6100000      3.4727528E-25
  0.6200000      3.2885853E-25
  0.6300000      3.0826623E-25
  0.6400000      2.8552700E-25
  0.6500000      2.6066452E-25
  0.6600000      2.3368545E-25
  0.6700000      2.0456667E-25
  0.6800000      1.7324391E-25
  0.6900000      1.3960025E-25
  0.7000000      1.0345654E-25
  0.7100000      6.4564709E-26
  0.7200000      2.2604068E-26
  0.7300000     -2.2819150E-26
  0.7400000     -7.2168108E-26
  0.7500000     -1.2596685E-25
  0.7600000     -1.8478903E-25
  0.7700000     -2.4924174E-25
  0.7800000     -3.1994805E-25
  0.7900000     -3.9752653E-25
  0.8000000     -4.8257102E-25
  0.8100000     -5.7563003E-25
  0.8200000     -6.7718773E-25
  0.8300000     -7.8765045E-25
  0.8400000     -9.0733578E-25
  0.8500000     -1.0364679E-24
  0.8600000     -1.1751798E-24
  0.8700000     -1.3235227E-24
  0.8800000     -1.4814826E-24
  0.8900000     -1.6490034E-24
  0.9000000     -1.8260162E-24
  0.9100000     -2.0124735E-24
  0.9200000     -2.2083865E-24
  0.9300000     -2.4138623E-24
  0.9400000     -2.6291405E-24
  0.9500000     -2.8546249E-24
  0.9600000     -3.0909105E-24
  0.9700000     -3.3388001E-24
  0.9800000     -3.5993124E-24
  0.9900000     -3.8736766E-24
   1.000000     -4.1633144E-24
   1.010000     -4.4698117E-24
   1.020000     -4.7948745E-24
   1.030000     -5.1402780E-24
   1.040000     -5.5078083E-24
   1.050000     -5.8991945E-24
   1.060000     -6.3160444E-24
   1.070000     -6.7597830E-24
   1.080000     -7.2315952E-24
   1.090000     -7.7323822E-24
   1.100000     -8.2627303E-24
   1.110000     -8.8229028E-24
   1.120000     -9.4128492E-24
   1.130000     -1.0032234E-23
   1.140000     -1.0680487E-23
   1.150000     -1.1356878E-23
   1.160000     -1.2060599E-23
   1.170000     -1.2790870E-23
   1.180000     -1.3547039E-23
   1.190000     -1.4328694E-23
   1.200000     -1.5135764E-23
   1.210000     -1.5968594E-23
   1.220000     -1.6828022E-23
   1.230000     -1.7715405E-23
   1.240000     -1.8632642E-23
   1.250000     -1.9582129E-23
   1.260000     -2.0566696E-23
   1.270000     -2.1589511E-23
   1.280000     -2.2653944E-23
   1.290000     -2.3763405E-23
   1.300000     -2.4921151E-23
   1.310000     -2.6130110E-23
   1.320000     -2.7392681E-23
   1.330000     -2.8710558E-23
   1.340000     -3.0084571E-23
   1.350000     -3.1514573E-23
   1.360000     -3.2999367E-23
   1.370000     -3.4536684E-23
   1.380000     -3.6123225E-23
   1.390000     -3.7754763E-23
   1.400000     -3.9426299E-23
   1.410000     -4.1132274E-23
   1.420000     -4.2866834E-23
   1.430000     -4.4624110E-23
   1.440000     -4.6398511E-23
   1.450000     -4.8185038E-23
   1.460000     -4.9979529E-23
   1.470000     -5.1778911E-23
   1.480000     -5.3581351E-23
   1.490000     -5.5386360E-23
   1.500000     -5.7194776E-23
   1.510000     -5.9008664E-23
   1.520000     -6.0831122E-23
   1.530000     -6.2665993E-23
   1.540000     -6.4517481E-23
   1.550000     -6.6389688E-23
   1.560000     -6.8286148E-23
   1.570000     -7.0209315E-23
   1.580000     -7.2160042E-23
   1.590000     -7.4137148E-23
   1.600000     -7.6137055E-23
   1.610000     -7.8153529E-23
   1.620000     -8.0177494E-23
   1.630000     -8.2197104E-23
   1.640000     -8.4197914E-23
   1.650000     -8.6163194E-23
   1.660000     -8.8074471E-23
   1.670000     -8.9912145E-23
   1.680000     -9.1656215E-23
   1.690000     -9.3287112E-23
   1.700000     -9.4786567E-23
   1.710000     -9.6138378E-23
   1.720000     -9.7329179E-23
   1.730000     -9.8349031E-23
   1.740000     -9.9191888E-23
   1.750000     -9.9855780E-23
   1.760000     -1.0034285E-22
   1.770000     -1.0065904E-22
   1.780000     -1.0081358E-22
   1.790000     -1.0081822E-22
   1.800000     -1.0068622E-22
   1.810000     -1.0043126E-22
   1.820000     -1.0006617E-22
   1.830000     -9.9601666E-23
   1.840000     -9.9045216E-23
   1.850000     -9.8399903E-23
   1.860000     -9.7663662E-23
   1.870000     -9.6828656E-23
   1.880000     -9.5881165E-23
   1.890000     -9.4801757E-23
   1.900000     -9.3565940E-23
   1.910000     -9.2145183E-23
   1.920000     -9.0508372E-23
   1.930000     -8.8623556E-23
   1.940000     -8.6459969E-23
   1.950000     -8.3990147E-23
   1.960000     -8.1192139E-23
   1.970000     -7.8051589E-23
   1.980000     -7.4563575E-23
   1.990000     -7.0734078E-23
   2.000000     -6.6581059E-23
   2.010000     -6.2134882E-23
   2.020000     -5.7438130E-23
   2.030000     -5.2544804E-23
   2.040000     -4.7518864E-23
   2.050000     -4.2432096E-23
   2.060000     -3.7361636E-23
   2.070000     -3.2387044E-23
   2.080000     -2.7587113E-23
   2.090000     -2.3036734E-23
   2.100000     -1.8803937E-23
   2.110000     -1.4947322E-23
   2.120000     -1.1514112E-23
   2.130000     -8.5388387E-24
   2.140000     -6.0429885E-24
   2.150000     -4.0356649E-24
   2.160000     -2.5152260E-24
   2.170000     -1.4719018E-24
   2.180000     -8.9128907E-25
   2.190000     -7.5860774E-25
   2.200000     -1.0635250E-24
   2.210000     -1.8052080E-24
   2.220000     -2.9972766E-24
   2.230000     -4.6725194E-24
   2.240000     -6.8869679E-24
   2.250000     -9.7228945E-24
   2.260000     -1.3290609E-23
   2.270000     -1.7728857E-23
   2.280000     -2.3203692E-23
   2.290000     -2.9905673E-23
   2.300000     -3.8045537E-23
   2.310000     -4.7848513E-23
   2.320000     -5.9547430E-23
   2.330000     -7.3375001E-23
   2.340000     -8.9555769E-23
   2.350000     -1.0829796E-22
   2.360000     -1.2978590E-22
   2.370000     -1.5417364E-22
   2.380000     -1.8157975E-22
   2.390000     -2.1208406E-22
   2.400000     -2.4572649E-22
   2.410000     -2.8250848E-22
   2.420000     -3.2239652E-22
   2.430000     -3.6532772E-22
   2.440000     -4.1121792E-22
   2.450000     -4.5997114E-22
   2.460000     -5.1149004E-22
   2.470000     -5.6568693E-22
   2.480000     -6.2249471E-22
   2.490000     -6.8187617E-22
   2.500000     -7.4383252E-22
   2.510000     -8.0840890E-22
   2.520000     -8.7569700E-22
   2.530000     -9.4583438E-22
   2.540000     -1.0189999E-21
   2.550000     -1.0954058E-21
   2.560000     -1.1752864E-21
   2.570000     -1.2588828E-21
   2.580000     -1.3464259E-21
   2.590000     -1.4381178E-21
   2.600000     -1.5341120E-21
   2.610000     -1.6344938E-21
   2.620000     -1.7392636E-21
   2.630000     -1.8483205E-21
   2.640000     -1.9614518E-21
   2.650000     -2.0783250E-21
   2.660000     -2.1984869E-21
   2.670000     -2.3213657E-21
   2.680000     -2.4462806E-21
   2.690000     -2.5724558E-21
   2.700000     -2.6990380E-21
   2.710000     -2.8251199E-21
   2.720000     -2.9497638E-21
   2.730000     -3.0720264E-21
   2.740000     -3.1909837E-21
   2.750000     -3.3057530E-21
   2.760000     -3.4155103E-21
   2.770000     -3.5195037E-21
   2.780000     -3.6170577E-21
   2.790000     -3.7075738E-21
   2.800000     -3.7905180E-21
   2.810000     -3.8654033E-21
   2.820000     -3.9317664E-21
   2.830000     -3.9891330E-21
   2.840000     -4.0369839E-21
   2.850000     -4.0747127E-21
   2.860000     -4.1015852E-21
   2.870000     -4.1167018E-21
   2.880000     -4.1189616E-21
   2.890000     -4.1070341E-21
   2.900000     -4.0793377E-21
   2.910000     -4.0340330E-21
   2.920000     -3.9690226E-21
   2.930000     -3.8819671E-21
   2.940000     -3.7703114E-21
   2.950000     -3.6313229E-21
   2.960000     -3.4621386E-21
   2.970000     -3.2598235E-21
   2.980000     -3.0214297E-21
   2.990000     -2.7440594E-21
   3.000000     -2.4249246E-21
   3.010000     -2.0614015E-21
   3.020000     -1.6510771E-21
   3.030000     -1.1917830E-21
   3.040000     -6.8161414E-22
   3.050000     -1.1893164E-22
   3.060000      4.9765122E-22
   3.070000      1.1693014E-21
   3.080000      1.8970129E-21
   3.090000      2.6816664E-21
   3.100000      3.5240976E-21
   3.110000      4.4251756E-21
   3.120000      5.3858768E-21
   3.130000      6.4073544E-21
   3.140000      7.4910017E-21
   3.150000      8.6385000E-21
   3.160000      9.8518398E-21
   3.170000      1.1133332E-20
   3.180000      1.2485577E-20
   3.190000      1.3911427E-20
   3.200000      1.5413902E-20
   3.210000      1.6996098E-20
   3.220000      1.8661062E-20
   3.230000      2.0411666E-20
   3.240000      2.2250457E-20
   3.250000      2.4179517E-20
   3.260000      2.6200317E-20
   3.270000      2.8313601E-20
   3.280000      3.0519271E-20
   3.290000      3.2816313E-20
   3.300000      3.5202752E-20
   3.310000      3.7675641E-20
   3.320000      4.0231073E-20
   3.330000      4.2864270E-20
   3.340000      4.5569655E-20
   3.350000      4.8340988E-20
   3.360000      5.1171493E-20
   3.370000      5.4054027E-20
   3.380000      5.6981222E-20
   3.390000      5.9945637E-20
   3.400000      6.2939876E-20
   3.410000      6.5956674E-20
   3.420000      6.8988976E-20
   3.430000      7.2029899E-20
   3.440000      7.5072715E-20
   3.450000      7.8110749E-20
   3.460000      8.1137216E-20
   3.470000      8.4145025E-20
   3.480000      8.7126559E-20
   3.490000      9.0073390E-20
   3.500000      9.2976025E-20
   3.510000      9.5823594E-20
   3.520000      9.8603645E-20
   3.530000      1.0130187E-19
   3.540000      1.0390194E-19
   3.550000      1.0638538E-19
   3.560000      1.0873155E-19
   3.570000      1.1091764E-19
   3.580000      1.1291881E-19
   3.590000      1.1470834E-19
   3.600000      1.1625790E-19
   3.610000      1.1753783E-19
   3.620000      1.1851757E-19
   3.630000      1.1916597E-19
   3.640000      1.1945164E-19
   3.650000      1.1934343E-19
   3.660000      1.1881064E-19
   3.670000      1.1782331E-19
   3.680000      1.1635240E-19
   3.690000      1.1436989E-19
   3.700000      1.1184874E-19
   3.710000      1.0876281E-19
   3.720000      1.0508661E-19
   3.730000      1.0079501E-19
   3.740000      9.5862918E-20
   3.750000      9.0264734E-20
   3.760000      8.3974038E-20
   3.770000      7.6963120E-20
   3.780000      6.9202589E-20
   3.790000      6.0661045E-20
   3.800000      5.1304905E-20
   3.810000      4.1098317E-20
   3.820000      3.0003191E-20
   3.830000      1.7979422E-20
   3.840000      4.9852653E-21
   3.850000     -9.0221276E-21
   3.860000     -2.4085995E-20
   3.870000     -4.0249274E-20
   3.880000     -5.7553708E-20
   3.890000     -7.6038920E-20
   3.900000     -9.5741509E-20
   3.910000     -1.1669425E-19
   3.920000     -1.3892522E-19
   3.930000     -1.6245723E-19
   3.940000     -1.8730726E-19
   3.950000     -2.1348623E-19
   3.960000     -2.4099892E-19
   3.970000     -2.6984392E-19
   3.980000     -3.0001414E-19
   3.990000     -3.3149718E-19
   4.000000     -3.6427589E-19
   4.010000     -3.9832916E-19
   4.020000     -4.3363258E-19
   4.030000     -4.7015922E-19
   4.040000     -5.0788031E-19
   4.050000     -5.4676551E-19
   4.060000     -5.8678352E-19
   4.070000     -6.2790200E-19
   4.080000     -6.7008749E-19
   4.090000     -7.1330478E-19
   4.100000     -7.5751603E-19
   4.110000     -8.0267994E-19
   4.120000     -8.4875038E-19
   4.130000     -8.9567489E-19
   4.140000     -9.4339277E-19
   4.150000     -9.9183391E-19
   4.160000     -1.0409167E-18
   4.170000     -1.0905466E-18
   4.180000     -1.1406152E-18
   4.190000     -1.1909981E-18
   4.200000     -1.2415555E-18
   4.210000     -1.2921312E-18
   4.220000     -1.3425522E-18
   4.230000     -1.3926304E-18
   4.240000     -1.4421624E-18
   4.250000     -1.4909312E-18
   4.260000     -1.5387078E-18
   4.270000     -1.5852528E-18
   4.280000     -1.6303182E-18
   4.290000     -1.6736493E-18
   4.300000     -1.7149866E-18
   4.310000     -1.7540669E-18
   4.320000     -1.7906245E-18
   4.330000     -1.8243921E-18
   4.340000     -1.8551006E-18
   4.350000     -1.8824799E-18
   4.360000     -1.9062563E-18
   4.370000     -1.9261529E-18
   4.380000     -1.9418869E-18
   4.390000     -1.9531682E-18
   4.400000     -1.9596968E-18
   4.410000     -1.9611600E-18
   4.420000     -1.9572322E-18
   4.430000     -1.9475707E-18
   4.440000     -1.9318156E-18
   4.450000     -1.9095886E-18
   4.460000     -1.8804932E-18
   4.470000     -1.8441150E-18
   4.480000     -1.8000224E-18
   4.490000     -1.7477704E-18
   4.500000     -1.6869017E-18
   4.510000     -1.6169520E-18
   4.520000     -1.5374534E-18
   4.530000     -1.4479391E-18
   4.540000     -1.3479481E-18
   4.550000     -1.2370299E-18
   4.560000     -1.1147496E-18
   4.570000     -9.8069220E-19
   4.580000     -8.3446508E-19
   4.590000     -6.7570094E-19
   4.600000     -5.0406024E-19
   4.610000     -3.1923213E-19
   4.620000     -1.2093350E-19
   4.630000      9.1092031E-20
   4.640000      3.1707402E-19
   4.650000      5.5721931E-19
   4.660000      8.1171456E-19
   4.670000      1.0807280E-18
   4.680000      1.3644127E-18
   4.690000      1.6629084E-18
   4.700000      1.9763431E-18
   4.710000      2.3048331E-18
   4.720000      2.6484820E-18
   4.730000      3.0073779E-18
   4.740000      3.3815909E-18
   4.750000      3.7711669E-18
   4.760000      4.1761222E-18
   4.770000      4.5964355E-18
   4.780000      5.0320383E-18
   4.790000      5.4828079E-18
   4.800000      5.9485565E-18
   4.810000      6.4290235E-18
   4.820000      6.9238669E-18
   4.830000      7.4326546E-18
   4.840000      7.9548586E-18
   4.850000      8.4898509E-18
   4.860000      9.0368994E-18
   4.870000      9.5951702E-18
   4.880000      1.0163725E-17
   4.890000      1.0741526E-17
   4.900000      1.1327438E-17
   4.910000      1.1920236E-17
   4.920000      1.2518613E-17
   4.930000      1.3121181E-17
   4.940000      1.3726483E-17
   4.950000      1.4333000E-17
   4.960000      1.4939148E-17
   4.970000      1.5543286E-17
   4.980000      1.6143720E-17
   4.990000      1.6738701E-17
   5.000000      1.7326415E-17
   5.010000      1.7904984E-17
   5.020000      1.8472463E-17
   5.030000      1.9026818E-17
   5.040000      1.9565930E-17
   5.050000      2.0087568E-17
   5.060000      2.0589397E-17
   5.070000      2.1068949E-17
   5.080000      2.1523625E-17
   5.090000      2.1950692E-17
   5.100000      2.2347264E-17
   5.110000      2.2710312E-17
   5.120000      2.3036664E-17
   5.130000      2.3323012E-17
   5.140000      2.3565916E-17
   5.150000      2.3761827E-17
   5.160000      2.3907091E-17
   5.170000      2.3997979E-17
   5.180000      2.4030700E-17
   5.190000      2.4001428E-17
   5.200000      2.3906315E-17
   5.210000      2.3741520E-17
   5.220000      2.3503217E-17
   5.230000      2.3187626E-17
   5.240000      2.2791013E-17
   5.250000      2.2309700E-17
   5.260000      2.1740075E-17
   5.270000      2.1078590E-17
   5.280000      2.0321763E-17
   5.290000      1.9466172E-17
   5.300000      1.8508444E-17
   5.310000      1.7445249E-17
   5.320000      1.6273300E-17
   5.330000      1.4989335E-17
   5.340000      1.3590121E-17
   5.350000      1.2072450E-17
   5.360000      1.0433143E-17
   5.370000      8.6690604E-18
   5.380000      6.7771197E-18
   5.390000      4.7543124E-18
   5.400000      2.5977318E-18
   5.410000      3.0460784E-19
   5.420000     -2.1276454E-18
   5.430000     -4.7014030E-18
   5.440000     -7.4187819E-18
   5.450000     -1.0281588E-17
   5.460000     -1.3291274E-17
   5.470000     -1.6448900E-17
   5.480000     -1.9755091E-17
   5.490000     -2.3210008E-17
   5.500000     -2.6813316E-17
   5.510000     -3.0564165E-17
   5.520000     -3.4461181E-17
   5.530000     -3.8502455E-17
   5.540000     -4.2685540E-17
   5.550000     -4.7007463E-17
   5.560000     -5.1464749E-17
   5.570000     -5.6053411E-17
   5.580000     -6.0768969E-17
   5.590000     -6.5606494E-17
   5.600000     -7.0560564E-17
   5.610000     -7.5625325E-17
   5.620000     -8.0794469E-17
   5.630000     -8.6061208E-17
   5.640000     -9.1418294E-17
   5.650000     -9.6857959E-17
   5.660000     -1.0237191E-16
   5.670000     -1.0795125E-16
   5.680000     -1.1358648E-16
   5.690000     -1.1926741E-16
   5.700000     -1.2498311E-16
   5.710000     -1.3072185E-16
   5.720000     -1.3647108E-16
   5.730000     -1.4221732E-16
   5.740000     -1.4794619E-16
   5.750000     -1.5364235E-16
   5.760000     -1.5928948E-16
   5.770000     -1.6487032E-16
   5.780000     -1.7036660E-16
   5.790000     -1.7575915E-16
   5.800000     -1.8102791E-16
   5.810000     -1.8615198E-16
   5.820000     -1.9110966E-16
   5.830000     -1.9587862E-16
   5.840000     -2.0043580E-16
   5.850000     -2.0475767E-16
   5.860000     -2.0882013E-16
   5.870000     -2.1259872E-16
   5.880000     -2.1606856E-16
   5.890000     -2.1920448E-16
   5.900000     -2.2198100E-16
   5.910000     -2.2437238E-16
   5.920000     -2.2635261E-16
   5.930000     -2.2789541E-16
   5.940000     -2.2897415E-16
   5.950000     -2.2956200E-16
   5.960000     -2.2963172E-16
   5.970000     -2.2915574E-16
   5.980000     -2.2810616E-16
   5.990000     -2.2645466E-16
   6.000000     -2.2417259E-16
   6.010000     -2.2123098E-16
   6.020000     -2.1760054E-16
   6.030000     -2.1325182E-16
   6.040000     -2.0815525E-16
   6.050000     -2.0228126E-16
   6.060000     -1.9560049E-16
   6.070000     -1.8808386E-16
   6.080000     -1.7970284E-16
   6.090000     -1.7042951E-16
   6.100000     -1.6023690E-16
   6.110000     -1.4909908E-16
   6.120000     -1.3699139E-16
   6.130000     -1.2389067E-16
   6.140000     -1.0977526E-16
   6.150000     -9.4625346E-17
   6.160000     -7.8422909E-17
   6.170000     -6.1151908E-17
   6.180000     -4.2798351E-17
   6.190000     -2.3350268E-17
   6.200000     -2.7978007E-18
   6.210000      1.8866807E-17
   6.220000      4.1649186E-17
   6.230000      6.5552839E-17
   6.240000      9.0579089E-17
   6.250000      1.1672718E-16
   6.260000      1.4399399E-16
   6.270000      1.7237417E-16
   6.280000      2.0186007E-16
   6.290000      2.3244156E-16
   6.300000      2.6410575E-16
   6.310000      2.9683695E-16
   6.320000      3.3061647E-16
   6.330000      3.6542216E-16
   6.340000      4.0122834E-16
   6.350000      4.3800550E-16
   6.360000      4.7572007E-16
   6.370000      5.1433413E-16
   6.380000      5.5380502E-16
   6.390000      5.9408540E-16
   6.400000      6.3512267E-16
   6.410000      6.7685932E-16
   6.420000      7.1923262E-16
   6.430000      7.6217443E-16
   6.440000      8.0561155E-16
   6.450000      8.4946547E-16
   6.460000      8.9365269E-16
   6.470000      9.3808444E-16
   6.480000      9.8266738E-16
   6.490000      1.0273034E-15
   6.500000      1.0718900E-15
   6.510000      1.1163204E-15
   6.520000      1.1604835E-15
   6.530000      1.2042642E-15
   6.540000      1.2475435E-15
   6.550000      1.2901983E-15
   6.560000      1.3321016E-15
   6.570000      1.3731228E-15
   6.580000      1.4131268E-15
   6.590000      1.4519743E-15
   6.600000      1.4895225E-15
   6.610000      1.5256232E-15
   6.620000      1.5601250E-15
   6.630000      1.5928711E-15
   6.640000      1.6237003E-15
   6.650000      1.6524471E-15
   6.660000      1.6789415E-15
   6.670000      1.7030092E-15
   6.680000      1.7244719E-15
   6.690000      1.7431475E-15
   6.700000      1.7588509E-15
   6.710000      1.7713938E-15
   6.720000      1.7805861E-15
   6.730000      1.7862356E-15
   6.740000      1.7881494E-15
   6.750000      1.7861348E-15
   6.760000      1.7799987E-15
   6.770000      1.7695494E-15
   6.780000      1.7545977E-15
   6.790000      1.7349558E-15
   6.800000      1.7104393E-15
   6.810000      1.6808672E-15
   6.820000      1.6460627E-15
   6.830000      1.6058533E-15
   6.840000      1.5600707E-15
   6.850000      1.5085518E-15
   6.860000      1.4511389E-15
   6.870000      1.3876791E-15
   6.880000      1.3180259E-15
   6.890000      1.2420380E-15
   6.900000      1.1595807E-15
   6.910000      1.0705256E-15
   6.920000      9.7475154E-16
   6.930000      8.7214509E-16
   6.940000      7.6260086E-16
   6.950000      6.4602282E-16
   6.960000      5.2232483E-16
   6.970000      3.9143166E-16
   6.980000      2.5328024E-16
   6.990000      1.0782078E-16
   7.000000     -4.4982257E-17
   7.010000     -2.0514893E-16
   7.020000     -3.7268176E-16
   7.030000     -5.4756593E-16
   7.040000     -7.2976791E-16
   7.050000     -9.1923361E-16
   7.060000     -1.1158887E-15