  -2.600000      0.0000000E+00
  -2.590000      0.0000000E+00
  -2.580000      0.0000000E+00
  -2.570000      0.0000000E+00
  -2.560000      0.0000000E+00
  -2.550000     -1.8748125E-30
  -2.540000     -2.3266437E-29
  -2.530000     -1.5238153E-28
  -2.520000     -7.0142638E-28
  -2.510000     -2.5472752E-27
  -2.500000     -7.7643511E-27
  -2.490000     -2.0634708E-26
  -2.480000     -4.9043544E-26
  -2.470000     -1.0612540E-25
  -2.460000     -2.1182865E-25
  -2.450000     -3.9385259E-25
  -2.440000     -6.8724901E-25
  -2.430000     -1.1319559E-24
  -2.420000     -1.7677314E-24
  -2.410000     -2.6264438E-24
  -2.400000     -3.7224575E-24
  -2.390000     -5.0428521E-24
  -2.380000     -6.5402604E-24
  -2.370000     -8.1319182E-24
  -2.360000     -9.7087510E-24
  -2.350000     -1.1157621E-23
  -2.340000     -1.2397886E-23
  -2.330000     -1.3430076E-23
  -2.320000     -1.4389834E-23
  -2.310000     -1.5594762E-23
  -2.300000     -1.7566211E-23
  -2.290000     -2.1003633E-23
  -2.280000     -2.6687187E-23
  -2.270000     -3.5286528E-23
  -2.260000     -4.7061416E-23
  -2.250000     -6.1454057E-23
  -2.240000     -7.6594140E-23
  -2.230000     -8.8764421E-23
  -2.220000     -9.1905615E-23
  -2.210000     -7.7270339E-23
  -2.200000     -3.3362938E-23
  -2.190000      5.3681776E-23
  -2.180000      1.9912779E-22
  -2.170000      4.1794474E-22
  -2.160000      7.2231230E-22
  -2.150000      1.1183234E-21
  -2.140000      1.6019985E-21
  -2.130000      2.1548606E-21
  -2.120000      2.7394758E-21
  -2.110000      3.2955231E-21
  -2.100000      3.7370970E-21
  -2.090000      3.9520614E-21
  -2.080000      3.8043123E-21
  -2.070000      3.1397753E-21
  -2.060000      1.7968211E-21
  -2.050000     -3.7848569E-22
  -2.040000     -3.5122743E-21
  -2.030000     -7.6783767E-21
  -2.020000     -1.2870562E-20
  -2.010000     -1.8973291E-20
  -2.000000     -2.5733476E-20
  -1.990000     -3.2736416E-20
  -1.980000     -3.9389581E-20
  -1.970000     -4.4918305E-20
  -1.960000     -4.8377383E-20
  -1.950000     -4.8682377E-20
  -1.940000     -4.4663491E-20
  -1.930000     -3.5143825E-20
  -1.920000     -1.9041896E-20
  -1.910000      4.5036632E-21
  -1.900000      3.5992011E-20
  -1.890000      7.5407962E-20
  -1.880000      1.2207013E-19
  -1.870000      1.7449208E-19
  -1.860000      2.3027152E-19
  -1.850000      2.8602375E-19
  -1.840000      3.3737634E-19
  -1.830000      3.7904076E-19
  -1.820000      4.0497432E-19
  -1.810000      4.0864219E-19
  -1.800000      3.8338340E-19
  -1.790000      3.2287716E-19
  -1.780000      2.2169826E-19
  -1.770000      7.5940208E-20
  -1.760000     -1.1612463E-19
  -1.750000     -3.5338846E-19
  -1.740000     -6.3130362E-19
  -1.730000     -9.4138582E-19
  -1.720000     -1.2708841E-18
  -1.710000     -1.6026775E-18
  -1.700000     -1.9154535E-18
  -1.690000     -2.1842176E-18
  -1.680000     -2.3811643E-18
  -1.670000     -2.4769324E-18
  -1.660000     -2.4422290E-18
  -1.650000     -2.2498031E-18
  -1.640000     -1.8766962E-18
  -1.630000     -1.3066941E-18
  -1.620000     -5.3285770E-19
  -1.610000      4.4000141E-19
  -1.600000      1.5930562E-18
  -1.590000      2.8915769E-18
  -1.580000      4.2835862E-18
  -1.570000      5.6992124E-18
  -1.560000      7.0508718E-18
  -1.550000      8.2343787E-18
  -1.540000      9.1310325E-18
  -1.530000      9.6106782E-18
  -1.520000      9.5356637E-18
  -1.510000      8.7655618E-18
  -1.500000      7.1624486E-18
  -1.490000      4.5964565E-18
  -1.480000      9.5128169E-19
  -1.470000     -3.8707147E-18
  -1.460000     -9.9442156E-18
  -1.450000     -1.7317847E-17
  -1.440000     -2.6012618E-17
  -1.430000     -3.6022223E-17
  -1.420000     -4.7315416E-17
  -1.410000     -5.9840535E-17
  -1.400000     -7.3532247E-17
  -1.390000     -8.8320238E-17
  -1.380000     -1.0413958E-16
  -1.370000     -1.2094233E-16
  -1.360000     -1.3870973E-16
  -1.350000     -1.5746425E-16
  -1.340000     -1.7728070E-16
  -1.330000     -1.9829557E-16
  -1.320000     -2.2071378E-16
  -1.310000     -2.4481200E-16
  -1.300000     -2.7093794E-16
  -1.290000     -2.9950529E-16
  -1.280000     -3.3098379E-16
  -1.270000     -3.6588501E-16
  -1.260000     -4.0474344E-16
  -1.250000     -4.4809446E-16
  -1.240000     -4.9644966E-16
  -1.230000     -5.5027098E-16
  -1.220000     -6.0994488E-16
  -1.210000     -6.7575913E-16
  -1.200000     -7.4788282E-16
  -1.190000     -8.2635206E-16
  -1.180000     -9.1106303E-16
  -1.170000     -1.0017728E-15
  -1.160000     -1.0981103E-15
  -1.150000     -1.1995963E-15
  -1.140000     -1.3056733E-15
  -1.130000     -1.4157449E-15
  -1.120000     -1.5292215E-15
  -1.110000     -1.6455727E-15
  -1.100000     -1.7643822E-15
  -1.090000     -1.8854026E-15
  -1.080000     -2.0086073E-15
  -1.070000     -2.1342361E-15
  -1.060000     -2.2628292E-15
  -1.050000     -2.3952506E-15
  -1.040000     -2.5326942E-15
  -1.030000     -2.6766726E-15
  -1.020000     -2.8289897E-15
  -1.010000     -2.9916920E-15
  -1.000000     -3.1670066E-15
 -0.9900000     -3.3572640E-15
 -0.9800000     -3.5648089E-15
 -0.9700000     -3.7919073E-15
 -0.9600000     -4.0406534E-15
 -0.9500000     -4.3128804E-15
 -0.9400000     -4.6100844E-15
 -0.9300000     -4.9333672E-15
 -0.9200000     -5.2834010E-15
 -0.9100000     -5.6604226E-15
 -0.9000000     -6.0642570E-15
 -0.8900000     -6.4943765E-15
 -0.8800000     -6.9499909E-15
 -0.8700000     -7.4301662E-15
 -0.8600000     -7.9339747E-15
 -0.8500000     -8.4606555E-15
 -0.8400000     -9.0097912E-15
 -0.8300000     -9.5814868E-15
 -0.8200000     -1.0176537E-14
 -0.8100000     -1.0796570E-14
 -0.8000000     -1.1444168E-14
 -0.7900000     -1.2122944E-14
 -0.7800000     -1.2837561E-14
 -0.7700000     -1.3593712E-14
 -0.7600000     -1.4398032E-14
 -0.7500000     -1.5257960E-14
 -0.7400000     -1.6181546E-14
 -0.7300000     -1.7177212E-14
 -0.7200000     -1.8253475E-14
 -0.7100000     -1.9418674E-14
 -0.7000000     -2.0680665E-14
 -0.6900000     -2.2046541E-14
 -0.6800000     -2.3522391E-14
 -0.6700000     -2.5113111E-14
 -0.6600000     -2.6822267E-14
 -0.6500000     -2.8652072E-14
 -0.6400000     -3.0603412E-14
 -0.6300000     -3.2675993E-14
 -0.6200000     -3.4868582E-14
 -0.6100000     -3.7179322E-14
 -0.6000000     -3.9606139E-14
 -0.5900000     -4.2147191E-14
 -0.5800000     -4.4801345E-14
 -0.5700000     -4.7568699E-14
 -0.5600000     -5.0451024E-14
 -0.5500000     -5.3452190E-14
 -0.5400000     -5.6578494E-14
 -0.5300000     -5.9838887E-14
 -0.5200000     -6.3245084E-14
 -0.5100000     -6.6811472E-14
 -0.5000000     -7.0554910E-14
 -0.4900000     -7.4494393E-14
 -0.4800000     -7.8650506E-14
 -0.4700000     -8.3044811E-14
 -0.4600000     -8.7699128E-14
 -0.4500000     -9.2634742E-14
 -0.4400000     -9.7871635E-14
 -0.4300000     -1.0342768E-13
 -0.4200000     -1.0931804E-13
 -0.4100000     -1.1555454E-13
 -0.4000000     -1.2214534E-13
 -0.3900000     -1.2909476E-13
 -0.3800000     -1.3640335E-13
 -0.3700000     -1.4406819E-13
 -0.3600000     -1.5208340E-13
 -0.3500000     -1.6044100E-13
 -0.3400000     -1.6913183E-13
 -0.3300000     -1.7814660E-13
 -0.3200000     -1.8747723E-13
 -0.3100000     -1.9711798E-13
 -0.3000000     -2.0706669E-13
 -0.2900000     -2.1732580E-13
 -0.2800000     -2.2790320E-13
 -0.2700000     -2.3881285E-13
 -0.2600000     -2.5007505E-13
 -0.2500000     -2.6171629E-13
 -0.2400000     -2.7376891E-13
 -0.2300000     -2.8627011E-13
 -0.2200000     -2.9926091E-13
 -0.2100000     -3.1278460E-13
 -0.2000000     -3.2688490E-13
 -0.1900000     -3.4160429E-13
 -0.1800000     -3.5698208E-13
 -0.1700000     -3.7305239E-13
 -0.1600000     -3.8984264E-13
 -0.1500000     -4.0737219E-13
 -0.1400000     -4.2565129E-13
 -0.1300000     -4.4468067E-13
 -0.1200000     -4.6445150E-13
 -0.1100000     -4.8494618E-13
 -0.1000000     -5.0613918E-13
 -9.0000004E-02 -5.2799919E-13
 -7.9999998E-02 -5.5049086E-13
 -7.0000000E-02 -5.7357764E-13
 -5.9999999E-02 -5.9722431E-13
 -5.0000001E-02 -6.2139985E-13
 -3.9999999E-02 -6.4608025E-13
 -2.9999999E-02 -6.7125076E-13
 -2.0000000E-02 -6.9690797E-13
 -9.9999998E-03 -7.2306142E-13
 -3.4694470E-17 -7.4973404E-13
  9.9999998E-03 -7.7696226E-13
  2.0000000E-02 -8.0479514E-13
  2.9999999E-02 -8.3329231E-13
  3.9999999E-02 -8.6252175E-13
  5.0000001E-02 -8.9255627E-13
  5.9999999E-02 -9.2347007E-13
  7.0000000E-02 -9.5533434E-13
  7.9999998E-02 -9.8821363E-13
  9.0000004E-02 -1.0221607E-12
  0.1000000     -1.0572135E-12
  0.1100000     -1.0933919E-12
  0.1200000     -1.1306956E-12
  0.1300000     -1.1691025E-12
  0.1400000     -1.2085688E-12
  0.1500000     -1.2490303E-12
  0.1600000     -1.2904038E-12
  0.1700000     -1.3325919E-12
  0.1800000     -1.3754862E-12
  0.1900000     -1.4189734E-12
  0.2000000     -1.4629409E-12
  0.2100000     -1.5072816E-12
  0.2200000     -1.5519019E-12
  0.2300000     -1.5967251E-12
  0.2400000     -1.6416964E-12
  0.2500000     -1.6867856E-12
  0.2600000     -1.7319893E-12
  0.2700000     -1.7773314E-12
  0.2800000     -1.8228609E-12
  0.2900000     -1.8686480E-12
  0.3000000     -1.9147804E-12
  0.3100000     -1.9613556E-12
  0.3200000     -2.0084730E-12
  0.3300000     -2.0562269E-12
  0.3400000     -2.1046968E-12
  0.3500000     -2.1539389E-12
  0.3600000     -2.2039781E-12
  0.3700000     -2.2548018E-12
  0.3800000     -2.3063550E-12
  0.3900000     -2.3585370E-12
  0.4000000     -2.4112006E-12
  0.4100000     -2.4641541E-12
  0.4200000     -2.5171653E-12
  0.4300000     -2.5699681E-12
  0.4400000     -2.6222724E-12
  0.4500000     -2.6737716E-12
  0.4600000     -2.7241571E-12
  0.4700000     -2.7731276E-12
  0.4800000     -2.8204021E-12
  0.4900000     -2.8657296E-12
  0.5000000     -2.9088984E-12
  0.5100000     -2.9497422E-12
  0.5200000     -2.9881449E-12
  0.5300000     -3.0240407E-12
  0.5400000     -3.0574113E-12
  0.5500000     -3.0882801E-12
  0.5600000     -3.1167024E-12
  0.5700000     -3.1427536E-12
  0.5800000     -3.1665137E-12
  0.5900000     -3.1880514E-12
  0.6000000     -3.2074066E-12
  0.6100000     -3.2245747E-12
  0.6200000     -3.2394918E-12
  0.6300000     -3.2520193E-12
  0.6400000     -3.2619356E-12
  0.6500000     -3.2689285E-12
  0.6600000     -3.2725942E-12
  0.6700000     -3.2724392E-12
  0.6800000     -3.2678870E-12
  0.6900000     -3.2582914E-12
  0.7000000     -3.2429519E-12
  0.7100000     -3.2211317E-12
  0.7200000     -3.1920801E-12
  0.7300000     -3.1550546E-12
  0.7400000     -3.1093403E-12
  0.7500000     -3.0542736E-12
  0.7600000     -2.9892597E-12
  0.7700000     -2.9137844E-12
  0.7800000     -2.8274228E-12
  0.7900000     -2.7298413E-12
  0.8000000     -2.6207959E-12
  0.8100000     -2.5001193E-12
  0.8200000     -2.3677061E-12
  0.8300000     -2.2234916E-12
  0.8400000     -2.0674241E-12
  0.8500000     -1.8994363E-12
  0.8600000     -1.7194146E-12
  0.8700000     -1.5271692E-12
  0.8800000     -1.3224045E-12
  0.8900000     -1.1046964E-12
  0.9000000     -8.7347263E-13
  0.9100000     -6.2800042E-13
  0.9200000     -3.6738182E-13
  0.9300000     -9.0559735E-14
  0.9400000      2.0367040E-13
  0.9500000      5.1664288E-13
  0.9600000      8.4978790E-13
  0.9700000      1.2045976E-12
  0.9800000      1.5825913E-12
  0.9900000      1.9852707E-12
   1.000000      2.4140774E-12
   1.010000      2.8703572E-12
   1.020000      3.3553232E-12
   1.030000      3.8700284E-12
   1.040000      4.4153513E-12
   1.050000      4.9919825E-12
   1.060000      5.6004320E-12
   1.070000      6.2410411E-12
   1.080000      6.9140063E-12
   1.090000      7.6194138E-12
   1.100000      8.3572862E-12
   1.110000      9.1276257E-12
   1.120000      9.9304662E-12
   1.130000      1.0765924E-11
   1.140000      1.1634247E-11
   1.150000      1.2535857E-11
   1.160000      1.3471379E-11
   1.170000      1.4441661E-11
   1.180000      1.5447784E-11
   1.190000      1.6491050E-11
   1.200000      1.7572964E-11
   1.210000      1.8695188E-11
   1.220000      1.9859487E-11
   1.230000      2.1067684E-11
   1.240000      2.2321566E-11
   1.250000      2.3622822E-11
   1.260000      2.4972970E-11
   1.270000      2.6373272E-11
   1.280000      2.7824675E-11
   1.290000      2.9327762E-11
   1.300000      3.0882710E-11
   1.310000      3.2489258E-11
   1.320000      3.4146724E-11
   1.330000      3.5853993E-11
   1.340000      3.7609582E-11
   1.350000      3.9411665E-11
   1.360000      4.1258153E-11
   1.370000      4.3146767E-11
   1.380000      4.5075128E-11
   1.390000      4.7040819E-11
   1.400000      4.9041476E-11
   1.410000      5.1074863E-11
   1.420000      5.3138906E-11
   1.430000      5.5231743E-11
   1.440000      5.7351728E-11
   1.450000      5.9497421E-11
   1.460000      6.1667560E-11
   1.470000      6.3860972E-11
   1.480000      6.6076519E-11
   1.490000      6.8312959E-11
   1.500000      7.0568877E-11
   1.510000      7.2842496E-11
   1.520000      7.5131609E-11
   1.530000      7.7433421E-11
   1.540000      7.9744461E-11
   1.550000      8.2060456E-11
   1.560000      8.4376298E-11
   1.570000      8.6685985E-11
   1.580000      8.8982613E-11
   1.590000      9.1258424E-11
   1.600000      9.3504829E-11
   1.610000      9.5712521E-11
   1.620000      9.7871565E-11
   1.630000      9.9971524E-11
   1.640000      1.0200164E-10
   1.650000      1.0395093E-10
   1.660000      1.0580836E-10
   1.670000      1.0756295E-10
   1.680000      1.0920390E-10
   1.690000      1.1072063E-10
   1.700000      1.1210289E-10
   1.710000      1.1334067E-10
   1.720000      1.1442425E-10
   1.730000      1.1534410E-10
   1.740000      1.1609073E-10
   1.750000      1.1665456E-10
   1.760000      1.1702585E-10
   1.770000      1.1719437E-10
   1.780000      1.1714933E-10
   1.790000      1.1687920E-10
   1.800000      1.1637152E-10
   1.810000      1.1561279E-10
   1.820000      1.1458838E-10
   1.830000      1.1328252E-10
   1.840000      1.1167828E-10
   1.850000      1.0975762E-10
   1.860000      1.0750156E-10
   1.870000      1.0489034E-10
   1.880000      1.0190358E-10
   1.890000      9.8520546E-11
   1.900000      9.4720447E-11
   1.910000      9.0482670E-11
   1.920000      8.5787100E-11
   1.930000      8.0614321E-11
   1.940000      7.4945848E-11
   1.950000      6.8764341E-11
   1.960000      6.2053744E-11
   1.970000      5.4799266E-11
   1.980000      4.6987463E-11
   1.990000      3.8606174E-11
   2.000000      2.9644381E-11
   2.010000      2.0092079E-11
   2.020000      9.9401390E-12
   2.030000     -8.2001495E-13
   2.040000     -1.2196598E-11
   2.050000     -2.4197673E-11
   2.060000     -3.6831350E-11
   2.070000     -5.0105916E-11
   2.080000     -6.4029962E-11
   2.090000     -7.8612387E-11
   2.100000     -9.3862348E-11
   2.110000     -1.0978915E-10
   2.120000     -1.2640196E-10
   2.130000     -1.4370961E-10
   2.140000     -1.6172019E-10
   2.150000     -1.8044062E-10
   2.160000     -1.9987627E-10
   2.170000     -2.2003041E-10
   2.180000     -2.4090385E-10
   2.190000     -2.6249444E-10
   2.200000     -2.8479669E-10
   2.210000     -3.0780153E-10
   2.220000     -3.3149600E-10
   2.230000     -3.5586312E-10
   2.240000     -3.8088191E-10
   2.250000     -4.0652737E-10
   2.260000     -4.3277065E-10
   2.270000     -4.5957932E-10
   2.280000     -4.8691756E-10
   2.290000     -5.1474669E-10
   2.300000     -5.4302524E-10
   2.310000     -5.7170974E-10
   2.320000     -6.0075456E-10
   2.330000     -6.3011263E-10
   2.340000     -6.5973549E-10
   2.350000     -6.8957329E-10
   2.360000     -7.1957490E-10
   2.370000     -7.4968787E-10
   2.380000     -7.7985818E-10
   2.390000     -8.1002971E-10
   2.400000     -8.4014429E-10
   2.410000     -8.7014074E-10
   2.420000     -8.9995456E-10
   2.430000     -9.2951719E-10
   2.440000     -9.5875574E-10
   2.450000     -9.8759223E-10
   2.460000     -1.0159432E-09
   2.470000     -1.0437196E-09
   2.480000     -1.0708262E-09
   2.490000     -1.0971620E-09
   2.500000     -1.1226199E-09
   2.510000     -1.1470870E-09
   2.520000     -1.1704451E-09
   2.530000     -1.1925716E-09
   2.540000     -1.2133395E-09
   2.550000     -1.2326188E-09
   2.560000     -1.2502762E-09
   2.570000     -1.2661775E-09
   2.580000     -1.2801870E-09
   2.590000     -1.2921686E-09
   2.600000     -1.3019870E-09
   2.610000     -1.3095077E-09
   2.620000     -1.3145972E-09
   2.630000     -1.3171235E-09
   2.640000     -1.3169562E-09
   2.650000     -1.3139658E-09
   2.660000     -1.3080244E-09
   2.670000     -1.2990041E-09
   2.680000     -1.2867781E-09
   2.690000     -1.2712187E-09
   2.700000     -1.2521978E-09
   2.710000     -1.2295862E-09
   2.720000     -1.2032528E-09
   2.730000     -1.1730654E-09
   2.740000     -1.1388899E-09
   2.750000     -1.1005910E-09
   2.760000     -1.0580320E-09
   2.770000     -1.0110766E-09
   2.780000     -9.5958852E-10
   2.790000     -9.0343355E-10
   2.800000     -8.4247997E-10
   2.810000     -7.7660056E-10
   2.820000     -7.0567374E-10
   2.830000     -6.2958494E-10
   2.840000     -5.4822835E-10
   2.850000     -4.6150805E-10
   2.860000     -3.6933914E-10
   2.870000     -2.7164918E-10
   2.880000     -1.6837860E-10
   2.890000     -5.9481343E-11
   2.900000      5.5074910E-11
   2.910000      1.7530824E-10
   2.920000      3.0122285E-10
   2.930000      4.3280973E-10
   2.940000      5.7004684E-10
   2.950000      7.1289974E-10
   2.960000      8.6132185E-10
   2.970000      1.0152559E-09
   2.980000      1.1746336E-09
   2.990000      1.3393764E-09
   3.000000      1.5093948E-09
   3.010000      1.6845891E-09
   3.020000      1.8648485E-09
   3.030000      2.0500506E-09
   3.040000      2.2400606E-09
   3.050000      2.4347293E-09
   3.060000      2.6338918E-09
   3.070000      2.8373666E-09
   3.080000      3.0449536E-09
   3.090000      3.2564318E-09
   3.100000      3.4715579E-09
   3.110000      3.6900663E-09
   3.120000      3.9116652E-09
   3.130000      4.1360373E-09
   3.140000      4.3628394E-09
   3.150000      4.5916999E-09
   3.160000      4.8222222E-09
   3.170000      5.0539830E-09
   3.180000      5.2865330E-09
   3.190000      5.5194000E-09
   3.200000      5.7520881E-09
   3.210000      5.9840812E-09
   3.220000      6.2148429E-09
   3.230000      6.4438210E-09
   3.240000      6.6704473E-09
   3.250000      6.8941381E-09
   3.260000      7.1142985E-09
   3.270000      7.3303208E-09
   3.280000      7.5415860E-09
   3.290000      7.7474658E-09
   3.300000      7.9473210E-09
   3.310000      8.1404989E-09
   3.320000      8.3263378E-09
   3.330000      8.5041627E-09
   3.340000      8.6732843E-09
   3.350000      8.8329992E-09
   3.360000      8.9825889E-09
   3.370000      9.1213188E-09
   3.380000      9.2484385E-09
   3.390000      9.3631822E-09
   3.400000      9.4647676E-09
   3.410000      9.5523980E-09
   3.420000      9.6252624E-09
   3.430000      9.6825419E-09
   3.440000      9.7234061E-09
   3.450000      9.7470219E-09
   3.460000      9.7525552E-09
   3.470000      9.7391730E-09
   3.480000      9.7060484E-09
   3.490000      9.6523642E-09
   3.500000      9.5773212E-09
   3.510000      9.4801349E-09
   3.520000      9.3600452E-09
   3.530000      9.2163148E-09
   3.540000      9.0482342E-09
   3.550000      8.8551229E-09
   3.560000      8.6363316E-09
   3.570000      8.3912433E-09
   3.580000      8.1192733E-09
   3.590000      7.8198692E-09
   3.600000      7.4925097E-09
   3.610000      7.1367072E-09
   3.620000      6.7520070E-09
   3.630000      6.3379844E-09
   3.640000      5.8942482E-09
   3.650000      5.4204401E-09
   3.660000      4.9162372E-09
   3.670000      4.3813522E-09
   3.680000      3.8155372E-09
   3.690000      3.2185852E-09
   3.700000      2.5903371E-09
   3.710000      1.9306829E-09
   3.720000      1.2395676E-09
   3.730000      5.1699628E-10
   3.740000     -2.3696020E-10
   3.750000     -1.0221622E-09
   3.760000     -1.8383949E-09
   3.770000     -2.6853615E-09
   3.780000     -3.5626824E-09
   3.790000     -4.4698916E-09
   3.800000     -5.4064335E-09
   3.810000     -6.3716605E-09
   3.820000     -7.3648327E-09
   3.830000     -8.3851166E-09
   3.840000     -9.4315888E-09
   3.850000     -1.0503230E-08
   3.860000     -1.1598938E-08
   3.870000     -1.2717520E-08
   3.880000     -1.3857703E-08
   3.890000     -1.5018129E-08
   3.900000     -1.6197362E-08
   3.910000     -1.7393889E-08
   3.920000     -1.8606121E-08
   3.930000     -1.9832392E-08
   3.940000     -2.1070964E-08
   3.950000     -2.2320023E-08
   3.960000     -2.3577673E-08
   3.970000     -2.4841945E-08
   3.980000     -2.6110790E-08
   3.990000     -2.7382072E-08
   4.000000     -2.8653568E-08
   4.010000     -2.9922973E-08
   4.020000     -3.1187888E-08
   4.030000     -3.2445815E-08
   4.040000     -3.3694178E-08
   4.050000     -3.4930292E-08
   4.060000     -3.6151398E-08
   4.070000     -3.7354631E-08
   4.080000     -3.8537056E-08
   4.090000     -3.9695646E-08
   4.100000     -4.0827299E-08
   4.110000     -4.1928850E-08
   4.120000     -4.2997076E-08
   4.130000     -4.4028702E-08
   4.140000     -4.5020407E-08
   4.150000     -4.5968839E-08
   4.160000     -4.6870625E-08
   4.170000     -4.7722367E-08
   4.180000     -4.8520661E-08
   4.190000     -4.9262102E-08
   4.200000     -4.9943289E-08
   4.210000     -5.0560839E-08
   4.220000     -5.1111385E-08
   4.230000     -5.1591567E-08
   4.240000     -5.1998050E-08
   4.250000     -5.2327529E-08
   4.260000     -5.2576727E-08
   4.270000     -5.2742390E-08
   4.280000     -5.2821299E-08
   4.290000     -5.2810261E-08
   4.300000     -5.2706124E-08
   4.310000     -5.2505790E-08
   4.320000     -5.2206200E-08
   4.330000     -5.1804349E-08
   4.340000     -5.1297302E-08
   4.350000     -5.0682189E-08
   4.360000     -4.9956235E-08
   4.370000     -4.9116764E-08
   4.380000     -4.8161205E-08
   4.390000     -4.7087109E-08
   4.400000     -4.5892175E-08
   4.410000     -4.4574243E-08
   4.420000     -4.3131330E-08
   4.430000     -4.1561634E-08
   4.440000     -3.9863536E-08
   4.450000     -3.8035616E-08
   4.460000     -3.6076674E-08
   4.470000     -3.3985732E-08
   4.480000     -3.1762031E-08
   4.490000     -2.9405049E-08
   4.500000     -2.6914504E-08
   4.510000     -2.4290344E-08
   4.520000     -2.1532756E-08
   4.530000     -1.8642165E-08
   4.540000     -1.5619239E-08
   4.550000     -1.2464886E-08
   4.560000     -9.1802583E-09
   4.570000     -5.7667573E-09
   4.580000     -2.2260238E-09
   4.590000      1.4400504E-09
   4.600000      5.2293148E-09
   4.610000      9.1393515E-09
   4.620000      1.3167487E-08
   4.630000      1.7310757E-08
   4.640000      2.1565913E-08
   4.650000      2.5929413E-08
   4.660000      3.0397409E-08
   4.670000      3.4965730E-08
   4.680000      3.9629889E-08
   4.690000      4.4385057E-08
   4.700000      4.9226077E-08
   4.710000      5.4147460E-08
   4.720000      5.9143353E-08
   4.730000      6.4207590E-08
   4.740000      6.9333652E-08
   4.750000      7.4514674E-08
   4.760000      7.9743486E-08
   4.770000      8.5012594E-08
   4.780000      9.0314217E-08
   4.790000      9.5640267E-08
   4.800000      1.0098236E-07
   4.810000      1.0633188E-07
   4.820000      1.1167994E-07
   4.830000      1.1701743E-07
   4.840000      1.2233500E-07
   4.850000      1.2762311E-07
   4.860000      1.3287200E-07
   4.870000      1.3807173E-07
   4.880000      1.4321215E-07
   4.890000      1.4828295E-07
   4.900000      1.5327366E-07
   4.910000      1.5817362E-07
   4.920000      1.6297203E-07
   4.930000      1.6765790E-07
   4.940000      1.7222014E-07
   4.950000      1.7664749E-07
   4.960000      1.8092857E-07
   4.970000      1.8505186E-07
   4.980000      1.8900576E-07
   4.990000      1.9277856E-07
   5.000000      1.9635849E-07
   5.010000      1.9973371E-07
   5.020000      2.0289239E-07
   5.030000      2.0582272E-07
   5.040000      2.0851287E-07
   5.050000      2.1095111E-07
   5.060000      2.1312580E-07
   5.070000      2.1502542E-07
   5.080000      2.1663864E-07
   5.090000      2.1795431E-07
   5.100000      2.1896146E-07
   5.110000      2.1964941E-07
   5.120000      2.2000773E-07
   5.130000      2.2002629E-07
   5.140000      2.1969528E-07
   5.150000      2.1900523E-07
   5.160000      2.1794703E-07
   5.170000      2.1651191E-07
   5.180000      2.1469151E-07
   5.190000      2.1247789E-07
   5.200000      2.0986344E-07
   5.210000      2.0684108E-07
   5.220000      2.0340408E-07
   5.230000      1.9954624E-07
   5.240000      1.9526178E-07
   5.250000      1.9054548E-07
   5.260000      1.8539259E-07
   5.270000      1.7979892E-07
   5.280000      1.7376084E-07
   5.290000      1.6727533E-07
   5.300000      1.6033999E-07
   5.310000      1.5295309E-07
   5.320000      1.4511359E-07
   5.330000      1.3682119E-07
   5.340000      1.2807628E-07
   5.350000      1.1888010E-07
   5.360000      1.0923463E-07
   5.370000      9.9142738E-08
   5.380000      8.8608118E-08
   5.390000      7.7635328E-08
   5.400000      6.6229795E-08
   5.410000      5.4397802E-08
   5.420000      4.2146556E-08
   5.430000      2.9484164E-08
   5.440000      1.6419557E-08
   5.450000      2.9625549E-09
   5.460000     -1.0876129E-08
   5.470000     -2.5084951E-08
   5.480000     -3.9651521E-08
   5.490000     -5.4562570E-08
   5.500000     -6.9804038E-08
   5.510000     -8.5361052E-08
   5.520000     -1.0121788E-07
   5.530000     -1.1735798E-07
   5.540000     -1.3376400E-07
   5.550000     -1.5041780E-07
   5.560000     -1.6730037E-07
   5.570000     -1.8439191E-07
   5.580000     -2.0167177E-07
   5.590000     -2.1911850E-07
   5.600000     -2.3670987E-07
   5.610000     -2.5442270E-07
   5.620000     -2.7223314E-07
   5.630000     -2.9011645E-07
   5.640000     -3.0804713E-07
   5.650000     -3.2599900E-07
   5.660000     -3.4394500E-07
   5.670000     -3.6185745E-07
   5.680000     -3.7970804E-07
   5.690000     -3.9746780E-07
   5.700000     -4.1510711E-07
   5.710000     -4.3259595E-07
   5.720000     -4.4990378E-07
   5.730000     -4.6699955E-07
   5.740000     -4.8385192E-07
   5.750000     -5.0042928E-07
   5.760000     -5.1669963E-07
   5.770000     -5.3263079E-07
   5.780000     -5.4819049E-07
   5.790000     -5.6334619E-07
   5.800000     -5.7806534E-07
   5.810000     -5.9231547E-07
   5.820000     -6.0606385E-07
   5.830000     -6.1927801E-07
   5.840000     -6.3192550E-07
   5.850000     -6.4397392E-07
   5.860000     -6.5539098E-07
   5.870000     -6.6614467E-07
   5.880000     -6.7620317E-07
   5.890000     -6.8553493E-07
   5.900000     -6.9410868E-07
   5.910000     -7.0189355E-07
   5.920000     -7.0885898E-07
   5.930000     -7.1497499E-07
   5.940000     -7.2021220E-07
   5.950000     -7.2454185E-07
   5.960000     -7.2793563E-07
   5.970000     -7.3036625E-07
   5.980000     -7.3180712E-07
   5.990000     -7.3223265E-07
   6.000000     -7.3161823E-07
   6.010000     -7.2994027E-07
   6.020000     -7.2717631E-07
   6.030000     -7.2330528E-07
   6.040000     -7.1830715E-07
   6.050000     -7.1216328E-07
   6.060000     -7.0485640E-07
   6.070000     -6.9637065E-07
   6.080000     -6.8669175E-07
   6.090000     -6.7580680E-07
   6.100000     -6.6370438E-07
   6.110000     -6.5037483E-07
   6.120000     -6.3580990E-07
   6.130000     -6.2000288E-07
   6.140000     -6.0294889E-07
   6.150000     -5.8464468E-07
   6.160000     -5.6508867E-07
   6.170000     -5.4428097E-07
   6.180000     -5.2222350E-07
   6.190000     -4.9892003E-07
   6.200000     -4.7437601E-07
   6.210000     -4.4859883E-07
   6.220000     -4.2159772E-07
   6.230000     -3.9338394E-07
   6.240000     -3.6397077E-07
   6.250000     -3.3337355E-07
   6.260000     -3.0160965E-07
   6.270000     -2.6869850E-07
   6.280000     -2.3466164E-07
   6.290000     -1.9952280E-07
   6.300000     -1.6330793E-07
   6.310000     -1.2604514E-07
   6.320000     -8.7764704E-08
   6.330000     -4.8498901E-08
   6.340000     -8.2822371E-09
   6.350000      3.2848611E-08
   6.360000      7.4854910E-08
   6.370000      1.1769595E-07
   6.380000      1.6132900E-07
   6.390000      2.0570926E-07
   6.400000      2.5079018E-07
   6.410000      2.9652327E-07
   6.420000      3.4285824E-07
   6.430000      3.8974318E-07
   6.440000      4.3712436E-07
   6.450000      4.8494644E-07
   6.460000      5.3315244E-07
   6.470000      5.8168382E-07
   6.480000      6.3048049E-07
   6.490000      6.7948105E-07
   6.500000      7.2862235E-07
   6.510000      7.7784011E-07
   6.520000      8.2706862E-07
   6.530000      8.7624085E-07
   6.540000      9.2528853E-07
   6.550000      9.7414215E-07
   6.560000      1.0227312E-06
   6.570000      1.0709840E-06
   6.580000      1.1188280E-06
   6.590000      1.1661896E-06
   6.600000      1.2129947E-06
   6.610000      1.2591682E-06
   6.620000      1.3046350E-06
   6.630000      1.3493192E-06
   6.640000      1.3931444E-06
   6.650000      1.4360345E-06
   6.660000      1.4779129E-06
   6.670000      1.5187034E-06
   6.680000      1.5583299E-06
   6.690000      1.5967169E-06
   6.700000      1.6337887E-06
   6.710000      1.6694705E-06
   6.720000      1.7036887E-06
   6.730000      1.7363699E-06
   6.740000      1.7674417E-06
   6.750000      1.7968327E-06
   6.760000      1.8244730E-06
   6.770000      1.8502931E-06
   6.780000      1.8742253E-06
   6.790000      1.8962033E-06
   6.800000      1.9161621E-06
   6.810000      1.9340382E-06
   6.820000      1.9497702E-06
   6.830000      1.9632973E-06
   6.840000      1.9745619E-06
   6.850000      1.9835077E-06
   6.860000      1.9900804E-06
   6.870000      1.9942281E-06
   6.880000      1.9959011E-06
   6.890000      1.9950523E-06
   6.900000      1.9916367E-06
   6.910000      1.9856125E-06
   6.920000      1.9769407E-06
   6.930000      1.9655852E-06
   6.940000      1.9515126E-06
   6.950000      1.9346930E-06
   6.960000      1.9150998E-06
   6.970000      1.8927097E-06
   6.980000      1.8675030E-06
   6.990000      1.8394633E-06
   7.000000      1.8085778E-06
   7.010000      1.7748374E-06
   7.020000      1.7382367E-06
   7.030000      1.6987742E-06
   7.040000      1.6564519E-06
   7.050000      1.6112757E-06
   7.060000      1.5632554E-06