  -2.600000      0.0000000E+00
  -2.590000      0.0000000E+00
  -2.580000      0.0000000E+00
  -2.570000      0.0000000E+00
  -2.560000      0.0000000E+00
  -2.550000      0.0000000E+00
  -2.540000      0.0000000E+00
  -2.530000      0.0000000E+00
  -2.520000      0.0000000E+00
  -2.510000      0.0000000E+00
  -2.500000      0.0000000E+00
  -2.490000      0.0000000E+00
  -2.480000      0.0000000E+00
  -2.470000      0.0000000E+00
  -2.460000      0.0000000E+00
  -2.450000      0.0000000E+00
  -2.440000      0.0000000E+00
  -2.430000      0.0000000E+00
  -2.420000      0.0000000E+00
  -2.410000      0.0000000E+00
  -2.400000      0.0000000E+00
  -2.390000      0.0000000E+00
  -2.380000      0.0000000E+00
  -2.370000      0.0000000E+00
  -2.360000      0.0000000E+00
  -2.350000      0.0000000E+00
  -2.340000      0.0000000E+00
  -2.330000      0.0000000E+00
  -2.320000      0.0000000E+00
  -2.310000      0.0000000E+00
  -2.300000      0.0000000E+00
  -2.290000      0.0000000E+00
  -2.280000      0.0000000E+00
  -2.270000      0.0000000E+00
  -2.260000      0.0000000E+00
  -2.250000      0.0000000E+00
  -2.240000      0.0000000E+00
  -2.230000      0.0000000E+00
  -2.220000      0.0000000E+00
  -2.210000      0.0000000E+00
  -2.200000      0.0000000E+00
  -2.190000      0.0000000E+00
  -2.180000      0.0000000E+00
  -2.170000      0.0000000E+00
  -2.160000      0.0000000E+00
  -2.150000      0.0000000E+00
  -2.140000      0.0000000E+00
  -2.130000      0.0000000E+00
  -2.120000      0.0000000E+00
  -2.110000      0.0000000E+00
  -2.100000      0.0000000E+00
  -2.090000      0.0000000E+00
  -2.080000      0.0000000E+00
  -2.070000      0.0000000E+00
  -2.060000      0.0000000E+00
  -2.050000      0.0000000E+00
  -2.040000      0.0000000E+00
  -2.030000      0.0000000E+00
  -2.020000      0.0000000E+00
  -2.010000      0.0000000E+00
  -2.000000      0.0000000E+00
  -1.990000      0.0000000E+00
  -1.980000      0.0000000E+00
  -1.970000      0.0000000E+00
  -1.960000      0.0000000E+00
  -1.950000      0.0000000E+00
  -1.940000      0.0000000E+00
  -1.930000      0.0000000E+00
  -1.920000      0.0000000E+00
  -1.910000      0.0000000E+00
  -1.900000      0.0000000E+00
  -1.890000      0.0000000E+00
  -1.880000      0.0000000E+00
  -1.870000      0.0000000E+00
  -1.860000      0.0000000E+00
  -1.850000      0.0000000E+00
  -1.840000      0.0000000E+00
  -1.830000      0.0000000E+00
  -1.820000      0.0000000E+00
  -1.810000      0.0000000E+00
  -1.800000      0.0000000E+00
  -1.790000      0.0000000E+00
  -1.780000      0.0000000E+00
  -1.770000      0.0000000E+00
  -1.760000      0.0000000E+00
  -1.750000      0.0000000E+00
  -1.740000      0.0000000E+00
  -1.730000      0.0000000E+00
  -1.720000      0.0000000E+00
  -1.710000      0.0000000E+00
  -1.700000      0.0000000E+00
  -1.690000      0.0000000E+00
  -1.680000      0.0000000E+00
  -1.670000      0.0000000E+00
  -1.660000      0.0000000E+00
  -1.650000      0.0000000E+00
  -1.640000      0.0000000E+00
  -1.630000      0.0000000E+00
  -1.620000      0.0000000E+00
  -1.610000      0.0000000E+00
  -1.600000      0.0000000E+00
  -1.590000      0.0000000E+00
  -1.580000      0.0000000E+00
  -1.570000      0.0000000E+00
  -1.560000      0.0000000E+00
  -1.550000      0.0000000E+00
  -1.540000      0.0000000E+00
  -1.530000      0.0000000E+00
  -1.520000      0.0000000E+00
  -1.510000      0.0000000E+00
  -1.500000      0.0000000E+00
  -1.490000      0.0000000E+00
  -1.480000      0.0000000E+00
  -1.470000      0.0000000E+00
  -1.460000      0.0000000E+00
  -1.450000      0.0000000E+00
  -1.440000      0.0000000E+00
  -1.430000      0.0000000E+00
  -1.420000      0.0000000E+00
  -1.410000      0.0000000E+00
  -1.400000      0.0000000E+00
  -1.390000      0.0000000E+00
  -1.380000      0.0000000E+00
  -1.370000      0.0000000E+00
  -1.360000      0.0000000E+00
  -1.350000      0.0000000E+00
  -1.340000      0.0000000E+00
  -1.330000      0.0000000E+00
  -1.320000      0.0000000E+00
  -1.310000      0.0000000E+00
  -1.300000      0.0000000E+00
  -1.290000      0.0000000E+00
  -1.280000      0.0000000E+00
  -1.270000      0.0000000E+00
  -1.260000      0.0000000E+00
  -1.250000      0.0000000E+00
  -1.240000      0.0000000E+00
  -1.230000      0.0000000E+00
  -1.220000      0.0000000E+00
  -1.210000      0.0000000E+00
  -1.200000      0.0000000E+00
  -1.190000      0.0000000E+00
  -1.180000      0.0000000E+00
  -1.170000      0.0000000E+00
  -1.160000      0.0000000E+00
  -1.150000      0.0000000E+00
  -1.140000      0.0000000E+00
  -1.130000      0.0000000E+00
  -1.120000      0.0000000E+00
  -1.110000      0.0000000E+00
  -1.100000      0.0000000E+00
  -1.090000      0.0000000E+00
  -1.080000      0.0000000E+00
  -1.070000      0.0000000E+00
  -1.060000      0.0000000E+00
  -1.050000      0.0000000E+00
  -1.040000      0.0000000E+00
  -1.030000      0.0000000E+00
  -1.020000      0.0000000E+00
  -1.010000      0.0000000E+00
  -1.000000      0.0000000E+00
 -0.9900000      0.0000000E+00
 -0.9800000      0.0000000E+00
 -0.9700000     -1.3678577E-38
 -0.9600000     -1.7249858E-38
 -0.9500000     -2.1561359E-38
 -0.9400000     -2.6823086E-38
 -0.9300000     -3.2995548E-38
 -0.9200000     -4.0437407E-38
 -0.9100000     -4.9365693E-38
 -0.9000000     -5.9709810E-38
 -0.8900000     -7.1743096E-38
 -0.8800000     -8.6524928E-38
 -0.8700000     -1.0443274E-37
 -0.8600000     -1.2612767E-37
 -0.8500000     -1.5253007E-37
 -0.8400000     -1.8153661E-37
 -0.8300000     -2.1249938E-37
 -0.8200000     -2.4570751E-37
 -0.8100000     -2.8212981E-37
 -0.8000000     -3.2264655E-37
 -0.7900000     -3.6861102E-37
 -0.7800000     -4.1956975E-37
 -0.7700000     -4.7538721E-37
 -0.7600000     -5.4150016E-37
 -0.7500000     -6.1592058E-37
 -0.7400000     -6.9578612E-37
 -0.7300000     -7.6456934E-37
 -0.7200000     -8.2003547E-37
 -0.7100000     -8.7962809E-37
 -0.7000000     -9.2733834E-37
 -0.6900000     -9.5867370E-37
 -0.6800000     -9.9036924E-37
 -0.6700000     -1.0010391E-36
 -0.6600000     -9.8599683E-37
 -0.6500000     -9.7076281E-37
 -0.6400000     -9.8286429E-37
 -0.6300000     -1.0084170E-36
 -0.6200000     -1.0059486E-36
 -0.6100000     -9.6680590E-37
 -0.6000000     -8.9131300E-37
 -0.5900000     -7.7180273E-37
 -0.5800000     -6.0271636E-37
 -0.5700000     -3.9436229E-37
 -0.5600000     -1.7711312E-37
 -0.5500000      3.8889746E-38
 -0.5400000      2.8611611E-37
 -0.5300000      5.7893361E-37
 -0.5200000      9.2089837E-37
 -0.5100000      1.3167111E-36
 -0.5000000      1.7728805E-36
 -0.4900000      2.3010282E-36
 -0.4800000      3.0151839E-36
 -0.4700000      3.9171459E-36
 -0.4600000      4.9171494E-36
 -0.4500000      6.0294860E-36
 -0.4400000      7.2547617E-36
 -0.4300000      8.6032626E-36
 -0.4200000      1.0024080E-35
 -0.4100000      1.1572017E-35
 -0.4000000      1.3089117E-35
 -0.3900000      1.4507423E-35
 -0.3800000      1.6006304E-35
 -0.3700000      1.7597354E-35
 -0.3600000      1.9528164E-35
 -0.3500000      2.1754255E-35
 -0.3400000      2.4469172E-35
 -0.3300000      2.7703406E-35
 -0.3200000      3.1216495E-35
 -0.3100000      3.5047232E-35
 -0.3000000      3.9025095E-35
 -0.2900000      4.3280893E-35
 -0.2800000      4.7835179E-35
 -0.2700000      5.1723869E-35
 -0.2600000      5.4987181E-35
 -0.2500000      5.8404707E-35
 -0.2400000      6.1818961E-35
 -0.2300000      6.5210268E-35
 -0.2200000      6.8712742E-35
 -0.2100000      7.2406509E-35
 -0.2000000      7.6115831E-35
 -0.1900000      7.9620256E-35
 -0.1800000      8.3363643E-35
 -0.1700000      8.7434257E-35
 -0.1600000      9.1405936E-35
 -0.1500000      9.5469737E-35
 -0.1400000      1.0056680E-34
 -0.1300000      1.0689535E-34
 -0.1200000      1.1395862E-34
 -0.1100000      1.2209249E-34
 -0.1000000      1.3122832E-34
 -9.0000004E-02  1.4124124E-34
 -7.9999998E-02  1.5231787E-34
 -7.0000000E-02  1.6388568E-34
 -5.9999999E-02  1.7583615E-34
 -5.0000001E-02  1.8845741E-34
 -3.9999999E-02  2.0163062E-34
 -2.9999999E-02  2.1532138E-34
 -2.0000000E-02  2.2954358E-34
 -9.9999998E-03  2.4420183E-34
 -3.4694470E-17  2.5945927E-34
  9.9999998E-03  2.7528275E-34
  2.0000000E-02  2.9117693E-34
  2.9999999E-02  3.0708197E-34
  3.9999999E-02  3.2268183E-34
  5.0000001E-02  3.3786421E-34
  5.9999999E-02  3.5268851E-34
  7.0000000E-02  3.6770074E-34
  7.9999998E-02  3.8314090E-34
  9.0000004E-02  3.9680336E-34
  0.1000000      4.0947244E-34
  0.1100000      4.2354191E-34
  0.1200000      4.3896527E-34
  0.1300000      4.5649097E-34
  0.1400000      4.7502236E-34
  0.1500000      4.9458360E-34
  0.1600000      5.1705703E-34
  0.1700000      5.4243334E-34
  0.1800000      5.7216044E-34
  0.1900000      6.1089638E-34
  0.2000000      6.6075704E-34
  0.2100000      7.1648351E-34
  0.2200000      7.7584097E-34
  0.2300000      8.3912765E-34
  0.2400000      9.0394790E-34
  0.2500000      9.6691316E-34
  0.2600000      1.0290840E-33
  0.2700000      1.0926046E-33
  0.2800000      1.1544933E-33
  0.2900000      1.2134484E-33
  0.3000000      1.2672242E-33
  0.3100000      1.3149775E-33
  0.3200000      1.3575178E-33
  0.3300000      1.3942045E-33
  0.3400000      1.4247163E-33
  0.3500000      1.4499121E-33
  0.3600000      1.4706379E-33
  0.3700000      1.4905708E-33
  0.3800000      1.5111736E-33
  0.3900000      1.5298146E-33
  0.4000000      1.5477343E-33
  0.4100000      1.5672324E-33
  0.4200000      1.5859436E-33
  0.4300000      1.6022910E-33
  0.4400000      1.6177693E-33
  0.4500000      1.6285486E-33
  0.4600000      1.6338971E-33
  0.4700000      1.6333878E-33
  0.4800000      1.6232484E-33
  0.4900000      1.6003318E-33
  0.5000000      1.5591687E-33
  0.5100000      1.4975004E-33
  0.5200000      1.4099401E-33
  0.5300000      1.2870143E-33
  0.5400000      1.1218102E-33
  0.5500000      9.0738815E-34
  0.5600000      6.3741695E-34
  0.5700000      3.0634751E-34
  0.5800000     -9.0713295E-35
  0.5900000     -5.5746396E-34
  0.6000000     -1.0964084E-33
  0.6100000     -1.7085629E-33
  0.6200000     -2.3932312E-33
  0.6300000     -3.1486498E-33
  0.6400000     -3.9720017E-33
  0.6500000     -4.8598878E-33
  0.6600000     -5.8085713E-33
  0.6700000     -6.8143768E-33
  0.6800000     -7.8748056E-33
  0.6900000     -8.9877159E-33
  0.7000000     -1.0157104E-32
  0.7100000     -1.1387288E-32
  0.7200000     -1.2682576E-32
  0.7300000     -1.4054177E-32
  0.7400000     -1.5515764E-32
  0.7500000     -1.7084276E-32
  0.7600000     -1.8779546E-32
  0.7700000     -2.0623572E-32
  0.7800000     -2.2640159E-32
  0.7900000     -2.4853841E-32
  0.8000000     -2.7288326E-32
  0.8100000     -2.9965473E-32
  0.8200000     -3.2904079E-32
  0.8300000     -3.6118586E-32
  0.8400000     -3.9618100E-32
  0.8500000     -4.3405132E-32
  0.8600000     -4.7476374E-32
  0.8700000     -5.1821721E-32
  0.8800000     -5.6424129E-32
  0.8900000     -6.1261517E-32
  0.9000000     -6.6307121E-32
  0.9100000     -7.1531582E-32
  0.9200000     -7.6905049E-32
  0.9300000     -8.2399421E-32
  0.9400000     -8.7991036E-32
  0.9500000     -9.3664101E-32
  0.9600000     -9.9407020E-32
  0.9700000     -1.0522302E-31
  0.9800000     -1.1113102E-31
  0.9900000     -1.1715863E-31
   1.000000     -1.2334857E-31
   1.010000     -1.2975573E-31
   1.020000     -1.3644525E-31
   1.030000     -1.4349020E-31
   1.040000     -1.5096762E-31
   1.050000     -1.5895406E-31
   1.060000     -1.6752076E-31
   1.070000     -1.7672871E-31
   1.080000     -1.8662367E-31
   1.090000     -1.9723168E-31
   1.100000     -2.0855520E-31
   1.110000     -2.2057061E-31
   1.120000     -2.3322788E-31
   1.130000     -2.4645043E-31
   1.140000     -2.6013713E-31
   1.150000     -2.7416739E-31
   1.160000     -2.8840688E-31
   1.170000     -3.0271530E-31
   1.180000     -3.1695531E-31
   1.190000     -3.3100231E-31
   1.200000     -3.4475437E-31
   1.210000     -3.5814191E-31
   1.220000     -3.7113620E-31
   1.230000     -3.8375626E-31
   1.240000     -3.9607337E-31
   1.250000     -4.0821190E-31
   1.260000     -4.2034785E-31
   1.270000     -4.3270384E-31
   1.280000     -4.4553907E-31
   1.290000     -4.5913718E-31
   1.300000     -4.7379080E-31
   1.310000     -4.8978369E-31
   1.320000     -5.0737148E-31
   1.330000     -5.2676262E-31
   1.340000     -5.4810010E-31
   1.350000     -5.7144636E-31
   1.360000     -5.9676905E-31
   1.370000     -6.2393515E-31
   1.380000     -6.5271101E-31
   1.390000     -6.8276530E-31
   1.400000     -7.1368193E-31
   1.410000     -7.4497876E-31
   1.420000     -7.7613308E-31
   1.430000     -8.0661172E-31
   1.440000     -8.3590541E-31
   1.450000     -8.6356545E-31
   1.460000     -8.8923872E-31
   1.470000     -9.1270140E-31
   1.480000     -9.3388644E-31
   1.490000     -9.5290396E-31
   1.500000     -9.7005142E-31
   1.510000     -9.8581244E-31
   1.520000     -1.0008428E-30
   1.530000     -1.0159429E-30
   1.540000     -1.0320185E-30
   1.550000     -1.0500283E-30
   1.560000     -1.0709235E-30
   1.570000     -1.0955799E-30
   1.580000     -1.1247281E-30
   1.590000     -1.1588852E-30
   1.600000     -1.1982913E-30
   1.610000     -1.2428600E-30
   1.620000     -1.2921403E-30
   1.630000     -1.3453007E-30
   1.640000     -1.4011336E-30
   1.650000     -1.4580840E-30
   1.660000     -1.5143035E-30
   1.670000     -1.5677258E-30
   1.680000     -1.6161646E-30
   1.690000     -1.6574258E-30
   1.700000     -1.6894314E-30
   1.710000     -1.7103443E-30
   1.720000     -1.7186905E-30
   1.730000     -1.7134655E-30
   1.740000     -1.6942203E-30
   1.750000     -1.6611148E-30
   1.760000     -1.6149372E-30
   1.770000     -1.5570804E-30
   1.780000     -1.4894729E-30
   1.790000     -1.4144678E-30
   1.800000     -1.3346865E-30
   1.810000     -1.2528292E-30
   1.820000     -1.1714592E-30
   1.830000     -1.0927686E-30
   1.840000     -1.0183448E-30
   1.850000     -9.4894857E-31
   1.860000     -8.8432177E-31
   1.870000     -8.2303732E-31
   1.880000     -7.6241209E-31
   1.890000     -6.9848410E-31
   1.900000     -6.2606965E-31
   1.910000     -5.3890407E-31
   1.920000     -4.2985807E-31
   1.930000     -2.9123166E-31
   1.940000     -1.1511004E-31
   1.950000      1.0623712E-31
   1.960000      3.7993334E-31
   1.970000      7.1207249E-31
   1.980000      1.1073269E-30
   1.990000      1.5686135E-30
   2.000000      2.0968414E-30
   2.010000      2.6907737E-30
   2.020000      3.3470135E-30
   2.030000      4.0601248E-30
   2.040000      4.8229093E-30
   2.050000      5.6268195E-30
   2.060000      6.4624970E-30
   2.070000      7.3204138E-30
   2.080000      8.1915864E-30
   2.090000      9.0683224E-30
   2.100000      9.9449463E-30
   2.110000      1.0818460E-29
   2.120000      1.1689090E-29
   2.130000      1.2560680E-29
   2.140000      1.3440863E-29
   2.150000      1.4341018E-29
   2.160000      1.5275954E-29
   2.170000      1.6263362E-29
   2.180000      1.7322983E-29
   2.190000      1.8475586E-29
   2.200000      1.9741760E-29
   2.210000      2.1140599E-29
   2.220000      2.2688344E-29
   2.230000      2.4397062E-29
   2.240000      2.6273476E-29
   2.250000      2.8317995E-29
   2.260000      3.0524046E-29
   2.270000      3.2877779E-29
   2.280000      3.5358193E-29
   2.290000      3.7937687E-29
   2.300000      4.0583093E-29
   2.310000      4.3257100E-29
   2.320000      4.5920065E-29
   2.330000      4.8532114E-29
   2.340000      5.1055374E-29
   2.350000      5.3456262E-29
   2.360000      5.5707704E-29
   2.370000      5.7791031E-29
   2.380000      5.9697509E-29
   2.390000      6.1429281E-29
   2.400000      6.2999720E-29
   2.410000      6.4432985E-29
   2.420000      6.5762792E-29
   2.430000      6.7030451E-29
   2.440000      6.8282209E-29
   2.450000      6.9565920E-29
   2.460000      7.0927311E-29
   2.470000      7.2405974E-29
   2.480000      7.4031417E-29
   2.490000      7.5819252E-29
   2.500000      7.7767968E-29
   2.510000      7.9856440E-29
   2.520000      8.2042419E-29
   2.530000      8.4262198E-29
   2.540000      8.6431517E-29
   2.550000      8.8447923E-29
   2.560000      9.0194375E-29
   2.570000      9.1544048E-29
   2.580000      9.2366168E-29
   2.590000      9.2532526E-29
   2.600000      9.1924420E-29
   2.610000      9.0439491E-29
   2.620000      8.7998068E-29
   2.630000      8.4548619E-29
   2.640000      8.0071892E-29
   2.650000      7.4583202E-29
   2.660000      6.8132871E-29
   2.670000      6.0804347E-29
   2.680000      5.2710030E-29
   2.690000      4.3985068E-29
   2.700000      3.4779087E-29
   2.710000      2.5246327E-29
   2.720000      1.5534759E-29
   2.730000      5.7746711E-30
   2.740000     -3.9324713E-30
   2.750000     -1.3524139E-29
   2.760000     -2.2985193E-29
   2.770000     -3.2353911E-29
   2.780000     -4.1724926E-29
   2.790000     -5.1248725E-29
   2.800000     -6.1127343E-29
   2.810000     -7.1606214E-29
   2.820000     -8.2962412E-29
   2.830000     -9.5489695E-29
   2.840000     -1.0948096E-28
   2.850000     -1.2520898E-28
   2.860000     -1.4290659E-28
   2.870000     -1.6274740E-28
   2.880000     -1.8482834E-28
   2.890000     -2.0915539E-28
   2.900000     -2.3563346E-28
   2.910000     -2.6406122E-28
   2.920000     -2.9413219E-28
   2.930000     -3.2544200E-28
   2.940000     -3.5750161E-28
   2.950000     -3.8975699E-28
   2.960000     -4.2161365E-28
   2.970000     -4.5246541E-28
   2.980000     -4.8172525E-28
   2.990000     -5.0885737E-28
   3.000000     -5.3340715E-28
   3.010000     -5.5502874E-28
   3.020000     -5.7350650E-28
   3.030000     -5.8876925E-28
   3.040000     -6.0089626E-28
   3.050000     -6.1011270E-28
   3.060000     -6.1677521E-28
   3.070000     -6.2134694E-28
   3.080000     -6.2436318E-28
   3.090000     -6.2638859E-28
   3.100000     -6.2796838E-28
   3.110000     -6.2957571E-28
   3.120000     -6.3155904E-28
   3.130000     -6.3409207E-28
   3.140000     -6.3712940E-28
   3.150000     -6.4037253E-28
   3.160000     -6.4324731E-28
   3.170000     -6.4489721E-28
   3.180000     -6.4419193E-28
   3.190000     -6.3975382E-28
   3.200000     -6.3000130E-28
   3.210000     -6.1320757E-28
   3.220000     -5.8757210E-28
   3.230000     -5.5130188E-28
   3.240000     -5.0269863E-28
   3.250000     -4.4024524E-28
   3.260000     -3.6268694E-28
   3.270000     -2.6910369E-28
   3.280000     -1.5896395E-28
   3.290000     -3.2160003E-29
   3.300000      1.1098135E-28
   3.310000      2.6971505E-28
   3.320000      4.4292161E-28
   3.330000      6.2917782E-28
   3.340000      8.2685026E-28
   3.350000      1.0342111E-27
   3.360000      1.2495660E-27
   3.370000      1.4713895E-27
   3.380000      1.6984603E-27
   3.390000      1.9299842E-27
   3.400000      2.1657007E-27
   3.410000      2.4059603E-27
   3.420000      2.6517677E-27
   3.430000      2.9047871E-27
   3.440000      3.1673012E-27
   3.450000      3.4421260E-27
   3.460000      3.7324854E-27
   3.470000      4.0418425E-27
   3.480000      4.3737037E-27
   3.490000      4.7313994E-27
   3.500000      5.1178545E-27
   3.510000      5.5353642E-27
   3.520000      5.9853854E-27
   3.530000      6.4683621E-27
   3.540000      6.9835922E-27
   3.550000      7.5291535E-27
   3.560000      8.1018904E-27
   3.570000      8.6974773E-27
   3.580000      9.3105385E-27
   3.590000      9.9348526E-27
   3.600000      1.0563605E-26
   3.610000      1.1189691E-26
   3.620000      1.1806051E-26
   3.630000      1.2406014E-26
   3.640000      1.2983638E-26
   3.650000      1.3534020E-26
   3.660000      1.4053542E-26
   3.670000      1.4540056E-26
   3.680000      1.4992975E-26
   3.690000      1.5413254E-26
   3.700000      1.5803269E-26
   3.710000      1.6166586E-26
   3.720000      1.6507609E-26
   3.730000      1.6831166E-26
   3.740000      1.7141992E-26
   3.750000      1.7444191E-26
   3.760000      1.7740668E-26
   3.770000      1.8032593E-26
   3.780000      1.8318897E-26
   3.790000      1.8595894E-26
   3.800000      1.8856985E-26
   3.810000      1.9092534E-26
   3.820000      1.9289894E-26
   3.830000      1.9433618E-26
   3.840000      1.9505834E-26
   3.850000      1.9486806E-26
   3.860000      1.9355602E-26
   3.870000      1.9090907E-26
   3.880000      1.8671872E-26
   3.890000      1.8079002E-26
   3.900000      1.7295003E-26
   3.910000      1.6305541E-26
   3.920000      1.5099856E-26
   3.930000      1.3671184E-26
   3.940000      1.2016962E-26
   3.950000      1.0138771E-26
   3.960000      8.0419940E-27
   3.970000      5.7352279E-27
   3.980000      3.2294513E-27
   3.990000      5.3696371E-28
   4.000000     -2.3298238E-27
   4.010000     -5.3596858E-27
   4.020000     -8.5438928E-27
   4.030000     -1.1877472E-26
   4.040000     -1.5360285E-26
   4.050000     -1.8997878E-26
   4.060000     -2.2802052E-26
   4.070000     -2.6791041E-26
   4.080000     -3.0989288E-26
   4.090000     -3.5426806E-26
   4.100000     -4.0138109E-26
   4.110000     -4.5160768E-26
   4.120000     -5.0533668E-26
   4.130000     -5.6295000E-26
   4.140000     -6.2480119E-26
   4.150000     -6.9119401E-26
   4.160000     -7.6236214E-26
   4.170000     -8.3845117E-26
   4.180000     -9.1950465E-26
   4.190000     -1.0054543E-25
   4.200000     -1.0961161E-25
   4.210000     -1.1911930E-25
   4.220000     -1.2902838E-25
   4.230000     -1.3928977E-25
   4.240000     -1.4984754E-25
   4.250000     -1.6064145E-25
   4.260000     -1.7160982E-25
   4.270000     -1.8269265E-25
   4.280000     -1.9383464E-25
   4.290000     -2.0498803E-25
   4.300000     -2.1611517E-25
   4.310000     -2.2719029E-25
   4.320000     -2.3820067E-25
   4.330000     -2.4914688E-25
   4.340000     -2.6004218E-25
   4.350000     -2.7091074E-25
   4.360000     -2.8178508E-25
   4.370000     -2.9270255E-25
   4.380000     -3.0370122E-25
   4.390000     -3.1481516E-25
   4.400000     -3.2606962E-25
   4.410000     -3.3747600E-25
   4.420000     -3.4902761E-25
   4.430000     -3.6069546E-25
   4.440000     -3.7242550E-25
   4.450000     -3.8413673E-25
   4.460000     -3.9572083E-25
   4.470000     -4.0704306E-25
   4.480000     -4.1794477E-25
   4.490000     -4.2824734E-25
   4.500000     -4.3775745E-25
   4.510000     -4.4627331E-25
   4.520000     -4.5359142E-25
   4.530000     -4.5951419E-25
   4.540000     -4.6385716E-25
   4.550000     -4.6645538E-25
   4.560000     -4.6716934E-25
   4.570000     -4.6588937E-25
   4.580000     -4.6253809E-25
   4.590000     -4.5707099E-25
   4.600000     -4.4947470E-25
   4.610000     -4.3976338E-25
   4.620000     -4.2797262E-25
   4.630000     -4.1415183E-25
   4.640000     -3.9835476E-25
   4.650000     -3.8062945E-25
   4.660000     -3.6100750E-25
   4.670000     -3.3949359E-25
   4.680000     -3.1605606E-25
   4.690000     -2.9061897E-25
   4.700000     -2.6305637E-25
   4.710000     -2.3318931E-25
   4.720000     -2.0078593E-25
   4.730000     -1.6556480E-25
   4.740000     -1.2720169E-25
   4.750000     -8.5339453E-26
   4.760000     -3.9600700E-26
   4.770000      1.0397281E-26
   4.780000      6.5026230E-26
   4.790000      1.2462984E-25
   4.800000      1.8950730E-25
   4.810000      2.5989814E-25
   4.820000      3.3596928E-25
   4.830000      4.1780554E-25
   4.840000      5.0540420E-25
   4.850000      5.9867389E-25
   4.860000      6.9743878E-25
   4.870000      8.0144664E-25
   4.880000      9.1038286E-25
   4.890000      1.0238874E-24
   4.900000      1.1415756E-24
   4.910000      1.2630599E-24
   4.920000      1.3879734E-24
   4.930000      1.5159926E-24
   4.940000      1.6468563E-24
   4.950000      1.7803833E-24
   4.960000      1.9164827E-24
   4.970000      2.0551607E-24
   4.980000      2.1965177E-24
   4.990000      2.3407400E-24
   5.000000      2.4880852E-24
   5.010000      2.6388573E-24
   5.020000      2.7933801E-24
   5.030000      2.9519641E-24
   5.040000      3.1148703E-24
   5.050000      3.2822739E-24
   5.060000      3.4542290E-24
   5.070000      3.6306373E-24
   5.080000      3.8112209E-24
   5.090000      3.9955055E-24
   5.100000      4.1828087E-24
   5.110000      4.3722411E-24
   5.120000      4.5627186E-24
   5.130000      4.7529824E-24
   5.140000      4.9416306E-24
   5.150000      5.1271592E-24
   5.160000      5.3080080E-24
   5.170000      5.4826117E-24
   5.180000      5.6494487E-24
   5.190000      5.8070935E-24
   5.200000      5.9542598E-24
   5.210000      6.0898374E-24
   5.220000      6.2129147E-24
   5.230000      6.3227935E-24
   5.240000      6.4189864E-24
   5.250000      6.5011980E-24
   5.260000      6.5692913E-24
   5.270000      6.6232422E-24
   5.280000      6.6630797E-24
   5.290000      6.6888195E-24
   5.300000      6.7003897E-24
   5.310000      6.6975616E-24
   5.320000      6.6798722E-24
   5.330000      6.6465712E-24
   5.340000      6.5965641E-24
   5.350000      6.5283861E-24
   5.360000      6.4401847E-24
   5.370000      6.3297308E-24
   5.380000      6.1944482E-24
   5.390000      6.0314688E-24
   5.400000      5.8377060E-24
   5.410000      5.6099469E-24
   5.420000      5.3449555E-24
   5.430000      5.0395850E-24
   5.440000      4.6908912E-24
   5.450000      4.2962402E-24
   5.460000      3.8534049E-24
   5.470000      3.3606441E-24
   5.480000      2.8167557E-24
   5.490000      2.2211069E-24
   5.500000      1.5736264E-24
   5.510000      8.7477170E-25
   5.520000      1.2545918E-25
   5.530000     -6.7302945E-25
   5.540000     -1.5191659E-24
   5.550000     -2.4113141E-24
   5.560000     -3.3478736E-24
   5.570000     -4.3274294E-24
   5.580000     -5.3488915E-24
   5.590000     -6.4116118E-24
   5.600000     -7.5154802E-24
   5.610000     -8.6609820E-24
   5.620000     -9.8492163E-24
   5.630000     -1.1081868E-23
   5.640000     -1.2361131E-23
   5.650000     -1.3689594E-23
   5.660000     -1.5070080E-23
   5.670000     -1.6505452E-23
   5.680000     -1.7998393E-23
   5.690000     -1.9551179E-23
   5.700000     -2.1165443E-23
   5.710000     -2.2841953E-23
   5.720000     -2.4580428E-23
   5.730000     -2.6379376E-23
   5.740000     -2.8235998E-23
   5.750000     -3.0146133E-23
   5.760000     -3.2104285E-23
   5.770000     -3.4103700E-23
   5.780000     -3.6136535E-23
   5.790000     -3.8194042E-23
   5.800000     -4.0266834E-23
   5.810000     -4.2345170E-23
   5.820000     -4.4419268E-23
   5.830000     -4.6479609E-23
   5.840000     -4.8517230E-23
   5.850000     -5.0523972E-23
   5.860000     -5.2492673E-23
   5.870000     -5.4417298E-23
   5.880000     -5.6292975E-23
   5.890000     -5.8115957E-23
   5.900000     -5.9883460E-23
   5.910000     -6.1593452E-23
   5.920000     -6.3244336E-23
   5.930000     -6.4834578E-23
   5.940000     -6.6362299E-23
   5.950000     -6.7824797E-23
   5.960000     -6.9218152E-23
   5.970000     -7.0536780E-23
   5.980000     -7.1773108E-23
   5.990000     -7.2917291E-23
   6.000000     -7.3957067E-23
   6.010000     -7.4877661E-23
   6.020000     -7.5661940E-23
   6.030000     -7.6290593E-23
   6.040000     -7.6742471E-23
   6.050000     -7.6995077E-23
   6.060000     -7.7025092E-23
   6.070000     -7.6809013E-23
   6.080000     -7.6323807E-23
   6.090000     -7.5547537E-23
   6.100000     -7.4460007E-23
   6.110000     -7.3043288E-23
   6.120000     -7.1282109E-23
   6.130000     -6.9164162E-23
   6.140000     -6.6680197E-23
   6.150000     -6.3823965E-23
   6.160000     -6.0591958E-23
   6.170000     -5.6982983E-23
   6.180000     -5.2997594E-23
   6.190000     -4.8637386E-23
   6.200000     -4.3904218E-23
   6.210000     -3.8799376E-23
   6.220000     -3.3322756E-23
   6.230000     -2.7472125E-23
   6.240000     -2.1242486E-23
   6.250000     -1.4625603E-23
   6.260000     -7.6097396E-24
   6.270000     -1.7965992E-25
   6.280000      7.6831613E-24
   6.290000      1.6000016E-23
   6.300000      2.4794269E-23
   6.310000      3.4090403E-23
   6.320000      4.3912838E-23
   6.330000      5.4284725E-23
   6.340000      6.5226629E-23
   6.350000      7.6755245E-23
   6.360000      8.8882151E-23
   6.370000      1.0161284E-22
   6.380000      1.1494587E-22
   6.390000      1.2887238E-22
   6.400000      1.4337584E-22
   6.410000      1.5843222E-22
   6.420000      1.7401060E-22
   6.430000      1.9007388E-22
   6.440000      2.0658007E-22
   6.450000      2.2348354E-22
   6.460000      2.4073670E-22
   6.470000      2.5829154E-22
   6.480000      2.7610127E-22
   6.490000      2.9412180E-22
   6.500000      3.1231294E-22
   6.510000      3.3063932E-22
   6.520000      3.4907105E-22
   6.530000      3.6758353E-22
   6.540000      3.8615731E-22
   6.550000      4.0477705E-22
   6.560000      4.2343017E-22
   6.570000      4.4210512E-22
   6.580000      4.6078928E-22
   6.590000      4.7946678E-22
   6.600000      4.9811591E-22
   6.610000      5.1670702E-22
   6.620000      5.3520019E-22
   6.630000      5.5354367E-22
   6.640000      5.7167233E-22
   6.650000      5.8950705E-22
   6.660000      6.0695433E-22
   6.670000      6.2390724E-22
   6.680000      6.4024617E-22
   6.690000      6.5584124E-22
   6.700000      6.7055419E-22
   6.710000      6.8424154E-22
   6.720000      6.9675790E-22
   6.730000      7.0795917E-22
   6.740000      7.1770585E-22
   6.750000      7.2586598E-22
   6.760000      7.3231778E-22
   6.770000      7.3695169E-22
   6.780000      7.3967148E-22
   6.790000      7.4039465E-22
   6.800000      7.3905200E-22
   6.810000      7.3558606E-22
   6.820000      7.2994882E-22
   6.830000      7.2209879E-22
   6.840000      7.1199738E-22
   6.850000      6.9960471E-22
   6.860000      6.8487576E-22
   6.870000      6.6775624E-22
   6.880000      6.4817901E-22
   6.890000      6.2606097E-22
   6.900000      6.0130103E-22
   6.910000      5.7377925E-22
   6.920000      5.4335669E-22
   6.930000      5.0987718E-22
   6.940000      4.7316963E-22
   6.950000      4.3305227E-22
   6.960000      3.8933764E-22
   6.970000      3.4183789E-22
   6.980000      2.9037139E-22
   6.990000      2.3476932E-22
   7.000000      1.7488198E-22
   7.010000      1.1058426E-22
   7.020000      4.1781207E-23
   7.030000     -3.1588613E-23
   7.040000     -1.0955055E-22
   7.050000     -1.9209286E-22
   7.060000     -2.7916775E-22