  -2.600000      0.0000000E+00
  -2.590000      0.0000000E+00
  -2.580000      0.0000000E+00
  -2.570000      0.0000000E+00
  -2.560000      0.0000000E+00
  -2.550000      0.0000000E+00
  -2.540000      0.0000000E+00
  -2.530000      0.0000000E+00
  -2.520000      0.0000000E+00
  -2.510000      0.0000000E+00
  -2.500000      0.0000000E+00
  -2.490000      0.0000000E+00
  -2.480000      0.0000000E+00
  -2.470000      0.0000000E+00
  -2.460000      0.0000000E+00
  -2.450000      0.0000000E+00
  -2.440000      0.0000000E+00
  -2.430000      0.0000000E+00
  -2.420000      0.0000000E+00
  -2.410000      0.0000000E+00
  -2.400000      0.0000000E+00
  -2.390000      0.0000000E+00
  -2.380000      0.0000000E+00
  -2.370000      0.0000000E+00
  -2.360000      0.0000000E+00
  -2.350000      0.0000000E+00
  -2.340000      0.0000000E+00
  -2.330000      0.0000000E+00
  -2.320000      0.0000000E+00
  -2.310000      0.0000000E+00
  -2.300000      0.0000000E+00
  -2.290000      0.0000000E+00
  -2.280000      0.0000000E+00
  -2.270000      0.0000000E+00
  -2.260000      0.0000000E+00
  -2.250000      0.0000000E+00
  -2.240000      0.0000000E+00
  -2.230000      0.0000000E+00
  -2.220000      0.0000000E+00
  -2.210000      0.0000000E+00
  -2.200000      0.0000000E+00
  -2.190000      0.0000000E+00
  -2.180000      0.0000000E+00
  -2.170000      0.0000000E+00
  -2.160000      0.0000000E+00
  -2.150000      0.0000000E+00
  -2.140000      0.0000000E+00
  -2.130000      0.0000000E+00
  -2.120000      0.0000000E+00
  -2.110000      0.0000000E+00
  -2.100000      0.0000000E+00
  -2.090000      0.0000000E+00
  -2.080000      0.0000000E+00
  -2.070000      0.0000000E+00
  -2.060000      0.0000000E+00
  -2.050000      0.0000000E+00
  -2.040000      0.0000000E+00
  -2.030000      0.0000000E+00
  -2.020000      0.0000000E+00
  -2.010000      0.0000000E+00
  -2.000000      0.0000000E+00
  -1.990000      0.0000000E+00
  -1.980000      0.0000000E+00
  -1.970000      0.0000000E+00
  -1.960000      0.0000000E+00
  -1.950000      0.0000000E+00
  -1.940000      0.0000000E+00
  -1.930000      0.0000000E+00
  -1.920000      0.0000000E+00
  -1.910000      0.0000000E+00
  -1.900000      0.0000000E+00
  -1.890000      0.0000000E+00
  -1.880000      0.0000000E+00
  -1.870000      0.0000000E+00
  -1.860000      0.0000000E+00
  -1.850000      0.0000000E+00
  -1.840000      0.0000000E+00
  -1.830000      0.0000000E+00
  -1.820000      0.0000000E+00
  -1.810000      0.0000000E+00
  -1.800000      0.0000000E+00
  -1.790000      0.0000000E+00
  -1.780000      0.0000000E+00
  -1.770000      0.0000000E+00
  -1.760000      0.0000000E+00
  -1.750000      0.0000000E+00
  -1.740000      0.0000000E+00
  -1.730000      0.0000000E+00
  -1.720000      0.0000000E+00
  -1.710000      0.0000000E+00
  -1.700000      0.0000000E+00
  -1.690000      0.0000000E+00
  -1.680000      0.0000000E+00
  -1.670000      0.0000000E+00
  -1.660000      0.0000000E+00
  -1.650000      0.0000000E+00
  -1.640000      0.0000000E+00
  -1.630000      0.0000000E+00
  -1.620000      0.0000000E+00
  -1.610000      0.0000000E+00
  -1.600000      0.0000000E+00
  -1.590000      0.0000000E+00
  -1.580000      0.0000000E+00
  -1.570000      0.0000000E+00
  -1.560000      0.0000000E+00
  -1.550000      0.0000000E+00
  -1.540000      0.0000000E+00
  -1.530000      0.0000000E+00
  -1.520000      0.0000000E+00
  -1.510000      0.0000000E+00
  -1.500000      0.0000000E+00
  -1.490000      0.0000000E+00
  -1.480000      0.0000000E+00
  -1.470000      0.0000000E+00
  -1.460000      0.0000000E+00
  -1.450000      0.0000000E+00
  -1.440000      0.0000000E+00
  -1.430000      0.0000000E+00
  -1.420000      0.0000000E+00
  -1.410000      0.0000000E+00
  -1.400000      0.0000000E+00
  -1.390000      0.0000000E+00
  -1.380000      0.0000000E+00
  -1.370000      0.0000000E+00
  -1.360000      0.0000000E+00
  -1.350000      0.0000000E+00
  -1.340000      0.0000000E+00
  -1.330000      0.0000000E+00
  -1.320000      0.0000000E+00
  -1.310000      0.0000000E+00
  -1.300000      0.0000000E+00
  -1.290000      0.0000000E+00
  -1.280000      0.0000000E+00
  -1.270000      0.0000000E+00
  -1.260000      0.0000000E+00
  -1.250000      0.0000000E+00
  -1.240000      0.0000000E+00
  -1.230000      0.0000000E+00
  -1.220000      0.0000000E+00
  -1.210000      0.0000000E+00
  -1.200000      0.0000000E+00
  -1.190000      0.0000000E+00
  -1.180000      0.0000000E+00
  -1.170000      0.0000000E+00
  -1.160000      0.0000000E+00
  -1.150000      0.0000000E+00
  -1.140000      0.0000000E+00
  -1.130000      0.0000000E+00
  -1.120000      0.0000000E+00
  -1.110000      0.0000000E+00
  -1.100000      0.0000000E+00
  -1.090000      0.0000000E+00
  -1.080000      0.0000000E+00
  -1.070000      0.0000000E+00
  -1.060000      0.0000000E+00
  -1.050000      0.0000000E+00
  -1.040000      0.0000000E+00
  -1.030000      0.0000000E+00
  -1.020000      0.0000000E+00
  -1.010000      1.2447968E-38
  -1.000000      1.3453401E-38
 -0.9900000      1.4441066E-38
 -0.9800000      1.5393436E-38
 -0.9700000      1.6278839E-38
 -0.9600000      1.7720047E-38
 -0.9500000      1.9888912E-38
 -0.9400000      2.2298456E-38
 -0.9300000      2.4761339E-38
 -0.9200000      2.7055534E-38
 -0.9100000      2.9250536E-38
 -0.9000000      3.1303178E-38
 -0.8900000      3.2972769E-38
 -0.8800000      3.4085778E-38
 -0.8700000      3.3671358E-38
 -0.8600000      3.1174253E-38
 -0.8500000      3.8291865E-38
 -0.8400000      6.5330401E-38
 -0.8300000      1.0430114E-37
 -0.8200000      1.4845526E-37
 -0.8100000      2.0022965E-37
 -0.8000000      2.6306572E-37
 -0.7900000      3.3841179E-37
 -0.7800000      4.2748702E-37
 -0.7700000      4.4918441E-37
 -0.7600000      3.7716910E-37
 -0.7500000      2.8085263E-37
 -0.7400000      1.8153723E-37
 -0.7300000      9.3962875E-38
 -0.7200000      2.2782917E-38
 -0.7100000     -2.1696785E-38
 -0.7000000     -2.4930630E-38
 -0.6900000      1.5978230E-38
 -0.6800000      0.0000000E+00
 -0.6700000     -8.2799273E-38
 -0.6600000     -1.5330946E-37
 -0.6500000     -2.1140706E-37
 -0.6400000     -2.6037805E-37
 -0.6300000     -2.9281600E-37
 -0.6200000     -3.1499104E-37
 -0.6100000     -2.8399836E-37
 -0.6000000     -1.9511404E-37
 -0.5900000     -9.7193579E-38
 -0.5800000      0.0000000E+00
 -0.5700000      1.6841853E-37
 -0.5600000      1.1562994E-37
 -0.5500000     -3.4567674E-37
 -0.5400000     -9.8316374E-37
 -0.5300000     -1.8183409E-36
 -0.5200000     -2.8090914E-36
 -0.5100000     -3.7911106E-36
 -0.5000000     -4.8196513E-36
 -0.4900000     -5.8836082E-36
 -0.4800000     -6.2668923E-36
 -0.4700000     -5.8677566E-36
 -0.4600000     -5.3393175E-36
 -0.4500000     -4.6604853E-36
 -0.4400000     -3.9774692E-36
 -0.4300000     -4.0072401E-36
 -0.4200000     -4.8216950E-36
 -0.4100000     -5.7162990E-36
 -0.4000000     -6.8267566E-36
 -0.3900000     -8.7901134E-36
 -0.3800000     -1.1591576E-35
 -0.3700000     -1.4632904E-35
 -0.3600000     -1.7400610E-35
 -0.3500000     -1.8830163E-35
 -0.3400000     -1.8339183E-35
 -0.3300000     -1.6877946E-35
 -0.3200000     -1.5634325E-35
 -0.3100000     -1.5151669E-35
 -0.3000000     -1.5523966E-35
 -0.2900000     -1.5761461E-35
 -0.2800000     -1.5851259E-35
 -0.2700000     -1.7275789E-35
 -0.2600000     -2.0255284E-35
 -0.2500000     -2.4590191E-35
 -0.2400000     -2.9840665E-35
 -0.2300000     -3.5822456E-35
 -0.2200000     -4.1862545E-35
 -0.2100000     -4.7383715E-35
 -0.2000000     -5.2341130E-35
 -0.1900000     -5.6075064E-35
 -0.1800000     -5.4316816E-35
 -0.1700000     -4.7849115E-35
 -0.1600000     -4.5898012E-35
 -0.1500000     -4.9419539E-35
 -0.1400000     -5.4518550E-35
 -0.1300000     -6.0444178E-35
 -0.1200000     -6.6951894E-35
 -0.1100000     -7.4247133E-35
 -0.1000000     -8.2500200E-35
 -9.0000004E-02 -9.1811481E-35
 -7.9999998E-02 -1.1019727E-34
 -7.0000000E-02 -1.2857369E-34
 -5.9999999E-02 -1.3862107E-34
 -5.0000001E-02 -1.5074801E-34
 -3.9999999E-02 -1.5726198E-34
 -2.9999999E-02 -1.5595528E-34
 -2.0000000E-02 -1.5478277E-34
 -9.9999998E-03 -1.5460838E-34
 -3.4694470E-17 -1.5533583E-34
  9.9999998E-03 -1.7065547E-34
  2.0000000E-02 -1.9178597E-34
  2.9999999E-02 -2.0577511E-34
  3.9999999E-02 -2.1619192E-34
  5.0000001E-02 -2.3498010E-34
  5.9999999E-02 -2.6593227E-34
  7.0000000E-02 -2.9738531E-34
  7.9999998E-02 -3.1808308E-34
  9.0000004E-02 -3.2338867E-34
  0.1000000     -3.2810231E-34
  0.1100000     -3.3644028E-34
  0.1200000     -3.4521076E-34
  0.1300000     -3.5338159E-34
  0.1400000     -3.6829636E-34
  0.1500000     -3.8779044E-34
  0.1600000     -4.0325168E-34
  0.1700000     -4.1499988E-34
  0.1800000     -4.2141560E-34
  0.1900000     -4.1868064E-34
  0.2000000     -4.2025181E-34
  0.2100000     -4.3034880E-34
  0.2200000     -4.3813397E-34
  0.2300000     -4.4763316E-34
  0.2400000     -4.6189577E-34
  0.2500000     -4.7792032E-34
  0.2600000     -4.9137634E-34
  0.2700000     -5.0197429E-34
  0.2800000     -5.0905453E-34
  0.2900000     -5.0186689E-34
  0.3000000     -4.7958530E-34
  0.3100000     -4.4868890E-34
  0.3200000     -4.1033519E-34
  0.3300000     -3.6816550E-34
  0.3400000     -3.2687091E-34
  0.3500000     -2.9408116E-34
  0.3600000     -2.7233373E-34
  0.3700000     -2.6063281E-34
  0.3800000     -2.5854206E-34
  0.3900000     -2.6378777E-34
  0.4000000     -2.7577164E-34
  0.4100000     -2.9007715E-34
  0.4200000     -2.9866768E-34
  0.4300000     -2.9598594E-34
  0.4400000     -2.8106364E-34
  0.4500000     -2.4949675E-34
  0.4600000     -1.9650165E-34
  0.4700000     -1.2415075E-34
  0.4800000     -3.7876916E-35
  0.4900000      5.7573469E-35
  0.5000000      1.6129134E-34
  0.5100000      2.6823126E-34
  0.5200000      3.7626858E-34
  0.5300000      4.8708041E-34
  0.5400000      6.0226251E-34
  0.5500000      7.2440579E-34
  0.5600000      8.5642358E-34
  0.5700000      1.0013209E-33
  0.5800000      1.1585957E-33
  0.5900000      1.3271307E-33
  0.6000000      1.5051142E-33
  0.6100000      1.6881129E-33
  0.6200000      1.8703030E-33
  0.6300000      2.0449987E-33
  0.6400000      2.2054395E-33
  0.6500000      2.3462976E-33
  0.6600000      2.4646010E-33
  0.6700000      2.5605443E-33
  0.6800000      2.6381408E-33
  0.6900000      2.7053545E-33
  0.7000000      2.7742041E-33
  0.7100000      2.8600356E-33
  0.7200000      2.9802665E-33
  0.7300000      3.1530796E-33
  0.7400000      3.3957846E-33
  0.7500000      3.7233269E-33
  0.7600000      4.1471588E-33
  0.7700000      4.6741953E-33
  0.7800000      5.3061135E-33
  0.7900000      6.0393873E-33
  0.8000000      6.8656893E-33
  0.8100000      7.7729116E-33
  0.8200000      8.7463047E-33
  0.8300000      9.7695695E-33
  0.8400000      1.0826633E-32
  0.8500000      1.1903102E-32
  0.8600000      1.2987283E-32
  0.8700000      1.4071573E-32
  0.8800000      1.5153190E-32
  0.8900000      1.6234617E-32
  0.9000000      1.7324214E-32
  0.9100000      1.8436427E-32
  0.9200000      1.9591923E-32
  0.9300000      2.0817729E-32
  0.9400000      2.2146954E-32
  0.9500000      2.3619875E-32
  0.9600000      2.5278659E-32
  0.9700000      2.7170465E-32
  0.9800000      2.9349079E-32
  0.9900000      3.1867963E-32
   1.000000      3.4779863E-32
   1.010000      3.8134327E-32
   1.020000      4.1974893E-32
   1.030000      4.6336353E-32
   1.040000      5.1241156E-32
   1.050000      5.6697925E-32
   1.060000      6.2700639E-32
   1.070000      6.9227413E-32
   1.080000      7.6241876E-32
   1.090000      8.3695415E-32
   1.100000      9.1530549E-32
   1.110000      9.9686458E-32
   1.120000      1.0810494E-31
   1.130000      1.1673645E-31
   1.140000      1.2554732E-31
   1.150000      1.3452588E-31
   1.160000      1.4368780E-31
   1.170000      1.5308016E-31
   1.180000      1.6278361E-31
   1.190000      1.7291229E-31
   1.200000      1.8361010E-31
   1.210000      1.9505089E-31
   1.220000      2.0742823E-31
   1.230000      2.2094321E-31
   1.240000      2.3579979E-31
   1.250000      2.5219225E-31
   1.260000      2.7029240E-31
   1.270000      2.9024006E-31
   1.280000      3.1213426E-31
   1.290000      3.3602428E-31
   1.300000      3.6190396E-31
   1.310000      3.8970939E-31
   1.320000      4.1931924E-31
   1.330000      4.5055923E-31
   1.340000      4.8320995E-31
   1.350000      5.1701848E-31
   1.360000      5.5171334E-31
   1.370000      5.8702119E-31
   1.380000      6.2268682E-31
   1.390000      6.5849360E-31
   1.400000      6.9428345E-31
   1.410000      7.2997546E-31
   1.420000      7.6558132E-31
   1.430000      8.0121657E-31
   1.440000      8.3710620E-31
   1.450000      8.7358320E-31
   1.460000      9.1107978E-31
   1.470000      9.5011071E-31
   1.480000      9.9124972E-31
   1.490000      1.0350981E-30
   1.500000      1.0822484E-30
   1.510000      1.1332446E-30
   1.520000      1.1885404E-30
   1.530000      1.2484593E-30
   1.540000      1.3131596E-30
   1.550000      1.3826054E-30
   1.560000      1.4565476E-30
   1.570000      1.5345179E-30
   1.580000      1.6158355E-30
   1.590000      1.6996290E-30
   1.600000      1.7848719E-30
   1.610000      1.8704331E-30
   1.620000      1.9551379E-30
   1.630000      2.0378381E-30
   1.640000      2.1174866E-30
   1.650000      2.1932118E-30
   1.660000      2.2643879E-30
   1.670000      2.3306957E-30
   1.680000      2.3921696E-30
   1.690000      2.4492230E-30
   1.700000      2.5026547E-30
   1.710000      2.5536276E-30
   1.720000      2.6036214E-30
   1.730000      2.6543620E-30
   1.740000      2.7077255E-30
   1.750000      2.7656237E-30
   1.760000      2.8298746E-30
   1.770000      2.9020653E-30
   1.780000      2.9834188E-30
   1.790000      3.0746668E-30
   1.800000      3.1759435E-30
   1.810000      3.2867070E-30
   1.820000      3.4056960E-30
   1.830000      3.5309266E-30
   1.840000      3.6597378E-30
   1.850000      3.7888820E-30
   1.860000      3.9146636E-30
   1.870000      4.0331181E-30
   1.880000      4.1402254E-30
   1.890000      4.2321468E-30
   1.900000      4.3054728E-30
   1.910000      4.3574639E-30
   1.920000      4.3862720E-30
   1.930000      4.3911206E-30
   1.940000      4.3724327E-30
   1.950000      4.3318912E-30
   1.960000      4.2724202E-30
   1.970000      4.1980815E-30
   1.980000      4.1138887E-30
   1.990000      4.0255321E-30
   2.000000      3.9390376E-30
   2.010000      3.8603652E-30
   2.020000      3.7949735E-30
   2.030000      3.7473665E-30
   2.040000      3.7206657E-30
   2.050000      3.7162233E-30
   2.060000      3.7333050E-30
   2.070000      3.7688828E-30
   2.080000      3.8175494E-30
   2.090000      3.8715736E-30
   2.100000      3.9211057E-30
   2.110000      3.9545293E-30
   2.120000      3.9589551E-30
   2.130000      3.9208394E-30
   2.140000      3.8266930E-30
   2.150000      3.6638383E-30
   2.160000      3.4211779E-30
   2.170000      3.0899219E-30
   2.180000      2.6642263E-30
   2.190000      2.1416809E-30
   2.200000      1.5236199E-30
   2.210000      8.1520402E-31
   2.220000      2.5243224E-32
   2.230000     -8.3423828E-31
   2.240000     -1.7487009E-30
   2.250000     -2.7020270E-30
   2.260000     -3.6776629E-30
   2.270000     -4.6599064E-30
   2.280000     -5.6352661E-30
   2.290000     -6.5938319E-30
   2.300000     -7.5305538E-30
   2.310000     -8.4463411E-30
   2.320000     -9.3488958E-30
   2.330000     -1.0253203E-29
   2.340000     -1.1181620E-29
   2.350000     -1.2163537E-29
   2.360000     -1.3234557E-29
   2.370000     -1.4435245E-29
   2.380000     -1.5809464E-29
   2.390000     -1.7402384E-29
   2.400000     -1.9258261E-29
   2.410000     -2.1418118E-29
   2.420000     -2.3917432E-29
   2.430000     -2.6784016E-29
   2.440000     -3.0036253E-29
   2.450000     -3.3681812E-29
   2.460000     -3.7716934E-29
   2.470000     -4.2126480E-29
   2.480000     -4.6884712E-29
   2.490000     -5.1956859E-29
   2.500000     -5.7301429E-29
   2.510000     -6.2873181E-29
   2.520000     -6.8626662E-29
   2.530000     -7.4520031E-29
   2.540000     -8.0519111E-29
   2.550000     -8.6601209E-29
   2.560000     -9.2758648E-29
   2.570000     -9.9001610E-29
   2.580000     -1.0536016E-28
   2.590000     -1.1188520E-28
   2.600000     -1.1864808E-28
   2.610000     -1.2573910E-28
   2.620000     -1.3326445E-28
   2.630000     -1.4134208E-28
   2.640000     -1.5009639E-28
   2.650000     -1.5965207E-28
   2.660000     -1.7012750E-28
   2.670000     -1.8162780E-28
   2.680000     -1.9423835E-28
   2.690000     -2.0801885E-28
   2.700000     -2.2299864E-28
   2.710000     -2.3917337E-28
   2.720000     -2.5650375E-28
   2.730000     -2.7491615E-28
   2.740000     -2.9430554E-28
   2.750000     -3.1454052E-28
   2.760000     -3.3547051E-28
   2.770000     -3.5693462E-28
   2.780000     -3.7877182E-28
   2.790000     -4.0083179E-28
   2.800000     -4.2298598E-28
   2.810000     -4.4513812E-28
   2.820000     -4.6723320E-28
   2.830000     -4.8926469E-28
   2.840000     -5.1127874E-28
   2.850000     -5.3337556E-28
   2.860000     -5.5570691E-28
   2.870000     -5.7847039E-28
   2.880000     -6.0189952E-28
   2.890000     -6.2625088E-28
   2.900000     -6.5178847E-28
   2.910000     -6.7876575E-28
   2.920000     -7.0740683E-28
   2.930000     -7.3788746E-28
   2.940000     -7.7031728E-28
   2.950000     -8.0472469E-28
   2.960000     -8.4104484E-28
   2.970000     -8.7911268E-28
   2.980000     -9.1866040E-28
   2.990000     -9.5932236E-28
   3.000000     -1.0006439E-27
   3.010000     -1.0420981E-27
   3.020000     -1.0831063E-27
   3.030000     -1.1230644E-27
   3.040000     -1.1613702E-27
   3.050000     -1.1974547E-27
   3.060000     -1.2308110E-27
   3.070000     -1.2610212E-27
   3.080000     -1.2877808E-27
   3.090000     -1.3109145E-27
   3.100000     -1.3303863E-27
   3.110000     -1.3462998E-27
   3.120000     -1.3588890E-27
   3.130000     -1.3684997E-27
   3.140000     -1.3755606E-27
   3.150000     -1.3805469E-27
   3.160000     -1.3839367E-27
   3.170000     -1.3861622E-27
   3.180000     -1.3875605E-27
   3.190000     -1.3883253E-27
   3.200000     -1.3884622E-27
   3.210000     -1.3877510E-27
   3.220000     -1.3857195E-27
   3.230000     -1.3816301E-27
   3.240000     -1.3744806E-27
   3.250000     -1.3630209E-27
   3.260000     -1.3457851E-27
   3.270000     -1.3211398E-27
   3.280000     -1.2873452E-27
   3.290000     -1.2426265E-27
   3.300000     -1.1852516E-27
   3.310000     -1.1136113E-27
   3.320000     -1.0262982E-27
   3.330000     -9.2217561E-28
   3.340000     -8.0043589E-28
   3.350000     -6.6064087E-28
   3.360000     -5.0274066E-28
   3.370000     -3.2707031E-28
   3.380000     -1.3432052E-28
   3.390000      7.4516517E-29
   3.400000      2.9822604E-28
   3.410000      5.3546765E-28
   3.420000      7.8488843E-28
   3.430000      1.0452467E-27
   3.440000      1.3155364E-27
   3.450000      1.5951060E-27
   3.460000      1.8837652E-27
   3.470000      2.1818685E-27
   3.480000      2.4903694E-27
   3.490000      2.8108426E-27
   3.500000      3.1454656E-27
   3.510000      3.4969607E-27
   3.520000      3.8684965E-27
   3.530000      4.2635521E-27
   3.540000      4.6857525E-27
   3.550000      5.1386785E-27
   3.560000      5.6256622E-27
   3.570000      6.1495806E-27
   3.580000      6.7126624E-27
   3.590000      7.3163136E-27
   3.600000      7.9609824E-27
   3.610000      8.6460688E-27
   3.620000      9.3698895E-27
   3.630000      1.0129705E-26
   3.640000      1.0921808E-26
   3.650000      1.1741673E-26
   3.660000      1.2584168E-26
   3.670000      1.3443803E-26
   3.680000      1.4315020E-26
   3.690000      1.5192504E-26
   3.700000      1.6071482E-26
   3.710000      1.6948020E-26
   3.720000      1.7819265E-26
   3.730000      1.8683628E-26
   3.740000      1.9540903E-26
   3.750000      2.0392289E-26
   3.760000      2.1240325E-26
   3.770000      2.2088717E-26
   3.780000      2.2942067E-26
   3.790000      2.3805526E-26
   3.800000      2.4684365E-26
   3.810000      2.5583511E-26
   3.820000      2.6507042E-26
   3.830000      2.7457703E-26
   3.840000      2.8436427E-26
   3.850000      2.9441971E-26
   3.860000      3.0470609E-26
   3.870000      3.1515958E-26
   3.880000      3.2568927E-26
   3.890000      3.3617862E-26
   3.900000      3.4648783E-26
   3.910000      3.5645823E-26
   3.920000      3.6591757E-26
   3.930000      3.7468668E-26
   3.940000      3.8258669E-26
   3.950000      3.8944664E-26
   3.960000      3.9511088E-26
   3.970000      3.9944597E-26
   3.980000      4.0234655E-26
   3.990000      4.0373941E-26
   4.000000      4.0358586E-26
   4.010000      4.0188235E-26
   4.020000      3.9865798E-26
   4.030000      3.9397005E-26
   4.040000      3.8789767E-26
   4.050000      3.8053303E-26
   4.060000      3.7197143E-26
   4.070000      3.6229981E-26
   4.080000      3.5158560E-26
   4.090000      3.3986538E-26
   4.100000      3.2713473E-26
   4.110000      3.1334005E-26
   4.120000      2.9837256E-26
   4.130000      2.8206529E-26
   4.140000      2.6419377E-26
   4.150000      2.4447963E-26
   4.160000      2.2259847E-26
   4.170000      1.9819072E-26
   4.180000      1.7087556E-26
   4.190000      1.4026753E-26
   4.200000      1.0599385E-26
   4.210000      6.7712854E-27
   4.220000      2.5131587E-27
   4.230000     -2.1978323E-27
   4.240000     -7.3767901E-27
   4.250000     -1.3030149E-26
   4.260000     -1.9155144E-26
   4.270000     -2.5739872E-26
   4.280000     -3.2763868E-26
   4.290000     -4.0199230E-26
   4.300000     -4.8012219E-26
   4.310000     -5.6165276E-26
   4.320000     -6.4619442E-26
   4.330000     -7.3336842E-26
   4.340000     -8.2283345E-26
   4.350000     -9.1431068E-26
   4.360000     -1.0076054E-25
   4.370000     -1.1026244E-25
   4.380000     -1.1993879E-25
   4.390000     -1.2980345E-25
   4.400000     -1.3988178E-25
   4.410000     -1.5020954E-25
   4.420000     -1.6083087E-25
   4.430000     -1.7179556E-25
   4.440000     -1.8315583E-25
   4.450000     -1.9496247E-25
   4.460000     -2.0726085E-25
   4.470000     -2.2008672E-25
   4.480000     -2.3346235E-25
   4.490000     -2.4739299E-25
   4.500000     -2.6186425E-25
   4.510000     -2.7684021E-25
   4.520000     -2.9226266E-25
   4.530000     -3.0805144E-25
   4.540000     -3.2410617E-25
   4.550000     -3.4030902E-25
   4.560000     -3.5652882E-25
   4.570000     -3.7262557E-25
   4.580000     -3.8845621E-25
   4.590000     -4.0388056E-25
   4.600000     -4.1876701E-25
   4.610000     -4.3299831E-25
   4.620000     -4.4647624E-25
   4.630000     -4.5912543E-25
   4.640000     -4.7089597E-25
   4.650000     -4.8176411E-25
   4.660000     -4.9173107E-25
   4.670000     -5.0082067E-25
   4.680000     -5.0907447E-25
   4.690000     -5.1654617E-25
   4.700000     -5.2329354E-25
   4.710000     -5.2937044E-25
   4.720000     -5.3481791E-25
   4.730000     -5.3965565E-25
   4.740000     -5.4387359E-25
   4.750000     -5.4742500E-25
   4.760000     -5.5022126E-25
   4.770000     -5.5212848E-25
   4.780000     -5.5296655E-25
   4.790000     -5.5251123E-25
   4.800000     -5.5049850E-25
   4.810000     -5.4663185E-25
   4.820000     -5.4059169E-25
   4.830000     -5.3204679E-25
   4.840000     -5.2066674E-25
   4.850000     -5.0613572E-25
   4.860000     -4.8816517E-25
   4.870000     -4.6650645E-25
   4.880000     -4.4096161E-25
   4.890000     -4.1139111E-25
   4.900000     -3.7771863E-25
   4.910000     -3.3993281E-25
   4.920000     -2.9808527E-25
   4.930000     -2.5228363E-25
   4.940000     -2.0268128E-25
   4.950000     -1.4946423E-25
   4.960000     -9.2835715E-26
   4.970000     -3.2997670E-26
   4.980000      2.9867950E-26
   4.990000      9.5617048E-26
   5.000000      1.6415993E-25
   5.010000      2.3547587E-25
   5.020000      3.0962278E-25
   5.030000      3.8674239E-25
   5.040000      4.6706132E-25
   5.050000      5.5088489E-25
   5.060000      6.3858571E-25
   5.070000      7.3058706E-25
   5.080000      8.2734203E-25
   5.090000      9.2930733E-25
   5.100000      1.0369159E-24
   5.110000      1.1505485E-24
   5.120000      1.2705054E-24
   5.130000      1.3969802E-24
   5.140000      1.5300390E-24
   5.150000      1.6696036E-24
   5.160000      1.8154427E-24
   5.170000      1.9671714E-24
   5.180000      2.1242575E-24
   5.190000      2.2860357E-24
   5.200000      2.4517318E-24
   5.210000      2.6204912E-24
   5.220000      2.7914137E-24
   5.230000      2.9635946E-24
   5.240000      3.1361619E-24
   5.250000      3.3083136E-24
   5.260000      3.4793542E-24
   5.270000      3.6487223E-24
   5.280000      3.8160113E-24
   5.290000      3.9809799E-24
   5.300000      4.1435503E-24
   5.310000      4.3037951E-24
   5.320000      4.4619132E-24
   5.330000      4.6181929E-24
   5.340000      4.7729682E-24
   5.350000      4.9265649E-24
   5.360000      5.0792466E-24
   5.370000      5.2311532E-24
   5.380000      5.3822469E-24
   5.390000      5.5322606E-24
   5.400000      5.6806584E-24
   5.410000      5.8266047E-24
   5.420000      5.9689535E-24
   5.430000      6.1062488E-24
   5.440000      6.2367450E-24
   5.450000      6.3584429E-24
   5.460000      6.4691446E-24
   5.470000      6.5665180E-24
   5.480000      6.6481742E-24
   5.490000      6.7117485E-24
   5.500000      6.7549875E-24
   5.510000      6.7758292E-24
   5.520000      6.7724711E-24
   5.530000      6.7434339E-24
   5.540000      6.6875999E-24
   5.550000      6.6042338E-24
   5.560000      6.4929808E-24
   5.570000      6.3538407E-24
   5.580000      6.1871126E-24
   5.590000      5.9933266E-24
   5.600000      5.7731519E-24
   5.610000      5.5272888E-24
   5.620000      5.2563565E-24
   5.630000      4.9607782E-24
   5.640000      4.6406758E-24
   5.650000      4.2957795E-24
   5.660000      3.9253478E-24
   5.670000      3.5281208E-24
   5.680000      3.1022987E-24
   5.690000      2.6455592E-24
   5.700000      2.1551080E-24
   5.710000      1.6277641E-24
   5.720000      1.0600749E-24
   5.730000      4.4845589E-25
   5.740000     -2.1064706E-25
   5.750000     -9.2058401E-25
   5.760000     -1.6843338E-24
   5.770000     -2.5043407E-24
   5.780000     -3.3823654E-24
   5.790000     -4.3193700E-24
   5.800000     -5.3154442E-24
   5.810000     -6.3697678E-24
   5.820000     -7.4806236E-24
   5.830000     -8.6454525E-24
   5.840000     -9.8609696E-24
   5.850000     -1.1123306E-23
   5.860000     -1.2428204E-23
   5.870000     -1.3771224E-23
   5.880000     -1.5147971E-23
   5.890000     -1.6554312E-23
   5.900000     -1.7986598E-23
   5.910000     -1.9441843E-23
   5.920000     -2.0917873E-23
   5.930000     -2.2413408E-23
   5.940000     -2.3928074E-23
   5.950000     -2.5462399E-23
   5.960000     -2.7017672E-23
   5.970000     -2.8595776E-23
   5.980000     -3.0198974E-23
   5.990000     -3.1829613E-23
   6.000000     -3.3489809E-23
   6.010000     -3.5181117E-23
   6.020000     -3.6904207E-23
   6.030000     -3.8658551E-23
   6.040000     -4.0442147E-23
   6.050000     -4.2251324E-23
   6.060000     -4.4080620E-23
   6.070000     -4.5922717E-23
   6.080000     -4.7768516E-23
   6.090000     -4.9607256E-23
   6.100000     -5.1426751E-23
   6.110000     -5.3213755E-23
   6.120000     -5.4954291E-23
   6.130000     -5.6634136E-23
   6.140000     -5.8239266E-23
   6.150000     -5.9756289E-23
   6.160000     -6.1172888E-23
   6.170000     -6.2478188E-23
   6.180000     -6.3663025E-23
   6.190000     -6.4720105E-23
   6.200000     -6.5644107E-23
   6.210000     -6.6431561E-23
   6.220000     -6.7080680E-23
   6.230000     -6.7590997E-23
   6.240000     -6.7962929E-23
   6.250000     -6.8197290E-23
   6.260000     -6.8294648E-23
   6.270000     -6.8254707E-23
   6.280000     -6.8075736E-23
   6.290000     -6.7753995E-23
   6.300000     -6.7283291E-23
   6.310000     -6.6654625E-23
   6.320000     -6.5855957E-23
   6.330000     -6.4872178E-23
   6.340000     -6.3685321E-23
   6.350000     -6.2274870E-23
   6.360000     -6.0618287E-23
   6.370000     -5.8691649E-23
   6.380000     -5.6470482E-23
   6.390000     -5.3930627E-23
   6.400000     -5.1049120E-23
   6.410000     -4.7805088E-23
   6.420000     -4.4180600E-23
   6.430000     -4.0161322E-23
   6.440000     -3.5737056E-23
   6.450000     -3.0902118E-23
   6.460000     -2.5655421E-23
   6.470000     -2.0000309E-23
   6.480000     -1.3944150E-23
   6.490000     -7.4977316E-24
   6.500000     -6.7439827E-25
   6.510000      6.5109566E-24
   6.520000      1.4042956E-23
   6.530000      2.1906928E-23
   6.540000      3.0090033E-23
   6.550000      3.8582228E-23
   6.560000      4.7377149E-23
   6.570000      5.6472735E-23
   6.580000      6.5871482E-23
   6.590000      7.5580505E-23
   6.600000      8.5611155E-23
   6.610000      9.5978340E-23
   6.620000      1.0669953E-22
   6.630000      1.1779347E-22
   6.640000      1.2927863E-22
   6.650000      1.4117159E-22
   6.660000      1.5348540E-22
   6.670000      1.6622784E-22
   6.680000      1.7940001E-22
   6.690000      1.9299505E-22
   6.700000      2.0699725E-22
   6.710000      2.2138146E-22
   6.720000      2.3611296E-22
   6.730000      2.5114802E-22
   6.740000      2.6643470E-22
   6.750000      2.8191402E-22
   6.760000      2.9752176E-22
   6.770000      3.1319038E-22
   6.780000      3.2885130E-22
   6.790000      3.4443692E-22
   6.800000      3.5988286E-22
   6.810000      3.7512992E-22
   6.820000      3.9012547E-22
   6.830000      4.0482484E-22
   6.840000      4.1919190E-22
   6.850000      4.3319889E-22
   6.860000      4.4682591E-22
   6.870000      4.6005954E-22
   6.880000      4.7289139E-22
   6.890000      4.8531541E-22
   6.900000      4.9732548E-22
   6.910000      5.0891242E-22
   6.920000      5.2006128E-22
   6.930000      5.3074804E-22
   6.940000      5.4093730E-22
   6.950000      5.5058003E-22
   6.960000      5.5961242E-22
   6.970000      5.6795506E-22
   6.980000      5.7551303E-22
   6.990000      5.8217698E-22
   7.000000      5.8782502E-22
   7.010000      5.9232524E-22
   7.020000      5.9553889E-22
   7.030000      5.9732442E-22
   7.040000      5.9754166E-22
   7.050000      5.9605603E-22
   7.060000      5.9274246E-22