  -2.600000      0.0000000E+00
  -2.590000      0.0000000E+00
  -2.580000      0.0000000E+00
  -2.570000      0.0000000E+00
  -2.560000      0.0000000E+00
  -2.550000      0.0000000E+00
  -2.540000      0.0000000E+00
  -2.530000      0.0000000E+00
  -2.520000      0.0000000E+00
  -2.510000      0.0000000E+00
  -2.500000      0.0000000E+00
  -2.490000      0.0000000E+00
  -2.480000      0.0000000E+00
  -2.470000      0.0000000E+00
  -2.460000      0.0000000E+00
  -2.450000      0.0000000E+00
  -2.440000      0.0000000E+00
  -2.430000      0.0000000E+00
  -2.420000      0.0000000E+00
  -2.410000      0.0000000E+00
  -2.400000      0.0000000E+00
  -2.390000      0.0000000E+00
  -2.380000      0.0000000E+00
  -2.370000      0.0000000E+00
  -2.360000      0.0000000E+00
  -2.350000      0.0000000E+00
  -2.340000      0.0000000E+00
  -2.330000      0.0000000E+00
  -2.320000      0.0000000E+00
  -2.310000      0.0000000E+00
  -2.300000      0.0000000E+00
  -2.290000      0.0000000E+00
  -2.280000      0.0000000E+00
  -2.270000      0.0000000E+00
  -2.260000      0.0000000E+00
  -2.250000      0.0000000E+00
  -2.240000      0.0000000E+00
  -2.230000      0.0000000E+00
  -2.220000      0.0000000E+00
  -2.210000      0.0000000E+00
  -2.200000      0.0000000E+00
  -2.190000      0.0000000E+00
  -2.180000      0.0000000E+00
  -2.170000      0.0000000E+00
  -2.160000      0.0000000E+00
  -2.150000      0.0000000E+00
  -2.140000      0.0000000E+00
  -2.130000      0.0000000E+00
  -2.120000      0.0000000E+00
  -2.110000      0.0000000E+00
  -2.100000      0.0000000E+00
  -2.090000      0.0000000E+00
  -2.080000      0.0000000E+00
  -2.070000      0.0000000E+00
  -2.060000      0.0000000E+00
  -2.050000      0.0000000E+00
  -2.040000      0.0000000E+00
  -2.030000      0.0000000E+00
  -2.020000      0.0000000E+00
  -2.010000      0.0000000E+00
  -2.000000      0.0000000E+00
  -1.990000      0.0000000E+00
  -1.980000      0.0000000E+00
  -1.970000      0.0000000E+00
  -1.960000      0.0000000E+00
  -1.950000      0.0000000E+00
  -1.940000      0.0000000E+00
  -1.930000      0.0000000E+00
  -1.920000      0.0000000E+00
  -1.910000      0.0000000E+00
  -1.900000      0.0000000E+00
  -1.890000      0.0000000E+00
  -1.880000      0.0000000E+00
  -1.870000      0.0000000E+00
  -1.860000      0.0000000E+00
  -1.850000      0.0000000E+00
  -1.840000      0.0000000E+00
  -1.830000      0.0000000E+00
  -1.820000      0.0000000E+00
  -1.810000      0.0000000E+00
  -1.800000      0.0000000E+00
  -1.790000      0.0000000E+00
  -1.780000      0.0000000E+00
  -1.770000      0.0000000E+00
  -1.760000      0.0000000E+00
  -1.750000      0.0000000E+00
  -1.740000      0.0000000E+00
  -1.730000      0.0000000E+00
  -1.720000      0.0000000E+00
  -1.710000      0.0000000E+00
  -1.700000      0.0000000E+00
  -1.690000      0.0000000E+00
  -1.680000      0.0000000E+00
  -1.670000      0.0000000E+00
  -1.660000      0.0000000E+00
  -1.650000      0.0000000E+00
  -1.640000      0.0000000E+00
  -1.630000      0.0000000E+00
  -1.620000      0.0000000E+00
  -1.610000      0.0000000E+00
  -1.600000      0.0000000E+00
  -1.590000      0.0000000E+00
  -1.580000      0.0000000E+00
  -1.570000      0.0000000E+00
  -1.560000      0.0000000E+00
  -1.550000      0.0000000E+00
  -1.540000      0.0000000E+00
  -1.530000      0.0000000E+00
  -1.520000      0.0000000E+00
  -1.510000      0.0000000E+00
  -1.500000      0.0000000E+00
  -1.490000      0.0000000E+00
  -1.480000      0.0000000E+00
  -1.470000      0.0000000E+00
  -1.460000      0.0000000E+00
  -1.450000      0.0000000E+00
  -1.440000      0.0000000E+00
  -1.430000      0.0000000E+00
  -1.420000      0.0000000E+00
  -1.410000      0.0000000E+00
  -1.400000      0.0000000E+00
  -1.390000      0.0000000E+00
  -1.380000      0.0000000E+00
  -1.370000      0.0000000E+00
  -1.360000      0.0000000E+00
  -1.350000      0.0000000E+00
  -1.340000      0.0000000E+00
  -1.330000      0.0000000E+00
  -1.320000      0.0000000E+00
  -1.310000      0.0000000E+00
  -1.300000      0.0000000E+00
  -1.290000      0.0000000E+00
  -1.280000      0.0000000E+00
  -1.270000      0.0000000E+00
  -1.260000      0.0000000E+00
  -1.250000      0.0000000E+00
  -1.240000      0.0000000E+00
  -1.230000      0.0000000E+00
  -1.220000      0.0000000E+00
  -1.210000      0.0000000E+00
  -1.200000      0.0000000E+00
  -1.190000      0.0000000E+00
  -1.180000      0.0000000E+00
  -1.170000      0.0000000E+00
  -1.160000      0.0000000E+00
  -1.150000      0.0000000E+00
  -1.140000      0.0000000E+00
  -1.130000      0.0000000E+00
  -1.120000      0.0000000E+00
  -1.110000      0.0000000E+00
  -1.100000      0.0000000E+00
  -1.090000      0.0000000E+00
  -1.080000      0.0000000E+00
  -1.070000      0.0000000E+00
  -1.060000      0.0000000E+00
  -1.050000      0.0000000E+00
  -1.040000      0.0000000E+00
  -1.030000      0.0000000E+00
  -1.020000      0.0000000E+00
  -1.010000      0.0000000E+00
  -1.000000      0.0000000E+00
 -0.9900000      0.0000000E+00
 -0.9800000      0.0000000E+00
 -0.9700000      0.0000000E+00
 -0.9600000      0.0000000E+00
 -0.9500000      0.0000000E+00
 -0.9400000      0.0000000E+00
 -0.9300000      0.0000000E+00
 -0.9200000      0.0000000E+00
 -0.9100000      0.0000000E+00
 -0.9000000      0.0000000E+00
 -0.8900000      0.0000000E+00
 -0.8800000      0.0000000E+00
 -0.8700000      0.0000000E+00
 -0.8600000      0.0000000E+00
 -0.8500000      0.0000000E+00
 -0.8400000      0.0000000E+00
 -0.8300000      0.0000000E+00
 -0.8200000      0.0000000E+00
 -0.8100000      0.0000000E+00
 -0.8000000      0.0000000E+00
 -0.7900000      0.0000000E+00
 -0.7800000      0.0000000E+00
 -0.7700000      0.0000000E+00
 -0.7600000      0.0000000E+00
 -0.7500000      0.0000000E+00
 -0.7400000      0.0000000E+00
 -0.7300000      0.0000000E+00
 -0.7200000      0.0000000E+00
 -0.7100000      0.0000000E+00
 -0.7000000      0.0000000E+00
 -0.6900000      0.0000000E+00
 -0.6800000      0.0000000E+00
 -0.6700000      0.0000000E+00
 -0.6600000      0.0000000E+00
 -0.6500000      0.0000000E+00
 -0.6400000      0.0000000E+00
 -0.6300000      0.0000000E+00
 -0.6200000      0.0000000E+00
 -0.6100000      0.0000000E+00
 -0.6000000      0.0000000E+00
 -0.5900000      0.0000000E+00
 -0.5800000      0.0000000E+00
 -0.5700000      0.0000000E+00
 -0.5600000      0.0000000E+00
 -0.5500000      0.0000000E+00
 -0.5400000      0.0000000E+00
 -0.5300000      0.0000000E+00
 -0.5200000      0.0000000E+00
 -0.5100000      0.0000000E+00
 -0.5000000      0.0000000E+00
 -0.4900000      0.0000000E+00
 -0.4800000      0.0000000E+00
 -0.4700000      0.0000000E+00
 -0.4600000      0.0000000E+00
 -0.4500000      0.0000000E+00
 -0.4400000      0.0000000E+00
 -0.4300000      0.0000000E+00
 -0.4200000      0.0000000E+00
 -0.4100000      0.0000000E+00
 -0.4000000      0.0000000E+00
 -0.3900000      0.0000000E+00
 -0.3800000      0.0000000E+00
 -0.3700000      0.0000000E+00
 -0.3600000      0.0000000E+00
 -0.3500000      0.0000000E+00
 -0.3400000      0.0000000E+00
 -0.3300000      0.0000000E+00
 -0.3200000      0.0000000E+00
 -0.3100000      0.0000000E+00
 -0.3000000      0.0000000E+00
 -0.2900000      0.0000000E+00
 -0.2800000      0.0000000E+00
 -0.2700000      0.0000000E+00
 -0.2600000      0.0000000E+00
 -0.2500000      0.0000000E+00
 -0.2400000      0.0000000E+00
 -0.2300000      0.0000000E+00
 -0.2200000      0.0000000E+00
 -0.2100000      0.0000000E+00
 -0.2000000      0.0000000E+00
 -0.1900000      0.0000000E+00
 -0.1800000      0.0000000E+00
 -0.1700000      0.0000000E+00
 -0.1600000      0.0000000E+00
 -0.1500000      0.0000000E+00
 -0.1400000      0.0000000E+00
 -0.1300000      0.0000000E+00
 -0.1200000      0.0000000E+00
 -0.1100000      0.0000000E+00
 -0.1000000      0.0000000E+00
 -9.0000004E-02  0.0000000E+00
 -7.9999998E-02  0.0000000E+00
 -7.0000000E-02  0.0000000E+00
 -5.9999999E-02  0.0000000E+00
 -5.0000001E-02  0.0000000E+00
 -3.9999999E-02  0.0000000E+00
 -2.9999999E-02  0.0000000E+00
 -2.0000000E-02  0.0000000E+00
 -9.9999998E-03  0.0000000E+00
 -3.4694470E-17  0.0000000E+00
  9.9999998E-03  0.0000000E+00
  2.0000000E-02  0.0000000E+00
  2.9999999E-02  0.0000000E+00
  3.9999999E-02  0.0000000E+00
  5.0000001E-02  0.0000000E+00
  5.9999999E-02  0.0000000E+00
  7.0000000E-02  0.0000000E+00
  7.9999998E-02  0.0000000E+00
  9.0000004E-02  0.0000000E+00
  0.1000000      0.0000000E+00
  0.1100000      0.0000000E+00
  0.1200000      0.0000000E+00
  0.1300000      0.0000000E+00
  0.1400000      0.0000000E+00
  0.1500000      0.0000000E+00
  0.1600000      0.0000000E+00
  0.1700000      0.0000000E+00
  0.1800000      0.0000000E+00
  0.1900000      0.0000000E+00
  0.2000000      0.0000000E+00
  0.2100000      0.0000000E+00
  0.2200000      0.0000000E+00
  0.2300000      0.0000000E+00
  0.2400000      0.0000000E+00
  0.2500000      0.0000000E+00
  0.2600000      0.0000000E+00
  0.2700000      0.0000000E+00
  0.2800000      0.0000000E+00
  0.2900000      0.0000000E+00
  0.3000000      0.0000000E+00
  0.3100000      0.0000000E+00
  0.3200000      0.0000000E+00
  0.3300000      0.0000000E+00
  0.3400000      0.0000000E+00
  0.3500000      0.0000000E+00
  0.3600000      0.0000000E+00
  0.3700000      0.0000000E+00
  0.3800000      0.0000000E+00
  0.3900000      0.0000000E+00
  0.4000000      0.0000000E+00
  0.4100000      0.0000000E+00
  0.4200000      0.0000000E+00
  0.4300000      0.0000000E+00
  0.4400000      0.0000000E+00
  0.4500000      0.0000000E+00
  0.4600000      0.0000000E+00
  0.4700000      0.0000000E+00
  0.4800000      0.0000000E+00
  0.4900000      0.0000000E+00
  0.5000000      0.0000000E+00
  0.5100000      0.0000000E+00
  0.5200000      0.0000000E+00
  0.5300000      0.0000000E+00
  0.5400000      0.0000000E+00
  0.5500000      0.0000000E+00
  0.5600000      0.0000000E+00
  0.5700000      0.0000000E+00
  0.5800000      0.0000000E+00
  0.5900000      0.0000000E+00
  0.6000000      0.0000000E+00
  0.6100000      0.0000000E+00
  0.6200000      0.0000000E+00
  0.6300000      0.0000000E+00
  0.6400000      0.0000000E+00
  0.6500000      0.0000000E+00
  0.6600000      0.0000000E+00
  0.6700000      0.0000000E+00
  0.6800000      0.0000000E+00
  0.6900000      0.0000000E+00
  0.7000000      0.0000000E+00
  0.7100000      0.0000000E+00
  0.7200000      0.0000000E+00
  0.7300000      0.0000000E+00
  0.7400000      0.0000000E+00
  0.7500000      0.0000000E+00
  0.7600000      0.0000000E+00
  0.7700000      0.0000000E+00
  0.7800000      0.0000000E+00
  0.7900000      0.0000000E+00
  0.8000000      0.0000000E+00
  0.8100000      0.0000000E+00
  0.8200000      0.0000000E+00
  0.8300000      0.0000000E+00
  0.8400000      0.0000000E+00
  0.8500000      0.0000000E+00
  0.8600000      0.0000000E+00
  0.8700000      0.0000000E+00
  0.8800000      0.0000000E+00
  0.8900000      0.0000000E+00
  0.9000000      0.0000000E+00
  0.9100000      0.0000000E+00
  0.9200000      0.0000000E+00
  0.9300000      0.0000000E+00
  0.9400000      0.0000000E+00
  0.9500000      0.0000000E+00
  0.9600000      0.0000000E+00
  0.9700000      0.0000000E+00
  0.9800000      0.0000000E+00
  0.9900000      0.0000000E+00
   1.000000      0.0000000E+00
   1.010000      0.0000000E+00
   1.020000      0.0000000E+00
   1.030000      0.0000000E+00
   1.040000      0.0000000E+00
   1.050000      0.0000000E+00
   1.060000      0.0000000E+00
   1.070000      0.0000000E+00
   1.080000      0.0000000E+00
   1.090000      0.0000000E+00
   1.100000      0.0000000E+00
   1.110000      0.0000000E+00
   1.120000      0.0000000E+00
   1.130000      0.0000000E+00
   1.140000      0.0000000E+00
   1.150000      0.0000000E+00
   1.160000      0.0000000E+00
   1.170000      0.0000000E+00
   1.180000      0.0000000E+00
   1.190000      0.0000000E+00
   1.200000      0.0000000E+00
   1.210000      0.0000000E+00
   1.220000      0.0000000E+00
   1.230000      0.0000000E+00
   1.240000      0.0000000E+00
   1.250000      0.0000000E+00
   1.260000      0.0000000E+00
   1.270000      0.0000000E+00
   1.280000      0.0000000E+00
   1.290000      0.0000000E+00
   1.300000      0.0000000E+00
   1.310000      0.0000000E+00
   1.320000      0.0000000E+00
   1.330000      0.0000000E+00
   1.340000      0.0000000E+00
   1.350000      0.0000000E+00
   1.360000      0.0000000E+00
   1.370000      0.0000000E+00
   1.380000      0.0000000E+00
   1.390000      0.0000000E+00
   1.400000      0.0000000E+00
   1.410000      0.0000000E+00
   1.420000      0.0000000E+00
   1.430000      0.0000000E+00
   1.440000      0.0000000E+00
   1.450000      0.0000000E+00
   1.460000      0.0000000E+00
   1.470000      0.0000000E+00
   1.480000      0.0000000E+00
   1.490000      0.0000000E+00
   1.500000      0.0000000E+00
   1.510000      0.0000000E+00
   1.520000      0.0000000E+00
   1.530000      0.0000000E+00
   1.540000      0.0000000E+00
   1.550000      0.0000000E+00
   1.560000      0.0000000E+00
   1.570000      0.0000000E+00
   1.580000      0.0000000E+00
   1.590000      0.0000000E+00
   1.600000      0.0000000E+00
   1.610000      0.0000000E+00
   1.620000      0.0000000E+00
   1.630000      0.0000000E+00
   1.640000      0.0000000E+00
   1.650000      0.0000000E+00
   1.660000      0.0000000E+00
   1.670000      0.0000000E+00
   1.680000      0.0000000E+00
   1.690000      0.0000000E+00
   1.700000      0.0000000E+00
   1.710000      0.0000000E+00
   1.720000      0.0000000E+00
   1.730000      0.0000000E+00
   1.740000      0.0000000E+00
   1.750000      0.0000000E+00
   1.760000      0.0000000E+00
   1.770000      0.0000000E+00
   1.780000      0.0000000E+00
   1.790000      0.0000000E+00
   1.800000      0.0000000E+00
   1.810000      0.0000000E+00
   1.820000      0.0000000E+00
   1.830000      0.0000000E+00
   1.840000      0.0000000E+00
   1.850000      0.0000000E+00
   1.860000      0.0000000E+00
   1.870000      0.0000000E+00
   1.880000      0.0000000E+00
   1.890000      0.0000000E+00
   1.900000      0.0000000E+00
   1.910000      0.0000000E+00
   1.920000      0.0000000E+00
   1.930000      0.0000000E+00
   1.940000      0.0000000E+00
   1.950000      0.0000000E+00
   1.960000      0.0000000E+00
   1.970000      0.0000000E+00
   1.980000      0.0000000E+00
   1.990000      0.0000000E+00
   2.000000      0.0000000E+00
   2.010000      0.0000000E+00
   2.020000      0.0000000E+00
   2.030000      0.0000000E+00
   2.040000      0.0000000E+00
   2.050000      0.0000000E+00
   2.060000      0.0000000E+00
   2.070000      0.0000000E+00
   2.080000      0.0000000E+00
   2.090000      0.0000000E+00
   2.100000      0.0000000E+00
   2.110000      0.0000000E+00
   2.120000      0.0000000E+00
   2.130000      0.0000000E+00
   2.140000      0.0000000E+00
   2.150000      0.0000000E+00
   2.160000      0.0000000E+00
   2.170000      0.0000000E+00
   2.180000      0.0000000E+00
   2.190000      0.0000000E+00
   2.200000      0.0000000E+00
   2.210000      0.0000000E+00
   2.220000      0.0000000E+00
   2.230000      1.2348641E-38
   2.240000      1.4120014E-38
   2.250000      1.5809442E-38
   2.260000      1.7381659E-38
   2.270000      1.8347134E-38
   2.280000      1.8781900E-38
   2.290000      1.9234357E-38
   2.300000      1.9703198E-38
   2.310000      2.0185556E-38
   2.320000      2.0677507E-38
   2.330000      2.1174795E-38
   2.340000      2.1673076E-38
   2.350000      2.2168316E-38
   2.360000      2.2656889E-38
   2.370000      2.3136421E-38
   2.380000      2.4240249E-38
   2.390000      2.6063403E-38
   2.400000      2.8051905E-38
   2.410000      3.0175258E-38
   2.420000      3.2468573E-38
   2.430000      3.4911488E-38
   2.440000      3.7420952E-38
   2.450000      3.9946829E-38
   2.460000      4.2413381E-38
   2.470000      4.4747513E-38
   2.480000      4.6882671E-38
   2.490000      4.8270898E-38
   2.500000      4.9048748E-38
   2.510000      4.9870548E-38
   2.520000      5.0737318E-38
   2.530000      5.1584173E-38
   2.540000      5.2399633E-38
   2.550000      5.3234247E-38
   2.560000      5.2967255E-38
   2.570000      5.1498571E-38
   2.580000      4.9913282E-38
   2.590000      4.8330773E-38
   2.600000      4.7341563E-38
   2.610000      4.6886852E-38
   2.620000      4.6258726E-38
   2.630000      4.5448330E-38
   2.640000      4.4378890E-38
   2.650000      4.3038450E-38
   2.660000      4.1757722E-38
   2.670000      4.0763010E-38
   2.680000      3.9930667E-38
   2.690000      4.5177731E-38
   2.700000      5.6760609E-38
   2.710000      6.8781110E-38
   2.720000      8.5452470E-38
   2.730000      1.0689495E-37
   2.740000      1.2870450E-37
   2.750000      1.1303342E-37
   2.760000      5.5742437E-38
   2.770000      0.0000000E+00
   2.780000     -5.6355505E-38
   2.790000     -6.9718623E-38
   2.800000     -4.9105259E-38
   2.810000     -2.8989836E-38
   2.820000     -1.1878457E-38
   2.830000      0.0000000E+00
   2.840000      1.4888023E-38
   2.850000      3.0605793E-38
   2.860000      4.9300432E-38
   2.870000      6.7941183E-38
   2.880000      8.4721350E-38
   2.890000      1.0041062E-37
   2.900000      8.1734455E-38
   2.910000     -3.5611327E-38
   2.920000     -2.1881648E-37
   2.930000     -3.9574077E-37
   2.940000     -4.7864037E-37
   2.950000     -4.7483620E-37
   2.960000     -4.7441186E-37
   2.970000     -4.7756749E-37
   2.980000     -4.8059573E-37
   2.990000     -4.8049789E-37
   3.000000     -4.7563698E-37
   3.010000     -4.6590147E-37
   3.020000     -4.5174535E-37
   3.030000     -4.3546926E-37
   3.040000     -4.1971014E-37
   3.050000     -4.1366259E-37
   3.060000     -4.1546280E-37
   3.070000     -4.1877713E-37
   3.080000     -4.6527777E-37
   3.090000     -5.7119540E-37
   3.100000     -7.0662881E-37
   3.110000     -8.6224885E-37
   3.120000     -1.0308472E-36
   3.130000     -1.2140398E-36
   3.140000     -1.3730111E-36
   3.150000     -1.4832705E-36
   3.160000     -1.5321653E-36
   3.170000     -1.5332743E-36
   3.180000     -1.5280406E-36
   3.190000     -1.5834140E-36
   3.200000     -1.7094006E-36
   3.210000     -1.8433901E-36
   3.220000     -1.9773485E-36
   3.230000     -2.1158934E-36
   3.240000     -2.3241638E-36
   3.250000     -2.6728434E-36
   3.260000     -3.1767007E-36
   3.270000     -3.7859682E-36
   3.280000     -4.4429156E-36
   3.290000     -5.1141602E-36
   3.300000     -5.3250845E-36
   3.310000     -4.6700811E-36
   3.320000     -3.5733909E-36
   3.330000     -2.7461506E-36
   3.340000     -2.2303203E-36
   3.350000     -1.7700711E-36
   3.360000     -1.5467526E-36
   3.370000     -1.6397425E-36
   3.380000     -1.9756143E-36
   3.390000     -2.6357071E-36
   3.400000     -3.9994950E-36
   3.410000     -5.5626920E-36
   3.420000     -6.8337734E-36
   3.430000     -7.4887628E-36
   3.440000     -7.2129830E-36
   3.450000     -6.3668258E-36
   3.460000     -5.1708069E-36
   3.470000     -3.7568768E-36
   3.480000     -2.2957604E-36
   3.490000     -1.1194107E-36
   3.500000     -4.9768462E-37
   3.510000     -6.4390951E-37
   3.520000     -1.3015977E-36
   3.530000     -2.0839736E-36
   3.540000     -2.9525223E-36
   3.550000     -4.0286076E-36
   3.560000     -5.4970192E-36
   3.570000     -6.8162207E-36
   3.580000     -7.5614815E-36
   3.590000     -7.4682799E-36
   3.600000     -5.9225303E-36
   3.610000     -3.4829505E-36
   3.620000     -8.1361452E-37
   3.630000      1.5397633E-36
   3.640000      3.9194601E-36
   3.650000      6.4141684E-36
   3.660000      7.5408415E-36
   3.670000      6.8495168E-36
   3.680000      6.1996536E-36
   3.690000      6.6668316E-36
   3.700000      6.1199081E-36
   3.710000      4.4300026E-36
   3.720000      4.3832419E-36
   3.730000      5.7626569E-36
   3.740000      6.0454941E-36
   3.750000      5.8858467E-36
   3.760000      8.6355679E-36
   3.770000      1.3721172E-35
   3.780000      1.9274410E-35
   3.790000      2.4025510E-35
   3.800000      2.7552003E-35
   3.810000      3.2065494E-35
   3.820000      3.7702452E-35
   3.830000      4.3282290E-35
   3.840000      4.6646887E-35
   3.850000      4.6886822E-35
   3.860000      4.7587570E-35
   3.870000      5.1113628E-35
   3.880000      5.5378870E-35
   3.890000      5.9584506E-35
   3.900000      6.2224168E-35
   3.910000      6.5231005E-35
   3.920000      7.2880300E-35
   3.930000      8.2929008E-35
   3.940000      9.3298355E-35
   3.950000      9.2045030E-35
   3.960000      8.6516958E-35
   3.970000      8.9076873E-35
   3.980000      9.2077655E-35
   3.990000      9.5419841E-35
   4.000000      1.0437699E-34
   4.010000      1.2672334E-34
   4.020000      1.5628775E-34
   4.030000      1.8412139E-34
   4.040000      2.0182740E-34
   4.050000      2.0962251E-34
   4.060000      2.0289379E-34
   4.070000      1.8105345E-34
   4.080000      1.6229589E-34
   4.090000      1.6483542E-34
   4.100000      1.8495889E-34
   4.110000      2.0865906E-34
   4.120000      2.2821213E-34
   4.130000      2.3697541E-34
   4.140000      2.4146369E-34
   4.150000      2.4887006E-34
   4.160000      2.6178255E-34
   4.170000      2.7616201E-34
   4.180000      2.8880461E-34
   4.190000      2.9523815E-34
   4.200000      2.9632335E-34
   4.210000      2.9384021E-34
   4.220000      2.9079956E-34
   4.230000      2.8849963E-34
   4.240000      2.8132195E-34
   4.250000      2.7378687E-34
   4.260000      2.7144371E-34
   4.270000      2.6674968E-34
   4.280000      2.5995888E-34
   4.290000      2.6453740E-34
   4.300000      2.7676470E-34
   4.310000      2.8831152E-34
   4.320000      2.9897326E-34
   4.330000      3.0724410E-34
   4.340000      3.0111879E-34
   4.350000      2.7791239E-34
   4.360000      2.4456663E-34
   4.370000      2.0202742E-34
   4.380000      1.4627168E-34
   4.390000      8.7474975E-35
   4.400000      3.2251395E-35
   4.410000     -2.7981122E-35
   4.420000     -8.8157020E-35
   4.430000     -1.4211140E-34
   4.440000     -1.9769331E-34
   4.450000     -2.4916329E-34
   4.460000     -2.8217579E-34
   4.470000     -3.0626144E-34
   4.480000     -3.4163558E-34
   4.490000     -3.9107701E-34
   4.500000     -4.5371974E-34
   4.510000     -5.2949872E-34
   4.520000     -6.1611971E-34
   4.530000     -7.2032774E-34
   4.540000     -8.4642132E-34
   4.550000     -9.8345678E-34
   4.560000     -1.1222220E-33
   4.570000     -1.2583854E-33
   4.580000     -1.3896581E-33
   4.590000     -1.5292918E-33
   4.600000     -1.6681330E-33
   4.610000     -1.7968416E-33
   4.620000     -1.9217432E-33
   4.630000     -2.0488198E-33
   4.640000     -2.1838977E-33
   4.650000     -2.3324216E-33
   4.660000     -2.4989260E-33
   4.670000     -2.6863745E-33
   4.680000     -2.8974920E-33
   4.690000     -3.1304869E-33
   4.700000     -3.3815505E-33
   4.710000     -3.6466417E-33
   4.720000     -3.9194931E-33
   4.730000     -4.1932690E-33
   4.740000     -4.4614151E-33
   4.750000     -4.7180868E-33
   4.760000     -4.9603125E-33
   4.770000     -5.1884546E-33
   4.780000     -5.4047471E-33
   4.790000     -5.6134032E-33
   4.800000     -5.8201745E-33
   4.810000     -6.0310005E-33
   4.820000     -6.2509065E-33
   4.830000     -6.4844845E-33
   4.840000     -6.7316932E-33
   4.850000     -6.9912798E-33
   4.860000     -7.2602087E-33
   4.870000     -7.5323966E-33
   4.880000     -7.8030946E-33
   4.890000     -8.0654414E-33
   4.900000     -8.3130020E-33
   4.910000     -8.5402640E-33
   4.920000     -8.7387396E-33
   4.930000     -8.9039642E-33
   4.940000     -9.0392621E-33
   4.950000     -9.1486705E-33
   4.960000     -9.2327830E-33
   4.970000     -9.2887644E-33
   4.980000     -9.3158831E-33
   4.990000     -9.3108586E-33
   5.000000     -9.2723053E-33
   5.010000     -9.1993431E-33
   5.020000     -9.0818179E-33
   5.030000     -8.9095889E-33
   5.040000     -8.6741734E-33
   5.050000     -8.3738647E-33
   5.060000     -7.9967580E-33
   5.070000     -7.5342862E-33
   5.080000     -6.9914613E-33
   5.090000     -6.3701449E-33
   5.100000     -5.6749344E-33
   5.110000     -4.9108800E-33
   5.120000     -4.0849689E-33
   5.130000     -3.1993463E-33
   5.140000     -2.2526283E-33
   5.150000     -1.2416401E-33
   5.160000     -1.6055127E-34
   5.170000      1.0008150E-33
   5.180000      2.2535116E-33
   5.190000      3.6135978E-33
   5.200000      5.1001497E-33
   5.210000      6.7281844E-33
   5.220000      8.5124592E-33
   5.230000      1.0464548E-32
   5.240000      1.2593240E-32
   5.250000      1.4904055E-32
   5.260000      1.7398831E-32
   5.270000      2.0076973E-32
   5.280000      2.2935745E-32
   5.290000      2.5970920E-32
   5.300000      2.9178094E-32
   5.310000      3.2552942E-32
   5.320000      3.6091550E-32
   5.330000      3.9790872E-32
   5.340000      4.3648112E-32
   5.350000      4.7660912E-32
   5.360000      5.1827005E-32
   5.370000      5.6143250E-32
   5.380000      6.0605785E-32
   5.390000      6.5209979E-32
   5.400000      6.9950701E-32
   5.410000      7.4822813E-32
   5.420000      7.9821926E-32
   5.430000      8.4944960E-32
   5.440000      9.0190886E-32
   5.450000      9.5560973E-32
   5.460000      1.0105886E-31
   5.470000      1.0669028E-31
   5.480000      1.1246166E-31
   5.490000      1.1837911E-31
   5.500000      1.2444678E-31
   5.510000      1.3066483E-31
   5.520000      1.3702775E-31
   5.530000      1.4352270E-31
   5.540000      1.5012851E-31
   5.550000      1.5681518E-31
   5.560000      1.6354399E-31
   5.570000      1.7026836E-31
   5.580000      1.7693515E-31
   5.590000      1.8348675E-31
   5.600000      1.8986331E-31
   5.610000      1.9600478E-31
   5.620000      2.0185368E-31
   5.630000      2.0735685E-31
   5.640000      2.1246614E-31
   5.650000      2.1713943E-31
   5.660000      2.2134100E-31
   5.670000      2.2504113E-31
   5.680000      2.2821471E-31
   5.690000      2.3083994E-31
   5.700000      2.3289795E-31
   5.710000      2.3436698E-31
   5.720000      2.3522305E-31
   5.730000      2.3544096E-31
   5.740000      2.3498934E-31
   5.750000      2.3382959E-31
   5.760000      2.3191460E-31
   5.770000      2.2918724E-31
   5.780000      2.2557969E-31
   5.790000      2.2101182E-31
   5.800000      2.1539133E-31
   5.810000      2.0861381E-31
   5.820000      2.0056271E-31
   5.830000      1.9111142E-31
   5.840000      1.8012327E-31
   5.850000      1.6745746E-31
   5.860000      1.5297105E-31
   5.870000      1.3652004E-31
   5.880000      1.1796668E-31
   5.890000      9.7183625E-32
   5.900000      7.4057343E-32
   5.910000      4.8491710E-32
   5.920000      2.0410656E-32
   5.930000     -1.0240521E-32
   5.940000     -4.3495657E-32
   5.950000     -7.9369226E-32
   5.960000     -1.1785945E-31
   5.970000     -1.5895298E-31
   5.980000     -2.0263045E-31
   5.990000     -2.4887265E-31
   6.000000     -2.9766712E-31
   6.010000     -3.4901396E-31
   6.020000     -4.0293135E-31
   6.030000     -4.5945918E-31
   6.040000     -5.1866149E-31
   6.050000     -5.8062702E-31
   6.060000     -6.4546762E-31
   6.070000     -7.1331466E-31
   6.080000     -7.8431367E-31
   6.090000     -8.5861728E-31
   6.100000     -9.3637708E-31
   6.110000     -1.0177342E-30
   6.120000     -1.1028092E-30
   6.130000     -1.1916932E-30
   6.140000     -1.2844383E-30
   6.150000     -1.3810501E-30
   6.160000     -1.4814807E-30
   6.170000     -1.5856240E-30
   6.180000     -1.6933137E-30
   6.190000     -1.8043233E-30
   6.200000     -1.9183692E-30
   6.210000     -2.0351155E-30
   6.220000     -2.1541829E-30
   6.230000     -2.2751582E-30
   6.240000     -2.3976064E-30
   6.250000     -2.5210837E-30
   6.260000     -2.6451508E-30
   6.270000     -2.7693853E-30
   6.280000     -2.8933928E-30
   6.290000     -3.0168148E-30
   6.300000     -3.1393345E-30
   6.310000     -3.2606765E-30
   6.320000     -3.3806059E-30
   6.330000     -3.4989171E-30
   6.340000     -3.6154223E-30
   6.350000     -3.7299350E-30
   6.360000     -3.8422506E-30
   6.370000     -3.9521215E-30
   6.380000     -4.0592351E-30
   6.390000     -4.1631921E-30
   6.400000     -4.2634845E-30
   6.410000     -4.3594786E-30
   6.420000     -4.4504036E-30
   6.430000     -4.5353450E-30
   6.440000     -4.6132462E-30
   6.450000     -4.6829130E-30
   6.460000     -4.7430332E-30
   6.470000     -4.7921944E-30
   6.480000     -4.8289105E-30
   6.490000     -4.8516538E-30
   6.500000     -4.8588877E-30
   6.510000     -4.8491015E-30
   6.520000     -4.8208430E-30
   6.530000     -4.7727493E-30
   6.540000     -4.7035670E-30
   6.550000     -4.6121696E-30
   6.560000     -4.4975655E-30
   6.570000     -4.3588963E-30
   6.580000     -4.1954225E-30
   6.590000     -4.0065064E-30
   6.600000     -3.7915783E-30
   6.610000     -3.5500960E-30
   6.620000     -3.2815055E-30
   6.630000     -2.9851937E-30
   6.640000     -2.6604386E-30
   6.650000     -2.3063692E-30
   6.660000     -1.9219301E-30
   6.670000     -1.5058540E-30
   6.680000     -1.0566447E-30
   6.690000     -5.7257935E-31
   6.700000     -5.1721987E-32
   6.710000      5.0804494E-31
   6.720000      1.1089722E-30
   6.730000      1.7533841E-30
   6.740000      2.4436079E-30
   6.750000      3.1818943E-30
   6.760000      3.9703324E-30
   6.770000      4.8107669E-30
   6.780000      5.7047222E-30
   6.790000      6.6533371E-30
   6.800000      7.6573139E-30
   6.810000      8.7168883E-30
   6.820000      9.8318220E-30
   6.830000      1.1001411E-29
   6.840000      1.2224531E-29
   6.850000      1.3499692E-29
   6.860000      1.4825115E-29
   6.870000      1.6198824E-29
   6.880000      1.7618749E-29
   6.890000      1.9082820E-29
   6.900000      2.0589079E-29
   6.910000      2.2135757E-29
   6.920000      2.3721339E-29
   6.930000      2.5344612E-29
   6.940000      2.7004676E-29
   6.950000      2.8700921E-29
   6.960000      3.0432964E-29
   6.970000      3.2200562E-29
   6.980000      3.4003488E-29
   6.990000      3.5841388E-29
   7.000000      3.7713605E-29
   7.010000      3.9618997E-29
   7.020000      4.1555760E-29
   7.030000      4.3521274E-29
   7.040000      4.5511942E-29
   7.050000      4.7523080E-29
   7.060000      4.9548836E-29