  -2.600000      0.0000000E+00
  -2.590000      0.0000000E+00
  -2.580000      0.0000000E+00
  -2.570000      0.0000000E+00
  -2.560000      0.0000000E+00
  -2.550000      0.0000000E+00
  -2.540000      0.0000000E+00
  -2.530000      0.0000000E+00
  -2.520000      0.0000000E+00
  -2.510000      0.0000000E+00
  -2.500000      0.0000000E+00
  -2.490000      0.0000000E+00
  -2.480000      0.0000000E+00
  -2.470000      0.0000000E+00
  -2.460000      0.0000000E+00
  -2.450000      0.0000000E+00
  -2.440000      0.0000000E+00
  -2.430000      0.0000000E+00
  -2.420000      0.0000000E+00
  -2.410000      0.0000000E+00
  -2.400000      0.0000000E+00
  -2.390000      0.0000000E+00
  -2.380000      0.0000000E+00
  -2.370000      0.0000000E+00
  -2.360000      0.0000000E+00
  -2.350000      0.0000000E+00
  -2.340000      0.0000000E+00
  -2.330000      0.0000000E+00
  -2.320000      0.0000000E+00
  -2.310000      0.0000000E+00
  -2.300000      0.0000000E+00
  -2.290000      0.0000000E+00
  -2.280000      0.0000000E+00
  -2.270000      0.0000000E+00
  -2.260000      0.0000000E+00
  -2.250000      0.0000000E+00
  -2.240000      0.0000000E+00
  -2.230000      0.0000000E+00
  -2.220000      0.0000000E+00
  -2.210000      0.0000000E+00
  -2.200000      0.0000000E+00
  -2.190000      0.0000000E+00
  -2.180000      0.0000000E+00
  -2.170000      0.0000000E+00
  -2.160000      0.0000000E+00
  -2.150000      0.0000000E+00
  -2.140000      0.0000000E+00
  -2.130000      0.0000000E+00
  -2.120000      0.0000000E+00
  -2.110000      0.0000000E+00
  -2.100000      0.0000000E+00
  -2.090000      0.0000000E+00
  -2.080000      0.0000000E+00
  -2.070000      0.0000000E+00
  -2.060000      0.0000000E+00
  -2.050000      0.0000000E+00
  -2.040000      0.0000000E+00
  -2.030000      0.0000000E+00
  -2.020000      0.0000000E+00
  -2.010000      0.0000000E+00
  -2.000000      0.0000000E+00
  -1.990000      0.0000000E+00
  -1.980000      0.0000000E+00
  -1.970000      0.0000000E+00
  -1.960000      0.0000000E+00
  -1.950000      0.0000000E+00
  -1.940000      0.0000000E+00
  -1.930000      0.0000000E+00
  -1.920000      0.0000000E+00
  -1.910000      0.0000000E+00
  -1.900000      0.0000000E+00
  -1.890000      0.0000000E+00
  -1.880000      0.0000000E+00
  -1.870000      0.0000000E+00
  -1.860000      0.0000000E+00
  -1.850000      0.0000000E+00
  -1.840000      0.0000000E+00
  -1.830000      0.0000000E+00
  -1.820000      0.0000000E+00
  -1.810000      0.0000000E+00
  -1.800000      0.0000000E+00
  -1.790000      0.0000000E+00
  -1.780000      0.0000000E+00
  -1.770000      0.0000000E+00
  -1.760000      0.0000000E+00
  -1.750000      0.0000000E+00
  -1.740000      0.0000000E+00
  -1.730000      0.0000000E+00
  -1.720000      0.0000000E+00
  -1.710000      0.0000000E+00
  -1.700000      0.0000000E+00
  -1.690000      0.0000000E+00
  -1.680000      0.0000000E+00
  -1.670000      0.0000000E+00
  -1.660000      0.0000000E+00
  -1.650000      0.0000000E+00
  -1.640000      0.0000000E+00
  -1.630000      0.0000000E+00
  -1.620000      0.0000000E+00
  -1.610000      0.0000000E+00
  -1.600000      0.0000000E+00
  -1.590000      0.0000000E+00
  -1.580000      0.0000000E+00
  -1.570000      0.0000000E+00
  -1.560000      0.0000000E+00
  -1.550000      0.0000000E+00
  -1.540000      0.0000000E+00
  -1.530000      0.0000000E+00
  -1.520000      0.0000000E+00
  -1.510000      0.0000000E+00
  -1.500000      0.0000000E+00
  -1.490000      0.0000000E+00
  -1.480000      0.0000000E+00
  -1.470000      0.0000000E+00
  -1.460000      0.0000000E+00
  -1.450000      0.0000000E+00
  -1.440000      0.0000000E+00
  -1.430000      0.0000000E+00
  -1.420000      0.0000000E+00
  -1.410000      0.0000000E+00
  -1.400000      0.0000000E+00
  -1.390000      0.0000000E+00
  -1.380000      0.0000000E+00
  -1.370000      0.0000000E+00
  -1.360000      0.0000000E+00
  -1.350000      0.0000000E+00
  -1.340000      0.0000000E+00
  -1.330000      0.0000000E+00
  -1.320000      0.0000000E+00
  -1.310000      0.0000000E+00
  -1.300000      0.0000000E+00
  -1.290000      0.0000000E+00
  -1.280000      0.0000000E+00
  -1.270000      0.0000000E+00
  -1.260000      0.0000000E+00
  -1.250000      0.0000000E+00
  -1.240000      0.0000000E+00
  -1.230000      0.0000000E+00
  -1.220000      0.0000000E+00
  -1.210000      0.0000000E+00
  -1.200000      0.0000000E+00
  -1.190000      0.0000000E+00
  -1.180000      0.0000000E+00
  -1.170000      0.0000000E+00
  -1.160000      0.0000000E+00
  -1.150000      0.0000000E+00
  -1.140000      0.0000000E+00
  -1.130000      0.0000000E+00
  -1.120000      0.0000000E+00
  -1.110000      0.0000000E+00
  -1.100000      0.0000000E+00
  -1.090000      0.0000000E+00
  -1.080000      0.0000000E+00
  -1.070000      0.0000000E+00
  -1.060000      0.0000000E+00
  -1.050000      0.0000000E+00
  -1.040000      0.0000000E+00
  -1.030000      0.0000000E+00
  -1.020000      0.0000000E+00
  -1.010000      0.0000000E+00
  -1.000000      0.0000000E+00
 -0.9900000      0.0000000E+00
 -0.9800000      0.0000000E+00
 -0.9700000      0.0000000E+00
 -0.9600000      0.0000000E+00
 -0.9500000      0.0000000E+00
 -0.9400000      0.0000000E+00
 -0.9300000      0.0000000E+00
 -0.9200000      0.0000000E+00
 -0.9100000      0.0000000E+00
 -0.9000000      0.0000000E+00
 -0.8900000      0.0000000E+00
 -0.8800000      0.0000000E+00
 -0.8700000      0.0000000E+00
 -0.8600000      0.0000000E+00
 -0.8500000      0.0000000E+00
 -0.8400000      0.0000000E+00
 -0.8300000      0.0000000E+00
 -0.8200000      0.0000000E+00
 -0.8100000      0.0000000E+00
 -0.8000000      0.0000000E+00
 -0.7900000      0.0000000E+00
 -0.7800000      0.0000000E+00
 -0.7700000      0.0000000E+00
 -0.7600000      0.0000000E+00
 -0.7500000      0.0000000E+00
 -0.7400000      0.0000000E+00
 -0.7300000      0.0000000E+00
 -0.7200000      0.0000000E+00
 -0.7100000      0.0000000E+00
 -0.7000000      0.0000000E+00
 -0.6900000      0.0000000E+00
 -0.6800000      0.0000000E+00
 -0.6700000      0.0000000E+00
 -0.6600000      0.0000000E+00
 -0.6500000      0.0000000E+00
 -0.6400000      0.0000000E+00
 -0.6300000      0.0000000E+00
 -0.6200000      0.0000000E+00
 -0.6100000      0.0000000E+00
 -0.6000000      0.0000000E+00
 -0.5900000      0.0000000E+00
 -0.5800000      0.0000000E+00
 -0.5700000      0.0000000E+00
 -0.5600000      0.0000000E+00
 -0.5500000      0.0000000E+00
 -0.5400000      0.0000000E+00
 -0.5300000      0.0000000E+00
 -0.5200000      0.0000000E+00
 -0.5100000      0.0000000E+00
 -0.5000000      0.0000000E+00
 -0.4900000      0.0000000E+00
 -0.4800000      0.0000000E+00
 -0.4700000      0.0000000E+00
 -0.4600000      0.0000000E+00
 -0.4500000      0.0000000E+00
 -0.4400000      0.0000000E+00
 -0.4300000      0.0000000E+00
 -0.4200000      0.0000000E+00
 -0.4100000      0.0000000E+00
 -0.4000000      0.0000000E+00
 -0.3900000      0.0000000E+00
 -0.3800000      0.0000000E+00
 -0.3700000      0.0000000E+00
 -0.3600000      0.0000000E+00
 -0.3500000      0.0000000E+00
 -0.3400000      0.0000000E+00
 -0.3300000      0.0000000E+00
 -0.3200000      0.0000000E+00
 -0.3100000      0.0000000E+00
 -0.3000000      0.0000000E+00
 -0.2900000      0.0000000E+00
 -0.2800000      0.0000000E+00
 -0.2700000      0.0000000E+00
 -0.2600000      0.0000000E+00
 -0.2500000      0.0000000E+00
 -0.2400000      0.0000000E+00
 -0.2300000      0.0000000E+00
 -0.2200000      0.0000000E+00
 -0.2100000      0.0000000E+00
 -0.2000000      0.0000000E+00
 -0.1900000      0.0000000E+00
 -0.1800000      0.0000000E+00
 -0.1700000      0.0000000E+00
 -0.1600000      0.0000000E+00
 -0.1500000      0.0000000E+00
 -0.1400000      0.0000000E+00
 -0.1300000      0.0000000E+00
 -0.1200000      0.0000000E+00
 -0.1100000      0.0000000E+00
 -0.1000000      0.0000000E+00
 -9.0000004E-02  0.0000000E+00
 -7.9999998E-02  0.0000000E+00
 -7.0000000E-02  0.0000000E+00
 -5.9999999E-02  0.0000000E+00
 -5.0000001E-02  0.0000000E+00
 -3.9999999E-02  0.0000000E+00
 -2.9999999E-02  0.0000000E+00
 -2.0000000E-02  0.0000000E+00
 -9.9999998E-03 -1.6060838E-38
 -3.4694470E-17 -2.0815993E-38
  9.9999998E-03 -2.5586732E-38
  2.0000000E-02 -3.0412428E-38
  2.9999999E-02 -3.5139159E-38
  3.9999999E-02 -3.9647966E-38
  5.0000001E-02 -4.3861811E-38
  5.9999999E-02 -4.7851204E-38
  7.0000000E-02 -5.1740138E-38
  7.9999998E-02 -5.5656604E-38
  9.0000004E-02 -5.9834576E-38
  0.1000000     -6.4531907E-38
  0.1100000     -7.0270460E-38
  0.1200000     -7.7335078E-38
  0.1300000     -8.6255571E-38
  0.1400000     -9.7068976E-38
  0.1500000     -1.0891738E-37
  0.1600000     -1.2175090E-37
  0.1700000     -1.3544538E-37
  0.1800000     -1.5029799E-37
  0.1900000     -1.6679558E-37
  0.2000000     -1.8371163E-37
  0.2100000     -2.0075791E-37
  0.2200000     -2.1837907E-37
  0.2300000     -2.2866211E-37
  0.2400000     -2.3025822E-37
  0.2500000     -2.3025778E-37
  0.2600000     -2.2925649E-37
  0.2700000     -2.2091863E-37
  0.2800000     -2.0278771E-37
  0.2900000     -1.7965350E-37
  0.3000000     -1.5453434E-37
  0.3100000     -1.3124577E-37
  0.3200000     -1.6401683E-37
  0.3300000     -2.6255383E-37
  0.3400000     -3.7771397E-37
  0.3500000     -5.0051314E-37
  0.3600000     -6.4112261E-37
  0.3700000     -7.4597009E-37
  0.3800000     -8.0201688E-37
  0.3900000     -8.6929544E-37
  0.4000000     -9.8126568E-37
  0.4100000     -1.1348551E-36
  0.4200000     -1.3037552E-36
  0.4300000     -1.3111698E-36
  0.4400000     -1.1218748E-36
  0.4500000     -8.4688336E-37
  0.4600000     -5.1077800E-37
  0.4700000     -2.1492670E-37
  0.4800000      0.0000000E+00
  0.4900000      3.1931119E-38
  0.5000000     -8.8535433E-38
  0.5100000     -3.3802169E-37
  0.5200000     -7.2259850E-37
  0.5300000     -1.1259583E-36
  0.5400000     -1.3336241E-36
  0.5500000     -1.3191464E-36
  0.5600000     -1.0257662E-36
  0.5700000     -4.4777871E-37
  0.5800000      1.1476157E-37
  0.5900000      5.7724304E-37
  0.6000000      1.5917301E-36
  0.6100000      3.0702407E-36
  0.6200000      4.4146815E-36
  0.6300000      4.9520440E-36
  0.6400000      4.7050299E-36
  0.6500000      4.4598140E-36
  0.6600000      4.1563099E-36
  0.6700000      4.3433006E-36
  0.6800000      5.1335551E-36
  0.6900000      6.1625808E-36
  0.7000000      7.3376131E-36
  0.7100000      8.2243774E-36
  0.7200000      8.7728900E-36
  0.7300000      9.2516743E-36
  0.7400000      9.8144078E-36
  0.7500000      1.0290495E-35
  0.7600000      1.0649324E-35
  0.7700000      1.1133491E-35
  0.7800000      1.1659666E-35
  0.7900000      1.2291604E-35
  0.8000000      1.2995361E-35
  0.8100000      1.2889482E-35
  0.8200000      1.1719504E-35
  0.8300000      1.0866888E-35
  0.8400000      1.0933822E-35
  0.8500000      1.2144389E-35
  0.8600000      1.3579934E-35
  0.8700000      1.3474560E-35
  0.8800000      1.2092940E-35
  0.8900000      1.1252251E-35
  0.9000000      1.1604607E-35
  0.9100000      1.2360101E-35
  0.9200000      1.4039680E-35
  0.9300000      1.5291935E-35
  0.9400000      1.5512617E-35
  0.9500000      1.4409725E-35
  0.9600000      1.1618991E-35
  0.9700000      8.2156810E-36
  0.9800000      4.8191272E-36
  0.9900000      2.3654933E-36
   1.000000      1.0154161E-36
   1.010000      6.6506266E-37
   1.020000      9.3302819E-37
   1.030000      1.7315838E-36
   1.040000      2.5029217E-36
   1.050000      2.0704359E-36
   1.060000      2.4992907E-37
   1.070000     -2.1720550E-36
   1.080000     -4.8555081E-36
   1.090000     -7.6394649E-36
   1.100000     -9.8351311E-36
   1.110000     -1.0843850E-35
   1.120000     -1.1085639E-35
   1.130000     -1.0129707E-35
   1.140000     -9.3304412E-36
   1.150000     -1.1947641E-35
   1.160000     -1.8073795E-35
   1.170000     -2.5576401E-35
   1.180000     -3.2656206E-35
   1.190000     -3.8538554E-35
   1.200000     -4.2934713E-35
   1.210000     -4.7274009E-35
   1.220000     -5.2283205E-35
   1.230000     -5.7152989E-35
   1.240000     -6.2831419E-35
   1.250000     -6.9024586E-35
   1.260000     -7.4873629E-35
   1.270000     -7.9651371E-35
   1.280000     -8.3610451E-35
   1.290000     -8.7408359E-35
   1.300000     -9.0203602E-35
   1.310000     -9.1066529E-35
   1.320000     -9.1009143E-35
   1.330000     -9.0395361E-35
   1.340000     -8.7324428E-35
   1.350000     -8.5449795E-35
   1.360000     -8.4384079E-35
   1.370000     -8.2952185E-35
   1.380000     -8.5702504E-35
   1.390000     -9.3208500E-35
   1.400000     -1.0349966E-34
   1.410000     -1.1675877E-34
   1.420000     -1.3325707E-34
   1.430000     -1.4925712E-34
   1.440000     -1.6137440E-34
   1.450000     -1.6691889E-34
   1.460000     -1.6895931E-34
   1.470000     -1.6864393E-34
   1.480000     -1.6629523E-34
   1.490000     -1.6483207E-34
   1.500000     -1.6254507E-34
   1.510000     -1.6305175E-34
   1.520000     -1.6437598E-34
   1.530000     -1.6201707E-34
   1.540000     -1.6136665E-34
   1.550000     -1.6722253E-34
   1.560000     -1.7512068E-34
   1.570000     -1.7874382E-34
   1.580000     -1.7715864E-34
   1.590000     -1.7128049E-34
   1.600000     -1.6030476E-34
   1.610000     -1.4446602E-34
   1.620000     -1.2727779E-34
   1.630000     -1.1083949E-34
   1.640000     -9.5568259E-35
   1.650000     -8.4558159E-35
   1.660000     -8.5979749E-35
   1.670000     -9.5442439E-35
   1.680000     -1.1276641E-34
   1.690000     -1.3844520E-34
   1.700000     -1.6640099E-34
   1.710000     -2.0298744E-34
   1.720000     -2.4553074E-34
   1.730000     -2.8974016E-34
   1.740000     -3.2507768E-34
   1.750000     -3.5245660E-34
   1.760000     -3.8143974E-34
   1.770000     -4.0644499E-34
   1.780000     -4.0590160E-34
   1.790000     -3.7912852E-34
   1.800000     -3.5628880E-34
   1.810000     -3.3798964E-34
   1.820000     -3.2582876E-34
   1.830000     -3.2315561E-34
   1.840000     -3.2628775E-34
   1.850000     -3.3126618E-34
   1.860000     -3.3047743E-34
   1.870000     -3.3584268E-34
   1.880000     -3.6304643E-34
   1.890000     -4.0932706E-34
   1.900000     -4.6812354E-34
   1.910000     -5.3530474E-34
   1.920000     -6.0373968E-34
   1.930000     -6.7701642E-34
   1.940000     -7.6815925E-34
   1.950000     -8.7637558E-34
   1.960000     -9.8654006E-34
   1.970000     -1.0906546E-33
   1.980000     -1.1900755E-33
   1.990000     -1.2921596E-33
   2.000000     -1.4040492E-33
   2.010000     -1.5158666E-33
   2.020000     -1.6193212E-33
   2.030000     -1.7137404E-33
   2.040000     -1.7919901E-33
   2.050000     -1.8416382E-33
   2.060000     -1.8714109E-33
   2.070000     -1.8859945E-33
   2.080000     -1.8824403E-33
   2.090000     -1.8660506E-33
   2.100000     -1.8333317E-33
   2.110000     -1.7777776E-33
   2.120000     -1.7032920E-33
   2.130000     -1.6270857E-33
   2.140000     -1.5552349E-33
   2.150000     -1.4983555E-33
   2.160000     -1.4705774E-33
   2.170000     -1.4811401E-33
   2.180000     -1.5396361E-33
   2.190000     -1.6447049E-33
   2.200000     -1.7888267E-33
   2.210000     -1.9530258E-33
   2.220000     -2.1066466E-33
   2.230000     -2.2284884E-33
   2.240000     -2.2953500E-33
   2.250000     -2.2829338E-33
   2.260000     -2.1759648E-33
   2.270000     -1.9569575E-33
   2.280000     -1.6132172E-33
   2.290000     -1.1441719E-33
   2.300000     -5.4695343E-34
   2.310000      1.7673102E-34
   2.320000      1.0179741E-33
   2.330000      1.9665537E-33
   2.340000      3.0078070E-33
   2.350000      4.1335032E-33
   2.360000      5.3416858E-33
   2.370000      6.6203974E-33
   2.380000      7.9514368E-33
   2.390000      9.3150617E-33
   2.400000      1.0695724E-32
   2.410000      1.2086517E-32
   2.420000      1.3465275E-32
   2.430000      1.4819725E-32
   2.440000      1.6161947E-32
   2.450000      1.7493241E-32
   2.460000      1.8822581E-32
   2.470000      2.0176228E-32
   2.480000      2.1588622E-32
   2.490000      2.3107862E-32
   2.500000      2.4784752E-32
   2.510000      2.6672143E-32
   2.520000      2.8824750E-32
   2.530000      3.1291134E-32
   2.540000      3.4104882E-32
   2.550000      3.7305330E-32
   2.560000      4.0914277E-32
   2.570000      4.4919427E-32
   2.580000      4.9294476E-32
   2.590000      5.3984701E-32
   2.600000      5.8931799E-32
   2.610000      6.4061333E-32
   2.620000      6.9272570E-32
   2.630000      7.4463570E-32
   2.640000      7.9533619E-32
   2.650000      8.4389598E-32
   2.660000      8.8952549E-32
   2.670000      9.3159685E-32
   2.680000      9.6968486E-32
   2.690000      1.0036033E-31
   2.700000      1.0334121E-31
   2.710000      1.0594340E-31
   2.720000      1.0821910E-31
   2.730000      1.1023751E-31
   2.740000      1.1208836E-31
   2.750000      1.1387076E-31
   2.760000      1.1568705E-31
   2.770000      1.1762926E-31
   2.780000      1.1977703E-31
   2.790000      1.2219555E-31
   2.800000      1.2491802E-31
   2.810000      1.2794075E-31
   2.820000      1.3121667E-31
   2.830000      1.3465070E-31
   2.840000      1.3809691E-31
   2.850000      1.4135905E-31
   2.860000      1.4419397E-31
   2.870000      1.4631594E-31
   2.880000      1.4741517E-31
   2.890000      1.4716557E-31
   2.900000      1.4523529E-31
   2.910000      1.4131223E-31
   2.920000      1.3511915E-31
   2.930000      1.2643059E-31
   2.940000      1.1508518E-31
   2.950000      1.0100394E-31
   2.960000      8.4191662E-32
   2.970000      6.4732805E-32
   2.980000      4.2793352E-32
   2.990000      1.8607176E-32
   3.000000     -7.5406743E-33
   3.010000     -3.5336257E-32
   3.020000     -6.4462129E-32
   3.030000     -9.4625091E-32
   3.040000     -1.2558459E-31
   3.050000     -1.5717963E-31
   3.060000     -1.8935227E-31
   3.070000     -2.2216620E-31
   3.080000     -2.5581882E-31
   3.090000     -2.9064535E-31
   3.100000     -3.2711469E-31
   3.110000     -3.6581589E-31
   3.120000     -4.0743622E-31
   3.130000     -4.5273098E-31
   3.140000     -5.0248627E-31
   3.150000     -5.5747632E-31
   3.160000     -6.1841832E-31
   3.170000     -6.8592587E-31
   3.180000     -7.6046458E-31
   3.190000     -8.4231289E-31
   3.200000     -9.3153131E-31
   3.210000     -1.0279407E-30
   3.220000     -1.1311142E-30
   3.230000     -1.2403830E-30
   3.240000     -1.3548580E-30
   3.250000     -1.4734658E-30
   3.260000     -1.5949993E-30
   3.270000     -1.7181797E-30
   3.280000     -1.8417281E-30
   3.290000     -1.9644408E-30
   3.300000     -2.0852657E-30
   3.310000     -2.2033728E-30
   3.320000     -2.3182140E-30
   3.330000     -2.4295685E-30
   3.340000     -2.5375664E-30
   3.350000     -2.6426904E-30
   3.360000     -2.7457513E-30
   3.370000     -2.8478376E-30
   3.380000     -2.9502392E-30
   3.390000     -3.0543500E-30
   3.400000     -3.1615528E-30
   3.410000     -3.2730927E-30
   3.420000     -3.3899467E-30
   3.430000     -3.5126961E-30
   3.440000     -3.6414148E-30
   3.450000     -3.7755743E-30
   3.460000     -3.9139794E-30
   3.470000     -4.0547370E-30
   3.480000     -4.1952671E-30
   3.490000     -4.3323493E-30
   3.500000     -4.4622176E-30
   3.510000     -4.5806867E-30
   3.520000     -4.6833154E-30
   3.530000     -4.7655948E-30
   3.540000     -4.8231485E-30
   3.550000     -4.8519385E-30
   3.560000     -4.8484613E-30
   3.570000     -4.8099201E-30
   3.580000     -4.7343582E-30
   3.590000     -4.6207453E-30
   3.600000     -4.4690125E-30
   3.610000     -4.2800152E-30
   3.620000     -4.0554337E-30
   3.630000     -3.7976036E-30
   3.640000     -3.5092956E-30
   3.650000     -3.1934401E-30
   3.660000     -2.8528089E-30
   3.670000     -2.4896910E-30
   3.680000     -2.1055647E-30
   3.690000     -1.7007944E-30
   3.700000     -1.2743707E-30
   3.710000     -8.2372071E-31
   3.720000     -3.4459925E-31
   3.730000      1.6891928E-31
   3.740000      7.2433962E-31
   3.750000      1.3305406E-30
   3.760000      1.9974619E-30
   3.770000      2.7356960E-30
   3.780000      3.5560126E-30
   3.790000      4.4688270E-30
   3.800000      5.4836495E-30
   3.810000      6.6085518E-30
   3.820000      7.8496827E-30
   3.830000      9.2108660E-30
   3.840000      1.0693313E-29
   3.850000      1.2295466E-29
   3.860000      1.4013020E-29
   3.870000      1.5839104E-29
   3.880000      1.7764636E-29
   3.890000      1.9778825E-29
   3.900000      2.1869825E-29
   3.910000      2.4025483E-29
   3.920000      2.6234139E-29
   3.930000      2.8485467E-29
   3.940000      3.0771251E-29
   3.950000      3.3086050E-29
   3.960000      3.5427770E-29
   3.970000      3.7797985E-29
   3.980000      4.0202024E-29
   3.990000      4.2648813E-29
   4.000000      4.5150466E-29
   4.010000      4.7721571E-29
   4.020000      5.0378247E-29
   4.030000      5.3137009E-29
   4.040000      5.6013482E-29
   4.050000      5.9021020E-29
   4.060000      6.2169386E-29
   4.070000      6.5463448E-29
   4.080000      6.8902106E-29
   4.090000      7.2477498E-29
   4.100000      7.6174429E-29
   4.110000      7.9970311E-29
   4.120000      8.3835430E-29
   4.130000      8.7733692E-29
   4.140000      9.1623740E-29
   4.150000      9.5460481E-29
   4.160000      9.9196839E-29
   4.170000      1.0278576E-28
   4.180000      1.0618222E-28
   4.190000      1.0934530E-28
   4.200000      1.1223996E-28
   4.210000      1.1483857E-28
   4.220000      1.1712197E-28
   4.230000      1.1908003E-28
   4.240000      1.2071148E-28
   4.250000      1.2202320E-28
   4.260000      1.2302885E-28
   4.270000      1.2374679E-28
   4.280000      1.2419766E-28
   4.290000      1.2440136E-28
   4.300000      1.2437392E-28
   4.310000      1.2412427E-28
   4.320000      1.2365107E-28
   4.330000      1.2294009E-28
   4.340000      1.2196209E-28
   4.350000      1.2067136E-28
   4.360000      1.1900516E-28
   4.370000      1.1688424E-28
   4.380000      1.1421431E-28
   4.390000      1.1088853E-28
   4.400000      1.0679089E-28
   4.410000      1.0180037E-28
   4.420000      9.5795798E-29
   4.430000      8.8660757E-29
   4.440000      8.0288631E-29
   4.450000      7.0587319E-29
   4.460000      5.9483345E-29
   4.470000      4.6924994E-29
   4.480000      3.2884195E-29
   4.490000      1.7357119E-29
   4.500000      3.6317617E-31
   4.510000     -1.8057500E-29
   4.520000     -3.7848020E-29
   4.530000     -5.8940041E-29
   4.540000     -8.1260172E-29
   4.550000     -1.0473708E-28
   4.560000     -1.2930884E-28
   4.570000     -1.5493006E-28
   4.580000     -1.8157858E-28
   4.590000     -2.0926074E-28
   4.600000     -2.3801523E-28
   4.610000     -2.6791491E-28
   4.620000     -2.9906637E-28
   4.630000     -3.3160734E-28
   4.640000     -3.6570162E-28
   4.650000     -4.0153155E-28
   4.660000     -4.3928864E-28
   4.670000     -4.7916328E-28
   4.680000     -5.2133262E-28
   4.690000     -5.6594901E-28
   4.700000     -6.1312822E-28
   4.710000     -6.6293937E-28
   4.720000     -7.1539636E-28
   4.730000     -7.7045263E-28
   4.740000     -8.2799802E-28
   4.750000     -8.8785958E-28
   4.760000     -9.4980615E-28
   4.770000     -1.0135562E-27
   4.780000     -1.0787882E-27
   4.790000     -1.1451552E-27
   4.800000     -1.2122998E-27
   4.810000     -1.2798718E-27
   4.820000     -1.3475438E-27
   4.830000     -1.4150278E-27
   4.840000     -1.4820890E-27
   4.850000     -1.5485547E-27
   4.860000     -1.6143219E-27
   4.870000     -1.6793587E-27
   4.880000     -1.7436988E-27
   4.890000     -1.8074340E-27
   4.900000     -1.8706993E-27
   4.910000     -1.9336539E-27
   4.920000     -1.9964585E-27
   4.930000     -2.0592492E-27
   4.940000     -2.1221131E-27
   4.950000     -2.1850605E-27
   4.960000     -2.2480028E-27
   4.970000     -2.3107317E-27
   4.980000     -2.3729038E-27
   4.990000     -2.4340348E-27
   5.000000     -2.4934957E-27
   5.010000     -2.5505221E-27
   5.020000     -2.6042300E-27
   5.030000     -2.6536370E-27
   5.040000     -2.6976942E-27
   5.050000     -2.7353186E-27
   5.060000     -2.7654316E-27
   5.070000     -2.7869982E-27
   5.080000     -2.7990649E-27
   5.090000     -2.8007921E-27
   5.100000     -2.7914833E-27
   5.110000     -2.7706033E-27
   5.120000     -2.7377876E-27
   5.130000     -2.6928393E-27
   5.140000     -2.6357166E-27
   5.150000     -2.5665062E-27
   5.160000     -2.4853883E-27
   5.170000     -2.3925903E-27
   5.180000     -2.2883349E-27
   5.190000     -2.1727858E-27
   5.200000     -2.0459934E-27
   5.210000     -1.9078397E-27
   5.220000     -1.7579948E-27
   5.230000     -1.5958816E-27
   5.240000     -1.4206548E-27
   5.250000     -1.2311945E-27
   5.260000     -1.0261179E-27
   5.270000     -8.0380757E-28
   5.280000     -5.6245888E-28
   5.290000     -3.0014167E-28
   5.300000     -1.4871172E-29
   5.310000      2.9530626E-28
   5.320000      6.3222729E-28
   5.330000      9.9752790E-28
   5.340000      1.3925618E-27
   5.350000      1.8183327E-27
   5.360000      2.2754429E-27
   5.370000      2.7640600E-27
   5.380000      3.2839101E-27
   5.390000      3.8342966E-27
   5.400000      4.4141409E-27
   5.410000      5.0220511E-27
   5.420000      5.6564069E-27
   5.430000      6.3154667E-27
   5.440000      6.9974797E-27
   5.450000      7.7008031E-27
   5.460000      8.4240176E-27
   5.470000      9.1660299E-27
   5.480000      9.9261528E-27
   5.490000      1.0704165E-26
   5.500000      1.1500338E-26
   5.510000      1.2315421E-26
   5.520000      1.3150596E-26
   5.530000      1.4007401E-26
   5.540000      1.4887600E-26
   5.550000      1.5793045E-26
   5.560000      1.6725500E-26
   5.570000      1.7686469E-26
   5.580000      1.8677005E-26
   5.590000      1.9697538E-26
   5.600000      2.0747727E-26
   5.610000      2.1826333E-26
   5.620000      2.2931134E-26
   5.630000      2.4058893E-26
   5.640000      2.5205369E-26
   5.650000      2.6365402E-26
   5.660000      2.7533024E-26
   5.670000      2.8701641E-26
   5.680000      2.9864234E-26
   5.690000      3.1013607E-26
   5.700000      3.2142624E-26
   5.710000      3.3244472E-26
   5.720000      3.4312895E-26
   5.730000      3.5342392E-26
   5.740000      3.6328354E-26
   5.750000      3.7267173E-26
   5.760000      3.8156250E-26
   5.770000      3.8993952E-26
   5.780000      3.9779457E-26
   5.790000      4.0512574E-26
   5.800000      4.1193457E-26
   5.810000      4.1822290E-26
   5.820000      4.2398932E-26
   5.830000      4.2922535E-26
   5.840000      4.3391205E-26
   5.850000      4.3801671E-26
   5.860000      4.4149035E-26
   5.870000      4.4426572E-26
   5.880000      4.4625633E-26
   5.890000      4.4735639E-26
   5.900000      4.4744218E-26
   5.910000      4.4637442E-26
   5.920000      4.4400139E-26
   5.930000      4.4016312E-26
   5.940000      4.3469644E-26
   5.950000      4.2744009E-26
   5.960000      4.1824037E-26
   5.970000      4.0695602E-26
   5.980000      3.9346305E-26
   5.990000      3.7765850E-26
   6.000000      3.5946305E-26
   6.010000      3.3882220E-26
   6.020000      3.1570626E-26
   6.030000      2.9010844E-26
   6.040000      2.6204141E-26
   6.050000      2.3153272E-26
   6.060000      1.9861858E-26
   6.070000      1.6333763E-26
   6.080000      1.2572365E-26
   6.090000      8.5798415E-27
   6.100000      4.3564967E-27
   6.110000     -9.9810170E-29
   6.120000     -4.7940822E-27
   6.130000     -9.7344211E-27
   6.140000     -1.4932098E-26
   6.150000     -2.0401405E-26
   6.160000     -2.6159225E-26
   6.170000     -3.2224463E-26
   6.180000     -3.8617194E-26
   6.190000     -4.5357761E-26
   6.200000     -5.2465684E-26
   6.210000     -5.9958624E-26
   6.220000     -6.7851258E-26
   6.230000     -7.6154241E-26
   6.240000     -8.4873422E-26
   6.250000     -9.4009164E-26
   6.260000     -1.0355599E-25
   6.270000     -1.1350248E-25
   6.280000     -1.2383150E-25
   6.290000     -1.3452070E-25
   6.300000     -1.4554339E-25
   6.310000     -1.5686954E-25
   6.320000     -1.6846718E-25
   6.330000     -1.8030366E-25
   6.340000     -1.9234719E-25
   6.350000     -2.0456811E-25
   6.360000     -2.1694025E-25
   6.370000     -2.2944185E-25
   6.380000     -2.4205620E-25
   6.390000     -2.5477200E-25
   6.400000     -2.6758322E-25
   6.410000     -2.8048852E-25
   6.420000     -2.9349035E-25
   6.430000     -3.0659353E-25
   6.440000     -3.1980350E-25
   6.450000     -3.3312437E-25
   6.460000     -3.4655692E-25
   6.470000     -3.6009642E-25
   6.480000     -3.7373067E-25
   6.490000     -3.8743829E-25
   6.500000     -4.0118727E-25
   6.510000     -4.1493408E-25
   6.520000     -4.2862348E-25
   6.530000     -4.4218854E-25
   6.540000     -4.5555164E-25
   6.550000     -4.6862598E-25
   6.560000     -4.8131747E-25
   6.570000     -4.9352731E-25
   6.580000     -5.0515462E-25
   6.590000     -5.1609933E-25
   6.600000     -5.2626504E-25
   6.610000     -5.3556181E-25
   6.620000     -5.4390835E-25
   6.630000     -5.5123367E-25
   6.640000     -5.5747839E-25
   6.650000     -5.6259499E-25
   6.660000     -5.6654694E-25
   6.670000     -5.6930765E-25
   6.680000     -5.7085811E-25
   6.690000     -5.7118401E-25
   6.700000     -5.7027238E-25
   6.710000     -5.6810799E-25
   6.720000     -5.6466905E-25
   6.730000     -5.5992366E-25
   6.740000     -5.5382650E-25
   6.750000     -5.4631630E-25
   6.760000     -5.3731343E-25
   6.770000     -5.2671912E-25
   6.780000     -5.1441575E-25
   6.790000     -5.0026803E-25
   6.800000     -4.8412581E-25
   6.810000     -4.6582759E-25
   6.820000     -4.4520509E-25
   6.830000     -4.2208841E-25
   6.840000     -3.9631147E-25
   6.850000     -3.6771807E-25
   6.860000     -3.3616728E-25
   6.870000     -3.0153809E-25
   6.880000     -2.6373397E-25
   6.890000     -2.2268552E-25
   6.900000     -1.7835163E-25
   6.910000     -1.3071950E-25
   6.920000     -7.9803024E-26
   6.930000     -2.5639121E-26
   6.940000      3.1716824E-26
   6.950000      9.2196688E-26
   6.960000      1.5572632E-25
   6.970000      2.2223294E-25
   6.980000      2.9165221E-25
   6.990000      3.6393474E-25
   7.000000      4.3905193E-25
   7.010000      5.1700006E-25
   7.020000      5.9780239E-25
   7.030000      6.8151040E-25
   7.040000      7.6820192E-25
   7.050000      8.5797695E-25
   7.060000      9.5095190E-25