  -2.600000      0.0000000E+00
  -2.590000      0.0000000E+00
  -2.580000      0.0000000E+00
  -2.570000      0.0000000E+00
  -2.560000      0.0000000E+00
  -2.550000      0.0000000E+00
  -2.540000      0.0000000E+00
  -2.530000      0.0000000E+00
  -2.520000      0.0000000E+00
  -2.510000      0.0000000E+00
  -2.500000      0.0000000E+00
  -2.490000      0.0000000E+00
  -2.480000      0.0000000E+00
  -2.470000      0.0000000E+00
  -2.460000      0.0000000E+00
  -2.450000      0.0000000E+00
  -2.440000      0.0000000E+00
  -2.430000      0.0000000E+00
  -2.420000      0.0000000E+00
  -2.410000      0.0000000E+00
  -2.400000      0.0000000E+00
  -2.390000      0.0000000E+00
  -2.380000      0.0000000E+00
  -2.370000      0.0000000E+00
  -2.360000      0.0000000E+00
  -2.350000      0.0000000E+00
  -2.340000      0.0000000E+00
  -2.330000      0.0000000E+00
  -2.320000      0.0000000E+00
  -2.310000      0.0000000E+00
  -2.300000      0.0000000E+00
  -2.290000      0.0000000E+00
  -2.280000      0.0000000E+00
  -2.270000      0.0000000E+00
  -2.260000      0.0000000E+00
  -2.250000      0.0000000E+00
  -2.240000      0.0000000E+00
  -2.230000      0.0000000E+00
  -2.220000      0.0000000E+00
  -2.210000      0.0000000E+00
  -2.200000      0.0000000E+00
  -2.190000      0.0000000E+00
  -2.180000      0.0000000E+00
  -2.170000      0.0000000E+00
  -2.160000      0.0000000E+00
  -2.150000      0.0000000E+00
  -2.140000      0.0000000E+00
  -2.130000      0.0000000E+00
  -2.120000      0.0000000E+00
  -2.110000      0.0000000E+00
  -2.100000      0.0000000E+00
  -2.090000      0.0000000E+00
  -2.080000      0.0000000E+00
  -2.070000      0.0000000E+00
  -2.060000      0.0000000E+00
  -2.050000      0.0000000E+00
  -2.040000      0.0000000E+00
  -2.030000      0.0000000E+00
  -2.020000      0.0000000E+00
  -2.010000      0.0000000E+00
  -2.000000      0.0000000E+00
  -1.990000      0.0000000E+00
  -1.980000      0.0000000E+00
  -1.970000      0.0000000E+00
  -1.960000      0.0000000E+00
  -1.950000      0.0000000E+00
  -1.940000      0.0000000E+00
  -1.930000      0.0000000E+00
  -1.920000      0.0000000E+00
  -1.910000      0.0000000E+00
  -1.900000      0.0000000E+00
  -1.890000      0.0000000E+00
  -1.880000      0.0000000E+00
  -1.870000      0.0000000E+00
  -1.860000      0.0000000E+00
  -1.850000      0.0000000E+00
  -1.840000      0.0000000E+00
  -1.830000      0.0000000E+00
  -1.820000      0.0000000E+00
  -1.810000      0.0000000E+00
  -1.800000      0.0000000E+00
  -1.790000      0.0000000E+00
  -1.780000      0.0000000E+00
  -1.770000      0.0000000E+00
  -1.760000      0.0000000E+00
  -1.750000      0.0000000E+00
  -1.740000      0.0000000E+00
  -1.730000      0.0000000E+00
  -1.720000      0.0000000E+00
  -1.710000      0.0000000E+00
  -1.700000      0.0000000E+00
  -1.690000      0.0000000E+00
  -1.680000      0.0000000E+00
  -1.670000      0.0000000E+00
  -1.660000      0.0000000E+00
  -1.650000      0.0000000E+00
  -1.640000      0.0000000E+00
  -1.630000      0.0000000E+00
  -1.620000      0.0000000E+00
  -1.610000      0.0000000E+00
  -1.600000      0.0000000E+00
  -1.590000      0.0000000E+00
  -1.580000      0.0000000E+00
  -1.570000      0.0000000E+00
  -1.560000      0.0000000E+00
  -1.550000      0.0000000E+00
  -1.540000      0.0000000E+00
  -1.530000      0.0000000E+00
  -1.520000      0.0000000E+00
  -1.510000      0.0000000E+00
  -1.500000      0.0000000E+00
  -1.490000      0.0000000E+00
  -1.480000      0.0000000E+00
  -1.470000      0.0000000E+00
  -1.460000      0.0000000E+00
  -1.450000      0.0000000E+00
  -1.440000      0.0000000E+00
  -1.430000      0.0000000E+00
  -1.420000      0.0000000E+00
  -1.410000      0.0000000E+00
  -1.400000      0.0000000E+00
  -1.390000      0.0000000E+00
  -1.380000      0.0000000E+00
  -1.370000      0.0000000E+00
  -1.360000      0.0000000E+00
  -1.350000      0.0000000E+00
  -1.340000      0.0000000E+00
  -1.330000      0.0000000E+00
  -1.320000      0.0000000E+00
  -1.310000      0.0000000E+00
  -1.300000      0.0000000E+00
  -1.290000      0.0000000E+00
  -1.280000      0.0000000E+00
  -1.270000      0.0000000E+00
  -1.260000      0.0000000E+00
  -1.250000      0.0000000E+00
  -1.240000      0.0000000E+00
  -1.230000      0.0000000E+00
  -1.220000      0.0000000E+00
  -1.210000      0.0000000E+00
  -1.200000      0.0000000E+00
  -1.190000      0.0000000E+00
  -1.180000      0.0000000E+00
  -1.170000      0.0000000E+00
  -1.160000      0.0000000E+00
  -1.150000      0.0000000E+00
  -1.140000      0.0000000E+00
  -1.130000      0.0000000E+00
  -1.120000      0.0000000E+00
  -1.110000      0.0000000E+00
  -1.100000      0.0000000E+00
  -1.090000      0.0000000E+00
  -1.080000      0.0000000E+00
  -1.070000      0.0000000E+00
  -1.060000      0.0000000E+00
  -1.050000      0.0000000E+00
  -1.040000      0.0000000E+00
  -1.030000      0.0000000E+00
  -1.020000      0.0000000E+00
  -1.010000      0.0000000E+00
  -1.000000      0.0000000E+00
 -0.9900000      0.0000000E+00
 -0.9800000      0.0000000E+00
 -0.9700000      0.0000000E+00
 -0.9600000      0.0000000E+00
 -0.9500000      0.0000000E+00
 -0.9400000      0.0000000E+00
 -0.9300000      0.0000000E+00
 -0.9200000      0.0000000E+00
 -0.9100000      0.0000000E+00
 -0.9000000      0.0000000E+00
 -0.8900000      0.0000000E+00
 -0.8800000      0.0000000E+00
 -0.8700000      0.0000000E+00
 -0.8600000      0.0000000E+00
 -0.8500000      0.0000000E+00
 -0.8400000      0.0000000E+00
 -0.8300000      0.0000000E+00
 -0.8200000      0.0000000E+00
 -0.8100000      0.0000000E+00
 -0.8000000      0.0000000E+00
 -0.7900000      0.0000000E+00
 -0.7800000      0.0000000E+00
 -0.7700000      0.0000000E+00
 -0.7600000      0.0000000E+00
 -0.7500000      0.0000000E+00
 -0.7400000      0.0000000E+00
 -0.7300000      0.0000000E+00
 -0.7200000      0.0000000E+00
 -0.7100000      0.0000000E+00
 -0.7000000      0.0000000E+00
 -0.6900000      0.0000000E+00
 -0.6800000      0.0000000E+00
 -0.6700000      0.0000000E+00
 -0.6600000      0.0000000E+00
 -0.6500000      0.0000000E+00
 -0.6400000      0.0000000E+00
 -0.6300000      0.0000000E+00
 -0.6200000      0.0000000E+00
 -0.6100000      0.0000000E+00
 -0.6000000      0.0000000E+00
 -0.5900000      0.0000000E+00
 -0.5800000      0.0000000E+00
 -0.5700000      0.0000000E+00
 -0.5600000      0.0000000E+00
 -0.5500000      0.0000000E+00
 -0.5400000      0.0000000E+00
 -0.5300000      0.0000000E+00
 -0.5200000      0.0000000E+00
 -0.5100000      0.0000000E+00
 -0.5000000      0.0000000E+00
 -0.4900000      0.0000000E+00
 -0.4800000      0.0000000E+00
 -0.4700000      0.0000000E+00
 -0.4600000      0.0000000E+00
 -0.4500000      0.0000000E+00
 -0.4400000      0.0000000E+00
 -0.4300000      0.0000000E+00
 -0.4200000      0.0000000E+00
 -0.4100000      0.0000000E+00
 -0.4000000      0.0000000E+00
 -0.3900000      0.0000000E+00
 -0.3800000      0.0000000E+00
 -0.3700000      0.0000000E+00
 -0.3600000      0.0000000E+00
 -0.3500000      0.0000000E+00
 -0.3400000      0.0000000E+00
 -0.3300000      0.0000000E+00
 -0.3200000      0.0000000E+00
 -0.3100000      0.0000000E+00
 -0.3000000      0.0000000E+00
 -0.2900000      0.0000000E+00
 -0.2800000      0.0000000E+00
 -0.2700000      0.0000000E+00
 -0.2600000      0.0000000E+00
 -0.2500000      0.0000000E+00
 -0.2400000      0.0000000E+00
 -0.2300000      0.0000000E+00
 -0.2200000      0.0000000E+00
 -0.2100000      0.0000000E+00
 -0.2000000      0.0000000E+00
 -0.1900000      0.0000000E+00
 -0.1800000      0.0000000E+00
 -0.1700000      0.0000000E+00
 -0.1600000      0.0000000E+00
 -0.1500000      0.0000000E+00
 -0.1400000      0.0000000E+00
 -0.1300000      0.0000000E+00
 -0.1200000      0.0000000E+00
 -0.1100000      0.0000000E+00
 -0.1000000      0.0000000E+00
 -9.0000004E-02  0.0000000E+00
 -7.9999998E-02  0.0000000E+00
 -7.0000000E-02  0.0000000E+00
 -5.9999999E-02  0.0000000E+00
 -5.0000001E-02  0.0000000E+00
 -3.9999999E-02  0.0000000E+00
 -2.9999999E-02  0.0000000E+00
 -2.0000000E-02  0.0000000E+00
 -9.9999998E-03  0.0000000E+00
 -3.4694470E-17  0.0000000E+00
  9.9999998E-03  0.0000000E+00
  2.0000000E-02  0.0000000E+00
  2.9999999E-02  0.0000000E+00
  3.9999999E-02  0.0000000E+00
  5.0000001E-02  0.0000000E+00
  5.9999999E-02  0.0000000E+00
  7.0000000E-02  0.0000000E+00
  7.9999998E-02  0.0000000E+00
  9.0000004E-02  0.0000000E+00
  0.1000000      0.0000000E+00
  0.1100000      0.0000000E+00
  0.1200000      0.0000000E+00
  0.1300000      0.0000000E+00
  0.1400000      0.0000000E+00
  0.1500000      0.0000000E+00
  0.1600000      0.0000000E+00
  0.1700000      0.0000000E+00
  0.1800000      0.0000000E+00
  0.1900000      0.0000000E+00
  0.2000000      0.0000000E+00
  0.2100000      0.0000000E+00
  0.2200000      0.0000000E+00
  0.2300000      0.0000000E+00
  0.2400000      0.0000000E+00
  0.2500000      0.0000000E+00
  0.2600000      0.0000000E+00
  0.2700000      0.0000000E+00
  0.2800000      0.0000000E+00
  0.2900000      0.0000000E+00
  0.3000000      0.0000000E+00
  0.3100000      0.0000000E+00
  0.3200000      0.0000000E+00
  0.3300000      0.0000000E+00
  0.3400000      0.0000000E+00
  0.3500000      0.0000000E+00
  0.3600000      0.0000000E+00
  0.3700000      0.0000000E+00
  0.3800000      0.0000000E+00
  0.3900000      0.0000000E+00
  0.4000000      0.0000000E+00
  0.4100000      0.0000000E+00
  0.4200000      0.0000000E+00
  0.4300000      0.0000000E+00
  0.4400000      0.0000000E+00
  0.4500000      0.0000000E+00
  0.4600000      0.0000000E+00
  0.4700000      0.0000000E+00
  0.4800000      0.0000000E+00
  0.4900000      0.0000000E+00
  0.5000000      0.0000000E+00
  0.5100000      0.0000000E+00
  0.5200000      0.0000000E+00
  0.5300000      0.0000000E+00
  0.5400000      0.0000000E+00
  0.5500000      0.0000000E+00
  0.5600000      0.0000000E+00
  0.5700000      0.0000000E+00
  0.5800000      0.0000000E+00
  0.5900000      0.0000000E+00
  0.6000000      0.0000000E+00
  0.6100000      0.0000000E+00
  0.6200000      0.0000000E+00
  0.6300000      0.0000000E+00
  0.6400000      0.0000000E+00
  0.6500000      0.0000000E+00
  0.6600000      0.0000000E+00
  0.6700000      0.0000000E+00
  0.6800000      0.0000000E+00
  0.6900000      0.0000000E+00
  0.7000000      0.0000000E+00
  0.7100000      0.0000000E+00
  0.7200000      0.0000000E+00
  0.7300000      0.0000000E+00
  0.7400000      0.0000000E+00
  0.7500000      0.0000000E+00
  0.7600000      0.0000000E+00
  0.7700000      0.0000000E+00
  0.7800000      0.0000000E+00
  0.7900000      0.0000000E+00
  0.8000000      0.0000000E+00
  0.8100000      0.0000000E+00
  0.8200000      0.0000000E+00
  0.8300000      0.0000000E+00
  0.8400000      0.0000000E+00
  0.8500000      0.0000000E+00
  0.8600000      0.0000000E+00
  0.8700000      0.0000000E+00
  0.8800000      0.0000000E+00
  0.8900000      0.0000000E+00
  0.9000000      0.0000000E+00
  0.9100000      0.0000000E+00
  0.9200000      0.0000000E+00
  0.9300000      0.0000000E+00
  0.9400000      0.0000000E+00
  0.9500000      0.0000000E+00
  0.9600000      0.0000000E+00
  0.9700000      0.0000000E+00
  0.9800000      0.0000000E+00
  0.9900000      0.0000000E+00
   1.000000      0.0000000E+00
   1.010000      0.0000000E+00
   1.020000      0.0000000E+00
   1.030000      0.0000000E+00
   1.040000      0.0000000E+00
   1.050000      0.0000000E+00
   1.060000      0.0000000E+00
   1.070000      0.0000000E+00
   1.080000      0.0000000E+00
   1.090000      0.0000000E+00
   1.100000      0.0000000E+00
   1.110000      0.0000000E+00
   1.120000      0.0000000E+00
   1.130000      0.0000000E+00
   1.140000      0.0000000E+00
   1.150000      0.0000000E+00
   1.160000      0.0000000E+00
   1.170000      0.0000000E+00
   1.180000      0.0000000E+00
   1.190000      0.0000000E+00
   1.200000      0.0000000E+00
   1.210000      0.0000000E+00
   1.220000      0.0000000E+00
   1.230000      0.0000000E+00
   1.240000      0.0000000E+00
   1.250000      0.0000000E+00
   1.260000      0.0000000E+00
   1.270000      0.0000000E+00
   1.280000      0.0000000E+00
   1.290000      0.0000000E+00
   1.300000      0.0000000E+00
   1.310000      0.0000000E+00
   1.320000      0.0000000E+00
   1.330000      0.0000000E+00
   1.340000      0.0000000E+00
   1.350000      0.0000000E+00
   1.360000      0.0000000E+00
   1.370000      0.0000000E+00
   1.380000      0.0000000E+00
   1.390000      0.0000000E+00
   1.400000      0.0000000E+00
   1.410000      0.0000000E+00
   1.420000      0.0000000E+00
   1.430000      0.0000000E+00
   1.440000      0.0000000E+00
   1.450000      0.0000000E+00
   1.460000      0.0000000E+00
   1.470000      0.0000000E+00
   1.480000      0.0000000E+00
   1.490000      0.0000000E+00
   1.500000      0.0000000E+00
   1.510000      0.0000000E+00
   1.520000      0.0000000E+00
   1.530000      0.0000000E+00
   1.540000      0.0000000E+00
   1.550000      0.0000000E+00
   1.560000      0.0000000E+00
   1.570000      0.0000000E+00
   1.580000      0.0000000E+00
   1.590000      0.0000000E+00
   1.600000      0.0000000E+00
   1.610000      0.0000000E+00
   1.620000      0.0000000E+00
   1.630000      0.0000000E+00
   1.640000      0.0000000E+00
   1.650000      0.0000000E+00
   1.660000      0.0000000E+00
   1.670000      0.0000000E+00
   1.680000      0.0000000E+00
   1.690000      0.0000000E+00
   1.700000      0.0000000E+00
   1.710000      0.0000000E+00
   1.720000      0.0000000E+00
   1.730000      0.0000000E+00
   1.740000      0.0000000E+00
   1.750000      0.0000000E+00
   1.760000      0.0000000E+00
   1.770000      0.0000000E+00
   1.780000      0.0000000E+00
   1.790000      0.0000000E+00
   1.800000      0.0000000E+00
   1.810000      0.0000000E+00
   1.820000      0.0000000E+00
   1.830000      0.0000000E+00
   1.840000      0.0000000E+00
   1.850000      0.0000000E+00
   1.860000      0.0000000E+00
   1.870000      0.0000000E+00
   1.880000      0.0000000E+00
   1.890000      0.0000000E+00
   1.900000      0.0000000E+00
   1.910000      0.0000000E+00
   1.920000      0.0000000E+00
   1.930000      0.0000000E+00
   1.940000      0.0000000E+00
   1.950000      0.0000000E+00
   1.960000      0.0000000E+00
   1.970000      0.0000000E+00
   1.980000      0.0000000E+00
   1.990000      0.0000000E+00
   2.000000      0.0000000E+00
   2.010000      0.0000000E+00
   2.020000      0.0000000E+00
   2.030000      0.0000000E+00
   2.040000      0.0000000E+00
   2.050000      0.0000000E+00
   2.060000      0.0000000E+00
   2.070000      0.0000000E+00
   2.080000      0.0000000E+00
   2.090000      0.0000000E+00
   2.100000      0.0000000E+00
   2.110000      0.0000000E+00
   2.120000      0.0000000E+00
   2.130000      0.0000000E+00
   2.140000      0.0000000E+00
   2.150000      0.0000000E+00
   2.160000      0.0000000E+00
   2.170000      0.0000000E+00
   2.180000      0.0000000E+00
   2.190000      0.0000000E+00
   2.200000      0.0000000E+00
   2.210000      0.0000000E+00
   2.220000      0.0000000E+00
   2.230000      0.0000000E+00
   2.240000      0.0000000E+00
   2.250000      0.0000000E+00
   2.260000      0.0000000E+00
   2.270000      0.0000000E+00
   2.280000      0.0000000E+00
   2.290000      0.0000000E+00
   2.300000      0.0000000E+00
   2.310000      0.0000000E+00
   2.320000      0.0000000E+00
   2.330000      0.0000000E+00
   2.340000      0.0000000E+00
   2.350000      0.0000000E+00
   2.360000      0.0000000E+00
   2.370000      0.0000000E+00
   2.380000      0.0000000E+00
   2.390000      0.0000000E+00
   2.400000      0.0000000E+00
   2.410000      0.0000000E+00
   2.420000      0.0000000E+00
   2.430000      0.0000000E+00
   2.440000      0.0000000E+00
   2.450000      0.0000000E+00
   2.460000      0.0000000E+00
   2.470000      0.0000000E+00
   2.480000      0.0000000E+00
   2.490000      0.0000000E+00
   2.500000      0.0000000E+00
   2.510000      0.0000000E+00
   2.520000      0.0000000E+00
   2.530000      0.0000000E+00
   2.540000      0.0000000E+00
   2.550000     -1.2456405E-38
   2.560000     -1.3122311E-38
   2.570000     -1.3545622E-38
   2.580000     -1.3927655E-38
   2.590000     -1.4470231E-38
   2.600000     -1.5105735E-38
   2.610000     -1.5683182E-38
   2.620000     -1.5791116E-38
   2.630000     -1.5423427E-38
   2.640000     -1.5127230E-38
   2.650000     -1.4333770E-38
   2.660000     -1.2964833E-38
   2.670000      0.0000000E+00
   2.680000      0.0000000E+00
   2.690000      0.0000000E+00
   2.700000      0.0000000E+00
   2.710000      0.0000000E+00
   2.720000      0.0000000E+00
   2.730000      0.0000000E+00
   2.740000      0.0000000E+00
   2.750000      0.0000000E+00
   2.760000      0.0000000E+00
   2.770000      0.0000000E+00
   2.780000      0.0000000E+00
   2.790000      0.0000000E+00
   2.800000      0.0000000E+00
   2.810000      0.0000000E+00
   2.820000      1.3034138E-38
   2.830000      1.5444071E-38
   2.840000      1.7660965E-38
   2.850000      1.9893206E-38
   2.860000      2.2352986E-38
   2.870000      2.4924716E-38
   2.880000      2.7463272E-38
   2.890000      2.9954747E-38
   2.900000      2.9490845E-38
   2.910000      2.5372073E-38
   2.920000      2.0453477E-38
   2.930000      1.6588476E-38
   2.940000      1.6189641E-38
   2.950000      1.8048628E-38
   2.960000      2.0958162E-38
   2.970000      2.5062795E-38
   2.980000      2.9345342E-38
   2.990000      3.3920327E-38
   3.000000      3.8855565E-38
   3.010000      5.1665712E-38
   3.020000      7.6434671E-38
   3.030000      1.0710997E-37
   3.040000      1.4120100E-37
   3.050000      1.7842119E-37
   3.060000      2.1540251E-37
   3.070000      2.5286917E-37
   3.080000      2.9254422E-37
   3.090000      3.3558753E-37
   3.100000      3.8267555E-37
   3.110000      4.3313293E-37
   3.120000      4.7020868E-37
   3.130000      4.9305962E-37
   3.140000      5.1768167E-37
   3.150000      5.4554208E-37
   3.160000      5.8566429E-37
   3.170000      6.5363681E-37
   3.180000      7.4672886E-37
   3.190000      8.3215712E-37
   3.200000      9.0786912E-37
   3.210000      9.8974971E-37
   3.220000      1.0858801E-36
   3.230000      1.1989978E-36
   3.240000      1.3196035E-36
   3.250000      1.4485615E-36
   3.260000      1.5880847E-36
   3.270000      1.7380644E-36
   3.280000      1.8993713E-36
   3.290000      2.0751924E-36
   3.300000      2.2730150E-36
   3.310000      2.4916315E-36
   3.320000      2.7240986E-36
   3.330000      2.9668610E-36
   3.340000      3.2191861E-36
   3.350000      3.4789446E-36
   3.360000      3.7157463E-36
   3.370000      3.9278630E-36
   3.380000      4.1347472E-36
   3.390000      4.3272875E-36
   3.400000      4.5113036E-36
   3.410000      4.6986932E-36
   3.420000      4.8931950E-36
   3.430000      5.1039812E-36
   3.440000      5.0855456E-36
   3.450000      4.7987982E-36
   3.460000      4.4567042E-36
   3.470000      4.1800949E-36
   3.480000      3.8073999E-36
   3.490000      3.2500155E-36
   3.500000      2.6480319E-36
   3.510000      1.9824903E-36
   3.520000      1.2824475E-36
   3.530000      7.3607437E-37
   3.540000      5.0468363E-37
   3.550000      3.7911522E-37
   3.560000      1.4640371E-37
   3.570000     -6.0333399E-38
   3.580000     -8.6785418E-38
   3.590000      2.0822342E-38
   3.600000      1.8777246E-37
   3.610000      2.3190207E-37
   3.620000     -6.7121821E-38
   3.630000     -6.6553736E-37
   3.640000     -1.4272757E-36
   3.650000     -2.3979618E-36
   3.660000     -3.8402925E-36
   3.670000     -5.7437768E-36
   3.680000     -7.9944328E-36
   3.690000     -1.0611178E-35
   3.700000     -1.3624952E-35
   3.710000     -1.7290761E-35
   3.720000     -2.1306532E-35
   3.730000     -2.5236529E-35
   3.740000     -2.9484862E-35
   3.750000     -3.4198067E-35
   3.760000     -3.9027420E-35
   3.770000     -4.3417222E-35
   3.780000     -4.7213432E-35
   3.790000     -5.0962691E-35
   3.800000     -5.4857331E-35
   3.810000     -5.8796689E-35
   3.820000     -6.2780593E-35
   3.830000     -6.6684164E-35
   3.840000     -7.0173735E-35
   3.850000     -7.3463736E-35
   3.860000     -7.7098821E-35
   3.870000     -8.1270764E-35
   3.880000     -8.5874127E-35
   3.890000     -9.1170665E-35
   3.900000     -9.7318202E-35
   3.910000     -1.0406268E-34
   3.920000     -1.1137949E-34
   3.930000     -1.1924793E-34
   3.940000     -1.2727114E-34
   3.950000     -1.3526987E-34
   3.960000     -1.4398772E-34
   3.970000     -1.5295538E-34
   3.980000     -1.6182384E-34
   3.990000     -1.7084281E-34
   4.000000     -1.7932358E-34
   4.010000     -1.8725071E-34
   4.020000     -1.9432040E-34
   4.030000     -1.9990923E-34
   4.040000     -2.0469905E-34
   4.050000     -2.0912469E-34
   4.060000     -2.1257615E-34
   4.070000     -2.1470000E-34
   4.080000     -2.1549564E-34
   4.090000     -2.1528020E-34
   4.100000     -2.1518439E-34
   4.110000     -2.1268460E-34
   4.120000     -2.0783780E-34
   4.130000     -2.0276109E-34
   4.140000     -1.9631787E-34
   4.150000     -1.9105581E-34
   4.160000     -1.8718542E-34
   4.170000     -1.8267018E-34
   4.180000     -1.7778416E-34
   4.190000     -1.7019000E-34
   4.200000     -1.5937251E-34
   4.210000     -1.4517110E-34
   4.220000     -1.2367415E-34
   4.230000     -1.0053304E-34
   4.240000     -7.9426678E-35
   4.250000     -5.8855470E-35
   4.260000     -3.8160989E-35
   4.270000     -1.3131120E-35
   4.280000      1.3674816E-35
   4.290000      3.8752355E-35
   4.300000      6.5054831E-35
   4.310000      9.5178285E-35
   4.320000      1.2958653E-34
   4.330000      1.6940765E-34
   4.340000      2.1487910E-34
   4.350000      2.6489242E-34
   4.360000      3.1846029E-34
   4.370000      3.7646784E-34
   4.380000      4.4223677E-34
   4.390000      5.1820851E-34
   4.400000      6.0258233E-34
   4.410000      6.8730865E-34
   4.420000      7.7134837E-34
   4.430000      8.6057179E-34
   4.440000      9.5529506E-34
   4.450000      1.0542487E-33
   4.460000      1.1573669E-33
   4.470000      1.2658441E-33
   4.480000      1.3793783E-33
   4.490000      1.4966566E-33
   4.500000      1.6178354E-33
   4.510000      1.7476333E-33
   4.520000      1.8844726E-33
   4.530000      2.0246173E-33
   4.540000      2.1702970E-33
   4.550000      2.3217650E-33
   4.560000      2.4786619E-33
   4.570000      2.6396501E-33
   4.580000      2.8071127E-33
   4.590000      2.9836973E-33
   4.600000      3.1697547E-33
   4.610000      3.3591533E-33
   4.620000      3.5524314E-33
   4.630000      3.7550260E-33
   4.640000      3.9664555E-33
   4.650000      4.1864449E-33
   4.660000      4.4086978E-33
   4.670000      4.6230701E-33
   4.680000      4.8284768E-33
   4.690000      5.0340751E-33
   4.700000      5.2379650E-33
   4.710000      5.4330071E-33
   4.720000      5.6189901E-33
   4.730000      5.7963182E-33
   4.740000      5.9617834E-33
   4.750000      6.1148261E-33
   4.760000      6.2564607E-33
   4.770000      6.3872763E-33
   4.780000      6.5103263E-33
   4.790000      6.6248885E-33
   4.800000      6.7295597E-33
   4.810000      6.8230776E-33
   4.820000      6.9047774E-33
   4.830000      6.9724080E-33
   4.840000      7.0235626E-33
   4.850000      7.0579502E-33
   4.860000      7.0753497E-33
   4.870000      7.0691211E-33
   4.880000      7.0328409E-33
   4.890000      6.9596789E-33
   4.900000      6.8406373E-33
   4.910000      6.6776432E-33
   4.920000      6.4659110E-33
   4.930000      6.1935034E-33
   4.940000      5.8572261E-33
   4.950000      5.4559454E-33
   4.960000      4.9854119E-33
   4.970000      4.4432570E-33
   4.980000      3.8275272E-33
   4.990000      3.1371457E-33
   5.000000      2.3721109E-33
   5.010000      1.5326139E-33
   5.020000      6.1921943E-34
   5.030000     -3.6547527E-34
   5.040000     -1.4229491E-33
   5.050000     -2.5569765E-33
   5.060000     -3.7685827E-33
   5.070000     -5.0610623E-33
   5.080000     -6.4375698E-33
   5.090000     -7.9018890E-33
   5.100000     -9.4580621E-33
   5.110000     -1.1107180E-32
   5.120000     -1.2854940E-32
   5.130000     -1.4713943E-32
   5.140000     -1.6693523E-32
   5.150000     -1.8800716E-32
   5.160000     -2.1041928E-32
   5.170000     -2.3427072E-32
   5.180000     -2.5964072E-32
   5.190000     -2.8656768E-32
   5.200000     -3.1508712E-32
   5.210000     -3.4523869E-32
   5.220000     -3.7701610E-32
   5.230000     -4.1034750E-32
   5.240000     -4.4518058E-32
   5.250000     -4.8144149E-32
   5.260000     -5.1900333E-32
   5.270000     -5.5774885E-32
   5.280000     -5.9758659E-32
   5.290000     -6.3839582E-32
   5.300000     -6.8004635E-32
   5.310000     -7.2241692E-32
   5.320000     -7.6539905E-32
   5.330000     -8.0889857E-32
   5.340000     -8.5283679E-32
   5.350000     -8.9715457E-32
   5.360000     -9.4181013E-32
   5.370000     -9.8677814E-32
   5.380000     -1.0320450E-31
   5.390000     -1.0776028E-31
   5.400000     -1.1234415E-31
   5.410000     -1.1695398E-31
   5.420000     -1.2158600E-31
   5.430000     -1.2623264E-31
   5.440000     -1.3088237E-31
   5.450000     -1.3551969E-31
   5.460000     -1.4012285E-31
   5.470000     -1.4466383E-31
   5.480000     -1.4910890E-31
   5.490000     -1.5341811E-31
   5.500000     -1.5754421E-31
   5.510000     -1.6143666E-31
   5.520000     -1.6504068E-31
   5.530000     -1.6829635E-31
   5.540000     -1.7114323E-31
   5.550000     -1.7352054E-31
   5.560000     -1.7536803E-31
   5.570000     -1.7662868E-31
   5.580000     -1.7724974E-31
   5.590000     -1.7718295E-31
   5.600000     -1.7638541E-31
   5.610000     -1.7482007E-31
   5.620000     -1.7245530E-31
   5.630000     -1.6926412E-31
   5.640000     -1.6522227E-31
   5.650000     -1.6030825E-31
   5.660000     -1.5450063E-31
   5.670000     -1.4777432E-31
   5.680000     -1.4010046E-31
   5.690000     -1.3144358E-31
   5.700000     -1.2175874E-31
   5.710000     -1.1099055E-31
   5.720000     -9.9072204E-32
   5.730000     -8.5924852E-32
   5.740000     -7.1456815E-32
   5.750000     -5.5565283E-32
   5.760000     -3.8138773E-32
   5.770000     -1.9058250E-32
   5.780000      1.7991874E-33
   5.790000      2.4556506E-32
   5.800000      4.9331055E-32
   5.810000      7.6236574E-32
   5.820000      1.0537524E-31
   5.830000      1.3682951E-31
   5.840000      1.7066536E-31
   5.850000      2.0692914E-31
   5.860000      2.4564531E-31
   5.870000      2.8681585E-31
   5.880000      3.3042239E-31
   5.890000      3.7642820E-31
   5.900000      4.2478148E-31
   5.910000      4.7541971E-31
   5.920000      5.2827436E-31
   5.930000      5.8327559E-31
   5.940000      6.4036005E-31
   5.950000      6.9947420E-31
   5.960000      7.6057658E-31
   5.970000      8.2364359E-31
   5.980000      8.8867034E-31
   5.990000      9.5567098E-31
   6.000000      1.0246762E-30
   6.010000      1.0957302E-30
   6.020000      1.1688847E-30
   6.030000      1.2441918E-30
   6.040000      1.3216959E-30
   6.050000      1.4014233E-30
   6.060000      1.4833732E-30
   6.070000      1.5675070E-30
   6.080000      1.6537402E-30
   6.090000      1.7419337E-30
   6.100000      1.8318887E-30
   6.110000      1.9233425E-30
   6.120000      2.0159679E-30
   6.130000      2.1093751E-30
   6.140000      2.2031166E-30
   6.150000      2.2966950E-30
   6.160000      2.3895728E-30
   6.170000      2.4811848E-30
   6.180000      2.5709517E-30
   6.190000      2.6582928E-30
   6.200000      2.7426399E-30
   6.210000      2.8234492E-30
   6.220000      2.9002109E-30
   6.230000      2.9724554E-30
   6.240000      3.0397567E-30
   6.250000      3.1017305E-30
   6.260000      3.1580290E-30
   6.270000      3.2083303E-30
   6.280000      3.2523239E-30
   6.290000      3.2896941E-30
   6.300000      3.3201001E-30
   6.310000      3.3431522E-30
   6.320000      3.3583923E-30
   6.330000      3.3652737E-30
   6.340000      3.3631420E-30
   6.350000      3.3512227E-30
   6.360000      3.3286137E-30
   6.370000      3.2942821E-30
   6.380000      3.2470690E-30
   6.390000      3.1857025E-30
   6.400000      3.1088166E-30
   6.410000      3.0149749E-30
   6.420000      2.9027020E-30
   6.430000      2.7705166E-30
   6.440000      2.6169677E-30
   6.450000      2.4406706E-30
   6.460000      2.2403393E-30
   6.470000      2.0148142E-30
   6.480000      1.7630869E-30
   6.490000      1.4843121E-30
   6.500000      1.1778145E-30
   6.510000      8.4308166E-31
   6.520000      4.7974896E-31
   6.530000      8.7573518E-32
   6.540000     -3.3359928E-31
   6.550000     -7.8387700E-31
   6.560000     -1.2633639E-30
   6.570000     -1.7722080E-30
   6.580000     -2.3106471E-30
   6.590000     -2.8790456E-30
   6.600000     -3.4779274E-30
   6.610000     -4.1079943E-30
   6.620000     -4.7701331E-30
   6.630000     -5.4654063E-30
   6.640000     -6.1950268E-30
   6.650000     -6.9603161E-30
   6.660000     -7.7626480E-30
   6.670000     -8.6033796E-30
   6.680000     -9.4837726E-30
   6.690000     -1.0404909E-29
   6.700000     -1.1367607E-29
   6.710000     -1.2372334E-29
   6.720000     -1.3419140E-29
   6.730000     -1.4507592E-29
   6.740000     -1.5636738E-29
   6.750000     -1.6805079E-29
   6.760000     -1.8010575E-29
   6.770000     -1.9250672E-29
   6.780000     -2.0522353E-29
   6.790000     -2.1822205E-29
   6.800000     -2.3146511E-29
   6.810000     -2.4491347E-29
   6.820000     -2.5852694E-29
   6.830000     -2.7226547E-29
   6.840000     -2.8609006E-29
   6.850000     -2.9996365E-29
   6.860000     -3.1385168E-29
   6.870000     -3.2772253E-29
   6.880000     -3.4154734E-29
   6.890000     -3.5529980E-29
   6.900000     -3.6895539E-29
   6.910000     -3.8249032E-29
   6.920000     -3.9588017E-29
   6.930000     -4.0909824E-29
   6.940000     -4.2211401E-29
   6.950000     -4.3489105E-29
   6.960000     -4.4738540E-29
   6.970000     -4.5954410E-29
   6.980000     -4.7130362E-29
   6.990000     -4.8258914E-29
   7.000000     -4.9331393E-29
   7.010000     -5.0337938E-29
   7.020000     -5.1267575E-29
   7.030000     -5.2108316E-29
   7.040000     -5.2847313E-29
   7.050000     -5.3471098E-29
   7.060000     -5.3965809E-29