  -2.600000      0.0000000E+00
  -2.590000      0.0000000E+00
  -2.580000      0.0000000E+00
  -2.570000      0.0000000E+00
  -2.560000      0.0000000E+00
  -2.550000      0.0000000E+00
  -2.540000      0.0000000E+00
  -2.530000      0.0000000E+00
  -2.520000      0.0000000E+00
  -2.510000      0.0000000E+00
  -2.500000      0.0000000E+00
  -2.490000      0.0000000E+00
  -2.480000      0.0000000E+00
  -2.470000      0.0000000E+00
  -2.460000      0.0000000E+00
  -2.450000      0.0000000E+00
  -2.440000      0.0000000E+00
  -2.430000      0.0000000E+00
  -2.420000      0.0000000E+00
  -2.410000      0.0000000E+00
  -2.400000      0.0000000E+00
  -2.390000      0.0000000E+00
  -2.380000      0.0000000E+00
  -2.370000      0.0000000E+00
  -2.360000      0.0000000E+00
  -2.350000      0.0000000E+00
  -2.340000      0.0000000E+00
  -2.330000      0.0000000E+00
  -2.320000      0.0000000E+00
  -2.310000      0.0000000E+00
  -2.300000      0.0000000E+00
  -2.290000      0.0000000E+00
  -2.280000      0.0000000E+00
  -2.270000      0.0000000E+00
  -2.260000      0.0000000E+00
  -2.250000      0.0000000E+00
  -2.240000      0.0000000E+00
  -2.230000      0.0000000E+00
  -2.220000      0.0000000E+00
  -2.210000      0.0000000E+00
  -2.200000      0.0000000E+00
  -2.190000      0.0000000E+00
  -2.180000      0.0000000E+00
  -2.170000      0.0000000E+00
  -2.160000      0.0000000E+00
  -2.150000      0.0000000E+00
  -2.140000      0.0000000E+00
  -2.130000      0.0000000E+00
  -2.120000      0.0000000E+00
  -2.110000      0.0000000E+00
  -2.100000      0.0000000E+00
  -2.090000      0.0000000E+00
  -2.080000      0.0000000E+00
  -2.070000      0.0000000E+00
  -2.060000      0.0000000E+00
  -2.050000      0.0000000E+00
  -2.040000      0.0000000E+00
  -2.030000      0.0000000E+00
  -2.020000      0.0000000E+00
  -2.010000      0.0000000E+00
  -2.000000      0.0000000E+00
  -1.990000      0.0000000E+00
  -1.980000      0.0000000E+00
  -1.970000      0.0000000E+00
  -1.960000      0.0000000E+00
  -1.950000      0.0000000E+00
  -1.940000      0.0000000E+00
  -1.930000      0.0000000E+00
  -1.920000      0.0000000E+00
  -1.910000      0.0000000E+00
  -1.900000      0.0000000E+00
  -1.890000      0.0000000E+00
  -1.880000      0.0000000E+00
  -1.870000      0.0000000E+00
  -1.860000      0.0000000E+00
  -1.850000      0.0000000E+00
  -1.840000      0.0000000E+00
  -1.830000      0.0000000E+00
  -1.820000      0.0000000E+00
  -1.810000      0.0000000E+00
  -1.800000      0.0000000E+00
  -1.790000      0.0000000E+00
  -1.780000      0.0000000E+00
  -1.770000      0.0000000E+00
  -1.760000      0.0000000E+00
  -1.750000      0.0000000E+00
  -1.740000      0.0000000E+00
  -1.730000      0.0000000E+00
  -1.720000      0.0000000E+00
  -1.710000      0.0000000E+00
  -1.700000      0.0000000E+00
  -1.690000      0.0000000E+00
  -1.680000      0.0000000E+00
  -1.670000      0.0000000E+00
  -1.660000      0.0000000E+00
  -1.650000      0.0000000E+00
  -1.640000      0.0000000E+00
  -1.630000      0.0000000E+00
  -1.620000      0.0000000E+00
  -1.610000      0.0000000E+00
  -1.600000      0.0000000E+00
  -1.590000      0.0000000E+00
  -1.580000      0.0000000E+00
  -1.570000      0.0000000E+00
  -1.560000      0.0000000E+00
  -1.550000      0.0000000E+00
  -1.540000      0.0000000E+00
  -1.530000      0.0000000E+00
  -1.520000      0.0000000E+00
  -1.510000      0.0000000E+00
  -1.500000      0.0000000E+00
  -1.490000      0.0000000E+00
  -1.480000      0.0000000E+00
  -1.470000      0.0000000E+00
  -1.460000      0.0000000E+00
  -1.450000      0.0000000E+00
  -1.440000      0.0000000E+00
  -1.430000      0.0000000E+00
  -1.420000      0.0000000E+00
  -1.410000      0.0000000E+00
  -1.400000      0.0000000E+00
  -1.390000      0.0000000E+00
  -1.380000      0.0000000E+00
  -1.370000      0.0000000E+00
  -1.360000      0.0000000E+00
  -1.350000      0.0000000E+00
  -1.340000      0.0000000E+00
  -1.330000      0.0000000E+00
  -1.320000      0.0000000E+00
  -1.310000      0.0000000E+00
  -1.300000      0.0000000E+00
  -1.290000      0.0000000E+00
  -1.280000      0.0000000E+00
  -1.270000      0.0000000E+00
  -1.260000      0.0000000E+00
  -1.250000      0.0000000E+00
  -1.240000      0.0000000E+00
  -1.230000      0.0000000E+00
  -1.220000      0.0000000E+00
  -1.210000      0.0000000E+00
  -1.200000      0.0000000E+00
  -1.190000      0.0000000E+00
  -1.180000      0.0000000E+00
  -1.170000      0.0000000E+00
  -1.160000      0.0000000E+00
  -1.150000      0.0000000E+00
  -1.140000      0.0000000E+00
  -1.130000      0.0000000E+00
  -1.120000      0.0000000E+00
  -1.110000      0.0000000E+00
  -1.100000      0.0000000E+00
  -1.090000      0.0000000E+00
  -1.080000      0.0000000E+00
  -1.070000      0.0000000E+00
  -1.060000      0.0000000E+00
  -1.050000      0.0000000E+00
  -1.040000      0.0000000E+00
  -1.030000      0.0000000E+00
  -1.020000      0.0000000E+00
  -1.010000      0.0000000E+00
  -1.000000      0.0000000E+00
 -0.9900000      0.0000000E+00
 -0.9800000      0.0000000E+00
 -0.9700000      0.0000000E+00
 -0.9600000      0.0000000E+00
 -0.9500000      0.0000000E+00
 -0.9400000      0.0000000E+00
 -0.9300000      0.0000000E+00
 -0.9200000      0.0000000E+00
 -0.9100000      0.0000000E+00
 -0.9000000      0.0000000E+00
 -0.8900000      0.0000000E+00
 -0.8800000      0.0000000E+00
 -0.8700000      0.0000000E+00
 -0.8600000      0.0000000E+00
 -0.8500000      0.0000000E+00
 -0.8400000      0.0000000E+00
 -0.8300000      0.0000000E+00
 -0.8200000      0.0000000E+00
 -0.8100000      0.0000000E+00
 -0.8000000      0.0000000E+00
 -0.7900000      0.0000000E+00
 -0.7800000      0.0000000E+00
 -0.7700000      0.0000000E+00
 -0.7600000      0.0000000E+00
 -0.7500000      0.0000000E+00
 -0.7400000      0.0000000E+00
 -0.7300000      0.0000000E+00
 -0.7200000      0.0000000E+00
 -0.7100000      0.0000000E+00
 -0.7000000      0.0000000E+00
 -0.6900000      0.0000000E+00
 -0.6800000      0.0000000E+00
 -0.6700000      0.0000000E+00
 -0.6600000      0.0000000E+00
 -0.6500000      0.0000000E+00
 -0.6400000      0.0000000E+00
 -0.6300000      0.0000000E+00
 -0.6200000      0.0000000E+00
 -0.6100000      0.0000000E+00
 -0.6000000      0.0000000E+00
 -0.5900000      0.0000000E+00
 -0.5800000      0.0000000E+00
 -0.5700000      0.0000000E+00
 -0.5600000      0.0000000E+00
 -0.5500000      0.0000000E+00
 -0.5400000      0.0000000E+00
 -0.5300000      0.0000000E+00
 -0.5200000      0.0000000E+00
 -0.5100000      0.0000000E+00
 -0.5000000      0.0000000E+00
 -0.4900000      0.0000000E+00
 -0.4800000      0.0000000E+00
 -0.4700000      0.0000000E+00
 -0.4600000      0.0000000E+00
 -0.4500000      0.0000000E+00
 -0.4400000      0.0000000E+00
 -0.4300000      0.0000000E+00
 -0.4200000      0.0000000E+00
 -0.4100000      0.0000000E+00
 -0.4000000      0.0000000E+00
 -0.3900000      0.0000000E+00
 -0.3800000      0.0000000E+00
 -0.3700000      0.0000000E+00
 -0.3600000      0.0000000E+00
 -0.3500000      0.0000000E+00
 -0.3400000      0.0000000E+00
 -0.3300000      0.0000000E+00
 -0.3200000      0.0000000E+00
 -0.3100000      0.0000000E+00
 -0.3000000      0.0000000E+00
 -0.2900000      0.0000000E+00
 -0.2800000      0.0000000E+00
 -0.2700000      0.0000000E+00
 -0.2600000      0.0000000E+00
 -0.2500000      0.0000000E+00
 -0.2400000      0.0000000E+00
 -0.2300000      0.0000000E+00
 -0.2200000      0.0000000E+00
 -0.2100000      0.0000000E+00
 -0.2000000      0.0000000E+00
 -0.1900000      0.0000000E+00
 -0.1800000      0.0000000E+00
 -0.1700000      0.0000000E+00
 -0.1600000      0.0000000E+00
 -0.1500000      0.0000000E+00
 -0.1400000      0.0000000E+00
 -0.1300000      0.0000000E+00
 -0.1200000      0.0000000E+00
 -0.1100000      0.0000000E+00
 -0.1000000      0.0000000E+00
 -9.0000004E-02  0.0000000E+00
 -7.9999998E-02  0.0000000E+00
 -7.0000000E-02  0.0000000E+00
 -5.9999999E-02  0.0000000E+00
 -5.0000001E-02  0.0000000E+00
 -3.9999999E-02  0.0000000E+00
 -2.9999999E-02  0.0000000E+00
 -2.0000000E-02  0.0000000E+00
 -9.9999998E-03  0.0000000E+00
 -3.4694470E-17  0.0000000E+00
  9.9999998E-03  0.0000000E+00
  2.0000000E-02  0.0000000E+00
  2.9999999E-02  0.0000000E+00
  3.9999999E-02  0.0000000E+00
  5.0000001E-02  0.0000000E+00
  5.9999999E-02  0.0000000E+00
  7.0000000E-02  0.0000000E+00
  7.9999998E-02  0.0000000E+00
  9.0000004E-02  0.0000000E+00
  0.1000000      0.0000000E+00
  0.1100000      0.0000000E+00
  0.1200000      0.0000000E+00
  0.1300000      0.0000000E+00
  0.1400000      0.0000000E+00
  0.1500000      0.0000000E+00
  0.1600000      0.0000000E+00
  0.1700000      0.0000000E+00
  0.1800000      0.0000000E+00
  0.1900000      0.0000000E+00
  0.2000000      0.0000000E+00
  0.2100000      0.0000000E+00
  0.2200000      0.0000000E+00
  0.2300000      0.0000000E+00
  0.2400000      0.0000000E+00
  0.2500000      0.0000000E+00
  0.2600000      0.0000000E+00
  0.2700000      0.0000000E+00
  0.2800000      0.0000000E+00
  0.2900000      0.0000000E+00
  0.3000000      0.0000000E+00
  0.3100000      0.0000000E+00
  0.3200000      0.0000000E+00
  0.3300000      0.0000000E+00
  0.3400000      0.0000000E+00
  0.3500000      0.0000000E+00
  0.3600000      0.0000000E+00
  0.3700000      0.0000000E+00
  0.3800000      0.0000000E+00
  0.3900000      0.0000000E+00
  0.4000000      0.0000000E+00
  0.4100000      0.0000000E+00
  0.4200000      0.0000000E+00
  0.4300000      0.0000000E+00
  0.4400000      0.0000000E+00
  0.4500000      0.0000000E+00
  0.4600000      0.0000000E+00
  0.4700000      0.0000000E+00
  0.4800000      0.0000000E+00
  0.4900000      0.0000000E+00
  0.5000000      0.0000000E+00
  0.5100000      0.0000000E+00
  0.5200000      0.0000000E+00
  0.5300000      0.0000000E+00
  0.5400000      0.0000000E+00
  0.5500000      0.0000000E+00
  0.5600000      0.0000000E+00
  0.5700000      0.0000000E+00
  0.5800000      0.0000000E+00
  0.5900000      0.0000000E+00
  0.6000000      0.0000000E+00
  0.6100000      0.0000000E+00
  0.6200000      0.0000000E+00
  0.6300000      0.0000000E+00
  0.6400000      0.0000000E+00
  0.6500000     -1.2210761E-38
  0.6600000     -1.3997911E-38
  0.6700000     -1.5418061E-38
  0.6800000     -1.6957885E-38
  0.6900000     -1.6993942E-38
  0.7000000     -1.5511431E-38
  0.7100000     -1.4064421E-38
  0.7200000     -1.2567702E-38
  0.7300000      0.0000000E+00
  0.7400000      0.0000000E+00
  0.7500000      0.0000000E+00
  0.7600000      0.0000000E+00
  0.7700000      0.0000000E+00
  0.7800000      0.0000000E+00
  0.7900000      0.0000000E+00
  0.8000000      0.0000000E+00
  0.8100000      0.0000000E+00
  0.8200000      1.5318446E-38
  0.8300000      1.9991155E-38
  0.8400000      2.4663915E-38
  0.8500000      2.9257915E-38
  0.8600000      3.3401639E-38
  0.8700000      3.7766014E-38
  0.8800000      4.2989211E-38
  0.8900000      4.8701612E-38
  0.9000000      5.5188167E-38
  0.9100000      6.1809919E-38
  0.9200000      6.8349442E-38
  0.9300000      7.5535974E-38
  0.9400000      7.8461111E-38
  0.9500000      7.6580608E-38
  0.9600000      7.4046208E-38
  0.9700000      7.0886925E-38
  0.9800000      6.8690788E-38
  0.9900000      6.7957337E-38
   1.000000      6.7058051E-38
   1.010000      6.5582102E-38
   1.020000      6.2492839E-38
   1.030000      5.7947604E-38
   1.040000      5.3415793E-38
   1.050000      4.7246229E-38
   1.060000      3.5065571E-38
   1.070000      1.8025283E-38
   1.080000      0.0000000E+00
   1.090000     -1.6252922E-38
   1.100000     -3.0785905E-38
   1.110000     -2.9651498E-38
   1.120000     -1.3733399E-38
   1.130000      0.0000000E+00
   1.140000      1.1837546E-38
   1.150000      1.1895443E-38
   1.160000      0.0000000E+00
   1.170000      0.0000000E+00
   1.180000      0.0000000E+00
   1.190000      2.0147497E-38
   1.200000      2.8374982E-38
   1.210000      1.6475978E-38
   1.220000     -5.1728675E-38
   1.230000     -1.8409077E-37
   1.240000     -3.4361486E-37
   1.250000     -5.2899084E-37
   1.260000     -7.1843734E-37
   1.270000     -9.1290384E-37
   1.280000     -1.1179139E-36
   1.290000     -1.3357381E-36
   1.300000     -1.5684608E-36
   1.310000     -1.6398309E-36
   1.320000     -1.5922542E-36
   1.330000     -1.5884605E-36
   1.340000     -1.5669329E-36
   1.350000     -1.5271581E-36
   1.360000     -1.5409878E-36
   1.370000     -1.6313159E-36
   1.380000     -1.7384734E-36
   1.390000     -1.8570664E-36
   1.400000     -2.0006499E-36
   1.410000     -2.1324136E-36
   1.420000     -2.2469346E-36
   1.430000     -2.3793587E-36
   1.440000     -2.5438945E-36
   1.450000     -2.7455249E-36
   1.460000     -2.8219064E-36
   1.470000     -2.7490606E-36
   1.480000     -2.6636861E-36
   1.490000     -2.5782324E-36
   1.500000     -2.5032642E-36
   1.510000     -2.4457624E-36
   1.520000     -2.3914650E-36
   1.530000     -2.3329821E-36
   1.540000     -2.2710002E-36
   1.550000     -2.2017042E-36
   1.560000     -2.1422692E-36
   1.570000     -2.0956717E-36
   1.580000     -2.0385249E-36
   1.590000     -1.9618634E-36
   1.600000     -1.8150367E-36
   1.610000     -1.5981658E-36
   1.620000     -1.3643656E-36
   1.630000     -1.0910970E-36
   1.640000     -7.5964421E-37
   1.650000     -3.7259082E-37
   1.660000      3.8548821E-38
   1.670000      4.6865111E-37
   1.680000      9.3695308E-37
   1.690000      1.4506966E-36
   1.700000      2.0045149E-36
   1.710000      2.5950105E-36
   1.720000      3.2381730E-36
   1.730000      3.6147180E-36
   1.740000      3.6924197E-36
   1.750000      3.7902536E-36
   1.760000      3.9487394E-36
   1.770000      4.4872596E-36
   1.780000      5.4037484E-36
   1.790000      6.3993578E-36
   1.800000      7.5302538E-36
   1.810000      8.8046478E-36
   1.820000      1.0128007E-35
   1.830000      1.1467138E-35
   1.840000      1.2923144E-35
   1.850000      1.4552157E-35
   1.860000      1.6323590E-35
   1.870000      1.8151917E-35
   1.880000      2.0065162E-35
   1.890000      2.2083781E-35
   1.900000      2.4288999E-35
   1.910000      2.6635999E-35
   1.920000      2.8248705E-35
   1.930000      2.9173075E-35
   1.940000      3.0148511E-35
   1.950000      3.1504772E-35
   1.960000      3.3211974E-35
   1.970000      3.4934978E-35
   1.980000      3.4727716E-35
   1.990000      3.3511131E-35
   2.000000      3.5320253E-35
   2.010000      4.0046251E-35
   2.020000      4.5670946E-35
   2.030000      5.1361469E-35
   2.040000      5.3720023E-35
   2.050000      5.2234216E-35
   2.060000      5.2356168E-35
   2.070000      5.4528962E-35
   2.080000      5.6452881E-35
   2.090000      5.8212483E-35
   2.100000      5.9712186E-35
   2.110000      6.0891411E-35
   2.120000      6.2840866E-35
   2.130000      6.5717814E-35
   2.140000      7.3688343E-35
   2.150000      8.6428641E-35
   2.160000      9.8046204E-35
   2.170000      1.0770270E-34
   2.180000      1.1643611E-34
   2.190000      1.2541357E-34
   2.200000      1.3474801E-34
   2.210000      1.4347388E-34
   2.220000      1.5061786E-34
   2.230000      1.5701893E-34
   2.240000      1.6053528E-34
   2.250000      1.6125259E-34
   2.260000      1.6230251E-34
   2.270000      1.6104417E-34
   2.280000      1.5693367E-34
   2.290000      1.5387722E-34
   2.300000      1.5231032E-34
   2.310000      1.5121253E-34
   2.320000      1.5062470E-34
   2.330000      1.5070342E-34
   2.340000      1.5239998E-34
   2.350000      1.5749743E-34
   2.360000      1.6519898E-34
   2.370000      1.7339491E-34
   2.380000      1.8177831E-34
   2.390000      1.9025618E-34
   2.400000      1.9884219E-34
   2.410000      2.1050780E-34
   2.420000      2.2808342E-34
   2.430000      2.4949259E-34
   2.440000      2.7300930E-34
   2.450000      2.9834712E-34
   2.460000      3.2402458E-34
   2.470000      3.4986459E-34
   2.480000      3.7616724E-34
   2.490000      4.0307127E-34
   2.500000      4.2934917E-34
   2.510000      4.5385869E-34
   2.520000      4.7562453E-34
   2.530000      4.9567378E-34
   2.540000      5.1699224E-34
   2.550000      5.3946352E-34
   2.560000      5.6306877E-34
   2.570000      5.8546240E-34
   2.580000      6.0627549E-34
   2.590000      6.2671279E-34
   2.600000      6.4700711E-34
   2.610000      6.6937033E-34
   2.620000      6.9669640E-34
   2.630000      7.2869069E-34
   2.640000      7.6235878E-34
   2.650000      8.0015469E-34
   2.660000      8.4246174E-34
   2.670000      8.8645967E-34
   2.680000      9.3318511E-34
   2.690000      9.8317163E-34
   2.700000      1.0357593E-33
   2.710000      1.0897862E-33
   2.720000      1.1437241E-33
   2.730000      1.1985771E-33
   2.740000      1.2553456E-33
   2.750000      1.3150454E-33
   2.760000      1.3781348E-33
   2.770000      1.4437397E-33
   2.780000      1.5120164E-33
   2.790000      1.5823576E-33
   2.800000      1.6515064E-33
   2.810000      1.7181301E-33
   2.820000      1.7826647E-33
   2.830000      1.8435076E-33
   2.840000      1.9010818E-33
   2.850000      1.9511805E-33
   2.860000      1.9934970E-33
   2.870000      2.0316745E-33
   2.880000      2.0631555E-33
   2.890000      2.0893688E-33
   2.900000      2.1120814E-33
   2.910000      2.1354822E-33
   2.920000      2.1595688E-33
   2.930000      2.1755862E-33
   2.940000      2.1864443E-33
   2.950000      2.1984887E-33
   2.960000      2.2117744E-33
   2.970000      2.2226010E-33
   2.980000      2.2284816E-33
   2.990000      2.2323150E-33
   3.000000      2.2298457E-33
   3.010000      2.2151537E-33
   3.020000      2.1917726E-33
   3.030000      2.1595064E-33
   3.040000      2.1149819E-33
   3.050000      2.0587524E-33
   3.060000      1.9917248E-33
   3.070000      1.9138108E-33
   3.080000      1.8205421E-33
   3.090000      1.7081731E-33
   3.100000      1.5742624E-33
   3.110000      1.4187228E-33
   3.120000      1.2426514E-33
   3.130000      1.0446208E-33
   3.140000      8.2359496E-34
   3.150000      5.8102004E-34
   3.160000      3.1716158E-34
   3.170000      3.0935160E-35
   3.180000     -2.7709423E-34
   3.190000     -6.0650338E-34
   3.200000     -9.5653116E-34
   3.210000     -1.3265376E-33
   3.220000     -1.7151397E-33
   3.230000     -2.1204575E-33
   3.240000     -2.5405098E-33
   3.250000     -2.9737807E-33
   3.260000     -3.4199083E-33
   3.270000     -3.8773299E-33
   3.280000     -4.3442330E-33
   3.290000     -4.8193046E-33
   3.300000     -5.2999216E-33
   3.310000     -5.7858442E-33
   3.320000     -6.2771986E-33
   3.330000     -6.7718944E-33
   3.340000     -7.2693232E-33
   3.350000     -7.7675285E-33
   3.360000     -8.2640956E-33
   3.370000     -8.7576798E-33
   3.380000     -9.2459103E-33
   3.390000     -9.7260013E-33
   3.400000     -1.0194396E-32
   3.410000     -1.0646408E-32
   3.420000     -1.1076693E-32
   3.430000     -1.1479258E-32
   3.440000     -1.1847027E-32
   3.450000     -1.2172014E-32
   3.460000     -1.2445320E-32
   3.470000     -1.2657259E-32
   3.480000     -1.2797852E-32
   3.490000     -1.2855720E-32
   3.500000     -1.2819133E-32
   3.510000     -1.2677499E-32
   3.520000     -1.2418730E-32
   3.530000     -1.2031123E-32
   3.540000     -1.1504730E-32
   3.550000     -1.0829469E-32
   3.560000     -9.9961858E-33
   3.570000     -8.9977289E-33
   3.580000     -7.8258000E-33
   3.590000     -6.4731491E-33
   3.600000     -4.9354071E-33
   3.610000     -3.2080696E-33
   3.620000     -1.2871200E-33
   3.630000      8.3097376E-34
   3.640000      3.1495571E-33
   3.650000      5.6722062E-33
   3.660000      8.4028539E-33
   3.670000      1.1346051E-32
   3.680000      1.4507109E-32
   3.690000      1.7893512E-32
   3.700000      2.1510752E-32
   3.710000      2.5364788E-32
   3.720000      2.9464689E-32
   3.730000      3.3818635E-32
   3.740000      3.8434721E-32
   3.750000      4.3318557E-32
   3.760000      4.8473878E-32
   3.770000      5.3903204E-32
   3.780000      5.9605422E-32
   3.790000      6.5574582E-32
   3.800000      7.1799600E-32
   3.810000      7.8263955E-32
   3.820000      8.4944784E-32
   3.830000      9.1812533E-32
   3.840000      9.8830698E-32
   3.850000      1.0595578E-31
   3.860000      1.1313739E-31
   3.870000      1.2031863E-31
   3.880000      1.2743661E-31
   3.890000      1.3442307E-31
   3.900000      1.4120502E-31
   3.910000      1.4770554E-31
   3.920000      1.5384475E-31
   3.930000      1.5954037E-31
   3.940000      1.6470799E-31
   3.950000      1.6926159E-31
   3.960000      1.7311335E-31
   3.970000      1.7617337E-31
   3.980000      1.7834942E-31
   3.990000      1.7954556E-31
   4.000000      1.7966089E-31
   4.010000      1.7858803E-31
   4.020000      1.7621136E-31
   4.030000      1.7240510E-31
   4.040000      1.6703128E-31
   4.050000      1.5993818E-31
   4.060000      1.5095856E-31
   4.070000      1.3990831E-31
   4.080000      1.2658564E-31
   4.090000      1.1077076E-31
   4.100000      9.2226366E-32
   4.110000      7.0698397E-32
   4.120000      4.5917557E-32
   4.130000      1.7601611E-32
   4.140000     -1.4542079E-32
   4.150000     -5.0813435E-32
   4.160000     -9.1516203E-32
   4.170000     -1.3695457E-31
   4.180000     -1.8742919E-31
   4.190000     -2.4323451E-31
   4.200000     -3.0465630E-31
   4.210000     -3.7196873E-31
   4.220000     -4.4543346E-31
   4.230000     -5.2529880E-31
   4.240000     -6.1180005E-31
   4.250000     -7.0516068E-31
   4.260000     -8.0559421E-31
   4.270000     -9.1330635E-31
   4.280000     -1.0284985E-30
   4.290000     -1.1513705E-30
   4.300000     -1.2821235E-30
   4.310000     -1.4209631E-30
   4.320000     -1.5681002E-30
   4.330000     -1.7237523E-30
   4.340000     -1.8881424E-30
   4.350000     -2.0614974E-30
   4.360000     -2.2440428E-30
   4.370000     -2.4359988E-30
   4.380000     -2.6375708E-30
   4.390000     -2.8489418E-30
   4.400000     -3.0702605E-30
   4.410000     -3.3016307E-30
   4.420000     -3.5430987E-30
   4.430000     -3.7946417E-30
   4.440000     -4.0561563E-30
   4.450000     -4.3274453E-30
   4.460000     -4.6082121E-30
   4.470000     -4.8980495E-30
   4.480000     -5.1964381E-30
   4.490000     -5.5027407E-30
   4.500000     -5.8162039E-30
   4.510000     -6.1359594E-30
   4.520000     -6.4610293E-30
   4.530000     -6.7903325E-30
   4.540000     -7.1226915E-30
   4.550000     -7.4568396E-30
   4.560000     -7.7914308E-30
   4.570000     -8.1250448E-30
   4.580000     -8.4561881E-30
   4.590000     -8.7833028E-30
   4.600000     -9.1047571E-30
   4.610000     -9.4188454E-30
   4.620000     -9.7237743E-30
   4.630000     -1.0017649E-29
   4.640000     -1.0298457E-29
   4.650000     -1.0564042E-29
   4.660000     -1.0812084E-29
   4.670000     -1.1040071E-29
   4.680000     -1.1245272E-29
   4.690000     -1.1424714E-29
   4.700000     -1.1575157E-29
   4.710000     -1.1693076E-29
   4.720000     -1.1774649E-29
   4.730000     -1.1815747E-29
   4.740000     -1.1811937E-29
   4.750000     -1.1758486E-29
   4.760000     -1.1650384E-29
   4.770000     -1.1482354E-29
   4.780000     -1.1248896E-29
   4.790000     -1.0944313E-29
   4.800000     -1.0562749E-29
   4.810000     -1.0098238E-29
   4.820000     -9.5447335E-30
   4.830000     -8.8961495E-30
   4.840000     -8.1463903E-30
   4.850000     -7.2893785E-30
   4.860000     -6.3190694E-30
   4.870000     -5.2294607E-30
   4.880000     -4.0145912E-30
   4.890000     -2.6685236E-30
   4.900000     -1.1853283E-30
   4.910000      4.4094566E-31
   4.920000      2.2163049E-30
   4.930000      4.1468443E-30
   4.940000      6.2387773E-30
   4.950000      8.4984683E-30
   4.960000      1.0932449E-29
   4.970000      1.3547419E-29
   4.980000      1.6350239E-29
   4.990000      1.9347906E-29
   5.000000      2.2547497E-29
   5.010000      2.5956101E-29
   5.020000      2.9580740E-29
   5.030000      3.3428243E-29
   5.040000      3.7505132E-29
   5.050000      4.1817476E-29
   5.060000      4.6370757E-29
   5.070000      5.1169714E-29
   5.080000      5.6218196E-29
   5.090000      6.1519047E-29
   5.100000      6.7073947E-29
   5.110000      7.2883346E-29
   5.120000      7.8946366E-29
   5.130000      8.5260768E-29
   5.140000      9.1822899E-29
   5.150000      9.8627733E-29
   5.160000      1.0566884E-28
   5.170000      1.1293849E-28
   5.180000      1.2042764E-28
   5.190000      1.2812605E-28
   5.200000      1.3602231E-28
   5.210000      1.4410384E-28
   5.220000      1.5235701E-28
   5.230000      1.6076704E-28
   5.240000      1.6931800E-28
   5.250000      1.7799266E-28
   5.260000      1.8677247E-28
   5.270000      1.9563722E-28
   5.280000      2.0456491E-28
   5.290000      2.1353154E-28
   5.300000      2.2251066E-28
   5.310000      2.3147314E-28
   5.320000      2.4038690E-28
   5.330000      2.4921649E-28
   5.340000      2.5792285E-28
   5.350000      2.6646307E-28
   5.360000      2.7479017E-28
   5.370000      2.8285295E-28
   5.380000      2.9059591E-28
   5.390000      2.9795930E-28
   5.400000      3.0487916E-28
   5.410000      3.1128755E-28
   5.420000      3.1711267E-28
   5.430000      3.2227922E-28
   5.440000      3.2670869E-28
   5.450000      3.3031976E-28
   5.460000      3.3302860E-28
   5.470000      3.3474913E-28
   5.480000      3.3539336E-28
   5.490000      3.3487157E-28
   5.500000      3.3309250E-28
   5.510000      3.2996329E-28
   5.520000      3.2538955E-28
   5.530000      3.1927513E-28
   5.540000      3.1152182E-28
   5.550000      3.0202917E-28
   5.560000      2.9069409E-28
   5.570000      2.7741047E-28
   5.580000      2.6206882E-28
   5.590000      2.4455596E-28
   5.600000      2.2475475E-28
   5.610000      2.0254401E-28
   5.620000      1.7779864E-28
   5.630000      1.5038973E-28
   5.640000      1.2018494E-28
   5.650000      8.7049223E-29
   5.660000      5.0845580E-29
   5.670000      1.1436107E-29
   5.680000     -3.1316903E-29
   5.690000     -7.7549658E-29
   5.700000     -1.2739528E-28
   5.710000     -1.8098256E-28
   5.720000     -2.3843441E-28
   5.730000     -2.9986647E-28
   5.740000     -3.6538603E-28
   5.750000     -4.3509083E-28
   5.760000     -5.0906797E-28
   5.770000     -5.8739361E-28
   5.780000     -6.7013214E-28
   5.790000     -7.5733627E-28
   5.800000     -8.4904679E-28
   5.810000     -9.4529274E-28
   5.820000     -1.0460917E-27
   5.830000     -1.1514502E-27
   5.840000     -1.2613636E-27
   5.850000     -1.3758168E-27
   5.860000     -1.4947836E-27
   5.870000     -1.6182264E-27
   5.880000     -1.7460964E-27
   5.890000     -1.8783317E-27
   5.900000     -2.0148559E-27
   5.910000     -2.1555765E-27
   5.920000     -2.3003820E-27
   5.930000     -2.4491400E-27
   5.940000     -2.6016935E-27
   5.950000     -2.7578579E-27
   5.960000     -2.9174177E-27
   5.970000     -3.0801226E-27
   5.980000     -3.2456854E-27
   5.990000     -3.4137775E-27
   6.000000     -3.5840281E-27
   6.010000     -3.7560202E-27
   6.020000     -3.9292911E-27
   6.030000     -4.1033301E-27
   6.040000     -4.2775786E-27
   6.050000     -4.4514304E-27
   6.060000     -4.6242341E-27
   6.070000     -4.7952925E-27
   6.080000     -4.9638660E-27
   6.090000     -5.1291736E-27
   6.100000     -5.2903963E-27
   6.110000     -5.4466774E-27
   6.120000     -5.5971249E-27
   6.130000     -5.7408131E-27
   6.140000     -5.8767815E-27
   6.150000     -6.0040365E-27
   6.160000     -6.1215495E-27
   6.170000     -6.2282544E-27
   6.180000     -6.3230453E-27
   6.190000     -6.4047732E-27
   6.200000     -6.4722424E-27
   6.210000     -6.5242056E-27
   6.220000     -6.5593630E-27
   6.230000     -6.5763543E-27
   6.240000     -6.5737590E-27
   6.250000     -6.5500916E-27
   6.260000     -6.5038023E-27
   6.270000     -6.4332762E-27
   6.280000     -6.3368376E-27
   6.290000     -6.2127519E-27
   6.300000     -6.0592291E-27
   6.310000     -5.8744338E-27
   6.320000     -5.6564955E-27
   6.330000     -5.4035142E-27
   6.340000     -5.1135709E-27
   6.350000     -4.7847422E-27
   6.360000     -4.4151097E-27
   6.370000     -4.0027719E-27
   6.380000     -3.5458520E-27
   6.390000     -3.0425094E-27
   6.400000     -2.4909491E-27
   6.410000     -1.8894263E-27
   6.420000     -1.2362521E-27
   6.430000     -5.2979516E-28
   6.440000      2.3151647E-28
   6.450000      1.0491949E-27
   6.460000      1.9246937E-27
   6.470000      2.8594080E-27
   6.480000      3.8546756E-27
   6.490000      4.9117777E-27
   6.500000      6.0319367E-27
   6.510000      7.2163124E-27
   6.520000      8.4659975E-27
   6.530000      9.7820070E-27
   6.540000      1.1165268E-26
   6.550000      1.2616598E-26
   6.560000      1.4136691E-26
   6.570000      1.5726089E-26
   6.580000      1.7385162E-26
   6.590000      1.9114080E-26
   6.600000      2.0912778E-26
   6.610000      2.2780926E-26
   6.620000      2.4717906E-26
   6.630000      2.6722777E-26
   6.640000      2.8794252E-26
   6.650000      3.0930678E-26
   6.660000      3.3130007E-26
   6.670000      3.5389792E-26
   6.680000      3.7707172E-26
   6.690000      4.0078870E-26
   6.700000      4.2501185E-26
   6.710000      4.4969993E-26
   6.720000      4.7480768E-26
   6.730000      5.0028576E-26
   6.740000      5.2608074E-26
   6.750000      5.5213533E-26
   6.760000      5.7838844E-26
   6.770000      6.0477485E-26
   6.780000      6.3122573E-26
   6.790000      6.5766797E-26
   6.800000      6.8402456E-26
   6.810000      7.1021381E-26
   6.820000      7.3614971E-26
   6.830000      7.6174098E-26
   6.840000      7.8689122E-26
   6.850000      8.1149807E-26
   6.860000      8.3545319E-26
   6.870000      8.5864169E-26
   6.880000      8.8094174E-26
   6.890000      9.0222422E-26
   6.900000      9.2235269E-26
   6.910000      9.4118311E-26
   6.920000      9.5856381E-26
   6.930000      9.7433566E-26
   6.940000      9.8833209E-26
   6.950000      1.0003798E-25
   6.960000      1.0102987E-25
   6.970000      1.0179026E-25
   6.980000      1.0230004E-25
   6.990000      1.0253960E-25
   7.000000      1.0248891E-25
   7.010000      1.0212762E-25
   7.020000      1.0143512E-25
   7.030000      1.0039059E-25
   7.040000      9.8973065E-26
   7.050000      9.7161452E-26
   7.060000      9.4934603E-26