  -2.600000      0.0000000E+00
  -2.590000      0.0000000E+00
  -2.580000      0.0000000E+00
  -2.570000      0.0000000E+00
  -2.560000      0.0000000E+00
  -2.550000      0.0000000E+00
  -2.540000      0.0000000E+00
  -2.530000      0.0000000E+00
  -2.520000      0.0000000E+00
  -2.510000      0.0000000E+00
  -2.500000      0.0000000E+00
  -2.490000      0.0000000E+00
  -2.480000      0.0000000E+00
  -2.470000      0.0000000E+00
  -2.460000      0.0000000E+00
  -2.450000      0.0000000E+00
  -2.440000      0.0000000E+00
  -2.430000      0.0000000E+00
  -2.420000      0.0000000E+00
  -2.410000      0.0000000E+00
  -2.400000      0.0000000E+00
  -2.390000      0.0000000E+00
  -2.380000      0.0000000E+00
  -2.370000      0.0000000E+00
  -2.360000      0.0000000E+00
  -2.350000      0.0000000E+00
  -2.340000      0.0000000E+00
  -2.330000      0.0000000E+00
  -2.320000      0.0000000E+00
  -2.310000      0.0000000E+00
  -2.300000      0.0000000E+00
  -2.290000      0.0000000E+00
  -2.280000      0.0000000E+00
  -2.270000      0.0000000E+00
  -2.260000      0.0000000E+00
  -2.250000      0.0000000E+00
  -2.240000      0.0000000E+00
  -2.230000      0.0000000E+00
  -2.220000      0.0000000E+00
  -2.210000      0.0000000E+00
  -2.200000      0.0000000E+00
  -2.190000      0.0000000E+00
  -2.180000      0.0000000E+00
  -2.170000      0.0000000E+00
  -2.160000      0.0000000E+00
  -2.150000      0.0000000E+00
  -2.140000      0.0000000E+00
  -2.130000      0.0000000E+00
  -2.120000      0.0000000E+00
  -2.110000      0.0000000E+00
  -2.100000      0.0000000E+00
  -2.090000      0.0000000E+00
  -2.080000      0.0000000E+00
  -2.070000      0.0000000E+00
  -2.060000      0.0000000E+00
  -2.050000      0.0000000E+00
  -2.040000      0.0000000E+00
  -2.030000      0.0000000E+00
  -2.020000      0.0000000E+00
  -2.010000      0.0000000E+00
  -2.000000      0.0000000E+00
  -1.990000      0.0000000E+00
  -1.980000      0.0000000E+00
  -1.970000      0.0000000E+00
  -1.960000      0.0000000E+00
  -1.950000      0.0000000E+00
  -1.940000      0.0000000E+00
  -1.930000      0.0000000E+00
  -1.920000      0.0000000E+00
  -1.910000      0.0000000E+00
  -1.900000      0.0000000E+00
  -1.890000      0.0000000E+00
  -1.880000      0.0000000E+00
  -1.870000      0.0000000E+00
  -1.860000      0.0000000E+00
  -1.850000      0.0000000E+00
  -1.840000      0.0000000E+00
  -1.830000      0.0000000E+00
  -1.820000      0.0000000E+00
  -1.810000      0.0000000E+00
  -1.800000      0.0000000E+00
  -1.790000      0.0000000E+00
  -1.780000      0.0000000E+00
  -1.770000      0.0000000E+00
  -1.760000      0.0000000E+00
  -1.750000      0.0000000E+00
  -1.740000      0.0000000E+00
  -1.730000      0.0000000E+00
  -1.720000      0.0000000E+00
  -1.710000      0.0000000E+00
  -1.700000      0.0000000E+00
  -1.690000      0.0000000E+00
  -1.680000      0.0000000E+00
  -1.670000      0.0000000E+00
  -1.660000      0.0000000E+00
  -1.650000      0.0000000E+00
  -1.640000      0.0000000E+00
  -1.630000      0.0000000E+00
  -1.620000      0.0000000E+00
  -1.610000      0.0000000E+00
  -1.600000      0.0000000E+00
  -1.590000      0.0000000E+00
  -1.580000      0.0000000E+00
  -1.570000      0.0000000E+00
  -1.560000      0.0000000E+00
  -1.550000      0.0000000E+00
  -1.540000      0.0000000E+00
  -1.530000      0.0000000E+00
  -1.520000      0.0000000E+00
  -1.510000      0.0000000E+00
  -1.500000      0.0000000E+00
  -1.490000      0.0000000E+00
  -1.480000      0.0000000E+00
  -1.470000      0.0000000E+00
  -1.460000      0.0000000E+00
  -1.450000      0.0000000E+00
  -1.440000      0.0000000E+00
  -1.430000      0.0000000E+00
  -1.420000      0.0000000E+00
  -1.410000      0.0000000E+00
  -1.400000      0.0000000E+00
  -1.390000      0.0000000E+00
  -1.380000      0.0000000E+00
  -1.370000      0.0000000E+00
  -1.360000      0.0000000E+00
  -1.350000      0.0000000E+00
  -1.340000      0.0000000E+00
  -1.330000      0.0000000E+00
  -1.320000      0.0000000E+00
  -1.310000      0.0000000E+00
  -1.300000      0.0000000E+00
  -1.290000      0.0000000E+00
  -1.280000      0.0000000E+00
  -1.270000      0.0000000E+00
  -1.260000      0.0000000E+00
  -1.250000      0.0000000E+00
  -1.240000      0.0000000E+00
  -1.230000      0.0000000E+00
  -1.220000      0.0000000E+00
  -1.210000      0.0000000E+00
  -1.200000      0.0000000E+00
  -1.190000      0.0000000E+00
  -1.180000      0.0000000E+00
  -1.170000      0.0000000E+00
  -1.160000      0.0000000E+00
  -1.150000      0.0000000E+00
  -1.140000      0.0000000E+00
  -1.130000      0.0000000E+00
  -1.120000      0.0000000E+00
  -1.110000      0.0000000E+00
  -1.100000      0.0000000E+00
  -1.090000      0.0000000E+00
  -1.080000      0.0000000E+00
  -1.070000      0.0000000E+00
  -1.060000      0.0000000E+00
  -1.050000      0.0000000E+00
  -1.040000      0.0000000E+00
  -1.030000      0.0000000E+00
  -1.020000      0.0000000E+00
  -1.010000      0.0000000E+00
  -1.000000      0.0000000E+00
 -0.9900000      0.0000000E+00
 -0.9800000      0.0000000E+00
 -0.9700000      0.0000000E+00
 -0.9600000      0.0000000E+00
 -0.9500000      0.0000000E+00
 -0.9400000      0.0000000E+00
 -0.9300000      0.0000000E+00
 -0.9200000      0.0000000E+00
 -0.9100000      0.0000000E+00
 -0.9000000      0.0000000E+00
 -0.8900000      0.0000000E+00
 -0.8800000      0.0000000E+00
 -0.8700000      0.0000000E+00
 -0.8600000      0.0000000E+00
 -0.8500000      0.0000000E+00
 -0.8400000      0.0000000E+00
 -0.8300000      0.0000000E+00
 -0.8200000      0.0000000E+00
 -0.8100000      0.0000000E+00
 -0.8000000      0.0000000E+00
 -0.7900000      0.0000000E+00
 -0.7800000      0.0000000E+00
 -0.7700000      0.0000000E+00
 -0.7600000      0.0000000E+00
 -0.7500000      0.0000000E+00
 -0.7400000      0.0000000E+00
 -0.7300000      0.0000000E+00
 -0.7200000      0.0000000E+00
 -0.7100000      0.0000000E+00
 -0.7000000      0.0000000E+00
 -0.6900000      0.0000000E+00
 -0.6800000      0.0000000E+00
 -0.6700000      0.0000000E+00
 -0.6600000      0.0000000E+00
 -0.6500000      0.0000000E+00
 -0.6400000      0.0000000E+00
 -0.6300000      0.0000000E+00
 -0.6200000      0.0000000E+00
 -0.6100000      0.0000000E+00
 -0.6000000      0.0000000E+00
 -0.5900000      0.0000000E+00
 -0.5800000      0.0000000E+00
 -0.5700000      0.0000000E+00
 -0.5600000      0.0000000E+00
 -0.5500000      0.0000000E+00
 -0.5400000      0.0000000E+00
 -0.5300000      0.0000000E+00
 -0.5200000      0.0000000E+00
 -0.5100000      0.0000000E+00
 -0.5000000      0.0000000E+00
 -0.4900000      0.0000000E+00
 -0.4800000      0.0000000E+00
 -0.4700000      0.0000000E+00
 -0.4600000      0.0000000E+00
 -0.4500000      0.0000000E+00
 -0.4400000      0.0000000E+00
 -0.4300000      0.0000000E+00
 -0.4200000      0.0000000E+00
 -0.4100000      0.0000000E+00
 -0.4000000      0.0000000E+00
 -0.3900000      0.0000000E+00
 -0.3800000      0.0000000E+00
 -0.3700000      0.0000000E+00
 -0.3600000      0.0000000E+00
 -0.3500000      0.0000000E+00
 -0.3400000      0.0000000E+00
 -0.3300000      0.0000000E+00
 -0.3200000      0.0000000E+00
 -0.3100000      0.0000000E+00
 -0.3000000      0.0000000E+00
 -0.2900000      0.0000000E+00
 -0.2800000      0.0000000E+00
 -0.2700000      0.0000000E+00
 -0.2600000      0.0000000E+00
 -0.2500000      0.0000000E+00
 -0.2400000      0.0000000E+00
 -0.2300000      0.0000000E+00
 -0.2200000      0.0000000E+00
 -0.2100000      0.0000000E+00
 -0.2000000      0.0000000E+00
 -0.1900000      0.0000000E+00
 -0.1800000      0.0000000E+00
 -0.1700000      0.0000000E+00
 -0.1600000      0.0000000E+00
 -0.1500000      0.0000000E+00
 -0.1400000      0.0000000E+00
 -0.1300000      0.0000000E+00
 -0.1200000      0.0000000E+00
 -0.1100000      0.0000000E+00
 -0.1000000      0.0000000E+00
 -9.0000004E-02  0.0000000E+00
 -7.9999998E-02  0.0000000E+00
 -7.0000000E-02  0.0000000E+00
 -5.9999999E-02  0.0000000E+00
 -5.0000001E-02  0.0000000E+00
 -3.9999999E-02  0.0000000E+00
 -2.9999999E-02  0.0000000E+00
 -2.0000000E-02  0.0000000E+00
 -9.9999998E-03  0.0000000E+00
 -3.4694470E-17  0.0000000E+00
  9.9999998E-03  0.0000000E+00
  2.0000000E-02  0.0000000E+00
  2.9999999E-02  0.0000000E+00
  3.9999999E-02  0.0000000E+00
  5.0000001E-02  0.0000000E+00
  5.9999999E-02  0.0000000E+00
  7.0000000E-02  0.0000000E+00
  7.9999998E-02  0.0000000E+00
  9.0000004E-02  0.0000000E+00
  0.1000000      0.0000000E+00
  0.1100000      0.0000000E+00
  0.1200000      0.0000000E+00
  0.1300000      0.0000000E+00
  0.1400000      0.0000000E+00
  0.1500000      0.0000000E+00
  0.1600000      0.0000000E+00
  0.1700000      0.0000000E+00
  0.1800000      0.0000000E+00
  0.1900000      0.0000000E+00
  0.2000000      0.0000000E+00
  0.2100000      0.0000000E+00
  0.2200000      0.0000000E+00
  0.2300000      0.0000000E+00
  0.2400000      0.0000000E+00
  0.2500000      0.0000000E+00
  0.2600000      0.0000000E+00
  0.2700000      0.0000000E+00
  0.2800000      0.0000000E+00
  0.2900000      0.0000000E+00
  0.3000000      0.0000000E+00
  0.3100000      0.0000000E+00
  0.3200000      0.0000000E+00
  0.3300000      0.0000000E+00
  0.3400000      0.0000000E+00
  0.3500000      0.0000000E+00
  0.3600000      0.0000000E+00
  0.3700000      0.0000000E+00
  0.3800000      0.0000000E+00
  0.3900000      0.0000000E+00
  0.4000000      0.0000000E+00
  0.4100000      0.0000000E+00
  0.4200000      0.0000000E+00
  0.4300000      0.0000000E+00
  0.4400000      0.0000000E+00
  0.4500000      0.0000000E+00
  0.4600000      0.0000000E+00
  0.4700000      0.0000000E+00
  0.4800000      0.0000000E+00
  0.4900000      0.0000000E+00
  0.5000000      0.0000000E+00
  0.5100000      0.0000000E+00
  0.5200000      0.0000000E+00
  0.5300000      0.0000000E+00
  0.5400000      0.0000000E+00
  0.5500000      0.0000000E+00
  0.5600000      0.0000000E+00
  0.5700000      0.0000000E+00
  0.5800000      0.0000000E+00
  0.5900000      0.0000000E+00
  0.6000000      0.0000000E+00
  0.6100000      0.0000000E+00
  0.6200000      0.0000000E+00
  0.6300000      0.0000000E+00
  0.6400000      0.0000000E+00
  0.6500000      0.0000000E+00
  0.6600000      0.0000000E+00
  0.6700000      0.0000000E+00
  0.6800000      0.0000000E+00
  0.6900000      0.0000000E+00
  0.7000000      0.0000000E+00
  0.7100000      0.0000000E+00
  0.7200000      0.0000000E+00
  0.7300000      0.0000000E+00
  0.7400000      0.0000000E+00
  0.7500000      0.0000000E+00
  0.7600000      0.0000000E+00
  0.7700000      0.0000000E+00
  0.7800000      0.0000000E+00
  0.7900000      0.0000000E+00
  0.8000000      0.0000000E+00
  0.8100000      0.0000000E+00
  0.8200000      0.0000000E+00
  0.8300000      0.0000000E+00
  0.8400000      0.0000000E+00
  0.8500000      0.0000000E+00
  0.8600000      0.0000000E+00
  0.8700000      0.0000000E+00
  0.8800000      0.0000000E+00
  0.8900000      0.0000000E+00
  0.9000000      0.0000000E+00
  0.9100000      0.0000000E+00
  0.9200000      0.0000000E+00
  0.9300000      0.0000000E+00
  0.9400000      0.0000000E+00
  0.9500000      0.0000000E+00
  0.9600000      0.0000000E+00
  0.9700000      0.0000000E+00
  0.9800000      0.0000000E+00
  0.9900000      0.0000000E+00
   1.000000      0.0000000E+00
   1.010000      0.0000000E+00
   1.020000      0.0000000E+00
   1.030000      0.0000000E+00
   1.040000      0.0000000E+00
   1.050000      0.0000000E+00
   1.060000      0.0000000E+00
   1.070000      0.0000000E+00
   1.080000      0.0000000E+00
   1.090000      0.0000000E+00
   1.100000      0.0000000E+00
   1.110000      0.0000000E+00
   1.120000      0.0000000E+00
   1.130000      0.0000000E+00
   1.140000      0.0000000E+00
   1.150000      0.0000000E+00
   1.160000      0.0000000E+00
   1.170000      0.0000000E+00
   1.180000      0.0000000E+00
   1.190000      0.0000000E+00
   1.200000      0.0000000E+00
   1.210000      0.0000000E+00
   1.220000      0.0000000E+00
   1.230000      0.0000000E+00
   1.240000      0.0000000E+00
   1.250000      0.0000000E+00
   1.260000      0.0000000E+00
   1.270000      0.0000000E+00
   1.280000      0.0000000E+00
   1.290000      0.0000000E+00
   1.300000      0.0000000E+00
   1.310000      0.0000000E+00
   1.320000      0.0000000E+00
   1.330000      0.0000000E+00
   1.340000      0.0000000E+00
   1.350000      0.0000000E+00
   1.360000      0.0000000E+00
   1.370000      0.0000000E+00
   1.380000      0.0000000E+00
   1.390000      0.0000000E+00
   1.400000      0.0000000E+00
   1.410000      0.0000000E+00
   1.420000      0.0000000E+00
   1.430000      0.0000000E+00
   1.440000      0.0000000E+00
   1.450000      0.0000000E+00
   1.460000      0.0000000E+00
   1.470000      0.0000000E+00
   1.480000      0.0000000E+00
   1.490000      0.0000000E+00
   1.500000      0.0000000E+00
   1.510000      0.0000000E+00
   1.520000      0.0000000E+00
   1.530000      0.0000000E+00
   1.540000      0.0000000E+00
   1.550000      0.0000000E+00
   1.560000      0.0000000E+00
   1.570000      0.0000000E+00
   1.580000      0.0000000E+00
   1.590000      0.0000000E+00
   1.600000      0.0000000E+00
   1.610000      0.0000000E+00
   1.620000      0.0000000E+00
   1.630000      0.0000000E+00
   1.640000      0.0000000E+00
   1.650000      0.0000000E+00
   1.660000      0.0000000E+00
   1.670000      0.0000000E+00
   1.680000      0.0000000E+00
   1.690000      0.0000000E+00
   1.700000      0.0000000E+00
   1.710000      0.0000000E+00
   1.720000      0.0000000E+00
   1.730000      0.0000000E+00
   1.740000      0.0000000E+00
   1.750000      0.0000000E+00
   1.760000      0.0000000E+00
   1.770000      0.0000000E+00
   1.780000      0.0000000E+00
   1.790000      0.0000000E+00
   1.800000      0.0000000E+00
   1.810000      0.0000000E+00
   1.820000      0.0000000E+00
   1.830000      0.0000000E+00
   1.840000      0.0000000E+00
   1.850000      0.0000000E+00
   1.860000      0.0000000E+00
   1.870000      0.0000000E+00
   1.880000      0.0000000E+00
   1.890000      0.0000000E+00
   1.900000      0.0000000E+00
   1.910000      0.0000000E+00
   1.920000      0.0000000E+00
   1.930000      0.0000000E+00
   1.940000      0.0000000E+00
   1.950000      0.0000000E+00
   1.960000      0.0000000E+00
   1.970000      0.0000000E+00
   1.980000      0.0000000E+00
   1.990000      0.0000000E+00
   2.000000      0.0000000E+00
   2.010000      0.0000000E+00
   2.020000      0.0000000E+00
   2.030000      0.0000000E+00
   2.040000      0.0000000E+00
   2.050000      0.0000000E+00
   2.060000      0.0000000E+00
   2.070000      0.0000000E+00
   2.080000      0.0000000E+00
   2.090000      0.0000000E+00
   2.100000      0.0000000E+00
   2.110000      0.0000000E+00
   2.120000      0.0000000E+00
   2.130000      0.0000000E+00
   2.140000      0.0000000E+00
   2.150000      0.0000000E+00
   2.160000      0.0000000E+00
   2.170000      0.0000000E+00
   2.180000      0.0000000E+00
   2.190000      0.0000000E+00
   2.200000      0.0000000E+00
   2.210000      0.0000000E+00
   2.220000      0.0000000E+00
   2.230000      0.0000000E+00
   2.240000      0.0000000E+00
   2.250000      0.0000000E+00
   2.260000      0.0000000E+00
   2.270000      0.0000000E+00
   2.280000      0.0000000E+00
   2.290000      0.0000000E+00
   2.300000      0.0000000E+00
   2.310000      0.0000000E+00
   2.320000      0.0000000E+00
   2.330000      0.0000000E+00
   2.340000      0.0000000E+00
   2.350000      0.0000000E+00
   2.360000      0.0000000E+00
   2.370000      0.0000000E+00
   2.380000      0.0000000E+00
   2.390000      0.0000000E+00
   2.400000      0.0000000E+00
   2.410000      0.0000000E+00
   2.420000      0.0000000E+00
   2.430000      0.0000000E+00
   2.440000      0.0000000E+00
   2.450000      1.2500765E-38
   2.460000      1.6154942E-38
   2.470000      2.1355559E-38
   2.480000      2.6475971E-38
   2.490000      3.1964666E-38
   2.500000      3.7719443E-38
   2.510000      3.8220074E-38
   2.520000      3.3598482E-38
   2.530000      2.8484079E-38
   2.540000      2.1693433E-38
   2.550000      1.3779303E-38
   2.560000      0.0000000E+00
   2.570000      0.0000000E+00
   2.580000     -1.4820109E-38
   2.590000     -2.6017267E-38
   2.600000     -3.6571981E-38
   2.610000     -4.5684345E-38
   2.620000     -5.6988936E-38
   2.630000     -7.0145503E-38
   2.640000     -8.2306745E-38
   2.650000     -9.5205518E-38
   2.660000     -1.0448865E-37
   2.670000     -1.0870797E-37
   2.680000     -1.1207235E-37
   2.690000     -1.1793458E-37
   2.700000     -1.2646826E-37
   2.710000     -1.3244228E-37
   2.720000     -1.3960303E-37
   2.730000     -1.5064232E-37
   2.740000     -1.6302128E-37
   2.750000     -1.6370445E-37
   2.760000     -1.4876548E-37
   2.770000     -1.2915089E-37
   2.780000     -1.0068595E-37
   2.790000     -6.6757780E-38
   2.800000     -3.5361851E-38
   2.810000      0.0000000E+00
   2.820000      2.2614065E-38
   2.830000      4.6373890E-38
   2.840000      7.2926341E-38
   2.850000      1.0518665E-37
   2.860000      1.4464855E-37
   2.870000      1.6598407E-37
   2.880000      1.6383211E-37
   2.890000      1.5983565E-37
   2.900000      1.4970817E-37
   2.910000      1.3857325E-37
   2.920000      1.4009277E-37
   2.930000      1.3735469E-37
   2.940000      1.1915342E-37
   2.950000      9.2700944E-38
   2.960000      1.2555188E-37
   2.970000      1.9189220E-37
   2.980000      2.5195992E-37
   2.990000      3.3996783E-37
   3.000000      4.2146744E-37
   3.010000      4.8420705E-37
   3.020000      5.1966214E-37
   3.030000      5.4388183E-37
   3.040000      6.0250220E-37
   3.050000      6.8820983E-37
   3.060000      7.7115468E-37
   3.070000      8.3773290E-37
   3.080000      6.3171176E-37
   3.090000      1.4231186E-37
   3.100000     -4.2861263E-37
   3.110000     -1.0778671E-36
   3.120000     -1.7945131E-36
   3.130000     -2.5708917E-36
   3.140000     -3.4179195E-36
   3.150000     -4.3343266E-36
   3.160000     -5.2593618E-36
   3.170000     -6.1641929E-36
   3.180000     -7.0887253E-36
   3.190000     -8.0492966E-36
   3.200000     -9.1382998E-36
   3.210000     -1.0301220E-35
   3.220000     -1.1399719E-35
   3.230000     -1.2339920E-35
   3.240000     -1.3122586E-35
   3.250000     -1.3921504E-35
   3.260000     -1.4884062E-35
   3.270000     -1.6165019E-35
   3.280000     -1.7717337E-35
   3.290000     -1.9313333E-35
   3.300000     -2.0698020E-35
   3.310000     -2.1778489E-35
   3.320000     -2.2680044E-35
   3.330000     -2.3587554E-35
   3.340000     -2.4476774E-35
   3.350000     -2.5249590E-35
   3.360000     -2.5957975E-35
   3.370000     -2.6722864E-35
   3.380000     -2.7541511E-35
   3.390000     -2.8564022E-35
   3.400000     -2.9759536E-35
   3.410000     -3.0895008E-35
   3.420000     -3.1915785E-35
   3.430000     -3.2859685E-35
   3.440000     -3.3770228E-35
   3.450000     -3.4426668E-35
   3.460000     -3.4752853E-35
   3.470000     -3.4882476E-35
   3.480000     -3.4846032E-35
   3.490000     -3.4587799E-35
   3.500000     -3.4030355E-35
   3.510000     -3.3119961E-35
   3.520000     -3.1966800E-35
   3.530000     -3.0586188E-35
   3.540000     -2.8678096E-35
   3.550000     -2.6199178E-35
   3.560000     -2.3248129E-35
   3.570000     -1.9704883E-35
   3.580000     -1.5576537E-35
   3.590000     -1.0872431E-35
   3.600000     -5.5141608E-36
   3.610000      3.9557248E-37
   3.620000      6.9405272E-36
   3.630000      1.4280920E-35
   3.640000      2.2457495E-35
   3.650000      3.1407923E-35
   3.660000      4.1039352E-35
   3.670000      5.1340783E-35
   3.680000      6.2085175E-35
   3.690000      7.3378019E-35
   3.700000      8.5243372E-35
   3.710000      9.7474219E-35
   3.720000      1.1004416E-34
   3.730000      1.2294643E-34
   3.740000      1.3533043E-34
   3.750000      1.4757219E-34
   3.760000      1.6062362E-34
   3.770000      1.7425634E-34
   3.780000      1.8819766E-34
   3.790000      2.0227893E-34
   3.800000      2.1613463E-34
   3.810000      2.3050891E-34
   3.820000      2.4544545E-34
   3.830000      2.6091034E-34
   3.840000      2.7759758E-34
   3.850000      2.9380671E-34
   3.860000      3.0843709E-34
   3.870000      3.2151896E-34
   3.880000      3.3319431E-34
   3.890000      3.4328871E-34
   3.900000      3.5177320E-34
   3.910000      3.5561810E-34
   3.920000      3.5372806E-34
   3.930000      3.5023964E-34
   3.940000      3.4556625E-34
   3.950000      3.3864330E-34
   3.960000      3.2888185E-34
   3.970000      3.1608761E-34
   3.980000      3.0427993E-34
   3.990000      2.9235029E-34
   4.000000      2.7617335E-34
   4.010000      2.5688659E-34
   4.020000      2.3405172E-34
   4.030000      2.0721833E-34
   4.040000      1.7738992E-34
   4.050000      1.4242395E-34
   4.060000      1.0292025E-34
   4.070000      6.0594610E-35
   4.080000      1.3720476E-35
   4.090000     -3.8341406E-35
   4.100000     -9.5006140E-35
   4.110000     -1.5494090E-34
   4.120000     -2.2540692E-34
   4.130000     -3.0861752E-34
   4.140000     -3.9731052E-34
   4.150000     -4.9073257E-34
   4.160000     -5.9084653E-34
   4.170000     -6.9771816E-34
   4.180000     -8.0851346E-34
   4.190000     -9.2151392E-34
   4.200000     -1.0390795E-33
   4.210000     -1.1595571E-33
   4.220000     -1.2769713E-33
   4.230000     -1.3905913E-33
   4.240000     -1.5036904E-33
   4.250000     -1.6161328E-33
   4.260000     -1.7263999E-33
   4.270000     -1.8346675E-33
   4.280000     -1.9369616E-33
   4.290000     -2.0318828E-33
   4.300000     -2.1168616E-33
   4.310000     -2.1904540E-33
   4.320000     -2.2572111E-33
   4.330000     -2.3174489E-33
   4.340000     -2.3694050E-33
   4.350000     -2.4123179E-33
   4.360000     -2.4449090E-33
   4.370000     -2.4632064E-33
   4.380000     -2.4689957E-33
   4.390000     -2.4636389E-33
   4.400000     -2.4411060E-33
   4.410000     -2.3979080E-33
   4.420000     -2.3319676E-33
   4.430000     -2.2419728E-33
   4.440000     -2.1272993E-33
   4.450000     -1.9864767E-33
   4.460000     -1.8173207E-33
   4.470000     -1.6178371E-33
   4.480000     -1.3852353E-33
   4.490000     -1.1174264E-33
   4.500000     -8.1430130E-34
   4.510000     -4.7479714E-34
   4.520000     -9.8721494E-35
   4.530000      3.1742834E-34
   4.540000      7.7370313E-34
   4.550000      1.2740793E-33
   4.560000      1.8177534E-33
   4.570000      2.4033302E-33
   4.580000      3.0353178E-33
   4.590000      3.7108270E-33
   4.600000      4.4291029E-33
   4.610000      5.1901066E-33
   4.620000      5.9887892E-33
   4.630000      6.8201521E-33
   4.640000      7.6867831E-33
   4.650000      8.5866182E-33
   4.660000      9.5141251E-33
   4.670000      1.0465011E-32
   4.680000      1.1434480E-32
   4.690000      1.2417305E-32
   4.700000      1.3409658E-32
   4.710000      1.4404766E-32
   4.720000      1.5393194E-32
   4.730000      1.6370571E-32
   4.740000      1.7332622E-32
   4.750000      1.8271086E-32
   4.760000      1.9174551E-32
   4.770000      2.0034027E-32
   4.780000      2.0842170E-32
   4.790000      2.1588137E-32
   4.800000      2.2261699E-32
   4.810000      2.2854262E-32
   4.820000      2.3354548E-32
   4.830000      2.3749350E-32
   4.840000      2.4026054E-32
   4.850000      2.4172030E-32
   4.860000      2.4175027E-32
   4.870000      2.4021118E-32
   4.880000      2.3694620E-32
   4.890000      2.3180609E-32
   4.900000      2.2465460E-32
   4.910000      2.1531670E-32
   4.920000      2.0361746E-32
   4.930000      1.8940951E-32
   4.940000      1.7254226E-32
   4.950000      1.5285829E-32
   4.960000      1.3019584E-32
   4.970000      1.0441098E-32
   4.980000      7.5362544E-33
   4.990000      4.2916751E-33
   5.000000      6.9516454E-34
   5.010000     -3.2642222E-33
   5.020000     -7.5962025E-33
   5.030000     -1.2308761E-32
   5.040000     -1.7408002E-32
   5.050000     -2.2896142E-32
   5.060000     -2.8777357E-32
   5.070000     -3.5053283E-32
   5.080000     -4.1718841E-32
   5.090000     -4.8768395E-32
   5.100000     -5.6193444E-32
   5.110000     -6.3982152E-32
   5.120000     -7.2119429E-32
   5.130000     -8.0586956E-32
   5.140000     -8.9362626E-32
   5.150000     -9.8420474E-32
   5.160000     -1.0773054E-31
   5.170000     -1.1725870E-31
   5.180000     -1.2696641E-31
   5.190000     -1.3681036E-31
   5.200000     -1.4674266E-31
   5.210000     -1.5671025E-31
   5.220000     -1.6665482E-31
   5.230000     -1.7651273E-31
   5.240000     -1.8621462E-31
   5.250000     -1.9568458E-31
   5.260000     -2.0484280E-31
   5.270000     -2.1360376E-31
   5.280000     -2.2187327E-31
   5.290000     -2.2955232E-31
   5.300000     -2.3653622E-31
   5.310000     -2.4271365E-31
   5.320000     -2.4796750E-31
   5.330000     -2.5217490E-31
   5.340000     -2.5520676E-31
   5.350000     -2.5692841E-31
   5.360000     -2.5720047E-31
   5.370000     -2.5587830E-31
   5.380000     -2.5281272E-31
   5.390000     -2.4785056E-31
   5.400000     -2.4083495E-31
   5.410000     -2.3160610E-31
   5.420000     -2.2000197E-31
   5.430000     -2.0585887E-31
   5.440000     -1.8901245E-31
   5.450000     -1.6929831E-31
   5.460000     -1.4655332E-31
   5.470000     -1.2061651E-31
   5.480000     -9.1329804E-32
   5.490000     -5.8539683E-32
   5.500000     -2.2098105E-32
   5.510000      1.8136025E-32
   5.520000      6.2295505E-32
   5.530000      1.1050344E-31
   5.540000      1.6287168E-31
   5.550000      2.1949912E-31
   5.560000      2.8047006E-31
   5.570000      3.4585254E-31
   5.580000      4.1569637E-31
   5.590000      4.9003125E-31
   5.600000      5.6886479E-31
   5.610000      6.5218039E-31
   5.620000      7.3993518E-31
   5.630000      8.3205769E-31
   5.640000      9.2844578E-31
   5.650000      1.0289643E-30
   5.660000      1.1334425E-30
   5.670000      1.2416722E-30
   5.680000      1.3534050E-30
   5.690000      1.4683500E-30
   5.700000      1.5861713E-30
   5.710000      1.7064856E-30
   5.720000      1.8288610E-30
   5.730000      1.9528127E-30
   5.740000      2.0778021E-30
   5.750000      2.2032347E-30
   5.760000      2.3284576E-30
   5.770000      2.4527579E-30
   5.780000      2.5753609E-30
   5.790000      2.6954277E-30
   5.800000      2.8120554E-30
   5.810000      2.9242743E-30
   5.820000      3.0310477E-30
   5.830000      3.1312711E-30
   5.840000      3.2237701E-30
   5.850000      3.3073047E-30
   5.860000      3.3805653E-30
   5.870000      3.4421740E-30
   5.880000      3.4906856E-30
   5.890000      3.5245906E-30
   5.900000      3.5423148E-30
   5.910000      3.5422226E-30
   5.920000      3.5226203E-30
   5.930000      3.4817578E-30
   5.940000      3.4178335E-30
   5.950000      3.3289989E-30
   5.960000      3.2133626E-30
   5.970000      3.0689972E-30
   5.980000      2.8939443E-30
   5.990000      2.6862224E-30
   6.000000      2.4438345E-30
   6.010000      2.1647765E-30
   6.020000      1.8470460E-30
   6.030000      1.4886536E-30
   6.040000      1.0876323E-30
   6.050000      6.4204961E-31
   6.060000      1.5002091E-31
   6.070000     -3.9027823E-31
   6.080000     -9.8059673E-31
   6.090000     -1.6225939E-30
   6.100000     -2.3178240E-30
   6.110000     -3.0677158E-30
   6.120000     -3.8735593E-30
   6.130000     -4.7364843E-30
   6.140000     -5.6574425E-30
   6.150000     -6.6371849E-30
   6.160000     -7.6762422E-30
   6.170000     -8.7749040E-30
   6.180000     -9.9331928E-30
   6.190000     -1.1150845E-29
   6.200000     -1.2427282E-29
   6.210000     -1.3761589E-29
   6.220000     -1.5152487E-29
   6.230000     -1.6598313E-29
   6.240000     -1.8096983E-29
   6.250000     -1.9645975E-29
   6.260000     -2.1242299E-29
   6.270000     -2.2882472E-29
   6.280000     -2.4562489E-29
   6.290000     -2.6277797E-29
   6.300000     -2.8023271E-29
   6.310000     -2.9793179E-29
   6.320000     -3.1581174E-29
   6.330000     -3.3380254E-29
   6.340000     -3.5182744E-29
   6.350000     -3.6980277E-29
   6.360000     -3.8763764E-29
   6.370000     -4.0523378E-29
   6.380000     -4.2248541E-29
   6.390000     -4.3927910E-29
   6.400000     -4.5549348E-29
   6.410000     -4.7099920E-29
   6.420000     -4.8565887E-29
   6.430000     -4.9932698E-29
   6.440000     -5.1184995E-29
   6.450000     -5.2306590E-29
   6.460000     -5.3280497E-29
   6.470000     -5.4088924E-29
   6.480000     -5.4713274E-29
   6.490000     -5.5134192E-29
   6.500000     -5.5331564E-29
   6.510000     -5.5284541E-29
   6.520000     -5.4971590E-29
   6.530000     -5.4370513E-29
   6.540000     -5.3458513E-29
   6.550000     -5.2212208E-29
   6.560000     -5.0607733E-29
   6.570000     -4.8620770E-29
   6.580000     -4.6226622E-29
   6.590000     -4.3400317E-29
   6.600000     -4.0116669E-29
   6.610000     -3.6350378E-29
   6.620000     -3.2076138E-29
   6.630000     -2.7268752E-29
   6.640000     -2.1903242E-29
   6.650000     -1.5954986E-29
   6.660000     -9.3998381E-30
   6.670000     -2.2143129E-30
   6.680000      5.6242804E-30
   6.690000      1.4137677E-29
   6.700000      2.3346469E-29
   6.710000      3.3269916E-29
   6.720000      4.3925774E-29
   6.730000      5.5330071E-29
   6.740000      6.7496887E-29
   6.750000      8.0438131E-29
   6.760000      9.4163349E-29
   6.770000      1.0867943E-28
   6.780000      1.2399041E-28
   6.790000      1.4009713E-28
   6.800000      1.5699708E-28
   6.810000      1.7468405E-28
   6.820000      1.9314790E-28
   6.830000      2.1237424E-28
   6.840000      2.3234421E-28
   6.850000      2.5303404E-28
   6.860000      2.7441495E-28
   6.870000      2.9645274E-28
   6.880000      3.1910743E-28
   6.890000      3.4233311E-28
   6.900000      3.6607754E-28
   6.910000      3.9028193E-28
   6.920000      4.1488055E-28
   6.930000      4.3980060E-28
   6.940000      4.6496167E-28
   6.950000      4.9027570E-28
   6.960000      5.1564675E-28
   6.970000      5.4097056E-28
   6.980000      5.6613443E-28
   6.990000      5.9101696E-28
   7.000000      6.1548802E-28
   7.010000      6.3940826E-28
   7.020000      6.6262934E-28
   7.030000      6.8499343E-28
   7.040000      7.0633346E-28
   7.050000      7.2647272E-28
   7.060000      7.4522511E-28