  -2.600000      0.0000000E+00
  -2.590000      0.0000000E+00
  -2.580000      0.0000000E+00
  -2.570000      0.0000000E+00
  -2.560000      0.0000000E+00
  -2.550000      0.0000000E+00
  -2.540000      0.0000000E+00
  -2.530000      0.0000000E+00
  -2.520000      0.0000000E+00
  -2.510000      0.0000000E+00
  -2.500000      0.0000000E+00
  -2.490000      0.0000000E+00
  -2.480000      0.0000000E+00
  -2.470000      0.0000000E+00
  -2.460000      0.0000000E+00
  -2.450000      0.0000000E+00
  -2.440000      0.0000000E+00
  -2.430000      0.0000000E+00
  -2.420000      0.0000000E+00
  -2.410000      0.0000000E+00
  -2.400000      0.0000000E+00
  -2.390000      0.0000000E+00
  -2.380000      0.0000000E+00
  -2.370000      0.0000000E+00
  -2.360000      0.0000000E+00
  -2.350000      0.0000000E+00
  -2.340000      0.0000000E+00
  -2.330000      0.0000000E+00
  -2.320000      0.0000000E+00
  -2.310000      0.0000000E+00
  -2.300000      0.0000000E+00
  -2.290000      0.0000000E+00
  -2.280000      0.0000000E+00
  -2.270000      0.0000000E+00
  -2.260000      0.0000000E+00
  -2.250000      0.0000000E+00
  -2.240000      0.0000000E+00
  -2.230000      0.0000000E+00
  -2.220000      0.0000000E+00
  -2.210000      0.0000000E+00
  -2.200000      0.0000000E+00
  -2.190000      0.0000000E+00
  -2.180000      0.0000000E+00
  -2.170000      0.0000000E+00
  -2.160000      0.0000000E+00
  -2.150000      0.0000000E+00
  -2.140000      0.0000000E+00
  -2.130000      0.0000000E+00
  -2.120000      0.0000000E+00
  -2.110000      0.0000000E+00
  -2.100000      0.0000000E+00
  -2.090000      0.0000000E+00
  -2.080000      0.0000000E+00
  -2.070000      0.0000000E+00
  -2.060000      0.0000000E+00
  -2.050000      0.0000000E+00
  -2.040000      0.0000000E+00
  -2.030000      0.0000000E+00
  -2.020000      0.0000000E+00
  -2.010000      0.0000000E+00
  -2.000000      0.0000000E+00
  -1.990000      0.0000000E+00
  -1.980000      0.0000000E+00
  -1.970000      0.0000000E+00
  -1.960000      0.0000000E+00
  -1.950000      0.0000000E+00
  -1.940000      0.0000000E+00
  -1.930000      0.0000000E+00
  -1.920000      0.0000000E+00
  -1.910000      0.0000000E+00
  -1.900000      0.0000000E+00
  -1.890000      0.0000000E+00
  -1.880000      0.0000000E+00
  -1.870000      0.0000000E+00
  -1.860000      0.0000000E+00
  -1.850000      0.0000000E+00
  -1.840000      0.0000000E+00
  -1.830000      0.0000000E+00
  -1.820000      0.0000000E+00
  -1.810000      0.0000000E+00
  -1.800000      0.0000000E+00
  -1.790000      0.0000000E+00
  -1.780000      0.0000000E+00
  -1.770000      0.0000000E+00
  -1.760000      0.0000000E+00
  -1.750000      0.0000000E+00
  -1.740000      0.0000000E+00
  -1.730000      0.0000000E+00
  -1.720000      0.0000000E+00
  -1.710000      0.0000000E+00
  -1.700000      0.0000000E+00
  -1.690000      0.0000000E+00
  -1.680000      0.0000000E+00
  -1.670000      0.0000000E+00
  -1.660000      0.0000000E+00
  -1.650000      0.0000000E+00
  -1.640000      0.0000000E+00
  -1.630000      0.0000000E+00
  -1.620000      0.0000000E+00
  -1.610000      0.0000000E+00
  -1.600000      0.0000000E+00
  -1.590000      0.0000000E+00
  -1.580000      0.0000000E+00
  -1.570000      0.0000000E+00
  -1.560000      0.0000000E+00
  -1.550000      0.0000000E+00
  -1.540000      0.0000000E+00
  -1.530000      0.0000000E+00
  -1.520000      0.0000000E+00
  -1.510000      0.0000000E+00
  -1.500000      0.0000000E+00
  -1.490000      0.0000000E+00
  -1.480000      0.0000000E+00
  -1.470000      0.0000000E+00
  -1.460000      0.0000000E+00
  -1.450000      0.0000000E+00
  -1.440000      0.0000000E+00
  -1.430000      0.0000000E+00
  -1.420000      0.0000000E+00
  -1.410000      0.0000000E+00
  -1.400000      0.0000000E+00
  -1.390000      0.0000000E+00
  -1.380000      0.0000000E+00
  -1.370000      0.0000000E+00
  -1.360000      0.0000000E+00
  -1.350000      0.0000000E+00
  -1.340000      0.0000000E+00
  -1.330000      0.0000000E+00
  -1.320000      0.0000000E+00
  -1.310000      0.0000000E+00
  -1.300000      0.0000000E+00
  -1.290000      0.0000000E+00
  -1.280000      0.0000000E+00
  -1.270000      0.0000000E+00
  -1.260000      0.0000000E+00
  -1.250000      0.0000000E+00
  -1.240000      0.0000000E+00
  -1.230000      0.0000000E+00
  -1.220000      0.0000000E+00
  -1.210000      0.0000000E+00
  -1.200000      0.0000000E+00
  -1.190000      0.0000000E+00
  -1.180000      0.0000000E+00
  -1.170000      0.0000000E+00
  -1.160000      0.0000000E+00
  -1.150000      0.0000000E+00
  -1.140000      0.0000000E+00
  -1.130000      0.0000000E+00
  -1.120000      0.0000000E+00
  -1.110000      0.0000000E+00
  -1.100000      0.0000000E+00
  -1.090000      0.0000000E+00
  -1.080000      0.0000000E+00
  -1.070000      0.0000000E+00
  -1.060000      0.0000000E+00
  -1.050000      0.0000000E+00
  -1.040000      0.0000000E+00
  -1.030000      0.0000000E+00
  -1.020000      0.0000000E+00
  -1.010000      0.0000000E+00
  -1.000000      0.0000000E+00
 -0.9900000      0.0000000E+00
 -0.9800000      0.0000000E+00
 -0.9700000      0.0000000E+00
 -0.9600000      0.0000000E+00
 -0.9500000      0.0000000E+00
 -0.9400000      0.0000000E+00
 -0.9300000      0.0000000E+00
 -0.9200000      0.0000000E+00
 -0.9100000      0.0000000E+00
 -0.9000000      0.0000000E+00
 -0.8900000      0.0000000E+00
 -0.8800000      0.0000000E+00
 -0.8700000      0.0000000E+00
 -0.8600000      0.0000000E+00
 -0.8500000      0.0000000E+00
 -0.8400000      0.0000000E+00
 -0.8300000      0.0000000E+00
 -0.8200000      0.0000000E+00
 -0.8100000      0.0000000E+00
 -0.8000000      0.0000000E+00
 -0.7900000      0.0000000E+00
 -0.7800000      0.0000000E+00
 -0.7700000      0.0000000E+00
 -0.7600000      0.0000000E+00
 -0.7500000      0.0000000E+00
 -0.7400000      0.0000000E+00
 -0.7300000      0.0000000E+00
 -0.7200000      0.0000000E+00
 -0.7100000      0.0000000E+00
 -0.7000000      0.0000000E+00
 -0.6900000      0.0000000E+00
 -0.6800000      0.0000000E+00
 -0.6700000      0.0000000E+00
 -0.6600000      0.0000000E+00
 -0.6500000      0.0000000E+00
 -0.6400000      0.0000000E+00
 -0.6300000      0.0000000E+00
 -0.6200000      0.0000000E+00
 -0.6100000      0.0000000E+00
 -0.6000000      0.0000000E+00
 -0.5900000      0.0000000E+00
 -0.5800000      0.0000000E+00
 -0.5700000      0.0000000E+00
 -0.5600000      0.0000000E+00
 -0.5500000      0.0000000E+00
 -0.5400000      0.0000000E+00
 -0.5300000      0.0000000E+00
 -0.5200000      0.0000000E+00
 -0.5100000      0.0000000E+00
 -0.5000000      0.0000000E+00
 -0.4900000      0.0000000E+00
 -0.4800000      0.0000000E+00
 -0.4700000      0.0000000E+00
 -0.4600000      0.0000000E+00
 -0.4500000      0.0000000E+00
 -0.4400000      0.0000000E+00
 -0.4300000      0.0000000E+00
 -0.4200000      0.0000000E+00
 -0.4100000      0.0000000E+00
 -0.4000000      0.0000000E+00
 -0.3900000      0.0000000E+00
 -0.3800000      0.0000000E+00
 -0.3700000      0.0000000E+00
 -0.3600000      0.0000000E+00
 -0.3500000      0.0000000E+00
 -0.3400000      0.0000000E+00
 -0.3300000      0.0000000E+00
 -0.3200000      0.0000000E+00
 -0.3100000      0.0000000E+00
 -0.3000000      0.0000000E+00
 -0.2900000      0.0000000E+00
 -0.2800000      0.0000000E+00
 -0.2700000      0.0000000E+00
 -0.2600000      0.0000000E+00
 -0.2500000      0.0000000E+00
 -0.2400000      0.0000000E+00
 -0.2300000      0.0000000E+00
 -0.2200000      0.0000000E+00
 -0.2100000      0.0000000E+00
 -0.2000000      0.0000000E+00
 -0.1900000      0.0000000E+00
 -0.1800000      0.0000000E+00
 -0.1700000      0.0000000E+00
 -0.1600000      0.0000000E+00
 -0.1500000      0.0000000E+00
 -0.1400000      0.0000000E+00
 -0.1300000      0.0000000E+00
 -0.1200000      0.0000000E+00
 -0.1100000      0.0000000E+00
 -0.1000000      0.0000000E+00
 -9.0000004E-02  0.0000000E+00
 -7.9999998E-02  0.0000000E+00
 -7.0000000E-02  0.0000000E+00
 -5.9999999E-02  0.0000000E+00
 -5.0000001E-02  0.0000000E+00
 -3.9999999E-02  0.0000000E+00
 -2.9999999E-02  0.0000000E+00
 -2.0000000E-02  0.0000000E+00
 -9.9999998E-03  0.0000000E+00
 -3.4694470E-17  0.0000000E+00
  9.9999998E-03  0.0000000E+00
  2.0000000E-02  0.0000000E+00
  2.9999999E-02  0.0000000E+00
  3.9999999E-02  0.0000000E+00
  5.0000001E-02  0.0000000E+00
  5.9999999E-02  0.0000000E+00
  7.0000000E-02  0.0000000E+00
  7.9999998E-02  0.0000000E+00
  9.0000004E-02  0.0000000E+00
  0.1000000      0.0000000E+00
  0.1100000      0.0000000E+00
  0.1200000      0.0000000E+00
  0.1300000      0.0000000E+00
  0.1400000      0.0000000E+00
  0.1500000      0.0000000E+00
  0.1600000      0.0000000E+00
  0.1700000      0.0000000E+00
  0.1800000      0.0000000E+00
  0.1900000      0.0000000E+00
  0.2000000      0.0000000E+00
  0.2100000      0.0000000E+00
  0.2200000      0.0000000E+00
  0.2300000      0.0000000E+00
  0.2400000      0.0000000E+00
  0.2500000      0.0000000E+00
  0.2600000      0.0000000E+00
  0.2700000      0.0000000E+00
  0.2800000      0.0000000E+00
  0.2900000      0.0000000E+00
  0.3000000      0.0000000E+00
  0.3100000      0.0000000E+00
  0.3200000      0.0000000E+00
  0.3300000      0.0000000E+00
  0.3400000      0.0000000E+00
  0.3500000      0.0000000E+00
  0.3600000      0.0000000E+00
  0.3700000      0.0000000E+00
  0.3800000      0.0000000E+00
  0.3900000      0.0000000E+00
  0.4000000      0.0000000E+00
  0.4100000      0.0000000E+00
  0.4200000      0.0000000E+00
  0.4300000      0.0000000E+00
  0.4400000      0.0000000E+00
  0.4500000      0.0000000E+00
  0.4600000      0.0000000E+00
  0.4700000      0.0000000E+00
  0.4800000      0.0000000E+00
  0.4900000      0.0000000E+00
  0.5000000      0.0000000E+00
  0.5100000      0.0000000E+00
  0.5200000      0.0000000E+00
  0.5300000      0.0000000E+00
  0.5400000      0.0000000E+00
  0.5500000      0.0000000E+00
  0.5600000      0.0000000E+00
  0.5700000      0.0000000E+00
  0.5800000      0.0000000E+00
  0.5900000      0.0000000E+00
  0.6000000      0.0000000E+00
  0.6100000      0.0000000E+00
  0.6200000      0.0000000E+00
  0.6300000      0.0000000E+00
  0.6400000      0.0000000E+00
  0.6500000      0.0000000E+00
  0.6600000      0.0000000E+00
  0.6700000      0.0000000E+00
  0.6800000      0.0000000E+00
  0.6900000      0.0000000E+00
  0.7000000      0.0000000E+00
  0.7100000      0.0000000E+00
  0.7200000      0.0000000E+00
  0.7300000      0.0000000E+00
  0.7400000      0.0000000E+00
  0.7500000      0.0000000E+00
  0.7600000      0.0000000E+00
  0.7700000      0.0000000E+00
  0.7800000      0.0000000E+00
  0.7900000      0.0000000E+00
  0.8000000      0.0000000E+00
  0.8100000      0.0000000E+00
  0.8200000      0.0000000E+00
  0.8300000      0.0000000E+00
  0.8400000      0.0000000E+00
  0.8500000      0.0000000E+00
  0.8600000      0.0000000E+00
  0.8700000      0.0000000E+00
  0.8800000      0.0000000E+00
  0.8900000      0.0000000E+00
  0.9000000      0.0000000E+00
  0.9100000      0.0000000E+00
  0.9200000      0.0000000E+00
  0.9300000      0.0000000E+00
  0.9400000      0.0000000E+00
  0.9500000      0.0000000E+00
  0.9600000      0.0000000E+00
  0.9700000      0.0000000E+00
  0.9800000      0.0000000E+00
  0.9900000      0.0000000E+00
   1.000000      0.0000000E+00
   1.010000      0.0000000E+00
   1.020000      0.0000000E+00
   1.030000      0.0000000E+00
   1.040000      0.0000000E+00
   1.050000      0.0000000E+00
   1.060000      0.0000000E+00
   1.070000      0.0000000E+00
   1.080000      0.0000000E+00
   1.090000      0.0000000E+00
   1.100000      0.0000000E+00
   1.110000      0.0000000E+00
   1.120000      0.0000000E+00
   1.130000      0.0000000E+00
   1.140000      0.0000000E+00
   1.150000      0.0000000E+00
   1.160000      0.0000000E+00
   1.170000      0.0000000E+00
   1.180000      0.0000000E+00
   1.190000      0.0000000E+00
   1.200000      0.0000000E+00
   1.210000      0.0000000E+00
   1.220000      0.0000000E+00
   1.230000      0.0000000E+00
   1.240000      0.0000000E+00
   1.250000      0.0000000E+00
   1.260000      0.0000000E+00
   1.270000      0.0000000E+00
   1.280000      0.0000000E+00
   1.290000      0.0000000E+00
   1.300000      0.0000000E+00
   1.310000      0.0000000E+00
   1.320000      0.0000000E+00
   1.330000      0.0000000E+00
   1.340000      0.0000000E+00
   1.350000      0.0000000E+00
   1.360000      0.0000000E+00
   1.370000      0.0000000E+00
   1.380000      0.0000000E+00
   1.390000      0.0000000E+00
   1.400000      0.0000000E+00
   1.410000      0.0000000E+00
   1.420000      0.0000000E+00
   1.430000      0.0000000E+00
   1.440000      0.0000000E+00
   1.450000      0.0000000E+00
   1.460000      0.0000000E+00
   1.470000      0.0000000E+00
   1.480000      0.0000000E+00
   1.490000      0.0000000E+00
   1.500000      0.0000000E+00
   1.510000      0.0000000E+00
   1.520000      0.0000000E+00
   1.530000      0.0000000E+00
   1.540000      0.0000000E+00
   1.550000      0.0000000E+00
   1.560000      0.0000000E+00
   1.570000      0.0000000E+00
   1.580000      0.0000000E+00
   1.590000      0.0000000E+00
   1.600000      0.0000000E+00
   1.610000      0.0000000E+00
   1.620000      0.0000000E+00
   1.630000      0.0000000E+00
   1.640000      0.0000000E+00
   1.650000      0.0000000E+00
   1.660000      0.0000000E+00
   1.670000      0.0000000E+00
   1.680000      0.0000000E+00
   1.690000      0.0000000E+00
   1.700000      0.0000000E+00
   1.710000      0.0000000E+00
   1.720000      0.0000000E+00
   1.730000      0.0000000E+00
   1.740000      0.0000000E+00
   1.750000      0.0000000E+00
   1.760000      0.0000000E+00
   1.770000      0.0000000E+00
   1.780000      0.0000000E+00
   1.790000      0.0000000E+00
   1.800000      0.0000000E+00
   1.810000      0.0000000E+00
   1.820000      0.0000000E+00
   1.830000      0.0000000E+00
   1.840000      0.0000000E+00
   1.850000      0.0000000E+00
   1.860000      0.0000000E+00
   1.870000      0.0000000E+00
   1.880000      0.0000000E+00
   1.890000      0.0000000E+00
   1.900000      0.0000000E+00
   1.910000      0.0000000E+00
   1.920000      0.0000000E+00
   1.930000      0.0000000E+00
   1.940000      0.0000000E+00
   1.950000      0.0000000E+00
   1.960000      0.0000000E+00
   1.970000      0.0000000E+00
   1.980000      0.0000000E+00
   1.990000      0.0000000E+00
   2.000000      0.0000000E+00
   2.010000      0.0000000E+00
   2.020000      0.0000000E+00
   2.030000      0.0000000E+00
   2.040000      0.0000000E+00
   2.050000      0.0000000E+00
   2.060000      0.0000000E+00
   2.070000      0.0000000E+00
   2.080000      0.0000000E+00
   2.090000      0.0000000E+00
   2.100000      0.0000000E+00
   2.110000      0.0000000E+00
   2.120000      0.0000000E+00
   2.130000      0.0000000E+00
   2.140000      0.0000000E+00
   2.150000      0.0000000E+00
   2.160000      0.0000000E+00
   2.170000      0.0000000E+00
   2.180000      0.0000000E+00
   2.190000      0.0000000E+00
   2.200000      0.0000000E+00
   2.210000      0.0000000E+00
   2.220000      0.0000000E+00
   2.230000      0.0000000E+00
   2.240000      0.0000000E+00
   2.250000      0.0000000E+00
   2.260000      0.0000000E+00
   2.270000      0.0000000E+00
   2.280000      0.0000000E+00
   2.290000      0.0000000E+00
   2.300000      0.0000000E+00
   2.310000      0.0000000E+00
   2.320000      1.4056293E-38
   2.330000      1.6448743E-38
   2.340000      1.5865276E-38
   2.350000      1.2111816E-38
   2.360000      0.0000000E+00
   2.370000      0.0000000E+00
   2.380000      0.0000000E+00
   2.390000      0.0000000E+00
   2.400000     -1.9622765E-38
   2.410000     -3.1440320E-38
   2.420000     -4.3979567E-38
   2.430000     -5.7234500E-38
   2.440000     -5.7721692E-38
   2.450000     -4.2153378E-38
   2.460000     -2.1740935E-38
   2.470000      0.0000000E+00
   2.480000      2.4579955E-38
   2.490000      4.5662081E-38
   2.500000      6.3139998E-38
   2.510000      7.5878832E-38
   2.520000      7.2676215E-38
   2.530000      5.6326072E-38
   2.540000      3.8713673E-38
   2.550000      1.9894894E-38
   2.560000      0.0000000E+00
   2.570000     -1.6981246E-38
   2.580000     -3.0806316E-38
   2.590000     -2.5993876E-38
   2.600000      0.0000000E+00
   2.610000      2.5239005E-38
   2.620000      5.5711591E-38
   2.630000      8.8537742E-38
   2.640000      1.2722354E-37
   2.650000      1.7261365E-37
   2.660000      2.0523101E-37
   2.670000      2.2185366E-37
   2.680000      2.3920450E-37
   2.690000      2.5443313E-37
   2.700000      2.5165045E-37
   2.710000      2.3286596E-37
   2.720000      2.1218311E-37
   2.730000      1.9311579E-37
   2.740000      1.7820086E-37
   2.750000      1.8414982E-37
   2.760000      2.0941464E-37
   2.770000      2.3290874E-37
   2.780000      2.5694590E-37
   2.790000      2.7960393E-37
   2.800000      2.9256392E-37
   2.810000      3.0312501E-37
   2.820000      3.1781510E-37
   2.830000      3.3576398E-37
   2.840000      3.5871792E-37
   2.850000      3.7898074E-37
   2.860000      3.8288599E-37
   2.870000      2.9091602E-37
   2.880000      7.8961162E-38
   2.890000     -1.3704325E-37
   2.900000     -3.2853669E-37
   2.910000     -5.1725769E-37
   2.920000     -8.1361685E-37
   2.930000     -1.2391524E-36
   2.940000     -1.6915133E-36
   2.950000     -2.1865425E-36
   2.960000     -2.7171754E-36
   2.970000     -2.7027113E-36
   2.980000     -2.0737398E-36
   2.990000     -1.3254831E-36
   3.000000     -4.8850646E-37
   3.010000      3.0166243E-37
   3.020000      9.1242978E-37
   3.030000      1.3579755E-36
   3.040000      1.2343663E-36
   3.050000      5.4972508E-37
   3.060000     -1.5186920E-37
   3.070000     -8.3887053E-37
   3.080000     -1.5077710E-36
   3.090000     -2.1871929E-36
   3.100000     -2.3788692E-36
   3.110000     -1.9090810E-36
   3.120000     -1.1886137E-36
   3.130000     -2.9417528E-37
   3.140000      8.7044248E-37
   3.150000      2.2357145E-36
   3.160000      3.5937407E-36
   3.170000      4.4996767E-36
   3.180000      4.8938472E-36
   3.190000      5.4330845E-36
   3.200000      6.3902424E-36
   3.210000      7.2081186E-36
   3.220000      7.5765755E-36
   3.230000      7.4800184E-36
   3.240000      7.0258603E-36
   3.250000      6.7392855E-36
   3.260000      6.6675089E-36
   3.270000      6.8868357E-36
   3.280000      7.7095045E-36
   3.290000      9.1533142E-36
   3.300000      1.0804251E-35
   3.310000      1.2373965E-35
   3.320000      1.3764525E-35
   3.330000      1.5383047E-35
   3.340000      1.6638065E-35
   3.350000      1.7497001E-35
   3.360000      1.8700365E-35
   3.370000      2.0113064E-35
   3.380000      2.1645912E-35
   3.390000      2.3162855E-35
   3.400000      2.4716295E-35
   3.410000      2.5653844E-35
   3.420000      2.5857380E-35
   3.430000      2.5982110E-35
   3.440000      2.6276239E-35
   3.450000      2.6694194E-35
   3.460000      2.7181416E-35
   3.470000      2.7858367E-35
   3.480000      2.8266162E-35
   3.490000      2.7890564E-35
   3.500000      2.7309871E-35
   3.510000      2.6488161E-35
   3.520000      2.5326806E-35
   3.530000      2.3978409E-35
   3.540000      2.2092600E-35
   3.550000      1.9549199E-35
   3.560000      1.6351466E-35
   3.570000      1.2060865E-35
   3.580000      6.8737305E-36
   3.590000      1.1406599E-36
   3.600000     -5.4440079E-36
   3.610000     -1.2472087E-35
   3.620000     -1.9589870E-35
   3.630000     -2.6172431E-35
   3.640000     -3.2557936E-35
   3.650000     -3.9438854E-35
   3.660000     -4.6536820E-35
   3.670000     -5.3888042E-35
   3.680000     -6.1573186E-35
   3.690000     -6.9219019E-35
   3.700000     -7.6893293E-35
   3.710000     -8.5113132E-35
   3.720000     -9.2939841E-35
   3.730000     -1.0016248E-34
   3.740000     -1.0693360E-34
   3.750000     -1.1446466E-34
   3.760000     -1.2400455E-34
   3.770000     -1.3402798E-34
   3.780000     -1.4400344E-34
   3.790000     -1.5419508E-34
   3.800000     -1.6399490E-34
   3.810000     -1.7372670E-34
   3.820000     -1.8373316E-34
   3.830000     -1.9329432E-34
   3.840000     -2.0284923E-34
   3.850000     -2.1149774E-34
   3.860000     -2.1732080E-34
   3.870000     -2.1991224E-34
   3.880000     -2.1962436E-34
   3.890000     -2.1856605E-34
   3.900000     -2.1706394E-34
   3.910000     -2.1638397E-34
   3.920000     -2.1011075E-34
   3.930000     -1.9652369E-34
   3.940000     -1.8198055E-34
   3.950000     -1.6636962E-34
   3.960000     -1.5890014E-34
   3.970000     -1.5877826E-34
   3.980000     -1.5799609E-34
   3.990000     -1.5498772E-34
   4.000000     -1.4776893E-34
   4.010000     -1.4080455E-34
   4.020000     -1.2882523E-34
   4.030000     -1.0537262E-34
   4.040000     -7.2773449E-35
   4.050000     -3.1029263E-35
   4.060000      1.6537921E-35
   4.070000      6.6290207E-35
   4.080000      1.1424152E-34
   4.090000      1.6137434E-34
   4.100000      2.1149178E-34
   4.110000      2.6349969E-34
   4.120000      3.3603926E-34
   4.130000      4.2113564E-34
   4.140000      4.9343740E-34
   4.150000      5.5113089E-34
   4.160000      6.0316268E-34
   4.170000      6.5455842E-34
   4.180000      6.9994453E-34
   4.190000      7.4658686E-34
   4.200000      7.9684246E-34
   4.210000      8.5094119E-34
   4.220000      9.0900859E-34
   4.230000      9.6978569E-34
   4.240000      1.0376640E-33
   4.250000      1.1143652E-33
   4.260000      1.1859495E-33
   4.270000      1.2461641E-33
   4.280000      1.3055717E-33
   4.290000      1.3671486E-33
   4.300000      1.4197430E-33
   4.310000      1.4564168E-33
   4.320000      1.4815465E-33
   4.330000      1.4892185E-33
   4.340000      1.4753116E-33
   4.350000      1.4449800E-33
   4.360000      1.4000672E-33
   4.370000      1.3439933E-33
   4.380000      1.2785913E-33
   4.390000      1.2043575E-33
   4.400000      1.1229699E-33
   4.410000      1.0330449E-33
   4.420000      9.3963683E-34
   4.430000      8.3734558E-34
   4.440000      7.1356360E-34
   4.450000      5.7153559E-34
   4.460000      4.1119247E-34
   4.470000      2.2831551E-34
   4.480000      2.0735715E-35
   4.490000     -2.1740339E-34
   4.500000     -4.8581937E-34
   4.510000     -7.9278847E-34
   4.520000     -1.1214741E-33
   4.530000     -1.4619806E-33
   4.540000     -1.8316136E-33
   4.550000     -2.2091556E-33
   4.560000     -2.5866643E-33
   4.570000     -2.9708166E-33
   4.580000     -3.3623822E-33
   4.590000     -3.7627031E-33
   4.600000     -4.1717332E-33
   4.610000     -4.5954515E-33
   4.620000     -5.0366024E-33
   4.630000     -5.4974117E-33
   4.640000     -5.9799135E-33
   4.650000     -6.4846778E-33
   4.660000     -7.0102494E-33
   4.670000     -7.5506205E-33
   4.680000     -8.0972738E-33
   4.690000     -8.6446817E-33
   4.700000     -9.1852225E-33
   4.710000     -9.7089647E-33
   4.720000     -1.0206762E-32
   4.730000     -1.0670782E-32
   4.740000     -1.1094586E-32
   4.750000     -1.1472880E-32
   4.760000     -1.1801836E-32
   4.770000     -1.2079000E-32
   4.780000     -1.2302490E-32
   4.790000     -1.2470474E-32
   4.800000     -1.2580533E-32
   4.810000     -1.2629416E-32
   4.820000     -1.2612459E-32
   4.830000     -1.2522243E-32
   4.840000     -1.2350731E-32
   4.850000     -1.2087237E-32
   4.860000     -1.1719001E-32
   4.870000     -1.1233635E-32
   4.880000     -1.0618636E-32
   4.890000     -9.8609657E-33
   4.900000     -8.9485734E-33
   4.910000     -7.8726853E-33
   4.920000     -6.6261184E-33
   4.930000     -5.2035234E-33
   4.940000     -3.6010586E-33
   4.950000     -1.8181391E-33
   4.960000      1.4519077E-34
   4.970000      2.2889211E-33
   4.980000      4.6119937E-33
   4.990000      7.1103244E-33
   5.000000      9.7896455E-33
   5.010000      1.2659820E-32
   5.020000      1.5724085E-32
   5.030000      1.8985417E-32
   5.040000      2.2444879E-32
   5.050000      2.6104565E-32
   5.060000      2.9964729E-32
   5.070000      3.4022991E-32
   5.080000      3.8273911E-32
   5.090000      4.2708413E-32
   5.100000      4.7313977E-32
   5.110000      5.2074441E-32
   5.120000      5.6969816E-32
   5.130000      6.1977176E-32
   5.140000      6.7071110E-32
   5.150000      7.2224101E-32
   5.160000      7.7407085E-32
   5.170000      8.2589686E-32
   5.180000      8.7740379E-32
   5.190000      9.2826444E-32
   5.200000      9.7813637E-32
   5.210000      1.0266569E-31
   5.220000      1.0734362E-31
   5.230000      1.1180512E-31
   5.240000      1.1600388E-31
   5.250000      1.1988902E-31
   5.260000      1.2340476E-31
   5.270000      1.2649039E-31
   5.280000      1.2908008E-31
   5.290000      1.3110353E-31
   5.300000      1.3248676E-31
   5.310000      1.3315252E-31
   5.320000      1.3302126E-31
   5.330000      1.3201186E-31
   5.340000      1.3004233E-31
   5.350000      1.2703034E-31
   5.360000      1.2289349E-31
   5.370000      1.1754949E-31
   5.380000      1.1091584E-31
   5.390000      1.0291003E-31
   5.400000      9.3449009E-32
   5.410000      8.2447769E-32
   5.420000      6.9822319E-32
   5.430000      5.5487806E-32
   5.440000      3.9356970E-32
   5.450000      2.1343513E-32
   5.460000      1.3621834E-33
   5.470000     -2.0670361E-32
   5.480000     -4.4833037E-32
   5.490000     -7.1199575E-32
   5.500000     -9.9837768E-32
   5.510000     -1.3080685E-31
   5.520000     -1.6415647E-31
   5.530000     -1.9992561E-31
   5.540000     -2.3814157E-31
   5.550000     -2.7881943E-31
   5.560000     -3.2196137E-31
   5.570000     -3.6755609E-31
   5.580000     -4.1557863E-31
   5.590000     -4.6598961E-31
   5.600000     -5.1873465E-31
   5.610000     -5.7374337E-31
   5.620000     -6.3092811E-31
   5.630000     -6.9018234E-31
   5.640000     -7.5137914E-31
   5.650000     -8.1436894E-31
   5.660000     -8.7897769E-31
   5.670000     -9.4500455E-31
   5.680000     -1.0122199E-30
   5.690000     -1.0803638E-30
   5.700000     -1.1491444E-30
   5.710000     -1.2182364E-30
   5.720000     -1.2872808E-30
   5.730000     -1.3558839E-30
   5.740000     -1.4236170E-30
   5.750000     -1.4900162E-30
   5.760000     -1.5545821E-30
   5.770000     -1.6167794E-30
   5.780000     -1.6760381E-30
   5.790000     -1.7317503E-30
   5.800000     -1.7832723E-30
   5.810000     -1.8299225E-30
   5.820000     -1.8709813E-30
   5.830000     -1.9056892E-30
   5.840000     -1.9332481E-30
   5.850000     -1.9528200E-30
   5.860000     -1.9635273E-30
   5.870000     -1.9644534E-30
   5.880000     -1.9546445E-30
   5.890000     -1.9331112E-30
   5.900000     -1.8988300E-30
   5.910000     -1.8507480E-30
   5.920000     -1.7877843E-30
   5.930000     -1.7088357E-30
   5.940000     -1.6127782E-30
   5.950000     -1.4984736E-30
   5.960000     -1.3647722E-30
   5.970000     -1.2105180E-30
   5.980000     -1.0345523E-30
   5.990000     -8.3571959E-31
   6.000000     -6.1287200E-31
   6.010000     -3.6487537E-31
   6.020000     -9.0614234E-32
   6.030000      2.1100081E-31
   6.040000      5.4102598E-31
   6.050000      9.0047635E-31
   6.060000      1.2903163E-30
   6.070000      1.7114496E-30
   6.080000      2.1647090E-30
   6.090000      2.6508460E-30
   6.100000      3.1705178E-30
   6.110000      3.7242764E-30
   6.120000      4.3125547E-30
   6.130000      4.9356555E-30
   6.140000      5.5937371E-30
   6.150000      6.2868003E-30
   6.160000      7.0146770E-30
   6.170000      7.7770134E-30
   6.180000      8.5732606E-30
   6.190000      9.4026556E-30
   6.200000      1.0264209E-29
   6.210000      1.1156695E-29
   6.220000      1.2078625E-29
   6.230000      1.3028244E-29
   6.240000      1.4003501E-29
   6.250000      1.5002046E-29
   6.260000      1.6021202E-29
   6.270000      1.7057957E-29
   6.280000      1.8108940E-29
   6.290000      1.9170409E-29
   6.300000      2.0238239E-29
   6.310000      2.1307899E-29
   6.320000      2.2374449E-29
   6.330000      2.3432514E-29
   6.340000      2.4476284E-29
   6.350000      2.5499502E-29
   6.360000      2.6495449E-29
   6.370000      2.7456930E-29
   6.380000      2.8376288E-29
   6.390000      2.9245379E-29
   6.400000      3.0055572E-29
   6.410000      3.0797747E-29
   6.420000      3.1462286E-29
   6.430000      3.2039093E-29
   6.440000      3.2517567E-29
   6.450000      3.2886629E-29
   6.460000      3.3134725E-29
   6.470000      3.3249829E-29
   6.480000      3.3219466E-29
   6.490000      3.3030722E-29
   6.500000      3.2670269E-29
   6.510000      3.2124391E-29
   6.520000      3.1379011E-29
   6.530000      3.0419714E-29
   6.540000      2.9231798E-29
   6.550000      2.7800308E-29
   6.560000      2.6110082E-29
   6.570000      2.4145794E-29
   6.580000      2.1892023E-29
   6.590000      1.9333296E-29
   6.600000      1.6454152E-29
   6.610000      1.3239217E-29
   6.620000      9.6732841E-30
   6.630000      5.7413702E-30
   6.640000      1.4288205E-30
   6.650000     -3.2785967E-30
   6.660000     -8.3946088E-30
   6.670000     -1.3932329E-29
   6.680000     -1.9904149E-29
   6.690000     -2.6321633E-29
   6.700000     -3.3195380E-29
   6.710000     -4.0534885E-29
   6.720000     -4.8348437E-29
   6.730000     -5.6642984E-29
   6.740000     -6.5423973E-29
   6.750000     -7.4695183E-29
   6.760000     -8.4458618E-29
   6.770000     -9.4714310E-29
   6.780000     -1.0546018E-28
   6.790000     -1.1669187E-28
   6.800000     -1.2840252E-28
   6.810000     -1.4058269E-28
   6.820000     -1.5322014E-28
   6.830000     -1.6629961E-28
   6.840000     -1.7980266E-28
   6.850000     -1.9370755E-28
   6.860000     -2.0798895E-28
   6.870000     -2.2261781E-28
   6.880000     -2.3756117E-28
   6.890000     -2.5278199E-28
   6.900000     -2.6823890E-28
   6.910000     -2.8388614E-28
   6.920000     -2.9967325E-28
   6.930000     -3.1554504E-28
   6.940000     -3.3144128E-28
   6.950000     -3.4729666E-28
   6.960000     -3.6304064E-28
   6.970000     -3.7859721E-28
   6.980000     -3.9388491E-28
   6.990000     -4.0881657E-28
   7.000000     -4.2329937E-28
   7.010000     -4.3723458E-28
   7.020000     -4.5051763E-28
   7.030000     -4.6303800E-28
   7.040000     -4.7467933E-28
   7.050000     -4.8531918E-28
   7.060000     -4.9482923E-28