  -2.600000      0.0000000E+00
  -2.590000      0.0000000E+00
  -2.580000      0.0000000E+00
  -2.570000      0.0000000E+00
  -2.560000      0.0000000E+00
  -2.550000      0.0000000E+00
  -2.540000      0.0000000E+00
  -2.530000      0.0000000E+00
  -2.520000      0.0000000E+00
  -2.510000      0.0000000E+00
  -2.500000      0.0000000E+00
  -2.490000      0.0000000E+00
  -2.480000      0.0000000E+00
  -2.470000      0.0000000E+00
  -2.460000      0.0000000E+00
  -2.450000      0.0000000E+00
  -2.440000      0.0000000E+00
  -2.430000      0.0000000E+00
  -2.420000      0.0000000E+00
  -2.410000      0.0000000E+00
  -2.400000      0.0000000E+00
  -2.390000      0.0000000E+00
  -2.380000      0.0000000E+00
  -2.370000      0.0000000E+00
  -2.360000      0.0000000E+00
  -2.350000      0.0000000E+00
  -2.340000      0.0000000E+00
  -2.330000      0.0000000E+00
  -2.320000      0.0000000E+00
  -2.310000      0.0000000E+00
  -2.300000      0.0000000E+00
  -2.290000      0.0000000E+00
  -2.280000      0.0000000E+00
  -2.270000      0.0000000E+00
  -2.260000      0.0000000E+00
  -2.250000      0.0000000E+00
  -2.240000      0.0000000E+00
  -2.230000      0.0000000E+00
  -2.220000      0.0000000E+00
  -2.210000      0.0000000E+00
  -2.200000      0.0000000E+00
  -2.190000      0.0000000E+00
  -2.180000      0.0000000E+00
  -2.170000      0.0000000E+00
  -2.160000      0.0000000E+00
  -2.150000      0.0000000E+00
  -2.140000      0.0000000E+00
  -2.130000      0.0000000E+00
  -2.120000      0.0000000E+00
  -2.110000      0.0000000E+00
  -2.100000      0.0000000E+00
  -2.090000      0.0000000E+00
  -2.080000      0.0000000E+00
  -2.070000      0.0000000E+00
  -2.060000      0.0000000E+00
  -2.050000      0.0000000E+00
  -2.040000      0.0000000E+00
  -2.030000      0.0000000E+00
  -2.020000      0.0000000E+00
  -2.010000      0.0000000E+00
  -2.000000      0.0000000E+00
  -1.990000      0.0000000E+00
  -1.980000      0.0000000E+00
  -1.970000      0.0000000E+00
  -1.960000      0.0000000E+00
  -1.950000      0.0000000E+00
  -1.940000      0.0000000E+00
  -1.930000      0.0000000E+00
  -1.920000      0.0000000E+00
  -1.910000      0.0000000E+00
  -1.900000      0.0000000E+00
  -1.890000      0.0000000E+00
  -1.880000      0.0000000E+00
  -1.870000      0.0000000E+00
  -1.860000      0.0000000E+00
  -1.850000      0.0000000E+00
  -1.840000      0.0000000E+00
  -1.830000      0.0000000E+00
  -1.820000      0.0000000E+00
  -1.810000      0.0000000E+00
  -1.800000      0.0000000E+00
  -1.790000      0.0000000E+00
  -1.780000      0.0000000E+00
  -1.770000      0.0000000E+00
  -1.760000      0.0000000E+00
  -1.750000      0.0000000E+00
  -1.740000      0.0000000E+00
  -1.730000      0.0000000E+00
  -1.720000      0.0000000E+00
  -1.710000      0.0000000E+00
  -1.700000      0.0000000E+00
  -1.690000      0.0000000E+00
  -1.680000      0.0000000E+00
  -1.670000      0.0000000E+00
  -1.660000      0.0000000E+00
  -1.650000      0.0000000E+00
  -1.640000      0.0000000E+00
  -1.630000      0.0000000E+00
  -1.620000      0.0000000E+00
  -1.610000      0.0000000E+00
  -1.600000      0.0000000E+00
  -1.590000      0.0000000E+00
  -1.580000      0.0000000E+00
  -1.570000      0.0000000E+00
  -1.560000      0.0000000E+00
  -1.550000      0.0000000E+00
  -1.540000      0.0000000E+00
  -1.530000      0.0000000E+00
  -1.520000      0.0000000E+00
  -1.510000      0.0000000E+00
  -1.500000      0.0000000E+00
  -1.490000      0.0000000E+00
  -1.480000      0.0000000E+00
  -1.470000      0.0000000E+00
  -1.460000      0.0000000E+00
  -1.450000      0.0000000E+00
  -1.440000      0.0000000E+00
  -1.430000      0.0000000E+00
  -1.420000      0.0000000E+00
  -1.410000      0.0000000E+00
  -1.400000      0.0000000E+00
  -1.390000      0.0000000E+00
  -1.380000      0.0000000E+00
  -1.370000      0.0000000E+00
  -1.360000      0.0000000E+00
  -1.350000      0.0000000E+00
  -1.340000      0.0000000E+00
  -1.330000      0.0000000E+00
  -1.320000      0.0000000E+00
  -1.310000      0.0000000E+00
  -1.300000      0.0000000E+00
  -1.290000      0.0000000E+00
  -1.280000      0.0000000E+00
  -1.270000      0.0000000E+00
  -1.260000      0.0000000E+00
  -1.250000      0.0000000E+00
  -1.240000      0.0000000E+00
  -1.230000      0.0000000E+00
  -1.220000      0.0000000E+00
  -1.210000      0.0000000E+00
  -1.200000      0.0000000E+00
  -1.190000      0.0000000E+00
  -1.180000      0.0000000E+00
  -1.170000      0.0000000E+00
  -1.160000      0.0000000E+00
  -1.150000      0.0000000E+00
  -1.140000      0.0000000E+00
  -1.130000      0.0000000E+00
  -1.120000      0.0000000E+00
  -1.110000      0.0000000E+00
  -1.100000      0.0000000E+00
  -1.090000      0.0000000E+00
  -1.080000      0.0000000E+00
  -1.070000      0.0000000E+00
  -1.060000      0.0000000E+00
  -1.050000      0.0000000E+00
  -1.040000      0.0000000E+00
  -1.030000      0.0000000E+00
  -1.020000      0.0000000E+00
  -1.010000      0.0000000E+00
  -1.000000      0.0000000E+00
 -0.9900000      0.0000000E+00
 -0.9800000      0.0000000E+00
 -0.9700000      0.0000000E+00
 -0.9600000      0.0000000E+00
 -0.9500000      0.0000000E+00
 -0.9400000      0.0000000E+00
 -0.9300000      0.0000000E+00
 -0.9200000      0.0000000E+00
 -0.9100000      0.0000000E+00
 -0.9000000      0.0000000E+00
 -0.8900000      0.0000000E+00
 -0.8800000      0.0000000E+00
 -0.8700000      0.0000000E+00
 -0.8600000      0.0000000E+00
 -0.8500000      0.0000000E+00
 -0.8400000      0.0000000E+00
 -0.8300000      0.0000000E+00
 -0.8200000      0.0000000E+00
 -0.8100000      0.0000000E+00
 -0.8000000      0.0000000E+00
 -0.7900000      0.0000000E+00
 -0.7800000      0.0000000E+00
 -0.7700000      0.0000000E+00
 -0.7600000      0.0000000E+00
 -0.7500000      0.0000000E+00
 -0.7400000      0.0000000E+00
 -0.7300000      0.0000000E+00
 -0.7200000      0.0000000E+00
 -0.7100000      0.0000000E+00
 -0.7000000      0.0000000E+00
 -0.6900000      0.0000000E+00
 -0.6800000      0.0000000E+00
 -0.6700000      0.0000000E+00
 -0.6600000      0.0000000E+00
 -0.6500000      0.0000000E+00
 -0.6400000      0.0000000E+00
 -0.6300000      0.0000000E+00
 -0.6200000      0.0000000E+00
 -0.6100000      0.0000000E+00
 -0.6000000      0.0000000E+00
 -0.5900000      0.0000000E+00
 -0.5800000      0.0000000E+00
 -0.5700000      0.0000000E+00
 -0.5600000      0.0000000E+00
 -0.5500000      0.0000000E+00
 -0.5400000      0.0000000E+00
 -0.5300000      0.0000000E+00
 -0.5200000      0.0000000E+00
 -0.5100000      0.0000000E+00
 -0.5000000      0.0000000E+00
 -0.4900000      0.0000000E+00
 -0.4800000      0.0000000E+00
 -0.4700000      0.0000000E+00
 -0.4600000      0.0000000E+00
 -0.4500000      0.0000000E+00
 -0.4400000      0.0000000E+00
 -0.4300000      0.0000000E+00
 -0.4200000      0.0000000E+00
 -0.4100000      0.0000000E+00
 -0.4000000      0.0000000E+00
 -0.3900000      0.0000000E+00
 -0.3800000      0.0000000E+00
 -0.3700000      0.0000000E+00
 -0.3600000      0.0000000E+00
 -0.3500000      0.0000000E+00
 -0.3400000      0.0000000E+00
 -0.3300000      0.0000000E+00
 -0.3200000      0.0000000E+00
 -0.3100000      0.0000000E+00
 -0.3000000      0.0000000E+00
 -0.2900000      0.0000000E+00
 -0.2800000      0.0000000E+00
 -0.2700000      0.0000000E+00
 -0.2600000      0.0000000E+00
 -0.2500000      0.0000000E+00
 -0.2400000      0.0000000E+00
 -0.2300000      0.0000000E+00
 -0.2200000      0.0000000E+00
 -0.2100000      0.0000000E+00
 -0.2000000      0.0000000E+00
 -0.1900000      0.0000000E+00
 -0.1800000      0.0000000E+00
 -0.1700000      0.0000000E+00
 -0.1600000      0.0000000E+00
 -0.1500000      0.0000000E+00
 -0.1400000      0.0000000E+00
 -0.1300000      0.0000000E+00
 -0.1200000      0.0000000E+00
 -0.1100000      0.0000000E+00
 -0.1000000      0.0000000E+00
 -9.0000004E-02  0.0000000E+00
 -7.9999998E-02  0.0000000E+00
 -7.0000000E-02  0.0000000E+00
 -5.9999999E-02  0.0000000E+00
 -5.0000001E-02  0.0000000E+00
 -3.9999999E-02  0.0000000E+00
 -2.9999999E-02  0.0000000E+00
 -2.0000000E-02  0.0000000E+00
 -9.9999998E-03  0.0000000E+00
 -3.4694470E-17  0.0000000E+00
  9.9999998E-03  0.0000000E+00
  2.0000000E-02  0.0000000E+00
  2.9999999E-02  0.0000000E+00
  3.9999999E-02  0.0000000E+00
  5.0000001E-02  0.0000000E+00
  5.9999999E-02  0.0000000E+00
  7.0000000E-02  0.0000000E+00
  7.9999998E-02  0.0000000E+00
  9.0000004E-02  0.0000000E+00
  0.1000000      0.0000000E+00
  0.1100000      0.0000000E+00
  0.1200000      0.0000000E+00
  0.1300000      0.0000000E+00
  0.1400000      0.0000000E+00
  0.1500000      0.0000000E+00
  0.1600000      0.0000000E+00
  0.1700000      0.0000000E+00
  0.1800000      0.0000000E+00
  0.1900000      0.0000000E+00
  0.2000000      0.0000000E+00
  0.2100000      0.0000000E+00
  0.2200000      0.0000000E+00
  0.2300000      0.0000000E+00
  0.2400000      0.0000000E+00
  0.2500000      0.0000000E+00
  0.2600000      0.0000000E+00
  0.2700000      0.0000000E+00
  0.2800000      0.0000000E+00
  0.2900000      0.0000000E+00
  0.3000000      0.0000000E+00
  0.3100000      0.0000000E+00
  0.3200000      0.0000000E+00
  0.3300000      0.0000000E+00
  0.3400000      0.0000000E+00
  0.3500000      0.0000000E+00
  0.3600000      0.0000000E+00
  0.3700000      0.0000000E+00
  0.3800000      0.0000000E+00
  0.3900000      0.0000000E+00
  0.4000000      0.0000000E+00
  0.4100000      0.0000000E+00
  0.4200000      0.0000000E+00
  0.4300000      0.0000000E+00
  0.4400000      0.0000000E+00
  0.4500000      0.0000000E+00
  0.4600000      0.0000000E+00
  0.4700000      0.0000000E+00
  0.4800000      0.0000000E+00
  0.4900000      0.0000000E+00
  0.5000000      0.0000000E+00
  0.5100000      0.0000000E+00
  0.5200000      0.0000000E+00
  0.5300000      0.0000000E+00
  0.5400000      0.0000000E+00
  0.5500000      0.0000000E+00
  0.5600000      0.0000000E+00
  0.5700000      0.0000000E+00
  0.5800000      0.0000000E+00
  0.5900000      0.0000000E+00
  0.6000000      0.0000000E+00
  0.6100000      0.0000000E+00
  0.6200000      0.0000000E+00
  0.6300000      0.0000000E+00
  0.6400000      0.0000000E+00
  0.6500000      0.0000000E+00
  0.6600000      0.0000000E+00
  0.6700000      0.0000000E+00
  0.6800000      0.0000000E+00
  0.6900000      0.0000000E+00
  0.7000000      0.0000000E+00
  0.7100000      0.0000000E+00
  0.7200000      0.0000000E+00
  0.7300000      0.0000000E+00
  0.7400000      0.0000000E+00
  0.7500000      0.0000000E+00
  0.7600000      0.0000000E+00
  0.7700000      0.0000000E+00
  0.7800000      0.0000000E+00
  0.7900000      0.0000000E+00
  0.8000000      0.0000000E+00
  0.8100000      0.0000000E+00
  0.8200000      0.0000000E+00
  0.8300000      0.0000000E+00
  0.8400000      0.0000000E+00
  0.8500000      0.0000000E+00
  0.8600000      0.0000000E+00
  0.8700000      0.0000000E+00
  0.8800000      0.0000000E+00
  0.8900000      0.0000000E+00
  0.9000000      0.0000000E+00
  0.9100000      0.0000000E+00
  0.9200000      0.0000000E+00
  0.9300000      0.0000000E+00
  0.9400000      0.0000000E+00
  0.9500000      0.0000000E+00
  0.9600000      0.0000000E+00
  0.9700000      0.0000000E+00
  0.9800000      0.0000000E+00
  0.9900000      0.0000000E+00
   1.000000      0.0000000E+00
   1.010000      0.0000000E+00
   1.020000      0.0000000E+00
   1.030000      0.0000000E+00
   1.040000      0.0000000E+00
   1.050000      0.0000000E+00
   1.060000      0.0000000E+00
   1.070000      0.0000000E+00
   1.080000      0.0000000E+00
   1.090000      0.0000000E+00
   1.100000      0.0000000E+00
   1.110000      0.0000000E+00
   1.120000      0.0000000E+00
   1.130000      0.0000000E+00
   1.140000      0.0000000E+00
   1.150000      0.0000000E+00
   1.160000      0.0000000E+00
   1.170000      0.0000000E+00
   1.180000      0.0000000E+00
   1.190000      0.0000000E+00
   1.200000      0.0000000E+00
   1.210000      0.0000000E+00
   1.220000      0.0000000E+00
   1.230000      0.0000000E+00
   1.240000      0.0000000E+00
   1.250000      0.0000000E+00
   1.260000      0.0000000E+00
   1.270000      0.0000000E+00
   1.280000      0.0000000E+00
   1.290000      0.0000000E+00
   1.300000      0.0000000E+00
   1.310000      0.0000000E+00
   1.320000      0.0000000E+00
   1.330000      0.0000000E+00
   1.340000      0.0000000E+00
   1.350000      0.0000000E+00
   1.360000      0.0000000E+00
   1.370000      0.0000000E+00
   1.380000      0.0000000E+00
   1.390000      0.0000000E+00
   1.400000      0.0000000E+00
   1.410000      0.0000000E+00
   1.420000      0.0000000E+00
   1.430000      0.0000000E+00
   1.440000      0.0000000E+00
   1.450000      0.0000000E+00
   1.460000      0.0000000E+00
   1.470000      0.0000000E+00
   1.480000      0.0000000E+00
   1.490000      0.0000000E+00
   1.500000      0.0000000E+00
   1.510000      0.0000000E+00
   1.520000      0.0000000E+00
   1.530000      0.0000000E+00
   1.540000      0.0000000E+00
   1.550000      0.0000000E+00
   1.560000      0.0000000E+00
   1.570000      0.0000000E+00
   1.580000      0.0000000E+00
   1.590000      0.0000000E+00
   1.600000      0.0000000E+00
   1.610000      0.0000000E+00
   1.620000      0.0000000E+00
   1.630000      0.0000000E+00
   1.640000      0.0000000E+00
   1.650000      0.0000000E+00
   1.660000      0.0000000E+00
   1.670000      0.0000000E+00
   1.680000      0.0000000E+00
   1.690000      0.0000000E+00
   1.700000      0.0000000E+00
   1.710000      0.0000000E+00
   1.720000      0.0000000E+00
   1.730000      0.0000000E+00
   1.740000      0.0000000E+00
   1.750000      0.0000000E+00
   1.760000      0.0000000E+00
   1.770000      0.0000000E+00
   1.780000      0.0000000E+00
   1.790000      0.0000000E+00
   1.800000      0.0000000E+00
   1.810000      0.0000000E+00
   1.820000      0.0000000E+00
   1.830000      0.0000000E+00
   1.840000      0.0000000E+00
   1.850000      0.0000000E+00
   1.860000      0.0000000E+00
   1.870000      0.0000000E+00
   1.880000      0.0000000E+00
   1.890000      0.0000000E+00
   1.900000      0.0000000E+00
   1.910000      0.0000000E+00
   1.920000      0.0000000E+00
   1.930000      0.0000000E+00
   1.940000      0.0000000E+00
   1.950000      0.0000000E+00
   1.960000      0.0000000E+00
   1.970000      0.0000000E+00
   1.980000      0.0000000E+00
   1.990000      0.0000000E+00
   2.000000      0.0000000E+00
   2.010000      0.0000000E+00
   2.020000      0.0000000E+00
   2.030000      0.0000000E+00
   2.040000      0.0000000E+00
   2.050000      0.0000000E+00
   2.060000      0.0000000E+00
   2.070000      0.0000000E+00
   2.080000      0.0000000E+00
   2.090000      0.0000000E+00
   2.100000      0.0000000E+00
   2.110000      0.0000000E+00
   2.120000      0.0000000E+00
   2.130000      0.0000000E+00
   2.140000      0.0000000E+00
   2.150000      0.0000000E+00
   2.160000      0.0000000E+00
   2.170000      0.0000000E+00
   2.180000      0.0000000E+00
   2.190000      0.0000000E+00
   2.200000      0.0000000E+00
   2.210000      0.0000000E+00
   2.220000      0.0000000E+00
   2.230000      0.0000000E+00
   2.240000      0.0000000E+00
   2.250000      0.0000000E+00
   2.260000      0.0000000E+00
   2.270000      0.0000000E+00
   2.280000      0.0000000E+00
   2.290000      0.0000000E+00
   2.300000      0.0000000E+00
   2.310000      0.0000000E+00
   2.320000      0.0000000E+00
   2.330000      0.0000000E+00
   2.340000      0.0000000E+00
   2.350000      0.0000000E+00
   2.360000      1.5513368E-38
   2.370000      2.0337883E-38
   2.380000      2.5652624E-38
   2.390000      3.1472695E-38
   2.400000      3.7776210E-38
   2.410000      4.4474223E-38
   2.420000      5.1505510E-38
   2.430000      5.9063251E-38
   2.440000      6.4361022E-38
   2.450000      6.7083997E-38
   2.460000      6.9447023E-38
   2.470000      7.1576672E-38
   2.480000      7.3241375E-38
   2.490000      7.5494697E-38
   2.500000      7.9609677E-38
   2.510000      8.5324099E-38
   2.520000      9.4295818E-38
   2.530000      1.0617219E-37
   2.540000      1.1914523E-37
   2.550000      1.3339282E-37
   2.560000      1.4827225E-37
   2.570000      1.6240597E-37
   2.580000      1.7634376E-37
   2.590000      1.8936307E-37
   2.600000      2.0073136E-37
   2.610000      2.1294566E-37
   2.620000      2.2510667E-37
   2.630000      2.3587564E-37
   2.640000      2.4120607E-37
   2.650000      2.4283706E-37
   2.660000      2.4576928E-37
   2.670000      2.4802245E-37
   2.680000      2.5023128E-37
   2.690000      2.5268203E-37
   2.700000      2.5673292E-37
   2.710000      2.6639072E-37
   2.720000      2.7991027E-37
   2.730000      2.9014595E-37
   2.740000      2.9384157E-37
   2.750000      2.9062735E-37
   2.760000      2.8130589E-37
   2.770000      2.6148090E-37
   2.780000      2.2944215E-37
   2.790000      1.9319588E-37
   2.800000      1.5321464E-37
   2.810000      1.0428766E-37
   2.820000      4.6240966E-38
   2.830000     -2.0591715E-38
   2.840000     -9.2748083E-38
   2.850000     -1.6799838E-37
   2.860000     -2.4989248E-37
   2.870000     -3.3723142E-37
   2.880000     -4.2673946E-37
   2.890000     -5.2135522E-37
   2.900000     -6.2322819E-37
   2.910000     -7.3188097E-37
   2.920000     -8.4830107E-37
   2.930000     -9.6276594E-37
   2.940000     -1.0696173E-36
   2.950000     -1.1731369E-36
   2.960000     -1.2713447E-36
   2.970000     -1.3637637E-36
   2.980000     -1.4459283E-36
   2.990000     -1.5188020E-36
   3.000000     -1.6068880E-36
   3.010000     -1.6997775E-36
   3.020000     -1.7776488E-36
   3.030000     -1.8618298E-36
   3.040000     -1.9535306E-36
   3.050000     -2.0352977E-36
   3.060000     -2.1081889E-36
   3.070000     -2.1680764E-36
   3.080000     -2.2216147E-36
   3.090000     -2.2665422E-36
   3.100000     -2.2805245E-36
   3.110000     -2.2685992E-36
   3.120000     -2.2386888E-36
   3.130000     -2.1922292E-36
   3.140000     -2.1205786E-36
   3.150000     -2.0169941E-36
   3.160000     -1.8874567E-36
   3.170000     -1.7123822E-36
   3.180000     -1.4950166E-36
   3.190000     -1.2502750E-36
   3.200000     -9.7676323E-37
   3.210000     -6.6291578E-37
   3.220000     -2.9169956E-37
   3.230000      1.3194098E-37
   3.240000      4.2644494E-37
   3.250000      6.2485185E-37
   3.260000      1.0113949E-36
   3.270000      1.5639646E-36
   3.280000      2.3330311E-36
   3.290000      3.3039642E-36
   3.300000      4.3544927E-36
   3.310000      5.5110582E-36
   3.320000      6.7014916E-36
   3.330000      7.7674678E-36
   3.340000      8.4731934E-36
   3.350000      8.8193379E-36
   3.360000      8.9992143E-36
   3.370000      8.9595621E-36
   3.380000      8.4916552E-36
   3.390000      7.6944614E-36
   3.400000      6.7014564E-36
   3.410000      5.5854087E-36
   3.420000      4.4665761E-36
   3.430000      3.4445001E-36
   3.440000      2.4850314E-36
   3.450000      1.4275197E-36
   3.460000      2.3889859E-37
   3.470000     -1.1887645E-36
   3.480000     -2.7942481E-36
   3.490000     -4.4842121E-36
   3.500000     -6.6320991E-36
   3.510000     -9.3237336E-36
   3.520000     -1.2403701E-35
   3.530000     -1.5755764E-35
   3.540000     -1.9078322E-35
   3.550000     -2.2547582E-35
   3.560000     -2.6555910E-35
   3.570000     -3.1069805E-35
   3.580000     -3.6006158E-35
   3.590000     -4.1495651E-35
   3.600000     -4.7506890E-35
   3.610000     -5.4142449E-35
   3.620000     -6.1400071E-35
   3.630000     -6.9162644E-35
   3.640000     -7.7420021E-35
   3.650000     -8.5865489E-35
   3.660000     -9.4421475E-35
   3.670000     -1.0316309E-34
   3.680000     -1.1202150E-34
   3.690000     -1.2113730E-34
   3.700000     -1.3063879E-34
   3.710000     -1.4008163E-34
   3.720000     -1.4860858E-34
   3.730000     -1.5616208E-34
   3.740000     -1.6297616E-34
   3.750000     -1.6885858E-34
   3.760000     -1.7411583E-34
   3.770000     -1.7935079E-34
   3.780000     -1.8505749E-34
   3.790000     -1.9070940E-34
   3.800000     -1.9562947E-34
   3.810000     -1.9894454E-34
   3.820000     -1.9944794E-34
   3.830000     -1.9476408E-34
   3.840000     -1.8577789E-34
   3.850000     -1.7526810E-34
   3.860000     -1.6307343E-34
   3.870000     -1.5287613E-34
   3.880000     -1.4484949E-34
   3.890000     -1.3550788E-34
   3.900000     -1.1893203E-34
   3.910000     -9.5719340E-35
   3.920000     -7.1401880E-35
   3.930000     -4.1546542E-35
   3.940000     -8.0532398E-36
   3.950000      2.5330890E-35
   3.960000      5.7276634E-35
   3.970000      8.4747833E-35
   3.980000      1.1243251E-34
   3.990000      1.4263978E-34
   4.000000      1.7614018E-34
   4.010000      2.1146367E-34
   4.020000      2.4695949E-34
   4.030000      2.8779637E-34
   4.040000      3.3359478E-34
   4.050000      3.8249799E-34
   4.060000      4.3461378E-34
   4.070000      4.9097437E-34
   4.080000      5.5261661E-34
   4.090000      6.1902648E-34
   4.100000      6.8904618E-34
   4.110000      7.6301623E-34
   4.120000      8.3882276E-34
   4.130000      9.1775261E-34
   4.140000      1.0022087E-33
   4.150000      1.0903743E-33
   4.160000      1.1780043E-33
   4.170000      1.2630208E-33
   4.180000      1.3483243E-33
   4.190000      1.4361998E-33
   4.200000      1.5234615E-33
   4.210000      1.6049838E-33
   4.220000      1.6811935E-33
   4.230000      1.7566880E-33
   4.240000      1.8328688E-33
   4.250000      1.9009035E-33
   4.260000      1.9592021E-33
   4.270000      2.0097521E-33
   4.280000      2.0500647E-33
   4.290000      2.0814748E-33
   4.300000      2.1051320E-33
   4.310000      2.1203290E-33
   4.320000      2.1266285E-33
   4.330000      2.1209647E-33
   4.340000      2.1009791E-33
   4.350000      2.0669790E-33
   4.360000      2.0181708E-33
   4.370000      1.9537269E-33
   4.380000      1.8752783E-33
   4.390000      1.7827759E-33
   4.400000      1.6739398E-33
   4.410000      1.5496120E-33
   4.420000      1.4077188E-33
   4.430000      1.2444282E-33
   4.440000      1.0612809E-33
   4.450000      8.5902216E-34
   4.460000      6.3750475E-34
   4.470000      3.9576424E-34
   4.480000      1.3194926E-34
   4.490000     -1.5696807E-34
   4.500000     -4.6967607E-34
   4.510000     -8.0241669E-34
   4.520000     -1.1579833E-33
   4.530000     -1.5366939E-33
   4.540000     -1.9389717E-33
   4.550000     -2.3651297E-33
   4.560000     -2.8118846E-33
   4.570000     -3.2781797E-33
   4.580000     -3.7622997E-33
   4.590000     -4.2634482E-33
   4.600000     -4.7816767E-33
   4.610000     -5.3130875E-33
   4.620000     -5.8539395E-33
   4.630000     -6.4012258E-33
   4.640000     -6.9515599E-33
   4.650000     -7.5011740E-33
   4.660000     -8.0453691E-33
   4.670000     -8.5809714E-33
   4.680000     -9.1027550E-33
   4.690000     -9.6024062E-33
   4.700000     -1.0076066E-32
   4.710000     -1.0518860E-32
   4.720000     -1.0925805E-32
   4.730000     -1.1290729E-32
   4.740000     -1.1605204E-32
   4.750000     -1.1863758E-32
   4.760000     -1.2059847E-32
   4.770000     -1.2188187E-32
   4.780000     -1.2240799E-32
   4.790000     -1.2207846E-32
   4.800000     -1.2081716E-32
   4.810000     -1.1856879E-32
   4.820000     -1.1526746E-32
   4.830000     -1.1083200E-32
   4.840000     -1.0519268E-32
   4.850000     -9.8274046E-33
   4.860000     -9.0004326E-33
   4.870000     -8.0311001E-33
   4.880000     -6.9125783E-33
   4.890000     -5.6383858E-33
   4.900000     -4.2020062E-33
   4.910000     -2.5973929E-33
   4.920000     -8.1894579E-34
   4.930000      1.1380142E-33
   4.940000      3.2774065E-33
   4.950000      5.6022173E-33
   4.960000      8.1151355E-33
   4.970000      1.0817787E-32
   4.980000      1.3709745E-32
   4.990000      1.6789517E-32
   5.000000      2.0054230E-32
   5.010000      2.3499302E-32
   5.020000      2.7118284E-32
   5.030000      3.0902950E-32
   5.040000      3.4843001E-32
   5.050000      3.8925969E-32
   5.060000      4.3137116E-32
   5.070000      4.7459285E-32
   5.080000      5.1872838E-32
   5.090000      5.6355497E-32
   5.100000      6.0882226E-32
   5.110000      6.5425147E-32
   5.120000      6.9953528E-32
   5.130000      7.4433613E-32
   5.140000      7.8828516E-32
   5.150000      8.3098305E-32
   5.160000      8.7199858E-32
   5.170000      9.1086783E-32
   5.180000      9.4709468E-32
   5.190000      9.8015064E-32
   5.200000      1.0094745E-31
   5.210000      1.0344726E-31
   5.220000      1.0545198E-31
   5.230000      1.0689586E-31
   5.240000      1.0771018E-31
   5.250000      1.0782315E-31
   5.260000      1.0716013E-31
   5.270000      1.0564358E-31
   5.280000      1.0319379E-31
   5.290000      9.9728753E-32
   5.300000      9.5163903E-32
   5.310000      8.9413102E-32
   5.320000      8.2388712E-32
   5.330000      7.4002018E-32
   5.340000      6.4163607E-32
   5.350000      5.2783852E-32
   5.360000      3.9773439E-32
   5.370000      2.5043931E-32
   5.380000      8.5083912E-33
   5.390000     -9.9179618E-33
   5.400000     -3.0317010E-32
   5.410000     -5.2766966E-32
   5.420000     -7.7344642E-32
   5.430000     -1.0411530E-31
   5.440000     -1.3313794E-31
   5.450000     -1.6447057E-31
   5.460000     -1.9815985E-31
   5.470000     -2.3424304E-31
   5.480000     -2.7274711E-31
   5.490000     -3.1368749E-31
   5.500000     -3.5706678E-31
   5.510000     -4.0287370E-31
   5.520000     -4.5108162E-31
   5.530000     -5.0164743E-31
   5.540000     -5.5451003E-31
   5.550000     -6.0958913E-31
   5.560000     -6.6678384E-31
   5.570000     -7.2597135E-31
   5.580000     -7.8700527E-31
   5.590000     -8.4971465E-31
   5.600000     -9.1390209E-31
   5.610000     -9.7934290E-31
   5.620000     -1.0457831E-30
   5.630000     -1.1129384E-30
   5.640000     -1.1804928E-30
   5.650000     -1.2480977E-30
   5.660000     -1.3153697E-30
   5.670000     -1.3818903E-30
   5.680000     -1.4472043E-30
   5.690000     -1.5108190E-30
   5.700000     -1.5722029E-30
   5.710000     -1.6307853E-30
   5.720000     -1.6859557E-30
   5.730000     -1.7370620E-30
   5.740000     -1.7834124E-30
   5.750000     -1.8242728E-30
   5.760000     -1.8588686E-30
   5.770000     -1.8863833E-30
   5.780000     -1.9059605E-30
   5.790000     -1.9167033E-30
   5.800000     -1.9176765E-30
   5.810000     -1.9079065E-30
   5.820000     -1.8863833E-30
   5.830000     -1.8520634E-30
   5.840000     -1.8038706E-30
   5.850000     -1.7406987E-30
   5.860000     -1.6614159E-30
   5.870000     -1.5648661E-30
   5.880000     -1.4498742E-30
   5.890000     -1.3152493E-30
   5.900000     -1.1597899E-30
   5.910000     -9.8228888E-31
   5.920000     -7.8153875E-31
   5.930000     -5.5633801E-31
   5.940000     -3.0549765E-31
   5.950000     -2.7848055E-32
   5.960000      2.7775338E-31
   5.970000      6.1241408E-31
   5.980000      9.7719729E-31
   5.990000      1.3731137E-30
   6.000000      1.8011109E-30
   6.010000      2.2620632E-30
   6.020000      2.7567616E-30
   6.030000      3.2859009E-30
   6.040000      3.8500682E-30
   6.050000      4.4497325E-30
   6.060000      5.0852273E-30
   6.070000      5.7567408E-30
   6.080000      6.4643004E-30
   6.090000      7.2077575E-30
   6.100000      7.9867743E-30
   6.110000      8.8008062E-30
   6.120000      9.6490866E-30
   6.130000      1.0530613E-29
   6.140000      1.1444124E-29
   6.150000      1.2388092E-29
   6.160000      1.3360700E-29
   6.170000      1.4359824E-29
   6.180000      1.5383021E-29
   6.190000      1.6427505E-29
   6.200000      1.7490142E-29
   6.210000      1.8567415E-29
   6.220000      1.9655427E-29
   6.230000      2.0749870E-29
   6.240000      2.1846017E-29
   6.250000      2.2938709E-29
   6.260000      2.4022333E-29
   6.270000      2.5090817E-29
   6.280000      2.6137608E-29
   6.290000      2.7155672E-29
   6.300000      2.8137478E-29
   6.310000      2.9074985E-29
   6.320000      2.9959649E-29
   6.330000      3.0782400E-29
   6.340000      3.1533654E-29
   6.350000      3.2203303E-29
   6.360000      3.2780715E-29
   6.370000      3.3254743E-29
   6.380000      3.3613731E-29
   6.390000      3.3845513E-29
   6.400000      3.3937440E-29
   6.410000      3.3876382E-29
   6.420000      3.3648759E-29
   6.430000      3.3240546E-29
   6.440000      3.2637311E-29
   6.450000      3.1824241E-29
   6.460000      3.0786180E-29
   6.470000      2.9507663E-29
   6.480000      2.7972962E-29
   6.490000      2.6166130E-29
   6.500000      2.4071056E-29
   6.510000      2.1671527E-29
   6.520000      1.8951285E-29
   6.530000      1.5894101E-29
   6.540000      1.2483852E-29
   6.550000      8.7045895E-30
   6.560000      4.5406401E-30
   6.570000     -2.3310254E-32
   6.580000     -5.0021185E-30
   6.590000     -1.0410072E-29
   6.600000     -1.6260780E-29
   6.610000     -2.2567063E-29
   6.620000     -2.9340826E-29
   6.630000     -3.6592916E-29
   6.640000     -4.4333008E-29
   6.650000     -5.2569450E-29
   6.660000     -6.1309097E-29
   6.670000     -7.0557208E-29
   6.680000     -8.0317219E-29
   6.690000     -9.0590641E-29
   6.700000     -1.0137684E-28
   6.710000     -1.1267286E-28
   6.720000     -1.2447333E-28
   6.730000     -1.3677016E-28
   6.740000     -1.4955240E-28
   6.750000     -1.6280608E-28
   6.760000     -1.7651397E-28
   6.770000     -1.9065541E-28
   6.780000     -2.0520613E-28
   6.790000     -2.2013796E-28
   6.800000     -2.3541872E-28
   6.810000     -2.5101206E-28
   6.820000     -2.6687712E-28
   6.830000     -2.8296848E-28
   6.840000     -2.9923585E-28
   6.850000     -3.1562395E-28
   6.860000     -3.3207238E-28
   6.870000     -3.4851532E-28
   6.880000     -3.6488144E-28
   6.890000     -3.8109385E-28
   6.900000     -3.9706970E-28
   6.910000     -4.1272034E-28
   6.920000     -4.2795102E-28
   6.930000     -4.4266079E-28
   6.940000     -4.5674252E-28
   6.950000     -4.7008276E-28
   6.960000     -4.8256178E-28
   6.970000     -4.9405346E-28
   6.980000     -5.0442537E-28
   6.990000     -5.1353877E-28
   7.000000     -5.2124865E-28
   7.010000     -5.2740388E-28
   7.020000     -5.3184729E-28
   7.030000     -5.3441595E-28
   7.040000     -5.3494105E-28
   7.050000     -5.3324869E-28
   7.060000     -5.2915956E-28