  -2.600000      0.0000000E+00
  -2.590000      0.0000000E+00
  -2.580000      0.0000000E+00
  -2.570000      0.0000000E+00
  -2.560000      0.0000000E+00
  -2.550000      0.0000000E+00
  -2.540000      0.0000000E+00
  -2.530000      0.0000000E+00
  -2.520000      0.0000000E+00
  -2.510000      0.0000000E+00
  -2.500000      0.0000000E+00
  -2.490000      0.0000000E+00
  -2.480000      0.0000000E+00
  -2.470000      0.0000000E+00
  -2.460000      0.0000000E+00
  -2.450000      0.0000000E+00
  -2.440000      0.0000000E+00
  -2.430000      0.0000000E+00
  -2.420000      0.0000000E+00
  -2.410000      0.0000000E+00
  -2.400000      0.0000000E+00
  -2.390000      0.0000000E+00
  -2.380000      0.0000000E+00
  -2.370000      0.0000000E+00
  -2.360000      0.0000000E+00
  -2.350000      0.0000000E+00
  -2.340000      0.0000000E+00
  -2.330000      0.0000000E+00
  -2.320000      0.0000000E+00
  -2.310000      0.0000000E+00
  -2.300000      0.0000000E+00
  -2.290000      0.0000000E+00
  -2.280000      0.0000000E+00
  -2.270000      0.0000000E+00
  -2.260000      0.0000000E+00
  -2.250000      0.0000000E+00
  -2.240000      0.0000000E+00
  -2.230000      0.0000000E+00
  -2.220000      0.0000000E+00
  -2.210000      0.0000000E+00
  -2.200000      0.0000000E+00
  -2.190000      0.0000000E+00
  -2.180000      0.0000000E+00
  -2.170000      0.0000000E+00
  -2.160000      0.0000000E+00
  -2.150000      0.0000000E+00
  -2.140000      0.0000000E+00
  -2.130000      0.0000000E+00
  -2.120000      0.0000000E+00
  -2.110000      0.0000000E+00
  -2.100000      0.0000000E+00
  -2.090000      0.0000000E+00
  -2.080000      0.0000000E+00
  -2.070000      0.0000000E+00
  -2.060000      0.0000000E+00
  -2.050000      0.0000000E+00
  -2.040000      0.0000000E+00
  -2.030000      0.0000000E+00
  -2.020000      0.0000000E+00
  -2.010000      0.0000000E+00
  -2.000000      0.0000000E+00
  -1.990000      0.0000000E+00
  -1.980000      0.0000000E+00
  -1.970000      0.0000000E+00
  -1.960000      0.0000000E+00
  -1.950000      0.0000000E+00
  -1.940000      0.0000000E+00
  -1.930000      0.0000000E+00
  -1.920000      0.0000000E+00
  -1.910000      0.0000000E+00
  -1.900000      0.0000000E+00
  -1.890000      0.0000000E+00
  -1.880000      0.0000000E+00
  -1.870000      0.0000000E+00
  -1.860000      0.0000000E+00
  -1.850000      0.0000000E+00
  -1.840000      0.0000000E+00
  -1.830000      0.0000000E+00
  -1.820000      0.0000000E+00
  -1.810000      0.0000000E+00
  -1.800000      0.0000000E+00
  -1.790000      0.0000000E+00
  -1.780000      0.0000000E+00
  -1.770000      0.0000000E+00
  -1.760000      0.0000000E+00
  -1.750000      0.0000000E+00
  -1.740000      0.0000000E+00
  -1.730000      0.0000000E+00
  -1.720000      0.0000000E+00
  -1.710000      0.0000000E+00
  -1.700000      0.0000000E+00
  -1.690000      0.0000000E+00
  -1.680000      0.0000000E+00
  -1.670000      0.0000000E+00
  -1.660000      0.0000000E+00
  -1.650000      0.0000000E+00
  -1.640000      0.0000000E+00
  -1.630000      0.0000000E+00
  -1.620000      0.0000000E+00
  -1.610000      0.0000000E+00
  -1.600000      0.0000000E+00
  -1.590000      0.0000000E+00
  -1.580000      0.0000000E+00
  -1.570000      0.0000000E+00
  -1.560000      0.0000000E+00
  -1.550000      0.0000000E+00
  -1.540000      0.0000000E+00
  -1.530000      0.0000000E+00
  -1.520000      0.0000000E+00
  -1.510000      0.0000000E+00
  -1.500000      0.0000000E+00
  -1.490000      0.0000000E+00
  -1.480000      0.0000000E+00
  -1.470000      0.0000000E+00
  -1.460000      0.0000000E+00
  -1.450000      0.0000000E+00
  -1.440000      0.0000000E+00
  -1.430000      0.0000000E+00
  -1.420000      0.0000000E+00
  -1.410000      0.0000000E+00
  -1.400000      0.0000000E+00
  -1.390000      0.0000000E+00
  -1.380000      0.0000000E+00
  -1.370000      0.0000000E+00
  -1.360000      0.0000000E+00
  -1.350000      0.0000000E+00
  -1.340000      0.0000000E+00
  -1.330000      0.0000000E+00
  -1.320000      0.0000000E+00
  -1.310000      0.0000000E+00
  -1.300000      0.0000000E+00
  -1.290000      0.0000000E+00
  -1.280000      0.0000000E+00
  -1.270000      0.0000000E+00
  -1.260000      0.0000000E+00
  -1.250000      0.0000000E+00
  -1.240000      0.0000000E+00
  -1.230000      0.0000000E+00
  -1.220000      0.0000000E+00
  -1.210000      0.0000000E+00
  -1.200000      0.0000000E+00
  -1.190000      0.0000000E+00
  -1.180000      0.0000000E+00
  -1.170000      0.0000000E+00
  -1.160000      0.0000000E+00
  -1.150000      0.0000000E+00
  -1.140000      0.0000000E+00
  -1.130000      0.0000000E+00
  -1.120000      0.0000000E+00
  -1.110000      0.0000000E+00
  -1.100000      0.0000000E+00
  -1.090000      0.0000000E+00
  -1.080000      0.0000000E+00
  -1.070000      0.0000000E+00
  -1.060000      0.0000000E+00
  -1.050000      0.0000000E+00
  -1.040000      0.0000000E+00
  -1.030000      0.0000000E+00
  -1.020000      0.0000000E+00
  -1.010000      0.0000000E+00
  -1.000000      0.0000000E+00
 -0.9900000      0.0000000E+00
 -0.9800000      0.0000000E+00
 -0.9700000      0.0000000E+00
 -0.9600000      0.0000000E+00
 -0.9500000      0.0000000E+00
 -0.9400000      0.0000000E+00
 -0.9300000      0.0000000E+00
 -0.9200000      0.0000000E+00
 -0.9100000      0.0000000E+00
 -0.9000000      0.0000000E+00
 -0.8900000      0.0000000E+00
 -0.8800000      0.0000000E+00
 -0.8700000      0.0000000E+00
 -0.8600000      0.0000000E+00
 -0.8500000      0.0000000E+00
 -0.8400000      0.0000000E+00
 -0.8300000      0.0000000E+00
 -0.8200000      0.0000000E+00
 -0.8100000      0.0000000E+00
 -0.8000000      0.0000000E+00
 -0.7900000      0.0000000E+00
 -0.7800000      0.0000000E+00
 -0.7700000      0.0000000E+00
 -0.7600000      0.0000000E+00
 -0.7500000      0.0000000E+00
 -0.7400000      0.0000000E+00
 -0.7300000      0.0000000E+00
 -0.7200000      0.0000000E+00
 -0.7100000      0.0000000E+00
 -0.7000000      0.0000000E+00
 -0.6900000      0.0000000E+00
 -0.6800000      0.0000000E+00
 -0.6700000      0.0000000E+00
 -0.6600000      0.0000000E+00
 -0.6500000      0.0000000E+00
 -0.6400000      0.0000000E+00
 -0.6300000      0.0000000E+00
 -0.6200000      0.0000000E+00
 -0.6100000      0.0000000E+00
 -0.6000000      0.0000000E+00
 -0.5900000      0.0000000E+00
 -0.5800000      0.0000000E+00
 -0.5700000      0.0000000E+00
 -0.5600000      0.0000000E+00
 -0.5500000      0.0000000E+00
 -0.5400000      0.0000000E+00
 -0.5300000      0.0000000E+00
 -0.5200000      0.0000000E+00
 -0.5100000      0.0000000E+00
 -0.5000000      0.0000000E+00
 -0.4900000      0.0000000E+00
 -0.4800000      0.0000000E+00
 -0.4700000      0.0000000E+00
 -0.4600000      0.0000000E+00
 -0.4500000      0.0000000E+00
 -0.4400000      0.0000000E+00
 -0.4300000      0.0000000E+00
 -0.4200000      0.0000000E+00
 -0.4100000      0.0000000E+00
 -0.4000000      0.0000000E+00
 -0.3900000      0.0000000E+00
 -0.3800000      0.0000000E+00
 -0.3700000      0.0000000E+00
 -0.3600000      0.0000000E+00
 -0.3500000      0.0000000E+00
 -0.3400000      0.0000000E+00
 -0.3300000      0.0000000E+00
 -0.3200000      0.0000000E+00
 -0.3100000      0.0000000E+00
 -0.3000000      0.0000000E+00
 -0.2900000      0.0000000E+00
 -0.2800000      0.0000000E+00
 -0.2700000      0.0000000E+00
 -0.2600000      0.0000000E+00
 -0.2500000      0.0000000E+00
 -0.2400000      0.0000000E+00
 -0.2300000      0.0000000E+00
 -0.2200000      0.0000000E+00
 -0.2100000      0.0000000E+00
 -0.2000000      0.0000000E+00
 -0.1900000      0.0000000E+00
 -0.1800000      0.0000000E+00
 -0.1700000      0.0000000E+00
 -0.1600000      0.0000000E+00
 -0.1500000      0.0000000E+00
 -0.1400000      0.0000000E+00
 -0.1300000      0.0000000E+00
 -0.1200000      0.0000000E+00
 -0.1100000      0.0000000E+00
 -0.1000000      0.0000000E+00
 -9.0000004E-02  0.0000000E+00
 -7.9999998E-02  0.0000000E+00
 -7.0000000E-02  0.0000000E+00
 -5.9999999E-02  0.0000000E+00
 -5.0000001E-02  0.0000000E+00
 -3.9999999E-02  0.0000000E+00
 -2.9999999E-02  0.0000000E+00
 -2.0000000E-02  0.0000000E+00
 -9.9999998E-03  0.0000000E+00
 -3.4694470E-17  0.0000000E+00
  9.9999998E-03  0.0000000E+00
  2.0000000E-02  0.0000000E+00
  2.9999999E-02  0.0000000E+00
  3.9999999E-02  0.0000000E+00
  5.0000001E-02  0.0000000E+00
  5.9999999E-02  0.0000000E+00
  7.0000000E-02  0.0000000E+00
  7.9999998E-02  0.0000000E+00
  9.0000004E-02  0.0000000E+00
  0.1000000      0.0000000E+00
  0.1100000      0.0000000E+00
  0.1200000      0.0000000E+00
  0.1300000      0.0000000E+00
  0.1400000      0.0000000E+00
  0.1500000      0.0000000E+00
  0.1600000      0.0000000E+00
  0.1700000      0.0000000E+00
  0.1800000      0.0000000E+00
  0.1900000      0.0000000E+00
  0.2000000      0.0000000E+00
  0.2100000      0.0000000E+00
  0.2200000      0.0000000E+00
  0.2300000      0.0000000E+00
  0.2400000      0.0000000E+00
  0.2500000      0.0000000E+00
  0.2600000      0.0000000E+00
  0.2700000      0.0000000E+00
  0.2800000      0.0000000E+00
  0.2900000      0.0000000E+00
  0.3000000      0.0000000E+00
  0.3100000      0.0000000E+00
  0.3200000      0.0000000E+00
  0.3300000      0.0000000E+00
  0.3400000      0.0000000E+00
  0.3500000      0.0000000E+00
  0.3600000      0.0000000E+00
  0.3700000      0.0000000E+00
  0.3800000      0.0000000E+00
  0.3900000      0.0000000E+00
  0.4000000      0.0000000E+00
  0.4100000      0.0000000E+00
  0.4200000      0.0000000E+00
  0.4300000      0.0000000E+00
  0.4400000      0.0000000E+00
  0.4500000      0.0000000E+00
  0.4600000      0.0000000E+00
  0.4700000      0.0000000E+00
  0.4800000      0.0000000E+00
  0.4900000      0.0000000E+00
  0.5000000      0.0000000E+00
  0.5100000      0.0000000E+00
  0.5200000      0.0000000E+00
  0.5300000      0.0000000E+00
  0.5400000      0.0000000E+00
  0.5500000      0.0000000E+00
  0.5600000      0.0000000E+00
  0.5700000      0.0000000E+00
  0.5800000      0.0000000E+00
  0.5900000      0.0000000E+00
  0.6000000      0.0000000E+00
  0.6100000      0.0000000E+00
  0.6200000      0.0000000E+00
  0.6300000      0.0000000E+00
  0.6400000      0.0000000E+00
  0.6500000      0.0000000E+00
  0.6600000      0.0000000E+00
  0.6700000      0.0000000E+00
  0.6800000      0.0000000E+00
  0.6900000      0.0000000E+00
  0.7000000      0.0000000E+00
  0.7100000      0.0000000E+00
  0.7200000      0.0000000E+00
  0.7300000      0.0000000E+00
  0.7400000      0.0000000E+00
  0.7500000      0.0000000E+00
  0.7600000      0.0000000E+00
  0.7700000      0.0000000E+00
  0.7800000      0.0000000E+00
  0.7900000      0.0000000E+00
  0.8000000      0.0000000E+00
  0.8100000      0.0000000E+00
  0.8200000      0.0000000E+00
  0.8300000      0.0000000E+00
  0.8400000      0.0000000E+00
  0.8500000      0.0000000E+00
  0.8600000      0.0000000E+00
  0.8700000      0.0000000E+00
  0.8800000      0.0000000E+00
  0.8900000      0.0000000E+00
  0.9000000      0.0000000E+00
  0.9100000      0.0000000E+00
  0.9200000      0.0000000E+00
  0.9300000      0.0000000E+00
  0.9400000      0.0000000E+00
  0.9500000      0.0000000E+00
  0.9600000      0.0000000E+00
  0.9700000      0.0000000E+00
  0.9800000      0.0000000E+00
  0.9900000      0.0000000E+00
   1.000000      0.0000000E+00
   1.010000      0.0000000E+00
   1.020000      0.0000000E+00
   1.030000      0.0000000E+00
   1.040000      0.0000000E+00
   1.050000      0.0000000E+00
   1.060000      0.0000000E+00
   1.070000      0.0000000E+00
   1.080000      0.0000000E+00
   1.090000      0.0000000E+00
   1.100000      0.0000000E+00
   1.110000      0.0000000E+00
   1.120000      0.0000000E+00
   1.130000      0.0000000E+00
   1.140000      0.0000000E+00
   1.150000      0.0000000E+00
   1.160000      0.0000000E+00
   1.170000      0.0000000E+00
   1.180000      0.0000000E+00
   1.190000      0.0000000E+00
   1.200000      0.0000000E+00
   1.210000      0.0000000E+00
   1.220000      0.0000000E+00
   1.230000      0.0000000E+00
   1.240000      0.0000000E+00
   1.250000      0.0000000E+00
   1.260000      0.0000000E+00
   1.270000      0.0000000E+00
   1.280000      0.0000000E+00
   1.290000      0.0000000E+00
   1.300000      0.0000000E+00
   1.310000      0.0000000E+00
   1.320000      0.0000000E+00
   1.330000      0.0000000E+00
   1.340000      0.0000000E+00
   1.350000      0.0000000E+00
   1.360000      0.0000000E+00
   1.370000      0.0000000E+00
   1.380000      0.0000000E+00
   1.390000      0.0000000E+00
   1.400000      0.0000000E+00
   1.410000      0.0000000E+00
   1.420000      0.0000000E+00
   1.430000      0.0000000E+00
   1.440000      0.0000000E+00
   1.450000      0.0000000E+00
   1.460000      0.0000000E+00
   1.470000      0.0000000E+00
   1.480000      0.0000000E+00
   1.490000      0.0000000E+00
   1.500000      0.0000000E+00
   1.510000      0.0000000E+00
   1.520000      0.0000000E+00
   1.530000      0.0000000E+00
   1.540000      0.0000000E+00
   1.550000      0.0000000E+00
   1.560000      0.0000000E+00
   1.570000      0.0000000E+00
   1.580000      0.0000000E+00
   1.590000      0.0000000E+00
   1.600000      0.0000000E+00
   1.610000      0.0000000E+00
   1.620000      0.0000000E+00
   1.630000      0.0000000E+00
   1.640000      0.0000000E+00
   1.650000      0.0000000E+00
   1.660000      0.0000000E+00
   1.670000      0.0000000E+00
   1.680000      0.0000000E+00
   1.690000      0.0000000E+00
   1.700000      0.0000000E+00
   1.710000      0.0000000E+00
   1.720000      0.0000000E+00
   1.730000      0.0000000E+00
   1.740000      0.0000000E+00
   1.750000      0.0000000E+00
   1.760000      0.0000000E+00
   1.770000      0.0000000E+00
   1.780000      0.0000000E+00
   1.790000      0.0000000E+00
   1.800000      0.0000000E+00
   1.810000      0.0000000E+00
   1.820000      0.0000000E+00
   1.830000      0.0000000E+00
   1.840000      0.0000000E+00
   1.850000      0.0000000E+00
   1.860000      0.0000000E+00
   1.870000      0.0000000E+00
   1.880000      0.0000000E+00
   1.890000      0.0000000E+00
   1.900000      0.0000000E+00
   1.910000      0.0000000E+00
   1.920000      0.0000000E+00
   1.930000      0.0000000E+00
   1.940000      0.0000000E+00
   1.950000      0.0000000E+00
   1.960000      0.0000000E+00
   1.970000      0.0000000E+00
   1.980000      0.0000000E+00
   1.990000      0.0000000E+00
   2.000000      0.0000000E+00
   2.010000      0.0000000E+00
   2.020000      0.0000000E+00
   2.030000      0.0000000E+00
   2.040000      0.0000000E+00
   2.050000      0.0000000E+00
   2.060000      0.0000000E+00
   2.070000      0.0000000E+00
   2.080000      0.0000000E+00
   2.090000      0.0000000E+00
   2.100000      0.0000000E+00
   2.110000      0.0000000E+00
   2.120000      0.0000000E+00
   2.130000      0.0000000E+00
   2.140000      0.0000000E+00
   2.150000      0.0000000E+00
   2.160000      0.0000000E+00
   2.170000      0.0000000E+00
   2.180000      0.0000000E+00
   2.190000      0.0000000E+00
   2.200000      0.0000000E+00
   2.210000      0.0000000E+00
   2.220000      0.0000000E+00
   2.230000      0.0000000E+00
   2.240000      0.0000000E+00
   2.250000      0.0000000E+00
   2.260000      0.0000000E+00
   2.270000      0.0000000E+00
   2.280000      0.0000000E+00
   2.290000      0.0000000E+00
   2.300000      0.0000000E+00
   2.310000      0.0000000E+00
   2.320000      0.0000000E+00
   2.330000      0.0000000E+00
   2.340000      0.0000000E+00
   2.350000      0.0000000E+00
   2.360000      0.0000000E+00
   2.370000      0.0000000E+00
   2.380000      0.0000000E+00
   2.390000      0.0000000E+00
   2.400000      0.0000000E+00
   2.410000      0.0000000E+00
   2.420000      0.0000000E+00
   2.430000      0.0000000E+00
   2.440000      0.0000000E+00
   2.450000      0.0000000E+00
   2.460000      0.0000000E+00
   2.470000      0.0000000E+00
   2.480000      0.0000000E+00
   2.490000      0.0000000E+00
   2.500000      0.0000000E+00
   2.510000      0.0000000E+00
   2.520000      0.0000000E+00
   2.530000      0.0000000E+00
   2.540000      0.0000000E+00
   2.550000      0.0000000E+00
   2.560000      0.0000000E+00
   2.570000      0.0000000E+00
   2.580000      0.0000000E+00
   2.590000      0.0000000E+00
   2.600000      0.0000000E+00
   2.610000      0.0000000E+00
   2.620000      0.0000000E+00
   2.630000      0.0000000E+00
   2.640000      0.0000000E+00
   2.650000      0.0000000E+00
   2.660000      0.0000000E+00
   2.670000      0.0000000E+00
   2.680000      0.0000000E+00
   2.690000      0.0000000E+00
   2.700000      0.0000000E+00
   2.710000      0.0000000E+00
   2.720000      0.0000000E+00
   2.730000      0.0000000E+00
   2.740000      0.0000000E+00
   2.750000      0.0000000E+00
   2.760000      0.0000000E+00
   2.770000      0.0000000E+00
   2.780000      0.0000000E+00
   2.790000      0.0000000E+00
   2.800000      0.0000000E+00
   2.810000      0.0000000E+00
   2.820000      0.0000000E+00
   2.830000      0.0000000E+00
   2.840000      0.0000000E+00
   2.850000      0.0000000E+00
   2.860000      0.0000000E+00
   2.870000      0.0000000E+00
   2.880000      0.0000000E+00
   2.890000      0.0000000E+00
   2.900000      0.0000000E+00
   2.910000      0.0000000E+00
   2.920000      0.0000000E+00
   2.930000      0.0000000E+00
   2.940000      0.0000000E+00
   2.950000      0.0000000E+00
   2.960000      0.0000000E+00
   2.970000      0.0000000E+00
   2.980000      0.0000000E+00
   2.990000      0.0000000E+00
   3.000000      0.0000000E+00
   3.010000      0.0000000E+00
   3.020000      0.0000000E+00
   3.030000      0.0000000E+00
   3.040000      0.0000000E+00
   3.050000      0.0000000E+00
   3.060000      0.0000000E+00
   3.070000      0.0000000E+00
   3.080000      0.0000000E+00
   3.090000      0.0000000E+00
   3.100000      0.0000000E+00
   3.110000      0.0000000E+00
   3.120000      0.0000000E+00
   3.130000      0.0000000E+00
   3.140000      0.0000000E+00
   3.150000      0.0000000E+00
   3.160000      0.0000000E+00
   3.170000      0.0000000E+00
   3.180000      0.0000000E+00
   3.190000      0.0000000E+00
   3.200000      0.0000000E+00
   3.210000      0.0000000E+00
   3.220000      0.0000000E+00
   3.230000      0.0000000E+00
   3.240000      0.0000000E+00
   3.250000      0.0000000E+00
   3.260000      0.0000000E+00
   3.270000      0.0000000E+00
   3.280000      0.0000000E+00
   3.290000      0.0000000E+00
   3.300000      0.0000000E+00
   3.310000      0.0000000E+00
   3.320000      0.0000000E+00
   3.330000      0.0000000E+00
   3.340000      0.0000000E+00
   3.350000      0.0000000E+00
   3.360000      0.0000000E+00
   3.370000      0.0000000E+00
   3.380000      0.0000000E+00
   3.390000      0.0000000E+00
   3.400000      0.0000000E+00
   3.410000      0.0000000E+00
   3.420000      0.0000000E+00
   3.430000      0.0000000E+00
   3.440000      0.0000000E+00
   3.450000      0.0000000E+00
   3.460000      0.0000000E+00
   3.470000      0.0000000E+00
   3.480000      0.0000000E+00
   3.490000     -1.3355857E-38
   3.500000     -1.4468576E-38
   3.510000     -1.4591343E-38
   3.520000     -1.4890946E-38
   3.530000     -1.5133073E-38
   3.540000     -1.5376433E-38
   3.550000     -1.6569183E-38
   3.560000     -1.8712875E-38
   3.570000     -2.2434358E-38
   3.580000     -2.7325757E-38
   3.590000     -3.0848246E-38
   3.600000     -3.3547691E-38
   3.610000     -3.4948614E-38
   3.620000     -3.5077710E-38
   3.630000     -3.5428508E-38
   3.640000     -3.5435343E-38
   3.650000     -3.3791015E-38
   3.660000     -3.0628536E-38
   3.670000     -2.7137863E-38
   3.680000     -2.4317371E-38
   3.690000     -2.2761958E-38
   3.700000     -2.2940598E-38
   3.710000     -2.4505812E-38
   3.720000     -2.6348682E-38
   3.730000     -2.8563426E-38
   3.740000     -3.0984870E-38
   3.750000     -3.4609356E-38
   3.760000     -3.6022689E-38
   3.770000     -3.3910602E-38
   3.780000     -3.2139388E-38
   3.790000     -3.0820024E-38
   3.800000     -2.9333283E-38
   3.810000     -2.5917206E-38
   3.820000     -1.9326128E-38
   3.830000      0.0000000E+00
   3.840000      0.0000000E+00
   3.850000      1.3095835E-38
   3.860000      2.6498983E-38
   3.870000      4.0699470E-38
   3.880000      5.4424157E-38
   3.890000      6.6856000E-38
   3.900000      7.7304681E-38
   3.910000      8.5170551E-38
   3.920000      9.0106787E-38
   3.930000      9.3671348E-38
   3.940000      8.9706285E-38
   3.950000      7.8432659E-38
   3.960000      6.9459237E-38
   3.970000      6.3474516E-38
   3.980000      5.6788332E-38
   3.990000      5.1623286E-38
   4.000000      5.1751880E-38
   4.010000      5.3634777E-38
   4.020000      5.6062218E-38
   4.030000      6.4128277E-38
   4.040000      1.1593627E-37
   4.050000      2.1127166E-37
   4.060000      3.1141482E-37
   4.070000      4.0712935E-37
   4.080000      4.7604696E-37
   4.090000      4.7600373E-37
   4.100000      4.2818722E-37
   4.110000      3.9471026E-37
   4.120000      3.7531909E-37
   4.130000      3.4980033E-37
   4.140000      3.1655086E-37
   4.150000      2.8391888E-37
   4.160000      2.4523640E-37
   4.170000      1.9069789E-37
   4.180000      8.1596858E-38
   4.190000     -7.9564886E-38
   4.200000     -2.4180914E-37
   4.210000     -3.9977978E-37
   4.220000     -5.3253328E-37
   4.230000     -5.9969009E-37
   4.240000     -6.0678878E-37
   4.250000     -5.8570240E-37
   4.260000     -5.4344969E-37
   4.270000     -4.9735024E-37
   4.280000     -4.5451113E-37
   4.290000     -3.6095079E-37
   4.300000     -2.3200953E-37
   4.310000     -1.0383524E-37
   4.320000     -3.5797422E-38
   4.330000     -5.2679131E-38
   4.340000     -9.0375848E-38
   4.350000     -1.2736260E-37
   4.360000     -1.5126815E-37
   4.370000     -3.5402261E-37
   4.380000     -8.1104823E-37
   4.390000     -1.3549534E-36
   4.400000     -1.8686448E-36
   4.410000     -2.3570475E-36
   4.420000     -2.8566789E-36
   4.430000     -3.1901090E-36
   4.440000     -3.4350562E-36
   4.450000     -3.7580355E-36
   4.460000     -4.0783243E-36
   4.470000     -4.2555615E-36
   4.480000     -4.2491620E-36
   4.490000     -4.1303936E-36
   4.500000     -3.8809372E-36
   4.510000     -3.5186010E-36
   4.520000     -3.1373976E-36
   4.530000     -2.8028315E-36
   4.540000     -2.4758764E-36
   4.550000     -2.3709748E-36
   4.560000     -2.4611495E-36
   4.570000     -2.6065208E-36
   4.580000     -2.8471461E-36
   4.590000     -3.2665940E-36
   4.600000     -3.8579270E-36
   4.610000     -4.5653947E-36
   4.620000     -5.2737918E-36
   4.630000     -5.8355431E-36
   4.640000     -6.3908451E-36
   4.650000     -6.8403777E-36
   4.660000     -6.7145523E-36
   4.670000     -5.9048836E-36
   4.680000     -4.6850962E-36
   4.690000     -3.0820369E-36
   4.700000     -1.1760322E-36
   4.710000      8.0886023E-37
   4.720000      2.7153094E-36
   4.730000      4.3056602E-36
   4.740000      5.4896232E-36
   4.750000      6.2862280E-36
   4.760000      6.8214323E-36
   4.770000      7.2170812E-36
   4.780000      7.3949737E-36
   4.790000      7.5418165E-36
   4.800000      7.7867439E-36
   4.810000      8.1366594E-36
   4.820000      8.6575037E-36
   4.830000      9.9267126E-36
   4.840000      1.2136364E-35
   4.850000      1.4854050E-35
   4.860000      1.8049700E-35
   4.870000      2.1747165E-35
   4.880000      2.5769861E-35
   4.890000      2.9555007E-35
   4.900000      3.2382513E-35
   4.910000      3.4637399E-35
   4.920000      3.5932520E-35
   4.930000      3.5977396E-35
   4.940000      3.5790956E-35
   4.950000      3.5541502E-35
   4.960000      3.5531584E-35
   4.970000      3.5757671E-35
   4.980000      3.5228877E-35
   4.990000      3.4233756E-35
   5.000000      3.3776915E-35
   5.010000      3.3846167E-35
   5.020000      3.4284248E-35
   5.030000      3.6057592E-35
   5.040000      3.8896655E-35
   5.050000      4.1623050E-35
   5.060000      4.3537722E-35
   5.070000      4.2693760E-35
   5.080000      3.9172775E-35
   5.090000      3.4490497E-35
   5.100000      2.8972894E-35
   5.110000      2.3261143E-35
   5.120000      1.7677330E-35
   5.130000      1.4207928E-35
   5.140000      1.5730207E-35
   5.150000      2.1274478E-35
   5.160000      2.8727719E-35
   5.170000      3.9077393E-35
   5.180000      4.3858036E-35
   5.190000      4.1802551E-35
   5.200000      3.8042742E-35
   5.210000      2.9629098E-35
   5.220000      1.9226585E-35
   5.230000      7.1998060E-36
   5.240000     -7.5359993E-36
   5.250000     -3.4810285E-35
   5.260000     -7.4498263E-35
   5.270000     -1.1529056E-34
   5.280000     -1.5607646E-34
   5.290000     -1.9490674E-34
   5.300000     -2.2631136E-34
   5.310000     -2.5238516E-34
   5.320000     -2.7659818E-34
   5.330000     -2.9399780E-34
   5.340000     -3.0089460E-34
   5.350000     -2.9850079E-34
   5.360000     -2.9035271E-34
   5.370000     -2.7562128E-34
   5.380000     -2.5773529E-34
   5.390000     -2.5027450E-34
   5.400000     -2.6081331E-34
   5.410000     -2.8866394E-34
   5.420000     -3.3202763E-34
   5.430000     -3.8497980E-34
   5.440000     -4.4268272E-34
   5.450000     -5.0102421E-34
   5.460000     -5.5011427E-34
   5.470000     -5.7444021E-34
   5.480000     -5.8417767E-34
   5.490000     -5.9377480E-34
   5.500000     -5.8921755E-34
   5.510000     -5.6525088E-34
   5.520000     -5.3393993E-34
   5.530000     -5.0438226E-34
   5.540000     -4.8038611E-34
   5.550000     -4.6428179E-34
   5.560000     -4.6400941E-34
   5.570000     -4.7272303E-34
   5.580000     -4.8025713E-34
   5.590000     -4.9222820E-34
   5.600000     -5.0620175E-34
   5.610000     -5.1553394E-34
   5.620000     -5.1949430E-34
   5.630000     -5.1457426E-34
   5.640000     -4.9089048E-34
   5.650000     -4.4473842E-34
   5.660000     -3.7765178E-34
   5.670000     -2.9247390E-34
   5.680000     -1.9013318E-34
   5.690000     -7.1927891E-35
   5.700000      5.8827770E-35
   5.710000      1.9754532E-34
   5.720000      3.4032472E-34
   5.730000      4.8334918E-34
   5.740000      6.2422552E-34
   5.750000      7.6280441E-34
   5.760000      8.9977095E-34
   5.770000      1.0377932E-33
   5.780000      1.1784587E-33
   5.790000      1.3232529E-33
   5.800000      1.4762389E-33
   5.810000      1.6411527E-33
   5.820000      1.8194496E-33
   5.830000      2.0118070E-33
   5.840000      2.2192604E-33
   5.850000      2.4387454E-33
   5.860000      2.6665278E-33
   5.870000      2.9017429E-33
   5.880000      3.1391882E-33
   5.890000      3.3757193E-33
   5.900000      3.6079257E-33
   5.910000      3.8353728E-33
   5.920000      4.0569748E-33
   5.930000      4.2700372E-33
   5.940000      4.4777537E-33
   5.950000      4.6819213E-33
   5.960000      4.8844229E-33
   5.970000      5.0875384E-33
   5.980000      5.2932463E-33
   5.990000      5.5039386E-33
   6.000000      5.7177614E-33
   6.010000      5.9310339E-33
   6.020000      6.1421523E-33
   6.030000      6.3381304E-33
   6.040000      6.5235073E-33
   6.050000      6.7027511E-33
   6.060000      6.8611342E-33
   6.070000      6.9931937E-33
   6.080000      7.0932415E-33
   6.090000      7.1558307E-33
   6.100000      7.1777705E-33
   6.110000      7.1564699E-33
   6.120000      7.0903769E-33
   6.130000      6.9789063E-33
   6.140000      6.8219932E-33
   6.150000      6.6196613E-33
   6.160000      6.3716870E-33
   6.170000      6.0769745E-33
   6.180000      5.7353886E-33
   6.190000      5.3423889E-33
   6.200000      4.8920861E-33
   6.210000      4.3816104E-33
   6.220000      3.8060167E-33
   6.230000      3.1597314E-33
   6.240000      2.4370580E-33
   6.250000      1.6328048E-33
   6.260000      7.4256823E-34
   6.270000     -2.3698042E-34
   6.280000     -1.3084319E-33
   6.290000     -2.4728083E-33
   6.300000     -3.7303861E-33
   6.310000     -5.0809057E-33
   6.320000     -6.5233332E-33
   6.330000     -8.0569389E-33
   6.340000     -9.6810291E-33
   6.350000     -1.1395405E-32
   6.360000     -1.3200405E-32
   6.370000     -1.5097050E-32
   6.380000     -1.7086929E-32
   6.390000     -1.9171800E-32
   6.400000     -2.1353362E-32
   6.410000     -2.3632960E-32
   6.420000     -2.6011198E-32
   6.430000     -2.8487618E-32
   6.440000     -3.1060381E-32
   6.450000     -3.3726041E-32
   6.460000     -3.6479528E-32
   6.470000     -3.9314185E-32
   6.480000     -4.2221917E-32
   6.490000     -4.5193382E-32
   6.500000     -4.8218352E-32
   6.510000     -5.1285696E-32
   6.520000     -5.4383858E-32
   6.530000     -5.7501334E-32
   6.540000     -6.0626180E-32
   6.550000     -6.3745977E-32
   6.560000     -6.6847942E-32
   6.570000     -6.9918833E-32
   6.580000     -7.2944414E-32
   6.590000     -7.5909076E-32
   6.600000     -7.8795761E-32
   6.610000     -8.1585691E-32
   6.620000     -8.4258148E-32
   6.630000     -8.6790557E-32
   6.640000     -8.9158284E-32
   6.650000     -9.1334718E-32
   6.660000     -9.3291699E-32
   6.670000     -9.4999733E-32
   6.680000     -9.6428100E-32
   6.690000     -9.7545278E-32
   6.700000     -9.8319341E-32
   6.710000     -9.8717922E-32
   6.720000     -9.8708365E-32
   6.730000     -9.8257757E-32
   6.740000     -9.7332860E-32
   6.750000     -9.5899868E-32
   6.760000     -9.3924602E-32
   6.770000     -9.1372093E-32
   6.780000     -8.8206293E-32
   6.790000     -8.4390297E-32
   6.800000     -7.9886273E-32
   6.810000     -7.4655499E-32
   6.820000     -6.8658609E-32
   6.830000     -6.1855894E-32
   6.840000     -5.4207605E-32
   6.850000     -4.5674297E-32
   6.860000     -3.6217269E-32
   6.870000     -2.5799021E-32
   6.880000     -1.4383541E-32
   6.890000     -1.9366069E-33
   6.900000      1.1573902E-32
   6.910000      2.6177848E-32
   6.920000      4.1902718E-32
   6.930000      5.8773519E-32
   6.940000      7.6812608E-32
   6.950000      9.6039622E-32
   6.960000      1.1647128E-31
   6.970000      1.3812122E-31
   6.980000      1.6099967E-31
   6.990000      1.8511310E-31
   7.000000      2.1046373E-31
   7.010000      2.3704911E-31
   7.020000      2.6486142E-31
   7.030000      2.9388699E-31
   7.040000      3.2410563E-31
   7.050000      3.5549016E-31
   7.060000      3.8800572E-31