  -2.600000      0.0000000E+00
  -2.590000      0.0000000E+00
  -2.580000      0.0000000E+00
  -2.570000      0.0000000E+00
  -2.560000      0.0000000E+00
  -2.550000      0.0000000E+00
  -2.540000      0.0000000E+00
  -2.530000      0.0000000E+00
  -2.520000      0.0000000E+00
  -2.510000      0.0000000E+00
  -2.500000      0.0000000E+00
  -2.490000      0.0000000E+00
  -2.480000      0.0000000E+00
  -2.470000      0.0000000E+00
  -2.460000      0.0000000E+00
  -2.450000      0.0000000E+00
  -2.440000      0.0000000E+00
  -2.430000      0.0000000E+00
  -2.420000      0.0000000E+00
  -2.410000      0.0000000E+00
  -2.400000      0.0000000E+00
  -2.390000      0.0000000E+00
  -2.380000      0.0000000E+00
  -2.370000      0.0000000E+00
  -2.360000      0.0000000E+00
  -2.350000      0.0000000E+00
  -2.340000      0.0000000E+00
  -2.330000      0.0000000E+00
  -2.320000      0.0000000E+00
  -2.310000      0.0000000E+00
  -2.300000      0.0000000E+00
  -2.290000      0.0000000E+00
  -2.280000      0.0000000E+00
  -2.270000      0.0000000E+00
  -2.260000      0.0000000E+00
  -2.250000      0.0000000E+00
  -2.240000      0.0000000E+00
  -2.230000      0.0000000E+00
  -2.220000      0.0000000E+00
  -2.210000      0.0000000E+00
  -2.200000      0.0000000E+00
  -2.190000      0.0000000E+00
  -2.180000      0.0000000E+00
  -2.170000      0.0000000E+00
  -2.160000      0.0000000E+00
  -2.150000      0.0000000E+00
  -2.140000      0.0000000E+00
  -2.130000      0.0000000E+00
  -2.120000      0.0000000E+00
  -2.110000      0.0000000E+00
  -2.100000      0.0000000E+00
  -2.090000      0.0000000E+00
  -2.080000      0.0000000E+00
  -2.070000      0.0000000E+00
  -2.060000      0.0000000E+00
  -2.050000      0.0000000E+00
  -2.040000      0.0000000E+00
  -2.030000      0.0000000E+00
  -2.020000      0.0000000E+00
  -2.010000      0.0000000E+00
  -2.000000      0.0000000E+00
  -1.990000      0.0000000E+00
  -1.980000      0.0000000E+00
  -1.970000      0.0000000E+00
  -1.960000      0.0000000E+00
  -1.950000      0.0000000E+00
  -1.940000      0.0000000E+00
  -1.930000      0.0000000E+00
  -1.920000      0.0000000E+00
  -1.910000      0.0000000E+00
  -1.900000      0.0000000E+00
  -1.890000      0.0000000E+00
  -1.880000      0.0000000E+00
  -1.870000      0.0000000E+00
  -1.860000      0.0000000E+00
  -1.850000      0.0000000E+00
  -1.840000      0.0000000E+00
  -1.830000      0.0000000E+00
  -1.820000      0.0000000E+00
  -1.810000      0.0000000E+00
  -1.800000      0.0000000E+00
  -1.790000      0.0000000E+00
  -1.780000      0.0000000E+00
  -1.770000      0.0000000E+00
  -1.760000      0.0000000E+00
  -1.750000      0.0000000E+00
  -1.740000      0.0000000E+00
  -1.730000      0.0000000E+00
  -1.720000      0.0000000E+00
  -1.710000      0.0000000E+00
  -1.700000      0.0000000E+00
  -1.690000      0.0000000E+00
  -1.680000      0.0000000E+00
  -1.670000      0.0000000E+00
  -1.660000      0.0000000E+00
  -1.650000      0.0000000E+00
  -1.640000      0.0000000E+00
  -1.630000      0.0000000E+00
  -1.620000      0.0000000E+00
  -1.610000      0.0000000E+00
  -1.600000      0.0000000E+00
  -1.590000      0.0000000E+00
  -1.580000      0.0000000E+00
  -1.570000      0.0000000E+00
  -1.560000      0.0000000E+00
  -1.550000      0.0000000E+00
  -1.540000      0.0000000E+00
  -1.530000      0.0000000E+00
  -1.520000      0.0000000E+00
  -1.510000      0.0000000E+00
  -1.500000      0.0000000E+00
  -1.490000      0.0000000E+00
  -1.480000      0.0000000E+00
  -1.470000      0.0000000E+00
  -1.460000      0.0000000E+00
  -1.450000      0.0000000E+00
  -1.440000      0.0000000E+00
  -1.430000      0.0000000E+00
  -1.420000      0.0000000E+00
  -1.410000      0.0000000E+00
  -1.400000      0.0000000E+00
  -1.390000      0.0000000E+00
  -1.380000      0.0000000E+00
  -1.370000      0.0000000E+00
  -1.360000      0.0000000E+00
  -1.350000      0.0000000E+00
  -1.340000      0.0000000E+00
  -1.330000      0.0000000E+00
  -1.320000      0.0000000E+00
  -1.310000      0.0000000E+00
  -1.300000      0.0000000E+00
  -1.290000      0.0000000E+00
  -1.280000      0.0000000E+00
  -1.270000      0.0000000E+00
  -1.260000      0.0000000E+00
  -1.250000      0.0000000E+00
  -1.240000      0.0000000E+00
  -1.230000      0.0000000E+00
  -1.220000      0.0000000E+00
  -1.210000      0.0000000E+00
  -1.200000      0.0000000E+00
  -1.190000      0.0000000E+00
  -1.180000      0.0000000E+00
  -1.170000      0.0000000E+00
  -1.160000      0.0000000E+00
  -1.150000      0.0000000E+00
  -1.140000      0.0000000E+00
  -1.130000      0.0000000E+00
  -1.120000      0.0000000E+00
  -1.110000      0.0000000E+00
  -1.100000      0.0000000E+00
  -1.090000      0.0000000E+00
  -1.080000      0.0000000E+00
  -1.070000      0.0000000E+00
  -1.060000      0.0000000E+00
  -1.050000      0.0000000E+00
  -1.040000      0.0000000E+00
  -1.030000      0.0000000E+00
  -1.020000      0.0000000E+00
  -1.010000      0.0000000E+00
  -1.000000      0.0000000E+00
 -0.9900000      0.0000000E+00
 -0.9800000      0.0000000E+00
 -0.9700000      0.0000000E+00
 -0.9600000      0.0000000E+00
 -0.9500000      0.0000000E+00
 -0.9400000      0.0000000E+00
 -0.9300000      0.0000000E+00
 -0.9200000      0.0000000E+00
 -0.9100000      0.0000000E+00
 -0.9000000      0.0000000E+00
 -0.8900000      0.0000000E+00
 -0.8800000      0.0000000E+00
 -0.8700000      0.0000000E+00
 -0.8600000      0.0000000E+00
 -0.8500000      0.0000000E+00
 -0.8400000      0.0000000E+00
 -0.8300000      0.0000000E+00
 -0.8200000      0.0000000E+00
 -0.8100000      0.0000000E+00
 -0.8000000      0.0000000E+00
 -0.7900000      0.0000000E+00
 -0.7800000      0.0000000E+00
 -0.7700000      0.0000000E+00
 -0.7600000      0.0000000E+00
 -0.7500000      0.0000000E+00
 -0.7400000      0.0000000E+00
 -0.7300000      0.0000000E+00
 -0.7200000      0.0000000E+00
 -0.7100000      0.0000000E+00
 -0.7000000      0.0000000E+00
 -0.6900000      0.0000000E+00
 -0.6800000      0.0000000E+00
 -0.6700000      0.0000000E+00
 -0.6600000      0.0000000E+00
 -0.6500000      0.0000000E+00
 -0.6400000      0.0000000E+00
 -0.6300000      0.0000000E+00
 -0.6200000      0.0000000E+00
 -0.6100000      0.0000000E+00
 -0.6000000      0.0000000E+00
 -0.5900000      0.0000000E+00
 -0.5800000      0.0000000E+00
 -0.5700000      0.0000000E+00
 -0.5600000      0.0000000E+00
 -0.5500000      0.0000000E+00
 -0.5400000      0.0000000E+00
 -0.5300000      0.0000000E+00
 -0.5200000      0.0000000E+00
 -0.5100000      0.0000000E+00
 -0.5000000      0.0000000E+00
 -0.4900000      0.0000000E+00
 -0.4800000      0.0000000E+00
 -0.4700000      0.0000000E+00
 -0.4600000      0.0000000E+00
 -0.4500000      0.0000000E+00
 -0.4400000      0.0000000E+00
 -0.4300000      0.0000000E+00
 -0.4200000      0.0000000E+00
 -0.4100000      0.0000000E+00
 -0.4000000      0.0000000E+00
 -0.3900000      0.0000000E+00
 -0.3800000      0.0000000E+00
 -0.3700000      0.0000000E+00
 -0.3600000      0.0000000E+00
 -0.3500000      0.0000000E+00
 -0.3400000      0.0000000E+00
 -0.3300000      0.0000000E+00
 -0.3200000      0.0000000E+00
 -0.3100000      0.0000000E+00
 -0.3000000      0.0000000E+00
 -0.2900000      0.0000000E+00
 -0.2800000      0.0000000E+00
 -0.2700000      0.0000000E+00
 -0.2600000      0.0000000E+00
 -0.2500000      0.0000000E+00
 -0.2400000      0.0000000E+00
 -0.2300000      0.0000000E+00
 -0.2200000      0.0000000E+00
 -0.2100000      0.0000000E+00
 -0.2000000      0.0000000E+00
 -0.1900000      0.0000000E+00
 -0.1800000      0.0000000E+00
 -0.1700000      0.0000000E+00
 -0.1600000      0.0000000E+00
 -0.1500000      0.0000000E+00
 -0.1400000      0.0000000E+00
 -0.1300000      0.0000000E+00
 -0.1200000      0.0000000E+00
 -0.1100000      0.0000000E+00
 -0.1000000      0.0000000E+00
 -9.0000004E-02  0.0000000E+00
 -7.9999998E-02  0.0000000E+00
 -7.0000000E-02  0.0000000E+00
 -5.9999999E-02  0.0000000E+00
 -5.0000001E-02  0.0000000E+00
 -3.9999999E-02  0.0000000E+00
 -2.9999999E-02  0.0000000E+00
 -2.0000000E-02  0.0000000E+00
 -9.9999998E-03  0.0000000E+00
 -3.4694470E-17  0.0000000E+00
  9.9999998E-03  0.0000000E+00
  2.0000000E-02  0.0000000E+00
  2.9999999E-02  0.0000000E+00
  3.9999999E-02  0.0000000E+00
  5.0000001E-02  0.0000000E+00
  5.9999999E-02  0.0000000E+00
  7.0000000E-02  0.0000000E+00
  7.9999998E-02  0.0000000E+00
  9.0000004E-02  0.0000000E+00
  0.1000000      0.0000000E+00
  0.1100000      0.0000000E+00
  0.1200000      0.0000000E+00
  0.1300000      0.0000000E+00
  0.1400000      0.0000000E+00
  0.1500000      0.0000000E+00
  0.1600000      0.0000000E+00
  0.1700000      0.0000000E+00
  0.1800000      0.0000000E+00
  0.1900000      0.0000000E+00
  0.2000000      0.0000000E+00
  0.2100000      0.0000000E+00
  0.2200000      0.0000000E+00
  0.2300000      0.0000000E+00
  0.2400000      0.0000000E+00
  0.2500000      0.0000000E+00
  0.2600000      0.0000000E+00
  0.2700000      0.0000000E+00
  0.2800000      0.0000000E+00
  0.2900000      0.0000000E+00
  0.3000000      0.0000000E+00
  0.3100000      0.0000000E+00
  0.3200000      0.0000000E+00
  0.3300000      0.0000000E+00
  0.3400000      0.0000000E+00
  0.3500000      0.0000000E+00
  0.3600000      0.0000000E+00
  0.3700000      0.0000000E+00
  0.3800000      0.0000000E+00
  0.3900000      0.0000000E+00
  0.4000000      0.0000000E+00
  0.4100000      0.0000000E+00
  0.4200000      0.0000000E+00
  0.4300000      0.0000000E+00
  0.4400000      0.0000000E+00
  0.4500000      0.0000000E+00
  0.4600000      0.0000000E+00
  0.4700000      0.0000000E+00
  0.4800000      0.0000000E+00
  0.4900000      0.0000000E+00
  0.5000000      0.0000000E+00
  0.5100000      0.0000000E+00
  0.5200000      0.0000000E+00
  0.5300000      0.0000000E+00
  0.5400000      0.0000000E+00
  0.5500000      0.0000000E+00
  0.5600000      0.0000000E+00
  0.5700000      0.0000000E+00
  0.5800000      0.0000000E+00
  0.5900000      0.0000000E+00
  0.6000000      0.0000000E+00
  0.6100000      0.0000000E+00
  0.6200000      0.0000000E+00
  0.6300000      0.0000000E+00
  0.6400000      0.0000000E+00
  0.6500000      0.0000000E+00
  0.6600000      0.0000000E+00
  0.6700000      0.0000000E+00
  0.6800000      0.0000000E+00
  0.6900000      0.0000000E+00
  0.7000000      0.0000000E+00
  0.7100000      0.0000000E+00
  0.7200000      0.0000000E+00
  0.7300000      0.0000000E+00
  0.7400000      0.0000000E+00
  0.7500000      0.0000000E+00
  0.7600000      0.0000000E+00
  0.7700000      0.0000000E+00
  0.7800000      0.0000000E+00
  0.7900000      0.0000000E+00
  0.8000000      0.0000000E+00
  0.8100000      0.0000000E+00
  0.8200000      0.0000000E+00
  0.8300000      0.0000000E+00
  0.8400000      0.0000000E+00
  0.8500000      0.0000000E+00
  0.8600000      0.0000000E+00
  0.8700000      0.0000000E+00
  0.8800000      0.0000000E+00
  0.8900000      0.0000000E+00
  0.9000000      0.0000000E+00
  0.9100000      0.0000000E+00
  0.9200000      0.0000000E+00
  0.9300000      0.0000000E+00
  0.9400000      0.0000000E+00
  0.9500000      0.0000000E+00
  0.9600000      0.0000000E+00
  0.9700000      0.0000000E+00
  0.9800000      0.0000000E+00
  0.9900000      0.0000000E+00
   1.000000      0.0000000E+00
   1.010000      0.0000000E+00
   1.020000      0.0000000E+00
   1.030000      0.0000000E+00
   1.040000      0.0000000E+00
   1.050000      0.0000000E+00
   1.060000      0.0000000E+00
   1.070000      0.0000000E+00
   1.080000      0.0000000E+00
   1.090000      0.0000000E+00
   1.100000      0.0000000E+00
   1.110000      0.0000000E+00
   1.120000      0.0000000E+00
   1.130000      0.0000000E+00
   1.140000      0.0000000E+00
   1.150000      0.0000000E+00
   1.160000      0.0000000E+00
   1.170000      0.0000000E+00
   1.180000      0.0000000E+00
   1.190000      0.0000000E+00
   1.200000      0.0000000E+00
   1.210000      0.0000000E+00
   1.220000      0.0000000E+00
   1.230000      0.0000000E+00
   1.240000      0.0000000E+00
   1.250000      0.0000000E+00
   1.260000      0.0000000E+00
   1.270000      0.0000000E+00
   1.280000      0.0000000E+00
   1.290000      0.0000000E+00
   1.300000      0.0000000E+00
   1.310000      0.0000000E+00
   1.320000      0.0000000E+00
   1.330000      0.0000000E+00
   1.340000      0.0000000E+00
   1.350000      0.0000000E+00
   1.360000      0.0000000E+00
   1.370000      0.0000000E+00
   1.380000      0.0000000E+00
   1.390000      0.0000000E+00
   1.400000      0.0000000E+00
   1.410000      0.0000000E+00
   1.420000      0.0000000E+00
   1.430000      0.0000000E+00
   1.440000      0.0000000E+00
   1.450000      0.0000000E+00
   1.460000      0.0000000E+00
   1.470000      0.0000000E+00
   1.480000      0.0000000E+00
   1.490000      0.0000000E+00
   1.500000      0.0000000E+00
   1.510000      0.0000000E+00
   1.520000      0.0000000E+00
   1.530000      0.0000000E+00
   1.540000      0.0000000E+00
   1.550000      0.0000000E+00
   1.560000      0.0000000E+00
   1.570000      0.0000000E+00
   1.580000      0.0000000E+00
   1.590000      0.0000000E+00
   1.600000      0.0000000E+00
   1.610000      0.0000000E+00
   1.620000      0.0000000E+00
   1.630000      0.0000000E+00
   1.640000      0.0000000E+00
   1.650000      0.0000000E+00
   1.660000      0.0000000E+00
   1.670000      0.0000000E+00
   1.680000      0.0000000E+00
   1.690000      0.0000000E+00
   1.700000      0.0000000E+00
   1.710000      0.0000000E+00
   1.720000      0.0000000E+00
   1.730000      0.0000000E+00
   1.740000      0.0000000E+00
   1.750000      0.0000000E+00
   1.760000      0.0000000E+00
   1.770000      0.0000000E+00
   1.780000      0.0000000E+00
   1.790000      0.0000000E+00
   1.800000      0.0000000E+00
   1.810000      0.0000000E+00
   1.820000      0.0000000E+00
   1.830000      0.0000000E+00
   1.840000      0.0000000E+00
   1.850000      0.0000000E+00
   1.860000      0.0000000E+00
   1.870000      1.3776227E-38
   1.880000      1.5939169E-38
   1.890000      1.8066856E-38
   1.900000      2.0043167E-38
   1.910000      2.1910907E-38
   1.920000      2.3648705E-38
   1.930000      2.4725340E-38
   1.940000      2.5008839E-38
   1.950000      2.4708916E-38
   1.960000      2.3761350E-38
   1.970000      2.2121246E-38
   1.980000      1.9760344E-38
   1.990000      1.6658490E-38
   2.000000      1.2923307E-38
   2.010000      0.0000000E+00
   2.020000      0.0000000E+00
   2.030000      0.0000000E+00
   2.040000      0.0000000E+00
   2.050000     -1.6987082E-38
   2.060000     -2.5667304E-38
   2.070000     -3.5464902E-38
   2.080000     -4.5362856E-38
   2.090000     -5.5442676E-38
   2.100000     -6.5971999E-38
   2.110000     -7.6082682E-38
   2.120000     -8.5415873E-38
   2.130000     -9.4735646E-38
   2.140000     -9.4267119E-38
   2.150000     -8.3795888E-38
   2.160000     -7.1824192E-38
   2.170000     -6.1679693E-38
   2.180000     -5.4176884E-38
   2.190000     -4.5358686E-38
   2.200000     -3.4809350E-38
   2.210000     -2.2577079E-38
   2.220000      0.0000000E+00
   2.230000      2.9286695E-38
   2.240000      6.4878942E-38
   2.250000      1.0447646E-37
   2.260000      1.4219738E-37
   2.270000      1.0784995E-37
   2.280000      0.0000000E+00
   2.290000     -1.2030624E-37
   2.300000     -2.2887807E-37
   2.310000     -3.3818939E-37
   2.320000     -4.3620789E-37
   2.330000     -4.5296096E-37
   2.340000     -4.2297806E-37
   2.350000     -4.2335801E-37
   2.360000     -4.2700578E-37
   2.370000     -4.3460077E-37
   2.380000     -4.3602525E-37
   2.390000     -4.5420155E-37
   2.400000     -5.2750004E-37
   2.410000     -6.3458610E-37
   2.420000     -7.6492762E-37
   2.430000     -9.3713765E-37
   2.440000     -1.1533228E-36
   2.450000     -1.2123129E-36
   2.460000     -1.0864730E-36
   2.470000     -9.4571907E-37
   2.480000     -7.4045656E-37
   2.490000     -3.6169948E-37
   2.500000      0.0000000E+00
   2.510000      3.0068029E-37
   2.520000      6.8834283E-37
   2.530000      1.0932518E-36
   2.540000      1.4916134E-36
   2.550000      1.8662946E-36
   2.560000      2.1836628E-36
   2.570000      2.4481128E-36
   2.580000      2.6991527E-36
   2.590000      2.8795504E-36
   2.600000      3.0562520E-36
   2.610000      3.3547582E-36
   2.620000      3.7392189E-36
   2.630000      4.2551156E-36
   2.640000      4.8358997E-36
   2.650000      5.5913202E-36
   2.660000      6.7109542E-36
   2.670000      7.9374295E-36
   2.680000      9.1379956E-36
   2.690000      9.7842549E-36
   2.700000      9.7046264E-36
   2.710000      8.8674411E-36
   2.720000      7.2694647E-36
   2.730000      5.5517026E-36
   2.740000      4.2921170E-36
   2.750000      3.5901179E-36
   2.760000      3.2218823E-36
   2.770000      3.6053518E-36
   2.780000      3.7566712E-36
   2.790000      3.2487657E-36
   2.800000      2.9545086E-36
   2.810000      2.9842992E-36
   2.820000      3.2815933E-36
   2.830000      3.5965356E-36
   2.840000      2.4369347E-36
   2.850000     -1.5537130E-37
   2.860000     -2.7909329E-36
   2.870000     -5.5313255E-36
   2.880000     -8.2264537E-36
   2.890000     -1.1053597E-35
   2.900000     -1.3930839E-35
   2.910000     -1.6309663E-35
   2.920000     -1.8772457E-35
   2.930000     -2.1791253E-35
   2.940000     -2.4634045E-35
   2.950000     -2.6815156E-35
   2.960000     -2.9002198E-35
   2.970000     -3.1642055E-35
   2.980000     -3.3412517E-35
   2.990000     -3.3466430E-35
   3.000000     -3.2141405E-35
   3.010000     -3.1259953E-35
   3.020000     -3.0935062E-35
   3.030000     -3.0339986E-35
   3.040000     -3.1564181E-35
   3.050000     -3.4858929E-35
   3.060000     -3.9051019E-35
   3.070000     -4.3469824E-35
   3.080000     -4.6998132E-35
   3.090000     -4.9877919E-35
   3.100000     -5.1082490E-35
   3.110000     -4.9764743E-35
   3.120000     -4.7455884E-35
   3.130000     -4.4358754E-35
   3.140000     -3.9634053E-35
   3.150000     -3.3955297E-35
   3.160000     -2.7952828E-35
   3.170000     -2.1836964E-35
   3.180000     -1.5802196E-35
   3.190000     -1.0744600E-35
   3.200000     -8.3281199E-36
   3.210000     -7.2040577E-36
   3.220000     -5.0639908E-36
   3.230000     -2.3348996E-36
   3.240000      1.6032332E-36
   3.250000      7.9519323E-36
   3.260000      1.6302436E-35
   3.270000      2.5940738E-35
   3.280000      3.6422141E-35
   3.290000      4.7227383E-35
   3.300000      5.9265808E-35
   3.310000      7.3290121E-35
   3.320000      8.8127362E-35
   3.330000      1.0226494E-34
   3.340000      1.1527677E-34
   3.350000      1.2866431E-34
   3.360000      1.4338341E-34
   3.370000      1.5796833E-34
   3.380000      1.7139538E-34
   3.390000      1.8442348E-34
   3.400000      1.9691062E-34
   3.410000      2.1003382E-34
   3.420000      2.2192578E-34
   3.430000      2.2661017E-34
   3.440000      2.2684734E-34
   3.450000      2.2782233E-34
   3.460000      2.2800088E-34
   3.470000      2.2699558E-34
   3.480000      2.2549788E-34
   3.490000      2.2409902E-34
   3.500000      2.2410531E-34
   3.510000      2.2568052E-34
   3.520000      2.2702972E-34
   3.530000      2.2825919E-34
   3.540000      2.3049043E-34
   3.550000      2.3038231E-34
   3.560000      2.2279498E-34
   3.570000      2.0859583E-34
   3.580000      1.9555648E-34
   3.590000      1.8416935E-34
   3.600000      1.7042299E-34
   3.610000      1.5178660E-34
   3.620000      1.2991430E-34
   3.630000      1.0424649E-34
   3.640000      7.2063021E-35
   3.650000      4.1449702E-35
   3.660000      6.6379450E-36
   3.670000     -3.6558537E-35
   3.680000     -8.9463230E-35
   3.690000     -1.5409072E-34
   3.700000     -2.2039082E-34
   3.710000     -2.8232835E-34
   3.720000     -3.3970164E-34
   3.730000     -4.0092228E-34
   3.740000     -4.6657051E-34
   3.750000     -5.2566115E-34
   3.760000     -5.7272821E-34
   3.770000     -6.1817824E-34
   3.780000     -6.6698670E-34
   3.790000     -7.1773178E-34
   3.800000     -7.7882397E-34
   3.810000     -8.4696177E-34
   3.820000     -9.1835331E-34
   3.830000     -9.9639227E-34
   3.840000     -1.0793923E-33
   3.850000     -1.1678387E-33
   3.860000     -1.2599243E-33
   3.870000     -1.3516663E-33
   3.880000     -1.4385080E-33
   3.890000     -1.5165583E-33
   3.900000     -1.5868634E-33
   3.910000     -1.6454959E-33
   3.920000     -1.6840935E-33
   3.930000     -1.7026318E-33
   3.940000     -1.7090329E-33
   3.950000     -1.7099160E-33
   3.960000     -1.7113828E-33
   3.970000     -1.7118234E-33
   3.980000     -1.6987614E-33
   3.990000     -1.6743523E-33
   4.000000     -1.6455784E-33
   4.010000     -1.6069750E-33
   4.020000     -1.5581929E-33
   4.030000     -1.5024819E-33
   4.040000     -1.4413811E-33
   4.050000     -1.3650067E-33
   4.060000     -1.2610511E-33
   4.070000     -1.1237511E-33
   4.080000     -9.5830708E-34
   4.090000     -7.7024974E-34
   4.100000     -5.5480271E-34
   4.110000     -3.1179717E-34
   4.120000     -4.1400509E-35
   4.130000      2.5514371E-34
   4.140000      5.7515722E-34
   4.150000      9.1388110E-34
   4.160000      1.2663478E-33
   4.170000      1.6261495E-33
   4.180000      1.9934711E-33
   4.190000      2.3739369E-33
   4.200000      2.7727919E-33
   4.210000      3.1963646E-33
   4.220000      3.6512816E-33
   4.230000      4.1426566E-33
   4.240000      4.6646165E-33
   4.250000      5.2085137E-33
   4.260000      5.7740305E-33
   4.270000      6.3620899E-33
   4.280000      6.9622473E-33
   4.290000      7.5667225E-33
   4.300000      8.1719162E-33
   4.310000      8.7751608E-33
   4.320000      9.3755688E-33
   4.330000      9.9665809E-33
   4.340000      1.0541860E-32
   4.350000      1.1098825E-32
   4.360000      1.1639825E-32
   4.370000      1.2165625E-32
   4.380000      1.2672983E-32
   4.390000      1.3158369E-32
   4.400000      1.3620914E-32
   4.410000      1.4056641E-32
   4.420000      1.4457769E-32
   4.430000      1.4817050E-32
   4.440000      1.5125907E-32
   4.450000      1.5373894E-32
   4.460000      1.5551646E-32
   4.470000      1.5654330E-32
   4.480000      1.5670346E-32
   4.490000      1.5586886E-32
   4.500000      1.5398493E-32
   4.510000      1.5099290E-32
   4.520000      1.4682528E-32
   4.530000      1.4146382E-32
   4.540000      1.3490980E-32
   4.550000      1.2705494E-32
   4.560000      1.1783456E-32
   4.570000      1.0723614E-32
   4.580000      9.5145211E-33
   4.590000      8.1483637E-33
   4.600000      6.6184439E-33
   4.610000      4.9210558E-33
   4.620000      3.0475826E-33
   4.630000      9.8631295E-34
   4.640000     -1.2711166E-33
   4.650000     -3.7333524E-33
   4.660000     -6.4037692E-33
   4.670000     -9.2884449E-33
   4.680000     -1.2388993E-32
   4.690000     -1.5705352E-32
   4.700000     -1.9235346E-32
   4.710000     -2.2979661E-32
   4.720000     -2.6934026E-32
   4.730000     -3.1088699E-32
   4.740000     -3.5440828E-32
   4.750000     -3.9983327E-32
   4.760000     -4.4708961E-32
   4.770000     -4.9613109E-32
   4.780000     -5.4687994E-32
   4.790000     -5.9925703E-32
   4.800000     -6.5318624E-32
   4.810000     -7.0856196E-32
   4.820000     -7.6526216E-32
   4.830000     -8.2313821E-32
   4.840000     -8.8201120E-32
   4.850000     -9.4167130E-32
   4.860000     -1.0018681E-31
   4.870000     -1.0623173E-31
   4.880000     -1.1227278E-31
   4.890000     -1.1827731E-31
   4.900000     -1.2420883E-31
   4.910000     -1.3002980E-31
   4.920000     -1.3570117E-31
   4.930000     -1.4118250E-31
   4.940000     -1.4643145E-31
   4.950000     -1.5140621E-31
   4.960000     -1.5606357E-31
   4.970000     -1.6035719E-31
   4.980000     -1.6423846E-31
   4.990000     -1.6765627E-31
   5.000000     -1.7055757E-31
   5.010000     -1.7288594E-31
   5.020000     -1.7458179E-31
   5.030000     -1.7558196E-31
   5.040000     -1.7582021E-31
   5.050000     -1.7522749E-31
   5.060000     -1.7373316E-31
   5.070000     -1.7126380E-31
   5.080000     -1.6774498E-31
   5.090000     -1.6310300E-31
   5.100000     -1.5726358E-31
   5.110000     -1.5015318E-31
   5.120000     -1.4169905E-31
   5.130000     -1.3182976E-31
   5.140000     -1.2047418E-31
   5.150000     -1.0756226E-31
   5.160000     -9.3025584E-32
   5.170000     -7.6796251E-32
   5.180000     -5.8807367E-32
   5.190000     -3.8993172E-32
   5.200000     -1.7290918E-32
   5.210000      6.3635592E-33
   5.220000      3.2031727E-32
   5.230000      5.9768151E-32
   5.240000      8.9624397E-32
   5.250000      1.2164653E-31
   5.260000      1.5587418E-31
   5.270000      1.9233931E-31
   5.280000      2.3106547E-31
   5.290000      2.7206716E-31
   5.300000      3.1534898E-31
   5.310000      3.6090538E-31
   5.320000      4.0871948E-31
   5.330000      4.5876319E-31
   5.340000      5.1099736E-31
   5.350000      5.6537046E-31
   5.360000      6.2181850E-31
   5.370000      6.8026441E-31
   5.380000      7.4061702E-31
   5.390000      8.0277020E-31
   5.400000      8.6660218E-31
   5.410000      9.3197396E-31
   5.420000      9.9872831E-31
   5.430000      1.0666882E-30
   5.440000      1.1356565E-30
   5.450000      1.2054138E-30
   5.460000      1.2757190E-30
   5.470000      1.3463069E-30
   5.480000      1.4168901E-30
   5.490000      1.4871565E-30
   5.500000      1.5567695E-30
   5.510000      1.6253683E-30
   5.520000      1.6925676E-30
   5.530000      1.7579580E-30
   5.540000      1.8211054E-30
   5.550000      1.8815510E-30
   5.560000      1.9388117E-30
   5.570000      1.9923789E-30
   5.580000      2.0417193E-30
   5.590000      2.0862743E-30
   5.600000      2.1254597E-30
   5.610000      2.1586658E-30
   5.620000      2.1852579E-30
   5.630000      2.2045770E-30
   5.640000      2.2159402E-30
   5.650000      2.2186420E-30
   5.660000      2.2119556E-30
   5.670000      2.1951355E-30
   5.680000      2.1674180E-30
   5.690000      2.1280253E-30
   5.700000      2.0761653E-30
   5.710000      2.0110365E-30
   5.720000      1.9318296E-30
   5.730000      1.8377301E-30
   5.740000      1.7279208E-30
   5.750000      1.6015857E-30
   5.760000      1.4579119E-30
   5.770000      1.2960943E-30
   5.780000      1.1153376E-30
   5.790000      9.1486111E-31
   5.800000      6.9390259E-31
   5.810000      4.5172292E-31
   5.820000      1.8761138E-31
   5.830000     -9.9109396E-32
   5.840000     -4.0907782E-31
   5.850000     -7.4288690E-31
   5.860000     -1.1010777E-30
   5.870000     -1.4841332E-30
   5.880000     -1.8924712E-30
   5.890000     -2.3264369E-30
   5.900000     -2.7862968E-30
   5.910000     -3.2722313E-30
   5.920000     -3.7843271E-30
   5.930000     -4.3225688E-30
   5.940000     -4.8868336E-30
   5.950000     -5.4768840E-30
   5.960000     -6.0923574E-30
   5.970000     -6.7327599E-30
   5.980000     -7.3974578E-30
   5.990000     -8.0856693E-30
   6.000000     -8.7964571E-30
   6.010000     -9.5287197E-30
   6.020000     -1.0281179E-29
   6.030000     -1.1052376E-29
   6.040000     -1.1840661E-29
   6.050000     -1.2644187E-29
   6.060000     -1.3460901E-29
   6.070000     -1.4288530E-29
   6.080000     -1.5124585E-29
   6.090000     -1.5966344E-29
   6.100000     -1.6810851E-29
   6.110000     -1.7654905E-29
   6.120000     -1.8495066E-29
   6.130000     -1.9327635E-29
   6.140000     -2.0148661E-29
   6.150000     -2.0953933E-29
   6.160000     -2.1738976E-29
   6.170000     -2.2499055E-29
   6.180000     -2.3229163E-29
   6.190000     -2.3924028E-29
   6.200000     -2.4578118E-29
   6.210000     -2.5185637E-29
   6.220000     -2.5740523E-29
   6.230000     -2.6236456E-29
   6.240000     -2.6666865E-29
   6.250000     -2.7024932E-29
   6.260000     -2.7303611E-29
   6.270000     -2.7495617E-29
   6.280000     -2.7593457E-29
   6.290000     -2.7589437E-29
   6.300000     -2.7475669E-29
   6.310000     -2.7244103E-29
   6.320000     -2.6886536E-29
   6.330000     -2.6394644E-29
   6.340000     -2.5759987E-29
   6.350000     -2.4974054E-29
   6.360000     -2.4028277E-29
   6.370000     -2.2914066E-29
   6.380000     -2.1622844E-29
   6.390000     -2.0146074E-29
   6.400000     -1.8475305E-29
   6.410000     -1.6602192E-29
   6.420000     -1.4518548E-29
   6.430000     -1.2216387E-29
   6.440000     -9.6879610E-30
   6.450000     -6.9258261E-30
   6.460000     -3.9228876E-30
   6.470000     -6.7244258E-31
   6.480000      2.8317565E-30
   6.490000      6.5954479E-30
   6.500000      1.0623792E-29
   6.510000      1.4921311E-29
   6.520000      1.9491831E-29
   6.530000      2.4338413E-29
   6.540000      2.9463289E-29
   6.550000      3.4867791E-29
   6.560000      4.0552279E-29
   6.570000      4.6516074E-29
   6.580000      5.2757384E-29
   6.590000      5.9273220E-29
   6.600000      6.6059337E-29
   6.610000      7.3110142E-29
   6.620000      8.0418625E-29
   6.630000      8.7976281E-29
   6.640000      9.5773078E-29
   6.650000      1.0379730E-28
   6.660000      1.1203551E-28
   6.670000      1.2047248E-28
   6.680000      1.2909116E-28
   6.690000      1.3787256E-28
   6.700000      1.4679567E-28
   6.710000      1.5583742E-28
   6.720000      1.6497267E-28
   6.730000      1.7417406E-28
   6.740000      1.8341203E-28
   6.750000      1.9265470E-28
   6.760000      2.0186788E-28
   6.770000      2.1101502E-28
   6.780000      2.2005721E-28
   6.790000      2.2895313E-28
   6.800000      2.3765898E-28
   6.810000      2.4612860E-28
   6.820000      2.5431337E-28
   6.830000      2.6216223E-28
   6.840000      2.6962169E-28
   6.850000      2.7663593E-28
   6.860000      2.8314680E-28
   6.870000      2.8909381E-28
   6.880000      2.9441429E-28
   6.890000      2.9904333E-28
   6.900000      3.0291407E-28
   6.910000      3.0595761E-28
   6.920000      3.0810322E-28
   6.930000      3.0927852E-28
   6.940000      3.0940950E-28
   6.950000      3.0842076E-28
   6.960000      3.0623564E-28
   6.970000      3.0277651E-28
   6.980000      2.9796488E-28
   6.990000      2.9172169E-28
   7.000000      2.8396761E-28
   7.010000      2.7462309E-28
   7.020000      2.6360894E-28
   7.030000      2.5084636E-28
   7.040000      2.3625737E-28
   7.050000      2.1976524E-28
   7.060000      2.0129474E-28