  -2.600000      0.0000000E+00
  -2.590000      0.0000000E+00
  -2.580000      0.0000000E+00
  -2.570000      0.0000000E+00
  -2.560000      0.0000000E+00
  -2.550000      0.0000000E+00
  -2.540000      0.0000000E+00
  -2.530000      0.0000000E+00
  -2.520000      0.0000000E+00
  -2.510000      0.0000000E+00
  -2.500000      0.0000000E+00
  -2.490000      0.0000000E+00
  -2.480000      0.0000000E+00
  -2.470000      0.0000000E+00
  -2.460000      0.0000000E+00
  -2.450000      0.0000000E+00
  -2.440000      0.0000000E+00
  -2.430000      0.0000000E+00
  -2.420000      0.0000000E+00
  -2.410000      0.0000000E+00
  -2.400000      0.0000000E+00
  -2.390000      0.0000000E+00
  -2.380000      0.0000000E+00
  -2.370000      0.0000000E+00
  -2.360000      0.0000000E+00
  -2.350000      0.0000000E+00
  -2.340000      0.0000000E+00
  -2.330000      0.0000000E+00
  -2.320000      0.0000000E+00
  -2.310000      0.0000000E+00
  -2.300000      0.0000000E+00
  -2.290000      0.0000000E+00
  -2.280000      0.0000000E+00
  -2.270000      0.0000000E+00
  -2.260000      0.0000000E+00
  -2.250000      0.0000000E+00
  -2.240000      0.0000000E+00
  -2.230000      0.0000000E+00
  -2.220000      0.0000000E+00
  -2.210000      0.0000000E+00
  -2.200000      0.0000000E+00
  -2.190000      0.0000000E+00
  -2.180000      0.0000000E+00
  -2.170000      0.0000000E+00
  -2.160000      0.0000000E+00
  -2.150000      0.0000000E+00
  -2.140000      0.0000000E+00
  -2.130000      0.0000000E+00
  -2.120000      0.0000000E+00
  -2.110000      0.0000000E+00
  -2.100000      0.0000000E+00
  -2.090000      0.0000000E+00
  -2.080000      0.0000000E+00
  -2.070000      0.0000000E+00
  -2.060000      0.0000000E+00
  -2.050000      0.0000000E+00
  -2.040000      0.0000000E+00
  -2.030000      0.0000000E+00
  -2.020000      0.0000000E+00
  -2.010000      0.0000000E+00
  -2.000000      0.0000000E+00
  -1.990000      0.0000000E+00
  -1.980000      0.0000000E+00
  -1.970000      0.0000000E+00
  -1.960000      0.0000000E+00
  -1.950000      0.0000000E+00
  -1.940000      0.0000000E+00
  -1.930000      0.0000000E+00
  -1.920000      0.0000000E+00
  -1.910000      0.0000000E+00
  -1.900000      0.0000000E+00
  -1.890000      0.0000000E+00
  -1.880000      0.0000000E+00
  -1.870000      0.0000000E+00
  -1.860000      0.0000000E+00
  -1.850000      0.0000000E+00
  -1.840000      0.0000000E+00
  -1.830000      0.0000000E+00
  -1.820000      0.0000000E+00
  -1.810000      0.0000000E+00
  -1.800000      0.0000000E+00
  -1.790000      0.0000000E+00
  -1.780000      0.0000000E+00
  -1.770000      0.0000000E+00
  -1.760000      0.0000000E+00
  -1.750000      0.0000000E+00
  -1.740000      0.0000000E+00
  -1.730000      0.0000000E+00
  -1.720000      0.0000000E+00
  -1.710000      0.0000000E+00
  -1.700000      0.0000000E+00
  -1.690000      0.0000000E+00
  -1.680000      0.0000000E+00
  -1.670000      0.0000000E+00
  -1.660000      0.0000000E+00
  -1.650000      0.0000000E+00
  -1.640000      0.0000000E+00
  -1.630000      0.0000000E+00
  -1.620000      0.0000000E+00
  -1.610000      0.0000000E+00
  -1.600000      0.0000000E+00
  -1.590000      0.0000000E+00
  -1.580000      0.0000000E+00
  -1.570000      0.0000000E+00
  -1.560000      0.0000000E+00
  -1.550000      0.0000000E+00
  -1.540000      0.0000000E+00
  -1.530000      0.0000000E+00
  -1.520000      0.0000000E+00
  -1.510000      0.0000000E+00
  -1.500000      0.0000000E+00
  -1.490000      0.0000000E+00
  -1.480000      0.0000000E+00
  -1.470000      0.0000000E+00
  -1.460000      0.0000000E+00
  -1.450000      0.0000000E+00
  -1.440000      0.0000000E+00
  -1.430000      0.0000000E+00
  -1.420000      0.0000000E+00
  -1.410000      0.0000000E+00
  -1.400000      0.0000000E+00
  -1.390000      0.0000000E+00
  -1.380000      0.0000000E+00
  -1.370000      0.0000000E+00
  -1.360000      0.0000000E+00
  -1.350000      0.0000000E+00
  -1.340000      0.0000000E+00
  -1.330000      0.0000000E+00
  -1.320000      0.0000000E+00
  -1.310000      0.0000000E+00
  -1.300000      0.0000000E+00
  -1.290000      0.0000000E+00
  -1.280000      0.0000000E+00
  -1.270000      0.0000000E+00
  -1.260000      0.0000000E+00
  -1.250000      0.0000000E+00
  -1.240000      0.0000000E+00
  -1.230000      0.0000000E+00
  -1.220000      0.0000000E+00
  -1.210000      0.0000000E+00
  -1.200000      0.0000000E+00
  -1.190000      0.0000000E+00
  -1.180000      0.0000000E+00
  -1.170000      0.0000000E+00
  -1.160000      0.0000000E+00
  -1.150000      0.0000000E+00
  -1.140000      0.0000000E+00
  -1.130000      0.0000000E+00
  -1.120000      0.0000000E+00
  -1.110000      0.0000000E+00
  -1.100000      0.0000000E+00
  -1.090000      0.0000000E+00
  -1.080000      0.0000000E+00
  -1.070000      0.0000000E+00
  -1.060000      0.0000000E+00
  -1.050000      0.0000000E+00
  -1.040000      0.0000000E+00
  -1.030000      0.0000000E+00
  -1.020000      0.0000000E+00
  -1.010000      0.0000000E+00
  -1.000000      0.0000000E+00
 -0.9900000      0.0000000E+00
 -0.9800000      0.0000000E+00
 -0.9700000      0.0000000E+00
 -0.9600000      0.0000000E+00
 -0.9500000      0.0000000E+00
 -0.9400000      0.0000000E+00
 -0.9300000      0.0000000E+00
 -0.9200000      0.0000000E+00
 -0.9100000      0.0000000E+00
 -0.9000000      0.0000000E+00
 -0.8900000      0.0000000E+00
 -0.8800000      0.0000000E+00
 -0.8700000      0.0000000E+00
 -0.8600000      0.0000000E+00
 -0.8500000      0.0000000E+00
 -0.8400000      0.0000000E+00
 -0.8300000      0.0000000E+00
 -0.8200000      0.0000000E+00
 -0.8100000      0.0000000E+00
 -0.8000000      0.0000000E+00
 -0.7900000      0.0000000E+00
 -0.7800000      0.0000000E+00
 -0.7700000      0.0000000E+00
 -0.7600000      0.0000000E+00
 -0.7500000      0.0000000E+00
 -0.7400000      0.0000000E+00
 -0.7300000      0.0000000E+00
 -0.7200000      0.0000000E+00
 -0.7100000      0.0000000E+00
 -0.7000000      0.0000000E+00
 -0.6900000      0.0000000E+00
 -0.6800000      0.0000000E+00
 -0.6700000      0.0000000E+00
 -0.6600000      0.0000000E+00
 -0.6500000      0.0000000E+00
 -0.6400000      0.0000000E+00
 -0.6300000      0.0000000E+00
 -0.6200000      0.0000000E+00
 -0.6100000      0.0000000E+00
 -0.6000000      0.0000000E+00
 -0.5900000      0.0000000E+00
 -0.5800000      0.0000000E+00
 -0.5700000      0.0000000E+00
 -0.5600000      0.0000000E+00
 -0.5500000      0.0000000E+00
 -0.5400000      0.0000000E+00
 -0.5300000      0.0000000E+00
 -0.5200000      0.0000000E+00
 -0.5100000      0.0000000E+00
 -0.5000000      0.0000000E+00
 -0.4900000      0.0000000E+00
 -0.4800000      0.0000000E+00
 -0.4700000      0.0000000E+00
 -0.4600000      0.0000000E+00
 -0.4500000      0.0000000E+00
 -0.4400000      0.0000000E+00
 -0.4300000      0.0000000E+00
 -0.4200000      0.0000000E+00
 -0.4100000      0.0000000E+00
 -0.4000000      0.0000000E+00
 -0.3900000      0.0000000E+00
 -0.3800000      0.0000000E+00
 -0.3700000      0.0000000E+00
 -0.3600000      0.0000000E+00
 -0.3500000      0.0000000E+00
 -0.3400000      0.0000000E+00
 -0.3300000      0.0000000E+00
 -0.3200000      0.0000000E+00
 -0.3100000      0.0000000E+00
 -0.3000000      0.0000000E+00
 -0.2900000      0.0000000E+00
 -0.2800000      0.0000000E+00
 -0.2700000      0.0000000E+00
 -0.2600000      0.0000000E+00
 -0.2500000      0.0000000E+00
 -0.2400000      0.0000000E+00
 -0.2300000      0.0000000E+00
 -0.2200000      0.0000000E+00
 -0.2100000      0.0000000E+00
 -0.2000000      0.0000000E+00
 -0.1900000      0.0000000E+00
 -0.1800000      0.0000000E+00
 -0.1700000      0.0000000E+00
 -0.1600000      0.0000000E+00
 -0.1500000      0.0000000E+00
 -0.1400000      0.0000000E+00
 -0.1300000      0.0000000E+00
 -0.1200000      0.0000000E+00
 -0.1100000      0.0000000E+00
 -0.1000000      0.0000000E+00
 -9.0000004E-02  0.0000000E+00
 -7.9999998E-02  0.0000000E+00
 -7.0000000E-02  0.0000000E+00
 -5.9999999E-02  0.0000000E+00
 -5.0000001E-02  0.0000000E+00
 -3.9999999E-02  0.0000000E+00
 -2.9999999E-02  0.0000000E+00
 -2.0000000E-02  0.0000000E+00
 -9.9999998E-03  0.0000000E+00
 -3.4694470E-17  0.0000000E+00
  9.9999998E-03  0.0000000E+00
  2.0000000E-02  0.0000000E+00
  2.9999999E-02  0.0000000E+00
  3.9999999E-02  0.0000000E+00
  5.0000001E-02  0.0000000E+00
  5.9999999E-02  0.0000000E+00
  7.0000000E-02  0.0000000E+00
  7.9999998E-02  0.0000000E+00
  9.0000004E-02  0.0000000E+00
  0.1000000      0.0000000E+00
  0.1100000      0.0000000E+00
  0.1200000      0.0000000E+00
  0.1300000      0.0000000E+00
  0.1400000      0.0000000E+00
  0.1500000      0.0000000E+00
  0.1600000      0.0000000E+00
  0.1700000      0.0000000E+00
  0.1800000      0.0000000E+00
  0.1900000      0.0000000E+00
  0.2000000      0.0000000E+00
  0.2100000      0.0000000E+00
  0.2200000      0.0000000E+00
  0.2300000      0.0000000E+00
  0.2400000      0.0000000E+00
  0.2500000      0.0000000E+00
  0.2600000      0.0000000E+00
  0.2700000      0.0000000E+00
  0.2800000      0.0000000E+00
  0.2900000      0.0000000E+00
  0.3000000      0.0000000E+00
  0.3100000      0.0000000E+00
  0.3200000      0.0000000E+00
  0.3300000      0.0000000E+00
  0.3400000      0.0000000E+00
  0.3500000      0.0000000E+00
  0.3600000      0.0000000E+00
  0.3700000      0.0000000E+00
  0.3800000      0.0000000E+00
  0.3900000      0.0000000E+00
  0.4000000      0.0000000E+00
  0.4100000      0.0000000E+00
  0.4200000      0.0000000E+00
  0.4300000      0.0000000E+00
  0.4400000      0.0000000E+00
  0.4500000      0.0000000E+00
  0.4600000      0.0000000E+00
  0.4700000      0.0000000E+00
  0.4800000      0.0000000E+00
  0.4900000      0.0000000E+00
  0.5000000      0.0000000E+00
  0.5100000      0.0000000E+00
  0.5200000      0.0000000E+00
  0.5300000      0.0000000E+00
  0.5400000      0.0000000E+00
  0.5500000      0.0000000E+00
  0.5600000      0.0000000E+00
  0.5700000      0.0000000E+00
  0.5800000      0.0000000E+00
  0.5900000      0.0000000E+00
  0.6000000      0.0000000E+00
  0.6100000      0.0000000E+00
  0.6200000      0.0000000E+00
  0.6300000      0.0000000E+00
  0.6400000      0.0000000E+00
  0.6500000      0.0000000E+00
  0.6600000      0.0000000E+00
  0.6700000      0.0000000E+00
  0.6800000      0.0000000E+00
  0.6900000      0.0000000E+00
  0.7000000      0.0000000E+00
  0.7100000      0.0000000E+00
  0.7200000      0.0000000E+00
  0.7300000      0.0000000E+00
  0.7400000      0.0000000E+00
  0.7500000      0.0000000E+00
  0.7600000      0.0000000E+00
  0.7700000      0.0000000E+00
  0.7800000      0.0000000E+00
  0.7900000      0.0000000E+00
  0.8000000      0.0000000E+00
  0.8100000      0.0000000E+00
  0.8200000      0.0000000E+00
  0.8300000      0.0000000E+00
  0.8400000      0.0000000E+00
  0.8500000      0.0000000E+00
  0.8600000      0.0000000E+00
  0.8700000      0.0000000E+00
  0.8800000      0.0000000E+00
  0.8900000      0.0000000E+00
  0.9000000      0.0000000E+00
  0.9100000      0.0000000E+00
  0.9200000      0.0000000E+00
  0.9300000      0.0000000E+00
  0.9400000      0.0000000E+00
  0.9500000      0.0000000E+00
  0.9600000      0.0000000E+00
  0.9700000      0.0000000E+00
  0.9800000      0.0000000E+00
  0.9900000      0.0000000E+00
   1.000000      0.0000000E+00
   1.010000      0.0000000E+00
   1.020000      0.0000000E+00
   1.030000      0.0000000E+00
   1.040000      0.0000000E+00
   1.050000      0.0000000E+00
   1.060000      0.0000000E+00
   1.070000      0.0000000E+00
   1.080000      0.0000000E+00
   1.090000      0.0000000E+00
   1.100000      0.0000000E+00
   1.110000      0.0000000E+00
   1.120000      0.0000000E+00
   1.130000      0.0000000E+00
   1.140000      0.0000000E+00
   1.150000      0.0000000E+00
   1.160000      0.0000000E+00
   1.170000      0.0000000E+00
   1.180000      0.0000000E+00
   1.190000      0.0000000E+00
   1.200000      0.0000000E+00
   1.210000      0.0000000E+00
   1.220000      0.0000000E+00
   1.230000      0.0000000E+00
   1.240000      0.0000000E+00
   1.250000      0.0000000E+00
   1.260000      0.0000000E+00
   1.270000      0.0000000E+00
   1.280000      0.0000000E+00
   1.290000      0.0000000E+00
   1.300000      0.0000000E+00
   1.310000      0.0000000E+00
   1.320000      0.0000000E+00
   1.330000      0.0000000E+00
   1.340000      0.0000000E+00
   1.350000      0.0000000E+00
   1.360000      0.0000000E+00
   1.370000      0.0000000E+00
   1.380000      0.0000000E+00
   1.390000      0.0000000E+00
   1.400000      0.0000000E+00
   1.410000      0.0000000E+00
   1.420000      0.0000000E+00
   1.430000      0.0000000E+00
   1.440000      0.0000000E+00
   1.450000      0.0000000E+00
   1.460000      0.0000000E+00
   1.470000      0.0000000E+00
   1.480000      0.0000000E+00
   1.490000      0.0000000E+00
   1.500000      0.0000000E+00
   1.510000      0.0000000E+00
   1.520000      0.0000000E+00
   1.530000      0.0000000E+00
   1.540000      0.0000000E+00
   1.550000      0.0000000E+00
   1.560000      0.0000000E+00
   1.570000      0.0000000E+00
   1.580000      0.0000000E+00
   1.590000      0.0000000E+00
   1.600000      0.0000000E+00
   1.610000      0.0000000E+00
   1.620000      0.0000000E+00
   1.630000      0.0000000E+00
   1.640000      0.0000000E+00
   1.650000      0.0000000E+00
   1.660000      0.0000000E+00
   1.670000      0.0000000E+00
   1.680000      0.0000000E+00
   1.690000      0.0000000E+00
   1.700000      0.0000000E+00
   1.710000      0.0000000E+00
   1.720000      0.0000000E+00
   1.730000      0.0000000E+00
   1.740000      0.0000000E+00
   1.750000      0.0000000E+00
   1.760000      0.0000000E+00
   1.770000      0.0000000E+00
   1.780000      0.0000000E+00
   1.790000      0.0000000E+00
   1.800000      0.0000000E+00
   1.810000      0.0000000E+00
   1.820000      0.0000000E+00
   1.830000      0.0000000E+00
   1.840000      0.0000000E+00
   1.850000      0.0000000E+00
   1.860000      0.0000000E+00
   1.870000      0.0000000E+00
   1.880000      0.0000000E+00
   1.890000      0.0000000E+00
   1.900000      0.0000000E+00
   1.910000      0.0000000E+00
   1.920000      0.0000000E+00
   1.930000      0.0000000E+00
   1.940000      0.0000000E+00
   1.950000      0.0000000E+00
   1.960000      0.0000000E+00
   1.970000      0.0000000E+00
   1.980000      0.0000000E+00
   1.990000      0.0000000E+00
   2.000000     -1.3362648E-38
   2.010000     -1.8500423E-38
   2.020000     -2.4358844E-38
   2.030000     -3.0886569E-38
   2.040000     -3.8155095E-38
   2.050000     -4.6224767E-38
   2.060000     -5.4879674E-38
   2.070000     -6.3566133E-38
   2.080000     -7.1045092E-38
   2.090000     -7.7186075E-38
   2.100000     -8.3037035E-38
   2.110000     -8.8995933E-38
   2.120000     -9.5175194E-38
   2.130000     -1.0218163E-37
   2.140000     -1.0800026E-37
   2.150000     -1.0972129E-37
   2.160000     -1.0899386E-37
   2.170000     -1.0745247E-37
   2.180000     -1.0426277E-37
   2.190000     -9.8888108E-38
   2.200000     -9.0943878E-38
   2.210000     -7.9335067E-38
   2.220000     -6.4767897E-38
   2.230000     -4.8193109E-38
   2.240000     -1.7567661E-38
   2.250000      3.5733450E-38
   2.260000      1.0403531E-37
   2.270000      1.7718252E-37
   2.280000      2.5464241E-37
   2.290000      3.4018780E-37
   2.300000      4.3358017E-37
   2.310000      5.3807637E-37
   2.320000      6.5450696E-37
   2.330000      7.5930951E-37
   2.340000      8.3265531E-37
   2.350000      8.8803463E-37
   2.360000      9.4360488E-37
   2.370000      9.9921630E-37
   2.380000      1.0460242E-36
   2.390000      1.0719105E-36
   2.400000      1.0626022E-36
   2.410000      1.0266201E-36
   2.420000      9.7791656E-37
   2.430000      9.2069551E-37
   2.440000      8.6448259E-37
   2.450000      7.7816861E-37
   2.460000      6.4383875E-37
   2.470000      4.7413712E-37
   2.480000      2.8537842E-37
   2.490000      1.1186633E-37
   2.500000     -4.0867850E-38
   2.510000     -1.9065332E-37
   2.520000     -3.4275092E-37
   2.530000     -4.9378184E-37
   2.540000     -6.4036613E-37
   2.550000     -7.7934454E-37
   2.560000     -9.2627075E-37
   2.570000     -1.0821020E-36
   2.580000     -1.2347473E-36
   2.590000     -1.3857880E-36
   2.600000     -1.5513315E-36
   2.610000     -1.7334492E-36
   2.620000     -1.9253931E-36
   2.630000     -2.1337400E-36
   2.640000     -2.3830960E-36
   2.650000     -2.6696502E-36
   2.660000     -2.9757343E-36
   2.670000     -3.3063265E-36
   2.680000     -3.6315669E-36
   2.690000     -3.9562649E-36
   2.700000     -4.3152822E-36
   2.710000     -4.7093899E-36
   2.720000     -5.1001248E-36
   2.730000     -5.4837949E-36
   2.740000     -5.8536340E-36
   2.750000     -6.1737740E-36
   2.760000     -6.3339214E-36
   2.770000     -6.3440004E-36
   2.780000     -6.2211962E-36
   2.790000     -5.9088680E-36
   2.800000     -5.4433496E-36
   2.810000     -4.8196004E-36
   2.820000     -4.2063642E-36
   2.830000     -3.6347750E-36
   2.840000     -2.9507416E-36
   2.850000     -2.1534857E-36
   2.860000     -1.3263900E-36
   2.870000     -4.7492072E-37
   2.880000      4.7987733E-37
   2.890000      1.5371379E-36
   2.900000      2.6826033E-36
   2.910000      3.9301140E-36
   2.920000      5.2721427E-36
   2.930000      6.7385364E-36
   2.940000      8.2598531E-36
   2.950000      9.8988950E-36
   2.960000      1.1661524E-35
   2.970000      1.3468472E-35
   2.980000      1.5300303E-35
   2.990000      1.7017436E-35
   3.000000      1.8581151E-35
   3.010000      2.0268347E-35
   3.020000      2.2477639E-35
   3.030000      2.5231197E-35
   3.040000      2.7692070E-35
   3.050000      2.9444328E-35
   3.060000      3.1155132E-35
   3.070000      3.3065543E-35
   3.080000      3.5119650E-35
   3.090000      3.6800478E-35
   3.100000      3.7842096E-35
   3.110000      3.8625631E-35
   3.120000      3.8995338E-35
   3.130000      3.8912040E-35
   3.140000      3.8913730E-35
   3.150000      3.8843238E-35
   3.160000      3.8120920E-35
   3.170000      3.6953700E-35
   3.180000      3.5527233E-35
   3.190000      3.3579758E-35
   3.200000      3.1064108E-35
   3.210000      2.8061596E-35
   3.220000      2.4448460E-35
   3.230000      1.9945530E-35
   3.240000      1.5010331E-35
   3.250000      1.0363040E-35
   3.260000      5.9416067E-36
   3.270000      1.6013461E-36
   3.280000     -3.4311646E-36
   3.290000     -9.6139309E-36
   3.300000     -1.6304005E-35
   3.310000     -2.3481269E-35
   3.320000     -3.0937619E-35
   3.330000     -3.8456447E-35
   3.340000     -4.6587467E-35
   3.350000     -5.5568901E-35
   3.360000     -6.5243076E-35
   3.370000     -7.5355530E-35
   3.380000     -8.5962140E-35
   3.390000     -9.7537091E-35
   3.400000     -1.0981696E-34
   3.410000     -1.2249804E-34
   3.420000     -1.3554881E-34
   3.430000     -1.4850014E-34
   3.440000     -1.6103983E-34
   3.450000     -1.7291633E-34
   3.460000     -1.8360384E-34
   3.470000     -1.9170799E-34
   3.480000     -1.9771787E-34
   3.490000     -2.0378056E-34
   3.500000     -2.1081017E-34
   3.510000     -2.1809603E-34
   3.520000     -2.2345877E-34
   3.530000     -2.2693134E-34
   3.540000     -2.2853018E-34
   3.550000     -2.3002381E-34
   3.560000     -2.3213977E-34
   3.570000     -2.3258708E-34
   3.580000     -2.3231031E-34
   3.590000     -2.3183387E-34
   3.600000     -2.2980600E-34
   3.610000     -2.2583935E-34
   3.620000     -2.2014390E-34
   3.630000     -2.1207502E-34
   3.640000     -1.9995432E-34
   3.650000     -1.8359379E-34
   3.660000     -1.6281787E-34
   3.670000     -1.3821279E-34
   3.680000     -1.1199285E-34
   3.690000     -8.3268163E-35
   3.700000     -5.1131358E-35
   3.710000     -1.6495090E-35
   3.720000      2.0251158E-35
   3.730000      5.9447418E-35
   3.740000      1.0191759E-34
   3.750000      1.5024683E-34
   3.760000      2.0350519E-34
   3.770000      2.5746619E-34
   3.780000      3.1158030E-34
   3.790000      3.6739123E-34
   3.800000      4.2611441E-34
   3.810000      4.8643853E-34
   3.820000      5.4705124E-34
   3.830000      6.0979807E-34
   3.840000      6.7444255E-34
   3.850000      7.3739633E-34
   3.860000      7.9891849E-34
   3.870000      8.6008975E-34
   3.880000      9.2050309E-34
   3.890000      9.8358608E-34
   3.900000      1.0462668E-33
   3.910000      1.1082483E-33
   3.920000      1.1719843E-33
   3.930000      1.2338404E-33
   3.940000      1.2923157E-33
   3.950000      1.3480780E-33
   3.960000      1.4017234E-33
   3.970000      1.4536510E-33
   3.980000      1.5037483E-33
   3.990000      1.5478568E-33
   4.000000      1.5832148E-33
   4.010000      1.6116312E-33
   4.020000      1.6332572E-33
   4.030000      1.6445285E-33
   4.040000      1.6456502E-33
   4.050000      1.6340158E-33
   4.060000      1.6091620E-33
   4.070000      1.5746704E-33
   4.080000      1.5313336E-33
   4.090000      1.4755300E-33
   4.100000      1.3972089E-33
   4.110000      1.2987141E-33
   4.120000      1.1869286E-33
   4.130000      1.0605007E-33
   4.140000      9.1624302E-34
   4.150000      7.5238797E-34
   4.160000      5.7049147E-34
   4.170000      3.7176522E-34
   4.180000      1.5653417E-34
   4.190000     -7.3923780E-35
   4.200000     -3.2248847E-34
   4.210000     -5.8864652E-34
   4.220000     -8.7113636E-34
   4.230000     -1.1744006E-33
   4.240000     -1.4974095E-33
   4.250000     -1.8379705E-33
   4.260000     -2.1970601E-33
   4.270000     -2.5750583E-33
   4.280000     -2.9714714E-33
   4.290000     -3.3852966E-33
   4.300000     -3.8143675E-33
   4.310000     -4.2570675E-33
   4.320000     -4.7121535E-33
   4.330000     -5.1780346E-33
   4.340000     -5.6524950E-33
   4.350000     -6.1335359E-33
   4.360000     -6.6213738E-33
   4.370000     -7.1154840E-33
   4.380000     -7.6130943E-33
   4.390000     -8.1097385E-33
   4.400000     -8.6017953E-33
   4.410000     -9.0873236E-33
   4.420000     -9.5617862E-33
   4.430000     -1.0021529E-32
   4.440000     -1.0463435E-32
   4.450000     -1.0882440E-32
   4.460000     -1.1273599E-32
   4.470000     -1.1631766E-32
   4.480000     -1.1952472E-32
   4.490000     -1.2230363E-32
   4.500000     -1.2461361E-32
   4.510000     -1.2640944E-32
   4.520000     -1.2761951E-32
   4.530000     -1.2820050E-32
   4.540000     -1.2809831E-32
   4.550000     -1.2725267E-32
   4.560000     -1.2561618E-32
   4.570000     -1.2313018E-32
   4.580000     -1.1973873E-32
   4.590000     -1.1538751E-32
   4.600000     -1.1001862E-32
   4.610000     -1.0357434E-32
   4.620000     -9.6000787E-33
   4.630000     -8.7239732E-33
   4.640000     -7.7245488E-33
   4.650000     -6.5975576E-33
   4.660000     -5.3374574E-33
   4.670000     -3.9393038E-33
   4.680000     -2.3982634E-33
   4.690000     -7.1019094E-34
   4.700000      1.1285580E-33
   4.710000      3.1215550E-33
   4.720000      5.2715378E-33
   4.730000      7.5811466E-33
   4.740000      1.0052095E-32
   4.750000      1.2685034E-32
   4.760000      1.5480454E-32
   4.770000      1.8438205E-32
   4.780000      2.1558114E-32
   4.790000      2.4834184E-32
   4.800000      2.8263219E-32
   4.810000      3.1843916E-32
   4.820000      3.5569269E-32
   4.830000      3.9432440E-32
   4.840000      4.3425353E-32
   4.850000      4.7537526E-32
   4.860000      5.1757757E-32
   4.870000      5.6074372E-32
   4.880000      6.0473037E-32
   4.890000      6.4938234E-32
   4.900000      6.9452849E-32
   4.910000      7.3998139E-32
   4.920000      7.8553732E-32
   4.930000      8.3097606E-32
   4.940000      8.7606214E-32
   4.950000      9.2053909E-32
   4.960000      9.6413294E-32
   4.970000      1.0065559E-31
   4.980000      1.0475002E-31
   4.990000      1.0866412E-31
   5.000000      1.1236360E-31
   5.010000      1.1581227E-31
   5.020000      1.1897228E-31
   5.030000      1.2180348E-31
   5.040000      1.2426486E-31
   5.050000      1.2631379E-31
   5.060000      1.2790492E-31
   5.070000      1.2899172E-31
   5.080000      1.2952607E-31
   5.090000      1.2945852E-31
   5.100000      1.2873830E-31
   5.110000      1.2731314E-31
   5.120000      1.2512980E-31
   5.130000      1.2213406E-31
   5.140000      1.1827099E-31
   5.150000      1.1348513E-31
   5.160000      1.0772046E-31
   5.170000      1.0092096E-31
   5.180000      9.3030715E-32
   5.190000      8.3994079E-32
   5.200000      7.3756199E-32
   5.210000      6.2263455E-32
   5.220000      4.9463639E-32
   5.230000      3.5305785E-32
   5.240000      1.9741165E-32
   5.250000      2.7234839E-33
   5.260000     -1.5790705E-32
   5.270000     -3.5841602E-32
   5.280000     -5.7465740E-32
   5.290000     -8.0695542E-32
   5.300000     -1.0555883E-31
   5.310000     -1.3207830E-31
   5.320000     -1.6027114E-31
   5.330000     -1.9014842E-31
   5.340000     -2.2171453E-31
   5.350000     -2.5496635E-31
   5.360000     -2.8989367E-31
   5.370000     -3.2647783E-31
   5.380000     -3.6469066E-31
   5.390000     -4.0449485E-31
   5.400000     -4.4584286E-31
   5.410000     -4.8867642E-31
   5.420000     -5.3292569E-31
   5.430000     -5.7850897E-31
   5.440000     -6.2533187E-31
   5.450000     -6.7328658E-31
   5.460000     -7.2225147E-31
   5.470000     -7.7209022E-31
   5.480000     -8.2265157E-31
   5.490000     -8.7376827E-31
   5.500000     -9.2525709E-31
   5.510000     -9.7691809E-31
   5.520000     -1.0285333E-30
   5.530000     -1.0798676E-30
   5.540000     -1.1306674E-30
   5.550000     -1.1806605E-30
   5.560000     -1.2295559E-30
   5.570000     -1.2770431E-30
   5.580000     -1.3227926E-30
   5.590000     -1.3664550E-30
   5.600000     -1.4076614E-30
   5.610000     -1.4460235E-30
   5.620000     -1.4811329E-30
   5.630000     -1.5125624E-30
   5.640000     -1.5398655E-30
   5.650000     -1.5625771E-30
   5.660000     -1.5802139E-30
   5.670000     -1.5922748E-30
   5.680000     -1.5982418E-30
   5.690000     -1.5975807E-30
   5.700000     -1.5897425E-30
   5.710000     -1.5741644E-30
   5.720000     -1.5502700E-30
   5.730000     -1.5174721E-30
   5.740000     -1.4751739E-30
   5.750000     -1.4227707E-30
   5.760000     -1.3596510E-30
   5.770000     -1.2851996E-30
   5.780000     -1.1987997E-30
   5.790000     -1.0998352E-30
   5.800000     -9.8769324E-31
   5.810000     -8.6176760E-31
   5.820000     -7.2146149E-31
   5.830000     -5.6619044E-31
   5.840000     -3.9538622E-31
   5.850000     -2.0850000E-31
   5.860000     -5.0068408E-33
   5.870000      2.1559022E-31
   5.880000      4.5375582E-31
   5.890000      7.0991828E-31
   5.900000      9.8446420E-31
   5.910000      1.2777344E-30
   5.920000      1.5900186E-30
   5.930000      1.9215490E-30
   5.940000      2.2724961E-30
   5.950000      2.6429631E-30
   5.960000      3.0329791E-30
   5.970000      3.4424937E-30
   5.980000      3.8713720E-30
   5.990000      4.3193865E-30
   6.000000      4.7862116E-30
   6.010000      5.2714177E-30
   6.020000      5.7744650E-30
   6.030000      6.2946948E-30
   6.040000      6.8313262E-30
   6.050000      7.3834474E-30
   6.060000      7.9500101E-30
   6.070000      8.5298241E-30
   6.080000      9.1215480E-30
   6.090000      9.7236878E-30
   6.100000      1.0334584E-29
   6.110000      1.0952414E-29
   6.120000      1.1575180E-29
   6.130000      1.2200708E-29
   6.140000      1.2826638E-29
   6.150000      1.3450424E-29
   6.160000      1.4069329E-29
   6.170000      1.4680419E-29
   6.180000      1.5280560E-29
   6.190000      1.5866417E-29
   6.200000      1.6434454E-29
   6.210000      1.6980924E-29
   6.220000      1.7501882E-29
   6.230000      1.7993172E-29
   6.240000      1.8450431E-29
   6.250000      1.8869100E-29
   6.260000      1.9244417E-29
   6.270000      1.9571422E-29
   6.280000      1.9844967E-29
   6.290000      2.0059717E-29
   6.300000      2.0210157E-29
   6.310000      2.0290605E-29
   6.320000      2.0295221E-29
   6.330000      2.0218014E-29
   6.340000      2.0052856E-29
   6.350000      1.9793501E-29
   6.360000      1.9433595E-29
   6.370000      1.8966692E-29
   6.380000      1.8386283E-29
   6.390000      1.7685807E-29
   6.400000      1.6858679E-29
   6.410000      1.5898306E-29
   6.420000      1.4798122E-29
   6.430000      1.3551610E-29
   6.440000      1.2152334E-29
   6.450000      1.0593969E-29
   6.460000      8.8703345E-30
   6.470000      6.9754339E-30
   6.480000      4.9034823E-30
   6.490000      2.6489530E-30
   6.500000      2.0661949E-31
   6.510000     -2.4284101E-30
   6.520000     -5.2606430E-30
   6.530000     -8.2941542E-30
   6.540000     -1.1532540E-29
   6.550000     -1.4978869E-29
   6.560000     -1.8635637E-29
   6.570000     -2.2504707E-29
   6.580000     -2.6587252E-29
   6.590000     -3.0883704E-29
   6.600000     -3.5393708E-29
   6.610000     -4.0116043E-29
   6.620000     -4.5048591E-29
   6.630000     -5.0188248E-29
   6.640000     -5.5530886E-29
   6.650000     -6.1071281E-29
   6.660000     -6.6803077E-29
   6.670000     -7.2718691E-29
   6.680000     -7.8809282E-29
   6.690000     -8.5064672E-29
   6.700000     -9.1473307E-29
   6.710000     -9.8022191E-29
   6.720000     -1.0469681E-28
   6.730000     -1.1148114E-28
   6.740000     -1.1835753E-28
   6.750000     -1.2530668E-28
   6.760000     -1.3230762E-28
   6.770000     -1.3933760E-28
   6.780000     -1.4637210E-28
   6.790000     -1.5338479E-28
   6.800000     -1.6034752E-28
   6.810000     -1.6723023E-28
   6.820000     -1.7400099E-28
   6.830000     -1.8062596E-28
   6.840000     -1.8706940E-28
   6.850000     -1.9329362E-28
   6.860000     -1.9925906E-28
   6.870000     -2.0492419E-28
   6.880000     -2.1024563E-28
   6.890000     -2.1517821E-28
   6.900000     -2.1967482E-28
   6.910000     -2.2368668E-28
   6.920000     -2.2716322E-28
   6.930000     -2.3005231E-28
   6.940000     -2.3230018E-28
   6.950000     -2.3385157E-28
   6.960000     -2.3464991E-28
   6.970000     -2.3463732E-28
   6.980000     -2.3375479E-28
   6.990000     -2.3194227E-28
   7.000000     -2.2913886E-28
   7.010000     -2.2528303E-28
   7.020000     -2.2031266E-28
   7.030000     -2.1416538E-28
   7.040000     -2.0677870E-28
   7.050000     -1.9809018E-28
   7.060000     -1.8803778E-28