  -2.600000      0.0000000E+00
  -2.590000      0.0000000E+00
  -2.580000      0.0000000E+00
  -2.570000      0.0000000E+00
  -2.560000      0.0000000E+00
  -2.550000      0.0000000E+00
  -2.540000      0.0000000E+00
  -2.530000      0.0000000E+00
  -2.520000      0.0000000E+00
  -2.510000      0.0000000E+00
  -2.500000      0.0000000E+00
  -2.490000      0.0000000E+00
  -2.480000      0.0000000E+00
  -2.470000      0.0000000E+00
  -2.460000      0.0000000E+00
  -2.450000      0.0000000E+00
  -2.440000      0.0000000E+00
  -2.430000      0.0000000E+00
  -2.420000      0.0000000E+00
  -2.410000      0.0000000E+00
  -2.400000      0.0000000E+00
  -2.390000      0.0000000E+00
  -2.380000      0.0000000E+00
  -2.370000      0.0000000E+00
  -2.360000      0.0000000E+00
  -2.350000      0.0000000E+00
  -2.340000      0.0000000E+00
  -2.330000      0.0000000E+00
  -2.320000      0.0000000E+00
  -2.310000      0.0000000E+00
  -2.300000      0.0000000E+00
  -2.290000      0.0000000E+00
  -2.280000      0.0000000E+00
  -2.270000      0.0000000E+00
  -2.260000      0.0000000E+00
  -2.250000      0.0000000E+00
  -2.240000      0.0000000E+00
  -2.230000      0.0000000E+00
  -2.220000      0.0000000E+00
  -2.210000      0.0000000E+00
  -2.200000      0.0000000E+00
  -2.190000      0.0000000E+00
  -2.180000      0.0000000E+00
  -2.170000      0.0000000E+00
  -2.160000      0.0000000E+00
  -2.150000      0.0000000E+00
  -2.140000      0.0000000E+00
  -2.130000      0.0000000E+00
  -2.120000      0.0000000E+00
  -2.110000      0.0000000E+00
  -2.100000      0.0000000E+00
  -2.090000      0.0000000E+00
  -2.080000      0.0000000E+00
  -2.070000      0.0000000E+00
  -2.060000      0.0000000E+00
  -2.050000      0.0000000E+00
  -2.040000      0.0000000E+00
  -2.030000      0.0000000E+00
  -2.020000      0.0000000E+00
  -2.010000      0.0000000E+00
  -2.000000      0.0000000E+00
  -1.990000      0.0000000E+00
  -1.980000      0.0000000E+00
  -1.970000      0.0000000E+00
  -1.960000      0.0000000E+00
  -1.950000      0.0000000E+00
  -1.940000      0.0000000E+00
  -1.930000      0.0000000E+00
  -1.920000      0.0000000E+00
  -1.910000      0.0000000E+00
  -1.900000      0.0000000E+00
  -1.890000      0.0000000E+00
  -1.880000      0.0000000E+00
  -1.870000      0.0000000E+00
  -1.860000      0.0000000E+00
  -1.850000      0.0000000E+00
  -1.840000      0.0000000E+00
  -1.830000      0.0000000E+00
  -1.820000      0.0000000E+00
  -1.810000      0.0000000E+00
  -1.800000      0.0000000E+00
  -1.790000      0.0000000E+00
  -1.780000      0.0000000E+00
  -1.770000      0.0000000E+00
  -1.760000      0.0000000E+00
  -1.750000      0.0000000E+00
  -1.740000      0.0000000E+00
  -1.730000      0.0000000E+00
  -1.720000      0.0000000E+00
  -1.710000      0.0000000E+00
  -1.700000      0.0000000E+00
  -1.690000      0.0000000E+00
  -1.680000      0.0000000E+00
  -1.670000      0.0000000E+00
  -1.660000      0.0000000E+00
  -1.650000      0.0000000E+00
  -1.640000      0.0000000E+00
  -1.630000      0.0000000E+00
  -1.620000      0.0000000E+00
  -1.610000      0.0000000E+00
  -1.600000      0.0000000E+00
  -1.590000      0.0000000E+00
  -1.580000      0.0000000E+00
  -1.570000      0.0000000E+00
  -1.560000      0.0000000E+00
  -1.550000      0.0000000E+00
  -1.540000      0.0000000E+00
  -1.530000      0.0000000E+00
  -1.520000      0.0000000E+00
  -1.510000      0.0000000E+00
  -1.500000      0.0000000E+00
  -1.490000      0.0000000E+00
  -1.480000      0.0000000E+00
  -1.470000      0.0000000E+00
  -1.460000      0.0000000E+00
  -1.450000      0.0000000E+00
  -1.440000      0.0000000E+00
  -1.430000      0.0000000E+00
  -1.420000      0.0000000E+00
  -1.410000      0.0000000E+00
  -1.400000      0.0000000E+00
  -1.390000      0.0000000E+00
  -1.380000      0.0000000E+00
  -1.370000      0.0000000E+00
  -1.360000      0.0000000E+00
  -1.350000      0.0000000E+00
  -1.340000      0.0000000E+00
  -1.330000      0.0000000E+00
  -1.320000      0.0000000E+00
  -1.310000      0.0000000E+00
  -1.300000      0.0000000E+00
  -1.290000      0.0000000E+00
  -1.280000      0.0000000E+00
  -1.270000      0.0000000E+00
  -1.260000      0.0000000E+00
  -1.250000      0.0000000E+00
  -1.240000      0.0000000E+00
  -1.230000      0.0000000E+00
  -1.220000      0.0000000E+00
  -1.210000      0.0000000E+00
  -1.200000      0.0000000E+00
  -1.190000      0.0000000E+00
  -1.180000      0.0000000E+00
  -1.170000      0.0000000E+00
  -1.160000      0.0000000E+00
  -1.150000      0.0000000E+00
  -1.140000      0.0000000E+00
  -1.130000      0.0000000E+00
  -1.120000      0.0000000E+00
  -1.110000      0.0000000E+00
  -1.100000      0.0000000E+00
  -1.090000      0.0000000E+00
  -1.080000      0.0000000E+00
  -1.070000      0.0000000E+00
  -1.060000      0.0000000E+00
  -1.050000      0.0000000E+00
  -1.040000      0.0000000E+00
  -1.030000      0.0000000E+00
  -1.020000      0.0000000E+00
  -1.010000      0.0000000E+00
  -1.000000      0.0000000E+00
 -0.9900000      0.0000000E+00
 -0.9800000      0.0000000E+00
 -0.9700000      0.0000000E+00
 -0.9600000      0.0000000E+00
 -0.9500000      0.0000000E+00
 -0.9400000      0.0000000E+00
 -0.9300000      0.0000000E+00
 -0.9200000      0.0000000E+00
 -0.9100000      0.0000000E+00
 -0.9000000      0.0000000E+00
 -0.8900000      0.0000000E+00
 -0.8800000      0.0000000E+00
 -0.8700000      0.0000000E+00
 -0.8600000      0.0000000E+00
 -0.8500000      0.0000000E+00
 -0.8400000      0.0000000E+00
 -0.8300000      0.0000000E+00
 -0.8200000      0.0000000E+00
 -0.8100000      0.0000000E+00
 -0.8000000      0.0000000E+00
 -0.7900000      0.0000000E+00
 -0.7800000      0.0000000E+00
 -0.7700000      0.0000000E+00
 -0.7600000      0.0000000E+00
 -0.7500000      0.0000000E+00
 -0.7400000      0.0000000E+00
 -0.7300000      0.0000000E+00
 -0.7200000      0.0000000E+00
 -0.7100000      0.0000000E+00
 -0.7000000      0.0000000E+00
 -0.6900000      0.0000000E+00
 -0.6800000      0.0000000E+00
 -0.6700000      0.0000000E+00
 -0.6600000      0.0000000E+00
 -0.6500000      0.0000000E+00
 -0.6400000      0.0000000E+00
 -0.6300000      0.0000000E+00
 -0.6200000      0.0000000E+00
 -0.6100000      0.0000000E+00
 -0.6000000      0.0000000E+00
 -0.5900000      0.0000000E+00
 -0.5800000      0.0000000E+00
 -0.5700000      0.0000000E+00
 -0.5600000      0.0000000E+00
 -0.5500000      0.0000000E+00
 -0.5400000      0.0000000E+00
 -0.5300000      0.0000000E+00
 -0.5200000      0.0000000E+00
 -0.5100000      0.0000000E+00
 -0.5000000      0.0000000E+00
 -0.4900000      0.0000000E+00
 -0.4800000      0.0000000E+00
 -0.4700000      0.0000000E+00
 -0.4600000      0.0000000E+00
 -0.4500000      0.0000000E+00
 -0.4400000      0.0000000E+00
 -0.4300000      0.0000000E+00
 -0.4200000      0.0000000E+00
 -0.4100000      0.0000000E+00
 -0.4000000      0.0000000E+00
 -0.3900000      0.0000000E+00
 -0.3800000      0.0000000E+00
 -0.3700000      1.2744629E-38
 -0.3600000      2.7210074E-38
 -0.3500000      4.5589130E-38
 -0.3400000      6.7985049E-38
 -0.3300000      9.4117718E-38
 -0.3200000      1.2222122E-37
 -0.3100000      1.3990118E-37
 -0.3000000      1.4112553E-37
 -0.2900000      1.2876852E-37
 -0.2800000      9.2505378E-38
 -0.2700000      2.7473793E-38
 -0.2600000     -2.6864374E-38
 -0.2500000     -6.1477878E-38
 -0.2400000     -1.0263438E-37
 -0.2300000     -1.5028769E-37
 -0.2200000     -7.2192195E-38
 -0.2100000      2.1175290E-37
 -0.2000000      6.6378446E-37
 -0.1900000      9.6505708E-37
 -0.1800000      9.7039152E-37
 -0.1700000      7.8540595E-37
 -0.1600000      3.3340987E-37
 -0.1500000     -4.5058252E-37
 -0.1400000     -1.5131957E-36
 -0.1300000     -2.6777643E-36
 -0.1200000     -3.9006930E-36
 -0.1100000     -5.3027046E-36
 -0.1000000     -6.8317244E-36
 -9.0000004E-02 -8.1198578E-36
 -7.9999998E-02 -8.9695076E-36
 -7.0000000E-02 -9.3325018E-36
 -5.9999999E-02 -8.9633955E-36
 -5.0000001E-02 -7.7982614E-36
 -3.9999999E-02 -5.9247807E-36
 -2.9999999E-02 -3.1737131E-36
 -2.0000000E-02  5.0275163E-37
 -9.9999998E-03  5.1468006E-36
 -3.4694470E-17  8.2802851E-36
  9.9999998E-03  1.0013142E-35
  2.0000000E-02  1.2187182E-35
  2.9999999E-02  1.3570919E-35
  3.9999999E-02  1.3670253E-35
  5.0000001E-02  1.4248936E-35
  5.9999999E-02  2.0807158E-35
  7.0000000E-02  3.2650047E-35
  7.9999998E-02  4.4070710E-35
  9.0000004E-02  5.0066319E-35
  0.1000000      5.2408245E-35
  0.1100000      5.6387270E-35
  0.1200000      6.1867301E-35
  0.1300000      6.2959718E-35
  0.1400000      6.6100745E-35
  0.1500000      8.1546511E-35
  0.1600000      9.1929897E-35
  0.1700000      7.4770303E-35
  0.1800000      3.4907892E-35
  0.1900000     -1.5524026E-35
  0.2000000     -8.9602705E-35
  0.2100000     -1.8883394E-34
  0.2200000     -2.9710060E-34
  0.2300000     -4.0090014E-34
  0.2400000     -5.0066449E-34
  0.2500000     -5.7855228E-34
  0.2600000     -6.0839395E-34
  0.2700000     -5.8479880E-34
  0.2800000     -4.9819903E-34
  0.2900000     -3.1631456E-34
  0.3000000     -4.7891763E-36
  0.3100000      4.4295538E-34
  0.3200000      1.0446005E-33
  0.3300000      1.8305320E-33
  0.3400000      2.8318673E-33
  0.3500000      4.0857080E-33
  0.3600000      5.6371401E-33
  0.3700000      7.5398309E-33
  0.3800000      9.8564614E-33
  0.3900000      1.2659974E-32
  0.4000000      1.6033309E-32
  0.4100000      2.0069015E-32
  0.4200000      2.4869055E-32
  0.4300000      3.0544474E-32
  0.4400000      3.7215043E-32
  0.4500000      4.5009220E-32
  0.4600000      5.4064335E-32
  0.4700000      6.4526982E-32
  0.4800000      7.6553917E-32
  0.4900000      9.0313084E-32
  0.5000000      1.0598486E-31
  0.5100000      1.2376333E-31
  0.5200000      1.4385741E-31
  0.5300000      1.6649191E-31
  0.5400000      1.9190810E-31
  0.5500000      2.2036407E-31
  0.5600000      2.5213446E-31
  0.5700000      2.8751010E-31
  0.5800000      3.2679714E-31
  0.5900000      3.7031615E-31
  0.6000000      4.1840113E-31
  0.6100000      4.7139891E-31
  0.6200000      5.2966844E-31
  0.6300000      5.9358115E-31
  0.6400000      6.6352123E-31
  0.6500000      7.3988675E-31
  0.6600000      8.2309139E-31
  0.6700000      9.1356666E-31
  0.6800000      1.0117643E-30
  0.6900000      1.1181588E-30
  0.7000000      1.2332507E-30
  0.7100000      1.3575692E-30
  0.7200000      1.4916744E-30
  0.7300000      1.6361608E-30
  0.7400000      1.7916588E-30
  0.7500000      1.9588370E-30
  0.7600000      2.1384044E-30
  0.7700000      2.3311127E-30
  0.7800000      2.5377575E-30
  0.7900000      2.7591811E-30
  0.8000000      2.9962753E-30
  0.8100000      3.2499827E-30
  0.8200000      3.5213022E-30
  0.8300000      3.8112901E-30
  0.8400000      4.1210639E-30
  0.8500000      4.4518074E-30
  0.8600000      4.8047732E-30
  0.8700000      5.1812861E-30
  0.8800000      5.5827473E-30
  0.8900000      6.0106381E-30
  0.9000000      6.4665234E-30
  0.9100000      6.9520541E-30
  0.9200000      7.4689745E-30
  0.9300000      8.0191232E-30
  0.9400000      8.6044373E-30
  0.9500000      9.2269626E-30
  0.9600000      9.8888528E-30
  0.9700000      1.0592384E-29
  0.9800000      1.1339959E-29
  0.9900000      1.2134116E-29
   1.000000      1.2977540E-29
   1.010000      1.3873069E-29
   1.020000      1.4823707E-29
   1.030000      1.5832632E-29
   1.040000      1.6903206E-29
   1.050000      1.8038985E-29
   1.060000      1.9243722E-29
   1.070000      2.0521381E-29
   1.080000      2.1876128E-29
   1.090000      2.3312351E-29
   1.100000      2.4834653E-29
   1.110000      2.6447857E-29
   1.120000      2.8157012E-29
   1.130000      2.9967389E-29
   1.140000      3.1884477E-29
   1.150000      3.3914010E-29
   1.160000      3.6061943E-29
   1.170000      3.8334480E-29
   1.180000      4.0738068E-29
   1.190000      4.3279419E-29
   1.200000      4.5965517E-29
   1.210000      4.8803622E-29
   1.220000      5.1801310E-29
   1.230000      5.4966456E-29
   1.240000      5.8307300E-29
   1.250000      6.1832420E-29
   1.260000      6.5550813E-29
   1.270000      6.9471856E-29
   1.280000      7.3605389E-29
   1.290000      7.7961692E-29
   1.300000      8.2551526E-29
   1.310000      8.7386146E-29
   1.320000      9.2477324E-29
   1.330000      9.7837350E-29
   1.340000      1.0347904E-28
   1.350000      1.0941576E-28
   1.360000      1.1566140E-28
   1.370000      1.2223038E-28
   1.380000      1.2913767E-28
   1.390000      1.3639867E-28
   1.400000      1.4402929E-28
   1.410000      1.5204586E-28
   1.420000      1.6046517E-28
   1.430000      1.6930437E-28
   1.440000      1.7858096E-28
   1.450000      1.8831277E-28
   1.460000      1.9851795E-28
   1.470000      2.0921490E-28
   1.480000      2.2042232E-28
   1.490000      2.3215915E-28
   1.500000      2.4444457E-28
   1.510000      2.5729805E-28
   1.520000      2.7073931E-28
   1.530000      2.8478832E-28
   1.540000      2.9946530E-28
   1.550000      3.1479087E-28
   1.560000      3.3078579E-28
   1.570000      3.4747118E-28
   1.580000      3.6486839E-28
   1.590000      3.8299902E-28
   1.600000      4.0188481E-28
   1.610000      4.2154759E-28
   1.620000      4.4200920E-28
   1.630000      4.6329136E-28
   1.640000      4.8541557E-28
   1.650000      5.0840309E-28
   1.660000      5.3227436E-28
   1.670000      5.5704933E-28
   1.680000      5.8274682E-28
   1.690000      6.0938455E-28
   1.700000      6.3697899E-28
   1.710000      6.6554491E-28
   1.720000      6.9509556E-28
   1.730000      7.2564221E-28
   1.740000      7.5719404E-28
   1.750000      7.8975810E-28
   1.760000      8.2333919E-28
   1.770000      8.5793958E-28
   1.780000      8.9355927E-28
   1.790000      9.3019576E-28
   1.800000      9.6784412E-28
   1.810000      1.0064972E-27
   1.820000      1.0461448E-27
   1.830000      1.0867748E-27
   1.840000      1.1283728E-27
   1.850000      1.1709215E-27
   1.860000      1.2144016E-27
   1.870000      1.2587911E-27
   1.880000      1.3040656E-27
   1.890000      1.3501974E-27
   1.900000      1.3971563E-27
   1.910000      1.4449086E-27
   1.920000      1.4934165E-27
   1.930000      1.5426385E-27
   1.940000      1.5925283E-27
   1.950000      1.6430351E-27
   1.960000      1.6941021E-27
   1.970000      1.7456666E-27
   1.980000      1.7976597E-27
   1.990000      1.8500054E-27
   2.000000      1.9026204E-27
   2.010000      1.9554138E-27
   2.020000      2.0082866E-27
   2.030000      2.0611318E-27
   2.040000      2.1138341E-27
   2.050000      2.1662696E-27
   2.060000      2.2183067E-27
   2.070000      2.2698049E-27
   2.080000      2.3206160E-27
   2.090000      2.3705848E-27
   2.100000      2.4195496E-27
   2.110000      2.4673404E-27
   2.120000      2.5137806E-27
   2.130000      2.5586865E-27
   2.140000      2.6018697E-27
   2.150000      2.6431334E-27
   2.160000      2.6822738E-27
   2.170000      2.7190807E-27
   2.180000      2.7533356E-27
   2.190000      2.7848119E-27
   2.200000      2.8132729E-27
   2.210000      2.8384720E-27
   2.220000      2.8601516E-27
   2.230000      2.8780421E-27
   2.240000      2.8918599E-27
   2.250000      2.9013075E-27
   2.260000      2.9060729E-27
   2.270000      2.9058288E-27
   2.280000      2.9002323E-27
   2.290000      2.8889234E-27
   2.300000      2.8715292E-27
   2.310000      2.8476602E-27
   2.320000      2.8169133E-27
   2.330000      2.7788729E-27
   2.340000      2.7331122E-27
   2.350000      2.6791933E-27
   2.360000      2.6166709E-27
   2.370000      2.5450941E-27
   2.380000      2.4640078E-27
   2.390000      2.3729564E-27
   2.400000      2.2714834E-27
   2.410000      2.1591352E-27
   2.420000      2.0354628E-27
   2.430000      1.9000208E-27
   2.440000      1.7523692E-27
   2.450000      1.5920751E-27
   2.460000      1.4187114E-27
   2.470000      1.2318567E-27
   2.480000      1.0310949E-27
   2.490000      8.1601623E-28
   2.500000      5.8621407E-28
   2.510000      3.4128593E-28
   2.520000      8.0832014E-29
   2.530000     -1.9554481E-28
   2.540000     -4.8823807E-28
   2.550000     -7.9763775E-28
   2.560000     -1.1241276E-27
   2.570000     -1.4680824E-27
   2.580000     -1.8298653E-27
   2.590000     -2.2098232E-27
   2.600000     -2.6082811E-27
   2.610000     -3.0255350E-27
   2.620000     -3.4618456E-27
   2.630000     -3.9174305E-27
   2.640000     -4.3924565E-27
   2.650000     -4.8870295E-27
   2.660000     -5.4011908E-27
   2.670000     -5.9349053E-27
   2.680000     -6.4880566E-27
   2.690000     -7.0604391E-27
   2.700000     -7.6517528E-27
   2.710000     -8.2615985E-27
   2.720000     -8.8894740E-27
   2.730000     -9.5347730E-27
   2.740000     -1.0196784E-26
   2.750000     -1.0874690E-26
   2.760000     -1.1567571E-26
   2.770000     -1.2274398E-26
   2.780000     -1.2994043E-26
   2.790000     -1.3725275E-26
   2.800000     -1.4466761E-26
   2.810000     -1.5217071E-26
   2.820000     -1.5974671E-26
   2.830000     -1.6737918E-26
   2.840000     -1.7505067E-26
   2.850000     -1.8274253E-26
   2.860000     -1.9043487E-26
   2.870000     -1.9810655E-26
   2.880000     -2.0573491E-26
   2.890000     -2.1329586E-26
   2.900000     -2.2076356E-26
   2.910000     -2.2811038E-26
   2.920000     -2.3530673E-26
   2.930000     -2.4232104E-26
   2.940000     -2.4911955E-26
   2.950000     -2.5566620E-26
   2.960000     -2.6192277E-26
   2.970000     -2.6784875E-26
   2.980000     -2.7340135E-26
   2.990000     -2.7853548E-26
   3.000000     -2.8320405E-26
   3.010000     -2.8735793E-26
   3.020000     -2.9094626E-26
   3.030000     -2.9391675E-26
   3.040000     -2.9621564E-26
   3.050000     -2.9778824E-26
   3.060000     -2.9857901E-26
   3.070000     -2.9853196E-26
   3.080000     -2.9759094E-26
   3.090000     -2.9569973E-26
   3.100000     -2.9280252E-26
   3.110000     -2.8884404E-26
   3.120000     -2.8376966E-26
   3.130000     -2.7752558E-26
   3.140000     -2.7005904E-26
   3.150000     -2.6131834E-26
   3.160000     -2.5125292E-26
   3.170000     -2.3981342E-26
   3.180000     -2.2695171E-26
   3.190000     -2.1262105E-26
   3.200000     -1.9677613E-26
   3.210000     -1.7937326E-26
   3.220000     -1.6037045E-26
   3.230000     -1.3972762E-26
   3.240000     -1.1740712E-26
   3.250000     -9.3374053E-27
   3.260000     -6.7596767E-27
   3.270000     -4.0047560E-27
   3.280000     -1.0703346E-27
   3.290000      2.0453682E-27
   3.300000      5.3435061E-27
   3.310000      8.8245286E-27
   3.320000      1.2488100E-26
   3.330000      1.6332980E-26
   3.340000      2.0356939E-26
   3.350000      2.4556679E-26
   3.360000      2.8927748E-26
   3.370000      3.3464472E-26
   3.380000      3.8159889E-26
   3.390000      4.3005708E-26
   3.400000      4.7992264E-26
   3.410000      5.3108501E-26
   3.420000      5.8341959E-26
   3.430000      6.3678787E-26
   3.440000      6.9103747E-26
   3.450000      7.4600265E-26
   3.460000      8.0150419E-26
   3.470000      8.5735018E-26
   3.480000      9.1333601E-26
   3.490000      9.6924492E-26
   3.500000      1.0248483E-25
   3.510000      1.0799056E-25
   3.520000      1.1341652E-25
   3.530000      1.1873635E-25
   3.540000      1.2392255E-25
   3.550000      1.2894651E-25
   3.560000      1.3377841E-25
   3.570000      1.3838722E-25
   3.580000      1.4274073E-25
   3.590000      1.4680551E-25
   3.600000      1.5054689E-25
   3.610000      1.5392899E-25
   3.620000      1.5691480E-25
   3.630000      1.5946619E-25
   3.640000      1.6154398E-25
   3.650000      1.6310818E-25
   3.660000      1.6411807E-25
   3.670000      1.6453247E-25
   3.680000      1.6430995E-25
   3.690000      1.6340918E-25
   3.700000      1.6178925E-25
   3.710000      1.5941007E-25
   3.720000      1.5623277E-25
   3.730000      1.5222017E-25
   3.740000      1.4733719E-25
   3.750000      1.4155138E-25
   3.760000      1.3483331E-25
   3.770000      1.2715714E-25
   3.780000      1.1850098E-25
   3.790000      1.0884739E-25
   3.800000      9.8183724E-26
   3.810000      8.6502653E-26
   3.820000      7.3802486E-26
   3.830000      6.0087529E-26
   3.840000      4.5368380E-26
   3.850000      2.9662282E-26
   3.860000      1.2993430E-26
   3.870000     -4.6067478E-27
   3.880000     -2.3099194E-26
   3.890000     -4.2436917E-26
   3.900000     -6.2564595E-26
   3.910000     -8.3418170E-26
   3.920000     -1.0492437E-25
   3.930000     -1.2700026E-25
   3.940000     -1.4955269E-25
   3.950000     -1.7247769E-25
   3.960000     -1.9565978E-25
   3.970000     -2.1897134E-25
   3.980000     -2.4227200E-25
   3.990000     -2.6540794E-25
   4.000000     -2.8821112E-25
   4.010000     -3.1049878E-25
   4.020000     -3.3207272E-25
   4.030000     -3.5271899E-25
   4.040000     -3.7220721E-25
   4.050000     -3.9029049E-25
   4.060000     -4.0670515E-25
   4.070000     -4.2117077E-25
   4.080000     -4.3339032E-25
   4.090000     -4.4305037E-25
   4.100000     -4.4982165E-25
   4.110000     -4.5335989E-25
   4.120000     -4.5330625E-25
   4.130000     -4.4928858E-25
   4.140000     -4.4092241E-25
   4.150000     -4.2781229E-25
   4.160000     -4.0955301E-25
   4.170000     -3.8573129E-25
   4.180000     -3.5592701E-25
   4.190000     -3.1971505E-25
   4.200000     -2.7666686E-25
   4.210000     -2.2635230E-25
   4.220000     -1.6834143E-25
   4.230000     -1.0220624E-25
   4.240000     -2.7522775E-26
   4.250000      5.6126745E-26
   4.260000      1.4915177E-25
   4.270000      2.5195123E-25
   4.280000      3.6491056E-25
   4.290000      4.8839912E-25
   4.300000      6.2276693E-25
   4.310000      7.6834130E-25
   4.320000      9.2542308E-25
   4.330000      1.0942826E-24
   4.340000      1.2751548E-24
   4.350000      1.4682345E-24
   4.360000      1.6736714E-24
   4.370000      1.8915630E-24
   4.380000      2.1219506E-24
   4.390000      2.3648111E-24
   4.400000      2.6200508E-24
   4.410000      2.8874981E-24
   4.420000      3.1668967E-24
   4.430000      3.4578980E-24
   4.440000      3.7600523E-24
   4.450000      4.0728033E-24
   4.460000      4.3954793E-24
   4.470000      4.7272861E-24
   4.480000      5.0672993E-24
   4.490000      5.4144584E-24
   4.500000      5.7675585E-24
   4.510000      6.1252446E-24
   4.520000      6.4860033E-24
   4.530000      6.8481583E-24
   4.540000      7.2098629E-24
   4.550000      7.5690944E-24
   4.560000      7.9236487E-24
   4.570000      8.2711356E-24
   4.580000      8.6089732E-24
   4.590000      8.9343814E-24
   4.600000      9.2443785E-24
   4.610000      9.5357743E-24
   4.620000      9.8051648E-24
   4.630000      1.0048931E-23
   4.640000      1.0263231E-23
   4.650000      1.0444002E-23
   4.660000      1.0586950E-23
   4.670000      1.0687555E-23
   4.680000      1.0741058E-23
   4.690000      1.0742474E-23
   4.700000      1.0686584E-23
   4.710000      1.0567939E-23
   4.720000      1.0380864E-23
   4.730000      1.0119467E-23
   4.740000      9.7776367E-24
   4.750000      9.3490580E-24
   4.760000      8.8272242E-24
   4.770000      8.2054487E-24
   4.780000      7.4768812E-24
   4.790000      6.6345261E-24
   4.800000      5.6712650E-24
   4.810000      4.5798748E-24
   4.820000      3.3530564E-24
   4.830000      1.9834620E-24
   4.840000      4.6372720E-25
   4.850000     -1.2134948E-24
   4.860000     -3.0555026E-24
   4.870000     -5.0695069E-24
   4.880000     -7.2625895E-24
   4.890000     -9.6416607E-24
   4.900000     -1.2213411E-23
   4.910000     -1.4984272E-23
   4.920000     -1.7960362E-23
   4.930000     -2.1147434E-23
   4.940000     -2.4550830E-23
   4.950000     -2.8175407E-23
   4.960000     -3.2025487E-23
   4.970000     -3.6104794E-23
   4.980000     -4.0416380E-23
   4.990000     -4.4962560E-23
   5.000000     -4.9744840E-23
   5.010000     -5.4763828E-23
   5.020000     -6.0019169E-23
   5.030000     -6.5509433E-23
   5.040000     -7.1232051E-23
   5.050000     -7.7183224E-23
   5.060000     -8.3357809E-23
   5.070000     -8.9749235E-23
   5.080000     -9.6349369E-23
   5.090000     -1.0314847E-22
   5.100000     -1.1013502E-22
   5.110000     -1.1729570E-22
   5.120000     -1.2461520E-22
   5.130000     -1.3207614E-22
   5.140000     -1.3965900E-22
   5.150000     -1.4734194E-22
   5.160000     -1.5510076E-22
   5.170000     -1.6290879E-22
   5.180000     -1.7073679E-22
   5.190000     -1.7855281E-22
   5.200000     -1.8632214E-22
   5.210000     -1.9400726E-22
   5.220000     -2.0156768E-22
   5.230000     -2.0895981E-22
   5.240000     -2.1613706E-22
   5.250000     -2.2304965E-22
   5.260000     -2.2964458E-22
   5.270000     -2.3586557E-22
   5.280000     -2.4165304E-22
   5.290000     -2.4694403E-22
   5.300000     -2.5167220E-22
   5.310000     -2.5576776E-22
   5.320000     -2.5915749E-22
   5.330000     -2.6176485E-22
   5.340000     -2.6350981E-22
   5.350000     -2.6430897E-22
   5.360000     -2.6407574E-22
   5.370000     -2.6272017E-22
   5.380000     -2.6014921E-22
   5.390000     -2.5626663E-22
   5.400000     -2.5097328E-22
   5.410000     -2.4416722E-22
   5.420000     -2.3574385E-22
   5.430000     -2.2559614E-22
   5.440000     -2.1361500E-22
   5.450000     -1.9968928E-22
   5.460000     -1.8370612E-22
   5.470000     -1.6555138E-22
   5.480000     -1.4510993E-22
   5.490000     -1.2226602E-22
   5.500000     -9.6903825E-23
   5.510000     -6.8907713E-23
   5.520000     -3.8162724E-23
   5.530000     -4.5552043E-24
   5.540000      3.2026661E-23
   5.550000      7.1692386E-23
   5.560000      1.1454832E-22
   5.570000      1.6069714E-22
   5.580000      2.1023720E-22
   5.590000      2.6326164E-22
   5.600000      3.1985775E-22
   5.610000      3.8010613E-22
   5.620000      4.4407982E-22
   5.630000      5.1184340E-22
   5.640000      5.8345203E-22
   5.650000      6.5895084E-22
   5.660000      7.3837345E-22
   5.670000      8.2174118E-22
   5.680000      9.0906200E-22
   5.690000      1.0003294E-21
   5.700000      1.0955211E-21
   5.710000      1.1945979E-21
   5.720000      1.2975031E-21
   5.730000      1.4041601E-21
   5.740000      1.5144724E-21
   5.750000      1.6283213E-21
   5.760000      1.7455652E-21
   5.770000      1.8660379E-21
   5.780000      1.9895479E-21
   5.790000      2.1158763E-21
   5.800000      2.2447757E-21
   5.810000      2.3759701E-21
   5.820000      2.5091512E-21
   5.830000      2.6439786E-21
   5.840000      2.7800789E-21
   5.850000      2.9170437E-21
   5.860000      3.0544288E-21
   5.870000      3.1917523E-21
   5.880000      3.3284952E-21
   5.890000      3.4640979E-21
   5.900000      3.5979610E-21
   5.910000      3.7294448E-21
   5.920000      3.8578662E-21
   5.930000      3.9824998E-21
   5.940000      4.1025775E-21
   5.950000      4.2172875E-21
   5.960000      4.3257741E-21
   5.970000      4.4271373E-21
   5.980000      4.5204310E-21
   5.990000      4.6046661E-21
   6.000000      4.6788082E-21
   6.010000      4.7417805E-21
   6.020000      4.7924615E-21
   6.030000      4.8296871E-21
   6.040000      4.8522504E-21
   6.050000      4.8589054E-21
   6.060000      4.8483681E-21
   6.070000      4.8193166E-21
   6.080000      4.7703918E-21
   6.090000      4.7002022E-21
   6.100000      4.6073257E-21
   6.110000      4.4903124E-21
   6.120000      4.3476863E-21
   6.130000      4.1779503E-21
   6.140000      3.9795894E-21
   6.150000      3.7510742E-21
   6.160000      3.4908670E-21
   6.170000      3.1974255E-21
   6.180000      2.8692076E-21
   6.190000      2.5046774E-21
   6.200000      2.1023133E-21
   6.210000      1.6606105E-21
   6.220000      1.1780898E-21
   6.230000      6.5330587E-22
   6.240000      8.4855067E-23
   6.250000     -5.2861875E-22
   6.260000     -1.1884148E-21
   6.270000     -1.8957663E-21
   6.280000     -2.6518336E-21
   6.290000     -3.4576917E-21
   6.300000     -4.3143216E-21
   6.310000     -5.2225971E-21
   6.320000     -6.1832793E-21
   6.330000     -7.1970053E-21
   6.340000     -8.2642694E-21
   6.350000     -9.3854182E-21
   6.360000     -1.0560637E-20
   6.370000     -1.1789934E-20
   6.380000     -1.3073132E-20
   6.390000     -1.4409853E-20
   6.400000     -1.5799504E-20
   6.410000     -1.7241263E-20
   6.420000     -1.8734067E-20
   6.430000     -2.0276598E-20
   6.440000     -2.1867269E-20
   6.450000     -2.3504209E-20
   6.460000     -2.5185257E-20
   6.470000     -2.6907928E-20
   6.480000     -2.8669424E-20
   6.490000     -3.0466594E-20
   6.500000     -3.2295945E-20
   6.510000     -3.4153609E-20
   6.520000     -3.6035341E-20
   6.530000     -3.7936506E-20
   6.540000     -3.9852059E-20
   6.550000     -4.1776544E-20
   6.560000     -4.3704068E-20
   6.570000     -4.5628304E-20
   6.580000     -4.7542484E-20
   6.590000     -4.9439377E-20
   6.600000     -5.1311290E-20
   6.610000     -5.3150054E-20
   6.620000     -5.4947023E-20
   6.630000     -5.6693059E-20
   6.640000     -5.8378563E-20
   6.650000     -5.9993413E-20
   6.660000     -6.1527019E-20
   6.670000     -6.2968310E-20
   6.680000     -6.4305738E-20
   6.690000     -6.5527271E-20
   6.700000     -6.6620383E-20
   6.710000     -6.7572100E-20
   6.720000     -6.8369004E-20
   6.730000     -6.8997235E-20
   6.740000     -6.9442530E-20
   6.750000     -6.9690186E-20
   6.760000     -6.9725148E-20
   6.770000     -6.9531969E-20
   6.780000     -6.9094881E-20
   6.790000     -6.8397833E-20
   6.800000     -6.7424500E-20
   6.810000     -6.6158319E-20
   6.820000     -6.4582514E-20
   6.830000     -6.2680134E-20
   6.840000     -6.0434139E-20
   6.850000     -5.7827434E-20
   6.860000     -5.4842908E-20
   6.870000     -5.1463514E-20
   6.880000     -4.7672283E-20
   6.890000     -4.3452444E-20
   6.900000     -3.8787472E-20
   6.910000     -3.3661155E-20
   6.920000     -2.8057679E-20
   6.930000     -2.1961699E-20
   6.940000     -1.5358405E-20
   6.950000     -8.2336161E-21
   6.960000     -5.7384827E-22
   6.970000      7.6335668E-21
   6.980000      1.6400366E-20
   6.990000      2.5737269E-20
   7.000000      3.5653882E-20
   7.010000      4.6158585E-20
   7.020000      5.7258424E-20
   7.030000      6.8958997E-20
   7.040000      8.1264298E-20
   7.050000      9.4176658E-20
   7.060000      1.0769660E-19