  -2.600000      0.0000000E+00
  -2.590000      0.0000000E+00
  -2.580000      0.0000000E+00
  -2.570000      0.0000000E+00
  -2.560000      0.0000000E+00
  -2.550000      0.0000000E+00
  -2.540000      0.0000000E+00
  -2.530000      0.0000000E+00
  -2.520000      0.0000000E+00
  -2.510000      0.0000000E+00
  -2.500000      0.0000000E+00
  -2.490000      0.0000000E+00
  -2.480000      0.0000000E+00
  -2.470000      0.0000000E+00
  -2.460000      0.0000000E+00
  -2.450000      0.0000000E+00
  -2.440000      0.0000000E+00
  -2.430000      0.0000000E+00
  -2.420000      0.0000000E+00
  -2.410000      0.0000000E+00
  -2.400000      0.0000000E+00
  -2.390000      0.0000000E+00
  -2.380000      0.0000000E+00
  -2.370000      0.0000000E+00
  -2.360000      0.0000000E+00
  -2.350000      0.0000000E+00
  -2.340000      0.0000000E+00
  -2.330000      0.0000000E+00
  -2.320000      0.0000000E+00
  -2.310000      0.0000000E+00
  -2.300000      0.0000000E+00
  -2.290000      0.0000000E+00
  -2.280000      0.0000000E+00
  -2.270000      0.0000000E+00
  -2.260000      0.0000000E+00
  -2.250000      0.0000000E+00
  -2.240000      0.0000000E+00
  -2.230000      0.0000000E+00
  -2.220000      0.0000000E+00
  -2.210000      0.0000000E+00
  -2.200000      0.0000000E+00
  -2.190000      0.0000000E+00
  -2.180000      0.0000000E+00
  -2.170000      0.0000000E+00
  -2.160000      0.0000000E+00
  -2.150000      0.0000000E+00
  -2.140000      0.0000000E+00
  -2.130000      0.0000000E+00
  -2.120000      0.0000000E+00
  -2.110000      0.0000000E+00
  -2.100000      0.0000000E+00
  -2.090000      0.0000000E+00
  -2.080000      0.0000000E+00
  -2.070000      0.0000000E+00
  -2.060000      0.0000000E+00
  -2.050000      0.0000000E+00
  -2.040000      0.0000000E+00
  -2.030000      0.0000000E+00
  -2.020000      0.0000000E+00
  -2.010000      0.0000000E+00
  -2.000000      0.0000000E+00
  -1.990000      0.0000000E+00
  -1.980000      0.0000000E+00
  -1.970000      0.0000000E+00
  -1.960000      0.0000000E+00
  -1.950000      0.0000000E+00
  -1.940000      0.0000000E+00
  -1.930000      0.0000000E+00
  -1.920000      0.0000000E+00
  -1.910000      0.0000000E+00
  -1.900000      0.0000000E+00
  -1.890000      0.0000000E+00
  -1.880000      0.0000000E+00
  -1.870000      0.0000000E+00
  -1.860000      0.0000000E+00
  -1.850000      0.0000000E+00
  -1.840000      0.0000000E+00
  -1.830000      0.0000000E+00
  -1.820000      0.0000000E+00
  -1.810000      0.0000000E+00
  -1.800000      0.0000000E+00
  -1.790000      0.0000000E+00
  -1.780000      0.0000000E+00
  -1.770000      0.0000000E+00
  -1.760000      0.0000000E+00
  -1.750000      0.0000000E+00
  -1.740000      0.0000000E+00
  -1.730000      0.0000000E+00
  -1.720000      0.0000000E+00
  -1.710000      0.0000000E+00
  -1.700000      0.0000000E+00
  -1.690000      0.0000000E+00
  -1.680000      0.0000000E+00
  -1.670000      0.0000000E+00
  -1.660000      0.0000000E+00
  -1.650000      0.0000000E+00
  -1.640000      0.0000000E+00
  -1.630000      0.0000000E+00
  -1.620000      0.0000000E+00
  -1.610000      0.0000000E+00
  -1.600000      0.0000000E+00
  -1.590000      0.0000000E+00
  -1.580000      0.0000000E+00
  -1.570000      0.0000000E+00
  -1.560000      0.0000000E+00
  -1.550000      0.0000000E+00
  -1.540000      0.0000000E+00
  -1.530000      0.0000000E+00
  -1.520000      0.0000000E+00
  -1.510000      0.0000000E+00
  -1.500000      0.0000000E+00
  -1.490000      0.0000000E+00
  -1.480000      0.0000000E+00
  -1.470000      0.0000000E+00
  -1.460000      0.0000000E+00
  -1.450000      0.0000000E+00
  -1.440000      0.0000000E+00
  -1.430000      0.0000000E+00
  -1.420000      0.0000000E+00
  -1.410000      0.0000000E+00
  -1.400000      0.0000000E+00
  -1.390000      0.0000000E+00
  -1.380000      0.0000000E+00
  -1.370000      0.0000000E+00
  -1.360000      0.0000000E+00
  -1.350000      0.0000000E+00
  -1.340000      0.0000000E+00
  -1.330000      0.0000000E+00
  -1.320000      0.0000000E+00
  -1.310000      0.0000000E+00
  -1.300000      0.0000000E+00
  -1.290000      0.0000000E+00
  -1.280000      0.0000000E+00
  -1.270000      0.0000000E+00
  -1.260000      0.0000000E+00
  -1.250000      0.0000000E+00
  -1.240000      0.0000000E+00
  -1.230000      0.0000000E+00
  -1.220000      0.0000000E+00
  -1.210000      0.0000000E+00
  -1.200000      0.0000000E+00
  -1.190000      0.0000000E+00
  -1.180000      0.0000000E+00
  -1.170000      0.0000000E+00
  -1.160000      0.0000000E+00
  -1.150000      0.0000000E+00
  -1.140000      0.0000000E+00
  -1.130000      0.0000000E+00
  -1.120000      0.0000000E+00
  -1.110000      0.0000000E+00
  -1.100000      0.0000000E+00
  -1.090000      0.0000000E+00
  -1.080000      0.0000000E+00
  -1.070000      0.0000000E+00
  -1.060000      0.0000000E+00
  -1.050000      0.0000000E+00
  -1.040000      0.0000000E+00
  -1.030000      0.0000000E+00
  -1.020000      0.0000000E+00
  -1.010000      0.0000000E+00
  -1.000000      0.0000000E+00
 -0.9900000      0.0000000E+00
 -0.9800000      0.0000000E+00
 -0.9700000      0.0000000E+00
 -0.9600000      0.0000000E+00
 -0.9500000      0.0000000E+00
 -0.9400000      0.0000000E+00
 -0.9300000      0.0000000E+00
 -0.9200000      0.0000000E+00
 -0.9100000      0.0000000E+00
 -0.9000000      0.0000000E+00
 -0.8900000      0.0000000E+00
 -0.8800000      0.0000000E+00
 -0.8700000      0.0000000E+00
 -0.8600000      0.0000000E+00
 -0.8500000      0.0000000E+00
 -0.8400000      0.0000000E+00
 -0.8300000      0.0000000E+00
 -0.8200000      0.0000000E+00
 -0.8100000      0.0000000E+00
 -0.8000000      0.0000000E+00
 -0.7900000      0.0000000E+00
 -0.7800000      0.0000000E+00
 -0.7700000      0.0000000E+00
 -0.7600000      0.0000000E+00
 -0.7500000      0.0000000E+00
 -0.7400000      0.0000000E+00
 -0.7300000      0.0000000E+00
 -0.7200000      0.0000000E+00
 -0.7100000      0.0000000E+00
 -0.7000000      0.0000000E+00
 -0.6900000      0.0000000E+00
 -0.6800000      0.0000000E+00
 -0.6700000      0.0000000E+00
 -0.6600000      0.0000000E+00
 -0.6500000      0.0000000E+00
 -0.6400000      0.0000000E+00
 -0.6300000      0.0000000E+00
 -0.6200000      0.0000000E+00
 -0.6100000      0.0000000E+00
 -0.6000000      0.0000000E+00
 -0.5900000      0.0000000E+00
 -0.5800000      0.0000000E+00
 -0.5700000      0.0000000E+00
 -0.5600000      0.0000000E+00
 -0.5500000      0.0000000E+00
 -0.5400000      0.0000000E+00
 -0.5300000      0.0000000E+00
 -0.5200000      0.0000000E+00
 -0.5100000      0.0000000E+00
 -0.5000000      0.0000000E+00
 -0.4900000      0.0000000E+00
 -0.4800000      0.0000000E+00
 -0.4700000      0.0000000E+00
 -0.4600000      0.0000000E+00
 -0.4500000     -1.2367482E-38
 -0.4400000     -1.2330709E-38
 -0.4300000      0.0000000E+00
 -0.4200000      0.0000000E+00
 -0.4100000      0.0000000E+00
 -0.4000000      0.0000000E+00
 -0.3900000      2.0842999E-38
 -0.3800000      3.3106416E-38
 -0.3700000      4.6379241E-38
 -0.3600000      6.0288182E-38
 -0.3500000      7.0721454E-38
 -0.3400000      7.6010610E-38
 -0.3300000      8.0563513E-38
 -0.3200000      8.5956937E-38
 -0.3100000      9.5009695E-38
 -0.3000000      1.1133676E-37
 -0.2900000      1.3047692E-37
 -0.2800000      1.4674496E-37
 -0.2700000      1.5858399E-37
 -0.2600000      1.6883664E-37
 -0.2500000      1.6561758E-37
 -0.2400000      1.3829181E-37
 -0.2300000      8.2425659E-38
 -0.2200000      0.0000000E+00
 -0.2100000     -1.3449187E-37
 -0.2000000     -3.2535828E-37
 -0.1900000     -5.9816082E-37
 -0.1800000     -9.1993320E-37
 -0.1700000     -1.3642235E-36
 -0.1600000     -1.9385949E-36
 -0.1500000     -2.4464965E-36
 -0.1400000     -2.7456973E-36
 -0.1300000     -2.7101738E-36
 -0.1200000     -2.3519332E-36
 -0.1100000     -1.7591694E-36
 -0.1000000     -7.7580636E-37
 -9.0000004E-02  6.4276448E-37
 -7.9999998E-02  2.4512250E-36
 -7.0000000E-02  4.7507908E-36
 -5.9999999E-02  7.3988222E-36
 -5.0000001E-02  1.0283552E-35
 -3.9999999E-02  1.3304263E-35
 -2.9999999E-02  1.6226488E-35
 -2.0000000E-02  1.9451349E-35
 -9.9999998E-03  2.3064603E-35
 -3.4694470E-17  2.7046667E-35
  9.9999998E-03  3.1340404E-35
  2.0000000E-02  3.5890425E-35
  2.9999999E-02  3.9200857E-35
  3.9999999E-02  4.0522163E-35
  5.0000001E-02  4.0740993E-35
  5.9999999E-02  3.6183524E-35
  7.0000000E-02  2.5615580E-35
  7.9999998E-02  1.1484189E-35
  9.0000004E-02 -5.7910775E-36
  0.1000000     -2.6345064E-35
  0.1100000     -5.3249934E-35
  0.1200000     -8.6497495E-35
  0.1300000     -1.2317578E-34
  0.1400000     -1.6249031E-34
  0.1500000     -1.9959981E-34
  0.1600000     -2.2887139E-34
  0.1700000     -2.5242715E-34
  0.1800000     -2.7000134E-34
  0.1900000     -2.7429190E-34
  0.2000000     -2.6389738E-34
  0.2100000     -2.3667571E-34
  0.2200000     -1.9071233E-34
  0.2300000     -1.2591729E-34
  0.2400000     -4.2175584E-35
  0.2500000      5.4721483E-35
  0.2600000      1.6474934E-34
  0.2700000      2.8583231E-34
  0.2800000      4.0167615E-34
  0.2900000      4.9725464E-34
  0.3000000      5.5961980E-34
  0.3100000      5.6927717E-34
  0.3200000      5.0247062E-34
  0.3300000      3.3201452E-34
  0.3400000      2.4549430E-35
  0.3500000     -4.5886060E-34
  0.3600000     -1.1617040E-33
  0.3700000     -2.1347736E-33
  0.3800000     -3.4347218E-33
  0.3900000     -5.1258930E-33
  0.4000000     -7.2819193E-33
  0.4100000     -9.9852463E-33
  0.4200000     -1.3328318E-32
  0.4300000     -1.7414102E-32
  0.4400000     -2.2357363E-32
  0.4500000     -2.8285724E-32
  0.4600000     -3.5340183E-32
  0.4700000     -4.3676195E-32
  0.4800000     -5.3464633E-32
  0.4900000     -6.4892648E-32
  0.5000000     -7.8164538E-32
  0.5100000     -9.3502535E-32
  0.5200000     -1.1114752E-31
  0.5300000     -1.3135962E-31
  0.5400000     -1.5441885E-31
  0.5500000     -1.8062538E-31
  0.5600000     -2.1029996E-31
  0.5700000     -2.4378401E-31
  0.5800000     -2.8143980E-31
  0.5900000     -3.2365027E-31
  0.6000000     -3.7081900E-31
  0.6100000     -4.2336985E-31
  0.6200000     -4.8174693E-31
  0.6300000     -5.4641402E-31
  0.6400000     -6.1785464E-31
  0.6500000     -6.9657148E-31
  0.6600000     -7.8308688E-31
  0.6700000     -8.7794269E-31
  0.6800000     -9.8170057E-31
  0.6900000     -1.0949430E-30
  0.7000000     -1.2182741E-30
  0.7100000     -1.3523211E-30
  0.7200000     -1.4977368E-30
  0.7300000     -1.6552012E-30
  0.7400000     -1.8254242E-30
  0.7500000     -2.0091504E-30
  0.7600000     -2.2071609E-30
  0.7700000     -2.4202784E-30
  0.7800000     -2.6493720E-30
  0.7900000     -2.8953618E-30
  0.8000000     -3.1592229E-30
  0.8100000     -3.4419915E-30
  0.8200000     -3.7447707E-30
  0.8300000     -4.0687339E-30
  0.8400000     -4.4151312E-30
  0.8500000     -4.7852934E-30
  0.8600000     -5.1806380E-30
  0.8700000     -5.6026713E-30
  0.8800000     -6.0529943E-30
  0.8900000     -6.5333058E-30
  0.9000000     -7.0454061E-30
  0.9100000     -7.5912018E-30
  0.9200000     -8.1727070E-30
  0.9300000     -8.7920492E-30
  0.9400000     -9.4514734E-30
  0.9500000     -1.0153344E-29
  0.9600000     -1.0900153E-29
  0.9700000     -1.1694526E-29
  0.9800000     -1.2539222E-29
  0.9900000     -1.3437153E-29
   1.000000     -1.4391384E-29
   1.010000     -1.5405146E-29
   1.020000     -1.6481848E-29
   1.030000     -1.7625091E-29
   1.040000     -1.8838673E-29
   1.050000     -2.0126621E-29
   1.060000     -2.1493183E-29
   1.070000     -2.2942859E-29
   1.080000     -2.4480419E-29
   1.090000     -2.6110907E-29
   1.100000     -2.7839666E-29
   1.110000     -2.9672339E-29
   1.120000     -3.1614898E-29
   1.130000     -3.3673639E-29
   1.140000     -3.5855209E-29
   1.150000     -3.8166602E-29
   1.160000     -4.0615169E-29
   1.170000     -4.3208630E-29
   1.180000     -4.5955063E-29
   1.190000     -4.8862928E-29
   1.200000     -5.1941061E-29
   1.210000     -5.5198693E-29
   1.220000     -5.8645415E-29
   1.230000     -6.2291243E-29
   1.240000     -6.6146594E-29
   1.250000     -7.0222295E-29
   1.260000     -7.4529631E-29
   1.270000     -7.9080339E-29
   1.280000     -8.3886647E-29
   1.290000     -8.8961298E-29
   1.300000     -9.4317592E-29
   1.310000     -9.9969426E-29
   1.320000     -1.0593132E-28
   1.330000     -1.1221849E-28
   1.340000     -1.1884684E-28
   1.350000     -1.2583306E-28
   1.360000     -1.3319467E-28
   1.370000     -1.4094995E-28
   1.380000     -1.4911815E-28
   1.390000     -1.5771935E-28
   1.400000     -1.6677462E-28
   1.410000     -1.7630587E-28
   1.420000     -1.8633603E-28
   1.430000     -1.9688889E-28
   1.440000     -2.0798917E-28
   1.450000     -2.1966247E-28
   1.460000     -2.3193519E-28
   1.470000     -2.4483461E-28
   1.480000     -2.5838871E-28
   1.490000     -2.7262619E-28
   1.500000     -2.8757644E-28
   1.510000     -3.0326947E-28
   1.520000     -3.1973591E-28
   1.530000     -3.3700693E-28
   1.540000     -3.5511421E-28
   1.550000     -3.7408998E-28
   1.560000     -3.9396710E-28
   1.570000     -4.1477882E-28
   1.580000     -4.3655901E-28
   1.590000     -4.5934219E-28
   1.600000     -4.8316339E-28
   1.610000     -5.0805839E-28
   1.620000     -5.3406341E-28
   1.630000     -5.6121550E-28
   1.640000     -5.8955229E-28
   1.650000     -6.1911199E-28
   1.660000     -6.4993332E-28
   1.670000     -6.8205562E-28
   1.680000     -7.1551841E-28
   1.690000     -7.5036128E-28
   1.700000     -7.8662394E-28
   1.710000     -8.2434578E-28
   1.720000     -8.6356542E-28
   1.730000     -9.0432079E-28
   1.740000     -9.4664869E-28
   1.750000     -9.9058396E-28
   1.760000     -1.0361599E-27
   1.770000     -1.0834072E-27
   1.780000     -1.1323542E-27
   1.790000     -1.1830259E-27
   1.800000     -1.2354443E-27
   1.810000     -1.2896278E-27
   1.820000     -1.3455908E-27
   1.830000     -1.4033439E-27
   1.840000     -1.4628937E-27
   1.850000     -1.5242425E-27
   1.860000     -1.5873885E-27
   1.870000     -1.6523256E-27
   1.880000     -1.7190433E-27
   1.890000     -1.7875276E-27
   1.900000     -1.8577597E-27
   1.910000     -1.9297171E-27
   1.920000     -2.0033727E-27
   1.930000     -2.0786957E-27
   1.940000     -2.1556502E-27
   1.950000     -2.2341966E-27
   1.960000     -2.3142895E-27
   1.970000     -2.3958782E-27
   1.980000     -2.4789068E-27
   1.990000     -2.5633122E-27
   2.000000     -2.6490240E-27
   2.010000     -2.7359641E-27
   2.020000     -2.8240458E-27
   2.030000     -2.9131726E-27
   2.040000     -3.0032381E-27
   2.050000     -3.0941247E-27
   2.060000     -3.1857029E-27
   2.070000     -3.2778315E-27
   2.080000     -3.3703562E-27
   2.090000     -3.4631102E-27
   2.100000     -3.5559142E-27
   2.110000     -3.6485764E-27
   2.120000     -3.7408913E-27
   2.130000     -3.8326433E-27
   2.140000     -3.9236046E-27
   2.150000     -4.0135379E-27
   2.160000     -4.1021957E-27
   2.170000     -4.1893225E-27
   2.180000     -4.2746551E-27
   2.190000     -4.3579246E-27
   2.200000     -4.4388544E-27
   2.210000     -4.5171647E-27
   2.220000     -4.5925698E-27
   2.230000     -4.6647811E-27
   2.240000     -4.7335044E-27
   2.250000     -4.7984410E-27
   2.260000     -4.8592884E-27
   2.270000     -4.9157370E-27
   2.280000     -4.9674714E-27
   2.290000     -5.0141682E-27
   2.300000     -5.0554968E-27
   2.310000     -5.0911165E-27
   2.320000     -5.1206768E-27
   2.330000     -5.1438176E-27
   2.340000     -5.1601668E-27
   2.350000     -5.1693431E-27
   2.360000     -5.1709559E-27
   2.370000     -5.1646057E-27
   2.380000     -5.1498862E-27
   2.390000     -5.1263868E-27
   2.400000     -5.0936961E-27
   2.410000     -5.0514038E-27
   2.420000     -4.9991063E-27
   2.430000     -4.9364084E-27
   2.440000     -4.8629296E-27
   2.450000     -4.7783050E-27
   2.460000     -4.6821945E-27
   2.470000     -4.5742801E-27
   2.480000     -4.4542746E-27
   2.490000     -4.3219201E-27
   2.500000     -4.1769919E-27
   2.510000     -4.0192995E-27
   2.520000     -3.8486844E-27
   2.530000     -3.6650227E-27
   2.540000     -3.4682204E-27
   2.550000     -3.2582143E-27
   2.560000     -3.0349661E-27
   2.570000     -2.7984617E-27
   2.580000     -2.5487073E-27
   2.590000     -2.2857266E-27
   2.600000     -2.0095577E-27
   2.610000     -1.7202504E-27
   2.620000     -1.4178654E-27
   2.630000     -1.1024730E-27
   2.640000     -7.7415580E-28
   2.650000     -4.3300957E-28
   2.660000     -7.9146777E-29
   2.670000      2.8729795E-28
   2.680000      6.6616246E-28
   2.690000      1.0572520E-27
   2.700000      1.4603305E-27
   2.710000      1.8751110E-27
   2.720000      2.3012505E-27
   2.730000      2.7383421E-27
   2.740000      3.1859080E-27
   2.750000      3.6433957E-27
   2.760000      4.1101729E-27
   2.770000      4.5855279E-27
   2.780000      5.0686694E-27
   2.790000      5.5587299E-27
   2.800000      6.0547713E-27
   2.810000      6.5557931E-27
   2.820000      7.0607404E-27
   2.830000      7.5685180E-27
   2.840000      8.0779973E-27
   2.850000      8.5880352E-27
   2.860000      9.0974845E-27
   2.870000      9.6052074E-27
   2.880000      1.0110085E-26
   2.890000      1.0611024E-26
   2.900000      1.1106966E-26
   2.910000      1.1596889E-26
   2.920000      1.2079808E-26
   2.930000      1.2554768E-26
   2.940000      1.3020843E-26
   2.950000      1.3477114E-26
   2.960000      1.3922668E-26
   2.970000      1.4356569E-26
   2.980000      1.4777853E-26
   2.990000      1.5185497E-26
   3.000000      1.5578407E-26
   3.010000      1.5955410E-26
   3.020000      1.6315224E-26
   3.030000      1.6656462E-26
   3.040000      1.6977613E-26
   3.050000      1.7277051E-26
   3.060000      1.7553035E-26
   3.070000      1.7803720E-26
   3.080000      1.8027170E-26
   3.090000      1.8221383E-26
   3.100000      1.8384311E-26
   3.110000      1.8513881E-26
   3.120000      1.8608036E-26
   3.130000      1.8664759E-26
   3.140000      1.8682092E-26
   3.150000      1.8658170E-26
   3.160000      1.8591237E-26
   3.170000      1.8479657E-26
   3.180000      1.8321928E-26
   3.190000      1.8116667E-26
   3.200000      1.7862609E-26
   3.210000      1.7558585E-26
   3.220000      1.7203491E-26
   3.230000      1.6796257E-26
   3.240000      1.6335807E-26
   3.250000      1.5821012E-26
   3.260000      1.5250649E-26
   3.270000      1.4623352E-26
   3.280000      1.3937582E-26
   3.290000      1.3191582E-26
   3.300000      1.2383360E-26
   3.310000      1.1510676E-26
   3.320000      1.0571045E-26
   3.330000      9.5617461E-27
   3.340000      8.4798595E-27
   3.350000      7.3223117E-27
   3.360000      6.0859367E-27
   3.370000      4.7675464E-27
   3.380000      3.3640164E-27
   3.390000      1.8723860E-27
   3.400000      2.8994553E-28
   3.410000     -1.3856661E-27
   3.420000     -3.1563615E-27
   3.430000     -5.0235167E-27
   3.440000     -6.9878963E-27
   3.450000     -9.0495920E-27
   3.460000     -1.1207973E-26
   3.470000     -1.3461656E-26
   3.480000     -1.5808491E-26
   3.490000     -1.8245564E-26
   3.500000     -2.0769215E-26
   3.510000     -2.3375064E-26
   3.520000     -2.6058057E-26
   3.530000     -2.8812488E-26
   3.540000     -3.1632053E-26
   3.550000     -3.4509867E-26
   3.560000     -3.7438473E-26
   3.570000     -4.0409844E-26
   3.580000     -4.3415336E-26
   3.590000     -4.6445625E-26
   3.600000     -4.9490606E-26
   3.610000     -5.2539270E-26
   3.620000     -5.5579509E-26
   3.630000     -5.8597944E-26
   3.640000     -6.1579647E-26
   3.650000     -6.4507923E-26
   3.660000     -6.7364031E-26
   3.670000     -7.0126863E-26
   3.680000     -7.2772696E-26
   3.690000     -7.5274913E-26
   3.700000     -7.7603717E-26
   3.710000     -7.9725925E-26
   3.720000     -8.1604789E-26
   3.730000     -8.3199804E-26
   3.740000     -8.4466634E-26
   3.750000     -8.5357073E-26
   3.760000     -8.5819013E-26
   3.770000     -8.5796506E-26
   3.780000     -8.5229882E-26
   3.790000     -8.4055841E-26
   3.800000     -8.2207639E-26
   3.810000     -7.9615251E-26
   3.820000     -7.6205547E-26
   3.830000     -7.1902508E-26
   3.840000     -6.6627334E-26
   3.850000     -6.0298592E-26
   3.860000     -5.2832326E-26
   3.870000     -4.4142077E-26
   3.880000     -3.4138905E-26
   3.890000     -2.2731346E-26
   3.900000     -9.8253126E-27
   3.910000      4.6759961E-27
   3.920000      2.0872260E-26
   3.930000      3.8866178E-26
   3.940000      5.8763568E-26
   3.950000      8.0673495E-26
   3.960000      1.0470829E-25
   3.970000      1.3098349E-25
   3.980000      1.5961775E-25
   3.990000      1.9073250E-25
   4.000000      2.2445159E-25
   4.010000      2.6090068E-25
   4.020000      3.0020649E-25
   4.030000      3.4249602E-25
   4.040000      3.8789543E-25
   4.050000      4.3652875E-25
   4.060000      4.8851656E-25
   4.070000      5.4397457E-25
   4.080000      6.0301198E-25
   4.090000      6.6572978E-25
   4.100000      7.3221892E-25
   4.110000      8.0255883E-25
   4.120000      8.7681544E-25
   4.130000      9.5503948E-25
   4.140000      1.0372649E-24
   4.150000      1.1235069E-24
   4.160000      1.2137605E-24
   4.170000      1.3079991E-24
   4.180000      1.4061731E-24
   4.190000      1.5082078E-24
   4.200000      1.6140025E-24
   4.210000      1.7234286E-24
   4.220000      1.8363282E-24
   4.230000      1.9525126E-24
   4.240000      2.0717598E-24
   4.250000      2.1938129E-24
   4.260000      2.3183778E-24
   4.270000      2.4451205E-24
   4.280000      2.5736646E-24
   4.290000      2.7035880E-24
   4.300000      2.8344198E-24
   4.310000      2.9656362E-24
   4.320000      3.0966569E-24
   4.330000      3.2268418E-24
   4.340000      3.3554857E-24
   4.350000      3.4818143E-24
   4.360000      3.6049803E-24
   4.370000      3.7240597E-24
   4.380000      3.8380458E-24
   4.390000      3.9458479E-24
   4.400000      4.0462849E-24
   4.410000      4.1380854E-24
   4.420000      4.2198820E-24
   4.430000      4.2902110E-24
   4.440000      4.3475095E-24
   4.450000      4.3901143E-24
   4.460000      4.4162623E-24
   4.470000      4.4240878E-24
   4.480000      4.4116249E-24
   4.490000      4.3768078E-24
   4.500000      4.3174704E-24
   4.510000      4.2313493E-24
   4.520000      4.1160853E-24
   4.530000      3.9692250E-24
   4.540000      3.7882233E-24
   4.550000      3.5704456E-24
   4.560000      3.3131704E-24
   4.570000      3.0135936E-24
   4.580000      2.6688310E-24
   4.590000      2.2759221E-24
   4.600000      1.8318358E-24
   4.610000      1.3334729E-24
   4.620000      7.7767441E-25
   4.630000      1.6122670E-25
   4.640000     -5.1912925E-25
   4.650000     -1.2666895E-24
   4.660000     -2.0847758E-24
   4.670000     -2.9767226E-24
   4.680000     -3.9458633E-24
   4.690000     -4.9955141E-24
   4.700000     -6.1289562E-24
   4.710000     -7.3494132E-24
   4.720000     -8.6600306E-24
   4.730000     -1.0063848E-23
   4.740000     -1.1563776E-23
   4.750000     -1.3162563E-23
   4.760000     -1.4862766E-23
   4.770000     -1.6666717E-23
   4.780000     -1.8576486E-23
   4.790000     -2.0593850E-23
   4.800000     -2.2720242E-23
   4.810000     -2.4956729E-23
   4.820000     -2.7303956E-23
   4.830000     -2.9762113E-23
   4.840000     -3.2330884E-23
   4.850000     -3.5009410E-23
   4.860000     -3.7796241E-23
   4.870000     -4.0689291E-23
   4.880000     -4.3685779E-23
   4.890000     -4.6782197E-23
   4.900000     -4.9974244E-23
   4.910000     -5.3256789E-23
   4.920000     -5.6623798E-23
   4.930000     -6.0068312E-23
   4.940000     -6.3582340E-23
   4.950000     -6.7156846E-23
   4.960000     -7.0781649E-23
   4.970000     -7.4445403E-23
   4.980000     -7.8135493E-23
   4.990000     -8.1837983E-23
   5.000000     -8.5537570E-23
   5.010000     -8.9217486E-23
   5.020000     -9.2859424E-23
   5.030000     -9.6443509E-23
   5.040000     -9.9948197E-23
   5.050000     -1.0335022E-22
   5.060000     -1.0662454E-22
   5.070000     -1.0974425E-22
   5.080000     -1.1268056E-22
   5.090000     -1.1540270E-22
   5.100000     -1.1787793E-22
   5.110000     -1.2007147E-22
   5.120000     -1.2194646E-22
   5.130000     -1.2346393E-22
   5.140000     -1.2458281E-22
   5.150000     -1.2525990E-22
   5.160000     -1.2544987E-22
   5.170000     -1.2510529E-22
   5.180000     -1.2417658E-22
   5.190000     -1.2261212E-22
   5.200000     -1.2035826E-22
   5.210000     -1.1735937E-22
   5.220000     -1.1355783E-22
   5.230000     -1.0889425E-22
   5.240000     -1.0330738E-22
   5.250000     -9.6734359E-23
   5.260000     -8.9110712E-23
   5.270000     -8.0370556E-23
   5.280000     -7.0446667E-23
   5.290000     -5.9270698E-23
   5.300000     -4.6773333E-23
   5.310000     -3.2884471E-23
   5.320000     -1.7533456E-23
   5.330000     -6.4930032E-25
   5.340000      1.7839032E-23
   5.350000      3.8002374E-23
   5.360000      5.9910988E-23
   5.370000      8.3634276E-23
   5.380000      1.0924040E-22
   5.390000      1.3679581E-22
   5.400000      1.6636493E-22
   5.410000      1.9800962E-22
   5.420000      2.3178869E-22
   5.430000      2.6775739E-22
   5.440000      3.0596683E-22
   5.450000      3.4646342E-22
   5.460000      3.8928829E-22
   5.470000      4.3447657E-22
   5.480000      4.8205667E-22
   5.490000      5.3204975E-22
   5.500000      5.8446889E-22
   5.510000      6.3931827E-22
   5.520000      6.9659250E-22
   5.530000      7.5627583E-22
   5.540000      8.1834113E-22
   5.550000      8.8274914E-22
   5.560000      9.4944794E-22
   5.570000      1.0183717E-21
   5.580000      1.0894396E-21
   5.590000      1.1625552E-21
   5.600000      1.2376057E-21
   5.610000      1.3144603E-21
   5.620000      1.3929702E-21
   5.630000      1.4729669E-21
   5.640000      1.5542615E-21
   5.650000      1.6366431E-21
   5.660000      1.7198787E-21
   5.670000      1.8037122E-21
   5.680000      1.8878622E-21
   5.690000      1.9720226E-21
   5.700000      2.0558607E-21
   5.710000      2.1390162E-21
   5.720000      2.2211009E-21
   5.730000      2.3016973E-21
   5.740000      2.3803582E-21
   5.750000      2.4566055E-21
   5.760000      2.5299299E-21
   5.770000      2.5997901E-21
   5.780000      2.6656119E-21
   5.790000      2.7267880E-21
   5.800000      2.7826778E-21
   5.810000      2.8326071E-21
   5.820000      2.8758677E-21
   5.830000      2.9117174E-21
   5.840000      2.9393796E-21
   5.850000      2.9580451E-21
   5.860000      2.9668711E-21
   5.870000      2.9649821E-21
   5.880000      2.9514701E-21
   5.890000      2.9253967E-21
   5.900000      2.8857932E-21
   5.910000      2.8316620E-21
   5.920000      2.7619779E-21
   5.930000      2.6756902E-21
   5.940000      2.5717249E-21
   5.950000      2.4489855E-21
   5.960000      2.3063567E-21
   5.970000      2.1427060E-21
   5.980000      1.9568880E-21
   5.990000      1.7477460E-21
   6.000000      1.5141161E-21
   6.010000      1.2548315E-21
   6.020000      9.6872513E-22
   6.030000      6.5463555E-22
   6.040000      3.1141083E-22
   6.050000     -6.2086326E-23
   6.060000     -4.6697279E-22
   6.070000     -9.0433964E-22
   6.080000     -1.3752454E-21
   6.090000     -1.8807106E-21
   6.100000     -2.4217098E-21
   6.110000     -2.9991644E-21
   6.120000     -3.6139355E-21
   6.130000     -4.2668161E-21
   6.140000     -4.9585221E-21
   6.150000     -5.6896835E-21
   6.160000     -6.4608355E-21
   6.170000     -7.2724096E-21
   6.180000     -8.1247215E-21
   6.190000     -9.0179659E-21
   6.200000     -9.9522001E-21
   6.210000     -1.0927338E-20
   6.220000     -1.1943133E-20
   6.230000     -1.2999176E-20
   6.240000     -1.4094878E-20
   6.250000     -1.5229455E-20
   6.260000     -1.6401924E-20
   6.270000     -1.7611086E-20
   6.280000     -1.8855511E-20
   6.290000     -2.0133534E-20
   6.300000     -2.1443239E-20
   6.310000     -2.2782441E-20
   6.320000     -2.4148680E-20
   6.330000     -2.5539206E-20
   6.340000     -2.6950966E-20
   6.350000     -2.8380593E-20
   6.360000     -2.9824391E-20
   6.370000     -3.1278332E-20
   6.380000     -3.2738038E-20
   6.390000     -3.4198761E-20
   6.400000     -3.5655391E-20
   6.410000     -3.7102434E-20
   6.420000     -3.8533996E-20
   6.430000     -3.9943792E-20
   6.440000     -4.1325126E-20
   6.450000     -4.2670884E-20
   6.460000     -4.3973532E-20
   6.470000     -4.5225108E-20
   6.480000     -4.6417214E-20
   6.490000     -4.7541023E-20
   6.500000     -4.8587264E-20
   6.510000     -4.9546241E-20
   6.520000     -5.0407815E-20
   6.530000     -5.1161412E-20
   6.540000     -5.1796034E-20
   6.550000     -5.2300265E-20
   6.560000     -5.2662279E-20
   6.570000     -5.2869837E-20
   6.580000     -5.2910320E-20
   6.590000     -5.2770740E-20
   6.600000     -5.2437748E-20
   6.610000     -5.1897657E-20
   6.620000     -5.1136473E-20
   6.630000     -5.0139908E-20
   6.640000     -4.8893418E-20
   6.650000     -4.7382240E-20
   6.660000     -4.5591400E-20
   6.670000     -4.3505781E-20
   6.680000     -4.1110143E-20
   6.690000     -3.8389174E-20
   6.700000     -3.5327543E-20
   6.710000     -3.1909936E-20
   6.720000     -2.8121133E-20
   6.730000     -2.3946042E-20
   6.740000     -1.9369777E-20
   6.750000     -1.4377714E-20
   6.760000     -8.9555711E-21
   6.770000     -3.0894677E-21
   6.780000      3.2339818E-21
   6.790000      1.0027598E-20
   6.800000      1.7303554E-20
   6.810000      2.5073274E-20
   6.820000      3.3347344E-20
   6.830000      4.2135420E-20
   6.840000      5.1446136E-20
   6.850000      6.1286988E-20
   6.860000      7.1664221E-20
   6.870000      8.2582720E-20
   6.880000      9.4045912E-20
   6.890000      1.0605564E-19
   6.900000      1.1861204E-19
   6.910000      1.3171342E-19
   6.920000      1.4535613E-19
   6.930000      1.5953446E-19
   6.940000      1.7424048E-19
   6.950000      1.8946391E-19
   6.960000      2.0519200E-19
   6.970000      2.2140942E-19
   6.980000      2.3809810E-19
   6.990000      2.5523707E-19
   7.000000      2.7280241E-19
   7.010000      2.9076701E-19
   7.020000      3.0910054E-19
   7.030000      3.2776923E-19
   7.040000      3.4673586E-19
   7.050000      3.6595946E-19
   7.060000      3.8539539E-19