  -2.600000      0.0000000E+00
  -2.590000      0.0000000E+00
  -2.580000      0.0000000E+00
  -2.570000      0.0000000E+00
  -2.560000      0.0000000E+00
  -2.550000      0.0000000E+00
  -2.540000      0.0000000E+00
  -2.530000      0.0000000E+00
  -2.520000      0.0000000E+00
  -2.510000      0.0000000E+00
  -2.500000      0.0000000E+00
  -2.490000      0.0000000E+00
  -2.480000      0.0000000E+00
  -2.470000      0.0000000E+00
  -2.460000      0.0000000E+00
  -2.450000      0.0000000E+00
  -2.440000      0.0000000E+00
  -2.430000      0.0000000E+00
  -2.420000      0.0000000E+00
  -2.410000      0.0000000E+00
  -2.400000      0.0000000E+00
  -2.390000      0.0000000E+00
  -2.380000      0.0000000E+00
  -2.370000      0.0000000E+00
  -2.360000      0.0000000E+00
  -2.350000      0.0000000E+00
  -2.340000      0.0000000E+00
  -2.330000      0.0000000E+00
  -2.320000      0.0000000E+00
  -2.310000      0.0000000E+00
  -2.300000      0.0000000E+00
  -2.290000      0.0000000E+00
  -2.280000      0.0000000E+00
  -2.270000      0.0000000E+00
  -2.260000      0.0000000E+00
  -2.250000      0.0000000E+00
  -2.240000      0.0000000E+00
  -2.230000      0.0000000E+00
  -2.220000      0.0000000E+00
  -2.210000      0.0000000E+00
  -2.200000      0.0000000E+00
  -2.190000      0.0000000E+00
  -2.180000      0.0000000E+00
  -2.170000      0.0000000E+00
  -2.160000      0.0000000E+00
  -2.150000      0.0000000E+00
  -2.140000      0.0000000E+00
  -2.130000      0.0000000E+00
  -2.120000      0.0000000E+00
  -2.110000      0.0000000E+00
  -2.100000      0.0000000E+00
  -2.090000      0.0000000E+00
  -2.080000      0.0000000E+00
  -2.070000      0.0000000E+00
  -2.060000      0.0000000E+00
  -2.050000      0.0000000E+00
  -2.040000      0.0000000E+00
  -2.030000      0.0000000E+00
  -2.020000      0.0000000E+00
  -2.010000      0.0000000E+00
  -2.000000      0.0000000E+00
  -1.990000      0.0000000E+00
  -1.980000      0.0000000E+00
  -1.970000      0.0000000E+00
  -1.960000      0.0000000E+00
  -1.950000      0.0000000E+00
  -1.940000      0.0000000E+00
  -1.930000      0.0000000E+00
  -1.920000      0.0000000E+00
  -1.910000      0.0000000E+00
  -1.900000      0.0000000E+00
  -1.890000      0.0000000E+00
  -1.880000      0.0000000E+00
  -1.870000      0.0000000E+00
  -1.860000      0.0000000E+00
  -1.850000      0.0000000E+00
  -1.840000      0.0000000E+00
  -1.830000      0.0000000E+00
  -1.820000      0.0000000E+00
  -1.810000      0.0000000E+00
  -1.800000      0.0000000E+00
  -1.790000      0.0000000E+00
  -1.780000      0.0000000E+00
  -1.770000      0.0000000E+00
  -1.760000      0.0000000E+00
  -1.750000      0.0000000E+00
  -1.740000      0.0000000E+00
  -1.730000      0.0000000E+00
  -1.720000      0.0000000E+00
  -1.710000      0.0000000E+00
  -1.700000      0.0000000E+00
  -1.690000      0.0000000E+00
  -1.680000      0.0000000E+00
  -1.670000      0.0000000E+00
  -1.660000      0.0000000E+00
  -1.650000      0.0000000E+00
  -1.640000      0.0000000E+00
  -1.630000      0.0000000E+00
  -1.620000      0.0000000E+00
  -1.610000      0.0000000E+00
  -1.600000      0.0000000E+00
  -1.590000      0.0000000E+00
  -1.580000      0.0000000E+00
  -1.570000      0.0000000E+00
  -1.560000      0.0000000E+00
  -1.550000      0.0000000E+00
  -1.540000      0.0000000E+00
  -1.530000      0.0000000E+00
  -1.520000      0.0000000E+00
  -1.510000      0.0000000E+00
  -1.500000      0.0000000E+00
  -1.490000      0.0000000E+00
  -1.480000      0.0000000E+00
  -1.470000      0.0000000E+00
  -1.460000      0.0000000E+00
  -1.450000      0.0000000E+00
  -1.440000      0.0000000E+00
  -1.430000      0.0000000E+00
  -1.420000      0.0000000E+00
  -1.410000      0.0000000E+00
  -1.400000      0.0000000E+00
  -1.390000      0.0000000E+00
  -1.380000      0.0000000E+00
  -1.370000      0.0000000E+00
  -1.360000      0.0000000E+00
  -1.350000      0.0000000E+00
  -1.340000      0.0000000E+00
  -1.330000      0.0000000E+00
  -1.320000      0.0000000E+00
  -1.310000      0.0000000E+00
  -1.300000      0.0000000E+00
  -1.290000      0.0000000E+00
  -1.280000      0.0000000E+00
  -1.270000      0.0000000E+00
  -1.260000      0.0000000E+00
  -1.250000      0.0000000E+00
  -1.240000      0.0000000E+00
  -1.230000      0.0000000E+00
  -1.220000      0.0000000E+00
  -1.210000      0.0000000E+00
  -1.200000      0.0000000E+00
  -1.190000      0.0000000E+00
  -1.180000      0.0000000E+00
  -1.170000      0.0000000E+00
  -1.160000      0.0000000E+00
  -1.150000      0.0000000E+00
  -1.140000      0.0000000E+00
  -1.130000      0.0000000E+00
  -1.120000      0.0000000E+00
  -1.110000      0.0000000E+00
  -1.100000      0.0000000E+00
  -1.090000      0.0000000E+00
  -1.080000      0.0000000E+00
  -1.070000      0.0000000E+00
  -1.060000      0.0000000E+00
  -1.050000      0.0000000E+00
  -1.040000      0.0000000E+00
  -1.030000      0.0000000E+00
  -1.020000      0.0000000E+00
  -1.010000      0.0000000E+00
  -1.000000      0.0000000E+00
 -0.9900000      0.0000000E+00
 -0.9800000      0.0000000E+00
 -0.9700000      0.0000000E+00
 -0.9600000      0.0000000E+00
 -0.9500000      0.0000000E+00
 -0.9400000      0.0000000E+00
 -0.9300000      0.0000000E+00
 -0.9200000      0.0000000E+00
 -0.9100000      0.0000000E+00
 -0.9000000      0.0000000E+00
 -0.8900000      0.0000000E+00
 -0.8800000      0.0000000E+00
 -0.8700000      0.0000000E+00
 -0.8600000      0.0000000E+00
 -0.8500000      0.0000000E+00
 -0.8400000      0.0000000E+00
 -0.8300000      0.0000000E+00
 -0.8200000      0.0000000E+00
 -0.8100000      0.0000000E+00
 -0.8000000      0.0000000E+00
 -0.7900000      0.0000000E+00
 -0.7800000      0.0000000E+00
 -0.7700000      0.0000000E+00
 -0.7600000      0.0000000E+00
 -0.7500000      0.0000000E+00
 -0.7400000      0.0000000E+00
 -0.7300000      0.0000000E+00
 -0.7200000      0.0000000E+00
 -0.7100000      0.0000000E+00
 -0.7000000      0.0000000E+00
 -0.6900000      0.0000000E+00
 -0.6800000      0.0000000E+00
 -0.6700000      0.0000000E+00
 -0.6600000      0.0000000E+00
 -0.6500000      0.0000000E+00
 -0.6400000      0.0000000E+00
 -0.6300000      0.0000000E+00
 -0.6200000      0.0000000E+00
 -0.6100000      0.0000000E+00
 -0.6000000      0.0000000E+00
 -0.5900000      0.0000000E+00
 -0.5800000      0.0000000E+00
 -0.5700000      0.0000000E+00
 -0.5600000      0.0000000E+00
 -0.5500000      0.0000000E+00
 -0.5400000      0.0000000E+00
 -0.5300000      0.0000000E+00
 -0.5200000      0.0000000E+00
 -0.5100000      0.0000000E+00
 -0.5000000      0.0000000E+00
 -0.4900000      0.0000000E+00
 -0.4800000      0.0000000E+00
 -0.4700000      0.0000000E+00
 -0.4600000      0.0000000E+00
 -0.4500000      0.0000000E+00
 -0.4400000      0.0000000E+00
 -0.4300000      0.0000000E+00
 -0.4200000      0.0000000E+00
 -0.4100000      0.0000000E+00
 -0.4000000      0.0000000E+00
 -0.3900000      0.0000000E+00
 -0.3800000      0.0000000E+00
 -0.3700000      0.0000000E+00
 -0.3600000      0.0000000E+00
 -0.3500000      0.0000000E+00
 -0.3400000      0.0000000E+00
 -0.3300000      0.0000000E+00
 -0.3200000      0.0000000E+00
 -0.3100000      0.0000000E+00
 -0.3000000      0.0000000E+00
 -0.2900000      0.0000000E+00
 -0.2800000      0.0000000E+00
 -0.2700000      0.0000000E+00
 -0.2600000      0.0000000E+00
 -0.2500000      0.0000000E+00
 -0.2400000      0.0000000E+00
 -0.2300000      0.0000000E+00
 -0.2200000      0.0000000E+00
 -0.2100000      0.0000000E+00
 -0.2000000      0.0000000E+00
 -0.1900000      0.0000000E+00
 -0.1800000      0.0000000E+00
 -0.1700000      0.0000000E+00
 -0.1600000      0.0000000E+00
 -0.1500000      0.0000000E+00
 -0.1400000      0.0000000E+00
 -0.1300000      0.0000000E+00
 -0.1200000      0.0000000E+00
 -0.1100000      0.0000000E+00
 -0.1000000      0.0000000E+00
 -9.0000004E-02  0.0000000E+00
 -7.9999998E-02  0.0000000E+00
 -7.0000000E-02  0.0000000E+00
 -5.9999999E-02  0.0000000E+00
 -5.0000001E-02  0.0000000E+00
 -3.9999999E-02  0.0000000E+00
 -2.9999999E-02  0.0000000E+00
 -2.0000000E-02  0.0000000E+00
 -9.9999998E-03  0.0000000E+00
 -3.4694470E-17  0.0000000E+00
  9.9999998E-03  0.0000000E+00
  2.0000000E-02  0.0000000E+00
  2.9999999E-02  0.0000000E+00
  3.9999999E-02  0.0000000E+00
  5.0000001E-02  0.0000000E+00
  5.9999999E-02  0.0000000E+00
  7.0000000E-02  0.0000000E+00
  7.9999998E-02  0.0000000E+00
  9.0000004E-02  0.0000000E+00
  0.1000000      0.0000000E+00
  0.1100000      0.0000000E+00
  0.1200000      0.0000000E+00
  0.1300000      0.0000000E+00
  0.1400000      0.0000000E+00
  0.1500000      0.0000000E+00
  0.1600000      0.0000000E+00
  0.1700000      0.0000000E+00
  0.1800000      0.0000000E+00
  0.1900000      0.0000000E+00
  0.2000000      0.0000000E+00
  0.2100000      0.0000000E+00
  0.2200000      0.0000000E+00
  0.2300000      0.0000000E+00
  0.2400000      0.0000000E+00
  0.2500000      0.0000000E+00
  0.2600000      0.0000000E+00
  0.2700000      0.0000000E+00
  0.2800000      0.0000000E+00
  0.2900000      0.0000000E+00
  0.3000000      0.0000000E+00
  0.3100000      0.0000000E+00
  0.3200000      0.0000000E+00
  0.3300000      0.0000000E+00
  0.3400000      0.0000000E+00
  0.3500000      0.0000000E+00
  0.3600000      0.0000000E+00
  0.3700000      0.0000000E+00
  0.3800000      0.0000000E+00
  0.3900000      0.0000000E+00
  0.4000000      0.0000000E+00
  0.4100000      0.0000000E+00
  0.4200000      0.0000000E+00
  0.4300000      0.0000000E+00
  0.4400000      0.0000000E+00
  0.4500000      0.0000000E+00
  0.4600000      0.0000000E+00
  0.4700000      0.0000000E+00
  0.4800000      0.0000000E+00
  0.4900000      0.0000000E+00
  0.5000000      0.0000000E+00
  0.5100000      0.0000000E+00
  0.5200000      0.0000000E+00
  0.5300000      0.0000000E+00
  0.5400000      0.0000000E+00
  0.5500000      0.0000000E+00
  0.5600000      0.0000000E+00
  0.5700000      0.0000000E+00
  0.5800000      0.0000000E+00
  0.5900000      0.0000000E+00
  0.6000000      0.0000000E+00
  0.6100000      0.0000000E+00
  0.6200000      0.0000000E+00
  0.6300000      0.0000000E+00
  0.6400000      0.0000000E+00
  0.6500000      0.0000000E+00
  0.6600000      0.0000000E+00
  0.6700000      0.0000000E+00
  0.6800000      0.0000000E+00
  0.6900000      0.0000000E+00
  0.7000000      0.0000000E+00
  0.7100000      0.0000000E+00
  0.7200000      0.0000000E+00
  0.7300000      0.0000000E+00
  0.7400000      0.0000000E+00
  0.7500000      0.0000000E+00
  0.7600000      0.0000000E+00
  0.7700000      0.0000000E+00
  0.7800000      0.0000000E+00
  0.7900000      0.0000000E+00
  0.8000000      0.0000000E+00
  0.8100000      0.0000000E+00
  0.8200000      0.0000000E+00
  0.8300000      0.0000000E+00
  0.8400000      0.0000000E+00
  0.8500000      0.0000000E+00
  0.8600000      0.0000000E+00
  0.8700000      0.0000000E+00
  0.8800000      0.0000000E+00
  0.8900000      0.0000000E+00
  0.9000000      0.0000000E+00
  0.9100000      0.0000000E+00
  0.9200000      0.0000000E+00
  0.9300000      0.0000000E+00
  0.9400000      0.0000000E+00
  0.9500000      0.0000000E+00
  0.9600000      0.0000000E+00
  0.9700000      0.0000000E+00
  0.9800000      0.0000000E+00
  0.9900000      0.0000000E+00
   1.000000      0.0000000E+00
   1.010000      0.0000000E+00
   1.020000      0.0000000E+00
   1.030000      0.0000000E+00
   1.040000      0.0000000E+00
   1.050000      0.0000000E+00
   1.060000      0.0000000E+00
   1.070000      0.0000000E+00
   1.080000      0.0000000E+00
   1.090000      0.0000000E+00
   1.100000      0.0000000E+00
   1.110000      0.0000000E+00
   1.120000      0.0000000E+00
   1.130000      0.0000000E+00
   1.140000      0.0000000E+00
   1.150000      0.0000000E+00
   1.160000      0.0000000E+00
   1.170000      0.0000000E+00
   1.180000      0.0000000E+00
   1.190000      0.0000000E+00
   1.200000      0.0000000E+00
   1.210000      0.0000000E+00
   1.220000      0.0000000E+00
   1.230000      0.0000000E+00
   1.240000      0.0000000E+00
   1.250000      0.0000000E+00
   1.260000      0.0000000E+00
   1.270000      0.0000000E+00
   1.280000      0.0000000E+00
   1.290000      0.0000000E+00
   1.300000      0.0000000E+00
   1.310000      0.0000000E+00
   1.320000      0.0000000E+00
   1.330000      0.0000000E+00
   1.340000      0.0000000E+00
   1.350000      0.0000000E+00
   1.360000      0.0000000E+00
   1.370000      0.0000000E+00
   1.380000      0.0000000E+00
   1.390000      0.0000000E+00
   1.400000      0.0000000E+00
   1.410000      0.0000000E+00
   1.420000      0.0000000E+00
   1.430000      0.0000000E+00
   1.440000      0.0000000E+00
   1.450000      0.0000000E+00
   1.460000      0.0000000E+00
   1.470000      0.0000000E+00
   1.480000      0.0000000E+00
   1.490000      0.0000000E+00
   1.500000      0.0000000E+00
   1.510000      0.0000000E+00
   1.520000      0.0000000E+00
   1.530000      0.0000000E+00
   1.540000      0.0000000E+00
   1.550000      0.0000000E+00
   1.560000      0.0000000E+00
   1.570000      0.0000000E+00
   1.580000      0.0000000E+00
   1.590000      0.0000000E+00
   1.600000      0.0000000E+00
   1.610000      0.0000000E+00
   1.620000      0.0000000E+00
   1.630000      0.0000000E+00
   1.640000      0.0000000E+00
   1.650000      0.0000000E+00
   1.660000      0.0000000E+00
   1.670000      0.0000000E+00
   1.680000      0.0000000E+00
   1.690000      0.0000000E+00
   1.700000      0.0000000E+00
   1.710000      0.0000000E+00
   1.720000      0.0000000E+00
   1.730000      0.0000000E+00
   1.740000      0.0000000E+00
   1.750000      0.0000000E+00
   1.760000      0.0000000E+00
   1.770000      0.0000000E+00
   1.780000      0.0000000E+00
   1.790000      0.0000000E+00
   1.800000      0.0000000E+00
   1.810000      0.0000000E+00
   1.820000      0.0000000E+00
   1.830000      0.0000000E+00
   1.840000      0.0000000E+00
   1.850000      0.0000000E+00
   1.860000      0.0000000E+00
   1.870000      0.0000000E+00
   1.880000      0.0000000E+00
   1.890000      0.0000000E+00
   1.900000      0.0000000E+00
   1.910000      0.0000000E+00
   1.920000      0.0000000E+00
   1.930000      0.0000000E+00
   1.940000      0.0000000E+00
   1.950000      0.0000000E+00
   1.960000      0.0000000E+00
   1.970000      0.0000000E+00
   1.980000      0.0000000E+00
   1.990000      0.0000000E+00
   2.000000      0.0000000E+00
   2.010000      0.0000000E+00
   2.020000      0.0000000E+00
   2.030000      0.0000000E+00
   2.040000      0.0000000E+00
   2.050000      0.0000000E+00
   2.060000      0.0000000E+00
   2.070000      0.0000000E+00
   2.080000      0.0000000E+00
   2.090000      0.0000000E+00
   2.100000      0.0000000E+00
   2.110000      0.0000000E+00
   2.120000      0.0000000E+00
   2.130000      0.0000000E+00
   2.140000      0.0000000E+00
   2.150000      0.0000000E+00
   2.160000      0.0000000E+00
   2.170000      0.0000000E+00
   2.180000      0.0000000E+00
   2.190000      0.0000000E+00
   2.200000      0.0000000E+00
   2.210000      0.0000000E+00
   2.220000      0.0000000E+00
   2.230000      0.0000000E+00
   2.240000      0.0000000E+00
   2.250000      0.0000000E+00
   2.260000      0.0000000E+00
   2.270000      0.0000000E+00
   2.280000      0.0000000E+00
   2.290000      0.0000000E+00
   2.300000      0.0000000E+00
   2.310000      0.0000000E+00
   2.320000      0.0000000E+00
   2.330000      0.0000000E+00
   2.340000      0.0000000E+00
   2.350000      0.0000000E+00
   2.360000      0.0000000E+00
   2.370000      0.0000000E+00
   2.380000      0.0000000E+00
   2.390000      0.0000000E+00
   2.400000      0.0000000E+00
   2.410000      0.0000000E+00
   2.420000      0.0000000E+00
   2.430000      0.0000000E+00
   2.440000      0.0000000E+00
   2.450000      0.0000000E+00
   2.460000      0.0000000E+00
   2.470000      0.0000000E+00
   2.480000      0.0000000E+00
   2.490000      0.0000000E+00
   2.500000      0.0000000E+00
   2.510000      0.0000000E+00
   2.520000      0.0000000E+00
   2.530000      0.0000000E+00
   2.540000      0.0000000E+00
   2.550000      0.0000000E+00
   2.560000      0.0000000E+00
   2.570000      0.0000000E+00
   2.580000      0.0000000E+00
   2.590000      0.0000000E+00
   2.600000      0.0000000E+00
   2.610000      0.0000000E+00
   2.620000      0.0000000E+00
   2.630000      0.0000000E+00
   2.640000      0.0000000E+00
   2.650000      0.0000000E+00
   2.660000      0.0000000E+00
   2.670000      0.0000000E+00
   2.680000      0.0000000E+00
   2.690000      0.0000000E+00
   2.700000      0.0000000E+00
   2.710000      0.0000000E+00
   2.720000      0.0000000E+00
   2.730000      0.0000000E+00
   2.740000      0.0000000E+00
   2.750000      0.0000000E+00
   2.760000      0.0000000E+00
   2.770000      0.0000000E+00
   2.780000      0.0000000E+00
   2.790000      0.0000000E+00
   2.800000      0.0000000E+00
   2.810000      0.0000000E+00
   2.820000      0.0000000E+00
   2.830000      0.0000000E+00
   2.840000      0.0000000E+00
   2.850000      0.0000000E+00
   2.860000      0.0000000E+00
   2.870000      0.0000000E+00
   2.880000      0.0000000E+00
   2.890000      0.0000000E+00
   2.900000      0.0000000E+00
   2.910000      0.0000000E+00
   2.920000      0.0000000E+00
   2.930000      0.0000000E+00
   2.940000      0.0000000E+00
   2.950000      0.0000000E+00
   2.960000      0.0000000E+00
   2.970000      0.0000000E+00
   2.980000      0.0000000E+00
   2.990000      0.0000000E+00
   3.000000      0.0000000E+00
   3.010000      0.0000000E+00
   3.020000      0.0000000E+00
   3.030000      0.0000000E+00
   3.040000      0.0000000E+00
   3.050000      0.0000000E+00
   3.060000      0.0000000E+00
   3.070000      0.0000000E+00
   3.080000      0.0000000E+00
   3.090000      0.0000000E+00
   3.100000      0.0000000E+00
   3.110000      0.0000000E+00
   3.120000      0.0000000E+00
   3.130000      0.0000000E+00
   3.140000      0.0000000E+00
   3.150000      0.0000000E+00
   3.160000      0.0000000E+00
   3.170000      0.0000000E+00
   3.180000      0.0000000E+00
   3.190000      0.0000000E+00
   3.200000      0.0000000E+00
   3.210000      0.0000000E+00
   3.220000      0.0000000E+00
   3.230000      0.0000000E+00
   3.240000      0.0000000E+00
   3.250000      0.0000000E+00
   3.260000      0.0000000E+00
   3.270000      0.0000000E+00
   3.280000      0.0000000E+00
   3.290000      0.0000000E+00
   3.300000      0.0000000E+00
   3.310000      0.0000000E+00
   3.320000      0.0000000E+00
   3.330000      0.0000000E+00
   3.340000      0.0000000E+00
   3.350000      0.0000000E+00
   3.360000      0.0000000E+00
   3.370000      0.0000000E+00
   3.380000      0.0000000E+00
   3.390000      0.0000000E+00
   3.400000      0.0000000E+00
   3.410000      0.0000000E+00
   3.420000      0.0000000E+00
   3.430000      0.0000000E+00
   3.440000      0.0000000E+00
   3.450000      0.0000000E+00
   3.460000      0.0000000E+00
   3.470000      0.0000000E+00
   3.480000      0.0000000E+00
   3.490000      0.0000000E+00
   3.500000      0.0000000E+00
   3.510000      0.0000000E+00
   3.520000     -1.2766546E-38
   3.530000     -1.5671037E-38
   3.540000     -1.8663467E-38
   3.550000     -2.2018280E-38
   3.560000     -2.5595941E-38
   3.570000     -2.8879643E-38
   3.580000     -3.1571263E-38
   3.590000     -3.3721368E-38
   3.600000     -3.5674923E-38
   3.610000     -3.7600930E-38
   3.620000     -3.9404474E-38
   3.630000     -4.1086057E-38
   3.640000     -4.2677486E-38
   3.650000     -4.3849370E-38
   3.660000     -4.4524031E-38
   3.670000     -4.4931520E-38
   3.680000     -4.5130538E-38
   3.690000     -4.5331694E-38
   3.700000     -4.5959252E-38
   3.710000     -4.7123868E-38
   3.720000     -4.8695402E-38
   3.730000     -5.0643902E-38
   3.740000     -5.1863968E-38
   3.750000     -5.2588282E-38
   3.760000     -5.2310881E-38
   3.770000     -5.0469468E-38
   3.780000     -4.8531360E-38
   3.790000     -4.6684527E-38
   3.800000     -4.4975991E-38
   3.810000     -4.2589235E-38
   3.820000     -3.8181740E-38
   3.830000     -3.1648273E-38
   3.840000     -2.3162466E-38
   3.850000     -1.2844983E-38
   3.860000      0.0000000E+00
   3.870000      0.0000000E+00
   3.880000      2.3508357E-38
   3.890000      3.5690786E-38
   3.900000      4.8303419E-38
   3.910000      6.1247213E-38
   3.920000      7.4388915E-38
   3.930000      8.8259097E-38
   3.940000      1.0540648E-37
   3.950000      1.2701837E-37
   3.960000      1.5192436E-37
   3.970000      1.7916263E-37
   3.980000      2.0759069E-37
   3.990000      2.3640266E-37
   4.000000      2.6618799E-37
   4.010000      2.9805056E-37
   4.020000      3.3196953E-37
   4.030000      3.6887864E-37
   4.040000      4.2123422E-37
   4.050000      4.8708978E-37
   4.060000      5.5238262E-37
   4.070000      6.1371250E-37
   4.080000      6.6391876E-37
   4.090000      6.8888281E-37
   4.100000      6.9336965E-37
   4.110000      7.0232290E-37
   4.120000      7.1305985E-37
   4.130000      7.2081035E-37
   4.140000      7.2233698E-37
   4.150000      7.1339423E-37
   4.160000      6.9196307E-37
   4.170000      6.5361372E-37
   4.180000      5.8967433E-37
   4.190000      5.0342089E-37
   4.200000      4.1461978E-37
   4.210000      3.3446873E-37
   4.220000      2.8912399E-37
   4.230000      2.8758185E-37
   4.240000      3.0831512E-37
   4.250000      3.3823311E-37
   4.260000      3.7522159E-37
   4.270000      4.0565183E-37
   4.280000      4.2638593E-37
   4.290000      4.3539379E-37
   4.300000      4.2881809E-37
   4.310000      4.1784989E-37
   4.320000      3.7196923E-37
   4.330000      2.8970406E-37
   4.340000      2.0377920E-37
   4.350000      9.3667716E-38
   4.360000     -5.1888249E-38
   4.370000     -2.1844405E-37
   4.380000     -4.4540404E-37
   4.390000     -7.4374941E-37
   4.400000     -1.0638600E-36
   4.410000     -1.3983754E-36
   4.420000     -1.7277356E-36
   4.430000     -2.0472078E-36
   4.440000     -2.3792473E-36
   4.450000     -2.7259243E-36
   4.460000     -3.0772184E-36
   4.470000     -3.4218204E-36
   4.480000     -3.7681403E-36
   4.490000     -4.1128068E-36
   4.500000     -4.4453119E-36
   4.510000     -4.7677018E-36
   4.520000     -5.0734355E-36
   4.530000     -5.4197088E-36
   4.540000     -5.8423680E-36
   4.550000     -6.3126744E-36
   4.560000     -6.7672695E-36
   4.570000     -7.1852716E-36
   4.580000     -7.6182423E-36
   4.590000     -8.0579851E-36
   4.600000     -8.3657804E-36
   4.610000     -8.5601495E-36
   4.620000     -8.6781581E-36
   4.630000     -8.6146050E-36
   4.640000     -8.4404440E-36
   4.650000     -8.1811702E-36
   4.660000     -7.8595379E-36
   4.670000     -7.4938389E-36
   4.680000     -7.0867350E-36
   4.690000     -6.6332987E-36
   4.700000     -6.0195240E-36
   4.710000     -5.2586666E-36
   4.720000     -4.3939898E-36
   4.730000     -3.4344506E-36
   4.740000     -2.4086035E-36
   4.750000     -1.3420690E-36
   4.760000     -1.9804464E-37
   4.770000      9.8966504E-37
   4.780000      2.1639377E-36
   4.790000      3.6204315E-36
   4.800000      5.3711576E-36
   4.810000      7.2419169E-36
   4.820000      9.0988371E-36
   4.830000      1.1258458E-35
   4.840000      1.3929143E-35
   4.850000      1.6850881E-35
   4.860000      1.9959689E-35
   4.870000      2.3140573E-35
   4.880000      2.5980190E-35
   4.890000      2.8369833E-35
   4.900000      3.0773458E-35
   4.910000      3.3279973E-35
   4.920000      3.5856145E-35
   4.930000      3.8770622E-35
   4.940000      4.2086922E-35
   4.950000      4.5511327E-35
   4.960000      4.8876045E-35
   4.970000      5.2161299E-35
   4.980000      5.5115756E-35
   4.990000      5.7726059E-35
   5.000000      6.0315574E-35
   5.010000      6.2957635E-35
   5.020000      6.5578172E-35
   5.030000      6.8256767E-35
   5.040000      7.0836730E-35
   5.050000      7.3225021E-35
   5.060000      7.5219901E-35
   5.070000      7.6569773E-35
   5.080000      7.7465319E-35
   5.090000      7.7434118E-35
   5.100000      7.6368470E-35
   5.110000      7.4934206E-35
   5.120000      7.0834687E-35
   5.130000      6.9077070E-35
   5.140000      7.2286003E-35
   5.150000      7.5115719E-35
   5.160000      7.7482285E-35
   5.170000      7.9648960E-35
   5.180000      8.1747281E-35
   5.190000      8.2570798E-35
   5.200000      8.0651546E-35
   5.210000      7.1087929E-35
   5.220000      5.5474770E-35
   5.230000      3.9643676E-35
   5.240000      2.2765787E-35
   5.250000      4.3651531E-36
   5.260000     -1.4564808E-35
   5.270000     -3.2914878E-35
   5.280000     -5.3984239E-35
   5.290000     -7.8406460E-35
   5.300000     -1.0389851E-34
   5.310000     -1.3065682E-34
   5.320000     -1.5803860E-34
   5.330000     -1.8692307E-34
   5.340000     -2.2183817E-34
   5.350000     -2.6234226E-34
   5.360000     -3.0306145E-34
   5.370000     -3.4397139E-34
   5.380000     -3.8573360E-34
   5.390000     -4.2795860E-34
   5.400000     -4.7051237E-34
   5.410000     -5.1595097E-34
   5.420000     -5.6398102E-34
   5.430000     -6.1113983E-34
   5.440000     -6.5635201E-34
   5.450000     -6.9640891E-34
   5.460000     -7.3224624E-34
   5.470000     -7.6806475E-34
   5.480000     -8.0376272E-34
   5.490000     -8.3498073E-34
   5.500000     -8.6507632E-34
   5.510000     -8.9789493E-34
   5.520000     -9.2791715E-34
   5.530000     -9.5464238E-34
   5.540000     -9.8140563E-34
   5.550000     -1.0076440E-33
   5.560000     -1.0281178E-33
   5.570000     -1.0449440E-33
   5.580000     -1.0611336E-33
   5.590000     -1.0733487E-33
   5.600000     -1.0804575E-33
   5.610000     -1.0845981E-33
   5.620000     -1.0880071E-33
   5.630000     -1.0874847E-33
   5.640000     -1.0813987E-33
   5.650000     -1.0702211E-33
   5.660000     -1.0521423E-33
   5.670000     -1.0258961E-33
   5.680000     -9.9042553E-34
   5.690000     -9.4281957E-34
   5.700000     -8.8272674E-34
   5.710000     -8.0973074E-34
   5.720000     -7.2322781E-34
   5.730000     -6.2117663E-34
   5.740000     -5.0156806E-34
   5.750000     -3.6586304E-34
   5.760000     -2.1105746E-34
   5.770000     -3.9122822E-35
   5.780000      1.4501301E-34
   5.790000      3.4846249E-34
   5.800000      5.7407563E-34
   5.810000      8.1805591E-34
   5.820000      1.0801382E-33
   5.830000      1.3598590E-33
   5.840000      1.6570720E-33
   5.850000      1.9710217E-33
   5.860000      2.3009878E-33
   5.870000      2.6466700E-33
   5.880000      3.0073183E-33
   5.890000      3.3825783E-33
   5.900000      3.7707489E-33
   5.910000      4.1715231E-33
   5.920000      4.5882028E-33
   5.930000      5.0199865E-33
   5.940000      5.4648075E-33
   5.950000      5.9229369E-33
   5.960000      6.3933668E-33
   5.970000      6.8748552E-33
   5.980000      7.3663096E-33
   5.990000      7.8667520E-33
   6.000000      8.3779503E-33
   6.010000      8.8989338E-33
   6.020000      9.4258763E-33
   6.030000      9.9568251E-33
   6.040000      1.0489258E-32
   6.050000      1.1020041E-32
   6.060000      1.1547028E-32
   6.070000      1.2067382E-32
   6.080000      1.2576335E-32
   6.090000      1.3069558E-32
   6.100000      1.3544587E-32
   6.110000      1.3994663E-32
   6.120000      1.4413021E-32
   6.130000      1.4796645E-32
   6.140000      1.5140092E-32
   6.150000      1.5436718E-32
   6.160000      1.5679800E-32
   6.170000      1.5863702E-32
   6.180000      1.5982459E-32
   6.190000      1.6029789E-32
   6.200000      1.5999304E-32
   6.210000      1.5883944E-32
   6.220000      1.5678078E-32
   6.230000      1.5376139E-32
   6.240000      1.4970998E-32
   6.250000      1.4456158E-32
   6.260000      1.3825243E-32
   6.270000      1.3071819E-32
   6.280000      1.2189441E-32
   6.290000      1.1171579E-32
   6.300000      1.0011698E-32
   6.310000      8.7032603E-33
   6.320000      7.2396251E-33
   6.330000      5.6143035E-33
   6.340000      3.8204533E-33
   6.350000      1.8515371E-33
   6.360000     -2.9678702E-34
   6.370000     -2.6327468E-33
   6.380000     -5.1642582E-33
   6.390000     -7.8952791E-33
   6.400000     -1.0831193E-32
   6.410000     -1.3976986E-32
   6.420000     -1.7337106E-32
   6.430000     -2.0915399E-32
   6.440000     -2.4715021E-32
   6.450000     -2.8738321E-32
   6.460000     -3.2988609E-32
   6.470000     -3.7462996E-32
   6.480000     -4.2160427E-32
   6.490000     -4.7082451E-32
   6.500000     -5.2224634E-32
   6.510000     -5.7582431E-32
   6.520000     -6.3149831E-32
   6.530000     -6.8919445E-32
   6.540000     -7.4882170E-32
   6.550000     -8.1027208E-32
   6.560000     -8.7341993E-32
   6.570000     -9.3812137E-32
   6.580000     -1.0042135E-31
   6.590000     -1.0715147E-31
   6.600000     -1.1398223E-31
   6.610000     -1.2089149E-31
   6.620000     -1.2785502E-31
   6.630000     -1.3484672E-31
   6.640000     -1.4183761E-31
   6.650000     -1.4879646E-31
   6.660000     -1.5569054E-31
   6.670000     -1.6248443E-31
   6.680000     -1.6914028E-31
   6.690000     -1.7561779E-31
   6.700000     -1.8187412E-31
   6.710000     -1.8786369E-31
   6.720000     -1.9353881E-31
   6.730000     -1.9884912E-31
   6.740000     -2.0374112E-31
   6.750000     -2.0815896E-31
   6.760000     -2.1204404E-31
   6.770000     -2.1533510E-31
   6.780000     -2.1796837E-31
   6.790000     -2.1987739E-31
   6.800000     -2.2099329E-31
   6.810000     -2.2124475E-31
   6.820000     -2.2055819E-31
   6.830000     -2.1885784E-31
   6.840000     -2.1606595E-31
   6.850000     -2.1210291E-31
   6.860000     -2.0688757E-31
   6.870000     -2.0033736E-31
   6.880000     -1.9236858E-31
   6.890000     -1.8289671E-31
   6.900000     -1.7183674E-31
   6.910000     -1.5910347E-31
   6.920000     -1.4461187E-31
   6.930000     -1.2827748E-31
   6.940000     -1.1001690E-31
   6.950000     -8.9748100E-32
   6.960000     -6.7390974E-32
   6.970000     -4.2867760E-32
   6.980000     -1.6103620E-32
   6.990000      1.2972886E-32
   7.000000      4.4429287E-32
   7.010000      7.8328549E-32
   7.020000      1.1472851E-31
   7.030000      1.5368130E-31
   7.040000      1.9523266E-31
   7.050000      2.3942128E-31
   7.060000      2.8627811E-31