  -2.600000      0.0000000E+00
  -2.590000      0.0000000E+00
  -2.580000      0.0000000E+00
  -2.570000      0.0000000E+00
  -2.560000      0.0000000E+00
  -2.550000      0.0000000E+00
  -2.540000      0.0000000E+00
  -2.530000      0.0000000E+00
  -2.520000      0.0000000E+00
  -2.510000      0.0000000E+00
  -2.500000      0.0000000E+00
  -2.490000      0.0000000E+00
  -2.480000      0.0000000E+00
  -2.470000      0.0000000E+00
  -2.460000      0.0000000E+00
  -2.450000      0.0000000E+00
  -2.440000      0.0000000E+00
  -2.430000      0.0000000E+00
  -2.420000      0.0000000E+00
  -2.410000      0.0000000E+00
  -2.400000      0.0000000E+00
  -2.390000      0.0000000E+00
  -2.380000      0.0000000E+00
  -2.370000      0.0000000E+00
  -2.360000      0.0000000E+00
  -2.350000      0.0000000E+00
  -2.340000      0.0000000E+00
  -2.330000      0.0000000E+00
  -2.320000      0.0000000E+00
  -2.310000      0.0000000E+00
  -2.300000      0.0000000E+00
  -2.290000      0.0000000E+00
  -2.280000      0.0000000E+00
  -2.270000      0.0000000E+00
  -2.260000      0.0000000E+00
  -2.250000      0.0000000E+00
  -2.240000      0.0000000E+00
  -2.230000      0.0000000E+00
  -2.220000      0.0000000E+00
  -2.210000      0.0000000E+00
  -2.200000      0.0000000E+00
  -2.190000      0.0000000E+00
  -2.180000      0.0000000E+00
  -2.170000      0.0000000E+00
  -2.160000      0.0000000E+00
  -2.150000      0.0000000E+00
  -2.140000      0.0000000E+00
  -2.130000      0.0000000E+00
  -2.120000      0.0000000E+00
  -2.110000      0.0000000E+00
  -2.100000      0.0000000E+00
  -2.090000      0.0000000E+00
  -2.080000      0.0000000E+00
  -2.070000      0.0000000E+00
  -2.060000      0.0000000E+00
  -2.050000      0.0000000E+00
  -2.040000      0.0000000E+00
  -2.030000      0.0000000E+00
  -2.020000      0.0000000E+00
  -2.010000      0.0000000E+00
  -2.000000      0.0000000E+00
  -1.990000      0.0000000E+00
  -1.980000      0.0000000E+00
  -1.970000      0.0000000E+00
  -1.960000      0.0000000E+00
  -1.950000      0.0000000E+00
  -1.940000      0.0000000E+00
  -1.930000      0.0000000E+00
  -1.920000      0.0000000E+00
  -1.910000      0.0000000E+00
  -1.900000      0.0000000E+00
  -1.890000      0.0000000E+00
  -1.880000      0.0000000E+00
  -1.870000      0.0000000E+00
  -1.860000      0.0000000E+00
  -1.850000      0.0000000E+00
  -1.840000      0.0000000E+00
  -1.830000      0.0000000E+00
  -1.820000      0.0000000E+00
  -1.810000      0.0000000E+00
  -1.800000      0.0000000E+00
  -1.790000      0.0000000E+00
  -1.780000      0.0000000E+00
  -1.770000      0.0000000E+00
  -1.760000      0.0000000E+00
  -1.750000      0.0000000E+00
  -1.740000      0.0000000E+00
  -1.730000      0.0000000E+00
  -1.720000      0.0000000E+00
  -1.710000      0.0000000E+00
  -1.700000      0.0000000E+00
  -1.690000      0.0000000E+00
  -1.680000      0.0000000E+00
  -1.670000      0.0000000E+00
  -1.660000      0.0000000E+00
  -1.650000      0.0000000E+00
  -1.640000      0.0000000E+00
  -1.630000      0.0000000E+00
  -1.620000      0.0000000E+00
  -1.610000      0.0000000E+00
  -1.600000      0.0000000E+00
  -1.590000      0.0000000E+00
  -1.580000      0.0000000E+00
  -1.570000      0.0000000E+00
  -1.560000      0.0000000E+00
  -1.550000      0.0000000E+00
  -1.540000      0.0000000E+00
  -1.530000      0.0000000E+00
  -1.520000      0.0000000E+00
  -1.510000      0.0000000E+00
  -1.500000      0.0000000E+00
  -1.490000      0.0000000E+00
  -1.480000      0.0000000E+00
  -1.470000      0.0000000E+00
  -1.460000      0.0000000E+00
  -1.450000      0.0000000E+00
  -1.440000      0.0000000E+00
  -1.430000      0.0000000E+00
  -1.420000      0.0000000E+00
  -1.410000      0.0000000E+00
  -1.400000      0.0000000E+00
  -1.390000      0.0000000E+00
  -1.380000      0.0000000E+00
  -1.370000      0.0000000E+00
  -1.360000      0.0000000E+00
  -1.350000      0.0000000E+00
  -1.340000      0.0000000E+00
  -1.330000      0.0000000E+00
  -1.320000      0.0000000E+00
  -1.310000      0.0000000E+00
  -1.300000      0.0000000E+00
  -1.290000      0.0000000E+00
  -1.280000      0.0000000E+00
  -1.270000      0.0000000E+00
  -1.260000      0.0000000E+00
  -1.250000      0.0000000E+00
  -1.240000      0.0000000E+00
  -1.230000      0.0000000E+00
  -1.220000      0.0000000E+00
  -1.210000      0.0000000E+00
  -1.200000      0.0000000E+00
  -1.190000      0.0000000E+00
  -1.180000      0.0000000E+00
  -1.170000      0.0000000E+00
  -1.160000      0.0000000E+00
  -1.150000      0.0000000E+00
  -1.140000      0.0000000E+00
  -1.130000      0.0000000E+00
  -1.120000      0.0000000E+00
  -1.110000      0.0000000E+00
  -1.100000      0.0000000E+00
  -1.090000      0.0000000E+00
  -1.080000      0.0000000E+00
  -1.070000      0.0000000E+00
  -1.060000      0.0000000E+00
  -1.050000      0.0000000E+00
  -1.040000      0.0000000E+00
  -1.030000      0.0000000E+00
  -1.020000      0.0000000E+00
  -1.010000      0.0000000E+00
  -1.000000      0.0000000E+00
 -0.9900000      0.0000000E+00
 -0.9800000      0.0000000E+00
 -0.9700000      0.0000000E+00
 -0.9600000      0.0000000E+00
 -0.9500000      0.0000000E+00
 -0.9400000      0.0000000E+00
 -0.9300000      0.0000000E+00
 -0.9200000      0.0000000E+00
 -0.9100000      0.0000000E+00
 -0.9000000      0.0000000E+00
 -0.8900000      0.0000000E+00
 -0.8800000      0.0000000E+00
 -0.8700000      0.0000000E+00
 -0.8600000      0.0000000E+00
 -0.8500000      0.0000000E+00
 -0.8400000      0.0000000E+00
 -0.8300000      0.0000000E+00
 -0.8200000      0.0000000E+00
 -0.8100000      0.0000000E+00
 -0.8000000      0.0000000E+00
 -0.7900000      0.0000000E+00
 -0.7800000      0.0000000E+00
 -0.7700000      0.0000000E+00
 -0.7600000      0.0000000E+00
 -0.7500000      0.0000000E+00
 -0.7400000      0.0000000E+00
 -0.7300000      0.0000000E+00
 -0.7200000      0.0000000E+00
 -0.7100000      0.0000000E+00
 -0.7000000      0.0000000E+00
 -0.6900000      0.0000000E+00
 -0.6800000      0.0000000E+00
 -0.6700000      0.0000000E+00
 -0.6600000      0.0000000E+00
 -0.6500000      0.0000000E+00
 -0.6400000      0.0000000E+00
 -0.6300000      0.0000000E+00
 -0.6200000      0.0000000E+00
 -0.6100000      0.0000000E+00
 -0.6000000      0.0000000E+00
 -0.5900000      0.0000000E+00
 -0.5800000      0.0000000E+00
 -0.5700000      0.0000000E+00
 -0.5600000      0.0000000E+00
 -0.5500000      0.0000000E+00
 -0.5400000      0.0000000E+00
 -0.5300000      0.0000000E+00
 -0.5200000      0.0000000E+00
 -0.5100000      0.0000000E+00
 -0.5000000      0.0000000E+00
 -0.4900000      0.0000000E+00
 -0.4800000      0.0000000E+00
 -0.4700000      0.0000000E+00
 -0.4600000      0.0000000E+00
 -0.4500000      0.0000000E+00
 -0.4400000      0.0000000E+00
 -0.4300000      0.0000000E+00
 -0.4200000      0.0000000E+00
 -0.4100000      0.0000000E+00
 -0.4000000      0.0000000E+00
 -0.3900000      0.0000000E+00
 -0.3800000      1.5275524E-38
 -0.3700000      2.4034920E-38
 -0.3600000      3.3600654E-38
 -0.3500000      4.0835847E-38
 -0.3400000      4.5981796E-38
 -0.3300000      5.2298392E-38
 -0.3200000      6.1186218E-38
 -0.3100000      7.1772618E-38
 -0.3000000      8.5139386E-38
 -0.2900000      1.0177447E-37
 -0.2800000      1.1810130E-37
 -0.2700000      1.3127620E-37
 -0.2600000      1.2737129E-37
 -0.2500000      1.0172635E-37
 -0.2400000      5.9852630E-38
 -0.2300000     -3.1595326E-38
 -0.2200000     -2.2003240E-37
 -0.2100000     -4.9181464E-37
 -0.2000000     -8.5538675E-37
 -0.1900000     -1.3192787E-36
 -0.1800000     -1.8306045E-36
 -0.1700000     -2.2779104E-36
 -0.1600000     -2.5920171E-36
 -0.1500000     -2.7554207E-36
 -0.1400000     -2.7427596E-36
 -0.1300000     -2.4940076E-36
 -0.1200000     -1.9298191E-36
 -0.1100000     -1.0375018E-36
 -0.1000000      1.7714973E-37
 -9.0000004E-02  1.6142404E-36
 -7.9999998E-02  3.2746870E-36
 -7.0000000E-02  5.3053108E-36
 -5.9999999E-02  7.6237904E-36
 -5.0000001E-02  1.0082421E-35
 -3.9999999E-02  1.2534562E-35
 -2.9999999E-02  1.4899752E-35
 -2.0000000E-02  1.7586482E-35
 -9.9999998E-03  2.0656472E-35
 -3.4694470E-17  2.4134084E-35
  9.9999998E-03  2.8293162E-35
  2.0000000E-02  3.3375189E-35
  2.9999999E-02  3.7439156E-35
  3.9999999E-02  3.9439598E-35
  5.0000001E-02  4.0420461E-35
  5.9999999E-02  3.6817909E-35
  7.0000000E-02  2.6988705E-35
  7.9999998E-02  1.3426681E-35
  9.0000004E-02 -3.2341882E-36
  0.1000000     -2.3137650E-35
  0.1100000     -4.6051618E-35
  0.1200000     -7.5189836E-35
  0.1300000     -1.1102652E-34
  0.1400000     -1.5009697E-34
  0.1500000     -1.8756315E-34
  0.1600000     -2.1710605E-34
  0.1700000     -2.4040563E-34
  0.1800000     -2.5731369E-34
  0.1900000     -2.6106765E-34
  0.2000000     -2.5087178E-34
  0.2100000     -2.2800676E-34
  0.2200000     -1.9102473E-34
  0.2300000     -1.3636850E-34
  0.2400000     -6.2116485E-35
  0.2500000      3.0502790E-35
  0.2600000      1.4058840E-34
  0.2700000      2.6074265E-34
  0.2800000      3.7409926E-34
  0.2900000      4.6691003E-34
  0.3000000      5.2712592E-34
  0.3100000      5.3536448E-34
  0.3200000      4.6536885E-34
  0.3300000      2.9295675E-34
  0.3400000     -1.2795817E-35
  0.3500000     -4.9346169E-34
  0.3600000     -1.1918210E-33
  0.3700000     -2.1587583E-33
  0.3800000     -3.4514781E-33
  0.3900000     -5.1347478E-33
  0.4000000     -7.2828135E-33
  0.4100000     -9.9790191E-33
  0.4200000     -1.3316990E-32
  0.4300000     -1.7401556E-32
  0.4400000     -2.2349705E-32
  0.4500000     -2.8291728E-32
  0.4600000     -3.5372194E-32
  0.4700000     -4.3750968E-32
  0.4800000     -5.3604406E-32
  0.4900000     -6.5126419E-32
  0.5000000     -7.8529494E-32
  0.5100000     -9.4045772E-32
  0.5200000     -1.1192797E-31
  0.5300000     -1.3245034E-31
  0.5400000     -1.5590944E-31
  0.5500000     -1.8262490E-31
  0.5600000     -2.1294003E-31
  0.5700000     -2.4722245E-31
  0.5800000     -2.8586445E-31
  0.5900000     -3.2928343E-31
  0.6000000     -3.7792209E-31
  0.6100000     -4.3224879E-31
  0.6200000     -4.9275773E-31
  0.6300000     -5.5996916E-31
  0.6400000     -6.3442977E-31
  0.6500000     -7.1671287E-31
  0.6600000     -8.0741923E-31
  0.6700000     -9.0717751E-31
  0.6800000     -1.0166455E-30
  0.6900000     -1.1365112E-30
  0.7000000     -1.2674946E-30
  0.7100000     -1.4103498E-30
  0.7200000     -1.5658676E-30
  0.7300000     -1.7348775E-30
  0.7400000     -1.9182526E-30
  0.7500000     -2.1169119E-30
  0.7600000     -2.3318251E-30
  0.7700000     -2.5640180E-30
  0.7800000     -2.8145755E-30
  0.7900000     -3.0846484E-30
  0.8000000     -3.3754589E-30
  0.8100000     -3.6883044E-30
  0.8200000     -4.0245646E-30
  0.8300000     -4.3857066E-30
  0.8400000     -4.7732902E-30
  0.8500000     -5.1889725E-30
  0.8600000     -5.6345138E-30
  0.8700000     -6.1117818E-30
  0.8800000     -6.6227570E-30
  0.8900000     -7.1695360E-30
  0.9000000     -7.7543364E-30
  0.9100000     -8.3795023E-30
  0.9200000     -9.0475073E-30
  0.9300000     -9.7609590E-30
  0.9400000     -1.0522605E-29
  0.9500000     -1.1335339E-29
  0.9600000     -1.2202207E-29
  0.9700000     -1.3126413E-29
  0.9800000     -1.4111334E-29
  0.9900000     -1.5160517E-29
   1.000000     -1.6277709E-29
   1.010000     -1.7466847E-29
   1.020000     -1.8732091E-29
   1.030000     -2.0077832E-29
   1.040000     -2.1508701E-29
   1.050000     -2.3029601E-29
   1.060000     -2.4645712E-29
   1.070000     -2.6362517E-29
   1.080000     -2.8185822E-29
   1.090000     -3.0121764E-29
   1.100000     -3.2176843E-29
   1.110000     -3.4357931E-29
   1.120000     -3.6672291E-29
   1.130000     -3.9127596E-29
   1.140000     -4.1731938E-29
   1.150000     -4.4493842E-29
   1.160000     -4.7422278E-29
   1.170000     -5.0526676E-29
   1.180000     -5.3816935E-29
   1.190000     -5.7303421E-29
   1.200000     -6.0996994E-29
   1.210000     -6.4909009E-29
   1.220000     -6.9051329E-29
   1.230000     -7.3436341E-29
   1.240000     -7.8076959E-29
   1.250000     -8.2986666E-29
   1.260000     -8.8179545E-29
   1.270000     -9.3670251E-29
   1.280000     -9.9474107E-29
   1.290000     -1.0560709E-28
   1.300000     -1.1208590E-28
   1.310000     -1.1892798E-28
   1.320000     -1.2615160E-28
   1.330000     -1.3377585E-28
   1.340000     -1.4182070E-28
   1.350000     -1.5030710E-28
   1.360000     -1.5925690E-28
   1.370000     -1.6869306E-28
   1.380000     -1.7863951E-28
   1.390000     -1.8912129E-28
   1.400000     -2.0016454E-28
   1.410000     -2.1179647E-28
   1.420000     -2.2404543E-28
   1.430000     -2.3694085E-28
   1.440000     -2.5051324E-28
   1.450000     -2.6479416E-28
   1.460000     -2.7981617E-28
   1.470000     -2.9561286E-28
   1.480000     -3.1221876E-28
   1.490000     -3.2966923E-28
   1.500000     -3.4800057E-28
   1.510000     -3.6724988E-28
   1.520000     -3.8745510E-28
   1.530000     -4.0865494E-28
   1.540000     -4.3088879E-28
   1.550000     -4.5419702E-28
   1.560000     -4.7862060E-28
   1.570000     -5.0420124E-28
   1.580000     -5.3098163E-28
   1.590000     -5.5900521E-28
   1.600000     -5.8831623E-28
   1.610000     -6.1895994E-28
   1.620000     -6.5098247E-28
   1.630000     -6.8443087E-28
   1.640000     -7.1935308E-28
   1.650000     -7.5579803E-28
   1.660000     -7.9381526E-28
   1.670000     -8.3345514E-28
   1.680000     -8.7476855E-28
   1.690000     -9.1780702E-28
   1.700000     -9.6262196E-28
   1.710000     -1.0092651E-27
   1.720000     -1.0577877E-27
   1.730000     -1.1082405E-27
   1.740000     -1.1606730E-27
   1.750000     -1.2151341E-27
   1.760000     -1.2716705E-27
   1.770000     -1.3303272E-27
   1.780000     -1.3911466E-27
   1.790000     -1.4541690E-27
   1.800000     -1.5194316E-27
   1.810000     -1.5869684E-27
   1.820000     -1.6568101E-27
   1.830000     -1.7289838E-27
   1.840000     -1.8035130E-27
   1.850000     -1.8804177E-27
   1.860000     -1.9597138E-27
   1.870000     -2.0414139E-27
   1.880000     -2.1255262E-27
   1.890000     -2.2120550E-27
   1.900000     -2.3010015E-27
   1.910000     -2.3923628E-27
   1.920000     -2.4861314E-27
   1.930000     -2.5822959E-27
   1.940000     -2.6808400E-27
   1.950000     -2.7817433E-27
   1.960000     -2.8849797E-27
   1.970000     -2.9905172E-27
   1.980000     -3.0983169E-27
   1.990000     -3.2083331E-27
   2.000000     -3.3205116E-27
   2.010000     -3.4347894E-27
   2.020000     -3.5510928E-27
   2.030000     -3.6693384E-27
   2.040000     -3.7894297E-27
   2.050000     -3.9112575E-27
   2.060000     -4.0346988E-27
   2.070000     -4.1596173E-27
   2.080000     -4.2858597E-27
   2.090000     -4.4132588E-27
   2.100000     -4.5416302E-27
   2.110000     -4.6707738E-27
   2.120000     -4.8004751E-27
   2.130000     -4.9305016E-27
   2.140000     -5.0606066E-27
   2.150000     -5.1905268E-27
   2.160000     -5.3199855E-27
   2.170000     -5.4486912E-27
   2.180000     -5.5763383E-27
   2.190000     -5.7026065E-27
   2.200000     -5.8271637E-27
   2.210000     -5.9496625E-27
   2.220000     -6.0697435E-27
   2.230000     -6.1870326E-27
   2.240000     -6.3011405E-27
   2.250000     -6.4116611E-27
   2.260000     -6.5181720E-27
   2.270000     -6.6202324E-27
   2.280000     -6.7173794E-27
   2.290000     -6.8091323E-27
   2.300000     -6.8949848E-27
   2.310000     -6.9744048E-27
   2.320000     -7.0468359E-27
   2.330000     -7.1116951E-27
   2.340000     -7.1683698E-27
   2.350000     -7.2162199E-27
   2.360000     -7.2545798E-27
   2.370000     -7.2827539E-27
   2.380000     -7.3000256E-27
   2.390000     -7.3056501E-27
   2.400000     -7.2988647E-27
   2.410000     -7.2788881E-27
   2.420000     -7.2449247E-27
   2.430000     -7.1961679E-27
   2.440000     -7.1318056E-27
   2.450000     -7.0510221E-27
   2.460000     -6.9530015E-27
   2.470000     -6.8369334E-27
   2.480000     -6.7020143E-27
   2.490000     -6.5474500E-27
   2.500000     -6.3724600E-27
   2.510000     -6.1762751E-27
   2.520000     -5.9581401E-27
   2.530000     -5.7173145E-27
   2.540000     -5.4530700E-27
   2.550000     -5.1646916E-27
   2.560000     -4.8514753E-27
   2.570000     -4.5127266E-27
   2.580000     -4.1477602E-27
   2.590000     -3.7558989E-27
   2.600000     -3.3364741E-27
   2.610000     -2.8888265E-27
   2.620000     -2.4123076E-27
   2.630000     -1.9062851E-27
   2.640000     -1.3701469E-27
   2.650000     -8.0330832E-28
   2.660000     -2.0521828E-28
   2.670000      4.2463048E-28
   2.680000      1.0866885E-27
   2.690000      1.7813398E-27
   2.700000      2.5088878E-27
   2.710000      3.2695430E-27
   2.720000      4.0634117E-27
   2.730000      4.8904796E-27
   2.740000      5.7506038E-27
   2.750000      6.6434984E-27
   2.760000      7.5687275E-27
   2.770000      8.5256990E-27
   2.780000      9.5136571E-27
   2.790000      1.0531682E-26
   2.800000      1.1578687E-26
   2.810000      1.2653420E-26
   2.820000      1.3754469E-26
   2.830000      1.4880263E-26
   2.840000      1.6029079E-26
   2.850000      1.7199047E-26
   2.860000      1.8388157E-26
   2.870000      1.9594257E-26
   2.880000      2.0815067E-26
   2.890000      2.2048172E-26
   2.900000      2.3291020E-26
   2.910000      2.4540917E-26
   2.920000      2.5795027E-26
   2.930000      2.7050355E-26
   2.940000      2.8303725E-26
   2.950000      2.9551783E-26
   2.960000      3.0790961E-26
   2.970000      3.2017470E-26
   2.980000      3.3227271E-26
   2.990000      3.4416054E-26
   3.000000      3.5579242E-26
   3.010000      3.6711944E-26
   3.020000      3.7808972E-26
   3.030000      3.8864826E-26
   3.040000      3.9873686E-26
   3.050000      4.0829437E-26
   3.060000      4.1725664E-26
   3.070000      4.2555687E-26
   3.080000      4.3312577E-26
   3.090000      4.3989192E-26
   3.100000      4.4578222E-26
   3.110000      4.5072218E-26
   3.120000      4.5463638E-26
   3.130000      4.5744901E-26
   3.140000      4.5908417E-26
   3.150000      4.5946640E-26
   3.160000      4.5852103E-26
   3.170000      4.5617444E-26
   3.180000      4.5235444E-26
   3.190000      4.4699028E-26
   3.200000      4.4001290E-26
   3.210000      4.3135503E-26
   3.220000      4.2095097E-26
   3.230000      4.0873672E-26
   3.240000      3.9464973E-26
   3.250000      3.7862901E-26
   3.260000      3.6061470E-26
   3.270000      3.4054826E-26
   3.280000      3.1837240E-26
   3.290000      2.9403105E-26
   3.300000      2.6746961E-26
   3.310000      2.3863532E-26
   3.320000      2.0747760E-26
   3.330000      1.7394861E-26
   3.340000      1.3800410E-26
   3.350000      9.9604251E-27
   3.360000      5.8714686E-27
   3.370000      1.5307557E-27
   3.380000     -3.0637279E-27
   3.390000     -7.9130976E-27
   3.400000     -1.3017448E-26
   3.410000     -1.8375740E-26
   3.420000     -2.3985686E-26
   3.430000     -2.9843647E-26
   3.440000     -3.5944549E-26
   3.450000     -4.2281829E-26
   3.460000     -4.8847377E-26
   3.470000     -5.5631519E-26
   3.480000     -6.2623033E-26
   3.490000     -6.9809155E-26
   3.500000     -7.7175606E-26
   3.510000     -8.4706695E-26
   3.520000     -9.2385350E-26
   3.530000     -1.0019321E-25
   3.540000     -1.0811068E-25
   3.550000     -1.1611703E-25
   3.560000     -1.2419050E-25
   3.570000     -1.3230822E-25
   3.580000     -1.4044636E-25
   3.590000     -1.4858008E-25
   3.600000     -1.5668352E-25
   3.610000     -1.6472971E-25
   3.620000     -1.7269061E-25
   3.630000     -1.8053687E-25
   3.640000     -1.8823782E-25
   3.650000     -1.9576131E-25
   3.660000     -2.0307357E-25
   3.670000     -2.1013911E-25
   3.680000     -2.1692065E-25
   3.690000     -2.2337891E-25
   3.700000     -2.2947269E-25
   3.710000     -2.3515882E-25
   3.720000     -2.4039220E-25
   3.730000     -2.4512583E-25
   3.740000     -2.4931113E-25
   3.750000     -2.5289798E-25
   3.760000     -2.5583509E-25
   3.770000     -2.5807027E-25
   3.780000     -2.5955084E-25
   3.790000     -2.6022409E-25
   3.800000     -2.6003764E-25
   3.810000     -2.5893989E-25
   3.820000     -2.5688047E-25
   3.830000     -2.5381070E-25
   3.840000     -2.4968404E-25
   3.850000     -2.4445636E-25
   3.860000     -2.3808633E-25
   3.870000     -2.3053568E-25
   3.880000     -2.2176938E-25
   3.890000     -2.1175586E-25
   3.900000     -2.0046695E-25
   3.910000     -1.8787813E-25
   3.920000     -1.7396847E-25
   3.930000     -1.5872058E-25
   3.940000     -1.4212065E-25
   3.950000     -1.2415845E-25
   3.960000     -1.0482740E-25
   3.970000     -8.4124645E-26
   3.980000     -6.2051213E-26
   3.990000     -3.8612362E-26
   4.000000     -1.3817873E-26
   4.010000      1.2317485E-26
   4.020000      3.9773338E-26
   4.030000      6.8523022E-26
   4.040000      9.8532782E-26
   4.050000      1.2976096E-25
   4.060000      1.6215703E-25
   4.070000      1.9566066E-25
   4.080000      2.3020075E-25
   4.090000      2.6569444E-25
   4.100000      3.0204626E-25
   4.110000      3.3914743E-25
   4.120000      3.7687504E-25
   4.130000      4.1509166E-25
   4.140000      4.5364492E-25
   4.150000      4.9236734E-25
   4.160000      5.3107649E-25
   4.170000      5.6957488E-25
   4.180000      6.0765063E-25
   4.190000      6.4507784E-25
   4.200000      6.8161729E-25
   4.210000      7.1701717E-25
   4.220000      7.5101387E-25
   4.230000      7.8333296E-25
   4.240000      8.1368991E-25
   4.250000      8.4179101E-25
   4.260000      8.6733363E-25
   4.270000      8.9000766E-25
   4.280000      9.0949519E-25
   4.290000      9.2547110E-25
   4.300000      9.3760369E-25
   4.310000      9.4555412E-25
   4.320000      9.4897729E-25
   4.330000      9.4752125E-25
   4.340000      9.4082756E-25
   4.350000      9.2853119E-25
   4.360000      9.1026108E-25
   4.370000      8.8564063E-25
   4.380000      8.5428794E-25
   4.390000      8.1581781E-25
   4.400000      7.6984236E-25
   4.410000      7.1597371E-25
   4.420000      6.5382596E-25
   4.430000      5.8301801E-25
   4.440000      5.0317734E-25
   4.450000      4.1394352E-25
   4.460000      3.1497231E-25
   4.470000      2.0594069E-25
   4.480000      8.6551421E-26
   4.490000     -4.3461688E-26
   4.500000     -1.8432854E-25
   4.510000     -3.3623769E-25
   4.520000     -4.9933086E-25
   4.530000     -6.7369796E-25
   4.540000     -8.5937245E-25
   4.550000     -1.0563265E-24
   4.560000     -1.2644667E-24
   4.570000     -1.4836307E-24
   4.580000     -1.7135828E-24
   4.590000     -1.9540116E-24
   4.600000     -2.2045264E-24
   4.610000     -2.4646547E-24
   4.620000     -2.7338397E-24
   4.630000     -3.0114373E-24
   4.640000     -3.2967140E-24
   4.650000     -3.5888434E-24
   4.660000     -3.8869035E-24
   4.670000     -4.1898738E-24
   4.680000     -4.4966298E-24
   4.690000     -4.8059410E-24
   4.700000     -5.1164647E-24
   4.710000     -5.4267406E-24
   4.720000     -5.7351876E-24
   4.730000     -6.0400957E-24
   4.740000     -6.3396215E-24
   4.750000     -6.6317832E-24
   4.760000     -6.9144542E-24
   4.770000     -7.1853593E-24
   4.780000     -7.4420688E-24
   4.790000     -7.6819985E-24
   4.800000     -7.9024062E-24
   4.810000     -8.1003898E-24
   4.820000     -8.2728892E-24
   4.830000     -8.4166907E-24
   4.840000     -8.5284289E-24
   4.850000     -8.6045934E-24
   4.860000     -8.6415389E-24
   4.870000     -8.6354923E-24
   4.880000     -8.5825660E-24
   4.890000     -8.4787709E-24
   4.900000     -8.3200300E-24
   4.910000     -8.1021955E-24
   4.920000     -7.8210660E-24
   4.930000     -7.4724021E-24
   4.940000     -7.0519455E-24
   4.950000     -6.5554392E-24
   4.960000     -5.9786447E-24
   4.970000     -5.3173647E-24
   4.980000     -4.5674597E-24
   4.990000     -3.7248706E-24
   5.000000     -2.7856426E-24
   5.010000     -1.7459409E-24
   5.020000     -6.0207851E-25
   5.030000      6.4946129E-25
   5.040000      2.0119998E-24
   5.050000      3.4886328E-24
   5.060000      5.0822044E-24
   5.070000      6.7952739E-24
   5.080000      8.6300783E-24
   5.090000      1.0588498E-23
   5.100000      1.2672015E-23
   5.110000      1.4881667E-23
   5.120000      1.7218002E-23
   5.130000      1.9681029E-23
   5.140000      2.2270167E-23
   5.150000      2.4984184E-23
   5.160000      2.7821149E-23
   5.170000      3.0778367E-23
   5.180000      3.3852325E-23
   5.190000      3.7038629E-23
   5.200000      4.0331946E-23
   5.210000      4.3725948E-23
   5.220000      4.7213259E-23
   5.230000      5.0785404E-23
   5.240000      5.4432759E-23
   5.250000      5.8144489E-23
   5.260000      6.1908516E-23
   5.270000      6.5711482E-23
   5.280000      6.9538714E-23
   5.290000      7.3374199E-23
   5.300000      7.7200528E-23
   5.310000      8.0998900E-23
   5.320000      8.4749088E-23
   5.330000      8.8429427E-23
   5.340000      9.2016800E-23
   5.350000      9.5486621E-23
   5.360000      9.8812850E-23
   5.370000      1.0196795E-22
   5.380000      1.0492293E-22
   5.390000      1.0764729E-22
   5.400000      1.1010910E-22
   5.410000      1.1227498E-22
   5.420000      1.1411006E-22
   5.430000      1.1557813E-22
   5.440000      1.1664155E-22
   5.450000      1.1726140E-22
   5.460000      1.1739742E-22
   5.470000      1.1700820E-22
   5.480000      1.1605112E-22
   5.490000      1.1448259E-22
   5.500000      1.1225804E-22
   5.510000      1.0933213E-22
   5.520000      1.0565890E-22
   5.530000      1.0119181E-22
   5.540000      9.5884068E-23
   5.550000      8.9688739E-23
   5.560000      8.2559014E-23
   5.570000      7.4448420E-23
   5.580000      6.5311120E-23
   5.590000      5.5102130E-23
   5.600000      4.3777653E-23
   5.610000      3.1295374E-23
   5.620000      1.7614765E-23
   5.630000      2.6974251E-24
   5.640000     -1.3492560E-23
   5.650000     -3.0988233E-23
   5.660000     -4.9819444E-23
   5.670000     -7.0012472E-23
   5.680000     -9.1589591E-23
   5.690000     -1.1456871E-22
   5.700000     -1.3896291E-22
   5.710000     -1.6478006E-22
   5.720000     -1.9202226E-22
   5.730000     -2.2068559E-22
   5.740000     -2.5075957E-22
   5.750000     -2.8222656E-22
   5.760000     -3.1506150E-22
   5.770000     -3.4923117E-22
   5.780000     -3.8469389E-22
   5.790000     -4.2139879E-22
   5.800000     -4.5928557E-22
   5.810000     -4.9828368E-22
   5.820000     -5.3831192E-22
   5.830000     -5.7927780E-22
   5.840000     -6.2107718E-22
   5.850000     -6.6359348E-22
   5.860000     -7.0669739E-22
   5.870000     -7.5024615E-22
   5.880000     -7.9408324E-22
   5.890000     -8.3803776E-22
   5.900000     -8.8192418E-22
   5.910000     -9.2554160E-22
   5.920000     -9.6867394E-22
   5.930000     -1.0110889E-21
   5.940000     -1.0525384E-21
   5.950000     -1.0927578E-21
   5.960000     -1.1314663E-21
   5.970000     -1.1683664E-21
   5.980000     -1.2031440E-21
   5.990000     -1.2354687E-21
   6.000000     -1.2649935E-21
   6.010000     -1.2913553E-21
   6.020000     -1.3141751E-21
   6.030000     -1.3330582E-21
   6.040000     -1.3475951E-21
   6.050000     -1.3573614E-21
   6.060000     -1.3619187E-21
   6.070000     -1.3608158E-21
   6.080000     -1.3535886E-21
   6.090000     -1.3397617E-21
   6.100000     -1.3188491E-21
   6.110000     -1.2903553E-21
   6.120000     -1.2537771E-21
   6.130000     -1.2086045E-21
   6.140000     -1.1543222E-21
   6.150000     -1.0904117E-21
   6.160000     -1.0163527E-21
   6.170000     -9.3162539E-22
   6.180000     -8.3571238E-22
   6.190000     -7.2810155E-22
   6.200000     -6.0828789E-22
   6.210000     -4.7577648E-22
   6.220000     -3.3008571E-22
   6.230000     -1.7074979E-22
   6.240000      2.6779303E-24
   6.250000      1.9062122E-22
   6.260000      3.9347723E-22
   6.270000      6.1161333E-22
   6.280000      8.4536283E-22
   6.290000      1.0950208E-21
   6.300000      1.3608397E-21
   6.310000      1.6430250E-21
   6.320000      1.9417306E-21
   6.330000      2.2570550E-21
   6.340000      2.5890353E-21
   6.350000      2.9376425E-21
   6.360000      3.3027761E-21
   6.370000      3.6842616E-21
   6.380000      4.0818419E-21
   6.390000      4.4951737E-21
   6.400000      4.9238217E-21
   6.410000      5.3672551E-21
   6.420000      5.8248391E-21
   6.430000      6.2958324E-21
   6.440000      6.7793800E-21
   6.450000      7.2745082E-21
   6.460000      7.7801216E-21
   6.470000      8.2949922E-21
   6.480000      8.8177607E-21
   6.490000      9.3469260E-21
   6.500000      9.8808453E-21
   6.510000      1.0417724E-20
   6.520000      1.0955618E-20
   6.530000      1.1492421E-20
   6.540000      1.2025866E-20
   6.550000      1.2553522E-20
   6.560000      1.3072787E-20
   6.570000      1.3580886E-20
   6.580000      1.4074872E-20
   6.590000      1.4551622E-20
   6.600000      1.5007832E-20
   6.610000      1.5440022E-20
   6.620000      1.5844532E-20
   6.630000      1.6217519E-20
   6.640000      1.6554971E-20
   6.650000      1.6852695E-20
   6.660000      1.7106329E-20
   6.670000      1.7311341E-20
   6.680000      1.7463033E-20
   6.690000      1.7556556E-20
   6.700000      1.7586905E-20
   6.710000      1.7548934E-20
   6.720000      1.7437363E-20
   6.730000      1.7246790E-20
   6.740000      1.6971696E-20
   6.750000      1.6606467E-20
   6.760000      1.6145399E-20
   6.770000      1.5582721E-20
   6.780000      1.4912606E-20
   6.790000      1.4129190E-20
   6.800000      1.3226599E-20
   6.810000      1.2198956E-20
   6.820000      1.1040411E-20
   6.830000      9.7451667E-21
   6.840000      8.3075009E-21
   6.850000      6.7217945E-21
   6.860000      4.9825616E-21
   6.870000      3.0844798E-21
   6.880000      1.0224209E-21
   6.890000     -1.2085149E-21
   6.900000     -3.6129621E-21
   6.910000     -6.1952516E-21
   6.920000     -8.9593750E-21
   6.930000     -1.1908941E-20
   6.940000     -1.5047134E-20
   6.950000     -1.8376675E-20
   6.960000     -2.1899765E-20
   6.970000     -2.5618050E-20
   6.980000     -2.9532568E-20
   6.990000     -3.3643697E-20
   7.000000     -3.7951114E-20
   7.010000     -4.2453730E-20
   7.020000     -4.7149654E-20
   7.030000     -5.2036120E-20
   7.040000     -5.7109454E-20
   7.050000     -6.2365004E-20
   7.060000     -6.7797099E-20