  -2.600000      0.0000000E+00
  -2.590000      0.0000000E+00
  -2.580000      0.0000000E+00
  -2.570000      0.0000000E+00
  -2.560000      0.0000000E+00
  -2.550000      0.0000000E+00
  -2.540000      0.0000000E+00
  -2.530000      0.0000000E+00
  -2.520000      0.0000000E+00
  -2.510000      0.0000000E+00
  -2.500000      0.0000000E+00
  -2.490000      0.0000000E+00
  -2.480000      0.0000000E+00
  -2.470000      0.0000000E+00
  -2.460000      0.0000000E+00
  -2.450000      0.0000000E+00
  -2.440000      0.0000000E+00
  -2.430000      0.0000000E+00
  -2.420000      0.0000000E+00
  -2.410000      0.0000000E+00
  -2.400000      0.0000000E+00
  -2.390000      0.0000000E+00
  -2.380000      0.0000000E+00
  -2.370000      0.0000000E+00
  -2.360000      0.0000000E+00
  -2.350000      0.0000000E+00
  -2.340000      0.0000000E+00
  -2.330000      0.0000000E+00
  -2.320000      0.0000000E+00
  -2.310000      0.0000000E+00
  -2.300000      0.0000000E+00
  -2.290000      0.0000000E+00
  -2.280000      0.0000000E+00
  -2.270000      0.0000000E+00
  -2.260000      0.0000000E+00
  -2.250000      0.0000000E+00
  -2.240000      0.0000000E+00
  -2.230000      0.0000000E+00
  -2.220000      0.0000000E+00
  -2.210000      0.0000000E+00
  -2.200000      0.0000000E+00
  -2.190000      0.0000000E+00
  -2.180000      0.0000000E+00
  -2.170000      0.0000000E+00
  -2.160000      0.0000000E+00
  -2.150000      0.0000000E+00
  -2.140000      0.0000000E+00
  -2.130000      0.0000000E+00
  -2.120000      0.0000000E+00
  -2.110000      0.0000000E+00
  -2.100000      0.0000000E+00
  -2.090000      0.0000000E+00
  -2.080000      0.0000000E+00
  -2.070000      0.0000000E+00
  -2.060000      0.0000000E+00
  -2.050000      0.0000000E+00
  -2.040000      0.0000000E+00
  -2.030000      0.0000000E+00
  -2.020000      0.0000000E+00
  -2.010000      0.0000000E+00
  -2.000000      0.0000000E+00
  -1.990000      0.0000000E+00
  -1.980000      0.0000000E+00
  -1.970000      0.0000000E+00
  -1.960000      0.0000000E+00
  -1.950000      0.0000000E+00
  -1.940000      0.0000000E+00
  -1.930000      0.0000000E+00
  -1.920000      0.0000000E+00
  -1.910000      0.0000000E+00
  -1.900000      0.0000000E+00
  -1.890000      0.0000000E+00
  -1.880000      0.0000000E+00
  -1.870000      0.0000000E+00
  -1.860000      0.0000000E+00
  -1.850000      0.0000000E+00
  -1.840000      0.0000000E+00
  -1.830000      0.0000000E+00
  -1.820000      0.0000000E+00
  -1.810000      0.0000000E+00
  -1.800000      0.0000000E+00
  -1.790000      0.0000000E+00
  -1.780000      0.0000000E+00
  -1.770000      0.0000000E+00
  -1.760000      0.0000000E+00
  -1.750000      0.0000000E+00
  -1.740000      0.0000000E+00
  -1.730000      0.0000000E+00
  -1.720000      0.0000000E+00
  -1.710000      0.0000000E+00
  -1.700000      0.0000000E+00
  -1.690000      0.0000000E+00
  -1.680000      0.0000000E+00
  -1.670000      0.0000000E+00
  -1.660000      0.0000000E+00
  -1.650000      0.0000000E+00
  -1.640000      0.0000000E+00
  -1.630000      0.0000000E+00
  -1.620000      0.0000000E+00
  -1.610000      0.0000000E+00
  -1.600000      0.0000000E+00
  -1.590000      0.0000000E+00
  -1.580000      0.0000000E+00
  -1.570000      0.0000000E+00
  -1.560000      0.0000000E+00
  -1.550000      0.0000000E+00
  -1.540000      0.0000000E+00
  -1.530000      0.0000000E+00
  -1.520000      0.0000000E+00
  -1.510000      0.0000000E+00
  -1.500000      0.0000000E+00
  -1.490000      0.0000000E+00
  -1.480000      0.0000000E+00
  -1.470000      0.0000000E+00
  -1.460000      0.0000000E+00
  -1.450000      0.0000000E+00
  -1.440000      0.0000000E+00
  -1.430000      0.0000000E+00
  -1.420000      0.0000000E+00
  -1.410000      0.0000000E+00
  -1.400000      0.0000000E+00
  -1.390000      0.0000000E+00
  -1.380000      0.0000000E+00
  -1.370000      0.0000000E+00
  -1.360000      0.0000000E+00
  -1.350000      0.0000000E+00
  -1.340000      0.0000000E+00
  -1.330000      0.0000000E+00
  -1.320000      0.0000000E+00
  -1.310000      0.0000000E+00
  -1.300000      0.0000000E+00
  -1.290000      0.0000000E+00
  -1.280000      0.0000000E+00
  -1.270000      0.0000000E+00
  -1.260000      0.0000000E+00
  -1.250000      0.0000000E+00
  -1.240000      0.0000000E+00
  -1.230000      0.0000000E+00
  -1.220000      0.0000000E+00
  -1.210000      0.0000000E+00
  -1.200000      0.0000000E+00
  -1.190000      0.0000000E+00
  -1.180000      0.0000000E+00
  -1.170000      0.0000000E+00
  -1.160000      0.0000000E+00
  -1.150000      0.0000000E+00
  -1.140000      0.0000000E+00
  -1.130000      0.0000000E+00
  -1.120000      0.0000000E+00
  -1.110000      0.0000000E+00
  -1.100000      0.0000000E+00
  -1.090000      0.0000000E+00
  -1.080000      0.0000000E+00
  -1.070000      0.0000000E+00
  -1.060000      0.0000000E+00
  -1.050000      0.0000000E+00
  -1.040000      0.0000000E+00
  -1.030000      0.0000000E+00
  -1.020000      0.0000000E+00
  -1.010000      0.0000000E+00
  -1.000000      0.0000000E+00
 -0.9900000      0.0000000E+00
 -0.9800000      0.0000000E+00
 -0.9700000      0.0000000E+00
 -0.9600000      0.0000000E+00
 -0.9500000      0.0000000E+00
 -0.9400000      0.0000000E+00
 -0.9300000      0.0000000E+00
 -0.9200000      0.0000000E+00
 -0.9100000      0.0000000E+00
 -0.9000000      0.0000000E+00
 -0.8900000      0.0000000E+00
 -0.8800000      0.0000000E+00
 -0.8700000      0.0000000E+00
 -0.8600000      0.0000000E+00
 -0.8500000      0.0000000E+00
 -0.8400000      0.0000000E+00
 -0.8300000      0.0000000E+00
 -0.8200000      0.0000000E+00
 -0.8100000      0.0000000E+00
 -0.8000000      0.0000000E+00
 -0.7900000      0.0000000E+00
 -0.7800000      0.0000000E+00
 -0.7700000      0.0000000E+00
 -0.7600000      0.0000000E+00
 -0.7500000      0.0000000E+00
 -0.7400000      0.0000000E+00
 -0.7300000      0.0000000E+00
 -0.7200000      0.0000000E+00
 -0.7100000      0.0000000E+00
 -0.7000000      0.0000000E+00
 -0.6900000      0.0000000E+00
 -0.6800000      0.0000000E+00
 -0.6700000      0.0000000E+00
 -0.6600000      0.0000000E+00
 -0.6500000      0.0000000E+00
 -0.6400000      0.0000000E+00
 -0.6300000      0.0000000E+00
 -0.6200000      0.0000000E+00
 -0.6100000      0.0000000E+00
 -0.6000000      0.0000000E+00
 -0.5900000      0.0000000E+00
 -0.5800000      0.0000000E+00
 -0.5700000      0.0000000E+00
 -0.5600000      0.0000000E+00
 -0.5500000      0.0000000E+00
 -0.5400000      0.0000000E+00
 -0.5300000      0.0000000E+00
 -0.5200000      0.0000000E+00
 -0.5100000      0.0000000E+00
 -0.5000000      0.0000000E+00
 -0.4900000      0.0000000E+00
 -0.4800000      0.0000000E+00
 -0.4700000      0.0000000E+00
 -0.4600000      0.0000000E+00
 -0.4500000      0.0000000E+00
 -0.4400000      0.0000000E+00
 -0.4300000      0.0000000E+00
 -0.4200000      0.0000000E+00
 -0.4100000      0.0000000E+00
 -0.4000000      0.0000000E+00
 -0.3900000      0.0000000E+00
 -0.3800000      0.0000000E+00
 -0.3700000      0.0000000E+00
 -0.3600000      0.0000000E+00
 -0.3500000      0.0000000E+00
 -0.3400000      0.0000000E+00
 -0.3300000      0.0000000E+00
 -0.3200000      0.0000000E+00
 -0.3100000      0.0000000E+00
 -0.3000000      0.0000000E+00
 -0.2900000      0.0000000E+00
 -0.2800000      0.0000000E+00
 -0.2700000      0.0000000E+00
 -0.2600000      0.0000000E+00
 -0.2500000      0.0000000E+00
 -0.2400000      0.0000000E+00
 -0.2300000      0.0000000E+00
 -0.2200000      0.0000000E+00
 -0.2100000      0.0000000E+00
 -0.2000000      0.0000000E+00
 -0.1900000      0.0000000E+00
 -0.1800000      0.0000000E+00
 -0.1700000      0.0000000E+00
 -0.1600000      0.0000000E+00
 -0.1500000      0.0000000E+00
 -0.1400000      0.0000000E+00
 -0.1300000      0.0000000E+00
 -0.1200000      0.0000000E+00
 -0.1100000      0.0000000E+00
 -0.1000000      0.0000000E+00
 -9.0000004E-02  0.0000000E+00
 -7.9999998E-02  0.0000000E+00
 -7.0000000E-02  0.0000000E+00
 -5.9999999E-02  0.0000000E+00
 -5.0000001E-02  0.0000000E+00
 -3.9999999E-02  0.0000000E+00
 -2.9999999E-02  0.0000000E+00
 -2.0000000E-02  0.0000000E+00
 -9.9999998E-03  0.0000000E+00
 -3.4694470E-17  0.0000000E+00
  9.9999998E-03  0.0000000E+00
  2.0000000E-02  0.0000000E+00
  2.9999999E-02  0.0000000E+00
  3.9999999E-02  0.0000000E+00
  5.0000001E-02  0.0000000E+00
  5.9999999E-02  0.0000000E+00
  7.0000000E-02  0.0000000E+00
  7.9999998E-02  0.0000000E+00
  9.0000004E-02  0.0000000E+00
  0.1000000      0.0000000E+00
  0.1100000      0.0000000E+00
  0.1200000      0.0000000E+00
  0.1300000      0.0000000E+00
  0.1400000      0.0000000E+00
  0.1500000      0.0000000E+00
  0.1600000      0.0000000E+00
  0.1700000      0.0000000E+00
  0.1800000      0.0000000E+00
  0.1900000      0.0000000E+00
  0.2000000      0.0000000E+00
  0.2100000      0.0000000E+00
  0.2200000      0.0000000E+00
  0.2300000      0.0000000E+00
  0.2400000      0.0000000E+00
  0.2500000      0.0000000E+00
  0.2600000      0.0000000E+00
  0.2700000      0.0000000E+00
  0.2800000      0.0000000E+00
  0.2900000      0.0000000E+00
  0.3000000      0.0000000E+00
  0.3100000      0.0000000E+00
  0.3200000      0.0000000E+00
  0.3300000      0.0000000E+00
  0.3400000      0.0000000E+00
  0.3500000      0.0000000E+00
  0.3600000      0.0000000E+00
  0.3700000      0.0000000E+00
  0.3800000      0.0000000E+00
  0.3900000      0.0000000E+00
  0.4000000      0.0000000E+00
  0.4100000      0.0000000E+00
  0.4200000      0.0000000E+00
  0.4300000      0.0000000E+00
  0.4400000      0.0000000E+00
  0.4500000      0.0000000E+00
  0.4600000      0.0000000E+00
  0.4700000      0.0000000E+00
  0.4800000      0.0000000E+00
  0.4900000      0.0000000E+00
  0.5000000      0.0000000E+00
  0.5100000      0.0000000E+00
  0.5200000      0.0000000E+00
  0.5300000      0.0000000E+00
  0.5400000      0.0000000E+00
  0.5500000      0.0000000E+00
  0.5600000      0.0000000E+00
  0.5700000      0.0000000E+00
  0.5800000      0.0000000E+00
  0.5900000      0.0000000E+00
  0.6000000      0.0000000E+00
  0.6100000      0.0000000E+00
  0.6200000      0.0000000E+00
  0.6300000      0.0000000E+00
  0.6400000      0.0000000E+00
  0.6500000      0.0000000E+00
  0.6600000      0.0000000E+00
  0.6700000      0.0000000E+00
  0.6800000      0.0000000E+00
  0.6900000      0.0000000E+00
  0.7000000      0.0000000E+00
  0.7100000      0.0000000E+00
  0.7200000      0.0000000E+00
  0.7300000      0.0000000E+00
  0.7400000      0.0000000E+00
  0.7500000      0.0000000E+00
  0.7600000      0.0000000E+00
  0.7700000      0.0000000E+00
  0.7800000      0.0000000E+00
  0.7900000      0.0000000E+00
  0.8000000      0.0000000E+00
  0.8100000      0.0000000E+00
  0.8200000      0.0000000E+00
  0.8300000      0.0000000E+00
  0.8400000      0.0000000E+00
  0.8500000      0.0000000E+00
  0.8600000      0.0000000E+00
  0.8700000      0.0000000E+00
  0.8800000      0.0000000E+00
  0.8900000      0.0000000E+00
  0.9000000      0.0000000E+00
  0.9100000      0.0000000E+00
  0.9200000      0.0000000E+00
  0.9300000      0.0000000E+00
  0.9400000      0.0000000E+00
  0.9500000      0.0000000E+00
  0.9600000      0.0000000E+00
  0.9700000      0.0000000E+00
  0.9800000      0.0000000E+00
  0.9900000      0.0000000E+00
   1.000000      0.0000000E+00
   1.010000      0.0000000E+00
   1.020000      0.0000000E+00
   1.030000      0.0000000E+00
   1.040000      0.0000000E+00
   1.050000      0.0000000E+00
   1.060000      0.0000000E+00
   1.070000      0.0000000E+00
   1.080000      0.0000000E+00
   1.090000      0.0000000E+00
   1.100000      0.0000000E+00
   1.110000      0.0000000E+00
   1.120000      0.0000000E+00
   1.130000      0.0000000E+00
   1.140000      0.0000000E+00
   1.150000      0.0000000E+00
   1.160000      0.0000000E+00
   1.170000      0.0000000E+00
   1.180000      0.0000000E+00
   1.190000      0.0000000E+00
   1.200000      0.0000000E+00
   1.210000      0.0000000E+00
   1.220000      0.0000000E+00
   1.230000      0.0000000E+00
   1.240000      0.0000000E+00
   1.250000      0.0000000E+00
   1.260000      0.0000000E+00
   1.270000      0.0000000E+00
   1.280000      0.0000000E+00
   1.290000      0.0000000E+00
   1.300000      0.0000000E+00
   1.310000      0.0000000E+00
   1.320000      0.0000000E+00
   1.330000      0.0000000E+00
   1.340000      0.0000000E+00
   1.350000      0.0000000E+00
   1.360000      0.0000000E+00
   1.370000      0.0000000E+00
   1.380000      0.0000000E+00
   1.390000      0.0000000E+00
   1.400000      0.0000000E+00
   1.410000      0.0000000E+00
   1.420000      0.0000000E+00
   1.430000      0.0000000E+00
   1.440000      0.0000000E+00
   1.450000      0.0000000E+00
   1.460000      0.0000000E+00
   1.470000      0.0000000E+00
   1.480000      0.0000000E+00
   1.490000      0.0000000E+00
   1.500000      0.0000000E+00
   1.510000      0.0000000E+00
   1.520000      0.0000000E+00
   1.530000      0.0000000E+00
   1.540000      0.0000000E+00
   1.550000      0.0000000E+00
   1.560000      0.0000000E+00
   1.570000      0.0000000E+00
   1.580000      0.0000000E+00
   1.590000      0.0000000E+00
   1.600000      0.0000000E+00
   1.610000      0.0000000E+00
   1.620000      0.0000000E+00
   1.630000      0.0000000E+00
   1.640000      0.0000000E+00
   1.650000      0.0000000E+00
   1.660000      0.0000000E+00
   1.670000      0.0000000E+00
   1.680000      0.0000000E+00
   1.690000      0.0000000E+00
   1.700000      0.0000000E+00
   1.710000      0.0000000E+00
   1.720000      0.0000000E+00
   1.730000      0.0000000E+00
   1.740000      0.0000000E+00
   1.750000      0.0000000E+00
   1.760000      0.0000000E+00
   1.770000      0.0000000E+00
   1.780000      0.0000000E+00
   1.790000      0.0000000E+00
   1.800000      0.0000000E+00
   1.810000      0.0000000E+00
   1.820000      0.0000000E+00
   1.830000      0.0000000E+00
   1.840000      0.0000000E+00
   1.850000      0.0000000E+00
   1.860000      0.0000000E+00
   1.870000      0.0000000E+00
   1.880000      0.0000000E+00
   1.890000      0.0000000E+00
   1.900000      0.0000000E+00
   1.910000      0.0000000E+00
   1.920000      0.0000000E+00
   1.930000      0.0000000E+00
   1.940000      0.0000000E+00
   1.950000      0.0000000E+00
   1.960000      1.2832053E-38
   1.970000      1.4930092E-38
   1.980000      1.7125333E-38
   1.990000      1.9101972E-38
   2.000000      1.9410014E-38
   2.010000      1.7081662E-38
   2.020000      1.2865189E-38
   2.030000      0.0000000E+00
   2.040000      0.0000000E+00
   2.050000      0.0000000E+00
   2.060000      0.0000000E+00
   2.070000      0.0000000E+00
   2.080000     -1.4707949E-38
   2.090000     -1.6008418E-38
   2.100000     -1.4609510E-38
   2.110000      0.0000000E+00
   2.120000      0.0000000E+00
   2.130000      0.0000000E+00
   2.140000      0.0000000E+00
   2.150000      0.0000000E+00
   2.160000      0.0000000E+00
   2.170000      0.0000000E+00
   2.180000      0.0000000E+00
   2.190000      0.0000000E+00
   2.200000     -1.2611870E-38
   2.210000     -1.8002235E-38
   2.220000     -2.4169512E-38
   2.230000     -3.1615513E-38
   2.240000     -4.9643991E-38
   2.250000     -7.0964411E-38
   2.260000     -8.3660932E-38
   2.270000     -9.5742406E-38
   2.280000     -1.1053082E-37
   2.290000     -1.2616674E-37
   2.300000     -1.4073850E-37
   2.310000     -1.5186607E-37
   2.320000     -1.7347899E-37
   2.330000     -2.0999451E-37
   2.340000     -2.4084343E-37
   2.350000     -2.7279777E-37
   2.360000     -3.1469159E-37
   2.370000     -3.6189344E-37
   2.380000     -4.1650294E-37
   2.390000     -4.7471010E-37
   2.400000     -5.3950341E-37
   2.410000     -6.1675069E-37
   2.420000     -7.0880443E-37
   2.430000     -8.0229462E-37
   2.440000     -8.9363417E-37
   2.450000     -9.5425466E-37
   2.460000     -9.6223063E-37
   2.470000     -9.3777001E-37
   2.480000     -8.6999855E-37
   2.490000     -7.5047429E-37
   2.500000     -6.0683968E-37
   2.510000     -4.4624764E-37
   2.520000     -2.4887224E-37
   2.530000      3.0262035E-38
   2.540000      3.8620741E-37
   2.550000      7.2080582E-37
   2.560000      1.0562903E-36
   2.570000      1.4586990E-36
   2.580000      1.8932250E-36
   2.590000      2.3466122E-36
   2.600000      2.8153095E-36
   2.610000      3.3770678E-36
   2.620000      4.0615109E-36
   2.630000      4.7880269E-36
   2.640000      5.7391488E-36
   2.650000      6.8397004E-36
   2.660000      7.8772894E-36
   2.670000      8.9060349E-36
   2.680000      9.9504757E-36
   2.690000      1.0763611E-35
   2.700000      1.1268058E-35
   2.710000      1.1652854E-35
   2.720000      1.1919560E-35
   2.730000      1.1967904E-35
   2.740000      1.1761420E-35
   2.750000      1.1166729E-35
   2.760000      1.0241048E-35
   2.770000      9.2945163E-36
   2.780000      8.3480575E-36
   2.790000      7.4785203E-36
   2.800000      6.7301615E-36
   2.810000      6.1057160E-36
   2.820000      5.5043416E-36
   2.830000      4.6661192E-36
   2.840000      3.5890431E-36
   2.850000      2.5586845E-36
   2.860000      1.3903048E-36
   2.870000      9.6000267E-38
   2.880000     -1.1111170E-36
   2.890000     -2.5514627E-36
   2.900000     -4.1957999E-36
   2.910000     -5.8503222E-36
   2.920000     -8.0302335E-36
   2.930000     -1.0866063E-35
   2.940000     -1.3833815E-35
   2.950000     -1.6901561E-35
   2.960000     -2.0609294E-35
   2.970000     -2.4570512E-35
   2.980000     -2.8211024E-35
   2.990000     -3.1845996E-35
   3.000000     -3.5505293E-35
   3.010000     -3.9062070E-35
   3.020000     -4.2429136E-35
   3.030000     -4.5672854E-35
   3.040000     -4.9143866E-35
   3.050000     -5.2850111E-35
   3.060000     -5.6576342E-35
   3.070000     -6.0094198E-35
   3.080000     -6.3493461E-35
   3.090000     -6.7055622E-35
   3.100000     -7.0336732E-35
   3.110000     -7.3080421E-35
   3.120000     -7.4842015E-35
   3.130000     -7.5117286E-35
   3.140000     -7.4088935E-35
   3.150000     -7.2367479E-35
   3.160000     -7.0333764E-35
   3.170000     -6.7904888E-35
   3.180000     -6.4867612E-35
   3.190000     -6.1436885E-35
   3.200000     -5.7718351E-35
   3.210000     -5.3850412E-35
   3.220000     -5.0148058E-35
   3.230000     -4.5651632E-35
   3.240000     -4.0018850E-35
   3.250000     -3.3596357E-35
   3.260000     -2.6088166E-35
   3.270000     -1.7632656E-35
   3.280000     -7.8442394E-36
   3.290000      3.8206530E-36
   3.300000      1.6007201E-35
   3.310000      2.8037122E-35
   3.320000      4.1088464E-35
   3.330000      5.4856946E-35
   3.340000      6.9941638E-35
   3.350000      8.7645639E-35
   3.360000      1.0743102E-34
   3.370000      1.2873035E-34
   3.380000      1.4891529E-34
   3.390000      1.6749314E-34
   3.400000      1.8516999E-34
   3.410000      2.0217070E-34
   3.420000      2.2040528E-34
   3.430000      2.4045770E-34
   3.440000      2.6136699E-34
   3.450000      2.8262027E-34
   3.460000      3.0375995E-34
   3.470000      3.2554731E-34
   3.480000      3.4802244E-34
   3.490000      3.6900969E-34
   3.500000      3.8859276E-34
   3.510000      4.0702612E-34
   3.520000      4.2377026E-34
   3.530000      4.4042936E-34
   3.540000      4.5504314E-34
   3.550000      4.6505146E-34
   3.560000      4.7155516E-34
   3.570000      4.7392851E-34
   3.580000      4.7264598E-34
   3.590000      4.6751219E-34
   3.600000      4.5670559E-34
   3.610000      4.4078774E-34
   3.620000      4.2108269E-34
   3.630000      3.9824495E-34
   3.640000      3.7467138E-34
   3.650000      3.4888420E-34
   3.660000      3.1623833E-34
   3.670000      2.7794034E-34
   3.680000      2.3423856E-34
   3.690000      1.7970003E-34
   3.700000      1.1769571E-34
   3.710000      5.1389473E-35
   3.720000     -2.3393988E-35
   3.730000     -1.0399895E-34
   3.740000     -1.8693080E-34
   3.750000     -2.7602107E-34
   3.760000     -3.7237776E-34
   3.770000     -4.7233324E-34
   3.780000     -5.7508200E-34
   3.790000     -6.7919049E-34
   3.800000     -7.8673789E-34
   3.810000     -8.9974037E-34
   3.820000     -1.0136804E-33
   3.830000     -1.1290689E-33
   3.840000     -1.2478047E-33
   3.850000     -1.3712369E-33
   3.860000     -1.5004231E-33
   3.870000     -1.6330339E-33
   3.880000     -1.7673640E-33
   3.890000     -1.9025461E-33
   3.900000     -2.0372579E-33
   3.910000     -2.1685421E-33
   3.920000     -2.2935862E-33
   3.930000     -2.4134221E-33
   3.940000     -2.5299753E-33
   3.950000     -2.6438409E-33
   3.960000     -2.7550081E-33
   3.970000     -2.8601756E-33
   3.980000     -2.9552804E-33
   3.990000     -3.0352719E-33
   4.000000     -3.1029491E-33
   4.010000     -3.1601186E-33
   4.020000     -3.2018497E-33
   4.030000     -3.2280981E-33
   4.040000     -3.2373882E-33
   4.050000     -3.2282528E-33
   4.060000     -3.1964263E-33
   4.070000     -3.1353604E-33
   4.080000     -3.0439643E-33
   4.090000     -2.9218484E-33
   4.100000     -2.7679388E-33
   4.110000     -2.5765393E-33
   4.120000     -2.3458174E-33
   4.130000     -2.0815733E-33
   4.140000     -1.7809035E-33
   4.150000     -1.4365383E-33
   4.160000     -1.0491641E-33
   4.170000     -6.1963076E-34
   4.180000     -1.4594303E-34
   4.190000      3.7189351E-34
   4.200000      9.3164760E-34
   4.210000      1.5312539E-33
   4.220000      2.1708758E-33
   4.230000      2.8523310E-33
   4.240000      3.5742375E-33
   4.250000      4.3326845E-33
   4.260000      5.1259330E-33
   4.270000      5.9558056E-33
   4.280000      6.8239725E-33
   4.290000      7.7263782E-33
   4.300000      8.6594804E-33
   4.310000      9.6216777E-33
   4.320000      1.0611165E-32
   4.330000      1.1622960E-32
   4.340000      1.2655174E-32
   4.350000      1.3707982E-32
   4.360000      1.4776267E-32
   4.370000      1.5855298E-32
   4.380000      1.6941194E-32
   4.390000      1.8028920E-32
   4.400000      1.9112141E-32
   4.410000      2.0183081E-32
   4.420000      2.1237292E-32
   4.430000      2.2268528E-32
   4.440000      2.3265857E-32
   4.450000      2.4219280E-32
   4.460000      2.5119289E-32
   4.470000      2.5957484E-32
   4.480000      2.6722883E-32
   4.490000      2.7402801E-32
   4.500000      2.7985332E-32
   4.510000      2.8458824E-32
   4.520000      2.8810170E-32
   4.530000      2.9026012E-32
   4.540000      2.9093074E-32
   4.550000      2.8998038E-32
   4.560000      2.8726663E-32
   4.570000      2.8267048E-32
   4.580000      2.7609670E-32
   4.590000      2.6736989E-32
   4.600000      2.5636588E-32
   4.610000      2.4299903E-32
   4.620000      2.2710946E-32
   4.630000      2.0856109E-32
   4.640000      1.8724101E-32
   4.650000      1.6304791E-32
   4.660000      1.3585810E-32
   4.670000      1.0554823E-32
   4.680000      7.2027939E-33
   4.690000      3.5199580E-33
   4.700000     -5.0190904E-34
   4.710000     -4.8716817E-33
   4.720000     -9.5977262E-33
   4.730000     -1.4685930E-32
   4.740000     -2.0141038E-32
   4.750000     -2.5966400E-32
   4.760000     -3.2164937E-32
   4.770000     -3.8740256E-32
   4.780000     -4.5688970E-32
   4.790000     -5.3006796E-32
   4.800000     -6.0692678E-32
   4.810000     -6.8740182E-32
   4.820000     -7.7140218E-32
   4.830000     -8.5881482E-32
   4.840000     -9.4949675E-32
   4.850000     -1.0432810E-31
   4.860000     -1.1399608E-31
   4.870000     -1.2392972E-31
   4.880000     -1.3410352E-31
   4.890000     -1.4448936E-31
   4.900000     -1.5505495E-31
   4.910000     -1.6576236E-31
   4.920000     -1.7657022E-31
   4.930000     -1.8743431E-31
   4.940000     -1.9830658E-31
   4.950000     -2.0913425E-31
   4.960000     -2.1986152E-31
   4.970000     -2.3042870E-31
   4.980000     -2.4077096E-31
   4.990000     -2.5081824E-31
   5.000000     -2.6049839E-31
   5.010000     -2.6973688E-31
   5.020000     -2.7845120E-31
   5.030000     -2.8655508E-31
   5.040000     -2.9396046E-31
   5.050000     -3.0057489E-31
   5.060000     -3.0630183E-31
   5.070000     -3.1104039E-31
   5.080000     -3.1468628E-31
   5.090000     -3.1713175E-31
   5.100000     -3.1826500E-31
   5.110000     -3.1797291E-31
   5.120000     -3.1613959E-31
   5.130000     -3.1264372E-31
   5.140000     -3.0736248E-31
   5.150000     -3.0017193E-31
   5.160000     -2.9094607E-31
   5.170000     -2.7955734E-31
   5.180000     -2.6587729E-31
   5.190000     -2.4977729E-31
   5.200000     -2.3112878E-31
   5.210000     -2.0980385E-31
   5.220000     -1.8567597E-31
   5.230000     -1.5862069E-31
   5.240000     -1.2851633E-31
   5.250000     -9.5244771E-32
   5.260000     -5.8692310E-32
   5.270000     -1.8750379E-32
   5.280000      2.4683330E-32
   5.290000      7.1704056E-32
   5.300000      1.2239888E-31
   5.310000      1.7684572E-31
   5.320000      2.3511215E-31
   5.330000      2.9725445E-31
   5.340000      3.6331653E-31
   5.350000      4.3332841E-31
   5.360000      5.0730523E-31
   5.370000      5.8524605E-31
   5.380000      6.6713268E-31
   5.390000      7.5292797E-31
   5.400000      8.4257507E-31
   5.410000      9.3599584E-31
   5.420000      1.0330893E-30
   5.430000      1.1337304E-30
   5.440000      1.2377688E-30
   5.450000      1.3450278E-30
   5.460000      1.4553023E-30
   5.470000      1.5683575E-30
   5.480000      1.6839280E-30
   5.490000      1.8017161E-30
   5.500000      1.9213907E-30
   5.510000      2.0425856E-30
   5.520000      2.1648993E-30
   5.530000      2.2878925E-30
   5.540000      2.4110873E-30
   5.550000      2.5339671E-30
   5.560000      2.6559744E-30
   5.570000      2.7765103E-30
   5.580000      2.8949343E-30
   5.590000      3.0105625E-30
   5.600000      3.1226682E-30
   5.610000      3.2304808E-30
   5.620000      3.3331859E-30
   5.630000      3.4299247E-30
   5.640000      3.5197953E-30
   5.650000      3.6018512E-30
   5.660000      3.6751035E-30
   5.670000      3.7385208E-30
   5.680000      3.7910306E-30
   5.690000      3.8315203E-30
   5.700000      3.8588380E-30
   5.710000      3.8717966E-30
   5.720000      3.8691729E-30
   5.730000      3.8497120E-30
   5.740000      3.8121289E-30
   5.750000      3.7551131E-30
   5.760000      3.6773293E-30
   5.770000      3.5774243E-30
   5.780000      3.4540282E-30
   5.790000      3.3057613E-30
   5.800000      3.1312367E-30
   5.810000      2.9290673E-30
   5.820000      2.6978714E-30
   5.830000      2.4362775E-30
   5.840000      2.1429309E-30
   5.850000      1.8165031E-30
   5.860000      1.4556966E-30
   5.870000      1.0592533E-30
   5.880000      6.2596334E-31
   5.890000      1.5467431E-31
   5.900000     -3.5570135E-31
   5.910000     -9.0617543E-31
   5.920000     -1.4976743E-30
   5.930000     -2.1310279E-30
   5.940000     -2.8069586E-30
   5.950000     -3.5260723E-30
   5.960000     -4.2888447E-30
   5.970000     -5.0956089E-30
   5.980000     -5.9465434E-30
   5.990000     -6.8416607E-30
   6.000000     -7.7807931E-30
   6.010000     -8.7635793E-30
   6.020000     -9.7894530E-30
   6.030000     -1.0857626E-29
   6.040000     -1.1967076E-29
   6.050000     -1.3116534E-29
   6.060000     -1.4304469E-29
   6.070000     -1.5529071E-29
   6.080000     -1.6788246E-29
   6.090000     -1.8079592E-29
   6.100000     -1.9400395E-29
   6.110000     -2.0747604E-29
   6.120000     -2.2117829E-29
   6.130000     -2.3507328E-29
   6.140000     -2.4911984E-29
   6.150000     -2.6327303E-29
   6.160000     -2.7748404E-29
   6.170000     -2.9170006E-29
   6.180000     -3.0586413E-29
   6.190000     -3.1991517E-29
   6.200000     -3.3378776E-29
   6.210000     -3.4741233E-29
   6.220000     -3.6071482E-29
   6.230000     -3.7361684E-29
   6.240000     -3.8603556E-29
   6.250000     -3.9788380E-29
   6.260000     -4.0906990E-29
   6.270000     -4.1949788E-29
   6.280000     -4.2906746E-29
   6.290000     -4.3767408E-29
   6.300000     -4.4520913E-29
   6.310000     -4.5155994E-29
   6.320000     -4.5660991E-29
   6.330000     -4.6023879E-29
   6.340000     -4.6232288E-29
   6.350000     -4.6273512E-29
   6.360000     -4.6134550E-29
   6.370000     -4.5802126E-29
   6.380000     -4.5262727E-29
   6.390000     -4.4502632E-29
   6.400000     -4.3507952E-29
   6.410000     -4.2264677E-29
   6.420000     -4.0758720E-29
   6.430000     -3.8975953E-29
   6.440000     -3.6902283E-29
   6.450000     -3.4523700E-29
   6.460000     -3.1826326E-29
   6.470000     -2.8796505E-29
   6.480000     -2.5420837E-29
   6.490000     -2.1686272E-29
   6.500000     -1.7580186E-29
   6.510000     -1.3090471E-29
   6.520000     -8.2055863E-30
   6.530000     -2.9146751E-30
   6.540000      2.7923569E-30
   6.550000      8.9247375E-30
   6.560000      1.5490730E-29
   6.570000      2.2497545E-29
   6.580000      2.9951226E-29
   6.590000      3.7856545E-29
   6.600000      4.6216875E-29
   6.610000      5.5034098E-29
   6.620000      6.4308474E-29
   6.630000      7.4038549E-29
   6.640000      8.4220995E-29
   6.650000      9.4850503E-29
   6.660000      1.0591968E-28
   6.670000      1.1741894E-28
   6.680000      1.2933631E-28
   6.690000      1.4165737E-28
   6.700000      1.5436513E-28
   6.710000      1.6743987E-28
   6.720000      1.8085907E-28
   6.730000      1.9459726E-28
   6.740000      2.0862590E-28
   6.750000      2.2291332E-28
   6.760000      2.3742455E-28
   6.770000      2.5212127E-28
   6.780000      2.6696172E-28
   6.790000      2.8190053E-28
   6.800000      2.9688879E-28
   6.810000      3.1187378E-28
   6.820000      3.2679911E-28
   6.830000      3.4160453E-28
   6.840000      3.5622592E-28
   6.850000      3.7059529E-28
   6.860000      3.8464073E-28
   6.870000      3.9828641E-28
   6.880000      4.1145259E-28
   6.890000      4.2405568E-28
   6.900000      4.3600820E-28
   6.910000      4.4721894E-28
   6.920000      4.5759287E-28
   6.930000      4.6703151E-28
   6.940000      4.7543271E-28
   6.950000      4.8269101E-28
   6.960000      4.8869784E-28
   6.970000      4.9334145E-28
   6.980000      4.9650739E-28
   6.990000      4.9807847E-28
   7.000000      4.9793532E-28
   7.010000      4.9595643E-28
   7.020000      4.9201848E-28
   7.030000      4.8599672E-28
   7.040000      4.7776535E-28
   7.050000      4.6719801E-28
   7.060000      4.5416789E-28