  -2.600000      0.0000000E+00
  -2.590000      0.0000000E+00
  -2.580000      0.0000000E+00
  -2.570000      0.0000000E+00
  -2.560000      0.0000000E+00
  -2.550000      0.0000000E+00
  -2.540000      0.0000000E+00
  -2.530000      0.0000000E+00
  -2.520000      0.0000000E+00
  -2.510000      0.0000000E+00
  -2.500000      0.0000000E+00
  -2.490000      0.0000000E+00
  -2.480000      0.0000000E+00
  -2.470000      0.0000000E+00
  -2.460000      0.0000000E+00
  -2.450000      0.0000000E+00
  -2.440000      0.0000000E+00
  -2.430000      0.0000000E+00
  -2.420000      0.0000000E+00
  -2.410000      0.0000000E+00
  -2.400000      0.0000000E+00
  -2.390000      0.0000000E+00
  -2.380000      0.0000000E+00
  -2.370000      0.0000000E+00
  -2.360000      0.0000000E+00
  -2.350000      0.0000000E+00
  -2.340000      0.0000000E+00
  -2.330000      0.0000000E+00
  -2.320000      0.0000000E+00
  -2.310000      0.0000000E+00
  -2.300000      0.0000000E+00
  -2.290000      0.0000000E+00
  -2.280000      0.0000000E+00
  -2.270000      0.0000000E+00
  -2.260000      0.0000000E+00
  -2.250000      0.0000000E+00
  -2.240000      0.0000000E+00
  -2.230000      0.0000000E+00
  -2.220000      0.0000000E+00
  -2.210000      0.0000000E+00
  -2.200000      0.0000000E+00
  -2.190000      0.0000000E+00
  -2.180000      0.0000000E+00
  -2.170000      0.0000000E+00
  -2.160000      0.0000000E+00
  -2.150000      0.0000000E+00
  -2.140000      0.0000000E+00
  -2.130000      0.0000000E+00
  -2.120000      0.0000000E+00
  -2.110000      0.0000000E+00
  -2.100000      0.0000000E+00
  -2.090000      0.0000000E+00
  -2.080000      0.0000000E+00
  -2.070000      0.0000000E+00
  -2.060000      0.0000000E+00
  -2.050000      0.0000000E+00
  -2.040000      0.0000000E+00
  -2.030000      0.0000000E+00
  -2.020000      0.0000000E+00
  -2.010000      0.0000000E+00
  -2.000000      0.0000000E+00
  -1.990000      0.0000000E+00
  -1.980000      0.0000000E+00
  -1.970000      0.0000000E+00
  -1.960000      0.0000000E+00
  -1.950000      0.0000000E+00
  -1.940000      0.0000000E+00
  -1.930000      0.0000000E+00
  -1.920000      0.0000000E+00
  -1.910000      0.0000000E+00
  -1.900000      0.0000000E+00
  -1.890000      0.0000000E+00
  -1.880000      0.0000000E+00
  -1.870000      0.0000000E+00
  -1.860000      0.0000000E+00
  -1.850000      0.0000000E+00
  -1.840000      0.0000000E+00
  -1.830000      0.0000000E+00
  -1.820000      0.0000000E+00
  -1.810000      0.0000000E+00
  -1.800000      0.0000000E+00
  -1.790000      0.0000000E+00
  -1.780000      0.0000000E+00
  -1.770000      0.0000000E+00
  -1.760000      0.0000000E+00
  -1.750000      0.0000000E+00
  -1.740000      0.0000000E+00
  -1.730000      0.0000000E+00
  -1.720000      0.0000000E+00
  -1.710000      0.0000000E+00
  -1.700000      0.0000000E+00
  -1.690000      0.0000000E+00
  -1.680000      0.0000000E+00
  -1.670000      0.0000000E+00
  -1.660000      0.0000000E+00
  -1.650000      0.0000000E+00
  -1.640000      0.0000000E+00
  -1.630000      0.0000000E+00
  -1.620000      0.0000000E+00
  -1.610000      0.0000000E+00
  -1.600000      0.0000000E+00
  -1.590000      0.0000000E+00
  -1.580000      0.0000000E+00
  -1.570000      0.0000000E+00
  -1.560000      0.0000000E+00
  -1.550000      0.0000000E+00
  -1.540000      0.0000000E+00
  -1.530000      0.0000000E+00
  -1.520000      0.0000000E+00
  -1.510000      0.0000000E+00
  -1.500000      0.0000000E+00
  -1.490000      0.0000000E+00
  -1.480000      0.0000000E+00
  -1.470000      0.0000000E+00
  -1.460000      0.0000000E+00
  -1.450000      0.0000000E+00
  -1.440000      0.0000000E+00
  -1.430000      0.0000000E+00
  -1.420000      0.0000000E+00
  -1.410000      0.0000000E+00
  -1.400000      0.0000000E+00
  -1.390000      0.0000000E+00
  -1.380000      0.0000000E+00
  -1.370000      0.0000000E+00
  -1.360000      0.0000000E+00
  -1.350000      0.0000000E+00
  -1.340000      0.0000000E+00
  -1.330000      0.0000000E+00
  -1.320000      0.0000000E+00
  -1.310000      0.0000000E+00
  -1.300000      0.0000000E+00
  -1.290000      0.0000000E+00
  -1.280000      0.0000000E+00
  -1.270000      0.0000000E+00
  -1.260000      0.0000000E+00
  -1.250000      0.0000000E+00
  -1.240000      0.0000000E+00
  -1.230000      0.0000000E+00
  -1.220000      0.0000000E+00
  -1.210000      0.0000000E+00
  -1.200000      0.0000000E+00
  -1.190000      0.0000000E+00
  -1.180000      0.0000000E+00
  -1.170000      0.0000000E+00
  -1.160000      0.0000000E+00
  -1.150000      0.0000000E+00
  -1.140000      0.0000000E+00
  -1.130000      0.0000000E+00
  -1.120000      0.0000000E+00
  -1.110000      0.0000000E+00
  -1.100000      0.0000000E+00
  -1.090000      0.0000000E+00
  -1.080000      0.0000000E+00
  -1.070000      0.0000000E+00
  -1.060000      0.0000000E+00
  -1.050000      0.0000000E+00
  -1.040000      0.0000000E+00
  -1.030000      0.0000000E+00
  -1.020000      0.0000000E+00
  -1.010000      0.0000000E+00
  -1.000000      0.0000000E+00
 -0.9900000      0.0000000E+00
 -0.9800000      0.0000000E+00
 -0.9700000      0.0000000E+00
 -0.9600000      0.0000000E+00
 -0.9500000      0.0000000E+00
 -0.9400000      0.0000000E+00
 -0.9300000      0.0000000E+00
 -0.9200000      0.0000000E+00
 -0.9100000      0.0000000E+00
 -0.9000000      0.0000000E+00
 -0.8900000      0.0000000E+00
 -0.8800000      0.0000000E+00
 -0.8700000      0.0000000E+00
 -0.8600000      0.0000000E+00
 -0.8500000      0.0000000E+00
 -0.8400000      0.0000000E+00
 -0.8300000      0.0000000E+00
 -0.8200000      0.0000000E+00
 -0.8100000      0.0000000E+00
 -0.8000000      0.0000000E+00
 -0.7900000      0.0000000E+00
 -0.7800000      0.0000000E+00
 -0.7700000      0.0000000E+00
 -0.7600000      0.0000000E+00
 -0.7500000      0.0000000E+00
 -0.7400000      0.0000000E+00
 -0.7300000      0.0000000E+00
 -0.7200000      0.0000000E+00
 -0.7100000      0.0000000E+00
 -0.7000000      0.0000000E+00
 -0.6900000      0.0000000E+00
 -0.6800000      0.0000000E+00
 -0.6700000      0.0000000E+00
 -0.6600000      0.0000000E+00
 -0.6500000      0.0000000E+00
 -0.6400000      0.0000000E+00
 -0.6300000      0.0000000E+00
 -0.6200000      0.0000000E+00
 -0.6100000      0.0000000E+00
 -0.6000000      0.0000000E+00
 -0.5900000      0.0000000E+00
 -0.5800000      0.0000000E+00
 -0.5700000      0.0000000E+00
 -0.5600000      0.0000000E+00
 -0.5500000      0.0000000E+00
 -0.5400000      0.0000000E+00
 -0.5300000      0.0000000E+00
 -0.5200000      0.0000000E+00
 -0.5100000      0.0000000E+00
 -0.5000000      0.0000000E+00
 -0.4900000      0.0000000E+00
 -0.4800000      0.0000000E+00
 -0.4700000      0.0000000E+00
 -0.4600000      0.0000000E+00
 -0.4500000      0.0000000E+00
 -0.4400000      0.0000000E+00
 -0.4300000      0.0000000E+00
 -0.4200000      0.0000000E+00
 -0.4100000      0.0000000E+00
 -0.4000000      0.0000000E+00
 -0.3900000      0.0000000E+00
 -0.3800000      0.0000000E+00
 -0.3700000      0.0000000E+00
 -0.3600000      0.0000000E+00
 -0.3500000      0.0000000E+00
 -0.3400000      0.0000000E+00
 -0.3300000      0.0000000E+00
 -0.3200000      0.0000000E+00
 -0.3100000      0.0000000E+00
 -0.3000000      0.0000000E+00
 -0.2900000      0.0000000E+00
 -0.2800000      0.0000000E+00
 -0.2700000      0.0000000E+00
 -0.2600000      0.0000000E+00
 -0.2500000      0.0000000E+00
 -0.2400000      0.0000000E+00
 -0.2300000      0.0000000E+00
 -0.2200000      0.0000000E+00
 -0.2100000      0.0000000E+00
 -0.2000000      0.0000000E+00
 -0.1900000      0.0000000E+00
 -0.1800000      0.0000000E+00
 -0.1700000      0.0000000E+00
 -0.1600000      0.0000000E+00
 -0.1500000      0.0000000E+00
 -0.1400000      0.0000000E+00
 -0.1300000      0.0000000E+00
 -0.1200000      0.0000000E+00
 -0.1100000      0.0000000E+00
 -0.1000000      0.0000000E+00
 -9.0000004E-02  0.0000000E+00
 -7.9999998E-02  0.0000000E+00
 -7.0000000E-02  0.0000000E+00
 -5.9999999E-02  0.0000000E+00
 -5.0000001E-02  0.0000000E+00
 -3.9999999E-02  0.0000000E+00
 -2.9999999E-02  0.0000000E+00
 -2.0000000E-02  0.0000000E+00
 -9.9999998E-03  0.0000000E+00
 -3.4694470E-17  0.0000000E+00
  9.9999998E-03  0.0000000E+00
  2.0000000E-02  0.0000000E+00
  2.9999999E-02  0.0000000E+00
  3.9999999E-02  0.0000000E+00
  5.0000001E-02  0.0000000E+00
  5.9999999E-02  0.0000000E+00
  7.0000000E-02  0.0000000E+00
  7.9999998E-02  0.0000000E+00
  9.0000004E-02  0.0000000E+00
  0.1000000      0.0000000E+00
  0.1100000      0.0000000E+00
  0.1200000      0.0000000E+00
  0.1300000      0.0000000E+00
  0.1400000      0.0000000E+00
  0.1500000      0.0000000E+00
  0.1600000      0.0000000E+00
  0.1700000      0.0000000E+00
  0.1800000      0.0000000E+00
  0.1900000      0.0000000E+00
  0.2000000      0.0000000E+00
  0.2100000      0.0000000E+00
  0.2200000      0.0000000E+00
  0.2300000      0.0000000E+00
  0.2400000      0.0000000E+00
  0.2500000      0.0000000E+00
  0.2600000      0.0000000E+00
  0.2700000      0.0000000E+00
  0.2800000      0.0000000E+00
  0.2900000      0.0000000E+00
  0.3000000      0.0000000E+00
  0.3100000      0.0000000E+00
  0.3200000      0.0000000E+00
  0.3300000      0.0000000E+00
  0.3400000      0.0000000E+00
  0.3500000      0.0000000E+00
  0.3600000      0.0000000E+00
  0.3700000      0.0000000E+00
  0.3800000      0.0000000E+00
  0.3900000      0.0000000E+00
  0.4000000      0.0000000E+00
  0.4100000      0.0000000E+00
  0.4200000      0.0000000E+00
  0.4300000      0.0000000E+00
  0.4400000      0.0000000E+00
  0.4500000      0.0000000E+00
  0.4600000      0.0000000E+00
  0.4700000      0.0000000E+00
  0.4800000      0.0000000E+00
  0.4900000      0.0000000E+00
  0.5000000      0.0000000E+00
  0.5100000      0.0000000E+00
  0.5200000      0.0000000E+00
  0.5300000      0.0000000E+00
  0.5400000      0.0000000E+00
  0.5500000      0.0000000E+00
  0.5600000      0.0000000E+00
  0.5700000      0.0000000E+00
  0.5800000      0.0000000E+00
  0.5900000      0.0000000E+00
  0.6000000      0.0000000E+00
  0.6100000      0.0000000E+00
  0.6200000      0.0000000E+00
  0.6300000      0.0000000E+00
  0.6400000      0.0000000E+00
  0.6500000      0.0000000E+00
  0.6600000      0.0000000E+00
  0.6700000      0.0000000E+00
  0.6800000      0.0000000E+00
  0.6900000      0.0000000E+00
  0.7000000      0.0000000E+00
  0.7100000      0.0000000E+00
  0.7200000      0.0000000E+00
  0.7300000      0.0000000E+00
  0.7400000      0.0000000E+00
  0.7500000      0.0000000E+00
  0.7600000      0.0000000E+00
  0.7700000      0.0000000E+00
  0.7800000      0.0000000E+00
  0.7900000      0.0000000E+00
  0.8000000      0.0000000E+00
  0.8100000      0.0000000E+00
  0.8200000      0.0000000E+00
  0.8300000      0.0000000E+00
  0.8400000      0.0000000E+00
  0.8500000      0.0000000E+00
  0.8600000      0.0000000E+00
  0.8700000      0.0000000E+00
  0.8800000      0.0000000E+00
  0.8900000      0.0000000E+00
  0.9000000      0.0000000E+00
  0.9100000      0.0000000E+00
  0.9200000      0.0000000E+00
  0.9300000      0.0000000E+00
  0.9400000      0.0000000E+00
  0.9500000      0.0000000E+00
  0.9600000      0.0000000E+00
  0.9700000      0.0000000E+00
  0.9800000      0.0000000E+00
  0.9900000      0.0000000E+00
   1.000000      0.0000000E+00
   1.010000      0.0000000E+00
   1.020000      0.0000000E+00
   1.030000      0.0000000E+00
   1.040000      0.0000000E+00
   1.050000      0.0000000E+00
   1.060000      0.0000000E+00
   1.070000      0.0000000E+00
   1.080000      0.0000000E+00
   1.090000      0.0000000E+00
   1.100000      0.0000000E+00
   1.110000      0.0000000E+00
   1.120000      0.0000000E+00
   1.130000      0.0000000E+00
   1.140000      0.0000000E+00
   1.150000      0.0000000E+00
   1.160000      0.0000000E+00
   1.170000      0.0000000E+00
   1.180000      0.0000000E+00
   1.190000      0.0000000E+00
   1.200000      0.0000000E+00
   1.210000      0.0000000E+00
   1.220000      0.0000000E+00
   1.230000      0.0000000E+00
   1.240000      0.0000000E+00
   1.250000      0.0000000E+00
   1.260000      0.0000000E+00
   1.270000      0.0000000E+00
   1.280000      0.0000000E+00
   1.290000      0.0000000E+00
   1.300000      0.0000000E+00
   1.310000      0.0000000E+00
   1.320000      0.0000000E+00
   1.330000      0.0000000E+00
   1.340000      0.0000000E+00
   1.350000      0.0000000E+00
   1.360000      0.0000000E+00
   1.370000      0.0000000E+00
   1.380000      0.0000000E+00
   1.390000      0.0000000E+00
   1.400000      0.0000000E+00
   1.410000      0.0000000E+00
   1.420000      0.0000000E+00
   1.430000      0.0000000E+00
   1.440000      0.0000000E+00
   1.450000      0.0000000E+00
   1.460000      0.0000000E+00
   1.470000      0.0000000E+00
   1.480000      0.0000000E+00
   1.490000      0.0000000E+00
   1.500000      0.0000000E+00
   1.510000      0.0000000E+00
   1.520000      0.0000000E+00
   1.530000      0.0000000E+00
   1.540000      0.0000000E+00
   1.550000      0.0000000E+00
   1.560000      0.0000000E+00
   1.570000      0.0000000E+00
   1.580000      0.0000000E+00
   1.590000      0.0000000E+00
   1.600000      0.0000000E+00
   1.610000      0.0000000E+00
   1.620000      0.0000000E+00
   1.630000      0.0000000E+00
   1.640000      0.0000000E+00
   1.650000      0.0000000E+00
   1.660000      0.0000000E+00
   1.670000      0.0000000E+00
   1.680000      0.0000000E+00
   1.690000      0.0000000E+00
   1.700000      0.0000000E+00
   1.710000      0.0000000E+00
   1.720000      0.0000000E+00
   1.730000      0.0000000E+00
   1.740000      0.0000000E+00
   1.750000      0.0000000E+00
   1.760000      0.0000000E+00
   1.770000      0.0000000E+00
   1.780000      0.0000000E+00
   1.790000      0.0000000E+00
   1.800000      0.0000000E+00
   1.810000      0.0000000E+00
   1.820000      0.0000000E+00
   1.830000      0.0000000E+00
   1.840000      0.0000000E+00
   1.850000      0.0000000E+00
   1.860000      0.0000000E+00
   1.870000      0.0000000E+00
   1.880000      0.0000000E+00
   1.890000      0.0000000E+00
   1.900000      0.0000000E+00
   1.910000      0.0000000E+00
   1.920000      0.0000000E+00
   1.930000      0.0000000E+00
   1.940000      0.0000000E+00
   1.950000      0.0000000E+00
   1.960000      0.0000000E+00
   1.970000      0.0000000E+00
   1.980000      0.0000000E+00
   1.990000      0.0000000E+00
   2.000000      0.0000000E+00
   2.010000      0.0000000E+00
   2.020000      0.0000000E+00
   2.030000      0.0000000E+00
   2.040000      0.0000000E+00
   2.050000      0.0000000E+00
   2.060000      0.0000000E+00
   2.070000      0.0000000E+00
   2.080000      0.0000000E+00
   2.090000      0.0000000E+00
   2.100000      0.0000000E+00
   2.110000      0.0000000E+00
   2.120000      0.0000000E+00
   2.130000      0.0000000E+00
   2.140000      0.0000000E+00
   2.150000      0.0000000E+00
   2.160000      0.0000000E+00
   2.170000      0.0000000E+00
   2.180000      0.0000000E+00
   2.190000      0.0000000E+00
   2.200000      0.0000000E+00
   2.210000      0.0000000E+00
   2.220000      0.0000000E+00
   2.230000      0.0000000E+00
   2.240000      0.0000000E+00
   2.250000      0.0000000E+00
   2.260000      0.0000000E+00
   2.270000      0.0000000E+00
   2.280000      0.0000000E+00
   2.290000      0.0000000E+00
   2.300000      0.0000000E+00
   2.310000      0.0000000E+00
   2.320000      0.0000000E+00
   2.330000      0.0000000E+00
   2.340000      0.0000000E+00
   2.350000      0.0000000E+00
   2.360000      0.0000000E+00
   2.370000      0.0000000E+00
   2.380000      0.0000000E+00
   2.390000      0.0000000E+00
   2.400000      0.0000000E+00
   2.410000      0.0000000E+00
   2.420000      0.0000000E+00
   2.430000      0.0000000E+00
   2.440000      0.0000000E+00
   2.450000      0.0000000E+00
   2.460000      0.0000000E+00
   2.470000      0.0000000E+00
   2.480000      0.0000000E+00
   2.490000      0.0000000E+00
   2.500000      0.0000000E+00
   2.510000      0.0000000E+00
   2.520000      0.0000000E+00
   2.530000      0.0000000E+00
   2.540000      0.0000000E+00
   2.550000      0.0000000E+00
   2.560000      0.0000000E+00
   2.570000      0.0000000E+00
   2.580000      0.0000000E+00
   2.590000      0.0000000E+00
   2.600000      0.0000000E+00
   2.610000      0.0000000E+00
   2.620000      0.0000000E+00
   2.630000      0.0000000E+00
   2.640000      0.0000000E+00
   2.650000      0.0000000E+00
   2.660000      0.0000000E+00
   2.670000      0.0000000E+00
   2.680000      0.0000000E+00
   2.690000      0.0000000E+00
   2.700000      0.0000000E+00
   2.710000      0.0000000E+00
   2.720000      0.0000000E+00
   2.730000      0.0000000E+00
   2.740000      0.0000000E+00
   2.750000      0.0000000E+00
   2.760000      0.0000000E+00
   2.770000      0.0000000E+00
   2.780000      0.0000000E+00
   2.790000      0.0000000E+00
   2.800000      0.0000000E+00
   2.810000      0.0000000E+00
   2.820000      0.0000000E+00
   2.830000      0.0000000E+00
   2.840000      0.0000000E+00
   2.850000      0.0000000E+00
   2.860000      0.0000000E+00
   2.870000      0.0000000E+00
   2.880000      0.0000000E+00
   2.890000      0.0000000E+00
   2.900000      0.0000000E+00
   2.910000      0.0000000E+00
   2.920000      0.0000000E+00
   2.930000      0.0000000E+00
   2.940000      0.0000000E+00
   2.950000      0.0000000E+00
   2.960000      0.0000000E+00
   2.970000      0.0000000E+00
   2.980000      0.0000000E+00
   2.990000      0.0000000E+00
   3.000000      0.0000000E+00
   3.010000      0.0000000E+00
   3.020000      0.0000000E+00
   3.030000      0.0000000E+00
   3.040000      0.0000000E+00
   3.050000      0.0000000E+00
   3.060000      0.0000000E+00
   3.070000      0.0000000E+00
   3.080000      0.0000000E+00
   3.090000      0.0000000E+00
   3.100000      0.0000000E+00
   3.110000      0.0000000E+00
   3.120000      0.0000000E+00
   3.130000      0.0000000E+00
   3.140000      0.0000000E+00
   3.150000      0.0000000E+00
   3.160000      0.0000000E+00
   3.170000      0.0000000E+00
   3.180000      0.0000000E+00
   3.190000      0.0000000E+00
   3.200000      0.0000000E+00
   3.210000      0.0000000E+00
   3.220000      0.0000000E+00
   3.230000      0.0000000E+00
   3.240000      0.0000000E+00
   3.250000      0.0000000E+00
   3.260000      0.0000000E+00
   3.270000      0.0000000E+00
   3.280000      0.0000000E+00
   3.290000      0.0000000E+00
   3.300000      0.0000000E+00
   3.310000      0.0000000E+00
   3.320000      0.0000000E+00
   3.330000      0.0000000E+00
   3.340000      0.0000000E+00
   3.350000      0.0000000E+00
   3.360000      0.0000000E+00
   3.370000      0.0000000E+00
   3.380000      0.0000000E+00
   3.390000      0.0000000E+00
   3.400000      0.0000000E+00
   3.410000      0.0000000E+00
   3.420000      0.0000000E+00
   3.430000      0.0000000E+00
   3.440000      0.0000000E+00
   3.450000      0.0000000E+00
   3.460000      0.0000000E+00
   3.470000      0.0000000E+00
   3.480000      0.0000000E+00
   3.490000      0.0000000E+00
   3.500000      0.0000000E+00
   3.510000      0.0000000E+00
   3.520000      0.0000000E+00
   3.530000      0.0000000E+00
   3.540000      0.0000000E+00
   3.550000      0.0000000E+00
   3.560000      0.0000000E+00
   3.570000      0.0000000E+00
   3.580000      0.0000000E+00
   3.590000      1.2429834E-38
   3.600000      1.4820979E-38
   3.610000      1.6725395E-38
   3.620000      1.8368852E-38
   3.630000      1.9922880E-38
   3.640000      2.1410464E-38
   3.650000      2.2857501E-38
   3.660000      2.4066819E-38
   3.670000      2.4980197E-38
   3.680000      2.5873785E-38
   3.690000      2.7110773E-38
   3.700000      2.8650693E-38
   3.710000      2.9884982E-38
   3.720000      3.0849751E-38
   3.730000      3.1628010E-38
   3.740000      3.2238903E-38
   3.750000      3.3050936E-38
   3.760000      3.3301488E-38
   3.770000      3.2805123E-38
   3.780000      3.2721751E-38
   3.790000      3.3574374E-38
   3.800000      3.4903525E-38
   3.810000      3.6414290E-38
   3.820000      3.8321208E-38
   3.830000      4.0384099E-38
   3.840000      4.2624618E-38
   3.850000      4.4818802E-38
   3.860000      4.6779303E-38
   3.870000      4.8332869E-38
   3.880000      4.8891460E-38
   3.890000      4.8448958E-38
   3.900000      4.7060647E-38
   3.910000      4.4613170E-38
   3.920000      4.0285383E-38
   3.930000      3.3893907E-38
   3.940000      2.6314928E-38
   3.950000      1.7760581E-38
   3.960000      0.0000000E+00
   3.970000      0.0000000E+00
   3.980000     -1.7803416E-38
   3.990000     -3.3217278E-38
   4.000000     -4.8542324E-38
   4.010000     -6.3693314E-38
   4.020000     -7.9836659E-38
   4.030000     -9.7645997E-38
   4.040000     -1.1684603E-37
   4.050000     -1.3539335E-37
   4.060000     -1.5364262E-37
   4.070000     -1.7175503E-37
   4.080000     -1.8794901E-37
   4.090000     -2.0327155E-37
   4.100000     -2.1870007E-37
   4.110000     -2.3672487E-37
   4.120000     -2.5685765E-37
   4.130000     -2.7726381E-37
   4.140000     -3.0075508E-37
   4.150000     -3.3085941E-37
   4.160000     -3.6485153E-37
   4.170000     -3.9629855E-37
   4.180000     -4.2543372E-37
   4.190000     -4.5328907E-37
   4.200000     -4.8316152E-37
   4.210000     -5.1547197E-37
   4.220000     -5.4604377E-37
   4.230000     -5.7031677E-37
   4.240000     -5.8488238E-37
   4.250000     -5.9095084E-37
   4.260000     -5.7025467E-37
   4.270000     -5.1919583E-37
   4.280000     -4.5820603E-37
   4.290000     -3.8748257E-37
   4.300000     -2.9446406E-37
   4.310000     -1.8296145E-37
   4.320000     -6.3081827E-38
   4.330000      6.5659028E-38
   4.340000      1.9507411E-37
   4.350000      3.1856985E-37
   4.360000      4.3928680E-37
   4.370000      5.8047823E-37
   4.380000      7.7065774E-37
   4.390000      9.9107271E-37
   4.400000      1.2173243E-36
   4.410000      1.4474319E-36
   4.420000      1.6904734E-36
   4.430000      1.9742816E-36
   4.440000      2.2968727E-36
   4.450000      2.6254319E-36
   4.460000      2.9640656E-36
   4.470000      3.2379661E-36
   4.480000      3.4268961E-36
   4.490000      3.6104566E-36
   4.500000      3.7722266E-36
   4.510000      3.8695145E-36
   4.520000      3.9083243E-36
   4.530000      3.9222201E-36
   4.540000      3.9273238E-36
   4.550000      3.9547826E-36
   4.560000      4.0036208E-36
   4.570000      4.0272538E-36
   4.580000      4.0249532E-36
   4.590000      4.0419202E-36
   4.600000      4.0890766E-36
   4.610000      4.1503087E-36
   4.620000      4.2071416E-36
   4.630000      4.3294489E-36
   4.640000      4.4745780E-36
   4.650000      4.5732581E-36
   4.660000      4.6259444E-36
   4.670000      4.5445843E-36
   4.680000      4.3519066E-36
   4.690000      4.1443020E-36
   4.700000      3.9139266E-36
   4.710000      3.5964413E-36
   4.720000      3.1794260E-36
   4.730000      2.6271816E-36
   4.740000      1.9519095E-36
   4.750000      1.1853562E-36
   4.760000      3.1255290E-37
   4.770000     -6.7011716E-37
   4.780000     -1.7363526E-36
   4.790000     -2.8591900E-36
   4.800000     -4.0673184E-36
   4.810000     -5.3676879E-36
   4.820000     -6.7522285E-36
   4.830000     -8.2325213E-36
   4.840000     -9.7794264E-36
   4.850000     -1.1403201E-35
   4.860000     -1.3177517E-35
   4.870000     -1.5112446E-35
   4.880000     -1.7155699E-35
   4.890000     -1.9313493E-35
   4.900000     -2.1454950E-35
   4.910000     -2.3568930E-35
   4.920000     -2.5684288E-35
   4.930000     -2.7693533E-35
   4.940000     -2.9687382E-35
   4.950000     -3.1633308E-35
   4.960000     -3.3445480E-35
   4.970000     -3.5141154E-35
   4.980000     -3.6883600E-35
   4.990000     -3.8495371E-35
   5.000000     -3.9427452E-35
   5.010000     -3.9857423E-35
   5.020000     -4.0203967E-35
   5.030000     -4.0802634E-35
   5.040000     -4.1624355E-35
   5.050000     -4.2267927E-35
   5.060000     -4.2593427E-35
   5.070000     -4.2388438E-35
   5.080000     -4.2004247E-35
   5.090000     -4.1617542E-35
   5.100000     -4.0805318E-35
   5.110000     -3.9467975E-35
   5.120000     -3.7708851E-35
   5.130000     -3.5583901E-35
   5.140000     -3.3121201E-35
   5.150000     -3.0318582E-35
   5.160000     -2.7534136E-35
   5.170000     -2.5429203E-35
   5.180000     -2.3605745E-35
   5.190000     -2.1658499E-35
   5.200000     -1.9310177E-35
   5.210000     -1.6037745E-35
   5.220000     -1.2228076E-35
   5.230000     -4.6361547E-36
   5.240000      8.8166259E-36
   5.250000      2.3576676E-35
   5.260000      3.8255944E-35
   5.270000      5.8142780E-35
   5.280000      8.2602958E-35
   5.290000      1.0856872E-34
   5.300000      1.3764124E-34
   5.310000      1.6784963E-34
   5.320000      1.9777833E-34
   5.330000      2.2869187E-34
   5.340000      2.5775689E-34
   5.350000      2.8337592E-34
   5.360000      3.0683890E-34
   5.370000      3.2798033E-34
   5.380000      3.4413773E-34
   5.390000      3.5675923E-34
   5.400000      3.7033252E-34
   5.410000      3.8438870E-34
   5.420000      3.9731677E-34
   5.430000      4.0908296E-34
   5.440000      4.2035673E-34
   5.450000      4.3251621E-34
   5.460000      4.4575889E-34
   5.470000      4.5664071E-34
   5.480000      4.6357792E-34
   5.490000      4.6809338E-34
   5.500000      4.7110673E-34
   5.510000      4.7455768E-34
   5.520000      4.7867622E-34
   5.530000      4.8139630E-34
   5.540000      4.8202767E-34
   5.550000      4.7883514E-34
   5.560000      4.7359354E-34
   5.570000      4.6739887E-34
   5.580000      4.5847678E-34
   5.590000      4.4801492E-34
   5.600000      4.3475126E-34
   5.610000      4.1584251E-34
   5.620000      3.9109698E-34
   5.630000      3.6037927E-34
   5.640000      3.2319198E-34
   5.650000      2.7808867E-34
   5.660000      2.2443156E-34
   5.670000      1.6315588E-34
   5.680000      9.3524885E-35
   5.690000      1.6660979E-35
   5.700000     -6.8057782E-35
   5.710000     -1.6556885E-34
   5.720000     -2.7817837E-34
   5.730000     -4.0124917E-34
   5.740000     -5.3132570E-34
   5.750000     -6.7198875E-34
   5.760000     -8.2281519E-34
   5.770000     -9.8148828E-34
   5.780000     -1.1481515E-33
   5.790000     -1.3213080E-33
   5.800000     -1.5001750E-33
   5.810000     -1.6847238E-33
   5.820000     -1.8739777E-33
   5.830000     -2.0667463E-33
   5.840000     -2.2627065E-33
   5.850000     -2.4599150E-33
   5.860000     -2.6585597E-33
   5.870000     -2.8598789E-33
   5.880000     -3.0611230E-33
   5.890000     -3.2632293E-33
   5.900000     -3.4668969E-33
   5.910000     -3.6674612E-33
   5.920000     -3.8706803E-33
   5.930000     -4.0766449E-33
   5.940000     -4.2787925E-33
   5.950000     -4.4791518E-33
   5.960000     -4.6774250E-33
   5.970000     -4.8731250E-33
   5.980000     -5.0653043E-33
   5.990000     -5.2523824E-33
   6.000000     -5.4329406E-33
   6.010000     -5.6054782E-33
   6.020000     -5.7674161E-33
   6.030000     -5.9161000E-33
   6.040000     -6.0494741E-33
   6.050000     -6.1647133E-33
   6.060000     -6.2588925E-33
   6.070000     -6.3290857E-33
   6.080000     -6.3718876E-33
   6.090000     -6.3838975E-33
   6.100000     -6.3615499E-33
   6.110000     -6.3015343E-33
   6.120000     -6.2006570E-33
   6.130000     -6.0552840E-33
   6.140000     -5.8619516E-33
   6.150000     -5.6173705E-33
   6.160000     -5.3184404E-33
   6.170000     -4.9622958E-33
   6.180000     -4.5462582E-33
   6.190000     -4.0670319E-33
   6.200000     -3.5228607E-33
   6.210000     -2.9124166E-33
   6.220000     -2.2331790E-33
   6.230000     -1.4833900E-33
   6.240000     -6.6148212E-34
   6.250000      2.3404373E-34
   6.260000      1.2046921E-33
   6.270000      2.2519217E-33
   6.280000      3.3775354E-33
   6.290000      4.5825670E-33
   6.300000      5.8682247E-33
   6.310000      7.2358929E-33
   6.320000      8.6865969E-33
   6.330000      1.0221974E-32
   6.340000      1.1843139E-32
   6.350000      1.3550843E-32
   6.360000      1.5345845E-32
   6.370000      1.7228545E-32
   6.380000      1.9198776E-32
   6.390000      2.1256257E-32
   6.400000      2.3399677E-32
   6.410000      2.5627073E-32
   6.420000      2.7936370E-32
   6.430000      3.0324504E-32
   6.440000      3.2787597E-32
   6.450000      3.5320919E-32
   6.460000      3.7918818E-32
   6.470000      4.0574694E-32
   6.480000      4.3280932E-32
   6.490000      4.6028944E-32
   6.500000      4.8808847E-32
   6.510000      5.1609639E-32
   6.520000      5.4419393E-32
   6.530000      5.7224893E-32
   6.540000      6.0011902E-32
   6.550000      6.2765045E-32
   6.560000      6.5467806E-32
   6.570000      6.8102894E-32
   6.580000      7.0651560E-32
   6.590000      7.3094125E-32
   6.600000      7.5410478E-32
   6.610000      7.7579418E-32
   6.620000      7.9578922E-32
   6.630000      8.1386174E-32
   6.640000      8.2977570E-32
   6.650000      8.4328777E-32
   6.660000      8.5414511E-32
   6.670000      8.6208222E-32
   6.680000      8.6683557E-32
   6.690000      8.6813226E-32
   6.700000      8.6568159E-32
   6.710000      8.5918804E-32
   6.720000      8.4834704E-32
   6.730000      8.3284545E-32
   6.740000      8.1236158E-32
   6.750000      7.8656600E-32
   6.760000      7.5512223E-32
   6.770000      7.1768761E-32
   6.780000      6.7392055E-32
   6.790000      6.2346363E-32
   6.800000      5.6595751E-32
   6.810000      5.0105417E-32
   6.820000      4.2840092E-32
   6.830000      3.4764858E-32
   6.840000      2.5845359E-32
   6.850000      1.6047941E-32
   6.860000      5.3399759E-33
   6.870000     -6.3098494E-33
   6.880000     -1.8931364E-32
   6.890000     -3.2552545E-32
   6.900000     -4.7199125E-32
   6.910000     -6.2894384E-32
   6.920000     -7.9658779E-32
   6.930000     -9.7509625E-32
   6.940000     -1.1646072E-31
   6.950000     -1.3652203E-31
   6.960000     -1.5769939E-31
   6.970000     -1.7999413E-31
   6.980000     -2.0340279E-31
   6.990000     -2.2791686E-31
   7.000000     -2.5352237E-31
   7.010000     -2.8019972E-31
   7.020000     -3.0792328E-31
   7.030000     -3.3666118E-31
   7.040000     -3.6637493E-31
   7.050000     -3.9701917E-31
   7.060000     -4.2854128E-31