  -2.600000      0.0000000E+00
  -2.590000      0.0000000E+00
  -2.580000      0.0000000E+00
  -2.570000      0.0000000E+00
  -2.560000      0.0000000E+00
  -2.550000      0.0000000E+00
  -2.540000      0.0000000E+00
  -2.530000      0.0000000E+00
  -2.520000      0.0000000E+00
  -2.510000      0.0000000E+00
  -2.500000      0.0000000E+00
  -2.490000      0.0000000E+00
  -2.480000      0.0000000E+00
  -2.470000      0.0000000E+00
  -2.460000      0.0000000E+00
  -2.450000      0.0000000E+00
  -2.440000      0.0000000E+00
  -2.430000      0.0000000E+00
  -2.420000      0.0000000E+00
  -2.410000      0.0000000E+00
  -2.400000      0.0000000E+00
  -2.390000      0.0000000E+00
  -2.380000      0.0000000E+00
  -2.370000      0.0000000E+00
  -2.360000      0.0000000E+00
  -2.350000      0.0000000E+00
  -2.340000      0.0000000E+00
  -2.330000      0.0000000E+00
  -2.320000      0.0000000E+00
  -2.310000      0.0000000E+00
  -2.300000      0.0000000E+00
  -2.290000      0.0000000E+00
  -2.280000      0.0000000E+00
  -2.270000      0.0000000E+00
  -2.260000      0.0000000E+00
  -2.250000      0.0000000E+00
  -2.240000      0.0000000E+00
  -2.230000      0.0000000E+00
  -2.220000      0.0000000E+00
  -2.210000      0.0000000E+00
  -2.200000      0.0000000E+00
  -2.190000      0.0000000E+00
  -2.180000      0.0000000E+00
  -2.170000      0.0000000E+00
  -2.160000      0.0000000E+00
  -2.150000      0.0000000E+00
  -2.140000      0.0000000E+00
  -2.130000      0.0000000E+00
  -2.120000      0.0000000E+00
  -2.110000      0.0000000E+00
  -2.100000      0.0000000E+00
  -2.090000      0.0000000E+00
  -2.080000      0.0000000E+00
  -2.070000      0.0000000E+00
  -2.060000      0.0000000E+00
  -2.050000      0.0000000E+00
  -2.040000      0.0000000E+00
  -2.030000      0.0000000E+00
  -2.020000      0.0000000E+00
  -2.010000      0.0000000E+00
  -2.000000      0.0000000E+00
  -1.990000      0.0000000E+00
  -1.980000      0.0000000E+00
  -1.970000      0.0000000E+00
  -1.960000      0.0000000E+00
  -1.950000      0.0000000E+00
  -1.940000      0.0000000E+00
  -1.930000      0.0000000E+00
  -1.920000      0.0000000E+00
  -1.910000      0.0000000E+00
  -1.900000      0.0000000E+00
  -1.890000      0.0000000E+00
  -1.880000      0.0000000E+00
  -1.870000      0.0000000E+00
  -1.860000      0.0000000E+00
  -1.850000      0.0000000E+00
  -1.840000      0.0000000E+00
  -1.830000      0.0000000E+00
  -1.820000      0.0000000E+00
  -1.810000      0.0000000E+00
  -1.800000      0.0000000E+00
  -1.790000      0.0000000E+00
  -1.780000      0.0000000E+00
  -1.770000      0.0000000E+00
  -1.760000      0.0000000E+00
  -1.750000      0.0000000E+00
  -1.740000      0.0000000E+00
  -1.730000      0.0000000E+00
  -1.720000      0.0000000E+00
  -1.710000      0.0000000E+00
  -1.700000      0.0000000E+00
  -1.690000      0.0000000E+00
  -1.680000      0.0000000E+00
  -1.670000      0.0000000E+00
  -1.660000      0.0000000E+00
  -1.650000      0.0000000E+00
  -1.640000      0.0000000E+00
  -1.630000      0.0000000E+00
  -1.620000      0.0000000E+00
  -1.610000      0.0000000E+00
  -1.600000      0.0000000E+00
  -1.590000      0.0000000E+00
  -1.580000      0.0000000E+00
  -1.570000      0.0000000E+00
  -1.560000      0.0000000E+00
  -1.550000      0.0000000E+00
  -1.540000      0.0000000E+00
  -1.530000      0.0000000E+00
  -1.520000      0.0000000E+00
  -1.510000      0.0000000E+00
  -1.500000      0.0000000E+00
  -1.490000      0.0000000E+00
  -1.480000      0.0000000E+00
  -1.470000      0.0000000E+00
  -1.460000      0.0000000E+00
  -1.450000      0.0000000E+00
  -1.440000      0.0000000E+00
  -1.430000      0.0000000E+00
  -1.420000      0.0000000E+00
  -1.410000      0.0000000E+00
  -1.400000      0.0000000E+00
  -1.390000      0.0000000E+00
  -1.380000      0.0000000E+00
  -1.370000      0.0000000E+00
  -1.360000      0.0000000E+00
  -1.350000      0.0000000E+00
  -1.340000      0.0000000E+00
  -1.330000      0.0000000E+00
  -1.320000      0.0000000E+00
  -1.310000      0.0000000E+00
  -1.300000      0.0000000E+00
  -1.290000      0.0000000E+00
  -1.280000      0.0000000E+00
  -1.270000      0.0000000E+00
  -1.260000      0.0000000E+00
  -1.250000      0.0000000E+00
  -1.240000      0.0000000E+00
  -1.230000      0.0000000E+00
  -1.220000      0.0000000E+00
  -1.210000      0.0000000E+00
  -1.200000      0.0000000E+00
  -1.190000      0.0000000E+00
  -1.180000      0.0000000E+00
  -1.170000      0.0000000E+00
  -1.160000      0.0000000E+00
  -1.150000      0.0000000E+00
  -1.140000      0.0000000E+00
  -1.130000      0.0000000E+00
  -1.120000      0.0000000E+00
  -1.110000      0.0000000E+00
  -1.100000      0.0000000E+00
  -1.090000      0.0000000E+00
  -1.080000      0.0000000E+00
  -1.070000      0.0000000E+00
  -1.060000      0.0000000E+00
  -1.050000      0.0000000E+00
  -1.040000      0.0000000E+00
  -1.030000      0.0000000E+00
  -1.020000      0.0000000E+00
  -1.010000      0.0000000E+00
  -1.000000      0.0000000E+00
 -0.9900000      0.0000000E+00
 -0.9800000      0.0000000E+00
 -0.9700000      0.0000000E+00
 -0.9600000      0.0000000E+00
 -0.9500000      0.0000000E+00
 -0.9400000      0.0000000E+00
 -0.9300000      0.0000000E+00
 -0.9200000      0.0000000E+00
 -0.9100000      0.0000000E+00
 -0.9000000      0.0000000E+00
 -0.8900000      0.0000000E+00
 -0.8800000      0.0000000E+00
 -0.8700000      0.0000000E+00
 -0.8600000      0.0000000E+00
 -0.8500000      0.0000000E+00
 -0.8400000      0.0000000E+00
 -0.8300000      0.0000000E+00
 -0.8200000      0.0000000E+00
 -0.8100000      0.0000000E+00
 -0.8000000      0.0000000E+00
 -0.7900000      0.0000000E+00
 -0.7800000      0.0000000E+00
 -0.7700000      0.0000000E+00
 -0.7600000      0.0000000E+00
 -0.7500000      0.0000000E+00
 -0.7400000      0.0000000E+00
 -0.7300000      0.0000000E+00
 -0.7200000      0.0000000E+00
 -0.7100000      0.0000000E+00
 -0.7000000      0.0000000E+00
 -0.6900000      0.0000000E+00
 -0.6800000      0.0000000E+00
 -0.6700000      0.0000000E+00
 -0.6600000      0.0000000E+00
 -0.6500000      0.0000000E+00
 -0.6400000      0.0000000E+00
 -0.6300000      0.0000000E+00
 -0.6200000      0.0000000E+00
 -0.6100000      0.0000000E+00
 -0.6000000      0.0000000E+00
 -0.5900000      0.0000000E+00
 -0.5800000      0.0000000E+00
 -0.5700000      0.0000000E+00
 -0.5600000      0.0000000E+00
 -0.5500000      0.0000000E+00
 -0.5400000      0.0000000E+00
 -0.5300000      0.0000000E+00
 -0.5200000      0.0000000E+00
 -0.5100000      0.0000000E+00
 -0.5000000      0.0000000E+00
 -0.4900000      0.0000000E+00
 -0.4800000      0.0000000E+00
 -0.4700000      0.0000000E+00
 -0.4600000      0.0000000E+00
 -0.4500000      0.0000000E+00
 -0.4400000      0.0000000E+00
 -0.4300000      0.0000000E+00
 -0.4200000      0.0000000E+00
 -0.4100000      0.0000000E+00
 -0.4000000      0.0000000E+00
 -0.3900000      0.0000000E+00
 -0.3800000      0.0000000E+00
 -0.3700000      0.0000000E+00
 -0.3600000      0.0000000E+00
 -0.3500000      0.0000000E+00
 -0.3400000      0.0000000E+00
 -0.3300000      0.0000000E+00
 -0.3200000      0.0000000E+00
 -0.3100000      0.0000000E+00
 -0.3000000      0.0000000E+00
 -0.2900000      0.0000000E+00
 -0.2800000      0.0000000E+00
 -0.2700000      0.0000000E+00
 -0.2600000      0.0000000E+00
 -0.2500000      0.0000000E+00
 -0.2400000      0.0000000E+00
 -0.2300000      0.0000000E+00
 -0.2200000      0.0000000E+00
 -0.2100000      0.0000000E+00
 -0.2000000      0.0000000E+00
 -0.1900000      0.0000000E+00
 -0.1800000      0.0000000E+00
 -0.1700000      0.0000000E+00
 -0.1600000      0.0000000E+00
 -0.1500000      0.0000000E+00
 -0.1400000      0.0000000E+00
 -0.1300000      0.0000000E+00
 -0.1200000      0.0000000E+00
 -0.1100000      0.0000000E+00
 -0.1000000      0.0000000E+00
 -9.0000004E-02  0.0000000E+00
 -7.9999998E-02  0.0000000E+00
 -7.0000000E-02  0.0000000E+00
 -5.9999999E-02  0.0000000E+00
 -5.0000001E-02  0.0000000E+00
 -3.9999999E-02  0.0000000E+00
 -2.9999999E-02  0.0000000E+00
 -2.0000000E-02  0.0000000E+00
 -9.9999998E-03  0.0000000E+00
 -3.4694470E-17  0.0000000E+00
  9.9999998E-03  0.0000000E+00
  2.0000000E-02  0.0000000E+00
  2.9999999E-02  0.0000000E+00
  3.9999999E-02  0.0000000E+00
  5.0000001E-02  0.0000000E+00
  5.9999999E-02  0.0000000E+00
  7.0000000E-02  0.0000000E+00
  7.9999998E-02  0.0000000E+00
  9.0000004E-02  0.0000000E+00
  0.1000000      0.0000000E+00
  0.1100000      0.0000000E+00
  0.1200000      0.0000000E+00
  0.1300000      0.0000000E+00
  0.1400000      0.0000000E+00
  0.1500000      0.0000000E+00
  0.1600000      0.0000000E+00
  0.1700000      0.0000000E+00
  0.1800000      0.0000000E+00
  0.1900000      0.0000000E+00
  0.2000000      0.0000000E+00
  0.2100000      0.0000000E+00
  0.2200000      0.0000000E+00
  0.2300000      0.0000000E+00
  0.2400000      0.0000000E+00
  0.2500000      0.0000000E+00
  0.2600000      0.0000000E+00
  0.2700000      0.0000000E+00
  0.2800000      0.0000000E+00
  0.2900000      0.0000000E+00
  0.3000000      0.0000000E+00
  0.3100000      0.0000000E+00
  0.3200000      0.0000000E+00
  0.3300000      0.0000000E+00
  0.3400000      0.0000000E+00
  0.3500000      0.0000000E+00
  0.3600000      0.0000000E+00
  0.3700000      0.0000000E+00
  0.3800000      0.0000000E+00
  0.3900000      0.0000000E+00
  0.4000000      0.0000000E+00
  0.4100000      0.0000000E+00
  0.4200000      0.0000000E+00
  0.4300000      0.0000000E+00
  0.4400000      0.0000000E+00
  0.4500000      0.0000000E+00
  0.4600000      0.0000000E+00
  0.4700000      0.0000000E+00
  0.4800000      0.0000000E+00
  0.4900000      0.0000000E+00
  0.5000000      0.0000000E+00
  0.5100000      0.0000000E+00
  0.5200000      0.0000000E+00
  0.5300000      0.0000000E+00
  0.5400000      0.0000000E+00
  0.5500000      0.0000000E+00
  0.5600000      0.0000000E+00
  0.5700000      0.0000000E+00
  0.5800000      0.0000000E+00
  0.5900000      0.0000000E+00
  0.6000000      0.0000000E+00
  0.6100000      0.0000000E+00
  0.6200000      0.0000000E+00
  0.6300000      0.0000000E+00
  0.6400000      0.0000000E+00
  0.6500000      0.0000000E+00
  0.6600000      0.0000000E+00
  0.6700000      0.0000000E+00
  0.6800000      0.0000000E+00
  0.6900000      0.0000000E+00
  0.7000000      0.0000000E+00
  0.7100000      0.0000000E+00
  0.7200000      0.0000000E+00
  0.7300000      0.0000000E+00
  0.7400000      0.0000000E+00
  0.7500000      0.0000000E+00
  0.7600000      0.0000000E+00
  0.7700000      0.0000000E+00
  0.7800000      0.0000000E+00
  0.7900000      0.0000000E+00
  0.8000000      0.0000000E+00
  0.8100000      0.0000000E+00
  0.8200000      0.0000000E+00
  0.8300000      0.0000000E+00
  0.8400000      0.0000000E+00
  0.8500000      0.0000000E+00
  0.8600000      0.0000000E+00
  0.8700000      0.0000000E+00
  0.8800000      0.0000000E+00
  0.8900000      0.0000000E+00
  0.9000000      0.0000000E+00
  0.9100000      0.0000000E+00
  0.9200000      0.0000000E+00
  0.9300000      0.0000000E+00
  0.9400000      0.0000000E+00
  0.9500000      0.0000000E+00
  0.9600000      0.0000000E+00
  0.9700000      0.0000000E+00
  0.9800000      0.0000000E+00
  0.9900000      0.0000000E+00
   1.000000      0.0000000E+00
   1.010000      0.0000000E+00
   1.020000      0.0000000E+00
   1.030000      0.0000000E+00
   1.040000      0.0000000E+00
   1.050000      0.0000000E+00
   1.060000      0.0000000E+00
   1.070000      0.0000000E+00
   1.080000      0.0000000E+00
   1.090000      0.0000000E+00
   1.100000      0.0000000E+00
   1.110000      0.0000000E+00
   1.120000      0.0000000E+00
   1.130000      0.0000000E+00
   1.140000      0.0000000E+00
   1.150000      0.0000000E+00
   1.160000      0.0000000E+00
   1.170000      0.0000000E+00
   1.180000      0.0000000E+00
   1.190000      0.0000000E+00
   1.200000      0.0000000E+00
   1.210000      0.0000000E+00
   1.220000      0.0000000E+00
   1.230000      0.0000000E+00
   1.240000      0.0000000E+00
   1.250000      0.0000000E+00
   1.260000      0.0000000E+00
   1.270000      0.0000000E+00
   1.280000      0.0000000E+00
   1.290000      0.0000000E+00
   1.300000      0.0000000E+00
   1.310000      0.0000000E+00
   1.320000      0.0000000E+00
   1.330000      0.0000000E+00
   1.340000      0.0000000E+00
   1.350000      0.0000000E+00
   1.360000      0.0000000E+00
   1.370000      0.0000000E+00
   1.380000      0.0000000E+00
   1.390000      0.0000000E+00
   1.400000      0.0000000E+00
   1.410000      0.0000000E+00
   1.420000      0.0000000E+00
   1.430000      0.0000000E+00
   1.440000      0.0000000E+00
   1.450000      0.0000000E+00
   1.460000      0.0000000E+00
   1.470000      0.0000000E+00
   1.480000      0.0000000E+00
   1.490000      0.0000000E+00
   1.500000      0.0000000E+00
   1.510000      0.0000000E+00
   1.520000      0.0000000E+00
   1.530000      0.0000000E+00
   1.540000      0.0000000E+00
   1.550000      0.0000000E+00
   1.560000      0.0000000E+00
   1.570000      0.0000000E+00
   1.580000      0.0000000E+00
   1.590000      0.0000000E+00
   1.600000      0.0000000E+00
   1.610000      0.0000000E+00
   1.620000      0.0000000E+00
   1.630000      0.0000000E+00
   1.640000      0.0000000E+00
   1.650000      0.0000000E+00
   1.660000      0.0000000E+00
   1.670000      0.0000000E+00
   1.680000      0.0000000E+00
   1.690000      0.0000000E+00
   1.700000      0.0000000E+00
   1.710000      0.0000000E+00
   1.720000      0.0000000E+00
   1.730000      0.0000000E+00
   1.740000      0.0000000E+00
   1.750000      0.0000000E+00
   1.760000      0.0000000E+00
   1.770000      0.0000000E+00
   1.780000      0.0000000E+00
   1.790000      0.0000000E+00
   1.800000      0.0000000E+00
   1.810000      0.0000000E+00
   1.820000      0.0000000E+00
   1.830000      0.0000000E+00
   1.840000      0.0000000E+00
   1.850000      0.0000000E+00
   1.860000      0.0000000E+00
   1.870000      0.0000000E+00
   1.880000      0.0000000E+00
   1.890000      0.0000000E+00
   1.900000      0.0000000E+00
   1.910000      0.0000000E+00
   1.920000      0.0000000E+00
   1.930000      0.0000000E+00
   1.940000      0.0000000E+00
   1.950000      0.0000000E+00
   1.960000      0.0000000E+00
   1.970000      0.0000000E+00
   1.980000      0.0000000E+00
   1.990000      0.0000000E+00
   2.000000      0.0000000E+00
   2.010000      0.0000000E+00
   2.020000      0.0000000E+00
   2.030000      0.0000000E+00
   2.040000      0.0000000E+00
   2.050000      0.0000000E+00
   2.060000      0.0000000E+00
   2.070000      0.0000000E+00
   2.080000      0.0000000E+00
   2.090000      0.0000000E+00
   2.100000      0.0000000E+00
   2.110000      0.0000000E+00
   2.120000      0.0000000E+00
   2.130000      0.0000000E+00
   2.140000      0.0000000E+00
   2.150000      0.0000000E+00
   2.160000      0.0000000E+00
   2.170000      0.0000000E+00
   2.180000      0.0000000E+00
   2.190000      0.0000000E+00
   2.200000      0.0000000E+00
   2.210000      0.0000000E+00
   2.220000      0.0000000E+00
   2.230000      0.0000000E+00
   2.240000      0.0000000E+00
   2.250000      0.0000000E+00
   2.260000      0.0000000E+00
   2.270000      0.0000000E+00
   2.280000      0.0000000E+00
   2.290000      0.0000000E+00
   2.300000      0.0000000E+00
   2.310000      0.0000000E+00
   2.320000      0.0000000E+00
   2.330000      0.0000000E+00
   2.340000      0.0000000E+00
   2.350000      0.0000000E+00
   2.360000      0.0000000E+00
   2.370000      0.0000000E+00
   2.380000      0.0000000E+00
   2.390000      0.0000000E+00
   2.400000      0.0000000E+00
   2.410000      0.0000000E+00
   2.420000      0.0000000E+00
   2.430000      1.1873837E-38
   2.440000      1.5733505E-38
   2.450000      1.9557872E-38
   2.460000      2.3192110E-38
   2.470000      2.6061646E-38
   2.480000      2.8366081E-38
   2.490000      3.0803357E-38
   2.500000      3.3361853E-38
   2.510000      3.5161395E-38
   2.520000      3.6487690E-38
   2.530000      3.7936944E-38
   2.540000      3.9181832E-38
   2.550000      4.0573563E-38
   2.560000      4.2630756E-38
   2.570000      4.3982331E-38
   2.580000      4.4581117E-38
   2.590000      4.5467814E-38
   2.600000      4.3885193E-38
   2.610000      3.9105804E-38
   2.620000      3.2744553E-38
   2.630000      2.5162915E-38
   2.640000      1.6538381E-38
   2.650000      0.0000000E+00
   2.660000      0.0000000E+00
   2.670000     -1.9376527E-38
   2.680000     -3.3694799E-38
   2.690000     -5.1580081E-38
   2.700000     -6.8794831E-38
   2.710000     -8.3976639E-38
   2.720000     -1.0125033E-37
   2.730000     -1.2081780E-37
   2.740000     -1.4228325E-37
   2.750000     -1.6557394E-37
   2.760000     -1.9013356E-37
   2.770000     -2.1699066E-37
   2.780000     -2.4625776E-37
   2.790000     -2.7721087E-37
   2.800000     -3.0900685E-37
   2.810000     -3.4204655E-37
   2.820000     -3.7734304E-37
   2.830000     -4.1455175E-37
   2.840000     -4.5285657E-37
   2.850000     -4.8763747E-37
   2.860000     -5.2331233E-37
   2.870000     -5.4899802E-37
   2.880000     -5.5136189E-37
   2.890000     -5.3786445E-37
   2.900000     -5.1009977E-37
   2.910000     -5.0353349E-37
   2.920000     -5.5362522E-37
   2.930000     -6.2998419E-37
   2.940000     -7.1089938E-37
   2.950000     -8.0553694E-37
   2.960000     -9.1107646E-37
   2.970000     -1.0372081E-36
   2.980000     -1.2143618E-36
   2.990000     -1.4311013E-36
   3.000000     -1.4710021E-36
   3.010000     -1.3027983E-36
   3.020000     -1.0647331E-36
   3.030000     -7.2760080E-37
   3.040000     -2.8302754E-37
   3.050000      3.0804827E-37
   3.060000      1.0280612E-36
   3.070000      1.8279217E-36
   3.080000      2.6941763E-36
   3.090000      3.5723423E-36
   3.100000      4.4343541E-36
   3.110000      5.2265848E-36
   3.120000      5.9369729E-36
   3.130000      6.6165337E-36
   3.140000      7.2157782E-36
   3.150000      7.6942857E-36
   3.160000      8.0986043E-36
   3.170000      8.5059371E-36
   3.180000      8.9255737E-36
   3.190000      9.3278705E-36
   3.200000      9.9109736E-36
   3.210000      1.0746267E-35
   3.220000      1.1709110E-35
   3.230000      1.2785686E-35
   3.240000      1.4127351E-35
   3.250000      1.5336090E-35
   3.260000      1.6223032E-35
   3.270000      1.6987116E-35
   3.280000      1.7629657E-35
   3.290000      1.8213965E-35
   3.300000      1.8581844E-35
   3.310000      1.8404683E-35
   3.320000      1.7606015E-35
   3.330000      1.6473295E-35
   3.340000      1.4924073E-35
   3.350000      1.2754893E-35
   3.360000      1.0143205E-35
   3.370000      7.3281124E-36
   3.380000      4.4115039E-36
   3.390000      1.3758685E-36
   3.400000     -1.5293118E-36
   3.410000     -4.2152245E-36
   3.420000     -6.9922514E-36
   3.430000     -9.7948834E-36
   3.440000     -1.2764224E-35
   3.450000     -1.6149394E-35
   3.460000     -1.9670951E-35
   3.470000     -2.3511227E-35
   3.480000     -2.7816071E-35
   3.490000     -3.1912338E-35
   3.500000     -3.5863328E-35
   3.510000     -4.0228152E-35
   3.520000     -4.5050038E-35
   3.530000     -5.1411003E-35
   3.540000     -5.9443561E-35
   3.550000     -6.8725495E-35
   3.560000     -7.9250630E-35
   3.570000     -9.0829151E-35
   3.580000     -1.0374996E-34
   3.590000     -1.1796318E-34
   3.600000     -1.3369991E-34
   3.610000     -1.5032720E-34
   3.620000     -1.6641622E-34
   3.630000     -1.7957966E-34
   3.640000     -1.9039279E-34
   3.650000     -2.0040555E-34
   3.660000     -2.0904489E-34
   3.670000     -2.1619465E-34
   3.680000     -2.2170232E-34
   3.690000     -2.2483685E-34
   3.700000     -2.2591332E-34
   3.710000     -2.2539181E-34
   3.720000     -2.2220478E-34
   3.730000     -2.1598340E-34
   3.740000     -2.0705075E-34
   3.750000     -1.9550264E-34
   3.760000     -1.8105171E-34
   3.770000     -1.6349196E-34
   3.780000     -1.4209635E-34
   3.790000     -1.1766662E-34
   3.800000     -9.1732566E-35
   3.810000     -6.3762562E-35
   3.820000     -3.4216178E-35
   3.830000     -3.8134679E-36
   3.840000      2.8040752E-35
   3.850000      6.3159713E-35
   3.860000      1.0223165E-34
   3.870000      1.4556035E-34
   3.880000      1.9290576E-34
   3.890000      2.4085923E-34
   3.900000      2.8896606E-34
   3.910000      3.3649609E-34
   3.920000      3.8490346E-34
   3.930000      4.3461865E-34
   3.940000      4.8342756E-34
   3.950000      5.3512714E-34
   3.960000      5.9270432E-34
   3.970000      6.5254139E-34
   3.980000      7.1249013E-34
   3.990000      7.7412281E-34
   4.000000      8.3759391E-34
   4.010000      9.0171318E-34
   4.020000      9.6479599E-34
   4.030000      1.0269810E-33
   4.040000      1.0884170E-33
   4.050000      1.1475472E-33
   4.060000      1.2033365E-33
   4.070000      1.2557973E-33
   4.080000      1.3047982E-33
   4.090000      1.3494677E-33
   4.100000      1.3876978E-33
   4.110000      1.4177611E-33
   4.120000      1.4387312E-33
   4.130000      1.4497356E-33
   4.140000      1.4487451E-33
   4.150000      1.4341561E-33
   4.160000      1.4056865E-33
   4.170000      1.3622848E-33
   4.180000      1.3034799E-33
   4.190000      1.2295270E-33
   4.200000      1.1398928E-33
   4.210000      1.0324430E-33
   4.220000      9.0673970E-34
   4.230000      7.6442939E-34
   4.240000      6.0422591E-34
   4.250000      4.2642100E-34
   4.260000      2.3089611E-34
   4.270000      1.6088171E-35
   4.280000     -2.1500081E-34
   4.290000     -4.6245275E-34
   4.300000     -7.2687804E-34
   4.310000     -1.0068592E-33
   4.320000     -1.3029317E-33
   4.330000     -1.6150409E-33
   4.340000     -1.9426297E-33
   4.350000     -2.2839337E-33
   4.360000     -2.6375081E-33
   4.370000     -3.0020565E-33
   4.380000     -3.3796561E-33
   4.390000     -3.7680324E-33
   4.400000     -4.1632428E-33
   4.410000     -4.5643840E-33
   4.420000     -4.9693087E-33
   4.430000     -5.3778165E-33
   4.440000     -5.7885809E-33
   4.450000     -6.1986161E-33
   4.460000     -6.6047949E-33
   4.470000     -7.0043528E-33
   4.480000     -7.3935942E-33
   4.490000     -7.7698810E-33
   4.500000     -8.1293795E-33
   4.510000     -8.4668801E-33
   4.520000     -8.7768249E-33
   4.530000     -9.0535377E-33
   4.540000     -9.2922197E-33
   4.550000     -9.4869756E-33
   4.560000     -9.6321131E-33
   4.570000     -9.7216006E-33
   4.580000     -9.7487905E-33
   4.590000     -9.7091278E-33
   4.600000     -9.5964170E-33
   4.610000     -9.4029174E-33
   4.620000     -9.1228728E-33
   4.630000     -8.7505644E-33
   4.640000     -8.2809815E-33
   4.650000     -7.7093989E-33
   4.660000     -7.0281735E-33
   4.670000     -6.2325357E-33
   4.680000     -5.3219522E-33
   4.690000     -4.2906043E-33
   4.700000     -3.1346485E-33
   4.710000     -1.8538734E-33
   4.720000     -4.4605901E-34
   4.730000      1.0911831E-33
   4.740000      2.7580738E-33
   4.750000      4.5544661E-33
   4.760000      6.4811204E-33
   4.770000      8.5370806E-33
   4.780000      1.0720132E-32
   4.790000      1.3027399E-32
   4.800000      1.5454268E-32
   4.810000      1.7994616E-32
   4.820000      2.0643412E-32
   4.830000      2.3396791E-32
   4.840000      2.6247346E-32
   4.850000      2.9184692E-32
   4.860000      3.2199165E-32
   4.870000      3.5279183E-32
   4.880000      3.8411520E-32
   4.890000      4.1581352E-32
   4.900000      4.4772699E-32
   4.910000      4.7967490E-32
   4.920000      5.1145889E-32
   4.930000      5.4285963E-32
   4.940000      5.7363131E-32
   4.950000      6.0352254E-32
   4.960000      6.3227437E-32
   4.970000      6.5959797E-32
   4.980000      6.8518079E-32
   4.990000      7.0869784E-32
   5.000000      7.2980961E-32
   5.010000      7.4816383E-32
   5.020000      7.6339201E-32
   5.030000      7.7511657E-32
   5.040000      7.8294160E-32
   5.050000      7.8647331E-32
   5.060000      7.8531251E-32
   5.070000      7.7904195E-32
   5.080000      7.6724845E-32
   5.090000      7.4952788E-32
   5.100000      7.2546016E-32
   5.110000      6.9462177E-32
   5.120000      6.5661187E-32
   5.130000      6.1104647E-32
   5.140000      5.5754632E-32
   5.150000      4.9573735E-32
   5.160000      4.2526544E-32
   5.170000      3.4579752E-32
   5.180000      2.5702807E-32
   5.190000      1.5867042E-32
   5.200000      5.0466294E-33
   5.210000     -6.7808311E-33
   5.220000     -1.9634406E-32
   5.230000     -3.3528314E-32
   5.240000     -4.8472324E-32
   5.250000     -6.4471980E-32
   5.260000     -8.1527081E-32
   5.270000     -9.9631528E-32
   5.280000     -1.1877295E-31
   5.290000     -1.3893202E-31
   5.300000     -1.6008195E-31
   5.310000     -1.8218812E-31
   5.320000     -2.0520734E-31
   5.330000     -2.2908753E-31
   5.340000     -2.5376744E-31
   5.350000     -2.7917570E-31
   5.360000     -3.0523081E-31
   5.370000     -3.3184029E-31
   5.380000     -3.5890078E-31
   5.390000     -3.8629763E-31
   5.400000     -4.1390416E-31
   5.410000     -4.4158193E-31
   5.420000     -4.6918023E-31
   5.430000     -4.9653558E-31
   5.440000     -5.2347298E-31
   5.450000     -5.4980429E-31
   5.460000     -5.7532831E-31
   5.470000     -5.9983196E-31
   5.480000     -6.2309043E-31
   5.490000     -6.4486670E-31
   5.500000     -6.6491128E-31
   5.510000     -6.8296353E-31
   5.520000     -6.9875188E-31
   5.530000     -7.1199411E-31
   5.540000     -7.2239803E-31
   5.550000     -7.2966245E-31
   5.560000     -7.3347749E-31
   5.570000     -7.3352559E-31
   5.580000     -7.2948264E-31
   5.590000     -7.2101889E-31
   5.600000     -7.0780023E-31
   5.610000     -6.8948936E-31
   5.620000     -6.6574753E-31
   5.630000     -6.3623538E-31
   5.640000     -6.0061531E-31
   5.650000     -5.5855335E-31
   5.660000     -5.0972059E-31
   5.670000     -4.5379579E-31
   5.680000     -3.9046737E-31
   5.690000     -3.1943577E-31
   5.700000     -2.4041598E-31
   5.710000     -1.5314032E-31
   5.720000     -5.7361168E-32
   5.730000      4.7146163E-32
   5.740000      1.6058022E-31
   5.750000      2.8311076E-31
   5.760000      4.1487498E-31
   5.770000      5.5597460E-31
   5.780000      7.0647229E-31
   5.790000      8.6638814E-31
   5.800000      1.0356963E-30
   5.810000      1.2143212E-30
   5.820000      1.4021346E-30
   5.830000      1.5989505E-30
   5.840000      1.8045232E-30
   5.850000      2.0185422E-30
   5.860000      2.2406297E-30
   5.870000      2.4703365E-30
   5.880000      2.7071383E-30
   5.890000      2.9504316E-30
   5.900000      3.1995324E-30
   5.910000      3.4536701E-30
   5.920000      3.7119870E-30
   5.930000      3.9735331E-30
   5.940000      4.2372656E-30
   5.950000      4.5020433E-30
   5.960000      4.7666277E-30
   5.970000      5.0296785E-30
   5.980000      5.2897520E-30
   5.990000      5.5453015E-30
   6.000000      5.7946737E-30
   6.010000      6.0361112E-30
   6.020000      6.2677490E-30
   6.030000      6.4876176E-30
   6.040000      6.6936410E-30
   6.050000      6.8836408E-30
   6.060000      7.0553382E-30
   6.070000      7.2063544E-30
   6.080000      7.3342151E-30
   6.090000      7.4363541E-30
   6.100000      7.5101202E-30
   6.110000      7.5527788E-30
   6.120000      7.5615222E-30
   6.130000      7.5334743E-30
   6.140000      7.4656982E-30
   6.150000      7.3552085E-30
   6.160000      7.1989772E-30
   6.170000      6.9939469E-30
   6.180000      6.7370414E-30
   6.190000      6.4251784E-30
   6.200000      6.0552855E-30
   6.210000      5.6243105E-30
   6.220000      5.1292416E-30
   6.230000      4.5671206E-30
   6.240000      3.9350646E-30
   6.250000      3.2302833E-30
   6.260000      2.4500972E-30
   6.270000      1.5919624E-30
   6.280000      6.5348886E-31
   6.290000     -3.6753300E-31
   6.300000     -1.4731097E-30
   6.310000     -2.6650178E-30
   6.320000     -3.9447785E-30
   6.330000     -5.3136302E-30
   6.340000     -6.7725018E-30
   6.350000     -8.3219832E-30
   6.360000     -9.9622909E-30
   6.370000     -1.1693246E-29
   6.380000     -1.3514237E-29
   6.390000     -1.5424192E-29
   6.400000     -1.7421542E-29
   6.410000     -1.9504198E-29
   6.420000     -2.1669507E-29
   6.430000     -2.3914228E-29
   6.440000     -2.6234500E-29
   6.450000     -2.8625810E-29
   6.460000     -3.1082960E-29
   6.470000     -3.3600036E-29
   6.480000     -3.6170379E-29
   6.490000     -3.8786556E-29
   6.500000     -4.1440337E-29
   6.510000     -4.4122658E-29
   6.520000     -4.6823606E-29
   6.530000     -4.9532402E-29
   6.540000     -5.2237359E-29
   6.550000     -5.4925885E-29
   6.560000     -5.7584445E-29
   6.570000     -6.0198588E-29
   6.580000     -6.2752876E-29
   6.590000     -6.5230940E-29
   6.600000     -6.7615416E-29
   6.610000     -6.9887995E-29
   6.620000     -7.2029395E-29
   6.630000     -7.4019404E-29
   6.640000     -7.5836862E-29
   6.650000     -7.7459681E-29
   6.660000     -7.8864893E-29
   6.670000     -8.0028660E-29
   6.680000     -8.0926318E-29
   6.690000     -8.1532427E-29
   6.700000     -8.1820798E-29
   6.710000     -8.1764579E-29
   6.720000     -8.1336301E-29
   6.730000     -8.0507934E-29
   6.740000     -7.9251006E-29
   6.750000     -7.7536652E-29
   6.760000     -7.5335741E-29
   6.770000     -7.2618952E-29
   6.780000     -6.9356908E-29
   6.790000     -6.5520287E-29
   6.800000     -6.1079965E-29
   6.810000     -5.6007132E-29
   6.820000     -5.0273470E-29
   6.830000     -4.3851285E-29
   6.840000     -3.6713696E-29
   6.850000     -2.8834806E-29
   6.860000     -2.0189877E-29
   6.870000     -1.0755524E-29
   6.880000     -5.0994727E-31
   6.890000      1.0566887E-29
   6.900000      2.2493014E-29
   6.910000      3.5284204E-29
   6.920000      4.8953808E-29
   6.930000      6.3512439E-29
   6.940000      7.8967708E-29
   6.950000      9.5324017E-29
   6.960000      1.1258229E-28
   6.970000      1.3073966E-28
   6.980000      1.4978921E-28
   6.990000      1.6971966E-28
   7.000000      1.9051517E-28
   7.010000      2.1215498E-28
   7.020000      2.3461310E-28
   7.030000      2.5785811E-28
   7.040000      2.8185277E-28
   7.050000      3.0655376E-28
   7.060000      3.3191144E-28