  -2.600000      0.0000000E+00
  -2.590000      0.0000000E+00
  -2.580000      0.0000000E+00
  -2.570000      0.0000000E+00
  -2.560000      0.0000000E+00
  -2.550000      0.0000000E+00
  -2.540000      0.0000000E+00
  -2.530000      0.0000000E+00
  -2.520000      0.0000000E+00
  -2.510000      0.0000000E+00
  -2.500000      0.0000000E+00
  -2.490000      0.0000000E+00
  -2.480000      0.0000000E+00
  -2.470000      0.0000000E+00
  -2.460000      0.0000000E+00
  -2.450000      0.0000000E+00
  -2.440000      0.0000000E+00
  -2.430000      0.0000000E+00
  -2.420000      0.0000000E+00
  -2.410000      0.0000000E+00
  -2.400000      0.0000000E+00
  -2.390000      0.0000000E+00
  -2.380000      0.0000000E+00
  -2.370000      0.0000000E+00
  -2.360000      0.0000000E+00
  -2.350000      0.0000000E+00
  -2.340000      0.0000000E+00
  -2.330000      0.0000000E+00
  -2.320000      0.0000000E+00
  -2.310000      0.0000000E+00
  -2.300000      0.0000000E+00
  -2.290000      0.0000000E+00
  -2.280000      0.0000000E+00
  -2.270000      0.0000000E+00
  -2.260000      0.0000000E+00
  -2.250000      0.0000000E+00
  -2.240000      0.0000000E+00
  -2.230000      0.0000000E+00
  -2.220000      0.0000000E+00
  -2.210000      0.0000000E+00
  -2.200000      0.0000000E+00
  -2.190000      0.0000000E+00
  -2.180000      0.0000000E+00
  -2.170000      0.0000000E+00
  -2.160000      0.0000000E+00
  -2.150000      0.0000000E+00
  -2.140000      0.0000000E+00
  -2.130000      0.0000000E+00
  -2.120000      0.0000000E+00
  -2.110000      0.0000000E+00
  -2.100000      0.0000000E+00
  -2.090000      0.0000000E+00
  -2.080000      0.0000000E+00
  -2.070000      0.0000000E+00
  -2.060000      0.0000000E+00
  -2.050000      0.0000000E+00
  -2.040000      0.0000000E+00
  -2.030000      0.0000000E+00
  -2.020000      0.0000000E+00
  -2.010000      0.0000000E+00
  -2.000000      0.0000000E+00
  -1.990000      0.0000000E+00
  -1.980000      0.0000000E+00
  -1.970000      0.0000000E+00
  -1.960000      0.0000000E+00
  -1.950000      0.0000000E+00
  -1.940000      0.0000000E+00
  -1.930000      0.0000000E+00
  -1.920000      0.0000000E+00
  -1.910000      0.0000000E+00
  -1.900000      0.0000000E+00
  -1.890000      0.0000000E+00
  -1.880000      0.0000000E+00
  -1.870000      0.0000000E+00
  -1.860000      0.0000000E+00
  -1.850000      0.0000000E+00
  -1.840000      0.0000000E+00
  -1.830000      0.0000000E+00
  -1.820000      0.0000000E+00
  -1.810000      0.0000000E+00
  -1.800000      0.0000000E+00
  -1.790000      0.0000000E+00
  -1.780000      0.0000000E+00
  -1.770000      0.0000000E+00
  -1.760000      0.0000000E+00
  -1.750000      0.0000000E+00
  -1.740000      0.0000000E+00
  -1.730000      0.0000000E+00
  -1.720000      0.0000000E+00
  -1.710000      0.0000000E+00
  -1.700000      0.0000000E+00
  -1.690000      0.0000000E+00
  -1.680000      0.0000000E+00
  -1.670000      0.0000000E+00
  -1.660000      0.0000000E+00
  -1.650000      0.0000000E+00
  -1.640000      0.0000000E+00
  -1.630000      0.0000000E+00
  -1.620000      0.0000000E+00
  -1.610000      0.0000000E+00
  -1.600000      0.0000000E+00
  -1.590000      0.0000000E+00
  -1.580000      0.0000000E+00
  -1.570000      0.0000000E+00
  -1.560000      0.0000000E+00
  -1.550000      0.0000000E+00
  -1.540000      0.0000000E+00
  -1.530000      0.0000000E+00
  -1.520000      0.0000000E+00
  -1.510000      0.0000000E+00
  -1.500000      0.0000000E+00
  -1.490000      0.0000000E+00
  -1.480000      0.0000000E+00
  -1.470000      0.0000000E+00
  -1.460000      0.0000000E+00
  -1.450000      0.0000000E+00
  -1.440000      0.0000000E+00
  -1.430000      0.0000000E+00
  -1.420000      0.0000000E+00
  -1.410000      0.0000000E+00
  -1.400000      0.0000000E+00
  -1.390000      0.0000000E+00
  -1.380000      0.0000000E+00
  -1.370000      0.0000000E+00
  -1.360000      0.0000000E+00
  -1.350000      0.0000000E+00
  -1.340000      0.0000000E+00
  -1.330000      0.0000000E+00
  -1.320000      0.0000000E+00
  -1.310000      0.0000000E+00
  -1.300000      0.0000000E+00
  -1.290000      0.0000000E+00
  -1.280000      0.0000000E+00
  -1.270000      0.0000000E+00
  -1.260000      0.0000000E+00
  -1.250000      0.0000000E+00
  -1.240000      0.0000000E+00
  -1.230000      0.0000000E+00
  -1.220000      0.0000000E+00
  -1.210000      0.0000000E+00
  -1.200000      0.0000000E+00
  -1.190000      0.0000000E+00
  -1.180000      0.0000000E+00
  -1.170000      0.0000000E+00
  -1.160000      0.0000000E+00
  -1.150000      0.0000000E+00
  -1.140000      0.0000000E+00
  -1.130000      0.0000000E+00
  -1.120000      0.0000000E+00
  -1.110000      0.0000000E+00
  -1.100000      0.0000000E+00
  -1.090000      0.0000000E+00
  -1.080000      0.0000000E+00
  -1.070000      0.0000000E+00
  -1.060000      0.0000000E+00
  -1.050000      0.0000000E+00
  -1.040000      0.0000000E+00
  -1.030000      0.0000000E+00
  -1.020000      0.0000000E+00
  -1.010000      0.0000000E+00
  -1.000000      0.0000000E+00
 -0.9900000      0.0000000E+00
 -0.9800000      0.0000000E+00
 -0.9700000      0.0000000E+00
 -0.9600000      0.0000000E+00
 -0.9500000      0.0000000E+00
 -0.9400000      0.0000000E+00
 -0.9300000      0.0000000E+00
 -0.9200000      0.0000000E+00
 -0.9100000      0.0000000E+00
 -0.9000000      0.0000000E+00
 -0.8900000      0.0000000E+00
 -0.8800000      0.0000000E+00
 -0.8700000      0.0000000E+00
 -0.8600000      0.0000000E+00
 -0.8500000      0.0000000E+00
 -0.8400000      0.0000000E+00
 -0.8300000      0.0000000E+00
 -0.8200000      0.0000000E+00
 -0.8100000      0.0000000E+00
 -0.8000000      0.0000000E+00
 -0.7900000      0.0000000E+00
 -0.7800000      0.0000000E+00
 -0.7700000      0.0000000E+00
 -0.7600000      0.0000000E+00
 -0.7500000      0.0000000E+00
 -0.7400000      0.0000000E+00
 -0.7300000      0.0000000E+00
 -0.7200000      0.0000000E+00
 -0.7100000      0.0000000E+00
 -0.7000000      0.0000000E+00
 -0.6900000      0.0000000E+00
 -0.6800000      0.0000000E+00
 -0.6700000      0.0000000E+00
 -0.6600000      0.0000000E+00
 -0.6500000      0.0000000E+00
 -0.6400000      0.0000000E+00
 -0.6300000      0.0000000E+00
 -0.6200000      0.0000000E+00
 -0.6100000      0.0000000E+00
 -0.6000000      0.0000000E+00
 -0.5900000      0.0000000E+00
 -0.5800000      0.0000000E+00
 -0.5700000      0.0000000E+00
 -0.5600000      0.0000000E+00
 -0.5500000      0.0000000E+00
 -0.5400000      0.0000000E+00
 -0.5300000      0.0000000E+00
 -0.5200000      0.0000000E+00
 -0.5100000      0.0000000E+00
 -0.5000000      0.0000000E+00
 -0.4900000      0.0000000E+00
 -0.4800000      0.0000000E+00
 -0.4700000      0.0000000E+00
 -0.4600000      0.0000000E+00
 -0.4500000      0.0000000E+00
 -0.4400000      0.0000000E+00
 -0.4300000      0.0000000E+00
 -0.4200000      0.0000000E+00
 -0.4100000      0.0000000E+00
 -0.4000000      0.0000000E+00
 -0.3900000      0.0000000E+00
 -0.3800000      0.0000000E+00
 -0.3700000      0.0000000E+00
 -0.3600000      0.0000000E+00
 -0.3500000      0.0000000E+00
 -0.3400000      0.0000000E+00
 -0.3300000      0.0000000E+00
 -0.3200000      0.0000000E+00
 -0.3100000      0.0000000E+00
 -0.3000000      0.0000000E+00
 -0.2900000      0.0000000E+00
 -0.2800000      0.0000000E+00
 -0.2700000      0.0000000E+00
 -0.2600000      0.0000000E+00
 -0.2500000      0.0000000E+00
 -0.2400000      0.0000000E+00
 -0.2300000      0.0000000E+00
 -0.2200000      0.0000000E+00
 -0.2100000      0.0000000E+00
 -0.2000000      0.0000000E+00
 -0.1900000      0.0000000E+00
 -0.1800000      0.0000000E+00
 -0.1700000      0.0000000E+00
 -0.1600000      0.0000000E+00
 -0.1500000      0.0000000E+00
 -0.1400000      0.0000000E+00
 -0.1300000      0.0000000E+00
 -0.1200000      0.0000000E+00
 -0.1100000      0.0000000E+00
 -0.1000000      0.0000000E+00
 -9.0000004E-02  0.0000000E+00
 -7.9999998E-02  0.0000000E+00
 -7.0000000E-02  0.0000000E+00
 -5.9999999E-02  0.0000000E+00
 -5.0000001E-02  0.0000000E+00
 -3.9999999E-02  0.0000000E+00
 -2.9999999E-02  0.0000000E+00
 -2.0000000E-02  0.0000000E+00
 -9.9999998E-03  0.0000000E+00
 -3.4694470E-17  0.0000000E+00
  9.9999998E-03  0.0000000E+00
  2.0000000E-02  0.0000000E+00
  2.9999999E-02  0.0000000E+00
  3.9999999E-02  0.0000000E+00
  5.0000001E-02  0.0000000E+00
  5.9999999E-02  0.0000000E+00
  7.0000000E-02  0.0000000E+00
  7.9999998E-02  0.0000000E+00
  9.0000004E-02  0.0000000E+00
  0.1000000      0.0000000E+00
  0.1100000      0.0000000E+00
  0.1200000      0.0000000E+00
  0.1300000      0.0000000E+00
  0.1400000      0.0000000E+00
  0.1500000      0.0000000E+00
  0.1600000      0.0000000E+00
  0.1700000      0.0000000E+00
  0.1800000      0.0000000E+00
  0.1900000      0.0000000E+00
  0.2000000      0.0000000E+00
  0.2100000      0.0000000E+00
  0.2200000      0.0000000E+00
  0.2300000      0.0000000E+00
  0.2400000      0.0000000E+00
  0.2500000      0.0000000E+00
  0.2600000      0.0000000E+00
  0.2700000      0.0000000E+00
  0.2800000      0.0000000E+00
  0.2900000      0.0000000E+00
  0.3000000      0.0000000E+00
  0.3100000      0.0000000E+00
  0.3200000      0.0000000E+00
  0.3300000      0.0000000E+00
  0.3400000      0.0000000E+00
  0.3500000      0.0000000E+00
  0.3600000      0.0000000E+00
  0.3700000      0.0000000E+00
  0.3800000      0.0000000E+00
  0.3900000      0.0000000E+00
  0.4000000      0.0000000E+00
  0.4100000      0.0000000E+00
  0.4200000      0.0000000E+00
  0.4300000      0.0000000E+00
  0.4400000      0.0000000E+00
  0.4500000      0.0000000E+00
  0.4600000      0.0000000E+00
  0.4700000      0.0000000E+00
  0.4800000      0.0000000E+00
  0.4900000      0.0000000E+00
  0.5000000      0.0000000E+00
  0.5100000      0.0000000E+00
  0.5200000      0.0000000E+00
  0.5300000      0.0000000E+00
  0.5400000      0.0000000E+00
  0.5500000      0.0000000E+00
  0.5600000      0.0000000E+00
  0.5700000      0.0000000E+00
  0.5800000      0.0000000E+00
  0.5900000      0.0000000E+00
  0.6000000      0.0000000E+00
  0.6100000      0.0000000E+00
  0.6200000      0.0000000E+00
  0.6300000      0.0000000E+00
  0.6400000      0.0000000E+00
  0.6500000      0.0000000E+00
  0.6600000      0.0000000E+00
  0.6700000      0.0000000E+00
  0.6800000      0.0000000E+00
  0.6900000      0.0000000E+00
  0.7000000      0.0000000E+00
  0.7100000      0.0000000E+00
  0.7200000      0.0000000E+00
  0.7300000      0.0000000E+00
  0.7400000      0.0000000E+00
  0.7500000      0.0000000E+00
  0.7600000      0.0000000E+00
  0.7700000      0.0000000E+00
  0.7800000      0.0000000E+00
  0.7900000      0.0000000E+00
  0.8000000      0.0000000E+00
  0.8100000      0.0000000E+00
  0.8200000      0.0000000E+00
  0.8300000      0.0000000E+00
  0.8400000      0.0000000E+00
  0.8500000      0.0000000E+00
  0.8600000      0.0000000E+00
  0.8700000      0.0000000E+00
  0.8800000      0.0000000E+00
  0.8900000      0.0000000E+00
  0.9000000      0.0000000E+00
  0.9100000      0.0000000E+00
  0.9200000      0.0000000E+00
  0.9300000      0.0000000E+00
  0.9400000      0.0000000E+00
  0.9500000      0.0000000E+00
  0.9600000      0.0000000E+00
  0.9700000      0.0000000E+00
  0.9800000      0.0000000E+00
  0.9900000      0.0000000E+00
   1.000000      0.0000000E+00
   1.010000      0.0000000E+00
   1.020000      0.0000000E+00
   1.030000      0.0000000E+00
   1.040000      0.0000000E+00
   1.050000      0.0000000E+00
   1.060000      0.0000000E+00
   1.070000      0.0000000E+00
   1.080000      0.0000000E+00
   1.090000      0.0000000E+00
   1.100000      0.0000000E+00
   1.110000      0.0000000E+00
   1.120000      0.0000000E+00
   1.130000      0.0000000E+00
   1.140000      0.0000000E+00
   1.150000      0.0000000E+00
   1.160000      0.0000000E+00
   1.170000      0.0000000E+00
   1.180000      0.0000000E+00
   1.190000      0.0000000E+00
   1.200000      0.0000000E+00
   1.210000      0.0000000E+00
   1.220000      0.0000000E+00
   1.230000      0.0000000E+00
   1.240000      0.0000000E+00
   1.250000      0.0000000E+00
   1.260000      0.0000000E+00
   1.270000      0.0000000E+00
   1.280000      0.0000000E+00
   1.290000      0.0000000E+00
   1.300000      0.0000000E+00
   1.310000      0.0000000E+00
   1.320000      0.0000000E+00
   1.330000      0.0000000E+00
   1.340000      0.0000000E+00
   1.350000      0.0000000E+00
   1.360000      0.0000000E+00
   1.370000      0.0000000E+00
   1.380000      0.0000000E+00
   1.390000      0.0000000E+00
   1.400000      0.0000000E+00
   1.410000      0.0000000E+00
   1.420000      0.0000000E+00
   1.430000      0.0000000E+00
   1.440000      0.0000000E+00
   1.450000      0.0000000E+00
   1.460000      0.0000000E+00
   1.470000      0.0000000E+00
   1.480000      0.0000000E+00
   1.490000      0.0000000E+00
   1.500000      0.0000000E+00
   1.510000      0.0000000E+00
   1.520000      0.0000000E+00
   1.530000      0.0000000E+00
   1.540000      0.0000000E+00
   1.550000      0.0000000E+00
   1.560000      0.0000000E+00
   1.570000      0.0000000E+00
   1.580000      0.0000000E+00
   1.590000      0.0000000E+00
   1.600000      0.0000000E+00
   1.610000      0.0000000E+00
   1.620000      0.0000000E+00
   1.630000      0.0000000E+00
   1.640000      0.0000000E+00
   1.650000      0.0000000E+00
   1.660000      0.0000000E+00
   1.670000      0.0000000E+00
   1.680000      0.0000000E+00
   1.690000      0.0000000E+00
   1.700000      0.0000000E+00
   1.710000      0.0000000E+00
   1.720000      0.0000000E+00
   1.730000      0.0000000E+00
   1.740000      0.0000000E+00
   1.750000      0.0000000E+00
   1.760000      0.0000000E+00
   1.770000      0.0000000E+00
   1.780000      0.0000000E+00
   1.790000      0.0000000E+00
   1.800000      0.0000000E+00
   1.810000      0.0000000E+00
   1.820000      0.0000000E+00
   1.830000      0.0000000E+00
   1.840000      0.0000000E+00
   1.850000      0.0000000E+00
   1.860000      0.0000000E+00
   1.870000      0.0000000E+00
   1.880000      0.0000000E+00
   1.890000      0.0000000E+00
   1.900000      0.0000000E+00
   1.910000      0.0000000E+00
   1.920000      0.0000000E+00
   1.930000      0.0000000E+00
   1.940000      0.0000000E+00
   1.950000      0.0000000E+00
   1.960000      0.0000000E+00
   1.970000      0.0000000E+00
   1.980000      0.0000000E+00
   1.990000      0.0000000E+00
   2.000000      0.0000000E+00
   2.010000      0.0000000E+00
   2.020000      0.0000000E+00
   2.030000      0.0000000E+00
   2.040000      0.0000000E+00
   2.050000      0.0000000E+00
   2.060000      0.0000000E+00
   2.070000      0.0000000E+00
   2.080000      0.0000000E+00
   2.090000      0.0000000E+00
   2.100000      0.0000000E+00
   2.110000      0.0000000E+00
   2.120000      0.0000000E+00
   2.130000      0.0000000E+00
   2.140000      0.0000000E+00
   2.150000      0.0000000E+00
   2.160000      0.0000000E+00
   2.170000      0.0000000E+00
   2.180000      0.0000000E+00
   2.190000      0.0000000E+00
   2.200000      0.0000000E+00
   2.210000      0.0000000E+00
   2.220000      0.0000000E+00
   2.230000      0.0000000E+00
   2.240000      0.0000000E+00
   2.250000      0.0000000E+00
   2.260000      0.0000000E+00
   2.270000      0.0000000E+00
   2.280000      0.0000000E+00
   2.290000      0.0000000E+00
   2.300000      0.0000000E+00
   2.310000      0.0000000E+00
   2.320000      0.0000000E+00
   2.330000      0.0000000E+00
   2.340000      0.0000000E+00
   2.350000      0.0000000E+00
   2.360000      0.0000000E+00
   2.370000      0.0000000E+00
   2.380000      0.0000000E+00
   2.390000      0.0000000E+00
   2.400000      0.0000000E+00
   2.410000      0.0000000E+00
   2.420000      1.2351532E-38
   2.430000      1.2978141E-38
   2.440000      1.3216370E-38
   2.450000      1.3006820E-38
   2.460000      1.2299875E-38
   2.470000      0.0000000E+00
   2.480000      0.0000000E+00
   2.490000      0.0000000E+00
   2.500000      0.0000000E+00
   2.510000      0.0000000E+00
   2.520000      0.0000000E+00
   2.530000      0.0000000E+00
   2.540000      0.0000000E+00
   2.550000      0.0000000E+00
   2.560000      0.0000000E+00
   2.570000     -1.3396092E-38
   2.580000     -1.5021318E-38
   2.590000     -1.6582913E-38
   2.600000     -1.8206421E-38
   2.610000     -1.9974257E-38
   2.620000     -2.3421088E-38
   2.630000     -2.8482056E-38
   2.640000     -3.3977135E-38
   2.650000     -3.9959396E-38
   2.660000     -4.6484374E-38
   2.670000     -5.3600591E-38
   2.680000     -6.1323181E-38
   2.690000     -6.9646114E-38
   2.700000     -7.8553020E-38
   2.710000     -8.8028387E-38
   2.720000     -9.8516809E-38
   2.730000     -1.1012321E-37
   2.740000     -1.2246617E-37
   2.750000     -1.3430271E-37
   2.760000     -1.4591590E-37
   2.770000     -1.5875258E-37
   2.780000     -1.7270865E-37
   2.790000     -1.8514859E-37
   2.800000     -1.9556911E-37
   2.810000     -2.0595538E-37
   2.820000     -1.9288169E-37
   2.830000     -1.5449050E-37
   2.840000     -1.1180156E-37
   2.850000     -6.4047215E-38
   2.860000     -1.4698032E-38
   2.870000      4.7236112E-38
   2.880000      1.2929598E-37
   2.890000      2.2457716E-37
   2.900000      3.3019847E-37
   2.910000      3.8944694E-37
   2.920000      3.9617761E-37
   2.930000      1.1443359E-37
   2.940000     -4.7112690E-37
   2.950000     -8.5120689E-37
   2.960000     -1.0255881E-36
   2.970000     -1.2370144E-36
   2.980000     -1.4817711E-36
   2.990000     -1.7590085E-36
   3.000000     -2.0941569E-36
   3.010000     -2.2590929E-36
   3.020000     -2.1181866E-36
   3.030000     -1.8138501E-36
   3.040000     -1.3302611E-36
   3.050000     -6.7366282E-37
   3.060000      3.9222631E-37
   3.070000      1.7663195E-36
   3.080000      3.0765917E-36
   3.090000      4.1046966E-36
   3.100000      4.6965204E-36
   3.110000      4.8639171E-36
   3.120000      4.7653830E-36
   3.130000      4.6656310E-36
   3.140000      4.6097667E-36
   3.150000      4.6294614E-36
   3.160000      4.6660145E-36
   3.170000      4.7539226E-36
   3.180000      5.1144608E-36
   3.190000      5.9590084E-36
   3.200000      7.3904572E-36
   3.210000      9.1861856E-36
   3.220000      1.1089075E-35
   3.230000      1.3158463E-35
   3.240000      1.4674500E-35
   3.250000      1.5373119E-35
   3.260000      1.5551136E-35
   3.270000      1.5411755E-35
   3.280000      1.5513714E-35
   3.290000      1.5661634E-35
   3.300000      1.5818801E-35
   3.310000      1.5967957E-35
   3.320000      1.5927403E-35
   3.330000      1.5698556E-35
   3.340000      1.5885609E-35
   3.350000      1.7124955E-35
   3.360000      1.6791986E-35
   3.370000      1.4104847E-35
   3.380000      1.1160088E-35
   3.390000      8.2146019E-36
   3.400000      5.1619262E-36
   3.410000      2.0972874E-36
   3.420000     -2.8485387E-37
   3.430000     -2.2783712E-36
   3.440000     -3.4855305E-36
   3.450000     -3.9167699E-36
   3.460000     -4.8192388E-36
   3.470000     -7.8675642E-36
   3.480000     -1.3164238E-35
   3.490000     -1.8850480E-35
   3.500000     -2.5181666E-35
   3.510000     -3.1931156E-35
   3.520000     -3.9475878E-35
   3.530000     -4.7857965E-35
   3.540000     -5.6156511E-35
   3.550000     -6.4904387E-35
   3.560000     -7.4870300E-35
   3.570000     -8.5180011E-35
   3.580000     -9.5649838E-35
   3.590000     -1.0803775E-34
   3.600000     -1.2362572E-34
   3.610000     -1.4210199E-34
   3.620000     -1.6318322E-34
   3.630000     -1.7815652E-34
   3.640000     -1.8155400E-34
   3.650000     -1.7881341E-34
   3.660000     -1.7336070E-34
   3.670000     -1.7148211E-34
   3.680000     -1.7747298E-34
   3.690000     -1.8442687E-34
   3.700000     -1.7787851E-34
   3.710000     -1.5959652E-34
   3.720000     -1.4092749E-34
   3.730000     -1.2428761E-34
   3.740000     -1.0984895E-34
   3.750000     -9.5795305E-35
   3.760000     -8.0294202E-35
   3.770000     -6.4726128E-35
   3.780000     -4.9189497E-35
   3.790000     -2.6240366E-35
   3.800000      5.9899161E-36
   3.810000      4.3111298E-35
   3.820000      8.2525592E-35
   3.830000      1.2169356E-34
   3.840000      1.6059228E-34
   3.850000      2.0254909E-34
   3.860000      2.3858984E-34
   3.870000      2.6225534E-34
   3.880000      2.8740210E-34
   3.890000      3.1774627E-34
   3.900000      3.4907776E-34
   3.910000      3.8542646E-34
   3.920000      4.2767148E-34
   3.930000      4.7020031E-34
   3.940000      5.1222919E-34
   3.950000      5.4389012E-34
   3.960000      5.6465767E-34
   3.970000      5.8791505E-34
   3.980000      6.1807915E-34
   3.990000      6.5322327E-34
   4.000000      6.9035107E-34
   4.010000      7.2918509E-34
   4.020000      7.6507486E-34
   4.030000      7.9580049E-34
   4.040000      8.2128962E-34
   4.050000      8.4171126E-34
   4.060000      8.5790921E-34
   4.070000      8.7048709E-34
   4.080000      8.7817510E-34
   4.090000      8.7783328E-34
   4.100000      8.6843631E-34
   4.110000      8.4991575E-34
   4.120000      8.2139339E-34
   4.130000      7.8262127E-34
   4.140000      7.3416896E-34
   4.150000      6.7504967E-34
   4.160000      6.0207002E-34
   4.170000      5.2032964E-34
   4.180000      4.3415332E-34
   4.190000      3.4069993E-34
   4.200000      2.4249007E-34
   4.210000      1.3669692E-34
   4.220000      2.2944990E-35
   4.230000     -1.0117833E-34
   4.240000     -2.4549649E-34
   4.250000     -4.0630053E-34
   4.260000     -5.7766396E-34
   4.270000     -7.6100852E-34
   4.280000     -9.5780024E-34
   4.290000     -1.1654655E-33
   4.300000     -1.3787719E-33
   4.310000     -1.5948496E-33
   4.320000     -1.8137702E-33
   4.330000     -2.0384464E-33
   4.340000     -2.2636759E-33
   4.350000     -2.4942624E-33
   4.360000     -2.7270383E-33
   4.370000     -2.9526954E-33
   4.380000     -3.1766864E-33
   4.390000     -3.3981393E-33
   4.400000     -3.6233945E-33
   4.410000     -3.8609520E-33
   4.420000     -4.1079773E-33
   4.430000     -4.3595537E-33
   4.440000     -4.6123790E-33
   4.450000     -4.8608117E-33
   4.460000     -5.0988732E-33
   4.470000     -5.3190734E-33
   4.480000     -5.5141474E-33
   4.490000     -5.6777600E-33
   4.500000     -5.8060263E-33
   4.510000     -5.8932259E-33
   4.520000     -5.9373448E-33
   4.530000     -5.9419917E-33
   4.540000     -5.9106391E-33
   4.550000     -5.8423755E-33
   4.560000     -5.7335608E-33
   4.570000     -5.5832643E-33
   4.580000     -5.3910676E-33
   4.590000     -5.1544873E-33
   4.600000     -4.8684123E-33
   4.610000     -4.5269077E-33
   4.620000     -4.1214026E-33
   4.630000     -3.6455426E-33
   4.640000     -3.0952045E-33
   4.650000     -2.4674626E-33
   4.660000     -1.7582350E-33
   4.670000     -9.6036465E-34
   4.680000     -6.5061190E-35
   4.690000      9.1966904E-34
   4.700000      1.9813115E-33
   4.710000      3.1249426E-33
   4.720000      4.3514097E-33
   4.730000      5.6555898E-33
   4.740000      7.0314876E-33
   4.750000      8.4759292E-33
   4.760000      9.9855879E-33
   4.770000      1.1556981E-32
   4.780000      1.3189939E-32
   4.790000      1.4884427E-32
   4.800000      1.6642277E-32
   4.810000      1.8463109E-32
   4.820000      2.0343373E-32
   4.830000      2.2277760E-32
   4.840000      2.4258696E-32
   4.850000      2.6275687E-32
   4.860000      2.8315910E-32
   4.870000      3.0364095E-32
   4.880000      3.2403398E-32
   4.890000      3.4415565E-32
   4.900000      3.6381494E-32
   4.910000      3.8281214E-32
   4.920000      4.0094190E-32
   4.930000      4.1801258E-32
   4.940000      4.3384120E-32
   4.950000      4.4824556E-32
   4.960000      4.6104643E-32
   4.970000      4.7206498E-32
   4.980000      4.8111335E-32
   4.990000      4.8799496E-32
   5.000000      4.9249798E-32
   5.010000      4.9438436E-32
   5.020000      4.9339835E-32
   5.030000      4.8926955E-32
   5.040000      4.8170739E-32
   5.050000      4.7040906E-32
   5.060000      4.5504844E-32
   5.070000      4.3530904E-32
   5.080000      4.1089902E-32
   5.090000      3.8153120E-32
   5.100000      3.4694134E-32
   5.110000      3.0688190E-32
   5.120000      2.6112296E-32
   5.130000      2.0948156E-32
   5.140000      1.5178168E-32
   5.150000      8.7874242E-33
   5.160000      1.7658155E-33
   5.170000     -5.9038664E-33
   5.180000     -1.4236055E-32
   5.190000     -2.3237941E-32
   5.200000     -3.2917753E-32
   5.210000     -4.3282851E-32
   5.220000     -5.4337885E-32
   5.230000     -6.6083759E-32
   5.240000     -7.8516922E-32
   5.250000     -9.1628915E-32
   5.260000     -1.0540617E-31
   5.270000     -1.1982765E-31
   5.280000     -1.3486562E-31
   5.290000     -1.5048524E-31
   5.300000     -1.6664385E-31
   5.310000     -1.8329131E-31
   5.320000     -2.0037004E-31
   5.330000     -2.1781532E-31
   5.340000     -2.3555588E-31
   5.350000     -2.5351376E-31
   5.360000     -2.7160436E-31
   5.370000     -2.8973672E-31
   5.380000     -3.0781323E-31
   5.390000     -3.2572927E-31
   5.400000     -3.4337269E-31
   5.410000     -3.6062328E-31
   5.420000     -3.7735221E-31
   5.430000     -3.9342141E-31
   5.440000     -4.0868327E-31
   5.450000     -4.2298034E-31
   5.460000     -4.3614531E-31
   5.470000     -4.4800135E-31
   5.480000     -4.5836258E-31
   5.490000     -4.6703486E-31
   5.500000     -4.7381643E-31
   5.510000     -4.7849856E-31
   5.520000     -4.8086733E-31
   5.530000     -4.8070379E-31
   5.540000     -4.7778537E-31
   5.550000     -4.7188697E-31
   5.560000     -4.6278098E-31
   5.570000     -4.5023700E-31
   5.580000     -4.3402378E-31
   5.590000     -4.1390976E-31
   5.600000     -3.8966316E-31
   5.610000     -3.6105290E-31
   5.620000     -3.2784986E-31
   5.630000     -2.8982803E-31
   5.640000     -2.4676591E-31
   5.650000     -1.9844853E-31
   5.660000     -1.4466959E-31
   5.670000     -8.5235054E-32
   5.680000     -1.9961008E-32
   5.690000      5.1320408E-32
   5.700000      1.2875568E-31
   5.710000      2.1247197E-31
   5.720000      3.0257309E-31
   5.730000      3.9913741E-31
   5.740000      5.0221600E-31
   5.750000      6.1183009E-31
   5.760000      7.2796917E-31
   5.770000      8.5058893E-31
   5.780000      9.7960922E-31
   5.790000      1.1149120E-30
   5.800000      1.2563388E-30
   5.810000      1.4036877E-30
   5.820000      1.5567111E-30
   5.830000      1.7151121E-30
   5.840000      1.8785421E-30
   5.850000      2.0465968E-30
   5.860000      2.2188140E-30
   5.870000      2.3946697E-30
   5.880000      2.5735762E-30
   5.890000      2.7548788E-30
   5.900000      2.9378542E-30
   5.910000      3.1217086E-30
   5.920000      3.3055751E-30
   5.930000      3.4885136E-30
   5.940000      3.6695097E-30
   5.950000      3.8474731E-30
   5.960000      4.0212375E-30
   5.970000      4.1895612E-30
   5.980000      4.3511249E-30
   5.990000      4.5045346E-30
   6.000000      4.6483166E-30
   6.010000      4.7809229E-30
   6.020000      4.9007300E-30
   6.030000      5.0060389E-30
   6.040000      5.0950785E-30
   6.050000      5.1660069E-30
   6.060000      5.2169146E-30
   6.070000      5.2458277E-30
   6.080000      5.2507128E-30
   6.090000      5.2294821E-30
   6.100000      5.1799985E-30
   6.110000      5.1000829E-30
   6.120000      4.9875221E-30
   6.130000      4.8400756E-30
   6.140000      4.6554846E-30
   6.150000      4.4314813E-30
   6.160000      4.1657981E-30
   6.170000      3.8561789E-30
   6.180000      3.5003890E-30
   6.190000      3.0962284E-30
   6.200000      2.6415442E-30
   6.210000      2.1342424E-30
   6.220000      1.5723027E-30
   6.230000      9.5379546E-31
   6.240000      2.7689562E-31
   6.250000     -4.6009893E-31
   6.260000     -1.2587491E-30
   6.270000     -2.1204560E-30
   6.280000     -3.0464407E-30
   6.290000     -4.0377234E-30
   6.300000     -5.0951007E-30
   6.310000     -6.2191265E-30
   6.320000     -7.4100869E-30
   6.330000     -8.6679772E-30
   6.340000     -9.9924806E-30
   6.350000     -1.1382944E-29
   6.360000     -1.2838351E-29
   6.370000     -1.4357305E-29
   6.380000     -1.5937997E-29
   6.390000     -1.7578190E-29
   6.400000     -1.9275187E-29
   6.410000     -2.1025811E-29
   6.420000     -2.2826377E-29
   6.430000     -2.4672678E-29
   6.440000     -2.6559946E-29
   6.450000     -2.8482834E-29
   6.460000     -3.0435405E-29
   6.470000     -3.2411087E-29
   6.480000     -3.4402682E-29
   6.490000     -3.6402318E-29
   6.500000     -3.8401439E-29
   6.510000     -4.0390810E-29
   6.520000     -4.2360477E-29
   6.530000     -4.4299762E-29
   6.540000     -4.6197258E-29
   6.550000     -4.8040818E-29
   6.560000     -4.9817560E-29
   6.570000     -5.1513847E-29
   6.580000     -5.3115288E-29
   6.590000     -5.4606770E-29
   6.600000     -5.5972435E-29
   6.610000     -5.7195708E-29
   6.620000     -5.8259291E-29
   6.630000     -5.9145224E-29
   6.640000     -5.9834870E-29
   6.650000     -6.0308955E-29
   6.660000     -6.0547614E-29
   6.670000     -6.0530395E-29
   6.680000     -6.0236354E-29
   6.690000     -5.9644058E-29
   6.700000     -5.8731679E-29
   6.710000     -5.7477056E-29
   6.720000     -5.5857728E-29
   6.730000     -5.3851042E-29
   6.740000     -5.1434228E-29
   6.750000     -4.8584481E-29
   6.760000     -4.5279073E-29
   6.770000     -4.1495449E-29
   6.780000     -3.7211314E-29
   6.790000     -3.2404797E-29
   6.800000     -2.7054543E-29
   6.810000     -2.1139872E-29
   6.820000     -1.4640891E-29
   6.830000     -7.5386570E-30
   6.840000      1.8467019E-31
   6.850000      8.5456679E-30
   6.860000      1.7559483E-29
   6.870000      2.7239646E-29
   6.880000      3.7597878E-29
   6.890000      4.8643941E-29
   6.900000      6.0385391E-29
   6.910000      7.2827392E-29
   6.920000      8.5972502E-29
   6.930000      9.9820468E-29
   6.940000      1.1436802E-28
   6.950000      1.2960860E-28
   6.960000      1.4553221E-28
   6.970000      1.6212512E-28
   6.980000      1.7936964E-28
   6.990000      1.9724391E-28
   7.000000      2.1572166E-28
   7.010000      2.3477194E-28
   7.020000      2.5435899E-28
   7.030000      2.7444191E-28
   7.040000      2.9497447E-28
   7.050000      3.1590482E-28
   7.060000      3.3717554E-28