  -2.600000      0.0000000E+00
  -2.590000      0.0000000E+00
  -2.580000      0.0000000E+00
  -2.570000      0.0000000E+00
  -2.560000      0.0000000E+00
  -2.550000      0.0000000E+00
  -2.540000      0.0000000E+00
  -2.530000      0.0000000E+00
  -2.520000      0.0000000E+00
  -2.510000      0.0000000E+00
  -2.500000      0.0000000E+00
  -2.490000      0.0000000E+00
  -2.480000      0.0000000E+00
  -2.470000      0.0000000E+00
  -2.460000      0.0000000E+00
  -2.450000      0.0000000E+00
  -2.440000      0.0000000E+00
  -2.430000      0.0000000E+00
  -2.420000      0.0000000E+00
  -2.410000      0.0000000E+00
  -2.400000      0.0000000E+00
  -2.390000      0.0000000E+00
  -2.380000      0.0000000E+00
  -2.370000      0.0000000E+00
  -2.360000      0.0000000E+00
  -2.350000      0.0000000E+00
  -2.340000      0.0000000E+00
  -2.330000      0.0000000E+00
  -2.320000      0.0000000E+00
  -2.310000      0.0000000E+00
  -2.300000      0.0000000E+00
  -2.290000      0.0000000E+00
  -2.280000      0.0000000E+00
  -2.270000      0.0000000E+00
  -2.260000      0.0000000E+00
  -2.250000      0.0000000E+00
  -2.240000      0.0000000E+00
  -2.230000      0.0000000E+00
  -2.220000      0.0000000E+00
  -2.210000      0.0000000E+00
  -2.200000      0.0000000E+00
  -2.190000      0.0000000E+00
  -2.180000      0.0000000E+00
  -2.170000      0.0000000E+00
  -2.160000      0.0000000E+00
  -2.150000      0.0000000E+00
  -2.140000      0.0000000E+00
  -2.130000      0.0000000E+00
  -2.120000      0.0000000E+00
  -2.110000      0.0000000E+00
  -2.100000      0.0000000E+00
  -2.090000      0.0000000E+00
  -2.080000      0.0000000E+00
  -2.070000      0.0000000E+00
  -2.060000      0.0000000E+00
  -2.050000      0.0000000E+00
  -2.040000      0.0000000E+00
  -2.030000      0.0000000E+00
  -2.020000      0.0000000E+00
  -2.010000      0.0000000E+00
  -2.000000      0.0000000E+00
  -1.990000      0.0000000E+00
  -1.980000      0.0000000E+00
  -1.970000      0.0000000E+00
  -1.960000      0.0000000E+00
  -1.950000      0.0000000E+00
  -1.940000      0.0000000E+00
  -1.930000      0.0000000E+00
  -1.920000      0.0000000E+00
  -1.910000      0.0000000E+00
  -1.900000      0.0000000E+00
  -1.890000      0.0000000E+00
  -1.880000      0.0000000E+00
  -1.870000      0.0000000E+00
  -1.860000      0.0000000E+00
  -1.850000      0.0000000E+00
  -1.840000      0.0000000E+00
  -1.830000      0.0000000E+00
  -1.820000      0.0000000E+00
  -1.810000      0.0000000E+00
  -1.800000      0.0000000E+00
  -1.790000      0.0000000E+00
  -1.780000      0.0000000E+00
  -1.770000      0.0000000E+00
  -1.760000      0.0000000E+00
  -1.750000      0.0000000E+00
  -1.740000      0.0000000E+00
  -1.730000      0.0000000E+00
  -1.720000      0.0000000E+00
  -1.710000      0.0000000E+00
  -1.700000      0.0000000E+00
  -1.690000      0.0000000E+00
  -1.680000      0.0000000E+00
  -1.670000      0.0000000E+00
  -1.660000      0.0000000E+00
  -1.650000      0.0000000E+00
  -1.640000      0.0000000E+00
  -1.630000      0.0000000E+00
  -1.620000      0.0000000E+00
  -1.610000      0.0000000E+00
  -1.600000      0.0000000E+00
  -1.590000      0.0000000E+00
  -1.580000      0.0000000E+00
  -1.570000      0.0000000E+00
  -1.560000      0.0000000E+00
  -1.550000      0.0000000E+00
  -1.540000      0.0000000E+00
  -1.530000      0.0000000E+00
  -1.520000      0.0000000E+00
  -1.510000      0.0000000E+00
  -1.500000      0.0000000E+00
  -1.490000      0.0000000E+00
  -1.480000      0.0000000E+00
  -1.470000      0.0000000E+00
  -1.460000      0.0000000E+00
  -1.450000      0.0000000E+00
  -1.440000      0.0000000E+00
  -1.430000      0.0000000E+00
  -1.420000      0.0000000E+00
  -1.410000      0.0000000E+00
  -1.400000      0.0000000E+00
  -1.390000      0.0000000E+00
  -1.380000      0.0000000E+00
  -1.370000      0.0000000E+00
  -1.360000      0.0000000E+00
  -1.350000      0.0000000E+00
  -1.340000      0.0000000E+00
  -1.330000      0.0000000E+00
  -1.320000      0.0000000E+00
  -1.310000      0.0000000E+00
  -1.300000      0.0000000E+00
  -1.290000      0.0000000E+00
  -1.280000      0.0000000E+00
  -1.270000      0.0000000E+00
  -1.260000      0.0000000E+00
  -1.250000      0.0000000E+00
  -1.240000      0.0000000E+00
  -1.230000      0.0000000E+00
  -1.220000      0.0000000E+00
  -1.210000      0.0000000E+00
  -1.200000      0.0000000E+00
  -1.190000      0.0000000E+00
  -1.180000      0.0000000E+00
  -1.170000      0.0000000E+00
  -1.160000      0.0000000E+00
  -1.150000      0.0000000E+00
  -1.140000      0.0000000E+00
  -1.130000      0.0000000E+00
  -1.120000      0.0000000E+00
  -1.110000      0.0000000E+00
  -1.100000      0.0000000E+00
  -1.090000      0.0000000E+00
  -1.080000      0.0000000E+00
  -1.070000      0.0000000E+00
  -1.060000      0.0000000E+00
  -1.050000      0.0000000E+00
  -1.040000      0.0000000E+00
  -1.030000      0.0000000E+00
  -1.020000      0.0000000E+00
  -1.010000      0.0000000E+00
  -1.000000      0.0000000E+00
 -0.9900000      0.0000000E+00
 -0.9800000      0.0000000E+00
 -0.9700000      0.0000000E+00
 -0.9600000      0.0000000E+00
 -0.9500000      0.0000000E+00
 -0.9400000      0.0000000E+00
 -0.9300000      0.0000000E+00
 -0.9200000      0.0000000E+00
 -0.9100000      0.0000000E+00
 -0.9000000      0.0000000E+00
 -0.8900000      0.0000000E+00
 -0.8800000      0.0000000E+00
 -0.8700000      0.0000000E+00
 -0.8600000      0.0000000E+00
 -0.8500000      0.0000000E+00
 -0.8400000      0.0000000E+00
 -0.8300000      0.0000000E+00
 -0.8200000      0.0000000E+00
 -0.8100000      0.0000000E+00
 -0.8000000      0.0000000E+00
 -0.7900000      0.0000000E+00
 -0.7800000      0.0000000E+00
 -0.7700000      0.0000000E+00
 -0.7600000      0.0000000E+00
 -0.7500000      0.0000000E+00
 -0.7400000      0.0000000E+00
 -0.7300000      0.0000000E+00
 -0.7200000      0.0000000E+00
 -0.7100000      0.0000000E+00
 -0.7000000      0.0000000E+00
 -0.6900000      0.0000000E+00
 -0.6800000      0.0000000E+00
 -0.6700000      0.0000000E+00
 -0.6600000      0.0000000E+00
 -0.6500000      0.0000000E+00
 -0.6400000      0.0000000E+00
 -0.6300000      0.0000000E+00
 -0.6200000      0.0000000E+00
 -0.6100000      0.0000000E+00
 -0.6000000      0.0000000E+00
 -0.5900000      0.0000000E+00
 -0.5800000      0.0000000E+00
 -0.5700000      0.0000000E+00
 -0.5600000      0.0000000E+00
 -0.5500000      0.0000000E+00
 -0.5400000      0.0000000E+00
 -0.5300000      0.0000000E+00
 -0.5200000      0.0000000E+00
 -0.5100000      0.0000000E+00
 -0.5000000      0.0000000E+00
 -0.4900000      0.0000000E+00
 -0.4800000      0.0000000E+00
 -0.4700000      0.0000000E+00
 -0.4600000      0.0000000E+00
 -0.4500000      0.0000000E+00
 -0.4400000      0.0000000E+00
 -0.4300000      0.0000000E+00
 -0.4200000      0.0000000E+00
 -0.4100000      0.0000000E+00
 -0.4000000      0.0000000E+00
 -0.3900000      0.0000000E+00
 -0.3800000      0.0000000E+00
 -0.3700000      0.0000000E+00
 -0.3600000      0.0000000E+00
 -0.3500000      0.0000000E+00
 -0.3400000      0.0000000E+00
 -0.3300000      0.0000000E+00
 -0.3200000      0.0000000E+00
 -0.3100000      0.0000000E+00
 -0.3000000      0.0000000E+00
 -0.2900000      0.0000000E+00
 -0.2800000      0.0000000E+00
 -0.2700000      0.0000000E+00
 -0.2600000      0.0000000E+00
 -0.2500000      0.0000000E+00
 -0.2400000      0.0000000E+00
 -0.2300000      0.0000000E+00
 -0.2200000      0.0000000E+00
 -0.2100000      0.0000000E+00
 -0.2000000      0.0000000E+00
 -0.1900000      0.0000000E+00
 -0.1800000      0.0000000E+00
 -0.1700000      0.0000000E+00
 -0.1600000      0.0000000E+00
 -0.1500000      0.0000000E+00
 -0.1400000      0.0000000E+00
 -0.1300000      0.0000000E+00
 -0.1200000      0.0000000E+00
 -0.1100000      0.0000000E+00
 -0.1000000      0.0000000E+00
 -9.0000004E-02  0.0000000E+00
 -7.9999998E-02  0.0000000E+00
 -7.0000000E-02  0.0000000E+00
 -5.9999999E-02  0.0000000E+00
 -5.0000001E-02  0.0000000E+00
 -3.9999999E-02  0.0000000E+00
 -2.9999999E-02  0.0000000E+00
 -2.0000000E-02  0.0000000E+00
 -9.9999998E-03  0.0000000E+00
 -3.4694470E-17  0.0000000E+00
  9.9999998E-03  0.0000000E+00
  2.0000000E-02  0.0000000E+00
  2.9999999E-02  0.0000000E+00
  3.9999999E-02  0.0000000E+00
  5.0000001E-02  0.0000000E+00
  5.9999999E-02  0.0000000E+00
  7.0000000E-02  0.0000000E+00
  7.9999998E-02  0.0000000E+00
  9.0000004E-02  0.0000000E+00
  0.1000000      0.0000000E+00
  0.1100000      0.0000000E+00
  0.1200000      0.0000000E+00
  0.1300000      0.0000000E+00
  0.1400000      0.0000000E+00
  0.1500000      0.0000000E+00
  0.1600000      0.0000000E+00
  0.1700000      0.0000000E+00
  0.1800000      0.0000000E+00
  0.1900000      0.0000000E+00
  0.2000000      0.0000000E+00
  0.2100000      0.0000000E+00
  0.2200000      0.0000000E+00
  0.2300000      0.0000000E+00
  0.2400000      0.0000000E+00
  0.2500000      0.0000000E+00
  0.2600000      0.0000000E+00
  0.2700000      0.0000000E+00
  0.2800000      0.0000000E+00
  0.2900000      0.0000000E+00
  0.3000000      0.0000000E+00
  0.3100000      0.0000000E+00
  0.3200000      0.0000000E+00
  0.3300000      0.0000000E+00
  0.3400000      0.0000000E+00
  0.3500000      0.0000000E+00
  0.3600000      0.0000000E+00
  0.3700000      0.0000000E+00
  0.3800000      0.0000000E+00
  0.3900000      0.0000000E+00
  0.4000000      0.0000000E+00
  0.4100000      0.0000000E+00
  0.4200000      0.0000000E+00
  0.4300000      0.0000000E+00
  0.4400000      0.0000000E+00
  0.4500000      0.0000000E+00
  0.4600000      0.0000000E+00
  0.4700000      0.0000000E+00
  0.4800000      0.0000000E+00
  0.4900000      0.0000000E+00
  0.5000000      0.0000000E+00
  0.5100000      0.0000000E+00
  0.5200000      0.0000000E+00
  0.5300000      0.0000000E+00
  0.5400000      0.0000000E+00
  0.5500000      0.0000000E+00
  0.5600000      0.0000000E+00
  0.5700000      0.0000000E+00
  0.5800000      0.0000000E+00
  0.5900000      0.0000000E+00
  0.6000000      0.0000000E+00
  0.6100000      0.0000000E+00
  0.6200000      0.0000000E+00
  0.6300000      0.0000000E+00
  0.6400000      0.0000000E+00
  0.6500000      0.0000000E+00
  0.6600000      0.0000000E+00
  0.6700000      0.0000000E+00
  0.6800000      0.0000000E+00
  0.6900000      0.0000000E+00
  0.7000000      0.0000000E+00
  0.7100000      0.0000000E+00
  0.7200000      0.0000000E+00
  0.7300000      0.0000000E+00
  0.7400000      0.0000000E+00
  0.7500000      0.0000000E+00
  0.7600000      0.0000000E+00
  0.7700000      0.0000000E+00
  0.7800000      0.0000000E+00
  0.7900000      0.0000000E+00
  0.8000000      0.0000000E+00
  0.8100000      0.0000000E+00
  0.8200000      0.0000000E+00
  0.8300000      0.0000000E+00
  0.8400000      0.0000000E+00
  0.8500000      0.0000000E+00
  0.8600000      0.0000000E+00
  0.8700000      0.0000000E+00
  0.8800000      0.0000000E+00
  0.8900000      0.0000000E+00
  0.9000000      0.0000000E+00
  0.9100000      0.0000000E+00
  0.9200000      0.0000000E+00
  0.9300000      0.0000000E+00
  0.9400000      0.0000000E+00
  0.9500000      0.0000000E+00
  0.9600000      0.0000000E+00
  0.9700000      0.0000000E+00
  0.9800000      0.0000000E+00
  0.9900000      0.0000000E+00
   1.000000      0.0000000E+00
   1.010000      0.0000000E+00
   1.020000      0.0000000E+00
   1.030000      0.0000000E+00
   1.040000      0.0000000E+00
   1.050000      0.0000000E+00
   1.060000      0.0000000E+00
   1.070000      0.0000000E+00
   1.080000      0.0000000E+00
   1.090000      0.0000000E+00
   1.100000      0.0000000E+00
   1.110000      0.0000000E+00
   1.120000      0.0000000E+00
   1.130000      0.0000000E+00
   1.140000      0.0000000E+00
   1.150000      0.0000000E+00
   1.160000      0.0000000E+00
   1.170000      0.0000000E+00
   1.180000      0.0000000E+00
   1.190000      0.0000000E+00
   1.200000      0.0000000E+00
   1.210000      0.0000000E+00
   1.220000      0.0000000E+00
   1.230000      0.0000000E+00
   1.240000      0.0000000E+00
   1.250000      0.0000000E+00
   1.260000      0.0000000E+00
   1.270000      0.0000000E+00
   1.280000      0.0000000E+00
   1.290000      0.0000000E+00
   1.300000      0.0000000E+00
   1.310000      0.0000000E+00
   1.320000      0.0000000E+00
   1.330000      0.0000000E+00
   1.340000      0.0000000E+00
   1.350000      0.0000000E+00
   1.360000      0.0000000E+00
   1.370000      0.0000000E+00
   1.380000      0.0000000E+00
   1.390000      0.0000000E+00
   1.400000      0.0000000E+00
   1.410000      0.0000000E+00
   1.420000      0.0000000E+00
   1.430000      0.0000000E+00
   1.440000      0.0000000E+00
   1.450000      0.0000000E+00
   1.460000      0.0000000E+00
   1.470000      0.0000000E+00
   1.480000      0.0000000E+00
   1.490000      0.0000000E+00
   1.500000      0.0000000E+00
   1.510000      0.0000000E+00
   1.520000      0.0000000E+00
   1.530000      0.0000000E+00
   1.540000      0.0000000E+00
   1.550000      0.0000000E+00
   1.560000      0.0000000E+00
   1.570000      0.0000000E+00
   1.580000      0.0000000E+00
   1.590000      0.0000000E+00
   1.600000      0.0000000E+00
   1.610000      0.0000000E+00
   1.620000      0.0000000E+00
   1.630000      0.0000000E+00
   1.640000      0.0000000E+00
   1.650000      0.0000000E+00
   1.660000      0.0000000E+00
   1.670000      0.0000000E+00
   1.680000      0.0000000E+00
   1.690000      0.0000000E+00
   1.700000      0.0000000E+00
   1.710000      0.0000000E+00
   1.720000      0.0000000E+00
   1.730000      0.0000000E+00
   1.740000      0.0000000E+00
   1.750000      0.0000000E+00
   1.760000      0.0000000E+00
   1.770000      0.0000000E+00
   1.780000      0.0000000E+00
   1.790000      0.0000000E+00
   1.800000      0.0000000E+00
   1.810000      0.0000000E+00
   1.820000      0.0000000E+00
   1.830000      0.0000000E+00
   1.840000      0.0000000E+00
   1.850000      0.0000000E+00
   1.860000      0.0000000E+00
   1.870000      0.0000000E+00
   1.880000      0.0000000E+00
   1.890000      0.0000000E+00
   1.900000      0.0000000E+00
   1.910000      0.0000000E+00
   1.920000      0.0000000E+00
   1.930000      0.0000000E+00
   1.940000      0.0000000E+00
   1.950000      0.0000000E+00
   1.960000      0.0000000E+00
   1.970000      0.0000000E+00
   1.980000      0.0000000E+00
   1.990000      0.0000000E+00
   2.000000      0.0000000E+00
   2.010000      0.0000000E+00
   2.020000      0.0000000E+00
   2.030000      0.0000000E+00
   2.040000      0.0000000E+00
   2.050000      0.0000000E+00
   2.060000      0.0000000E+00
   2.070000      0.0000000E+00
   2.080000      0.0000000E+00
   2.090000      0.0000000E+00
   2.100000      0.0000000E+00
   2.110000      0.0000000E+00
   2.120000      0.0000000E+00
   2.130000      0.0000000E+00
   2.140000      0.0000000E+00
   2.150000      0.0000000E+00
   2.160000      0.0000000E+00
   2.170000      0.0000000E+00
   2.180000      0.0000000E+00
   2.190000      0.0000000E+00
   2.200000      0.0000000E+00
   2.210000      0.0000000E+00
   2.220000      0.0000000E+00
   2.230000      0.0000000E+00
   2.240000      0.0000000E+00
   2.250000      0.0000000E+00
   2.260000      0.0000000E+00
   2.270000      0.0000000E+00
   2.280000      0.0000000E+00
   2.290000      0.0000000E+00
   2.300000      0.0000000E+00
   2.310000      0.0000000E+00
   2.320000      0.0000000E+00
   2.330000      0.0000000E+00
   2.340000      0.0000000E+00
   2.350000      0.0000000E+00
   2.360000      0.0000000E+00
   2.370000      0.0000000E+00
   2.380000      0.0000000E+00
   2.390000      0.0000000E+00
   2.400000      0.0000000E+00
   2.410000      0.0000000E+00
   2.420000      0.0000000E+00
   2.430000      0.0000000E+00
   2.440000      0.0000000E+00
   2.450000      0.0000000E+00
   2.460000      0.0000000E+00
   2.470000      0.0000000E+00
   2.480000      1.3877272E-38
   2.490000      1.9116060E-38
   2.500000      2.4064507E-38
   2.510000      2.8979715E-38
   2.520000      3.4069742E-38
   2.530000      3.9432088E-38
   2.540000      4.5201130E-38
   2.550000      5.1051388E-38
   2.560000      5.7051972E-38
   2.570000      6.3727315E-38
   2.580000      7.1529448E-38
   2.590000      8.0572918E-38
   2.600000      9.0548409E-38
   2.610000      1.0176331E-37
   2.620000      1.1384096E-37
   2.630000      1.2600874E-37
   2.640000      1.3813709E-37
   2.650000      1.4961092E-37
   2.660000      1.6004282E-37
   2.670000      1.6882048E-37
   2.680000      1.7432341E-37
   2.690000      1.7694533E-37
   2.700000      1.7806483E-37
   2.710000      1.7546339E-37
   2.720000      1.6847248E-37
   2.730000      1.5826307E-37
   2.740000      1.4371318E-37
   2.750000      1.2509372E-37
   2.760000      1.0451842E-37
   2.770000      8.2737095E-38
   2.780000      5.8631841E-38
   2.790000      3.1186990E-38
   2.800000      0.0000000E+00
   2.810000     -3.6336782E-38
   2.820000     -7.8363771E-38
   2.830000     -1.2673615E-37
   2.840000     -1.8018513E-37
   2.850000     -2.3995443E-37
   2.860000     -3.0135722E-37
   2.870000     -3.6294554E-37
   2.880000     -4.3280491E-37
   2.890000     -5.1045061E-37
   2.900000     -5.9607026E-37
   2.910000     -6.8895801E-37
   2.920000     -7.8073239E-37
   2.930000     -8.3655886E-37
   2.940000     -8.5647909E-37
   2.950000     -8.7964585E-37
   2.960000     -9.2588251E-37
   2.970000     -9.9147646E-37
   2.980000     -1.0542973E-36
   2.990000     -1.1035214E-36
   3.000000     -1.1355562E-36
   3.010000     -1.1739906E-36
   3.020000     -1.2285364E-36
   3.030000     -1.1520328E-36
   3.040000     -8.5541231E-37
   3.050000     -4.2523709E-37
   3.060000      9.0029620E-38
   3.070000      6.8819494E-37
   3.080000      1.4678783E-36
   3.090000      2.3666911E-36
   3.100000      3.3053830E-36
   3.110000      4.3088648E-36
   3.120000      5.3329820E-36
   3.130000      6.3274714E-36
   3.140000      7.1624957E-36
   3.150000      7.8934245E-36
   3.160000      8.5977303E-36
   3.170000      9.2383008E-36
   3.180000      9.7979162E-36
   3.190000      1.0261835E-35
   3.200000      1.0605414E-35
   3.210000      1.0846987E-35
   3.220000      1.1040509E-35
   3.230000      1.1211782E-35
   3.240000      1.1298231E-35
   3.250000      1.1182191E-35
   3.260000      1.0920398E-35
   3.270000      1.0639817E-35
   3.280000      1.0316640E-35
   3.290000      9.8449926E-36
   3.300000      9.2094386E-36
   3.310000      8.5183105E-36
   3.320000      7.7576026E-36
   3.330000      6.7987769E-36
   3.340000      5.6639234E-36
   3.350000      4.4109432E-36
   3.360000      3.0639260E-36
   3.370000      1.6312359E-36
   3.380000      1.6599634E-38
   3.390000     -1.7974746E-36
   3.400000     -3.9628534E-36
   3.410000     -6.5688596E-36
   3.420000     -9.4504802E-36
   3.430000     -1.2574096E-35
   3.440000     -1.5961507E-35
   3.450000     -1.9645138E-35
   3.460000     -2.3660420E-35
   3.470000     -2.7928495E-35
   3.480000     -3.2386712E-35
   3.490000     -3.6941110E-35
   3.500000     -4.1505787E-35
   3.510000     -4.6178920E-35
   3.520000     -5.1047426E-35
   3.530000     -5.6099859E-35
   3.540000     -6.1329323E-35
   3.550000     -6.6855093E-35
   3.560000     -7.2459446E-35
   3.570000     -7.8115313E-35
   3.580000     -8.3903676E-35
   3.590000     -8.9242395E-35
   3.600000     -9.4046103E-35
   3.610000     -9.8218293E-35
   3.620000     -1.0128331E-34
   3.630000     -1.0329092E-34
   3.640000     -1.0181258E-34
   3.650000     -9.4967758E-35
   3.660000     -8.1638691E-35
   3.670000     -6.4998954E-35
   3.680000     -4.8878754E-35
   3.690000     -3.2143302E-35
   3.700000     -1.4595687E-35
   3.710000      4.6168420E-36
   3.720000      2.2498087E-35
   3.730000      3.8529666E-35
   3.740000      5.5096103E-35
   3.750000      7.0490327E-35
   3.760000      8.2764881E-35
   3.770000      9.1867713E-35
   3.780000      9.9647368E-35
   3.790000      1.0750798E-34
   3.800000      1.1609507E-34
   3.810000      1.2566224E-34
   3.820000      1.3556681E-34
   3.830000      1.4677074E-34
   3.840000      1.6068101E-34
   3.850000      1.7275155E-34
   3.860000      1.8299224E-34
   3.870000      1.9577177E-34
   3.880000      2.1269078E-34
   3.890000      2.3622725E-34
   3.900000      2.6268949E-34
   3.910000      2.8627269E-34
   3.920000      3.1176654E-34
   3.930000      3.4154046E-34
   3.940000      3.7250183E-34
   3.950000      4.0663619E-34
   3.960000      4.4110715E-34
   3.970000      4.7364745E-34
   3.980000      5.0458885E-34
   3.990000      5.3292717E-34
   4.000000      5.5792158E-34
   4.010000      5.7801652E-34
   4.020000      5.9164950E-34
   4.030000      5.9978474E-34
   4.040000      6.0371443E-34
   4.050000      6.0202186E-34
   4.060000      5.9425138E-34
   4.070000      5.7977976E-34
   4.080000      5.5796075E-34
   4.090000      5.2765751E-34
   4.100000      4.9009900E-34
   4.110000      4.4633493E-34
   4.120000      3.9334351E-34
   4.130000      3.3176296E-34
   4.140000      2.6143192E-34
   4.150000      1.8249902E-34
   4.160000      9.6241155E-35
   4.170000      4.2333437E-37
   4.180000     -1.0278601E-34
   4.190000     -2.1190274E-34
   4.200000     -3.2797420E-34
   4.210000     -4.5260605E-34
   4.220000     -5.8494968E-34
   4.230000     -7.2136686E-34
   4.240000     -8.6644660E-34
   4.250000     -1.0194129E-33
   4.260000     -1.1756642E-33
   4.270000     -1.3382887E-33
   4.280000     -1.5075148E-33
   4.290000     -1.6822184E-33
   4.300000     -1.8599338E-33
   4.310000     -2.0411671E-33
   4.320000     -2.2281181E-33
   4.330000     -2.4171536E-33
   4.340000     -2.6055367E-33
   4.350000     -2.7930424E-33
   4.360000     -2.9798027E-33
   4.370000     -3.1661084E-33
   4.380000     -3.3518601E-33
   4.390000     -3.5364869E-33
   4.400000     -3.7166292E-33
   4.410000     -3.8886547E-33
   4.420000     -4.0507605E-33
   4.430000     -4.2006489E-33
   4.440000     -4.3372942E-33
   4.450000     -4.4595163E-33
   4.460000     -4.5615462E-33
   4.470000     -4.6407863E-33
   4.480000     -4.6965268E-33
   4.490000     -4.7246204E-33
   4.500000     -4.7219939E-33
   4.510000     -4.6849452E-33
   4.520000     -4.6096868E-33
   4.530000     -4.4940953E-33
   4.540000     -4.3365496E-33
   4.550000     -4.1292821E-33
   4.560000     -3.8703390E-33
   4.570000     -3.5608347E-33
   4.580000     -3.1975368E-33
   4.590000     -2.7803479E-33
   4.600000     -2.3080405E-33
   4.610000     -1.7777179E-33
   4.620000     -1.1868269E-33
   4.630000     -5.3526039E-34
   4.640000      1.7818834E-34
   4.650000      9.5516795E-34
   4.660000      1.7959991E-33
   4.670000      2.7008202E-33
   4.680000      3.6675762E-33
   4.690000      4.6951448E-33
   4.700000      5.7836438E-33
   4.710000      6.9312811E-33
   4.720000      8.1366610E-33
   4.730000      9.3975491E-33
   4.740000      1.0709818E-32
   4.750000      1.2069185E-32
   4.760000      1.3473387E-32
   4.770000      1.4916331E-32
   4.780000      1.6391530E-32
   4.790000      1.7895342E-32
   4.800000      1.9419056E-32
   4.810000      2.0955654E-32
   4.820000      2.2498796E-32
   4.830000      2.4038408E-32
   4.840000      2.5563899E-32
   4.850000      2.7062366E-32
   4.860000      2.8522304E-32
   4.870000      2.9932820E-32
   4.880000      3.1280384E-32
   4.890000      3.2550032E-32
   4.900000      3.3726488E-32
   4.910000      3.4792335E-32
   4.920000      3.5729959E-32
   4.930000      3.6522821E-32
   4.940000      3.7151899E-32
   4.950000      3.7597884E-32
   4.960000      3.7841376E-32
   4.970000      3.7862946E-32
   4.980000      3.7642809E-32
   4.990000      3.7159883E-32
   5.000000      3.6393614E-32
   5.010000      3.5323350E-32
   5.020000      3.3928205E-32
   5.030000      3.2188092E-32
   5.040000      3.0083269E-32
   5.050000      2.7595229E-32
   5.060000      2.4705618E-32
   5.070000      2.1396410E-32
   5.080000      1.7650775E-32
   5.090000      1.3453010E-32
   5.100000      8.7892910E-33
   5.110000      3.6469826E-33
   5.120000     -1.9849554E-33
   5.130000     -8.1150069E-33
   5.140000     -1.4750393E-32
   5.150000     -2.1895650E-32
   5.160000     -2.9552125E-32
   5.170000     -3.7719301E-32
   5.180000     -4.6393394E-32
   5.190000     -5.5567475E-32
   5.200000     -6.5231103E-32
   5.210000     -7.5370006E-32
   5.220000     -8.5966270E-32
   5.230000     -9.6998244E-32
   5.240000     -1.0843757E-31
   5.250000     -1.2025337E-31
   5.260000     -1.3241093E-31
   5.270000     -1.4486747E-31
   5.280000     -1.5757622E-31
   5.290000     -1.7048470E-31
   5.300000     -1.8353429E-31
   5.310000     -1.9666105E-31
   5.320000     -2.0979438E-31
   5.330000     -2.2285755E-31
   5.340000     -2.3576780E-31
   5.350000     -2.4843565E-31
   5.360000     -2.6076530E-31
   5.370000     -2.7265453E-31
   5.380000     -2.8399478E-31
   5.390000     -2.9467053E-31
   5.400000     -3.0456097E-31
   5.410000     -3.1353904E-31
   5.420000     -3.2147072E-31
   5.430000     -3.2821728E-31
   5.440000     -3.3363473E-31
   5.450000     -3.3757374E-31
   5.460000     -3.3988025E-31
   5.470000     -3.4039617E-31
   5.480000     -3.3895979E-31
   5.490000     -3.3540620E-31
   5.500000     -3.2956823E-31
   5.510000     -3.2127699E-31
   5.520000     -3.1036258E-31
   5.530000     -2.9665481E-31
   5.540000     -2.7998423E-31
   5.550000     -2.6018307E-31
   5.560000     -2.3708635E-31
   5.570000     -2.1053261E-31
   5.580000     -1.8036546E-31
   5.590000     -1.4643445E-31
   5.600000     -1.0859649E-31
   5.610000     -6.6717321E-32
   5.620000     -2.0672557E-32
   5.630000      2.9650675E-32
   5.640000      8.4351929E-32
   5.650000      1.4351615E-31
   5.660000      2.0721203E-31
   5.670000      2.7549001E-31
   5.680000      3.4838084E-31
   5.690000      4.2589364E-31
   5.700000      5.0801386E-31
   5.710000      5.9470164E-31
   5.720000      6.8588976E-31
   5.730000      7.8148195E-31
   5.740000      8.8135049E-31
   5.750000      9.8533454E-31
   5.760000      1.0932384E-30
   5.770000      1.2048291E-30
   5.780000      1.3198349E-30
   5.790000      1.4379432E-30
   5.800000      1.5587988E-30
   5.810000      1.6820023E-30
   5.820000      1.8071080E-30
   5.830000      1.9336229E-30
   5.840000      2.0610050E-30
   5.850000      2.1886614E-30
   5.860000      2.3159486E-30
   5.870000      2.4421694E-30
   5.880000      2.5665742E-30
   5.890000      2.6883582E-30
   5.900000      2.8066630E-30
   5.910000      2.9205748E-30
   5.920000      3.0291256E-30
   5.930000      3.1312928E-30
   5.940000      3.2260000E-30
   5.950000      3.3121180E-30
   5.960000      3.3884661E-30
   5.970000      3.4538123E-30
   5.980000      3.5068781E-30
   5.990000      3.5463371E-30
   6.000000      3.5708208E-30
   6.010000      3.5789203E-30
   6.020000      3.5691894E-30
   6.030000      3.5401496E-30
   6.040000      3.4902925E-30
   6.050000      3.4180871E-30
   6.060000      3.3219835E-30
   6.070000      3.2004197E-30
   6.080000      3.0518275E-30
   6.090000      2.8746395E-30
   6.100000      2.6672958E-30
   6.110000      2.4282539E-30
   6.120000      2.1559956E-30
   6.130000      1.8490368E-30
   6.140000      1.5059375E-30
   6.150000      1.1253114E-30
   6.160000      7.0583776E-31
   6.170000      2.4627246E-31
   6.180000     -2.5454011E-31
   6.190000     -7.9765454E-31
   6.200000     -1.3840107E-30
   6.210000     -2.0144206E-30
   6.220000     -2.6895536E-30
   6.230000     -3.4099222E-30
   6.240000     -4.1758656E-30
   6.250000     -4.9875368E-30
   6.260000     -5.8448848E-30
   6.270000     -6.7476393E-30
   6.280000     -7.6952916E-30
   6.290000     -8.6870823E-30
   6.300000     -9.7219793E-30
   6.310000     -1.0798664E-29
   6.320000     -1.1915519E-29
   6.330000     -1.3070599E-29
   6.340000     -1.4261624E-29
   6.350000     -1.5485960E-29
   6.360000     -1.6740603E-29
   6.370000     -1.8022159E-29
   6.380000     -1.9326833E-29
   6.390000     -2.0650415E-29
   6.400000     -2.1988261E-29
   6.410000     -2.3335279E-29
   6.420000     -2.4685926E-29
   6.430000     -2.6034188E-29
   6.440000     -2.7373570E-29
   6.450000     -2.8697081E-29
   6.460000     -2.9997244E-29
   6.470000     -3.1266070E-29
   6.480000     -3.2495072E-29
   6.490000     -3.3675246E-29
   6.500000     -3.4797076E-29
   6.510000     -3.5850542E-29
   6.520000     -3.6825114E-29
   6.530000     -3.7709772E-29
   6.540000     -3.8492999E-29
   6.550000     -3.9162807E-29
   6.560000     -3.9706741E-29
   6.570000     -4.0111909E-29
   6.580000     -4.0364994E-29
   6.590000     -4.0452287E-29
   6.600000     -4.0359713E-29
   6.610000     -4.0072863E-29
   6.620000     -3.9577030E-29
   6.630000     -3.8857262E-29
   6.640000     -3.7898392E-29
   6.650000     -3.6685108E-29
   6.660000     -3.5201979E-29
   6.670000     -3.3433548E-29
   6.680000     -3.1364374E-29
   6.690000     -2.8979110E-29
   6.700000     -2.6262577E-29
   6.710000     -2.3199842E-29
   6.720000     -1.9776309E-29
   6.730000     -1.5977804E-29
   6.740000     -1.1790667E-29
   6.750000     -7.2018578E-30
   6.760000     -2.1990614E-30
   6.770000      3.2291992E-30
   6.780000      9.0934505E-30
   6.790000      1.5403157E-29
   6.800000      2.2166579E-29
   6.810000      2.9390651E-29
   6.820000      3.7080856E-29
   6.830000      4.5241066E-29
   6.840000      5.3873418E-29
   6.850000      6.2978162E-29
   6.860000      7.2553506E-29
   6.870000      8.2595468E-29
   6.880000      9.3097738E-29
   6.890000      1.0405148E-28
   6.900000      1.1544522E-28
   6.910000      1.2726467E-28
   6.920000      1.3949254E-28
   6.930000      1.5210842E-28
   6.940000      1.6508863E-28
   6.950000      1.7840600E-28
   6.960000      1.9202978E-28
   6.970000      2.0592546E-28
   6.980000      2.2005464E-28
   6.990000      2.3437486E-28
   7.000000      2.4883956E-28
   7.010000      2.6339779E-28
   7.020000      2.7799424E-28
   7.030000      2.9256910E-28
   7.040000      3.0705790E-28
   7.050000      3.2139146E-28
   7.060000      3.3549591E-28