  -2.600000      0.0000000E+00
  -2.590000      0.0000000E+00
  -2.580000      0.0000000E+00
  -2.570000      0.0000000E+00
  -2.560000      0.0000000E+00
  -2.550000      0.0000000E+00
  -2.540000      0.0000000E+00
  -2.530000      0.0000000E+00
  -2.520000      0.0000000E+00
  -2.510000      0.0000000E+00
  -2.500000      0.0000000E+00
  -2.490000      0.0000000E+00
  -2.480000      0.0000000E+00
  -2.470000      0.0000000E+00
  -2.460000      0.0000000E+00
  -2.450000      0.0000000E+00
  -2.440000      0.0000000E+00
  -2.430000      0.0000000E+00
  -2.420000      0.0000000E+00
  -2.410000      0.0000000E+00
  -2.400000      0.0000000E+00
  -2.390000      0.0000000E+00
  -2.380000      0.0000000E+00
  -2.370000      0.0000000E+00
  -2.360000      0.0000000E+00
  -2.350000      0.0000000E+00
  -2.340000      0.0000000E+00
  -2.330000      0.0000000E+00
  -2.320000      0.0000000E+00
  -2.310000      0.0000000E+00
  -2.300000      0.0000000E+00
  -2.290000      0.0000000E+00
  -2.280000      0.0000000E+00
  -2.270000      0.0000000E+00
  -2.260000      0.0000000E+00
  -2.250000      0.0000000E+00
  -2.240000      0.0000000E+00
  -2.230000      0.0000000E+00
  -2.220000      0.0000000E+00
  -2.210000      0.0000000E+00
  -2.200000      0.0000000E+00
  -2.190000      0.0000000E+00
  -2.180000      0.0000000E+00
  -2.170000      0.0000000E+00
  -2.160000      0.0000000E+00
  -2.150000      0.0000000E+00
  -2.140000      0.0000000E+00
  -2.130000      0.0000000E+00
  -2.120000      0.0000000E+00
  -2.110000      0.0000000E+00
  -2.100000      0.0000000E+00
  -2.090000      0.0000000E+00
  -2.080000      0.0000000E+00
  -2.070000      0.0000000E+00
  -2.060000      0.0000000E+00
  -2.050000      0.0000000E+00
  -2.040000      0.0000000E+00
  -2.030000      0.0000000E+00
  -2.020000      0.0000000E+00
  -2.010000      0.0000000E+00
  -2.000000      0.0000000E+00
  -1.990000      0.0000000E+00
  -1.980000      0.0000000E+00
  -1.970000      0.0000000E+00
  -1.960000      0.0000000E+00
  -1.950000      0.0000000E+00
  -1.940000      0.0000000E+00
  -1.930000      0.0000000E+00
  -1.920000      0.0000000E+00
  -1.910000      0.0000000E+00
  -1.900000      0.0000000E+00
  -1.890000      0.0000000E+00
  -1.880000      0.0000000E+00
  -1.870000      0.0000000E+00
  -1.860000      0.0000000E+00
  -1.850000      0.0000000E+00
  -1.840000      0.0000000E+00
  -1.830000      0.0000000E+00
  -1.820000      0.0000000E+00
  -1.810000      0.0000000E+00
  -1.800000      0.0000000E+00
  -1.790000      0.0000000E+00
  -1.780000      0.0000000E+00
  -1.770000      0.0000000E+00
  -1.760000      0.0000000E+00
  -1.750000      0.0000000E+00
  -1.740000      0.0000000E+00
  -1.730000      0.0000000E+00
  -1.720000      0.0000000E+00
  -1.710000      0.0000000E+00
  -1.700000      0.0000000E+00
  -1.690000      0.0000000E+00
  -1.680000      0.0000000E+00
  -1.670000      0.0000000E+00
  -1.660000      0.0000000E+00
  -1.650000      0.0000000E+00
  -1.640000      0.0000000E+00
  -1.630000      0.0000000E+00
  -1.620000      0.0000000E+00
  -1.610000      0.0000000E+00
  -1.600000      0.0000000E+00
  -1.590000      0.0000000E+00
  -1.580000      0.0000000E+00
  -1.570000      0.0000000E+00
  -1.560000      0.0000000E+00
  -1.550000      0.0000000E+00
  -1.540000      0.0000000E+00
  -1.530000      0.0000000E+00
  -1.520000      0.0000000E+00
  -1.510000      0.0000000E+00
  -1.500000      0.0000000E+00
  -1.490000      0.0000000E+00
  -1.480000      0.0000000E+00
  -1.470000      0.0000000E+00
  -1.460000      0.0000000E+00
  -1.450000      0.0000000E+00
  -1.440000      0.0000000E+00
  -1.430000      0.0000000E+00
  -1.420000      0.0000000E+00
  -1.410000      0.0000000E+00
  -1.400000      0.0000000E+00
  -1.390000      0.0000000E+00
  -1.380000      0.0000000E+00
  -1.370000      0.0000000E+00
  -1.360000      0.0000000E+00
  -1.350000      0.0000000E+00
  -1.340000      0.0000000E+00
  -1.330000      0.0000000E+00
  -1.320000      0.0000000E+00
  -1.310000      0.0000000E+00
  -1.300000      0.0000000E+00
  -1.290000      0.0000000E+00
  -1.280000      0.0000000E+00
  -1.270000      0.0000000E+00
  -1.260000      0.0000000E+00
  -1.250000      0.0000000E+00
  -1.240000      0.0000000E+00
  -1.230000      0.0000000E+00
  -1.220000      0.0000000E+00
  -1.210000      0.0000000E+00
  -1.200000      0.0000000E+00
  -1.190000      0.0000000E+00
  -1.180000      0.0000000E+00
  -1.170000      0.0000000E+00
  -1.160000      0.0000000E+00
  -1.150000      0.0000000E+00
  -1.140000      0.0000000E+00
  -1.130000      0.0000000E+00
  -1.120000      0.0000000E+00
  -1.110000      0.0000000E+00
  -1.100000      0.0000000E+00
  -1.090000      0.0000000E+00
  -1.080000      0.0000000E+00
  -1.070000      0.0000000E+00
  -1.060000      0.0000000E+00
  -1.050000      0.0000000E+00
  -1.040000      0.0000000E+00
  -1.030000      0.0000000E+00
  -1.020000      0.0000000E+00
  -1.010000      0.0000000E+00
  -1.000000      0.0000000E+00
 -0.9900000      0.0000000E+00
 -0.9800000      0.0000000E+00
 -0.9700000      0.0000000E+00
 -0.9600000      0.0000000E+00
 -0.9500000      0.0000000E+00
 -0.9400000      0.0000000E+00
 -0.9300000      0.0000000E+00
 -0.9200000      0.0000000E+00
 -0.9100000      0.0000000E+00
 -0.9000000      0.0000000E+00
 -0.8900000      0.0000000E+00
 -0.8800000      0.0000000E+00
 -0.8700000      0.0000000E+00
 -0.8600000      0.0000000E+00
 -0.8500000      0.0000000E+00
 -0.8400000      0.0000000E+00
 -0.8300000      0.0000000E+00
 -0.8200000      0.0000000E+00
 -0.8100000      0.0000000E+00
 -0.8000000      0.0000000E+00
 -0.7900000      0.0000000E+00
 -0.7800000      0.0000000E+00
 -0.7700000      0.0000000E+00
 -0.7600000      0.0000000E+00
 -0.7500000      0.0000000E+00
 -0.7400000      0.0000000E+00
 -0.7300000      0.0000000E+00
 -0.7200000      0.0000000E+00
 -0.7100000      0.0000000E+00
 -0.7000000      0.0000000E+00
 -0.6900000      0.0000000E+00
 -0.6800000      0.0000000E+00
 -0.6700000      0.0000000E+00
 -0.6600000      0.0000000E+00
 -0.6500000      0.0000000E+00
 -0.6400000      0.0000000E+00
 -0.6300000      0.0000000E+00
 -0.6200000      0.0000000E+00
 -0.6100000      0.0000000E+00
 -0.6000000      0.0000000E+00
 -0.5900000      0.0000000E+00
 -0.5800000      0.0000000E+00
 -0.5700000      0.0000000E+00
 -0.5600000      0.0000000E+00
 -0.5500000      0.0000000E+00
 -0.5400000      0.0000000E+00
 -0.5300000      0.0000000E+00
 -0.5200000      0.0000000E+00
 -0.5100000      0.0000000E+00
 -0.5000000      0.0000000E+00
 -0.4900000      0.0000000E+00
 -0.4800000      0.0000000E+00
 -0.4700000      0.0000000E+00
 -0.4600000      0.0000000E+00
 -0.4500000      0.0000000E+00
 -0.4400000      0.0000000E+00
 -0.4300000      0.0000000E+00
 -0.4200000      0.0000000E+00
 -0.4100000      0.0000000E+00
 -0.4000000      0.0000000E+00
 -0.3900000      0.0000000E+00
 -0.3800000      0.0000000E+00
 -0.3700000      0.0000000E+00
 -0.3600000      0.0000000E+00
 -0.3500000      0.0000000E+00
 -0.3400000      0.0000000E+00
 -0.3300000      0.0000000E+00
 -0.3200000      0.0000000E+00
 -0.3100000      0.0000000E+00
 -0.3000000      0.0000000E+00
 -0.2900000      0.0000000E+00
 -0.2800000      0.0000000E+00
 -0.2700000      0.0000000E+00
 -0.2600000      0.0000000E+00
 -0.2500000      0.0000000E+00
 -0.2400000      0.0000000E+00
 -0.2300000      0.0000000E+00
 -0.2200000      0.0000000E+00
 -0.2100000      0.0000000E+00
 -0.2000000      0.0000000E+00
 -0.1900000      0.0000000E+00
 -0.1800000      0.0000000E+00
 -0.1700000      0.0000000E+00
 -0.1600000      0.0000000E+00
 -0.1500000      0.0000000E+00
 -0.1400000      0.0000000E+00
 -0.1300000      0.0000000E+00
 -0.1200000      0.0000000E+00
 -0.1100000      0.0000000E+00
 -0.1000000      0.0000000E+00
 -9.0000004E-02  0.0000000E+00
 -7.9999998E-02  0.0000000E+00
 -7.0000000E-02  0.0000000E+00
 -5.9999999E-02  0.0000000E+00
 -5.0000001E-02  0.0000000E+00
 -3.9999999E-02  0.0000000E+00
 -2.9999999E-02  0.0000000E+00
 -2.0000000E-02  0.0000000E+00
 -9.9999998E-03  0.0000000E+00
 -3.4694470E-17  0.0000000E+00
  9.9999998E-03  0.0000000E+00
  2.0000000E-02  0.0000000E+00
  2.9999999E-02  0.0000000E+00
  3.9999999E-02  0.0000000E+00
  5.0000001E-02  0.0000000E+00
  5.9999999E-02  0.0000000E+00
  7.0000000E-02  0.0000000E+00
  7.9999998E-02  0.0000000E+00
  9.0000004E-02  0.0000000E+00
  0.1000000      0.0000000E+00
  0.1100000      0.0000000E+00
  0.1200000      0.0000000E+00
  0.1300000      0.0000000E+00
  0.1400000      0.0000000E+00
  0.1500000      0.0000000E+00
  0.1600000      0.0000000E+00
  0.1700000      0.0000000E+00
  0.1800000      0.0000000E+00
  0.1900000      0.0000000E+00
  0.2000000      0.0000000E+00
  0.2100000      0.0000000E+00
  0.2200000      0.0000000E+00
  0.2300000      0.0000000E+00
  0.2400000      0.0000000E+00
  0.2500000      0.0000000E+00
  0.2600000      0.0000000E+00
  0.2700000      0.0000000E+00
  0.2800000      0.0000000E+00
  0.2900000      0.0000000E+00
  0.3000000      0.0000000E+00
  0.3100000      0.0000000E+00
  0.3200000      0.0000000E+00
  0.3300000      0.0000000E+00
  0.3400000      0.0000000E+00
  0.3500000      0.0000000E+00
  0.3600000      0.0000000E+00
  0.3700000      0.0000000E+00
  0.3800000      0.0000000E+00
  0.3900000      0.0000000E+00
  0.4000000      0.0000000E+00
  0.4100000      0.0000000E+00
  0.4200000      0.0000000E+00
  0.4300000      0.0000000E+00
  0.4400000      0.0000000E+00
  0.4500000      0.0000000E+00
  0.4600000      0.0000000E+00
  0.4700000      0.0000000E+00
  0.4800000      0.0000000E+00
  0.4900000      0.0000000E+00
  0.5000000      0.0000000E+00
  0.5100000      0.0000000E+00
  0.5200000      0.0000000E+00
  0.5300000      0.0000000E+00
  0.5400000      0.0000000E+00
  0.5500000      0.0000000E+00
  0.5600000      0.0000000E+00
  0.5700000      0.0000000E+00
  0.5800000      0.0000000E+00
  0.5900000      0.0000000E+00
  0.6000000      0.0000000E+00
  0.6100000      0.0000000E+00
  0.6200000      0.0000000E+00
  0.6300000      0.0000000E+00
  0.6400000      0.0000000E+00
  0.6500000      0.0000000E+00
  0.6600000      0.0000000E+00
  0.6700000      0.0000000E+00
  0.6800000      0.0000000E+00
  0.6900000      0.0000000E+00
  0.7000000      0.0000000E+00
  0.7100000      0.0000000E+00
  0.7200000      0.0000000E+00
  0.7300000      0.0000000E+00
  0.7400000      0.0000000E+00
  0.7500000      0.0000000E+00
  0.7600000      0.0000000E+00
  0.7700000      0.0000000E+00
  0.7800000      0.0000000E+00
  0.7900000      0.0000000E+00
  0.8000000      0.0000000E+00
  0.8100000      0.0000000E+00
  0.8200000      0.0000000E+00
  0.8300000      0.0000000E+00
  0.8400000      0.0000000E+00
  0.8500000      0.0000000E+00
  0.8600000      0.0000000E+00
  0.8700000      0.0000000E+00
  0.8800000      0.0000000E+00
  0.8900000      0.0000000E+00
  0.9000000      0.0000000E+00
  0.9100000      0.0000000E+00
  0.9200000      0.0000000E+00
  0.9300000      0.0000000E+00
  0.9400000      0.0000000E+00
  0.9500000      0.0000000E+00
  0.9600000      0.0000000E+00
  0.9700000      0.0000000E+00
  0.9800000      0.0000000E+00
  0.9900000      0.0000000E+00
   1.000000      0.0000000E+00
   1.010000      0.0000000E+00
   1.020000      0.0000000E+00
   1.030000      0.0000000E+00
   1.040000      0.0000000E+00
   1.050000      0.0000000E+00
   1.060000      0.0000000E+00
   1.070000      0.0000000E+00
   1.080000      0.0000000E+00
   1.090000      0.0000000E+00
   1.100000      0.0000000E+00
   1.110000      0.0000000E+00
   1.120000      0.0000000E+00
   1.130000      0.0000000E+00
   1.140000      0.0000000E+00
   1.150000      0.0000000E+00
   1.160000      0.0000000E+00
   1.170000      0.0000000E+00
   1.180000      0.0000000E+00
   1.190000      0.0000000E+00
   1.200000      0.0000000E+00
   1.210000      0.0000000E+00
   1.220000      0.0000000E+00
   1.230000      0.0000000E+00
   1.240000      0.0000000E+00
   1.250000      0.0000000E+00
   1.260000      0.0000000E+00
   1.270000      0.0000000E+00
   1.280000      0.0000000E+00
   1.290000      0.0000000E+00
   1.300000      0.0000000E+00
   1.310000      0.0000000E+00
   1.320000      0.0000000E+00
   1.330000      0.0000000E+00
   1.340000      0.0000000E+00
   1.350000      0.0000000E+00
   1.360000      0.0000000E+00
   1.370000      0.0000000E+00
   1.380000      0.0000000E+00
   1.390000      0.0000000E+00
   1.400000      0.0000000E+00
   1.410000      0.0000000E+00
   1.420000      0.0000000E+00
   1.430000      0.0000000E+00
   1.440000      0.0000000E+00
   1.450000      0.0000000E+00
   1.460000      0.0000000E+00
   1.470000      0.0000000E+00
   1.480000      0.0000000E+00
   1.490000      0.0000000E+00
   1.500000      0.0000000E+00
   1.510000      0.0000000E+00
   1.520000      0.0000000E+00
   1.530000      0.0000000E+00
   1.540000      0.0000000E+00
   1.550000      0.0000000E+00
   1.560000      0.0000000E+00
   1.570000      0.0000000E+00
   1.580000      0.0000000E+00
   1.590000      0.0000000E+00
   1.600000      0.0000000E+00
   1.610000      0.0000000E+00
   1.620000      0.0000000E+00
   1.630000      0.0000000E+00
   1.640000      0.0000000E+00
   1.650000      0.0000000E+00
   1.660000      0.0000000E+00
   1.670000      0.0000000E+00
   1.680000      0.0000000E+00
   1.690000      0.0000000E+00
   1.700000      0.0000000E+00
   1.710000      0.0000000E+00
   1.720000      0.0000000E+00
   1.730000      0.0000000E+00
   1.740000      0.0000000E+00
   1.750000      0.0000000E+00
   1.760000      0.0000000E+00
   1.770000      0.0000000E+00
   1.780000      0.0000000E+00
   1.790000      0.0000000E+00
   1.800000      0.0000000E+00
   1.810000      0.0000000E+00
   1.820000      0.0000000E+00
   1.830000      0.0000000E+00
   1.840000      0.0000000E+00
   1.850000      0.0000000E+00
   1.860000      0.0000000E+00
   1.870000      0.0000000E+00
   1.880000      0.0000000E+00
   1.890000      0.0000000E+00
   1.900000      0.0000000E+00
   1.910000      0.0000000E+00
   1.920000      0.0000000E+00
   1.930000      0.0000000E+00
   1.940000      0.0000000E+00
   1.950000      0.0000000E+00
   1.960000      0.0000000E+00
   1.970000      0.0000000E+00
   1.980000      0.0000000E+00
   1.990000      0.0000000E+00
   2.000000      0.0000000E+00
   2.010000      0.0000000E+00
   2.020000      0.0000000E+00
   2.030000      0.0000000E+00
   2.040000      0.0000000E+00
   2.050000      0.0000000E+00
   2.060000      0.0000000E+00
   2.070000      0.0000000E+00
   2.080000      0.0000000E+00
   2.090000      0.0000000E+00
   2.100000      0.0000000E+00
   2.110000      0.0000000E+00
   2.120000      0.0000000E+00
   2.130000      0.0000000E+00
   2.140000      0.0000000E+00
   2.150000      0.0000000E+00
   2.160000      0.0000000E+00
   2.170000      0.0000000E+00
   2.180000      0.0000000E+00
   2.190000      0.0000000E+00
   2.200000      0.0000000E+00
   2.210000      0.0000000E+00
   2.220000      0.0000000E+00
   2.230000      0.0000000E+00
   2.240000      0.0000000E+00
   2.250000      0.0000000E+00
   2.260000      0.0000000E+00
   2.270000      0.0000000E+00
   2.280000      0.0000000E+00
   2.290000      0.0000000E+00
   2.300000      0.0000000E+00
   2.310000      0.0000000E+00
   2.320000      0.0000000E+00
   2.330000      0.0000000E+00
   2.340000      0.0000000E+00
   2.350000      0.0000000E+00
   2.360000      0.0000000E+00
   2.370000      0.0000000E+00
   2.380000      0.0000000E+00
   2.390000      0.0000000E+00
   2.400000      0.0000000E+00
   2.410000      0.0000000E+00
   2.420000      0.0000000E+00
   2.430000      0.0000000E+00
   2.440000      0.0000000E+00
   2.450000      0.0000000E+00
   2.460000      0.0000000E+00
   2.470000      0.0000000E+00
   2.480000      0.0000000E+00
   2.490000      0.0000000E+00
   2.500000      0.0000000E+00
   2.510000      0.0000000E+00
   2.520000      0.0000000E+00
   2.530000      0.0000000E+00
   2.540000      0.0000000E+00
   2.550000      0.0000000E+00
   2.560000      0.0000000E+00
   2.570000      0.0000000E+00
   2.580000      0.0000000E+00
   2.590000      0.0000000E+00
   2.600000      0.0000000E+00
   2.610000      0.0000000E+00
   2.620000      0.0000000E+00
   2.630000      0.0000000E+00
   2.640000      0.0000000E+00
   2.650000      0.0000000E+00
   2.660000      0.0000000E+00
   2.670000      0.0000000E+00
   2.680000      0.0000000E+00
   2.690000      0.0000000E+00
   2.700000      0.0000000E+00
   2.710000      0.0000000E+00
   2.720000      0.0000000E+00
   2.730000      0.0000000E+00
   2.740000      0.0000000E+00
   2.750000      0.0000000E+00
   2.760000      0.0000000E+00
   2.770000      0.0000000E+00
   2.780000      0.0000000E+00
   2.790000      0.0000000E+00
   2.800000      0.0000000E+00
   2.810000      0.0000000E+00
   2.820000      0.0000000E+00
   2.830000      0.0000000E+00
   2.840000      0.0000000E+00
   2.850000      0.0000000E+00
   2.860000      0.0000000E+00
   2.870000      0.0000000E+00
   2.880000      0.0000000E+00
   2.890000      0.0000000E+00
   2.900000      0.0000000E+00
   2.910000      0.0000000E+00
   2.920000      0.0000000E+00
   2.930000      0.0000000E+00
   2.940000      0.0000000E+00
   2.950000      0.0000000E+00
   2.960000      1.3538148E-38
   2.970000      1.7377075E-38
   2.980000      2.0884528E-38
   2.990000      2.3762959E-38
   3.000000      2.6283031E-38
   3.010000      2.8286412E-38
   3.020000      2.9692620E-38
   3.030000      3.1305532E-38
   3.040000      3.2550283E-38
   3.050000      3.4207655E-38
   3.060000      3.6736564E-38
   3.070000      3.9268276E-38
   3.080000      4.2795103E-38
   3.090000      4.7617949E-38
   3.100000      5.2764235E-38
   3.110000      5.7650153E-38
   3.120000      6.2640014E-38
   3.130000      6.7291030E-38
   3.140000      7.1354140E-38
   3.150000      7.5578416E-38
   3.160000      7.9829277E-38
   3.170000      8.4582594E-38
   3.180000      8.9364710E-38
   3.190000      9.3217210E-38
   3.200000      9.6519790E-38
   3.210000      9.9509388E-38
   3.220000      1.0035874E-37
   3.230000      9.9289900E-38
   3.240000      9.3532788E-38
   3.250000      8.2353638E-38
   3.260000      6.8670945E-38
   3.270000      7.0373719E-38
   3.280000      9.2356488E-38
   3.290000      1.1603876E-37
   3.300000      1.3888933E-37
   3.310000      1.6304343E-37
   3.320000      1.8825414E-37
   3.330000      2.1567311E-37
   3.340000      2.2618616E-37
   3.350000      2.1446064E-37
   3.360000      1.9527715E-37
   3.370000      1.7175044E-37
   3.380000      1.4419798E-37
   3.390000      1.1127140E-37
   3.400000      4.5591725E-38
   3.410000     -5.5341794E-38
   3.420000     -1.6507093E-37
   3.430000     -2.7999558E-37
   3.440000     -3.9688140E-37
   3.450000     -5.1347006E-37
   3.460000     -6.2879141E-37
   3.470000     -7.4304880E-37
   3.480000     -8.5441477E-37
   3.490000     -9.6118115E-37
   3.500000     -1.0744767E-36
   3.510000     -1.1930097E-36
   3.520000     -1.2846287E-36
   3.530000     -1.3314049E-36
   3.540000     -1.3538479E-36
   3.550000     -1.4047774E-36
   3.560000     -1.5036484E-36
   3.570000     -1.6195416E-36
   3.580000     -1.7408186E-36
   3.590000     -1.8727014E-36
   3.600000     -2.0231598E-36
   3.610000     -2.2050673E-36
   3.620000     -2.4119266E-36
   3.630000     -2.5823291E-36
   3.640000     -2.6763027E-36
   3.650000     -2.6785923E-36
   3.660000     -2.5860020E-36
   3.670000     -2.4045724E-36
   3.680000     -2.1579505E-36
   3.690000     -1.8931540E-36
   3.700000     -1.6126839E-36
   3.710000     -1.3025867E-36
   3.720000     -9.6607391E-37
   3.730000     -6.1955513E-37
   3.740000     -2.9034557E-37
   3.750000      1.6160046E-38
   3.760000      3.2710927E-37
   3.770000      6.4511840E-37
   3.780000      9.6254209E-37
   3.790000      1.2755670E-36
   3.800000      1.5370346E-36
   3.810000      1.7572950E-36
   3.820000      1.9270343E-36
   3.830000      2.0284969E-36
   3.840000      2.1246382E-36
   3.850000      2.2814527E-36
   3.860000      2.5204399E-36
   3.870000      2.8112998E-36
   3.880000      3.1511672E-36
   3.890000      3.5286613E-36
   3.900000      3.8284098E-36
   3.910000      4.0629519E-36
   3.920000      4.4732650E-36
   3.930000      5.1721059E-36
   3.940000      5.9397778E-36
   3.950000      6.6471192E-36
   3.960000      7.3949622E-36
   3.970000      8.2008682E-36
   3.980000      9.3021265E-36
   3.990000      1.0627904E-35
   4.000000      1.1737922E-35
   4.010000      1.2882567E-35
   4.020000      1.3933012E-35
   4.030000      1.4638723E-35
   4.040000      1.5224730E-35
   4.050000      1.5875982E-35
   4.060000      1.6676682E-35
   4.070000      1.7512507E-35
   4.080000      1.8230227E-35
   4.090000      1.8738878E-35
   4.100000      1.9115448E-35
   4.110000      1.9283407E-35
   4.120000      1.9315552E-35
   4.130000      1.9278162E-35
   4.140000      1.9069741E-35
   4.150000      1.8740080E-35
   4.160000      1.8139740E-35
   4.170000      1.7049091E-35
   4.180000      1.5442631E-35
   4.190000      1.3383980E-35
   4.200000      1.1053590E-35
   4.210000      8.6705845E-36
   4.220000      6.2943726E-36
   4.230000      3.6812962E-36
   4.240000      8.5101031E-37
   4.250000     -2.1247563E-36
   4.260000     -5.3015025E-36
   4.270000     -8.4826231E-36
   4.280000     -1.1794949E-35
   4.290000     -1.5381355E-35
   4.300000     -1.9319053E-35
   4.310000     -2.3449103E-35
   4.320000     -2.7822700E-35
   4.330000     -3.2301161E-35
   4.340000     -3.6349755E-35
   4.350000     -4.0242395E-35
   4.360000     -4.4306583E-35
   4.370000     -4.8364332E-35
   4.380000     -5.2583134E-35
   4.390000     -5.7327775E-35
   4.400000     -6.2340122E-35
   4.410000     -6.7425076E-35
   4.420000     -7.2330848E-35
   4.430000     -7.6945065E-35
   4.440000     -8.1474943E-35
   4.450000     -8.5793995E-35
   4.460000     -8.9856120E-35
   4.470000     -9.3946220E-35
   4.480000     -9.7853247E-35
   4.490000     -1.0166637E-34
   4.500000     -1.0541164E-34
   4.510000     -1.0849873E-34
   4.520000     -1.1047077E-34
   4.530000     -1.1175276E-34
   4.540000     -1.1281296E-34
   4.550000     -1.1318533E-34
   4.560000     -1.1287610E-34
   4.570000     -1.1259996E-34
   4.580000     -1.1225567E-34
   4.590000     -1.1095015E-34
   4.600000     -1.0876460E-34
   4.610000     -1.0542955E-34
   4.620000     -1.0107595E-34
   4.630000     -9.5800235E-35
   4.640000     -8.9750337E-35
   4.650000     -8.3103869E-35
   4.660000     -7.4489539E-35
   4.670000     -6.3428005E-35
   4.680000     -5.0759981E-35
   4.690000     -3.6502030E-35
   4.700000     -2.1597868E-35
   4.710000     -6.5279569E-36
   4.720000      1.0084048E-35
   4.730000      2.8108524E-35
   4.740000      4.7672234E-35
   4.750000      6.7155126E-35
   4.760000      8.6056954E-35
   4.770000      1.0650436E-34
   4.780000      1.3024422E-34
   4.790000      1.5679326E-34
   4.800000      1.8404386E-34
   4.810000      2.1142669E-34
   4.820000      2.3892132E-34
   4.830000      2.6687246E-34
   4.840000      2.9412432E-34
   4.850000      3.1894043E-34
   4.860000      3.4199185E-34
   4.870000      3.6524384E-34
   4.880000      3.8891621E-34
   4.890000      4.1419586E-34
   4.900000      4.4406209E-34
   4.910000      4.7778983E-34
   4.920000      5.1273787E-34
   4.930000      5.4784557E-34
   4.940000      5.8279178E-34
   4.950000      6.1980672E-34
   4.960000      6.5908559E-34
   4.970000      6.9880637E-34
   4.980000      7.3895253E-34
   4.990000      7.7828085E-34
   5.000000      8.1811808E-34
   5.010000      8.5766538E-34
   5.020000      8.9314694E-34
   5.030000      9.2332960E-34
   5.040000      9.5001681E-34
   5.050000      9.7257749E-34
   5.060000      9.9093164E-34
   5.070000      1.0057207E-33
   5.080000      1.0171179E-33
   5.090000      1.0259351E-33
   5.100000      1.0293409E-33
   5.110000      1.0241060E-33
   5.120000      1.0104363E-33
   5.130000      9.8474982E-34
   5.140000      9.4618892E-34
   5.150000      8.9803663E-34
   5.160000      8.4242436E-34
   5.170000      7.7821161E-34
   5.180000      7.0679642E-34
   5.190000      6.3146960E-34
   5.200000      5.5110279E-34
   5.210000      4.6590746E-34
   5.220000      3.7601089E-34
   5.230000      2.8072646E-34
   5.240000      1.7729837E-34
   5.250000      6.3023280E-35
   5.260000     -6.4529675E-35
   5.270000     -2.0115746E-34
   5.280000     -3.4410999E-34
   5.290000     -4.9538964E-34
   5.300000     -6.5467969E-34
   5.310000     -8.2237438E-34
   5.320000     -9.9882921E-34
   5.330000     -1.1830488E-33
   5.340000     -1.3779830E-33
   5.350000     -1.5846180E-33
   5.360000     -1.8035162E-33
   5.370000     -2.0366788E-33
   5.380000     -2.2847035E-33
   5.390000     -2.5485888E-33
   5.400000     -2.8286508E-33
   5.410000     -3.1235129E-33
   5.420000     -3.4333721E-33
   5.430000     -3.7580852E-33
   5.440000     -4.0935254E-33
   5.450000     -4.4369086E-33
   5.460000     -4.7892487E-33
   5.470000     -5.1503881E-33
   5.480000     -5.5180563E-33
   5.490000     -5.8899944E-33
   5.500000     -6.2637745E-33
   5.510000     -6.6392589E-33
   5.520000     -7.0134849E-33
   5.530000     -7.3842858E-33
   5.540000     -7.7503112E-33
   5.550000     -8.1087312E-33
   5.560000     -8.4586259E-33
   5.570000     -8.7954932E-33
   5.580000     -9.1154150E-33
   5.590000     -9.4160249E-33
   5.600000     -9.6957345E-33
   5.610000     -9.9555195E-33
   5.620000     -1.0192307E-32
   5.630000     -1.0401561E-32
   5.640000     -1.0578401E-32
   5.650000     -1.0724121E-32
   5.660000     -1.0836616E-32
   5.670000     -1.0911465E-32
   5.680000     -1.0945806E-32
   5.690000     -1.0937458E-32
   5.700000     -1.0886135E-32
   5.710000     -1.0783712E-32
   5.720000     -1.0624803E-32
   5.730000     -1.0408040E-32
   5.740000     -1.0131191E-32
   5.750000     -9.7885273E-33
   5.760000     -9.3748452E-33
   5.770000     -8.8843782E-33
   5.780000     -8.3110235E-33
   5.790000     -7.6502377E-33
   5.800000     -6.8976679E-33
   5.810000     -6.0491806E-33
   5.820000     -5.1003271E-33
   5.830000     -4.0456240E-33
   5.840000     -2.8798668E-33
   5.850000     -1.5996792E-33
   5.860000     -2.0176463E-34
   5.870000      1.3190070E-33
   5.880000      2.9654113E-33
   5.890000      4.7375390E-33
   5.900000      6.6382568E-33
   5.910000      8.6730846E-33
   5.920000      1.0843941E-32
   5.930000      1.3148953E-32
   5.940000      1.5588591E-32
   5.950000      1.8162666E-32
   5.960000      2.0870088E-32
   5.970000      2.3708092E-32
   5.980000      2.6676340E-32
   5.990000      2.9774805E-32
   6.000000      3.2997960E-32
   6.010000      3.6341639E-32
   6.020000      3.9801927E-32
   6.030000      4.3373438E-32
   6.040000      4.7051457E-32
   6.050000      5.0829851E-32
   6.060000      5.4700037E-32
   6.070000      5.8653941E-32
   6.080000      6.2683607E-32
   6.090000      6.6779605E-32
   6.100000      7.0931051E-32
   6.110000      7.5124980E-32
   6.120000      7.9347614E-32
   6.130000      8.3583908E-32
   6.140000      8.7817345E-32
   6.150000      9.2029929E-32
   6.160000      9.6202252E-32
   6.170000      1.0031500E-31
   6.180000      1.0434609E-31
   6.190000      1.0826995E-31
   6.200000      1.1206025E-31
   6.210000      1.1568972E-31
   6.220000      1.1912976E-31
   6.230000      1.2234992E-31
   6.240000      1.2531844E-31
   6.250000      1.2800179E-31
   6.260000      1.3036348E-31
   6.270000      1.3236780E-31
   6.280000      1.3397921E-31
   6.290000      1.3515932E-31
   6.300000      1.3586861E-31
   6.310000      1.3606689E-31
   6.320000      1.3571281E-31
   6.330000      1.3476163E-31
   6.340000      1.3316994E-31
   6.350000      1.3089565E-31
   6.360000      1.2789436E-31
   6.370000      1.2412171E-31
   6.380000      1.1953283E-31
   6.390000      1.1408274E-31
   6.400000      1.0772664E-31
   6.410000      1.0041972E-31
   6.420000      9.2117509E-32
   6.430000      8.2775955E-32
   6.440000      7.2351654E-32
   6.450000      6.0801975E-32
   6.460000      4.8085430E-32
   6.470000      3.4162846E-32
   6.480000      1.8993260E-32
   6.490000      2.5403983E-33
   6.500000     -1.5227821E-32
   6.510000     -3.4344724E-32
   6.520000     -5.4839374E-32
   6.530000     -7.6737247E-32
   6.540000     -1.0006083E-31
   6.550000     -1.2482838E-31
   6.560000     -1.5105321E-31
   6.570000     -1.7874428E-31
   6.580000     -2.0790505E-31
   6.590000     -2.3853334E-31
   6.600000     -2.7062085E-31
   6.610000     -3.0415260E-31
   6.620000     -3.3910668E-31
   6.630000     -3.7545369E-31
   6.640000     -4.1315627E-31
   6.650000     -4.5216914E-31
   6.660000     -4.9243809E-31
   6.670000     -5.3389947E-31
   6.680000     -5.7648058E-31
   6.690000     -6.2009852E-31
   6.700000     -6.6466015E-31
   6.710000     -7.1006159E-31
   6.720000     -7.5618818E-31
   6.730000     -8.0291389E-31
   6.740000     -8.5010106E-31
   6.750000     -8.9759987E-31
   6.760000     -9.4524867E-31
   6.770000     -9.9287303E-31
   6.780000     -1.0402860E-30
   6.790000     -1.0872877E-30
   6.800000     -1.1336652E-30
   6.810000     -1.1791921E-30
   6.820000     -1.2236288E-30
   6.830000     -1.2667220E-30
   6.840000     -1.3082050E-30
   6.850000     -1.3477978E-30
   6.860000     -1.3852066E-30
   6.870000     -1.4201244E-30
   6.880000     -1.4522310E-30
   6.890000     -1.4811931E-30
   6.900000     -1.5066652E-30
   6.910000     -1.5282891E-30
   6.920000     -1.5456951E-30
   6.930000     -1.5585027E-30
   6.940000     -1.5663203E-30
   6.950000     -1.5687469E-30
   6.960000     -1.5653720E-30
   6.970000     -1.5557792E-30
   6.980000     -1.5395437E-30
   6.990000     -1.5162333E-30
   7.000000     -1.4854136E-30
   7.010000     -1.4466468E-30
   7.020000     -1.3994929E-30
   7.030000     -1.3435117E-30
   7.040000     -1.2782651E-30
   7.050000     -1.2033177E-30
   7.060000     -1.1182395E-30