  -2.600000      0.0000000E+00
  -2.590000      0.0000000E+00
  -2.580000      0.0000000E+00
  -2.570000      0.0000000E+00
  -2.560000      0.0000000E+00
  -2.550000      0.0000000E+00
  -2.540000      0.0000000E+00
  -2.530000      0.0000000E+00
  -2.520000      0.0000000E+00
  -2.510000      0.0000000E+00
  -2.500000      0.0000000E+00
  -2.490000      0.0000000E+00
  -2.480000      0.0000000E+00
  -2.470000      0.0000000E+00
  -2.460000      0.0000000E+00
  -2.450000      0.0000000E+00
  -2.440000      0.0000000E+00
  -2.430000      0.0000000E+00
  -2.420000      0.0000000E+00
  -2.410000      0.0000000E+00
  -2.400000      0.0000000E+00
  -2.390000      0.0000000E+00
  -2.380000      0.0000000E+00
  -2.370000      0.0000000E+00
  -2.360000      0.0000000E+00
  -2.350000      0.0000000E+00
  -2.340000      0.0000000E+00
  -2.330000      0.0000000E+00
  -2.320000      0.0000000E+00
  -2.310000      0.0000000E+00
  -2.300000      0.0000000E+00
  -2.290000      0.0000000E+00
  -2.280000      0.0000000E+00
  -2.270000      0.0000000E+00
  -2.260000      0.0000000E+00
  -2.250000      0.0000000E+00
  -2.240000      0.0000000E+00
  -2.230000      0.0000000E+00
  -2.220000      0.0000000E+00
  -2.210000      0.0000000E+00
  -2.200000      0.0000000E+00
  -2.190000      0.0000000E+00
  -2.180000      0.0000000E+00
  -2.170000      0.0000000E+00
  -2.160000      0.0000000E+00
  -2.150000      0.0000000E+00
  -2.140000      0.0000000E+00
  -2.130000      0.0000000E+00
  -2.120000      0.0000000E+00
  -2.110000      0.0000000E+00
  -2.100000      0.0000000E+00
  -2.090000      0.0000000E+00
  -2.080000      0.0000000E+00
  -2.070000      0.0000000E+00
  -2.060000      0.0000000E+00
  -2.050000      0.0000000E+00
  -2.040000      0.0000000E+00
  -2.030000      0.0000000E+00
  -2.020000      0.0000000E+00
  -2.010000      0.0000000E+00
  -2.000000      0.0000000E+00
  -1.990000      0.0000000E+00
  -1.980000      0.0000000E+00
  -1.970000      0.0000000E+00
  -1.960000      0.0000000E+00
  -1.950000      0.0000000E+00
  -1.940000      0.0000000E+00
  -1.930000      0.0000000E+00
  -1.920000      0.0000000E+00
  -1.910000      0.0000000E+00
  -1.900000      0.0000000E+00
  -1.890000      0.0000000E+00
  -1.880000      0.0000000E+00
  -1.870000      0.0000000E+00
  -1.860000      0.0000000E+00
  -1.850000      0.0000000E+00
  -1.840000      0.0000000E+00
  -1.830000      0.0000000E+00
  -1.820000      0.0000000E+00
  -1.810000      0.0000000E+00
  -1.800000      0.0000000E+00
  -1.790000      0.0000000E+00
  -1.780000      0.0000000E+00
  -1.770000      0.0000000E+00
  -1.760000      0.0000000E+00
  -1.750000      0.0000000E+00
  -1.740000      0.0000000E+00
  -1.730000      0.0000000E+00
  -1.720000      0.0000000E+00
  -1.710000      0.0000000E+00
  -1.700000      0.0000000E+00
  -1.690000      0.0000000E+00
  -1.680000      0.0000000E+00
  -1.670000      0.0000000E+00
  -1.660000      0.0000000E+00
  -1.650000      0.0000000E+00
  -1.640000      0.0000000E+00
  -1.630000      0.0000000E+00
  -1.620000      0.0000000E+00
  -1.610000      0.0000000E+00
  -1.600000      0.0000000E+00
  -1.590000      0.0000000E+00
  -1.580000      0.0000000E+00
  -1.570000      0.0000000E+00
  -1.560000      0.0000000E+00
  -1.550000      0.0000000E+00
  -1.540000      0.0000000E+00
  -1.530000      0.0000000E+00
  -1.520000      0.0000000E+00
  -1.510000      0.0000000E+00
  -1.500000      0.0000000E+00
  -1.490000      0.0000000E+00
  -1.480000      0.0000000E+00
  -1.470000      0.0000000E+00
  -1.460000      0.0000000E+00
  -1.450000      0.0000000E+00
  -1.440000      0.0000000E+00
  -1.430000      0.0000000E+00
  -1.420000      0.0000000E+00
  -1.410000      0.0000000E+00
  -1.400000      0.0000000E+00
  -1.390000      0.0000000E+00
  -1.380000      0.0000000E+00
  -1.370000      0.0000000E+00
  -1.360000      0.0000000E+00
  -1.350000      0.0000000E+00
  -1.340000      0.0000000E+00
  -1.330000      0.0000000E+00
  -1.320000      0.0000000E+00
  -1.310000      0.0000000E+00
  -1.300000      0.0000000E+00
  -1.290000      0.0000000E+00
  -1.280000      0.0000000E+00
  -1.270000      0.0000000E+00
  -1.260000      0.0000000E+00
  -1.250000      0.0000000E+00
  -1.240000      0.0000000E+00
  -1.230000      0.0000000E+00
  -1.220000      0.0000000E+00
  -1.210000      0.0000000E+00
  -1.200000      0.0000000E+00
  -1.190000      0.0000000E+00
  -1.180000      0.0000000E+00
  -1.170000      0.0000000E+00
  -1.160000      0.0000000E+00
  -1.150000      0.0000000E+00
  -1.140000      0.0000000E+00
  -1.130000      0.0000000E+00
  -1.120000      0.0000000E+00
  -1.110000      0.0000000E+00
  -1.100000      0.0000000E+00
  -1.090000      0.0000000E+00
  -1.080000      0.0000000E+00
  -1.070000      0.0000000E+00
  -1.060000      0.0000000E+00
  -1.050000      0.0000000E+00
  -1.040000      0.0000000E+00
  -1.030000      0.0000000E+00
  -1.020000      0.0000000E+00
  -1.010000      0.0000000E+00
  -1.000000      0.0000000E+00
 -0.9900000      0.0000000E+00
 -0.9800000      0.0000000E+00
 -0.9700000      0.0000000E+00
 -0.9600000      0.0000000E+00
 -0.9500000      0.0000000E+00
 -0.9400000      0.0000000E+00
 -0.9300000      0.0000000E+00
 -0.9200000      0.0000000E+00
 -0.9100000      0.0000000E+00
 -0.9000000      0.0000000E+00
 -0.8900000      0.0000000E+00
 -0.8800000      0.0000000E+00
 -0.8700000      0.0000000E+00
 -0.8600000      0.0000000E+00
 -0.8500000      0.0000000E+00
 -0.8400000      0.0000000E+00
 -0.8300000      0.0000000E+00
 -0.8200000      0.0000000E+00
 -0.8100000      0.0000000E+00
 -0.8000000      0.0000000E+00
 -0.7900000      0.0000000E+00
 -0.7800000      0.0000000E+00
 -0.7700000      0.0000000E+00
 -0.7600000      0.0000000E+00
 -0.7500000      0.0000000E+00
 -0.7400000      0.0000000E+00
 -0.7300000      0.0000000E+00
 -0.7200000      0.0000000E+00
 -0.7100000      0.0000000E+00
 -0.7000000      0.0000000E+00
 -0.6900000      0.0000000E+00
 -0.6800000      0.0000000E+00
 -0.6700000      0.0000000E+00
 -0.6600000      0.0000000E+00
 -0.6500000      0.0000000E+00
 -0.6400000      0.0000000E+00
 -0.6300000      0.0000000E+00
 -0.6200000      0.0000000E+00
 -0.6100000      0.0000000E+00
 -0.6000000      0.0000000E+00
 -0.5900000      0.0000000E+00
 -0.5800000      0.0000000E+00
 -0.5700000      0.0000000E+00
 -0.5600000      0.0000000E+00
 -0.5500000      0.0000000E+00
 -0.5400000      0.0000000E+00
 -0.5300000      0.0000000E+00
 -0.5200000      0.0000000E+00
 -0.5100000      0.0000000E+00
 -0.5000000      0.0000000E+00
 -0.4900000      0.0000000E+00
 -0.4800000      0.0000000E+00
 -0.4700000      0.0000000E+00
 -0.4600000      0.0000000E+00
 -0.4500000      0.0000000E+00
 -0.4400000      0.0000000E+00
 -0.4300000      0.0000000E+00
 -0.4200000      0.0000000E+00
 -0.4100000      0.0000000E+00
 -0.4000000      0.0000000E+00
 -0.3900000      0.0000000E+00
 -0.3800000      0.0000000E+00
 -0.3700000      0.0000000E+00
 -0.3600000      0.0000000E+00
 -0.3500000      0.0000000E+00
 -0.3400000      0.0000000E+00
 -0.3300000      0.0000000E+00
 -0.3200000      0.0000000E+00
 -0.3100000      0.0000000E+00
 -0.3000000      0.0000000E+00
 -0.2900000      0.0000000E+00
 -0.2800000      0.0000000E+00
 -0.2700000      0.0000000E+00
 -0.2600000      0.0000000E+00
 -0.2500000      0.0000000E+00
 -0.2400000      0.0000000E+00
 -0.2300000      0.0000000E+00
 -0.2200000      0.0000000E+00
 -0.2100000      0.0000000E+00
 -0.2000000      0.0000000E+00
 -0.1900000      0.0000000E+00
 -0.1800000      0.0000000E+00
 -0.1700000      0.0000000E+00
 -0.1600000      0.0000000E+00
 -0.1500000      0.0000000E+00
 -0.1400000      0.0000000E+00
 -0.1300000      0.0000000E+00
 -0.1200000      0.0000000E+00
 -0.1100000      0.0000000E+00
 -0.1000000      0.0000000E+00
 -9.0000004E-02  0.0000000E+00
 -7.9999998E-02  0.0000000E+00
 -7.0000000E-02  0.0000000E+00
 -5.9999999E-02  0.0000000E+00
 -5.0000001E-02  0.0000000E+00
 -3.9999999E-02  0.0000000E+00
 -2.9999999E-02  0.0000000E+00
 -2.0000000E-02  0.0000000E+00
 -9.9999998E-03  0.0000000E+00
 -3.4694470E-17  0.0000000E+00
  9.9999998E-03  0.0000000E+00
  2.0000000E-02  0.0000000E+00
  2.9999999E-02  0.0000000E+00
  3.9999999E-02  0.0000000E+00
  5.0000001E-02  0.0000000E+00
  5.9999999E-02  0.0000000E+00
  7.0000000E-02  0.0000000E+00
  7.9999998E-02  0.0000000E+00
  9.0000004E-02  0.0000000E+00
  0.1000000      0.0000000E+00
  0.1100000      0.0000000E+00
  0.1200000      0.0000000E+00
  0.1300000      0.0000000E+00
  0.1400000      0.0000000E+00
  0.1500000      0.0000000E+00
  0.1600000      0.0000000E+00
  0.1700000      0.0000000E+00
  0.1800000      0.0000000E+00
  0.1900000      0.0000000E+00
  0.2000000      0.0000000E+00
  0.2100000      0.0000000E+00
  0.2200000      0.0000000E+00
  0.2300000      0.0000000E+00
  0.2400000      0.0000000E+00
  0.2500000      0.0000000E+00
  0.2600000      0.0000000E+00
  0.2700000      0.0000000E+00
  0.2800000      0.0000000E+00
  0.2900000      0.0000000E+00
  0.3000000      0.0000000E+00
  0.3100000      0.0000000E+00
  0.3200000      0.0000000E+00
  0.3300000      0.0000000E+00
  0.3400000      0.0000000E+00
  0.3500000      0.0000000E+00
  0.3600000      0.0000000E+00
  0.3700000      0.0000000E+00
  0.3800000      0.0000000E+00
  0.3900000      0.0000000E+00
  0.4000000      0.0000000E+00
  0.4100000      0.0000000E+00
  0.4200000      0.0000000E+00
  0.4300000      0.0000000E+00
  0.4400000      0.0000000E+00
  0.4500000      0.0000000E+00
  0.4600000      0.0000000E+00
  0.4700000      0.0000000E+00
  0.4800000      0.0000000E+00
  0.4900000      0.0000000E+00
  0.5000000      0.0000000E+00
  0.5100000      0.0000000E+00
  0.5200000      0.0000000E+00
  0.5300000      0.0000000E+00
  0.5400000      0.0000000E+00
  0.5500000      0.0000000E+00
  0.5600000      0.0000000E+00
  0.5700000      0.0000000E+00
  0.5800000      0.0000000E+00
  0.5900000      0.0000000E+00
  0.6000000      0.0000000E+00
  0.6100000      0.0000000E+00
  0.6200000      0.0000000E+00
  0.6300000      0.0000000E+00
  0.6400000      0.0000000E+00
  0.6500000      0.0000000E+00
  0.6600000      0.0000000E+00
  0.6700000      0.0000000E+00
  0.6800000      0.0000000E+00
  0.6900000      0.0000000E+00
  0.7000000      0.0000000E+00
  0.7100000      0.0000000E+00
  0.7200000      0.0000000E+00
  0.7300000      0.0000000E+00
  0.7400000      0.0000000E+00
  0.7500000      0.0000000E+00
  0.7600000      0.0000000E+00
  0.7700000      0.0000000E+00
  0.7800000      0.0000000E+00
  0.7900000      0.0000000E+00
  0.8000000      0.0000000E+00
  0.8100000      0.0000000E+00
  0.8200000      0.0000000E+00
  0.8300000      0.0000000E+00
  0.8400000      0.0000000E+00
  0.8500000      0.0000000E+00
  0.8600000      0.0000000E+00
  0.8700000      0.0000000E+00
  0.8800000      0.0000000E+00
  0.8900000      0.0000000E+00
  0.9000000      0.0000000E+00
  0.9100000      0.0000000E+00
  0.9200000      0.0000000E+00
  0.9300000      0.0000000E+00
  0.9400000      0.0000000E+00
  0.9500000      0.0000000E+00
  0.9600000      0.0000000E+00
  0.9700000      0.0000000E+00
  0.9800000      0.0000000E+00
  0.9900000      0.0000000E+00
   1.000000      0.0000000E+00
   1.010000      0.0000000E+00
   1.020000      0.0000000E+00
   1.030000      0.0000000E+00
   1.040000      0.0000000E+00
   1.050000      0.0000000E+00
   1.060000      0.0000000E+00
   1.070000      0.0000000E+00
   1.080000      0.0000000E+00
   1.090000      0.0000000E+00
   1.100000      0.0000000E+00
   1.110000      0.0000000E+00
   1.120000      0.0000000E+00
   1.130000      0.0000000E+00
   1.140000      0.0000000E+00
   1.150000      0.0000000E+00
   1.160000      0.0000000E+00
   1.170000      0.0000000E+00
   1.180000      0.0000000E+00
   1.190000      0.0000000E+00
   1.200000      0.0000000E+00
   1.210000      0.0000000E+00
   1.220000      0.0000000E+00
   1.230000      0.0000000E+00
   1.240000      0.0000000E+00
   1.250000      0.0000000E+00
   1.260000      0.0000000E+00
   1.270000      0.0000000E+00
   1.280000      0.0000000E+00
   1.290000      0.0000000E+00
   1.300000      0.0000000E+00
   1.310000      0.0000000E+00
   1.320000      0.0000000E+00
   1.330000      0.0000000E+00
   1.340000      0.0000000E+00
   1.350000      0.0000000E+00
   1.360000      0.0000000E+00
   1.370000      0.0000000E+00
   1.380000      0.0000000E+00
   1.390000      0.0000000E+00
   1.400000      0.0000000E+00
   1.410000      0.0000000E+00
   1.420000      0.0000000E+00
   1.430000      0.0000000E+00
   1.440000      0.0000000E+00
   1.450000      0.0000000E+00
   1.460000      0.0000000E+00
   1.470000      0.0000000E+00
   1.480000      0.0000000E+00
   1.490000      0.0000000E+00
   1.500000      0.0000000E+00
   1.510000      0.0000000E+00
   1.520000      0.0000000E+00
   1.530000      0.0000000E+00
   1.540000      0.0000000E+00
   1.550000      0.0000000E+00
   1.560000      0.0000000E+00
   1.570000      0.0000000E+00
   1.580000      0.0000000E+00
   1.590000      0.0000000E+00
   1.600000      0.0000000E+00
   1.610000      0.0000000E+00
   1.620000      0.0000000E+00
   1.630000      0.0000000E+00
   1.640000      0.0000000E+00
   1.650000      0.0000000E+00
   1.660000      0.0000000E+00
   1.670000      0.0000000E+00
   1.680000      0.0000000E+00
   1.690000      0.0000000E+00
   1.700000      0.0000000E+00
   1.710000      0.0000000E+00
   1.720000      0.0000000E+00
   1.730000      0.0000000E+00
   1.740000      0.0000000E+00
   1.750000      0.0000000E+00
   1.760000      0.0000000E+00
   1.770000      0.0000000E+00
   1.780000      0.0000000E+00
   1.790000      0.0000000E+00
   1.800000      0.0000000E+00
   1.810000      0.0000000E+00
   1.820000      0.0000000E+00
   1.830000      0.0000000E+00
   1.840000      0.0000000E+00
   1.850000      0.0000000E+00
   1.860000      0.0000000E+00
   1.870000      0.0000000E+00
   1.880000      0.0000000E+00
   1.890000      0.0000000E+00
   1.900000      0.0000000E+00
   1.910000      0.0000000E+00
   1.920000      0.0000000E+00
   1.930000      0.0000000E+00
   1.940000      0.0000000E+00
   1.950000      0.0000000E+00
   1.960000      0.0000000E+00
   1.970000      0.0000000E+00
   1.980000      0.0000000E+00
   1.990000      0.0000000E+00
   2.000000      0.0000000E+00
   2.010000      0.0000000E+00
   2.020000      0.0000000E+00
   2.030000      0.0000000E+00
   2.040000      0.0000000E+00
   2.050000      0.0000000E+00
   2.060000      0.0000000E+00
   2.070000      0.0000000E+00
   2.080000      0.0000000E+00
   2.090000      0.0000000E+00
   2.100000      0.0000000E+00
   2.110000      0.0000000E+00
   2.120000      0.0000000E+00
   2.130000      0.0000000E+00
   2.140000      0.0000000E+00
   2.150000      0.0000000E+00
   2.160000      0.0000000E+00
   2.170000      0.0000000E+00
   2.180000      0.0000000E+00
   2.190000      0.0000000E+00
   2.200000      0.0000000E+00
   2.210000      0.0000000E+00
   2.220000      0.0000000E+00
   2.230000      0.0000000E+00
   2.240000      0.0000000E+00
   2.250000      0.0000000E+00
   2.260000      0.0000000E+00
   2.270000      0.0000000E+00
   2.280000      0.0000000E+00
   2.290000      0.0000000E+00
   2.300000      0.0000000E+00
   2.310000      0.0000000E+00
   2.320000      0.0000000E+00
   2.330000      0.0000000E+00
   2.340000      0.0000000E+00
   2.350000      0.0000000E+00
   2.360000      0.0000000E+00
   2.370000      0.0000000E+00
   2.380000      0.0000000E+00
   2.390000      0.0000000E+00
   2.400000      0.0000000E+00
   2.410000      0.0000000E+00
   2.420000      0.0000000E+00
   2.430000      0.0000000E+00
   2.440000      0.0000000E+00
   2.450000      0.0000000E+00
   2.460000      0.0000000E+00
   2.470000      0.0000000E+00
   2.480000      0.0000000E+00
   2.490000      0.0000000E+00
   2.500000      0.0000000E+00
   2.510000      0.0000000E+00
   2.520000      0.0000000E+00
   2.530000      0.0000000E+00
   2.540000      0.0000000E+00
   2.550000      0.0000000E+00
   2.560000      0.0000000E+00
   2.570000      0.0000000E+00
   2.580000      0.0000000E+00
   2.590000      0.0000000E+00
   2.600000      0.0000000E+00
   2.610000      0.0000000E+00
   2.620000      0.0000000E+00
   2.630000      0.0000000E+00
   2.640000      0.0000000E+00
   2.650000      0.0000000E+00
   2.660000      0.0000000E+00
   2.670000      0.0000000E+00
   2.680000      0.0000000E+00
   2.690000      0.0000000E+00
   2.700000      0.0000000E+00
   2.710000      0.0000000E+00
   2.720000      0.0000000E+00
   2.730000      0.0000000E+00
   2.740000      0.0000000E+00
   2.750000      0.0000000E+00
   2.760000      0.0000000E+00
   2.770000      0.0000000E+00
   2.780000      0.0000000E+00
   2.790000      0.0000000E+00
   2.800000      0.0000000E+00
   2.810000      0.0000000E+00
   2.820000      0.0000000E+00
   2.830000      0.0000000E+00
   2.840000      0.0000000E+00
   2.850000      0.0000000E+00
   2.860000      0.0000000E+00
   2.870000      0.0000000E+00
   2.880000      0.0000000E+00
   2.890000      0.0000000E+00
   2.900000      0.0000000E+00
   2.910000      0.0000000E+00
   2.920000      0.0000000E+00
   2.930000      0.0000000E+00
   2.940000      0.0000000E+00
   2.950000      0.0000000E+00
   2.960000      0.0000000E+00
   2.970000      0.0000000E+00
   2.980000      0.0000000E+00
   2.990000      0.0000000E+00
   3.000000      0.0000000E+00
   3.010000      0.0000000E+00
   3.020000      0.0000000E+00
   3.030000      0.0000000E+00
   3.040000      0.0000000E+00
   3.050000      0.0000000E+00
   3.060000      0.0000000E+00
   3.070000      0.0000000E+00
   3.080000      0.0000000E+00
   3.090000      0.0000000E+00
   3.100000      0.0000000E+00
   3.110000      0.0000000E+00
   3.120000      0.0000000E+00
   3.130000      0.0000000E+00
   3.140000      0.0000000E+00
   3.150000      0.0000000E+00
   3.160000      0.0000000E+00
   3.170000      0.0000000E+00
   3.180000      0.0000000E+00
   3.190000      0.0000000E+00
   3.200000      0.0000000E+00
   3.210000      0.0000000E+00
   3.220000      0.0000000E+00
   3.230000      0.0000000E+00
   3.240000      0.0000000E+00
   3.250000      0.0000000E+00
   3.260000      0.0000000E+00
   3.270000      0.0000000E+00
   3.280000      0.0000000E+00
   3.290000      0.0000000E+00
   3.300000      0.0000000E+00
   3.310000      0.0000000E+00
   3.320000      0.0000000E+00
   3.330000      0.0000000E+00
   3.340000      0.0000000E+00
   3.350000      0.0000000E+00
   3.360000      0.0000000E+00
   3.370000      0.0000000E+00
   3.380000      0.0000000E+00
   3.390000      0.0000000E+00
   3.400000      0.0000000E+00
   3.410000      0.0000000E+00
   3.420000      0.0000000E+00
   3.430000      0.0000000E+00
   3.440000      0.0000000E+00
   3.450000      0.0000000E+00
   3.460000      0.0000000E+00
   3.470000      0.0000000E+00
   3.480000      0.0000000E+00
   3.490000     -1.2284065E-38
   3.500000     -1.3719048E-38
   3.510000     -1.4559844E-38
   3.520000     -1.5513355E-38
   3.530000     -1.6405626E-38
   3.540000     -1.7247222E-38
   3.550000     -1.8606929E-38
   3.560000     -2.0461916E-38
   3.570000     -2.3185572E-38
   3.580000     -2.6382445E-38
   3.590000     -2.8522337E-38
   3.600000     -3.0157538E-38
   3.610000     -3.0996478E-38
   3.620000     -3.1044868E-38
   3.630000     -3.1238917E-38
   3.640000     -3.1046378E-38
   3.650000     -2.9609386E-38
   3.660000     -2.7152100E-38
   3.670000     -2.4426507E-38
   3.680000     -2.2068642E-38
   3.690000     -2.0461218E-38
   3.700000     -1.9905775E-38
   3.710000     -2.0192059E-38
   3.720000     -2.0630509E-38
   3.730000     -2.1281580E-38
   3.740000     -2.2039510E-38
   3.750000     -2.3527700E-38
   3.760000     -2.3603592E-38
   3.770000     -2.1439609E-38
   3.780000     -1.9498565E-38
   3.790000     -1.7712420E-38
   3.800000     -1.5599850E-38
   3.810000     -1.2025796E-38
   3.820000      0.0000000E+00
   3.830000      0.0000000E+00
   3.840000      0.0000000E+00
   3.850000      1.9807833E-38
   3.860000      3.0478413E-38
   3.870000      4.1805876E-38
   3.880000      5.2742526E-38
   3.890000      6.2670428E-38
   3.900000      7.1287220E-38
   3.910000      7.8236164E-38
   3.920000      8.3294246E-38
   3.930000      8.7399288E-38
   3.940000      8.7833236E-38
   3.950000      8.4756304E-38
   3.960000      8.3103697E-38
   3.970000      8.3179861E-38
   3.980000      8.2664087E-38
   3.990000      8.3183560E-38
   4.000000      8.7153360E-38
   4.010000      9.2389940E-38
   4.020000      9.8062597E-38
   4.030000      1.0688560E-37
   4.040000      1.3622449E-37
   4.050000      1.8523151E-37
   4.060000      2.3563518E-37
   4.070000      2.8218414E-37
   4.080000      3.1124487E-37
   4.090000      3.0312521E-37
   4.100000      2.7052405E-37
   4.110000      2.4417067E-37
   4.120000      2.2298997E-37
   4.130000      1.9680416E-37
   4.140000      1.6211676E-37
   4.150000      1.2124815E-37
   4.160000      7.3425153E-38
   4.170000      1.3879793E-38
   4.180000     -7.4793498E-38
   4.190000     -1.8897106E-37
   4.200000     -3.0228662E-37
   4.210000     -4.1237770E-37
   4.220000     -5.0480134E-37
   4.230000     -5.6047217E-37
   4.240000     -5.8752256E-37
   4.250000     -5.9726740E-37
   4.260000     -5.9057121E-37
   4.270000     -5.7951790E-37
   4.280000     -5.7019973E-37
   4.290000     -5.0157109E-37
   4.300000     -3.8151765E-37
   4.310000     -2.5928932E-37
   4.320000     -1.7087281E-37
   4.330000     -1.3100304E-37
   4.340000     -1.0105912E-37
   4.350000     -7.0011848E-38
   4.360000     -3.3575862E-38
   4.370000     -2.2100481E-37
   4.380000     -7.1907162E-37
   4.390000     -1.3231165E-36
   4.400000     -1.9213272E-36
   4.410000     -2.4859555E-36
   4.420000     -3.0167695E-36
   4.430000     -3.3214962E-36
   4.440000     -3.5058735E-36
   4.450000     -3.7729207E-36
   4.460000     -4.0322534E-36
   4.470000     -4.1245646E-36
   4.480000     -3.9843278E-36
   4.490000     -3.7003223E-36
   4.500000     -3.2714358E-36
   4.510000     -2.7123863E-36
   4.520000     -2.1352045E-36
   4.530000     -1.6331587E-36
   4.540000     -1.1735235E-36
   4.550000     -9.8744862E-37
   4.560000     -1.0289805E-36
   4.570000     -1.1507763E-36
   4.580000     -1.3941745E-36
   4.590000     -1.8680940E-36
   4.600000     -2.6004399E-36
   4.610000     -3.4898644E-36
   4.620000     -4.3250745E-36
   4.630000     -4.9839188E-36
   4.640000     -5.6711228E-36
   4.650000     -6.2423521E-36
   4.660000     -6.1185937E-36
   4.670000     -5.1235170E-36
   4.680000     -3.5767791E-36
   4.690000     -1.6239947E-36
   4.700000      5.8867378E-37
   4.710000      2.8464862E-36
   4.720000      4.9538908E-36
   4.730000      6.5974434E-36
   4.740000      7.6906409E-36
   4.750000      8.2825394E-36
   4.760000      8.5502032E-36
   4.770000      8.6905681E-36
   4.780000      8.6427232E-36
   4.790000      8.5773198E-36
   4.800000      8.5110203E-36
   4.810000      8.4503910E-36
   4.820000      8.5153079E-36
   4.830000      9.4281047E-36
   4.840000      1.1448501E-35
   4.850000      1.4060461E-35
   4.860000      1.7259308E-35
   4.870000      2.1044808E-35
   4.880000      2.5205704E-35
   4.890000      2.9314766E-35
   4.900000      3.2479087E-35
   4.910000      3.4884600E-35
   4.920000      3.6062953E-35
   4.930000      3.5657054E-35
   4.940000      3.4735973E-35
   4.950000      3.3573674E-35
   4.960000      3.2681475E-35
   4.970000      3.2126430E-35
   4.980000      3.0652295E-35
   4.990000      2.8519413E-35
   5.000000      2.7126842E-35
   5.010000      2.6297554E-35
   5.020000      2.5754493E-35
   5.030000      2.6462456E-35
   5.040000      2.8282635E-35
   5.050000      3.0322798E-35
   5.060000      3.1707362E-35
   5.070000      3.0515773E-35
   5.080000      2.6538229E-35
   5.090000      2.1044654E-35
   5.100000      1.4641019E-35
   5.110000      7.8861810E-36
   5.120000      9.8503354E-37
   5.130000     -4.1860291E-36
   5.140000     -4.6356399E-36
   5.150000     -8.0707985E-37
   5.160000      5.1711086E-36
   5.170000      1.4373158E-35
   5.180000      1.9171785E-35
   5.190000      1.8801945E-35
   5.200000      1.6990979E-35
   5.210000      9.0990932E-36
   5.220000     -1.2900563E-36
   5.230000     -1.2958260E-35
   5.240000     -2.7459192E-35
   5.250000     -5.4243072E-35
   5.260000     -9.2921273E-35
   5.270000     -1.3280261E-34
   5.280000     -1.7361264E-34
   5.290000     -2.1338731E-34
   5.300000     -2.4669113E-34
   5.310000     -2.7548374E-34
   5.320000     -3.0237882E-34
   5.330000     -3.2082042E-34
   5.340000     -3.2570878E-34
   5.350000     -3.1883165E-34
   5.360000     -3.0428376E-34
   5.370000     -2.8148314E-34
   5.380000     -2.5454292E-34
   5.390000     -2.3733587E-34
   5.400000     -2.3790513E-34
   5.410000     -2.5640004E-34
   5.420000     -2.9174808E-34
   5.430000     -3.3790439E-34
   5.440000     -3.8936726E-34
   5.450000     -4.4210981E-34
   5.460000     -4.8549932E-34
   5.470000     -5.0425957E-34
   5.480000     -5.0812181E-34
   5.490000     -5.0999777E-34
   5.500000     -4.9646673E-34
   5.510000     -4.6278285E-34
   5.520000     -4.2033676E-34
   5.530000     -3.7742752E-34
   5.540000     -3.3845081E-34
   5.550000     -3.0701963E-34
   5.560000     -2.9232820E-34
   5.570000     -2.8844572E-34
   5.580000     -2.8455660E-34
   5.590000     -2.8549364E-34
   5.600000     -2.8871904E-34
   5.610000     -2.8772431E-34
   5.620000     -2.8259385E-34
   5.630000     -2.7009807E-34
   5.640000     -2.3926205E-34
   5.650000     -1.8568431E-34
   5.660000     -1.1157306E-34
   5.670000     -2.0393249E-35
   5.680000      8.7176917E-35
   5.690000      2.1052344E-34
   5.700000      3.4639920E-34
   5.710000      4.8962439E-34
   5.720000      6.3601279E-34
   5.730000      7.8142631E-34
   5.740000      9.2335871E-34
   5.750000      1.0613220E-33
   5.760000      1.1953486E-33
   5.770000      1.3280653E-33
   5.780000      1.4603184E-33
   5.790000      1.5929477E-33
   5.800000      1.7302634E-33
   5.810000      1.8760776E-33
   5.820000      2.0319562E-33
   5.830000      2.1987732E-33
   5.840000      2.3776886E-33
   5.850000      2.5660474E-33
   5.860000      2.7604084E-33
   5.870000      2.9598325E-33
   5.880000      3.1593214E-33
   5.890000      3.3555507E-33
   5.900000      3.5447917E-33
   5.910000      3.7262190E-33
   5.920000      3.8983639E-33
   5.930000      4.0582892E-33
   5.940000      4.2086210E-33
   5.950000      4.3508367E-33
   5.960000      4.4865875E-33
   5.970000      4.6179556E-33
   5.980000      4.7469981E-33
   5.990000      4.8762132E-33
   6.000000      5.0040405E-33
   6.010000      5.1270295E-33
   6.020000      5.2441114E-33
   6.030000      5.3435876E-33
   6.040000      5.4292525E-33
   6.050000      5.5051762E-33
   6.060000      5.5576701E-33
   6.070000      5.5812755E-33
   6.080000      5.5702684E-33
   6.090000      5.5191789E-33
   6.100000      5.4247841E-33
   6.110000      5.2845399E-33
   6.120000      5.0970111E-33
   6.130000      4.8617510E-33
   6.140000      4.5789957E-33
   6.150000      4.2492820E-33
   6.160000      3.8730897E-33
   6.170000      3.4501935E-33
   6.180000      2.9819474E-33
   6.190000      2.4643515E-33
   6.200000      1.8919971E-33
   6.210000      1.2636854E-33
   6.220000      5.7575888E-34
   6.230000     -1.7632009E-34
   6.240000     -9.9730667E-34
   6.250000     -1.8914867E-33
   6.260000     -2.8624232E-33
   6.270000     -3.9126634E-33
   6.280000     -5.0439750E-33
   6.290000     -6.2565488E-33
   6.300000     -7.5498167E-33
   6.310000     -8.9224062E-33
   6.320000     -1.0372020E-32
   6.330000     -1.1896582E-32
   6.340000     -1.3493849E-32
   6.350000     -1.5161921E-32
   6.360000     -1.6899321E-32
   6.370000     -1.8705180E-32
   6.380000     -2.0579164E-32
   6.390000     -2.2521146E-32
   6.400000     -2.4531029E-32
   6.410000     -2.6608461E-32
   6.420000     -2.8752442E-32
   6.430000     -3.0961031E-32
   6.440000     -3.3231028E-32
   6.450000     -3.5557708E-32
   6.460000     -3.7934754E-32
   6.470000     -4.0354268E-32
   6.480000     -4.2806879E-32
   6.490000     -4.5281920E-32
   6.500000     -4.7767765E-32
   6.510000     -5.0251819E-32
   6.520000     -5.2721027E-32
   6.530000     -5.5162353E-32
   6.540000     -5.7562395E-32
   6.550000     -5.9907377E-32
   6.560000     -6.2183357E-32
   6.570000     -6.4376148E-32
   6.580000     -6.6470879E-32
   6.590000     -6.8451634E-32
   6.600000     -7.0301398E-32
   6.610000     -7.2001774E-32
   6.620000     -7.3532779E-32
   6.630000     -7.4872883E-32
   6.640000     -7.5998766E-32
   6.650000     -7.6885412E-32
   6.660000     -7.7506473E-32
   6.670000     -7.7834489E-32
   6.680000     -7.7840966E-32
   6.690000     -7.7496816E-32
   6.700000     -7.6772835E-32
   6.710000     -7.5639717E-32
   6.720000     -7.4068216E-32
   6.730000     -7.2029298E-32
   6.740000     -6.9494080E-32
   6.750000     -6.6433692E-32
   6.760000     -6.2819541E-32
   6.770000     -5.8622914E-32
   6.780000     -5.3814596E-32
   6.790000     -4.8365207E-32
   6.800000     -4.2245039E-32
   6.810000     -3.5424104E-32
   6.820000     -2.7872299E-32
   6.830000     -1.9559675E-32
   6.840000     -1.0456710E-32
   6.850000     -5.3463357E-34
   6.860000      1.0234137E-32
   6.870000      2.1875543E-32
   6.880000      3.4413567E-32
   6.890000      4.7869889E-32
   6.900000      6.2263520E-32
   6.910000      7.7610627E-32
   6.920000      9.3924350E-32
   6.930000      1.1121470E-31
   6.940000      1.2948836E-31
   6.950000      1.4874864E-31
   6.960000      1.6899533E-31
   6.970000      1.9022460E-31
   6.980000      2.1242876E-31
   6.990000      2.3559594E-31
   7.000000      2.5970987E-31
   7.010000      2.8474931E-31
   7.020000      3.1068765E-31
   7.030000      3.3749242E-31
   7.040000      3.6512470E-31
   7.050000      3.9353868E-31
   7.060000      4.2268106E-31