  -2.600000      0.0000000E+00
  -2.590000      0.0000000E+00
  -2.580000      0.0000000E+00
  -2.570000      0.0000000E+00
  -2.560000      0.0000000E+00
  -2.550000      0.0000000E+00
  -2.540000      0.0000000E+00
  -2.530000      0.0000000E+00
  -2.520000      0.0000000E+00
  -2.510000      0.0000000E+00
  -2.500000      0.0000000E+00
  -2.490000      0.0000000E+00
  -2.480000      0.0000000E+00
  -2.470000      0.0000000E+00
  -2.460000      0.0000000E+00
  -2.450000      0.0000000E+00
  -2.440000      0.0000000E+00
  -2.430000      0.0000000E+00
  -2.420000      0.0000000E+00
  -2.410000      0.0000000E+00
  -2.400000      0.0000000E+00
  -2.390000      0.0000000E+00
  -2.380000      0.0000000E+00
  -2.370000      0.0000000E+00
  -2.360000      0.0000000E+00
  -2.350000      0.0000000E+00
  -2.340000      0.0000000E+00
  -2.330000      0.0000000E+00
  -2.320000      0.0000000E+00
  -2.310000      0.0000000E+00
  -2.300000      0.0000000E+00
  -2.290000      0.0000000E+00
  -2.280000      0.0000000E+00
  -2.270000      0.0000000E+00
  -2.260000      0.0000000E+00
  -2.250000      0.0000000E+00
  -2.240000      0.0000000E+00
  -2.230000      0.0000000E+00
  -2.220000      0.0000000E+00
  -2.210000      0.0000000E+00
  -2.200000      0.0000000E+00
  -2.190000      0.0000000E+00
  -2.180000      0.0000000E+00
  -2.170000      0.0000000E+00
  -2.160000      0.0000000E+00
  -2.150000      0.0000000E+00
  -2.140000      0.0000000E+00
  -2.130000      0.0000000E+00
  -2.120000      0.0000000E+00
  -2.110000      0.0000000E+00
  -2.100000      0.0000000E+00
  -2.090000      0.0000000E+00
  -2.080000      0.0000000E+00
  -2.070000      0.0000000E+00
  -2.060000      0.0000000E+00
  -2.050000      0.0000000E+00
  -2.040000      0.0000000E+00
  -2.030000      0.0000000E+00
  -2.020000      0.0000000E+00
  -2.010000      0.0000000E+00
  -2.000000      0.0000000E+00
  -1.990000      0.0000000E+00
  -1.980000      0.0000000E+00
  -1.970000      0.0000000E+00
  -1.960000      0.0000000E+00
  -1.950000      0.0000000E+00
  -1.940000      0.0000000E+00
  -1.930000      0.0000000E+00
  -1.920000      0.0000000E+00
  -1.910000      0.0000000E+00
  -1.900000      0.0000000E+00
  -1.890000      0.0000000E+00
  -1.880000      0.0000000E+00
  -1.870000      0.0000000E+00
  -1.860000      0.0000000E+00
  -1.850000      0.0000000E+00
  -1.840000      0.0000000E+00
  -1.830000      0.0000000E+00
  -1.820000      0.0000000E+00
  -1.810000      0.0000000E+00
  -1.800000      0.0000000E+00
  -1.790000      0.0000000E+00
  -1.780000      0.0000000E+00
  -1.770000      0.0000000E+00
  -1.760000      0.0000000E+00
  -1.750000      0.0000000E+00
  -1.740000      0.0000000E+00
  -1.730000      0.0000000E+00
  -1.720000      0.0000000E+00
  -1.710000      0.0000000E+00
  -1.700000      0.0000000E+00
  -1.690000      0.0000000E+00
  -1.680000      0.0000000E+00
  -1.670000      0.0000000E+00
  -1.660000      0.0000000E+00
  -1.650000      0.0000000E+00
  -1.640000      0.0000000E+00
  -1.630000      0.0000000E+00
  -1.620000      0.0000000E+00
  -1.610000      0.0000000E+00
  -1.600000      0.0000000E+00
  -1.590000      0.0000000E+00
  -1.580000      0.0000000E+00
  -1.570000      0.0000000E+00
  -1.560000      0.0000000E+00
  -1.550000      0.0000000E+00
  -1.540000      0.0000000E+00
  -1.530000      0.0000000E+00
  -1.520000      0.0000000E+00
  -1.510000      0.0000000E+00
  -1.500000      0.0000000E+00
  -1.490000      0.0000000E+00
  -1.480000      0.0000000E+00
  -1.470000      0.0000000E+00
  -1.460000      0.0000000E+00
  -1.450000      0.0000000E+00
  -1.440000      0.0000000E+00
  -1.430000      0.0000000E+00
  -1.420000      0.0000000E+00
  -1.410000      0.0000000E+00
  -1.400000      0.0000000E+00
  -1.390000      0.0000000E+00
  -1.380000      0.0000000E+00
  -1.370000      0.0000000E+00
  -1.360000      0.0000000E+00
  -1.350000      0.0000000E+00
  -1.340000      0.0000000E+00
  -1.330000      0.0000000E+00
  -1.320000      0.0000000E+00
  -1.310000      0.0000000E+00
  -1.300000      0.0000000E+00
  -1.290000      0.0000000E+00
  -1.280000      0.0000000E+00
  -1.270000      0.0000000E+00
  -1.260000      0.0000000E+00
  -1.250000      0.0000000E+00
  -1.240000      0.0000000E+00
  -1.230000      0.0000000E+00
  -1.220000      0.0000000E+00
  -1.210000      0.0000000E+00
  -1.200000      0.0000000E+00
  -1.190000      0.0000000E+00
  -1.180000      0.0000000E+00
  -1.170000      0.0000000E+00
  -1.160000      0.0000000E+00
  -1.150000      0.0000000E+00
  -1.140000      0.0000000E+00
  -1.130000      0.0000000E+00
  -1.120000      0.0000000E+00
  -1.110000      0.0000000E+00
  -1.100000      0.0000000E+00
  -1.090000      0.0000000E+00
  -1.080000      0.0000000E+00
  -1.070000      0.0000000E+00
  -1.060000      0.0000000E+00
  -1.050000      0.0000000E+00
  -1.040000      0.0000000E+00
  -1.030000      0.0000000E+00
  -1.020000      0.0000000E+00
  -1.010000      0.0000000E+00
  -1.000000      0.0000000E+00
 -0.9900000      0.0000000E+00
 -0.9800000      0.0000000E+00
 -0.9700000      0.0000000E+00
 -0.9600000      0.0000000E+00
 -0.9500000      0.0000000E+00
 -0.9400000      0.0000000E+00
 -0.9300000      0.0000000E+00
 -0.9200000      0.0000000E+00
 -0.9100000      0.0000000E+00
 -0.9000000      0.0000000E+00
 -0.8900000      0.0000000E+00
 -0.8800000      0.0000000E+00
 -0.8700000      0.0000000E+00
 -0.8600000      0.0000000E+00
 -0.8500000      0.0000000E+00
 -0.8400000      0.0000000E+00
 -0.8300000      0.0000000E+00
 -0.8200000      0.0000000E+00
 -0.8100000      0.0000000E+00
 -0.8000000      0.0000000E+00
 -0.7900000      0.0000000E+00
 -0.7800000      0.0000000E+00
 -0.7700000      0.0000000E+00
 -0.7600000      0.0000000E+00
 -0.7500000      0.0000000E+00
 -0.7400000      0.0000000E+00
 -0.7300000      0.0000000E+00
 -0.7200000      0.0000000E+00
 -0.7100000      0.0000000E+00
 -0.7000000      0.0000000E+00
 -0.6900000      0.0000000E+00
 -0.6800000      0.0000000E+00
 -0.6700000      0.0000000E+00
 -0.6600000      0.0000000E+00
 -0.6500000      0.0000000E+00
 -0.6400000      0.0000000E+00
 -0.6300000      0.0000000E+00
 -0.6200000      0.0000000E+00
 -0.6100000      0.0000000E+00
 -0.6000000      0.0000000E+00
 -0.5900000      0.0000000E+00
 -0.5800000      0.0000000E+00
 -0.5700000      0.0000000E+00
 -0.5600000      0.0000000E+00
 -0.5500000      0.0000000E+00
 -0.5400000      0.0000000E+00
 -0.5300000      0.0000000E+00
 -0.5200000      0.0000000E+00
 -0.5100000      0.0000000E+00
 -0.5000000      0.0000000E+00
 -0.4900000      0.0000000E+00
 -0.4800000      0.0000000E+00
 -0.4700000      0.0000000E+00
 -0.4600000      0.0000000E+00
 -0.4500000      0.0000000E+00
 -0.4400000      0.0000000E+00
 -0.4300000      0.0000000E+00
 -0.4200000      0.0000000E+00
 -0.4100000      0.0000000E+00
 -0.4000000      0.0000000E+00
 -0.3900000      0.0000000E+00
 -0.3800000      0.0000000E+00
 -0.3700000      0.0000000E+00
 -0.3600000      0.0000000E+00
 -0.3500000      0.0000000E+00
 -0.3400000      0.0000000E+00
 -0.3300000      0.0000000E+00
 -0.3200000      0.0000000E+00
 -0.3100000      0.0000000E+00
 -0.3000000      0.0000000E+00
 -0.2900000      0.0000000E+00
 -0.2800000      0.0000000E+00
 -0.2700000      0.0000000E+00
 -0.2600000      0.0000000E+00
 -0.2500000      0.0000000E+00
 -0.2400000      0.0000000E+00
 -0.2300000      0.0000000E+00
 -0.2200000      0.0000000E+00
 -0.2100000      0.0000000E+00
 -0.2000000      0.0000000E+00
 -0.1900000      0.0000000E+00
 -0.1800000      0.0000000E+00
 -0.1700000      0.0000000E+00
 -0.1600000      0.0000000E+00
 -0.1500000      0.0000000E+00
 -0.1400000      0.0000000E+00
 -0.1300000      0.0000000E+00
 -0.1200000      0.0000000E+00
 -0.1100000      0.0000000E+00
 -0.1000000      0.0000000E+00
 -9.0000004E-02  0.0000000E+00
 -7.9999998E-02  0.0000000E+00
 -7.0000000E-02  0.0000000E+00
 -5.9999999E-02  0.0000000E+00
 -5.0000001E-02  0.0000000E+00
 -3.9999999E-02  0.0000000E+00
 -2.9999999E-02  0.0000000E+00
 -2.0000000E-02  0.0000000E+00
 -9.9999998E-03  0.0000000E+00
 -3.4694470E-17  0.0000000E+00
  9.9999998E-03  0.0000000E+00
  2.0000000E-02  0.0000000E+00
  2.9999999E-02  0.0000000E+00
  3.9999999E-02  0.0000000E+00
  5.0000001E-02  0.0000000E+00
  5.9999999E-02  0.0000000E+00
  7.0000000E-02  0.0000000E+00
  7.9999998E-02  0.0000000E+00
  9.0000004E-02  0.0000000E+00
  0.1000000      0.0000000E+00
  0.1100000      0.0000000E+00
  0.1200000      0.0000000E+00
  0.1300000      0.0000000E+00
  0.1400000      0.0000000E+00
  0.1500000      0.0000000E+00
  0.1600000      0.0000000E+00
  0.1700000      0.0000000E+00
  0.1800000      0.0000000E+00
  0.1900000      0.0000000E+00
  0.2000000      0.0000000E+00
  0.2100000      0.0000000E+00
  0.2200000      0.0000000E+00
  0.2300000      0.0000000E+00
  0.2400000      0.0000000E+00
  0.2500000      0.0000000E+00
  0.2600000      0.0000000E+00
  0.2700000      0.0000000E+00
  0.2800000      0.0000000E+00
  0.2900000      0.0000000E+00
  0.3000000      0.0000000E+00
  0.3100000      0.0000000E+00
  0.3200000      0.0000000E+00
  0.3300000      0.0000000E+00
  0.3400000      0.0000000E+00
  0.3500000      0.0000000E+00
  0.3600000      0.0000000E+00
  0.3700000      0.0000000E+00
  0.3800000      0.0000000E+00
  0.3900000      0.0000000E+00
  0.4000000      0.0000000E+00
  0.4100000      0.0000000E+00
  0.4200000      0.0000000E+00
  0.4300000      0.0000000E+00
  0.4400000      0.0000000E+00
  0.4500000      0.0000000E+00
  0.4600000      0.0000000E+00
  0.4700000      0.0000000E+00
  0.4800000      0.0000000E+00
  0.4900000      0.0000000E+00
  0.5000000      0.0000000E+00
  0.5100000      0.0000000E+00
  0.5200000      0.0000000E+00
  0.5300000      0.0000000E+00
  0.5400000      0.0000000E+00
  0.5500000      0.0000000E+00
  0.5600000      0.0000000E+00
  0.5700000      0.0000000E+00
  0.5800000      0.0000000E+00
  0.5900000      0.0000000E+00
  0.6000000      0.0000000E+00
  0.6100000      0.0000000E+00
  0.6200000      0.0000000E+00
  0.6300000      0.0000000E+00
  0.6400000      0.0000000E+00
  0.6500000      0.0000000E+00
  0.6600000      0.0000000E+00
  0.6700000      0.0000000E+00
  0.6800000      0.0000000E+00
  0.6900000      0.0000000E+00
  0.7000000      0.0000000E+00
  0.7100000      0.0000000E+00
  0.7200000      0.0000000E+00
  0.7300000      0.0000000E+00
  0.7400000      0.0000000E+00
  0.7500000      0.0000000E+00
  0.7600000      0.0000000E+00
  0.7700000      0.0000000E+00
  0.7800000      0.0000000E+00
  0.7900000      0.0000000E+00
  0.8000000      0.0000000E+00
  0.8100000      0.0000000E+00
  0.8200000      0.0000000E+00
  0.8300000      0.0000000E+00
  0.8400000      0.0000000E+00
  0.8500000      0.0000000E+00
  0.8600000      0.0000000E+00
  0.8700000      0.0000000E+00
  0.8800000      0.0000000E+00
  0.8900000      0.0000000E+00
  0.9000000      0.0000000E+00
  0.9100000      0.0000000E+00
  0.9200000      0.0000000E+00
  0.9300000      0.0000000E+00
  0.9400000      0.0000000E+00
  0.9500000      0.0000000E+00
  0.9600000      0.0000000E+00
  0.9700000      0.0000000E+00
  0.9800000      0.0000000E+00
  0.9900000      0.0000000E+00
   1.000000      0.0000000E+00
   1.010000      0.0000000E+00
   1.020000      0.0000000E+00
   1.030000      0.0000000E+00
   1.040000      0.0000000E+00
   1.050000      0.0000000E+00
   1.060000      0.0000000E+00
   1.070000      0.0000000E+00
   1.080000      0.0000000E+00
   1.090000      0.0000000E+00
   1.100000      0.0000000E+00
   1.110000      0.0000000E+00
   1.120000      0.0000000E+00
   1.130000      0.0000000E+00
   1.140000      0.0000000E+00
   1.150000      0.0000000E+00
   1.160000      0.0000000E+00
   1.170000      0.0000000E+00
   1.180000      0.0000000E+00
   1.190000      0.0000000E+00
   1.200000      0.0000000E+00
   1.210000      0.0000000E+00
   1.220000      0.0000000E+00
   1.230000      0.0000000E+00
   1.240000      0.0000000E+00
   1.250000      0.0000000E+00
   1.260000      0.0000000E+00
   1.270000      0.0000000E+00
   1.280000      0.0000000E+00
   1.290000      0.0000000E+00
   1.300000      0.0000000E+00
   1.310000      0.0000000E+00
   1.320000      0.0000000E+00
   1.330000      0.0000000E+00
   1.340000      0.0000000E+00
   1.350000      0.0000000E+00
   1.360000      0.0000000E+00
   1.370000      0.0000000E+00
   1.380000      0.0000000E+00
   1.390000      0.0000000E+00
   1.400000      0.0000000E+00
   1.410000      0.0000000E+00
   1.420000      0.0000000E+00
   1.430000      0.0000000E+00
   1.440000      0.0000000E+00
   1.450000      0.0000000E+00
   1.460000      0.0000000E+00
   1.470000      0.0000000E+00
   1.480000      0.0000000E+00
   1.490000      0.0000000E+00
   1.500000      0.0000000E+00
   1.510000      0.0000000E+00
   1.520000      0.0000000E+00
   1.530000      0.0000000E+00
   1.540000      0.0000000E+00
   1.550000      0.0000000E+00
   1.560000      0.0000000E+00
   1.570000      0.0000000E+00
   1.580000      0.0000000E+00
   1.590000      0.0000000E+00
   1.600000      0.0000000E+00
   1.610000      0.0000000E+00
   1.620000      0.0000000E+00
   1.630000      0.0000000E+00
   1.640000      0.0000000E+00
   1.650000      0.0000000E+00
   1.660000      0.0000000E+00
   1.670000      0.0000000E+00
   1.680000      0.0000000E+00
   1.690000      0.0000000E+00
   1.700000      0.0000000E+00
   1.710000      0.0000000E+00
   1.720000      0.0000000E+00
   1.730000      0.0000000E+00
   1.740000      0.0000000E+00
   1.750000      0.0000000E+00
   1.760000      0.0000000E+00
   1.770000      0.0000000E+00
   1.780000      0.0000000E+00
   1.790000      0.0000000E+00
   1.800000      0.0000000E+00
   1.810000      0.0000000E+00
   1.820000      0.0000000E+00
   1.830000      0.0000000E+00
   1.840000      0.0000000E+00
   1.850000      0.0000000E+00
   1.860000      0.0000000E+00
   1.870000      0.0000000E+00
   1.880000      0.0000000E+00
   1.890000      0.0000000E+00
   1.900000      0.0000000E+00
   1.910000      0.0000000E+00
   1.920000      0.0000000E+00
   1.930000      0.0000000E+00
   1.940000      0.0000000E+00
   1.950000      0.0000000E+00
   1.960000      0.0000000E+00
   1.970000      0.0000000E+00
   1.980000      0.0000000E+00
   1.990000      0.0000000E+00
   2.000000      0.0000000E+00
   2.010000      0.0000000E+00
   2.020000      0.0000000E+00
   2.030000      0.0000000E+00
   2.040000      0.0000000E+00
   2.050000      0.0000000E+00
   2.060000      0.0000000E+00
   2.070000      0.0000000E+00
   2.080000      0.0000000E+00
   2.090000      0.0000000E+00
   2.100000      0.0000000E+00
   2.110000      0.0000000E+00
   2.120000      0.0000000E+00
   2.130000      0.0000000E+00
   2.140000      0.0000000E+00
   2.150000      0.0000000E+00
   2.160000      0.0000000E+00
   2.170000      0.0000000E+00
   2.180000      0.0000000E+00
   2.190000      0.0000000E+00
   2.200000      0.0000000E+00
   2.210000      0.0000000E+00
   2.220000      0.0000000E+00
   2.230000      0.0000000E+00
   2.240000      0.0000000E+00
   2.250000      0.0000000E+00
   2.260000      0.0000000E+00
   2.270000      0.0000000E+00
   2.280000      0.0000000E+00
   2.290000      0.0000000E+00
   2.300000      0.0000000E+00
   2.310000      0.0000000E+00
   2.320000      0.0000000E+00
   2.330000      0.0000000E+00
   2.340000      0.0000000E+00
   2.350000      0.0000000E+00
   2.360000      0.0000000E+00
   2.370000      0.0000000E+00
   2.380000      0.0000000E+00
   2.390000      0.0000000E+00
   2.400000      0.0000000E+00
   2.410000      0.0000000E+00
   2.420000      0.0000000E+00
   2.430000      0.0000000E+00
   2.440000      0.0000000E+00
   2.450000      0.0000000E+00
   2.460000      0.0000000E+00
   2.470000      0.0000000E+00
   2.480000      0.0000000E+00
   2.490000      0.0000000E+00
   2.500000      0.0000000E+00
   2.510000      0.0000000E+00
   2.520000      0.0000000E+00
   2.530000      0.0000000E+00
   2.540000      0.0000000E+00
   2.550000      0.0000000E+00
   2.560000      0.0000000E+00
   2.570000      0.0000000E+00
   2.580000      0.0000000E+00
   2.590000      0.0000000E+00
   2.600000      0.0000000E+00
   2.610000      0.0000000E+00
   2.620000      0.0000000E+00
   2.630000      0.0000000E+00
   2.640000      0.0000000E+00
   2.650000      0.0000000E+00
   2.660000      0.0000000E+00
   2.670000      0.0000000E+00
   2.680000      0.0000000E+00
   2.690000      0.0000000E+00
   2.700000      0.0000000E+00
   2.710000      0.0000000E+00
   2.720000      0.0000000E+00
   2.730000      0.0000000E+00
   2.740000      0.0000000E+00
   2.750000      0.0000000E+00
   2.760000      0.0000000E+00
   2.770000      0.0000000E+00
   2.780000      0.0000000E+00
   2.790000      0.0000000E+00
   2.800000      0.0000000E+00
   2.810000      0.0000000E+00
   2.820000      0.0000000E+00
   2.830000      0.0000000E+00
   2.840000      0.0000000E+00
   2.850000      0.0000000E+00
   2.860000      0.0000000E+00
   2.870000      0.0000000E+00
   2.880000      0.0000000E+00
   2.890000      0.0000000E+00
   2.900000      0.0000000E+00
   2.910000      0.0000000E+00
   2.920000      0.0000000E+00
   2.930000      1.2663076E-38
   2.940000      1.3894666E-38
   2.950000      1.5101417E-38
   2.960000      1.6367707E-38
   2.970000      1.7846061E-38
   2.980000      1.9854049E-38
   2.990000      2.2349494E-38
   3.000000      2.5054059E-38
   3.010000      2.7883979E-38
   3.020000      3.0455868E-38
   3.030000      3.2724176E-38
   3.040000      3.4887685E-38
   3.050000      3.6394501E-38
   3.060000      3.7163660E-38
   3.070000      3.7656600E-38
   3.080000      3.7728835E-38
   3.090000      3.7428189E-38
   3.100000      3.7215155E-38
   3.110000      3.7095557E-38
   3.120000      3.6785735E-38
   3.130000      3.6315860E-38
   3.140000      3.5339637E-38
   3.150000      3.3505270E-38
   3.160000      3.1174283E-38
   3.170000      2.8435964E-38
   3.180000      2.4945739E-38
   3.190000      2.0984976E-38
   3.200000      1.6785783E-38
   3.210000      1.2256009E-38
   3.220000      0.0000000E+00
   3.230000      0.0000000E+00
   3.240000      0.0000000E+00
   3.250000      0.0000000E+00
   3.260000     -1.8372037E-38
   3.270000     -2.5448051E-38
   3.280000     -3.2829430E-38
   3.290000     -3.9881369E-38
   3.300000     -4.6624773E-38
   3.310000     -5.4095816E-38
   3.320000     -6.3154526E-38
   3.330000     -7.3137780E-38
   3.340000     -8.3294935E-38
   3.350000     -9.3284243E-38
   3.360000     -1.0295574E-37
   3.370000     -1.1091836E-37
   3.380000     -1.1937140E-37
   3.390000     -1.3019687E-37
   3.400000     -1.4137976E-37
   3.410000     -1.5153651E-37
   3.420000     -1.6024568E-37
   3.430000     -1.6847147E-37
   3.440000     -1.7558181E-37
   3.450000     -1.8144497E-37
   3.460000     -1.8415699E-37
   3.470000     -1.8273842E-37
   3.480000     -1.6827069E-37
   3.490000     -1.4057540E-37
   3.500000     -9.9666064E-38
   3.510000     -4.6059358E-38
   3.520000      0.0000000E+00
   3.530000      7.7113303E-38
   3.540000      1.5218340E-37
   3.550000      2.3390402E-37
   3.560000      3.2297636E-37
   3.570000      4.2126162E-37
   3.580000      5.0991946E-37
   3.590000      5.7811889E-37
   3.600000      6.2565636E-37
   3.610000      6.5071462E-37
   3.620000      6.6840322E-37
   3.630000      6.8669660E-37
   3.640000      7.0057314E-37
   3.650000      7.1107749E-37
   3.660000      7.3022753E-37
   3.670000      7.5850237E-37
   3.680000      7.7794055E-37
   3.690000      7.9702861E-37
   3.700000      8.2128054E-37
   3.710000      8.4101037E-37
   3.720000      8.6867815E-37
   3.730000      9.0476815E-37
   3.740000      9.3692017E-37
   3.750000      9.3979891E-37
   3.760000      8.9742203E-37
   3.770000      8.2351948E-37
   3.780000      7.3427443E-37
   3.790000      6.4126171E-37
   3.800000      5.4126613E-37
   3.810000      4.2425573E-37
   3.820000      2.9716774E-37
   3.830000      1.7397202E-37
   3.840000      5.1823890E-38
   3.850000     -9.8219083E-38
   3.860000     -2.6934636E-37
   3.870000     -4.3304629E-37
   3.880000     -5.9241428E-37
   3.890000     -7.5277287E-37
   3.900000     -9.1618642E-37
   3.910000     -1.0879635E-36
   3.920000     -1.2733662E-36
   3.930000     -1.4799997E-36
   3.940000     -1.7097319E-36
   3.950000     -1.9710122E-36
   3.960000     -2.2795462E-36
   3.970000     -2.5727418E-36
   3.980000     -2.8154516E-36
   3.990000     -3.0562577E-36
   4.000000     -3.3329290E-36
   4.010000     -3.6429807E-36
   4.020000     -3.9836089E-36
   4.030000     -4.4512159E-36
   4.040000     -5.0193135E-36
   4.050000     -5.4537299E-36
   4.060000     -5.7043141E-36
   4.070000     -5.7371127E-36
   4.080000     -5.3297078E-36
   4.090000     -4.6150555E-36
   4.100000     -3.9668590E-36
   4.110000     -3.4152373E-36
   4.120000     -2.6749764E-36
   4.130000     -1.8417892E-36
   4.140000     -1.4152755E-36
   4.150000     -1.3652230E-36
   4.160000     -1.5231496E-36
   4.170000     -1.7871892E-36
   4.180000     -1.9986258E-36
   4.190000     -2.3866404E-36
   4.200000     -2.9981855E-36
   4.210000     -3.5039956E-36
   4.220000     -3.8807159E-36
   4.230000     -4.2326284E-36
   4.240000     -4.2787951E-36
   4.250000     -3.7408088E-36
   4.260000     -2.6833067E-36
   4.270000     -1.4543795E-36
   4.280000     -1.8825642E-37
   4.290000      1.2448471E-36
   4.300000      2.9275877E-36
   4.310000      4.9115435E-36
   4.320000      7.0262169E-36
   4.330000      9.3540221E-36
   4.340000      1.1929848E-35
   4.350000      1.4444448E-35
   4.360000      1.6705840E-35
   4.370000      1.8510000E-35
   4.380000      2.0057996E-35
   4.390000      2.1580498E-35
   4.400000      2.3003182E-35
   4.410000      2.4147228E-35
   4.420000      2.5040604E-35
   4.430000      2.5819802E-35
   4.440000      2.6449082E-35
   4.450000      2.6990564E-35
   4.460000      2.7455826E-35
   4.470000      2.7623690E-35
   4.480000      2.7768250E-35
   4.490000      2.7988960E-35
   4.500000      2.8042477E-35
   4.510000      2.7860132E-35
   4.520000      2.7727513E-35
   4.530000      2.7790962E-35
   4.540000      2.6961076E-35
   4.550000      2.5184019E-35
   4.560000      2.3395766E-35
   4.570000      2.1646444E-35
   4.580000      1.9861722E-35
   4.590000      1.8522816E-35
   4.600000      1.7498849E-35
   4.610000      1.6057999E-35
   4.620000      1.3885985E-35
   4.630000      1.1423433E-35
   4.640000      9.2660516E-36
   4.650000      7.1496947E-36
   4.660000      4.7471906E-36
   4.670000      2.0485002E-36
   4.680000     -1.1073106E-36
   4.690000     -4.5167492E-36
   4.700000     -8.2792885E-36
   4.710000     -1.2118827E-35
   4.720000     -1.6079332E-35
   4.730000     -2.0828883E-35
   4.740000     -2.6370230E-35
   4.750000     -3.2913704E-35
   4.760000     -4.0962359E-35
   4.770000     -5.0270906E-35
   4.780000     -6.0515672E-35
   4.790000     -7.1570416E-35
   4.800000     -8.3059472E-35
   4.810000     -9.4809531E-35
   4.820000     -1.0676748E-34
   4.830000     -1.1671477E-34
   4.840000     -1.2417858E-34
   4.850000     -1.3084980E-34
   4.860000     -1.3721870E-34
   4.870000     -1.4339074E-34
   4.880000     -1.4903487E-34
   4.890000     -1.5425477E-34
   4.900000     -1.5882837E-34
   4.910000     -1.6330857E-34
   4.920000     -1.6750389E-34
   4.930000     -1.7328494E-34
   4.940000     -1.8115973E-34
   4.950000     -1.8906481E-34
   4.960000     -1.9733329E-34
   4.970000     -2.0711799E-34
   4.980000     -2.1723645E-34
   4.990000     -2.2546227E-34
   5.000000     -2.3240111E-34
   5.010000     -2.3702624E-34
   5.020000     -2.3894269E-34
   5.030000     -2.3919159E-34
   5.040000     -2.3798838E-34
   5.050000     -2.3386729E-34
   5.060000     -2.2575211E-34
   5.070000     -2.1546823E-34
   5.080000     -2.0403420E-34
   5.090000     -1.8988230E-34
   5.100000     -1.7192012E-34
   5.110000     -1.5103018E-34
   5.120000     -1.2719171E-34
   5.130000     -1.0333936E-34
   5.140000     -8.1092132E-35
   5.150000     -5.7431491E-35
   5.160000     -2.9544205E-35
   5.170000      9.9581354E-37
   5.180000      3.1417184E-35
   5.190000      6.2937821E-35
   5.200000      9.6085132E-35
   5.210000      1.3272037E-34
   5.220000      1.7008150E-34
   5.230000      2.0500527E-34
   5.240000      2.3871395E-34
   5.250000      2.7398679E-34
   5.260000      3.1331271E-34
   5.270000      3.5271204E-34
   5.280000      3.9625097E-34
   5.290000      4.4629939E-34
   5.300000      5.0231491E-34
   5.310000      5.6525735E-34
   5.320000      6.3147786E-34
   5.330000      7.0012627E-34
   5.340000      7.7131678E-34
   5.350000      8.4529303E-34
   5.360000      9.2215034E-34
   5.370000      1.0057314E-33
   5.380000      1.0973488E-33
   5.390000      1.1933295E-33
   5.400000      1.2924379E-33
   5.410000      1.3944658E-33
   5.420000      1.5001776E-33
   5.430000      1.6059639E-33
   5.440000      1.7080008E-33
   5.450000      1.8082301E-33
   5.460000      1.9078354E-33
   5.470000      2.0057315E-33
   5.480000      2.0988999E-33
   5.490000      2.1859267E-33
   5.500000      2.2692138E-33
   5.510000      2.3498127E-33
   5.520000      2.4265656E-33
   5.530000      2.4985507E-33
   5.540000      2.5643542E-33
   5.550000      2.6225029E-33
   5.560000      2.6725713E-33
   5.570000      2.7144699E-33
   5.580000      2.7462907E-33
   5.590000      2.7708793E-33
   5.600000      2.7876883E-33
   5.610000      2.7932418E-33
   5.620000      2.7896588E-33
   5.630000      2.7768235E-33
   5.640000      2.7506650E-33
   5.650000      2.7130498E-33
   5.660000      2.6629067E-33
   5.670000      2.5938025E-33
   5.680000      2.5049311E-33
   5.690000      2.3965648E-33
   5.700000      2.2695600E-33
   5.710000      2.1192563E-33
   5.720000      1.9431941E-33
   5.730000      1.7422268E-33
   5.740000      1.5150353E-33
   5.750000      1.2579980E-33
   5.760000      9.6913365E-34
   5.770000      6.4943083E-34
   5.780000      2.9706783E-34
   5.790000     -8.9443193E-35
   5.800000     -5.1161041E-34
   5.810000     -9.7022007E-34
   5.820000     -1.4658046E-33
   5.830000     -2.0012272E-33
   5.840000     -2.5754249E-33
   5.850000     -3.1862711E-33
   5.860000     -3.8358680E-33
   5.870000     -4.5251111E-33
   5.880000     -5.2533643E-33
   5.890000     -6.0217009E-33
   5.900000     -6.8299278E-33
   5.910000     -7.6755145E-33
   5.920000     -8.5577708E-33
   5.930000     -9.4755586E-33
   5.940000     -1.0427625E-32
   5.950000     -1.1411334E-32
   5.960000     -1.2426956E-32
   5.970000     -1.3476542E-32
   5.980000     -1.4555629E-32
   5.990000     -1.5661105E-32
   6.000000     -1.6792987E-32
   6.010000     -1.7949142E-32
   6.020000     -1.9126264E-32
   6.030000     -2.0322077E-32
   6.040000     -2.1534041E-32
   6.050000     -2.2758361E-32
   6.060000     -2.3991037E-32
   6.070000     -2.5227669E-32
   6.080000     -2.6463181E-32
   6.090000     -2.7692061E-32
   6.100000     -2.8908727E-32
   6.110000     -3.0106976E-32
   6.120000     -3.1279464E-32
   6.130000     -3.2418441E-32
   6.140000     -3.3515839E-32
   6.150000     -3.4563240E-32
   6.160000     -3.5551719E-32
   6.170000     -3.6471314E-32
   6.180000     -3.7312030E-32
   6.190000     -3.8063418E-32
   6.200000     -3.8714375E-32
   6.210000     -3.9253400E-32
   6.220000     -3.9668538E-32
   6.230000     -3.9947589E-32
   6.240000     -4.0077960E-32
   6.250000     -4.0046624E-32
   6.260000     -3.9840351E-32
   6.270000     -3.9445799E-32
   6.280000     -3.8849268E-32
   6.290000     -3.8036852E-32
   6.300000     -3.6994653E-32
   6.310000     -3.5708647E-32
   6.320000     -3.4164727E-32
   6.330000     -3.2348585E-32
   6.340000     -3.0246284E-32
   6.350000     -2.7843832E-32
   6.360000     -2.5126959E-32
   6.370000     -2.2081926E-32
   6.380000     -1.8695321E-32
   6.390000     -1.4953259E-32
   6.400000     -1.0841991E-32
   6.410000     -6.3486275E-33
   6.420000     -1.4606741E-33
   6.430000      3.8323830E-33
   6.440000      9.5437615E-33
   6.450000      1.5685982E-32
   6.460000      2.2267475E-32
   6.470000      2.9297292E-32
   6.480000      3.6783419E-32
   6.490000      4.4732641E-32
   6.500000      5.3150289E-32
   6.510000      6.2040347E-32
   6.520000      7.1405163E-32
   6.530000      8.1245121E-32
   6.540000      9.1558714E-32
   6.550000      1.0234244E-31
   6.560000      1.1359050E-31
   6.570000      1.2529427E-31
   6.580000      1.3744354E-31
   6.590000      1.5002541E-31
   6.600000      1.6302321E-31
   6.610000      1.7641773E-31
   6.620000      1.9018670E-31
   6.630000      2.0430452E-31
   6.640000      2.1874212E-31
   6.650000      2.3346705E-31
   6.660000      2.4844304E-31
   6.670000      2.6363002E-31
   6.680000      2.7898424E-31
   6.690000      2.9445764E-31
   6.700000      3.0999820E-31
   6.710000      3.2554975E-31
   6.720000      3.4105184E-31
   6.730000      3.5643974E-31
   6.740000      3.7164427E-31
   6.750000      3.8659157E-31
   6.760000      4.0120342E-31
   6.770000      4.1539713E-31
   6.780000      4.2908525E-31
   6.790000      4.4217579E-31
   6.800000      4.5457194E-31
   6.810000      4.6617238E-31
   6.820000      4.7687112E-31
   6.830000      4.8655738E-31
   6.840000      4.9511610E-31
   6.850000      5.0242763E-31
   6.860000      5.0836806E-31
   6.870000      5.1280927E-31
   6.880000      5.1561912E-31
   6.890000      5.1666169E-31
   6.900000      5.1579752E-31
   6.910000      5.1288384E-31
   6.920000      5.0777505E-31
   6.930000      5.0032279E-31
   6.940000      4.9037656E-31
   6.950000      4.7778410E-31
   6.960000      4.6239166E-31
   6.970000      4.4404468E-31
   6.980000      4.2258815E-31
   6.990000      3.9786741E-31
   7.000000      3.6972864E-31
   7.010000      3.3801944E-31
   7.020000      3.0258976E-31
   7.030000      2.6329228E-31
   7.040000      2.1998333E-31
   7.050000      1.7252399E-31
   7.060000      1.2078056E-31