  -2.600000      0.0000000E+00
  -2.590000      0.0000000E+00
  -2.580000      0.0000000E+00
  -2.570000      0.0000000E+00
  -2.560000      0.0000000E+00
  -2.550000      0.0000000E+00
  -2.540000      0.0000000E+00
  -2.530000      0.0000000E+00
  -2.520000      0.0000000E+00
  -2.510000      0.0000000E+00
  -2.500000      0.0000000E+00
  -2.490000      0.0000000E+00
  -2.480000      0.0000000E+00
  -2.470000      0.0000000E+00
  -2.460000      0.0000000E+00
  -2.450000      0.0000000E+00
  -2.440000      0.0000000E+00
  -2.430000      0.0000000E+00
  -2.420000      0.0000000E+00
  -2.410000      0.0000000E+00
  -2.400000      0.0000000E+00
  -2.390000      0.0000000E+00
  -2.380000      0.0000000E+00
  -2.370000      0.0000000E+00
  -2.360000      0.0000000E+00
  -2.350000      0.0000000E+00
  -2.340000      0.0000000E+00
  -2.330000      0.0000000E+00
  -2.320000      0.0000000E+00
  -2.310000      0.0000000E+00
  -2.300000      0.0000000E+00
  -2.290000      0.0000000E+00
  -2.280000      0.0000000E+00
  -2.270000      0.0000000E+00
  -2.260000      0.0000000E+00
  -2.250000      0.0000000E+00
  -2.240000      0.0000000E+00
  -2.230000      0.0000000E+00
  -2.220000      0.0000000E+00
  -2.210000      0.0000000E+00
  -2.200000      0.0000000E+00
  -2.190000      0.0000000E+00
  -2.180000      0.0000000E+00
  -2.170000      0.0000000E+00
  -2.160000      0.0000000E+00
  -2.150000      0.0000000E+00
  -2.140000      0.0000000E+00
  -2.130000      0.0000000E+00
  -2.120000      0.0000000E+00
  -2.110000      0.0000000E+00
  -2.100000      0.0000000E+00
  -2.090000      0.0000000E+00
  -2.080000      0.0000000E+00
  -2.070000      0.0000000E+00
  -2.060000      0.0000000E+00
  -2.050000      0.0000000E+00
  -2.040000      0.0000000E+00
  -2.030000      0.0000000E+00
  -2.020000      0.0000000E+00
  -2.010000      0.0000000E+00
  -2.000000      0.0000000E+00
  -1.990000      0.0000000E+00
  -1.980000      0.0000000E+00
  -1.970000      0.0000000E+00
  -1.960000      0.0000000E+00
  -1.950000      0.0000000E+00
  -1.940000      0.0000000E+00
  -1.930000      0.0000000E+00
  -1.920000      0.0000000E+00
  -1.910000      0.0000000E+00
  -1.900000      0.0000000E+00
  -1.890000      0.0000000E+00
  -1.880000      0.0000000E+00
  -1.870000      0.0000000E+00
  -1.860000      0.0000000E+00
  -1.850000      0.0000000E+00
  -1.840000      0.0000000E+00
  -1.830000      0.0000000E+00
  -1.820000      0.0000000E+00
  -1.810000      0.0000000E+00
  -1.800000      0.0000000E+00
  -1.790000      0.0000000E+00
  -1.780000      0.0000000E+00
  -1.770000      0.0000000E+00
  -1.760000      0.0000000E+00
  -1.750000      0.0000000E+00
  -1.740000      0.0000000E+00
  -1.730000      0.0000000E+00
  -1.720000      0.0000000E+00
  -1.710000      0.0000000E+00
  -1.700000      0.0000000E+00
  -1.690000      0.0000000E+00
  -1.680000      0.0000000E+00
  -1.670000      0.0000000E+00
  -1.660000      0.0000000E+00
  -1.650000      0.0000000E+00
  -1.640000      0.0000000E+00
  -1.630000      0.0000000E+00
  -1.620000      0.0000000E+00
  -1.610000      0.0000000E+00
  -1.600000      0.0000000E+00
  -1.590000      0.0000000E+00
  -1.580000      0.0000000E+00
  -1.570000      0.0000000E+00
  -1.560000      0.0000000E+00
  -1.550000      0.0000000E+00
  -1.540000      0.0000000E+00
  -1.530000      0.0000000E+00
  -1.520000      0.0000000E+00
  -1.510000      0.0000000E+00
  -1.500000      0.0000000E+00
  -1.490000      0.0000000E+00
  -1.480000      0.0000000E+00
  -1.470000      0.0000000E+00
  -1.460000      0.0000000E+00
  -1.450000      0.0000000E+00
  -1.440000      0.0000000E+00
  -1.430000      0.0000000E+00
  -1.420000      0.0000000E+00
  -1.410000      0.0000000E+00
  -1.400000      0.0000000E+00
  -1.390000      0.0000000E+00
  -1.380000      0.0000000E+00
  -1.370000      0.0000000E+00
  -1.360000      0.0000000E+00
  -1.350000      0.0000000E+00
  -1.340000      0.0000000E+00
  -1.330000      0.0000000E+00
  -1.320000      0.0000000E+00
  -1.310000      0.0000000E+00
  -1.300000      0.0000000E+00
  -1.290000      0.0000000E+00
  -1.280000      0.0000000E+00
  -1.270000      0.0000000E+00
  -1.260000      0.0000000E+00
  -1.250000      0.0000000E+00
  -1.240000      0.0000000E+00
  -1.230000      0.0000000E+00
  -1.220000      0.0000000E+00
  -1.210000      0.0000000E+00
  -1.200000      0.0000000E+00
  -1.190000      0.0000000E+00
  -1.180000      0.0000000E+00
  -1.170000      0.0000000E+00
  -1.160000      0.0000000E+00
  -1.150000      0.0000000E+00
  -1.140000      0.0000000E+00
  -1.130000      0.0000000E+00
  -1.120000      0.0000000E+00
  -1.110000      0.0000000E+00
  -1.100000      0.0000000E+00
  -1.090000      0.0000000E+00
  -1.080000      0.0000000E+00
  -1.070000      0.0000000E+00
  -1.060000      0.0000000E+00
  -1.050000      0.0000000E+00
  -1.040000      0.0000000E+00
  -1.030000      0.0000000E+00
  -1.020000      0.0000000E+00
  -1.010000      0.0000000E+00
  -1.000000      0.0000000E+00
 -0.9900000      0.0000000E+00
 -0.9800000      0.0000000E+00
 -0.9700000      0.0000000E+00
 -0.9600000      0.0000000E+00
 -0.9500000      0.0000000E+00
 -0.9400000      0.0000000E+00
 -0.9300000      0.0000000E+00
 -0.9200000      0.0000000E+00
 -0.9100000      0.0000000E+00
 -0.9000000      0.0000000E+00
 -0.8900000      0.0000000E+00
 -0.8800000      0.0000000E+00
 -0.8700000      0.0000000E+00
 -0.8600000      0.0000000E+00
 -0.8500000      0.0000000E+00
 -0.8400000      0.0000000E+00
 -0.8300000      0.0000000E+00
 -0.8200000      0.0000000E+00
 -0.8100000      0.0000000E+00
 -0.8000000      0.0000000E+00
 -0.7900000      0.0000000E+00
 -0.7800000      0.0000000E+00
 -0.7700000      0.0000000E+00
 -0.7600000      0.0000000E+00
 -0.7500000      0.0000000E+00
 -0.7400000      0.0000000E+00
 -0.7300000      0.0000000E+00
 -0.7200000      0.0000000E+00
 -0.7100000      0.0000000E+00
 -0.7000000      0.0000000E+00
 -0.6900000      0.0000000E+00
 -0.6800000      0.0000000E+00
 -0.6700000      0.0000000E+00
 -0.6600000      0.0000000E+00
 -0.6500000      0.0000000E+00
 -0.6400000      0.0000000E+00
 -0.6300000      0.0000000E+00
 -0.6200000      0.0000000E+00
 -0.6100000      0.0000000E+00
 -0.6000000      0.0000000E+00
 -0.5900000      0.0000000E+00
 -0.5800000      0.0000000E+00
 -0.5700000      0.0000000E+00
 -0.5600000      0.0000000E+00
 -0.5500000      0.0000000E+00
 -0.5400000      0.0000000E+00
 -0.5300000      0.0000000E+00
 -0.5200000      0.0000000E+00
 -0.5100000      0.0000000E+00
 -0.5000000      0.0000000E+00
 -0.4900000      0.0000000E+00
 -0.4800000      0.0000000E+00
 -0.4700000      0.0000000E+00
 -0.4600000      0.0000000E+00
 -0.4500000      0.0000000E+00
 -0.4400000      0.0000000E+00
 -0.4300000      0.0000000E+00
 -0.4200000      0.0000000E+00
 -0.4100000      0.0000000E+00
 -0.4000000      0.0000000E+00
 -0.3900000      0.0000000E+00
 -0.3800000      0.0000000E+00
 -0.3700000      0.0000000E+00
 -0.3600000      0.0000000E+00
 -0.3500000      0.0000000E+00
 -0.3400000      0.0000000E+00
 -0.3300000      0.0000000E+00
 -0.3200000      0.0000000E+00
 -0.3100000      0.0000000E+00
 -0.3000000      0.0000000E+00
 -0.2900000      0.0000000E+00
 -0.2800000      0.0000000E+00
 -0.2700000      0.0000000E+00
 -0.2600000      0.0000000E+00
 -0.2500000      0.0000000E+00
 -0.2400000      0.0000000E+00
 -0.2300000      0.0000000E+00
 -0.2200000      0.0000000E+00
 -0.2100000      0.0000000E+00
 -0.2000000      0.0000000E+00
 -0.1900000      0.0000000E+00
 -0.1800000      0.0000000E+00
 -0.1700000      0.0000000E+00
 -0.1600000      0.0000000E+00
 -0.1500000      0.0000000E+00
 -0.1400000      0.0000000E+00
 -0.1300000      0.0000000E+00
 -0.1200000      0.0000000E+00
 -0.1100000      0.0000000E+00
 -0.1000000      0.0000000E+00
 -9.0000004E-02  0.0000000E+00
 -7.9999998E-02  0.0000000E+00
 -7.0000000E-02  0.0000000E+00
 -5.9999999E-02  0.0000000E+00
 -5.0000001E-02  0.0000000E+00
 -3.9999999E-02  0.0000000E+00
 -2.9999999E-02  0.0000000E+00
 -2.0000000E-02  0.0000000E+00
 -9.9999998E-03  0.0000000E+00
 -3.4694470E-17  0.0000000E+00
  9.9999998E-03  0.0000000E+00
  2.0000000E-02  0.0000000E+00
  2.9999999E-02  0.0000000E+00
  3.9999999E-02  0.0000000E+00
  5.0000001E-02  0.0000000E+00
  5.9999999E-02  0.0000000E+00
  7.0000000E-02  0.0000000E+00
  7.9999998E-02  0.0000000E+00
  9.0000004E-02  0.0000000E+00
  0.1000000      0.0000000E+00
  0.1100000      0.0000000E+00
  0.1200000      0.0000000E+00
  0.1300000      0.0000000E+00
  0.1400000      0.0000000E+00
  0.1500000      0.0000000E+00
  0.1600000      0.0000000E+00
  0.1700000      0.0000000E+00
  0.1800000      0.0000000E+00
  0.1900000      0.0000000E+00
  0.2000000      0.0000000E+00
  0.2100000      0.0000000E+00
  0.2200000      0.0000000E+00
  0.2300000      0.0000000E+00
  0.2400000      0.0000000E+00
  0.2500000      0.0000000E+00
  0.2600000      0.0000000E+00
  0.2700000      0.0000000E+00
  0.2800000      0.0000000E+00
  0.2900000      0.0000000E+00
  0.3000000      0.0000000E+00
  0.3100000      0.0000000E+00
  0.3200000      0.0000000E+00
  0.3300000      0.0000000E+00
  0.3400000      0.0000000E+00
  0.3500000      0.0000000E+00
  0.3600000      0.0000000E+00
  0.3700000      0.0000000E+00
  0.3800000      0.0000000E+00
  0.3900000      0.0000000E+00
  0.4000000      0.0000000E+00
  0.4100000      0.0000000E+00
  0.4200000      0.0000000E+00
  0.4300000      0.0000000E+00
  0.4400000      0.0000000E+00
  0.4500000      0.0000000E+00
  0.4600000      0.0000000E+00
  0.4700000      0.0000000E+00
  0.4800000      0.0000000E+00
  0.4900000      0.0000000E+00
  0.5000000      0.0000000E+00
  0.5100000      0.0000000E+00
  0.5200000      0.0000000E+00
  0.5300000      0.0000000E+00
  0.5400000      0.0000000E+00
  0.5500000      0.0000000E+00
  0.5600000      0.0000000E+00
  0.5700000      0.0000000E+00
  0.5800000      0.0000000E+00
  0.5900000      0.0000000E+00
  0.6000000      0.0000000E+00
  0.6100000      0.0000000E+00
  0.6200000      0.0000000E+00
  0.6300000      0.0000000E+00
  0.6400000      0.0000000E+00
  0.6500000      0.0000000E+00
  0.6600000      0.0000000E+00
  0.6700000      0.0000000E+00
  0.6800000      0.0000000E+00
  0.6900000      0.0000000E+00
  0.7000000      0.0000000E+00
  0.7100000      0.0000000E+00
  0.7200000      0.0000000E+00
  0.7300000      0.0000000E+00
  0.7400000      0.0000000E+00
  0.7500000      0.0000000E+00
  0.7600000      0.0000000E+00
  0.7700000      0.0000000E+00
  0.7800000      0.0000000E+00
  0.7900000      0.0000000E+00
  0.8000000      0.0000000E+00
  0.8100000      0.0000000E+00
  0.8200000      0.0000000E+00
  0.8300000      0.0000000E+00
  0.8400000      0.0000000E+00
  0.8500000      0.0000000E+00
  0.8600000      0.0000000E+00
  0.8700000      0.0000000E+00
  0.8800000      0.0000000E+00
  0.8900000      0.0000000E+00
  0.9000000      0.0000000E+00
  0.9100000      0.0000000E+00
  0.9200000      0.0000000E+00
  0.9300000      0.0000000E+00
  0.9400000      0.0000000E+00
  0.9500000      0.0000000E+00
  0.9600000      0.0000000E+00
  0.9700000      0.0000000E+00
  0.9800000      0.0000000E+00
  0.9900000      0.0000000E+00
   1.000000      0.0000000E+00
   1.010000      0.0000000E+00
   1.020000      0.0000000E+00
   1.030000      0.0000000E+00
   1.040000      0.0000000E+00
   1.050000      0.0000000E+00
   1.060000      0.0000000E+00
   1.070000      0.0000000E+00
   1.080000      0.0000000E+00
   1.090000      0.0000000E+00
   1.100000      0.0000000E+00
   1.110000      0.0000000E+00
   1.120000      0.0000000E+00
   1.130000      0.0000000E+00
   1.140000      0.0000000E+00
   1.150000      0.0000000E+00
   1.160000      0.0000000E+00
   1.170000      0.0000000E+00
   1.180000      0.0000000E+00
   1.190000      0.0000000E+00
   1.200000      0.0000000E+00
   1.210000      0.0000000E+00
   1.220000      0.0000000E+00
   1.230000      0.0000000E+00
   1.240000      0.0000000E+00
   1.250000      0.0000000E+00
   1.260000      0.0000000E+00
   1.270000      0.0000000E+00
   1.280000      0.0000000E+00
   1.290000      0.0000000E+00
   1.300000      0.0000000E+00
   1.310000      0.0000000E+00
   1.320000      0.0000000E+00
   1.330000      0.0000000E+00
   1.340000      0.0000000E+00
   1.350000      0.0000000E+00
   1.360000      0.0000000E+00
   1.370000      0.0000000E+00
   1.380000      0.0000000E+00
   1.390000      0.0000000E+00
   1.400000      0.0000000E+00
   1.410000      0.0000000E+00
   1.420000      0.0000000E+00
   1.430000      0.0000000E+00
   1.440000      0.0000000E+00
   1.450000      0.0000000E+00
   1.460000      0.0000000E+00
   1.470000      0.0000000E+00
   1.480000      0.0000000E+00
   1.490000      0.0000000E+00
   1.500000      0.0000000E+00
   1.510000      0.0000000E+00
   1.520000      0.0000000E+00
   1.530000      0.0000000E+00
   1.540000      0.0000000E+00
   1.550000      0.0000000E+00
   1.560000      0.0000000E+00
   1.570000      0.0000000E+00
   1.580000      0.0000000E+00
   1.590000      0.0000000E+00
   1.600000      0.0000000E+00
   1.610000      0.0000000E+00
   1.620000      0.0000000E+00
   1.630000      0.0000000E+00
   1.640000      0.0000000E+00
   1.650000      0.0000000E+00
   1.660000      0.0000000E+00
   1.670000      0.0000000E+00
   1.680000      0.0000000E+00
   1.690000      0.0000000E+00
   1.700000      0.0000000E+00
   1.710000      0.0000000E+00
   1.720000      0.0000000E+00
   1.730000      0.0000000E+00
   1.740000      0.0000000E+00
   1.750000      0.0000000E+00
   1.760000      0.0000000E+00
   1.770000      0.0000000E+00
   1.780000      0.0000000E+00
   1.790000      0.0000000E+00
   1.800000      0.0000000E+00
   1.810000      0.0000000E+00
   1.820000      0.0000000E+00
   1.830000      0.0000000E+00
   1.840000      0.0000000E+00
   1.850000      0.0000000E+00
   1.860000      0.0000000E+00
   1.870000      0.0000000E+00
   1.880000      0.0000000E+00
   1.890000      0.0000000E+00
   1.900000      0.0000000E+00
   1.910000      0.0000000E+00
   1.920000      0.0000000E+00
   1.930000      0.0000000E+00
   1.940000      0.0000000E+00
   1.950000      0.0000000E+00
   1.960000      0.0000000E+00
   1.970000      0.0000000E+00
   1.980000      0.0000000E+00
   1.990000      0.0000000E+00
   2.000000      0.0000000E+00
   2.010000      0.0000000E+00
   2.020000      0.0000000E+00
   2.030000      0.0000000E+00
   2.040000      0.0000000E+00
   2.050000      0.0000000E+00
   2.060000      0.0000000E+00
   2.070000      0.0000000E+00
   2.080000      0.0000000E+00
   2.090000      0.0000000E+00
   2.100000      0.0000000E+00
   2.110000      0.0000000E+00
   2.120000      0.0000000E+00
   2.130000      0.0000000E+00
   2.140000      0.0000000E+00
   2.150000      0.0000000E+00
   2.160000      0.0000000E+00
   2.170000      0.0000000E+00
   2.180000      0.0000000E+00
   2.190000      0.0000000E+00
   2.200000      0.0000000E+00
   2.210000      0.0000000E+00
   2.220000      0.0000000E+00
   2.230000      0.0000000E+00
   2.240000      0.0000000E+00
   2.250000      0.0000000E+00
   2.260000      0.0000000E+00
   2.270000      0.0000000E+00
   2.280000      0.0000000E+00
   2.290000      0.0000000E+00
   2.300000      0.0000000E+00
   2.310000      0.0000000E+00
   2.320000      0.0000000E+00
   2.330000      0.0000000E+00
   2.340000      0.0000000E+00
   2.350000      0.0000000E+00
   2.360000      0.0000000E+00
   2.370000      0.0000000E+00
   2.380000      0.0000000E+00
   2.390000      0.0000000E+00
   2.400000      0.0000000E+00
   2.410000      0.0000000E+00
   2.420000      0.0000000E+00
   2.430000      0.0000000E+00
   2.440000      0.0000000E+00
   2.450000      0.0000000E+00
   2.460000      0.0000000E+00
   2.470000      0.0000000E+00
   2.480000      0.0000000E+00
   2.490000      0.0000000E+00
   2.500000      0.0000000E+00
   2.510000      0.0000000E+00
   2.520000      0.0000000E+00
   2.530000      0.0000000E+00
   2.540000      0.0000000E+00
   2.550000      0.0000000E+00
   2.560000      0.0000000E+00
   2.570000      0.0000000E+00
   2.580000      0.0000000E+00
   2.590000      0.0000000E+00
   2.600000      0.0000000E+00
   2.610000      0.0000000E+00
   2.620000      0.0000000E+00
   2.630000      0.0000000E+00
   2.640000      0.0000000E+00
   2.650000      0.0000000E+00
   2.660000      0.0000000E+00
   2.670000      0.0000000E+00
   2.680000      0.0000000E+00
   2.690000      0.0000000E+00
   2.700000      0.0000000E+00
   2.710000      0.0000000E+00
   2.720000      0.0000000E+00
   2.730000      0.0000000E+00
   2.740000      0.0000000E+00
   2.750000      0.0000000E+00
   2.760000      0.0000000E+00
   2.770000      0.0000000E+00
   2.780000      0.0000000E+00
   2.790000      0.0000000E+00
   2.800000      0.0000000E+00
   2.810000      0.0000000E+00
   2.820000      0.0000000E+00
   2.830000      0.0000000E+00
   2.840000      0.0000000E+00
   2.850000      0.0000000E+00
   2.860000      0.0000000E+00
   2.870000      0.0000000E+00
   2.880000      0.0000000E+00
   2.890000      0.0000000E+00
   2.900000      0.0000000E+00
   2.910000      0.0000000E+00
   2.920000      0.0000000E+00
   2.930000      0.0000000E+00
   2.940000     -1.1943368E-38
   2.950000     -1.4784380E-38
   2.960000     -1.8904852E-38
   2.970000     -2.3465881E-38
   2.980000     -2.8554884E-38
   2.990000     -3.4156566E-38
   3.000000     -4.0093601E-38
   3.010000     -4.6316636E-38
   3.020000     -5.2764666E-38
   3.030000     -5.9353325E-38
   3.040000     -6.5975228E-38
   3.050000     -7.2518199E-38
   3.060000     -7.8356737E-38
   3.070000     -8.3603367E-38
   3.080000     -8.8896777E-38
   3.090000     -9.4150396E-38
   3.100000     -9.9275057E-38
   3.110000     -1.0417918E-37
   3.120000     -1.0849395E-37
   3.130000     -1.1231616E-37
   3.140000     -1.1574593E-37
   3.150000     -1.1853796E-37
   3.160000     -1.1997357E-37
   3.170000     -1.1975899E-37
   3.180000     -1.1821529E-37
   3.190000     -1.1515244E-37
   3.200000     -1.1060153E-37
   3.210000     -1.0462332E-37
   3.220000     -9.7024493E-38
   3.230000     -8.7851487E-38
   3.240000     -7.7427491E-38
   3.250000     -6.5803535E-38
   3.260000     -5.2974575E-38
   3.270000     -3.7976091E-38
   3.280000     -2.0663086E-38
   3.290000      0.0000000E+00
   3.300000      0.0000000E+00
   3.310000      0.0000000E+00
   3.320000      0.0000000E+00
   3.330000     -1.5968106E-38
   3.340000     -4.2735279E-38
   3.350000     -7.2898338E-38
   3.360000     -1.0593035E-37
   3.370000     -1.4184030E-37
   3.380000     -1.2477690E-37
   3.390000     -4.2563132E-38
   3.400000      5.6304240E-38
   3.410000      1.6411400E-37
   3.420000      2.7338542E-37
   3.430000      3.7487992E-37
   3.440000      4.5614808E-37
   3.450000      5.1088535E-37
   3.460000      4.9873589E-37
   3.470000      4.3168221E-37
   3.480000      3.6211599E-37
   3.490000      2.8981944E-37
   3.500000      2.1634687E-37
   3.510000      1.9625272E-37
   3.520000      3.0720310E-37
   3.530000      5.0804652E-37
   3.540000      7.3445438E-37
   3.550000      9.6318010E-37
   3.560000      1.1134367E-36
   3.570000      1.1846620E-36
   3.580000      1.2070205E-36
   3.590000      1.2219983E-36
   3.600000      1.2760537E-36
   3.610000      1.3588020E-36
   3.620000      1.4803639E-36
   3.630000      1.6352216E-36
   3.640000      1.8373015E-36
   3.650000      1.9332775E-36
   3.660000      1.8706873E-36
   3.670000      1.8656986E-36
   3.680000      1.9407629E-36
   3.690000      2.0368690E-36
   3.700000      2.1909544E-36
   3.710000      2.4276837E-36
   3.720000      2.5874838E-36
   3.730000      2.6199752E-36
   3.740000      2.7767451E-36
   3.750000      3.0530399E-36
   3.760000      3.1037488E-36
   3.770000      2.4072040E-36
   3.780000      9.6365183E-37
   3.790000     -7.2911990E-37
   3.800000     -2.4391660E-36
   3.810000     -3.5495894E-36
   3.820000     -3.8988896E-36
   3.830000     -4.0845128E-36
   3.840000     -4.2794832E-36
   3.850000     -4.4071273E-36
   3.860000     -4.6070475E-36
   3.870000     -4.9570516E-36
   3.880000     -5.1547407E-36
   3.890000     -5.2315475E-36
   3.900000     -5.4196356E-36
   3.910000     -5.6944687E-36
   3.920000     -6.0113360E-36
   3.930000     -6.3880398E-36
   3.940000     -6.9432995E-36
   3.950000     -7.9006077E-36
   3.960000     -9.0296161E-36
   3.970000     -9.9852520E-36
   3.980000     -1.0375606E-35
   3.990000     -1.0084563E-35
   4.000000     -9.6142861E-36
   4.010000     -9.1902615E-36
   4.020000     -8.7855877E-36
   4.030000     -8.3843720E-36
   4.040000     -8.0618206E-36
   4.050000     -7.9424273E-36
   4.060000     -8.5057484E-36
   4.070000     -9.6686391E-36
   4.080000     -1.0381524E-35
   4.090000     -1.0170879E-35
   4.100000     -9.6061500E-36
   4.110000     -9.0684589E-36
   4.120000     -7.8862376E-36
   4.130000     -5.9855015E-36
   4.140000     -4.5231676E-36
   4.150000     -4.0761529E-36
   4.160000     -3.9246875E-36
   4.170000     -3.6418740E-36
   4.180000     -3.8683945E-36
   4.190000     -3.4622481E-36
   4.200000     -1.8158489E-36
   4.210000      9.0017334E-38
   4.220000      2.6858073E-36
   4.230000      5.5756113E-36
   4.240000      8.1190837E-36
   4.250000      1.1006810E-35
   4.260000      1.4635724E-35
   4.270000      1.8696792E-35
   4.280000      2.2057537E-35
   4.290000      2.4622153E-35
   4.300000      2.6344556E-35
   4.310000      2.6892550E-35
   4.320000      2.6981409E-35
   4.330000      2.5774447E-35
   4.340000      2.4390833E-35
   4.350000      2.5450538E-35
   4.360000      2.8974392E-35
   4.370000      3.4513120E-35
   4.380000      4.1642613E-35
   4.390000      5.0059454E-35
   4.400000      5.9749781E-35
   4.410000      6.8776699E-35
   4.420000      7.5838499E-35
   4.430000      8.1155372E-35
   4.440000      8.4989361E-35
   4.450000      8.7011762E-35
   4.460000      8.7184034E-35
   4.470000      8.5592651E-35
   4.480000      8.1912969E-35
   4.490000      7.6900657E-35
   4.500000      7.0262173E-35
   4.510000      6.3365832E-35
   4.520000      5.7965348E-35
   4.530000      5.4103849E-35
   4.540000      5.0156123E-35
   4.550000      4.5537030E-35
   4.560000      4.1026561E-35
   4.570000      3.6775458E-35
   4.580000      3.4216092E-35
   4.590000      3.3609062E-35
   4.600000      3.3376348E-35
   4.610000      3.1816540E-35
   4.620000      2.8607317E-35
   4.630000      2.3180364E-35
   4.640000      1.6288800E-35
   4.650000      6.1610892E-36
   4.660000     -7.8894060E-36
   4.670000     -2.2730964E-35
   4.680000     -3.8131214E-35
   4.690000     -5.4974817E-35
   4.700000     -7.3069854E-35
   4.710000     -9.0989628E-35
   4.720000     -1.0738973E-34
   4.730000     -1.2111282E-34
   4.740000     -1.3368386E-34
   4.750000     -1.4721741E-34
   4.760000     -1.6039749E-34
   4.770000     -1.7156445E-34
   4.780000     -1.8276196E-34
   4.790000     -1.9547394E-34
   4.800000     -2.0950879E-34
   4.810000     -2.2663448E-34
   4.820000     -2.4746934E-34
   4.830000     -2.7277092E-34
   4.840000     -2.9771725E-34
   4.850000     -3.2039469E-34
   4.860000     -3.4069344E-34
   4.870000     -3.5668037E-34
   4.880000     -3.6732203E-34
   4.890000     -3.6826103E-34
   4.900000     -3.6915114E-34
   4.910000     -3.7915694E-34
   4.920000     -3.9446252E-34
   4.930000     -4.1391048E-34
   4.940000     -4.3984115E-34
   4.950000     -4.6345591E-34
   4.960000     -4.7978371E-34
   4.970000     -4.9176728E-34
   4.980000     -5.0027409E-34
   4.990000     -5.0747496E-34
   5.000000     -5.1171909E-34
   5.010000     -5.1717049E-34
   5.020000     -5.2037445E-34
   5.030000     -5.1551057E-34
   5.040000     -5.0200345E-34
   5.050000     -4.8012787E-34
   5.060000     -4.5304246E-34
   5.070000     -4.2026816E-34
   5.080000     -3.9013317E-34
   5.090000     -3.6676397E-34
   5.100000     -3.5008171E-34
   5.110000     -3.3886637E-34
   5.120000     -3.3133769E-34
   5.130000     -3.3069712E-34
   5.140000     -3.2714738E-34
   5.150000     -3.1352983E-34
   5.160000     -2.8090155E-34
   5.170000     -2.1368830E-34
   5.180000     -1.1908034E-34
   5.190000     -9.2643110E-36
   5.200000      1.1072535E-34
   5.210000      2.3357647E-34
   5.220000      3.5022472E-34
   5.230000      4.6146428E-34
   5.240000      5.7080128E-34
   5.250000      6.7394645E-34
   5.260000      7.6918762E-34
   5.270000      8.5263730E-34
   5.280000      9.3858779E-34
   5.290000      1.0408839E-33
   5.300000      1.1564479E-33
   5.310000      1.2876275E-33
   5.320000      1.4367520E-33
   5.330000      1.6010048E-33
   5.340000      1.7818445E-33
   5.350000      1.9786549E-33
   5.360000      2.1922378E-33
   5.370000      2.4193327E-33
   5.380000      2.6429475E-33
   5.390000      2.8581574E-33
   5.400000      3.0656931E-33
   5.410000      3.2672517E-33
   5.420000      3.4651009E-33
   5.430000      3.6556008E-33
   5.440000      3.8403276E-33
   5.450000      4.0224304E-33
   5.460000      4.2050735E-33
   5.470000      4.3906819E-33
   5.480000      4.5810672E-33
   5.490000      4.7779221E-33
   5.500000      4.9836567E-33
   5.510000      5.1985081E-33
   5.520000      5.4159231E-33
   5.530000      5.6300379E-33
   5.540000      5.8305548E-33
   5.550000      6.0120919E-33
   5.560000      6.1728199E-33
   5.570000      6.3072288E-33
   5.580000      6.4081017E-33
   5.590000      6.4688027E-33
   5.600000      6.4887024E-33
   5.610000      6.4759644E-33
   5.620000      6.4281784E-33
   5.630000      6.3486180E-33
   5.640000      6.2429814E-33
   5.650000      6.1029749E-33
   5.660000      5.9339105E-33
   5.670000      5.7391704E-33
   5.680000      5.5184706E-33
   5.690000      5.2629222E-33
   5.700000      4.9680226E-33
   5.710000      4.6337884E-33
   5.720000      4.2499271E-33
   5.730000      3.8096640E-33
   5.740000      3.3051878E-33
   5.750000      2.7295633E-33
   5.760000      2.0742360E-33
   5.770000      1.3343541E-33
   5.780000      5.0884910E-34
   5.790000     -4.0016238E-34
   5.800000     -1.3864651E-33
   5.810000     -2.4478039E-33
   5.820000     -3.5830467E-33
   5.830000     -4.7850804E-33
   5.840000     -6.0564121E-33
   5.850000     -7.3972897E-33
   5.860000     -8.8044821E-33
   5.870000     -1.0285129E-32
   5.880000     -1.1839123E-32
   5.890000     -1.3470059E-32
   5.900000     -1.5184999E-32
   5.910000     -1.6987720E-32
   5.920000     -1.8881432E-32
   5.930000     -2.0867499E-32
   5.940000     -2.2944811E-32
   5.950000     -2.5110361E-32
   5.960000     -2.7357659E-32
   5.970000     -2.9677812E-32
   5.980000     -3.2062455E-32
   5.990000     -3.4501617E-32
   6.000000     -3.6984094E-32
   6.010000     -3.9499378E-32
   6.020000     -4.2037838E-32
   6.030000     -4.4592014E-32
   6.040000     -4.7153860E-32
   6.050000     -4.9716146E-32
   6.060000     -5.2274645E-32
   6.070000     -5.4823769E-32
   6.080000     -5.7356701E-32
   6.090000     -5.9866799E-32
   6.100000     -6.2344876E-32
   6.110000     -6.4778332E-32
   6.120000     -6.7152777E-32
   6.130000     -6.9451022E-32
   6.140000     -7.1651953E-32
   6.150000     -7.3734235E-32
   6.160000     -7.5675111E-32
   6.170000     -7.7449079E-32
   6.180000     -7.9030813E-32
   6.190000     -8.0395415E-32
   6.200000     -8.1519187E-32
   6.210000     -8.2379032E-32
   6.220000     -8.2952808E-32
   6.230000     -8.3219340E-32
   6.240000     -8.3157650E-32
   6.250000     -8.2746386E-32
   6.260000     -8.1962478E-32
   6.270000     -8.0783557E-32
   6.280000     -7.9185184E-32
   6.290000     -7.7138608E-32
   6.300000     -7.4614034E-32
   6.310000     -7.1579618E-32
   6.320000     -6.8002054E-32
   6.330000     -6.3850555E-32
   6.340000     -5.9086224E-32
   6.350000     -5.3671420E-32
   6.360000     -4.7577928E-32
   6.370000     -4.0775892E-32
   6.380000     -3.3237529E-32
   6.390000     -2.4938715E-32
   6.400000     -1.5857821E-32
   6.410000     -5.9747039E-33
   6.420000      4.7285024E-33
   6.430000      1.6268398E-32
   6.440000      2.8660853E-32
   6.450000      4.1921229E-32
   6.460000      5.6064345E-32
   6.470000      7.1104625E-32
   6.480000      8.7055930E-32
   6.490000      1.0393073E-31
   6.500000      1.2173924E-31
   6.510000      1.4048887E-31
   6.520000      1.6018312E-31
   6.530000      1.8082071E-31
   6.540000      2.0239488E-31
   6.550000      2.2489273E-31
   6.560000      2.4829495E-31
   6.570000      2.7257575E-31
   6.580000      2.9770290E-31
   6.590000      3.2363788E-31
   6.600000      3.5033639E-31
   6.610000      3.7774892E-31
   6.620000      4.0582024E-31
   6.630000      4.3449017E-31
   6.640000      4.6369378E-31
   6.650000      4.9336043E-31
   6.660000      5.2341359E-31
   6.670000      5.5377003E-31
   6.680000      5.8433914E-31
   6.690000      6.1502203E-31
   6.700000      6.4571066E-31
   6.710000      6.7628743E-31
   6.720000      7.0662421E-31
   6.730000      7.3658235E-31
   6.740000      7.6601277E-31
   6.750000      7.9475624E-31
   6.760000      8.2264348E-31
   6.770000      8.4949620E-31
   6.780000      8.7512714E-31
   6.790000      8.9934129E-31
   6.800000      9.2193580E-31
   6.810000      9.4270086E-31
   6.820000      9.6141981E-31
   6.830000      9.7786874E-31
   6.840000      9.9181706E-31
   6.850000      1.0030267E-30
   6.860000      1.0112521E-30
   6.870000      1.0162400E-30
   6.880000      1.0177292E-30
   6.890000      1.0154512E-30
   6.900000      1.0091300E-30
   6.910000      9.9848343E-31
   6.920000      9.8322307E-31
   6.930000      9.6305657E-31
   6.940000      9.3768808E-31
   6.950000      9.0682016E-31
   6.960000      8.7015527E-31
   6.970000      8.2739718E-31
   6.980000      7.7825244E-31
   6.990000      7.2243127E-31
   7.000000      6.5964934E-31
   7.010000      5.8962872E-31
   7.020000      5.1209847E-31
   7.030000      4.2679604E-31
   7.040000      3.3346767E-31
   7.050000      2.3187056E-31
   7.060000      1.2177361E-31