  -2.600000      0.0000000E+00
  -2.590000      0.0000000E+00
  -2.580000      0.0000000E+00
  -2.570000      0.0000000E+00
  -2.560000      0.0000000E+00
  -2.550000      0.0000000E+00
  -2.540000      0.0000000E+00
  -2.530000      0.0000000E+00
  -2.520000      0.0000000E+00
  -2.510000      0.0000000E+00
  -2.500000      0.0000000E+00
  -2.490000      0.0000000E+00
  -2.480000      0.0000000E+00
  -2.470000      0.0000000E+00
  -2.460000      0.0000000E+00
  -2.450000      0.0000000E+00
  -2.440000      0.0000000E+00
  -2.430000      0.0000000E+00
  -2.420000      0.0000000E+00
  -2.410000      0.0000000E+00
  -2.400000      0.0000000E+00
  -2.390000      0.0000000E+00
  -2.380000      0.0000000E+00
  -2.370000      0.0000000E+00
  -2.360000      0.0000000E+00
  -2.350000      0.0000000E+00
  -2.340000      0.0000000E+00
  -2.330000      0.0000000E+00
  -2.320000      0.0000000E+00
  -2.310000      0.0000000E+00
  -2.300000      0.0000000E+00
  -2.290000      0.0000000E+00
  -2.280000      0.0000000E+00
  -2.270000      0.0000000E+00
  -2.260000      0.0000000E+00
  -2.250000      0.0000000E+00
  -2.240000      0.0000000E+00
  -2.230000      0.0000000E+00
  -2.220000      0.0000000E+00
  -2.210000      0.0000000E+00
  -2.200000      0.0000000E+00
  -2.190000      0.0000000E+00
  -2.180000      0.0000000E+00
  -2.170000      0.0000000E+00
  -2.160000      0.0000000E+00
  -2.150000      0.0000000E+00
  -2.140000      0.0000000E+00
  -2.130000      0.0000000E+00
  -2.120000      0.0000000E+00
  -2.110000      0.0000000E+00
  -2.100000      0.0000000E+00
  -2.090000      0.0000000E+00
  -2.080000      0.0000000E+00
  -2.070000      0.0000000E+00
  -2.060000      0.0000000E+00
  -2.050000      0.0000000E+00
  -2.040000      0.0000000E+00
  -2.030000      0.0000000E+00
  -2.020000      0.0000000E+00
  -2.010000      0.0000000E+00
  -2.000000      0.0000000E+00
  -1.990000      0.0000000E+00
  -1.980000      0.0000000E+00
  -1.970000      0.0000000E+00
  -1.960000      0.0000000E+00
  -1.950000      0.0000000E+00
  -1.940000      0.0000000E+00
  -1.930000      0.0000000E+00
  -1.920000      0.0000000E+00
  -1.910000      0.0000000E+00
  -1.900000      0.0000000E+00
  -1.890000      0.0000000E+00
  -1.880000      0.0000000E+00
  -1.870000      0.0000000E+00
  -1.860000      0.0000000E+00
  -1.850000      0.0000000E+00
  -1.840000      0.0000000E+00
  -1.830000      0.0000000E+00
  -1.820000      0.0000000E+00
  -1.810000      0.0000000E+00
  -1.800000      0.0000000E+00
  -1.790000      0.0000000E+00
  -1.780000      0.0000000E+00
  -1.770000      0.0000000E+00
  -1.760000      0.0000000E+00
  -1.750000      0.0000000E+00
  -1.740000      0.0000000E+00
  -1.730000      0.0000000E+00
  -1.720000      0.0000000E+00
  -1.710000      0.0000000E+00
  -1.700000      0.0000000E+00
  -1.690000      0.0000000E+00
  -1.680000      0.0000000E+00
  -1.670000      0.0000000E+00
  -1.660000      0.0000000E+00
  -1.650000      0.0000000E+00
  -1.640000      0.0000000E+00
  -1.630000      0.0000000E+00
  -1.620000      0.0000000E+00
  -1.610000      0.0000000E+00
  -1.600000      0.0000000E+00
  -1.590000      0.0000000E+00
  -1.580000      0.0000000E+00
  -1.570000      0.0000000E+00
  -1.560000      0.0000000E+00
  -1.550000      0.0000000E+00
  -1.540000      0.0000000E+00
  -1.530000      0.0000000E+00
  -1.520000      0.0000000E+00
  -1.510000      0.0000000E+00
  -1.500000      0.0000000E+00
  -1.490000      0.0000000E+00
  -1.480000      0.0000000E+00
  -1.470000      0.0000000E+00
  -1.460000      0.0000000E+00
  -1.450000      0.0000000E+00
  -1.440000      0.0000000E+00
  -1.430000      0.0000000E+00
  -1.420000      0.0000000E+00
  -1.410000      0.0000000E+00
  -1.400000      0.0000000E+00
  -1.390000      0.0000000E+00
  -1.380000      0.0000000E+00
  -1.370000      0.0000000E+00
  -1.360000      0.0000000E+00
  -1.350000      0.0000000E+00
  -1.340000      0.0000000E+00
  -1.330000      0.0000000E+00
  -1.320000      0.0000000E+00
  -1.310000      0.0000000E+00
  -1.300000      0.0000000E+00
  -1.290000      0.0000000E+00
  -1.280000      0.0000000E+00
  -1.270000      0.0000000E+00
  -1.260000      0.0000000E+00
  -1.250000      0.0000000E+00
  -1.240000      0.0000000E+00
  -1.230000      0.0000000E+00
  -1.220000      0.0000000E+00
  -1.210000      0.0000000E+00
  -1.200000      0.0000000E+00
  -1.190000      0.0000000E+00
  -1.180000      0.0000000E+00
  -1.170000      0.0000000E+00
  -1.160000      0.0000000E+00
  -1.150000      0.0000000E+00
  -1.140000      0.0000000E+00
  -1.130000      0.0000000E+00
  -1.120000      0.0000000E+00
  -1.110000      0.0000000E+00
  -1.100000      0.0000000E+00
  -1.090000      0.0000000E+00
  -1.080000      0.0000000E+00
  -1.070000      0.0000000E+00
  -1.060000      0.0000000E+00
  -1.050000      0.0000000E+00
  -1.040000      0.0000000E+00
  -1.030000      0.0000000E+00
  -1.020000      0.0000000E+00
  -1.010000      0.0000000E+00
  -1.000000      0.0000000E+00
 -0.9900000      0.0000000E+00
 -0.9800000      0.0000000E+00
 -0.9700000      0.0000000E+00
 -0.9600000      0.0000000E+00
 -0.9500000      0.0000000E+00
 -0.9400000      0.0000000E+00
 -0.9300000      0.0000000E+00
 -0.9200000      0.0000000E+00
 -0.9100000      0.0000000E+00
 -0.9000000      0.0000000E+00
 -0.8900000      0.0000000E+00
 -0.8800000      0.0000000E+00
 -0.8700000      0.0000000E+00
 -0.8600000      0.0000000E+00
 -0.8500000      0.0000000E+00
 -0.8400000      0.0000000E+00
 -0.8300000      0.0000000E+00
 -0.8200000      0.0000000E+00
 -0.8100000      0.0000000E+00
 -0.8000000      0.0000000E+00
 -0.7900000      0.0000000E+00
 -0.7800000      0.0000000E+00
 -0.7700000      0.0000000E+00
 -0.7600000      0.0000000E+00
 -0.7500000      0.0000000E+00
 -0.7400000      0.0000000E+00
 -0.7300000      0.0000000E+00
 -0.7200000      0.0000000E+00
 -0.7100000      0.0000000E+00
 -0.7000000      0.0000000E+00
 -0.6900000      0.0000000E+00
 -0.6800000      0.0000000E+00
 -0.6700000      0.0000000E+00
 -0.6600000      0.0000000E+00
 -0.6500000      0.0000000E+00
 -0.6400000      0.0000000E+00
 -0.6300000      0.0000000E+00
 -0.6200000      0.0000000E+00
 -0.6100000      0.0000000E+00
 -0.6000000      0.0000000E+00
 -0.5900000      0.0000000E+00
 -0.5800000      0.0000000E+00
 -0.5700000      0.0000000E+00
 -0.5600000      0.0000000E+00
 -0.5500000      0.0000000E+00
 -0.5400000      0.0000000E+00
 -0.5300000      0.0000000E+00
 -0.5200000      0.0000000E+00
 -0.5100000      0.0000000E+00
 -0.5000000      0.0000000E+00
 -0.4900000      0.0000000E+00
 -0.4800000      0.0000000E+00
 -0.4700000      0.0000000E+00
 -0.4600000      0.0000000E+00
 -0.4500000      0.0000000E+00
 -0.4400000      0.0000000E+00
 -0.4300000      0.0000000E+00
 -0.4200000      0.0000000E+00
 -0.4100000      0.0000000E+00
 -0.4000000      0.0000000E+00
 -0.3900000      0.0000000E+00
 -0.3800000      0.0000000E+00
 -0.3700000      0.0000000E+00
 -0.3600000      0.0000000E+00
 -0.3500000      0.0000000E+00
 -0.3400000      0.0000000E+00
 -0.3300000      0.0000000E+00
 -0.3200000      0.0000000E+00
 -0.3100000      0.0000000E+00
 -0.3000000      0.0000000E+00
 -0.2900000      0.0000000E+00
 -0.2800000      0.0000000E+00
 -0.2700000      0.0000000E+00
 -0.2600000      0.0000000E+00
 -0.2500000      0.0000000E+00
 -0.2400000      0.0000000E+00
 -0.2300000      0.0000000E+00
 -0.2200000      0.0000000E+00
 -0.2100000      0.0000000E+00
 -0.2000000      0.0000000E+00
 -0.1900000      0.0000000E+00
 -0.1800000      0.0000000E+00
 -0.1700000      0.0000000E+00
 -0.1600000      0.0000000E+00
 -0.1500000      0.0000000E+00
 -0.1400000      0.0000000E+00
 -0.1300000      0.0000000E+00
 -0.1200000      0.0000000E+00
 -0.1100000      0.0000000E+00
 -0.1000000      0.0000000E+00
 -9.0000004E-02  0.0000000E+00
 -7.9999998E-02  0.0000000E+00
 -7.0000000E-02  0.0000000E+00
 -5.9999999E-02  0.0000000E+00
 -5.0000001E-02  0.0000000E+00
 -3.9999999E-02  0.0000000E+00
 -2.9999999E-02  0.0000000E+00
 -2.0000000E-02  0.0000000E+00
 -9.9999998E-03  0.0000000E+00
 -3.4694470E-17  0.0000000E+00
  9.9999998E-03  0.0000000E+00
  2.0000000E-02  0.0000000E+00
  2.9999999E-02  0.0000000E+00
  3.9999999E-02  0.0000000E+00
  5.0000001E-02  0.0000000E+00
  5.9999999E-02  0.0000000E+00
  7.0000000E-02  0.0000000E+00
  7.9999998E-02  0.0000000E+00
  9.0000004E-02  0.0000000E+00
  0.1000000      0.0000000E+00
  0.1100000      0.0000000E+00
  0.1200000      0.0000000E+00
  0.1300000      0.0000000E+00
  0.1400000      0.0000000E+00
  0.1500000      0.0000000E+00
  0.1600000      0.0000000E+00
  0.1700000      0.0000000E+00
  0.1800000      0.0000000E+00
  0.1900000      0.0000000E+00
  0.2000000      0.0000000E+00
  0.2100000      0.0000000E+00
  0.2200000      0.0000000E+00
  0.2300000      0.0000000E+00
  0.2400000      0.0000000E+00
  0.2500000      0.0000000E+00
  0.2600000      0.0000000E+00
  0.2700000      0.0000000E+00
  0.2800000      0.0000000E+00
  0.2900000      0.0000000E+00
  0.3000000      0.0000000E+00
  0.3100000      0.0000000E+00
  0.3200000      0.0000000E+00
  0.3300000      0.0000000E+00
  0.3400000      0.0000000E+00
  0.3500000      0.0000000E+00
  0.3600000      0.0000000E+00
  0.3700000      0.0000000E+00
  0.3800000      0.0000000E+00
  0.3900000      0.0000000E+00
  0.4000000      0.0000000E+00
  0.4100000      0.0000000E+00
  0.4200000      0.0000000E+00
  0.4300000      0.0000000E+00
  0.4400000      0.0000000E+00
  0.4500000      0.0000000E+00
  0.4600000      0.0000000E+00
  0.4700000      0.0000000E+00
  0.4800000      0.0000000E+00
  0.4900000      0.0000000E+00
  0.5000000      0.0000000E+00
  0.5100000      0.0000000E+00
  0.5200000      0.0000000E+00
  0.5300000      0.0000000E+00
  0.5400000      0.0000000E+00
  0.5500000      0.0000000E+00
  0.5600000      0.0000000E+00
  0.5700000      0.0000000E+00
  0.5800000      0.0000000E+00
  0.5900000      0.0000000E+00
  0.6000000      0.0000000E+00
  0.6100000      0.0000000E+00
  0.6200000      0.0000000E+00
  0.6300000      0.0000000E+00
  0.6400000      0.0000000E+00
  0.6500000      0.0000000E+00
  0.6600000      0.0000000E+00
  0.6700000      0.0000000E+00
  0.6800000      0.0000000E+00
  0.6900000      0.0000000E+00
  0.7000000      0.0000000E+00
  0.7100000      0.0000000E+00
  0.7200000      0.0000000E+00
  0.7300000      0.0000000E+00
  0.7400000      0.0000000E+00
  0.7500000      0.0000000E+00
  0.7600000      0.0000000E+00
  0.7700000      0.0000000E+00
  0.7800000      0.0000000E+00
  0.7900000      0.0000000E+00
  0.8000000      0.0000000E+00
  0.8100000      0.0000000E+00
  0.8200000      0.0000000E+00
  0.8300000      0.0000000E+00
  0.8400000      0.0000000E+00
  0.8500000      0.0000000E+00
  0.8600000      0.0000000E+00
  0.8700000      0.0000000E+00
  0.8800000      0.0000000E+00
  0.8900000      0.0000000E+00
  0.9000000      0.0000000E+00
  0.9100000      0.0000000E+00
  0.9200000      0.0000000E+00
  0.9300000      0.0000000E+00
  0.9400000      0.0000000E+00
  0.9500000      0.0000000E+00
  0.9600000      0.0000000E+00
  0.9700000      0.0000000E+00
  0.9800000      0.0000000E+00
  0.9900000      0.0000000E+00
   1.000000      0.0000000E+00
   1.010000      0.0000000E+00
   1.020000      0.0000000E+00
   1.030000      0.0000000E+00
   1.040000      0.0000000E+00
   1.050000      0.0000000E+00
   1.060000      0.0000000E+00
   1.070000      0.0000000E+00
   1.080000      0.0000000E+00
   1.090000      0.0000000E+00
   1.100000      0.0000000E+00
   1.110000      0.0000000E+00
   1.120000      0.0000000E+00
   1.130000      0.0000000E+00
   1.140000      0.0000000E+00
   1.150000      0.0000000E+00
   1.160000      0.0000000E+00
   1.170000      0.0000000E+00
   1.180000      0.0000000E+00
   1.190000      0.0000000E+00
   1.200000      0.0000000E+00
   1.210000      0.0000000E+00
   1.220000      0.0000000E+00
   1.230000      0.0000000E+00
   1.240000      0.0000000E+00
   1.250000      0.0000000E+00
   1.260000      0.0000000E+00
   1.270000      0.0000000E+00
   1.280000      0.0000000E+00
   1.290000      0.0000000E+00
   1.300000      0.0000000E+00
   1.310000      0.0000000E+00
   1.320000      0.0000000E+00
   1.330000      0.0000000E+00
   1.340000      0.0000000E+00
   1.350000      0.0000000E+00
   1.360000      0.0000000E+00
   1.370000      0.0000000E+00
   1.380000      0.0000000E+00
   1.390000      0.0000000E+00
   1.400000      0.0000000E+00
   1.410000      0.0000000E+00
   1.420000      0.0000000E+00
   1.430000      0.0000000E+00
   1.440000      0.0000000E+00
   1.450000      0.0000000E+00
   1.460000      0.0000000E+00
   1.470000      0.0000000E+00
   1.480000      0.0000000E+00
   1.490000      0.0000000E+00
   1.500000      0.0000000E+00
   1.510000      0.0000000E+00
   1.520000      0.0000000E+00
   1.530000      0.0000000E+00
   1.540000      0.0000000E+00
   1.550000      0.0000000E+00
   1.560000      0.0000000E+00
   1.570000      0.0000000E+00
   1.580000      0.0000000E+00
   1.590000      0.0000000E+00
   1.600000      0.0000000E+00
   1.610000      0.0000000E+00
   1.620000      0.0000000E+00
   1.630000      0.0000000E+00
   1.640000      0.0000000E+00
   1.650000      0.0000000E+00
   1.660000      0.0000000E+00
   1.670000      0.0000000E+00
   1.680000      0.0000000E+00
   1.690000      0.0000000E+00
   1.700000      0.0000000E+00
   1.710000      0.0000000E+00
   1.720000      0.0000000E+00
   1.730000      0.0000000E+00
   1.740000      0.0000000E+00
   1.750000      0.0000000E+00
   1.760000      0.0000000E+00
   1.770000      0.0000000E+00
   1.780000      0.0000000E+00
   1.790000      0.0000000E+00
   1.800000      0.0000000E+00
   1.810000      0.0000000E+00
   1.820000      0.0000000E+00
   1.830000      0.0000000E+00
   1.840000      0.0000000E+00
   1.850000      0.0000000E+00
   1.860000      0.0000000E+00
   1.870000      0.0000000E+00
   1.880000      0.0000000E+00
   1.890000      0.0000000E+00
   1.900000      0.0000000E+00
   1.910000      0.0000000E+00
   1.920000      0.0000000E+00
   1.930000      0.0000000E+00
   1.940000      0.0000000E+00
   1.950000      0.0000000E+00
   1.960000      0.0000000E+00
   1.970000      0.0000000E+00
   1.980000      0.0000000E+00
   1.990000      0.0000000E+00
   2.000000      0.0000000E+00
   2.010000      0.0000000E+00
   2.020000      0.0000000E+00
   2.030000      0.0000000E+00
   2.040000      0.0000000E+00
   2.050000      0.0000000E+00
   2.060000      0.0000000E+00
   2.070000      0.0000000E+00
   2.080000      0.0000000E+00
   2.090000      0.0000000E+00
   2.100000      0.0000000E+00
   2.110000      0.0000000E+00
   2.120000      0.0000000E+00
   2.130000      0.0000000E+00
   2.140000      0.0000000E+00
   2.150000      0.0000000E+00
   2.160000      0.0000000E+00
   2.170000      0.0000000E+00
   2.180000      0.0000000E+00
   2.190000      0.0000000E+00
   2.200000      0.0000000E+00
   2.210000      0.0000000E+00
   2.220000      0.0000000E+00
   2.230000      0.0000000E+00
   2.240000      0.0000000E+00
   2.250000      0.0000000E+00
   2.260000      0.0000000E+00
   2.270000      0.0000000E+00
   2.280000      0.0000000E+00
   2.290000      0.0000000E+00
   2.300000      0.0000000E+00
   2.310000      0.0000000E+00
   2.320000      0.0000000E+00
   2.330000      0.0000000E+00
   2.340000      0.0000000E+00
   2.350000      0.0000000E+00
   2.360000      0.0000000E+00
   2.370000      0.0000000E+00
   2.380000      0.0000000E+00
   2.390000      0.0000000E+00
   2.400000      0.0000000E+00
   2.410000      0.0000000E+00
   2.420000      0.0000000E+00
   2.430000      0.0000000E+00
   2.440000      0.0000000E+00
   2.450000      0.0000000E+00
   2.460000      0.0000000E+00
   2.470000      0.0000000E+00
   2.480000      0.0000000E+00
   2.490000      0.0000000E+00
   2.500000      0.0000000E+00
   2.510000      0.0000000E+00
   2.520000      0.0000000E+00
   2.530000      0.0000000E+00
   2.540000      0.0000000E+00
   2.550000      0.0000000E+00
   2.560000      0.0000000E+00
   2.570000      0.0000000E+00
   2.580000      0.0000000E+00
   2.590000      0.0000000E+00
   2.600000      0.0000000E+00
   2.610000      0.0000000E+00
   2.620000      0.0000000E+00
   2.630000      0.0000000E+00
   2.640000      0.0000000E+00
   2.650000      0.0000000E+00
   2.660000      0.0000000E+00
   2.670000      0.0000000E+00
   2.680000      0.0000000E+00
   2.690000      0.0000000E+00
   2.700000      0.0000000E+00
   2.710000      0.0000000E+00
   2.720000      0.0000000E+00
   2.730000      0.0000000E+00
   2.740000      0.0000000E+00
   2.750000      0.0000000E+00
   2.760000      0.0000000E+00
   2.770000      0.0000000E+00
   2.780000      0.0000000E+00
   2.790000      0.0000000E+00
   2.800000      0.0000000E+00
   2.810000      0.0000000E+00
   2.820000      0.0000000E+00
   2.830000      0.0000000E+00
   2.840000      0.0000000E+00
   2.850000      0.0000000E+00
   2.860000      0.0000000E+00
   2.870000      0.0000000E+00
   2.880000      0.0000000E+00
   2.890000      0.0000000E+00
   2.900000      0.0000000E+00
   2.910000      0.0000000E+00
   2.920000      0.0000000E+00
   2.930000      0.0000000E+00
   2.940000      0.0000000E+00
   2.950000      0.0000000E+00
   2.960000      0.0000000E+00
   2.970000      0.0000000E+00
   2.980000      0.0000000E+00
   2.990000      0.0000000E+00
   3.000000      0.0000000E+00
   3.010000      0.0000000E+00
   3.020000      0.0000000E+00
   3.030000      0.0000000E+00
   3.040000      0.0000000E+00
   3.050000      0.0000000E+00
   3.060000      0.0000000E+00
   3.070000      0.0000000E+00
   3.080000      0.0000000E+00
   3.090000      0.0000000E+00
   3.100000      0.0000000E+00
   3.110000      0.0000000E+00
   3.120000      0.0000000E+00
   3.130000      0.0000000E+00
   3.140000      0.0000000E+00
   3.150000      0.0000000E+00
   3.160000      0.0000000E+00
   3.170000      0.0000000E+00
   3.180000      0.0000000E+00
   3.190000      0.0000000E+00
   3.200000      0.0000000E+00
   3.210000      0.0000000E+00
   3.220000      0.0000000E+00
   3.230000      0.0000000E+00
   3.240000      0.0000000E+00
   3.250000      0.0000000E+00
   3.260000      0.0000000E+00
   3.270000      0.0000000E+00
   3.280000      0.0000000E+00
   3.290000      0.0000000E+00
   3.300000      0.0000000E+00
   3.310000      0.0000000E+00
   3.320000      0.0000000E+00
   3.330000      0.0000000E+00
   3.340000      0.0000000E+00
   3.350000      0.0000000E+00
   3.360000      0.0000000E+00
   3.370000      0.0000000E+00
   3.380000      0.0000000E+00
   3.390000      0.0000000E+00
   3.400000      0.0000000E+00
   3.410000      0.0000000E+00
   3.420000      0.0000000E+00
   3.430000      0.0000000E+00
   3.440000      0.0000000E+00
   3.450000      0.0000000E+00
   3.460000      0.0000000E+00
   3.470000      0.0000000E+00
   3.480000      0.0000000E+00
   3.490000      0.0000000E+00
   3.500000      0.0000000E+00
   3.510000      0.0000000E+00
   3.520000     -1.2621145E-38
   3.530000     -1.4651050E-38
   3.540000     -1.6753440E-38
   3.550000     -1.9278277E-38
   3.560000     -2.2167184E-38
   3.570000     -2.4890757E-38
   3.580000     -2.7220618E-38
   3.590000     -2.8986834E-38
   3.600000     -3.0420424E-38
   3.610000     -3.1840248E-38
   3.620000     -3.3182596E-38
   3.630000     -3.4444345E-38
   3.640000     -3.5644042E-38
   3.650000     -3.6266930E-38
   3.660000     -3.6239055E-38
   3.670000     -3.6020228E-38
   3.680000     -3.5686837E-38
   3.690000     -3.5393150E-38
   3.700000     -3.5617876E-38
   3.710000     -3.6357204E-38
   3.720000     -3.7486631E-38
   3.730000     -3.9025207E-38
   3.740000     -3.9556442E-38
   3.750000     -3.9370974E-38
   3.760000     -3.7954836E-38
   3.770000     -3.4702128E-38
   3.780000     -3.1191783E-38
   3.790000     -2.7628923E-38
   3.800000     -2.4411222E-38
   3.810000     -2.0795217E-38
   3.820000     -1.5308758E-38
   3.830000      0.0000000E+00
   3.840000      0.0000000E+00
   3.850000      1.2130173E-38
   3.860000      2.3966621E-38
   3.870000      3.6425083E-38
   3.880000      4.8939133E-38
   3.890000      6.1314649E-38
   3.900000      7.3812399E-38
   3.910000      8.6313926E-38
   3.920000      9.8618879E-38
   3.930000      1.1131902E-37
   3.940000      1.2589907E-37
   3.950000      1.4292409E-37
   3.960000      1.6221180E-37
   3.970000      1.8353254E-37
   3.980000      2.0556374E-37
   3.990000      2.2756876E-37
   4.000000      2.5032424E-37
   4.010000      2.7463806E-37
   4.020000      3.0060363E-37
   4.030000      3.2876314E-37
   4.040000      3.7015617E-37
   4.050000      4.2322805E-37
   4.060000      4.7536403E-37
   4.070000      5.2323727E-37
   4.080000      5.5914414E-37
   4.090000      5.7065483E-37
   4.100000      5.6210332E-37
   4.110000      5.5643732E-37
   4.120000      5.5344469E-37
   4.130000      5.4708329E-37
   4.140000      5.4106708E-37
   4.150000      5.3498540E-37
   4.160000      5.1999554E-37
   4.170000      4.9052267E-37
   4.180000      4.3916434E-37
   4.190000      3.6819231E-37
   4.200000      2.9511135E-37
   4.210000      2.2683233E-37
   4.220000      1.7522861E-37
   4.230000      1.5012326E-37
   4.240000      1.4651263E-37
   4.250000      1.5240113E-37
   4.260000      1.6225296E-37
   4.270000      1.6528482E-37
   4.280000      1.5770768E-37
   4.290000      1.3956554E-37
   4.300000      1.0776997E-37
   4.310000      6.9243605E-38
   4.320000      0.0000000E+00
   4.330000     -9.4462550E-38
   4.340000     -2.0073374E-37
   4.350000     -3.2257998E-37
   4.360000     -4.6302619E-37
   4.370000     -6.1647361E-37
   4.380000     -8.1299732E-37
   4.390000     -1.0600880E-36
   4.400000     -1.3177887E-36
   4.410000     -1.5796658E-36
   4.420000     -1.8261248E-36
   4.430000     -2.0527908E-36
   4.440000     -2.2827544E-36
   4.450000     -2.5208171E-36
   4.460000     -2.7598176E-36
   4.470000     -2.9858428E-36
   4.480000     -3.2018546E-36
   4.490000     -3.4098398E-36
   4.500000     -3.6049525E-36
   4.510000     -3.7861311E-36
   4.520000     -3.9425868E-36
   4.530000     -4.1498061E-36
   4.540000     -4.4530910E-36
   4.550000     -4.8076894E-36
   4.560000     -5.1536696E-36
   4.570000     -5.4749711E-36
   4.580000     -5.8141124E-36
   4.590000     -6.1663346E-36
   4.600000     -6.3767605E-36
   4.610000     -6.4533391E-36
   4.620000     -6.4332365E-36
   4.630000     -6.1929360E-36
   4.640000     -5.8349318E-36
   4.650000     -5.4143299E-36
   4.660000     -4.9485819E-36
   4.670000     -4.4662977E-36
   4.680000     -3.9676335E-36
   4.690000     -3.4264025E-36
   4.700000     -2.7175481E-36
   4.710000     -1.8632750E-36
   4.720000     -9.2063237E-37
   4.730000      1.0526704E-37
   4.740000      1.1895067E-36
   4.750000      2.3273093E-36
   4.760000      3.5480450E-36
   4.770000      4.8108387E-36
   4.780000      6.0552115E-36
   4.790000      7.5205716E-36
   4.800000      9.1913147E-36
   4.810000      1.0911479E-35
   4.820000      1.2517345E-35
   4.830000      1.4409941E-35
   4.840000      1.6849673E-35
   4.850000      1.9492888E-35
   4.860000      2.2268667E-35
   4.870000      2.5074626E-35
   4.880000      2.7408614E-35
   4.890000      2.9143604E-35
   4.900000      3.0842105E-35
   4.910000      3.2587803E-35
   4.920000      3.4371914E-35
   4.930000      3.6523545E-35
   4.940000      3.9058130E-35
   4.950000      4.1603437E-35
   4.960000      4.4031989E-35
   4.970000      4.6355887E-35
   4.980000      4.8289865E-35
   4.990000      4.9843819E-35
   5.000000      5.1345674E-35
   5.010000      5.2838058E-35
   5.020000      5.4259631E-35
   5.030000      5.5666287E-35
   5.040000      5.6916972E-35
   5.050000      5.7920969E-35
   5.060000      5.8547671E-35
   5.070000      5.8603565E-35
   5.080000      5.8229680E-35
   5.090000      5.6857146E-35
   5.100000      5.4216141E-35
   5.110000      5.1099325E-35
   5.120000      4.5509143E-35
   5.130000      4.2048271E-35
   5.140000      4.3260221E-35
   5.150000      4.4138791E-35
   5.160000      4.4567993E-35
   5.170000      4.4983600E-35
   5.180000      4.5561068E-35
   5.190000      4.4600379E-35
   5.200000      4.0437281E-35
   5.210000      2.8946709E-35
   5.220000      1.2121656E-35
   5.230000     -4.6303436E-36
   5.240000     -2.2327661E-35
   5.250000     -4.1378753E-35
   5.260000     -6.0869870E-35
   5.270000     -7.9213649E-35
   5.280000     -9.9429947E-35
   5.290000     -1.2243732E-34
   5.300000     -1.4607842E-34
   5.310000     -1.7067081E-34
   5.320000     -1.9560926E-34
   5.330000     -2.2189846E-34
   5.340000     -2.5387246E-34
   5.350000     -2.9087739E-34
   5.360000     -3.2782464E-34
   5.370000     -3.6473822E-34
   5.380000     -4.0216555E-34
   5.390000     -4.3959003E-34
   5.400000     -4.7646602E-34
   5.410000     -5.1524195E-34
   5.420000     -5.5598954E-34
   5.430000     -5.9536663E-34
   5.440000     -6.3196803E-34
   5.450000     -6.6276328E-34
   5.460000     -6.8841839E-34
   5.470000     -7.1257301E-34
   5.480000     -7.3542187E-34
   5.490000     -7.5316435E-34
   5.500000     -7.6918372E-34
   5.510000     -7.8686554E-34
   5.520000     -8.0108957E-34
   5.530000     -8.1155561E-34
   5.540000     -8.2127511E-34
   5.550000     -8.2980663E-34
   5.560000     -8.3205402E-34
   5.570000     -8.3044901E-34
   5.580000     -8.2816066E-34
   5.590000     -8.2185275E-34
   5.600000     -8.1019148E-34
   5.610000     -7.9499023E-34
   5.620000     -7.7898642E-34
   5.630000     -7.5904113E-34
   5.640000     -7.3350241E-34
   5.650000     -7.0330226E-34
   5.660000     -6.6643513E-34
   5.670000     -6.2167750E-34
   5.680000     -5.6791052E-34
   5.690000     -5.0238737E-34
   5.700000     -4.2520207E-34
   5.710000     -3.3611957E-34
   5.720000     -2.3480385E-34
   5.730000     -1.1913959E-34
   5.740000      1.3002497E-35
   5.750000      1.6003321E-34
   5.760000      3.2441282E-34
   5.770000      5.0414326E-34
   5.780000      6.9443826E-34
   5.790000      9.0164898E-34
   5.800000      1.1281352E-33
   5.810000      1.3700599E-33
   5.820000      1.6268811E-33
   5.830000      1.8978244E-33
   5.840000      2.1824256E-33
   5.850000      2.4796278E-33
   5.860000      2.7884370E-33
   5.870000      3.1081613E-33
   5.880000      3.4378225E-33
   5.890000      3.7767241E-33
   5.900000      4.1230262E-33
   5.910000      4.4760680E-33
   5.920000      4.8389974E-33
   5.930000      5.2106333E-33
   5.940000      5.5882843E-33
   5.950000      5.9723397E-33
   5.960000      6.3616762E-33
   5.970000      6.7549217E-33
   5.980000      7.1507761E-33
   5.990000      7.5481056E-33
   6.000000      7.9484834E-33
   6.010000      8.3507655E-33
   6.020000      8.7511506E-33
   6.030000      9.1476934E-33
   6.040000      9.5378657E-33
   6.050000      9.9187787E-33
   6.060000      1.0288076E-32
   6.070000      1.0642725E-32
   6.080000      1.0978186E-32
   6.090000      1.1290216E-32
   6.100000      1.1576411E-32
   6.110000      1.1830311E-32
   6.120000      1.2045640E-32
   6.130000      1.2219721E-32
   6.140000      1.2347516E-32
   6.150000      1.2422563E-32
   6.160000      1.2438457E-32
   6.170000      1.2390256E-32
   6.180000      1.2272683E-32
   6.190000      1.2080184E-32
   6.200000      1.1807217E-32
   6.210000      1.1447476E-32
   6.220000      1.0996531E-32
   6.230000      1.0450161E-32
   6.240000      9.8022527E-33
   6.250000      9.0476191E-33
   6.260000      8.1813746E-33
   6.270000      7.1986370E-33
   6.280000      6.0946429E-33
   6.290000      4.8646372E-33
   6.300000      3.5039815E-33
   6.310000      2.0081334E-33
   6.320000      3.7252518E-34
   6.330000     -1.4071243E-33
   6.340000     -3.3354138E-33
   6.350000     -5.4165799E-33
   6.360000     -7.6526372E-33
   6.370000     -1.0049165E-32
   6.380000     -1.2611378E-32
   6.390000     -1.5340713E-32
   6.400000     -1.8239840E-32
   6.410000     -2.1310984E-32
   6.420000     -2.4555763E-32
   6.430000     -2.7975146E-32
   6.440000     -3.1569361E-32
   6.450000     -3.5337785E-32
   6.460000     -3.9280593E-32
   6.470000     -4.3392113E-32
   6.480000     -4.7668277E-32
   6.490000     -5.2107331E-32
   6.500000     -5.6701863E-32
   6.510000     -6.1444359E-32
   6.520000     -6.6325823E-32
   6.530000     -7.1335850E-32
   6.540000     -7.6462475E-32
   6.550000     -8.1692091E-32
   6.560000     -8.7009451E-32
   6.570000     -9.2397588E-32
   6.580000     -9.7837811E-32
   6.590000     -1.0330967E-31
   6.600000     -1.0879094E-31
   6.610000     -1.1425760E-31
   6.620000     -1.1968387E-31
   6.630000     -1.2504253E-31
   6.640000     -1.3030356E-31
   6.650000     -1.3543504E-31
   6.660000     -1.4040420E-31
   6.670000     -1.4517584E-31
   6.680000     -1.4971288E-31
   6.690000     -1.5397616E-31
   6.700000     -1.5792466E-31
   6.710000     -1.6151503E-31
   6.720000     -1.6470252E-31
   6.730000     -1.6744038E-31
   6.740000     -1.6967925E-31
   6.750000     -1.7136812E-31
   6.760000     -1.7245397E-31
   6.770000     -1.7288194E-31
   6.780000     -1.7259531E-31
   6.790000     -1.7153561E-31
   6.800000     -1.6964271E-31
   6.810000     -1.6685492E-31
   6.820000     -1.6310919E-31
   6.830000     -1.5834122E-31
   6.840000     -1.5248563E-31
   6.850000     -1.4547625E-31
   6.860000     -1.3724628E-31
   6.870000     -1.2772852E-31
   6.880000     -1.1685576E-31
   6.890000     -1.0456100E-31
   6.900000     -9.0777763E-32
   6.910000     -7.5440530E-32
   6.920000     -5.8485005E-32
   6.930000     -3.9848586E-32
   6.940000     -1.9470772E-32
   6.950000      2.7064417E-33
   6.960000      2.6738100E-32
   6.970000      5.2675824E-32
   6.980000      8.0567301E-32
   6.990000      1.1045582E-31
   7.000000      1.4237981E-31
   7.010000      1.7637221E-31
   7.020000      2.1245998E-31
   7.030000      2.5066359E-31
   7.040000      2.9099638E-31
   7.050000      3.3346400E-31
   7.060000      3.7806381E-31