  -2.600000      0.0000000E+00
  -2.590000      0.0000000E+00
  -2.580000      0.0000000E+00
  -2.570000      0.0000000E+00
  -2.560000      0.0000000E+00
  -2.550000      0.0000000E+00
  -2.540000      0.0000000E+00
  -2.530000      0.0000000E+00
  -2.520000      0.0000000E+00
  -2.510000      0.0000000E+00
  -2.500000      0.0000000E+00
  -2.490000      0.0000000E+00
  -2.480000      0.0000000E+00
  -2.470000      0.0000000E+00
  -2.460000      0.0000000E+00
  -2.450000      0.0000000E+00
  -2.440000      0.0000000E+00
  -2.430000      0.0000000E+00
  -2.420000      0.0000000E+00
  -2.410000      0.0000000E+00
  -2.400000      0.0000000E+00
  -2.390000      0.0000000E+00
  -2.380000      0.0000000E+00
  -2.370000      0.0000000E+00
  -2.360000      0.0000000E+00
  -2.350000      0.0000000E+00
  -2.340000      0.0000000E+00
  -2.330000      0.0000000E+00
  -2.320000      0.0000000E+00
  -2.310000      0.0000000E+00
  -2.300000      0.0000000E+00
  -2.290000      0.0000000E+00
  -2.280000      0.0000000E+00
  -2.270000      0.0000000E+00
  -2.260000      0.0000000E+00
  -2.250000      0.0000000E+00
  -2.240000      0.0000000E+00
  -2.230000      0.0000000E+00
  -2.220000      0.0000000E+00
  -2.210000      0.0000000E+00
  -2.200000      0.0000000E+00
  -2.190000      0.0000000E+00
  -2.180000      0.0000000E+00
  -2.170000      0.0000000E+00
  -2.160000      0.0000000E+00
  -2.150000      0.0000000E+00
  -2.140000      0.0000000E+00
  -2.130000      0.0000000E+00
  -2.120000      0.0000000E+00
  -2.110000      0.0000000E+00
  -2.100000      0.0000000E+00
  -2.090000      0.0000000E+00
  -2.080000      0.0000000E+00
  -2.070000      0.0000000E+00
  -2.060000      0.0000000E+00
  -2.050000      0.0000000E+00
  -2.040000      0.0000000E+00
  -2.030000      0.0000000E+00
  -2.020000      0.0000000E+00
  -2.010000      0.0000000E+00
  -2.000000      0.0000000E+00
  -1.990000      0.0000000E+00
  -1.980000      0.0000000E+00
  -1.970000      0.0000000E+00
  -1.960000      0.0000000E+00
  -1.950000      0.0000000E+00
  -1.940000      0.0000000E+00
  -1.930000      0.0000000E+00
  -1.920000      0.0000000E+00
  -1.910000      0.0000000E+00
  -1.900000      0.0000000E+00
  -1.890000      0.0000000E+00
  -1.880000      0.0000000E+00
  -1.870000      0.0000000E+00
  -1.860000      0.0000000E+00
  -1.850000      0.0000000E+00
  -1.840000      0.0000000E+00
  -1.830000      0.0000000E+00
  -1.820000      0.0000000E+00
  -1.810000      0.0000000E+00
  -1.800000      0.0000000E+00
  -1.790000      0.0000000E+00
  -1.780000      0.0000000E+00
  -1.770000      0.0000000E+00
  -1.760000      0.0000000E+00
  -1.750000      0.0000000E+00
  -1.740000      0.0000000E+00
  -1.730000      0.0000000E+00
  -1.720000      0.0000000E+00
  -1.710000      0.0000000E+00
  -1.700000      0.0000000E+00
  -1.690000      0.0000000E+00
  -1.680000      0.0000000E+00
  -1.670000      0.0000000E+00
  -1.660000      0.0000000E+00
  -1.650000      0.0000000E+00
  -1.640000      0.0000000E+00
  -1.630000      0.0000000E+00
  -1.620000      0.0000000E+00
  -1.610000      0.0000000E+00
  -1.600000      0.0000000E+00
  -1.590000      0.0000000E+00
  -1.580000      0.0000000E+00
  -1.570000      0.0000000E+00
  -1.560000      0.0000000E+00
  -1.550000      0.0000000E+00
  -1.540000      0.0000000E+00
  -1.530000      0.0000000E+00
  -1.520000      0.0000000E+00
  -1.510000      0.0000000E+00
  -1.500000      0.0000000E+00
  -1.490000      0.0000000E+00
  -1.480000      0.0000000E+00
  -1.470000      0.0000000E+00
  -1.460000      0.0000000E+00
  -1.450000      0.0000000E+00
  -1.440000      0.0000000E+00
  -1.430000      0.0000000E+00
  -1.420000      0.0000000E+00
  -1.410000      0.0000000E+00
  -1.400000      0.0000000E+00
  -1.390000      0.0000000E+00
  -1.380000      0.0000000E+00
  -1.370000      0.0000000E+00
  -1.360000      0.0000000E+00
  -1.350000      0.0000000E+00
  -1.340000      0.0000000E+00
  -1.330000      0.0000000E+00
  -1.320000      0.0000000E+00
  -1.310000      0.0000000E+00
  -1.300000      0.0000000E+00
  -1.290000      0.0000000E+00
  -1.280000      0.0000000E+00
  -1.270000      0.0000000E+00
  -1.260000      0.0000000E+00
  -1.250000      0.0000000E+00
  -1.240000      0.0000000E+00
  -1.230000      0.0000000E+00
  -1.220000      0.0000000E+00
  -1.210000      0.0000000E+00
  -1.200000      0.0000000E+00
  -1.190000      0.0000000E+00
  -1.180000      0.0000000E+00
  -1.170000      0.0000000E+00
  -1.160000      0.0000000E+00
  -1.150000      0.0000000E+00
  -1.140000      0.0000000E+00
  -1.130000      0.0000000E+00
  -1.120000      0.0000000E+00
  -1.110000      0.0000000E+00
  -1.100000      0.0000000E+00
  -1.090000      0.0000000E+00
  -1.080000      0.0000000E+00
  -1.070000      0.0000000E+00
  -1.060000      0.0000000E+00
  -1.050000      0.0000000E+00
  -1.040000      0.0000000E+00
  -1.030000      0.0000000E+00
  -1.020000      0.0000000E+00
  -1.010000      0.0000000E+00
  -1.000000      0.0000000E+00
 -0.9900000      0.0000000E+00
 -0.9800000      0.0000000E+00
 -0.9700000      0.0000000E+00
 -0.9600000      0.0000000E+00
 -0.9500000      0.0000000E+00
 -0.9400000      0.0000000E+00
 -0.9300000      0.0000000E+00
 -0.9200000      0.0000000E+00
 -0.9100000      0.0000000E+00
 -0.9000000      0.0000000E+00
 -0.8900000      0.0000000E+00
 -0.8800000      0.0000000E+00
 -0.8700000      0.0000000E+00
 -0.8600000      0.0000000E+00
 -0.8500000      0.0000000E+00
 -0.8400000      0.0000000E+00
 -0.8300000      0.0000000E+00
 -0.8200000      0.0000000E+00
 -0.8100000      0.0000000E+00
 -0.8000000      0.0000000E+00
 -0.7900000      0.0000000E+00
 -0.7800000      0.0000000E+00
 -0.7700000      0.0000000E+00
 -0.7600000      0.0000000E+00
 -0.7500000      0.0000000E+00
 -0.7400000      0.0000000E+00
 -0.7300000      0.0000000E+00
 -0.7200000      0.0000000E+00
 -0.7100000      0.0000000E+00
 -0.7000000      0.0000000E+00
 -0.6900000      0.0000000E+00
 -0.6800000      0.0000000E+00
 -0.6700000      0.0000000E+00
 -0.6600000      0.0000000E+00
 -0.6500000      0.0000000E+00
 -0.6400000      0.0000000E+00
 -0.6300000      0.0000000E+00
 -0.6200000      0.0000000E+00
 -0.6100000      0.0000000E+00
 -0.6000000      0.0000000E+00
 -0.5900000      0.0000000E+00
 -0.5800000      0.0000000E+00
 -0.5700000      0.0000000E+00
 -0.5600000      0.0000000E+00
 -0.5500000      0.0000000E+00
 -0.5400000      0.0000000E+00
 -0.5300000      0.0000000E+00
 -0.5200000      0.0000000E+00
 -0.5100000      0.0000000E+00
 -0.5000000      0.0000000E+00
 -0.4900000      0.0000000E+00
 -0.4800000      0.0000000E+00
 -0.4700000      0.0000000E+00
 -0.4600000      0.0000000E+00
 -0.4500000      0.0000000E+00
 -0.4400000      0.0000000E+00
 -0.4300000      0.0000000E+00
 -0.4200000      0.0000000E+00
 -0.4100000      0.0000000E+00
 -0.4000000      0.0000000E+00
 -0.3900000      0.0000000E+00
 -0.3800000      0.0000000E+00
 -0.3700000      0.0000000E+00
 -0.3600000      0.0000000E+00
 -0.3500000      0.0000000E+00
 -0.3400000      0.0000000E+00
 -0.3300000      0.0000000E+00
 -0.3200000      0.0000000E+00
 -0.3100000      0.0000000E+00
 -0.3000000      0.0000000E+00
 -0.2900000      0.0000000E+00
 -0.2800000      0.0000000E+00
 -0.2700000      0.0000000E+00
 -0.2600000      0.0000000E+00
 -0.2500000      0.0000000E+00
 -0.2400000      0.0000000E+00
 -0.2300000      0.0000000E+00
 -0.2200000      0.0000000E+00
 -0.2100000      0.0000000E+00
 -0.2000000      0.0000000E+00
 -0.1900000      0.0000000E+00
 -0.1800000      0.0000000E+00
 -0.1700000      0.0000000E+00
 -0.1600000      0.0000000E+00
 -0.1500000      0.0000000E+00
 -0.1400000      0.0000000E+00
 -0.1300000      0.0000000E+00
 -0.1200000      0.0000000E+00
 -0.1100000      0.0000000E+00
 -0.1000000      0.0000000E+00
 -9.0000004E-02  0.0000000E+00
 -7.9999998E-02  0.0000000E+00
 -7.0000000E-02  0.0000000E+00
 -5.9999999E-02  0.0000000E+00
 -5.0000001E-02  0.0000000E+00
 -3.9999999E-02  0.0000000E+00
 -2.9999999E-02  0.0000000E+00
 -2.0000000E-02  0.0000000E+00
 -9.9999998E-03  0.0000000E+00
 -3.4694470E-17  0.0000000E+00
  9.9999998E-03  0.0000000E+00
  2.0000000E-02  0.0000000E+00
  2.9999999E-02  0.0000000E+00
  3.9999999E-02  0.0000000E+00
  5.0000001E-02  0.0000000E+00
  5.9999999E-02  0.0000000E+00
  7.0000000E-02  0.0000000E+00
  7.9999998E-02  0.0000000E+00
  9.0000004E-02  0.0000000E+00
  0.1000000      0.0000000E+00
  0.1100000      0.0000000E+00
  0.1200000      0.0000000E+00
  0.1300000      0.0000000E+00
  0.1400000      0.0000000E+00
  0.1500000      0.0000000E+00
  0.1600000      0.0000000E+00
  0.1700000      0.0000000E+00
  0.1800000      0.0000000E+00
  0.1900000      0.0000000E+00
  0.2000000      0.0000000E+00
  0.2100000      0.0000000E+00
  0.2200000      0.0000000E+00
  0.2300000      0.0000000E+00
  0.2400000      0.0000000E+00
  0.2500000      0.0000000E+00
  0.2600000      0.0000000E+00
  0.2700000      0.0000000E+00
  0.2800000      0.0000000E+00
  0.2900000      0.0000000E+00
  0.3000000      0.0000000E+00
  0.3100000      0.0000000E+00
  0.3200000      0.0000000E+00
  0.3300000      0.0000000E+00
  0.3400000      0.0000000E+00
  0.3500000      0.0000000E+00
  0.3600000      0.0000000E+00
  0.3700000      0.0000000E+00
  0.3800000      0.0000000E+00
  0.3900000      0.0000000E+00
  0.4000000      0.0000000E+00
  0.4100000      0.0000000E+00
  0.4200000      0.0000000E+00
  0.4300000      0.0000000E+00
  0.4400000      0.0000000E+00
  0.4500000      0.0000000E+00
  0.4600000      0.0000000E+00
  0.4700000      0.0000000E+00
  0.4800000      0.0000000E+00
  0.4900000      0.0000000E+00
  0.5000000      0.0000000E+00
  0.5100000      0.0000000E+00
  0.5200000      0.0000000E+00
  0.5300000      0.0000000E+00
  0.5400000      0.0000000E+00
  0.5500000      0.0000000E+00
  0.5600000      0.0000000E+00
  0.5700000      0.0000000E+00
  0.5800000      0.0000000E+00
  0.5900000      0.0000000E+00
  0.6000000      0.0000000E+00
  0.6100000      0.0000000E+00
  0.6200000      0.0000000E+00
  0.6300000      0.0000000E+00
  0.6400000      0.0000000E+00
  0.6500000      0.0000000E+00
  0.6600000      0.0000000E+00
  0.6700000      0.0000000E+00
  0.6800000      0.0000000E+00
  0.6900000      0.0000000E+00
  0.7000000      0.0000000E+00
  0.7100000      0.0000000E+00
  0.7200000      0.0000000E+00
  0.7300000      0.0000000E+00
  0.7400000      0.0000000E+00
  0.7500000      0.0000000E+00
  0.7600000      0.0000000E+00
  0.7700000      0.0000000E+00
  0.7800000      0.0000000E+00
  0.7900000      0.0000000E+00
  0.8000000      0.0000000E+00
  0.8100000      0.0000000E+00
  0.8200000      0.0000000E+00
  0.8300000      0.0000000E+00
  0.8400000      0.0000000E+00
  0.8500000      0.0000000E+00
  0.8600000      0.0000000E+00
  0.8700000      0.0000000E+00
  0.8800000      0.0000000E+00
  0.8900000      0.0000000E+00
  0.9000000      0.0000000E+00
  0.9100000      0.0000000E+00
  0.9200000      0.0000000E+00
  0.9300000      0.0000000E+00
  0.9400000      0.0000000E+00
  0.9500000      0.0000000E+00
  0.9600000      0.0000000E+00
  0.9700000      0.0000000E+00
  0.9800000      0.0000000E+00
  0.9900000      0.0000000E+00
   1.000000      0.0000000E+00
   1.010000      0.0000000E+00
   1.020000      0.0000000E+00
   1.030000      0.0000000E+00
   1.040000      0.0000000E+00
   1.050000      0.0000000E+00
   1.060000      0.0000000E+00
   1.070000      0.0000000E+00
   1.080000      0.0000000E+00
   1.090000      0.0000000E+00
   1.100000      0.0000000E+00
   1.110000      0.0000000E+00
   1.120000      0.0000000E+00
   1.130000      0.0000000E+00
   1.140000      0.0000000E+00
   1.150000      0.0000000E+00
   1.160000      0.0000000E+00
   1.170000      0.0000000E+00
   1.180000      0.0000000E+00
   1.190000      0.0000000E+00
   1.200000      0.0000000E+00
   1.210000      0.0000000E+00
   1.220000      0.0000000E+00
   1.230000      0.0000000E+00
   1.240000      0.0000000E+00
   1.250000      0.0000000E+00
   1.260000      0.0000000E+00
   1.270000      0.0000000E+00
   1.280000      0.0000000E+00
   1.290000      0.0000000E+00
   1.300000      0.0000000E+00
   1.310000      0.0000000E+00
   1.320000      0.0000000E+00
   1.330000      0.0000000E+00
   1.340000      0.0000000E+00
   1.350000      0.0000000E+00
   1.360000      0.0000000E+00
   1.370000      0.0000000E+00
   1.380000      0.0000000E+00
   1.390000      0.0000000E+00
   1.400000      0.0000000E+00
   1.410000      0.0000000E+00
   1.420000      0.0000000E+00
   1.430000      0.0000000E+00
   1.440000      0.0000000E+00
   1.450000      0.0000000E+00
   1.460000      0.0000000E+00
   1.470000      0.0000000E+00
   1.480000      0.0000000E+00
   1.490000      0.0000000E+00
   1.500000      0.0000000E+00
   1.510000      0.0000000E+00
   1.520000      0.0000000E+00
   1.530000      0.0000000E+00
   1.540000      0.0000000E+00
   1.550000      0.0000000E+00
   1.560000      0.0000000E+00
   1.570000      0.0000000E+00
   1.580000      0.0000000E+00
   1.590000      0.0000000E+00
   1.600000      0.0000000E+00
   1.610000      0.0000000E+00
   1.620000      0.0000000E+00
   1.630000      0.0000000E+00
   1.640000      0.0000000E+00
   1.650000      0.0000000E+00
   1.660000      0.0000000E+00
   1.670000      0.0000000E+00
   1.680000      0.0000000E+00
   1.690000      0.0000000E+00
   1.700000      0.0000000E+00
   1.710000      0.0000000E+00
   1.720000      0.0000000E+00
   1.730000      0.0000000E+00
   1.740000      0.0000000E+00
   1.750000      0.0000000E+00
   1.760000      0.0000000E+00
   1.770000      0.0000000E+00
   1.780000      0.0000000E+00
   1.790000      0.0000000E+00
   1.800000      0.0000000E+00
   1.810000      0.0000000E+00
   1.820000      0.0000000E+00
   1.830000      0.0000000E+00
   1.840000      0.0000000E+00
   1.850000      0.0000000E+00
   1.860000      0.0000000E+00
   1.870000      0.0000000E+00
   1.880000      0.0000000E+00
   1.890000      0.0000000E+00
   1.900000      0.0000000E+00
   1.910000      0.0000000E+00
   1.920000      0.0000000E+00
   1.930000      0.0000000E+00
   1.940000      0.0000000E+00
   1.950000      0.0000000E+00
   1.960000      0.0000000E+00
   1.970000      0.0000000E+00
   1.980000      0.0000000E+00
   1.990000      0.0000000E+00
   2.000000      0.0000000E+00
   2.010000      0.0000000E+00
   2.020000      0.0000000E+00
   2.030000      0.0000000E+00
   2.040000      0.0000000E+00
   2.050000      0.0000000E+00
   2.060000      0.0000000E+00
   2.070000      0.0000000E+00
   2.080000      0.0000000E+00
   2.090000      0.0000000E+00
   2.100000      0.0000000E+00
   2.110000      0.0000000E+00
   2.120000      0.0000000E+00
   2.130000      0.0000000E+00
   2.140000      0.0000000E+00
   2.150000      0.0000000E+00
   2.160000      0.0000000E+00
   2.170000      0.0000000E+00
   2.180000      0.0000000E+00
   2.190000      0.0000000E+00
   2.200000      0.0000000E+00
   2.210000      0.0000000E+00
   2.220000      0.0000000E+00
   2.230000      0.0000000E+00
   2.240000      0.0000000E+00
   2.250000      0.0000000E+00
   2.260000      0.0000000E+00
   2.270000      0.0000000E+00
   2.280000      0.0000000E+00
   2.290000      0.0000000E+00
   2.300000      0.0000000E+00
   2.310000      0.0000000E+00
   2.320000      0.0000000E+00
   2.330000      0.0000000E+00
   2.340000      0.0000000E+00
   2.350000      0.0000000E+00
   2.360000      0.0000000E+00
   2.370000      0.0000000E+00
   2.380000      0.0000000E+00
   2.390000      0.0000000E+00
   2.400000      0.0000000E+00
   2.410000      0.0000000E+00
   2.420000      0.0000000E+00
   2.430000      0.0000000E+00
   2.440000      0.0000000E+00
   2.450000      0.0000000E+00
   2.460000      0.0000000E+00
   2.470000      0.0000000E+00
   2.480000      0.0000000E+00
   2.490000      0.0000000E+00
   2.500000      0.0000000E+00
   2.510000      0.0000000E+00
   2.520000      0.0000000E+00
   2.530000      0.0000000E+00
   2.540000      0.0000000E+00
   2.550000      0.0000000E+00
   2.560000      0.0000000E+00
   2.570000      0.0000000E+00
   2.580000      0.0000000E+00
   2.590000      0.0000000E+00
   2.600000      0.0000000E+00
   2.610000      0.0000000E+00
   2.620000      0.0000000E+00
   2.630000      0.0000000E+00
   2.640000      0.0000000E+00
   2.650000      0.0000000E+00
   2.660000      0.0000000E+00
   2.670000      0.0000000E+00
   2.680000      0.0000000E+00
   2.690000      0.0000000E+00
   2.700000      0.0000000E+00
   2.710000      0.0000000E+00
   2.720000      0.0000000E+00
   2.730000      0.0000000E+00
   2.740000      0.0000000E+00
   2.750000      0.0000000E+00
   2.760000      0.0000000E+00
   2.770000      0.0000000E+00
   2.780000      0.0000000E+00
   2.790000      0.0000000E+00
   2.800000      0.0000000E+00
   2.810000      0.0000000E+00
   2.820000      0.0000000E+00
   2.830000      0.0000000E+00
   2.840000      0.0000000E+00
   2.850000      0.0000000E+00
   2.860000      0.0000000E+00
   2.870000      0.0000000E+00
   2.880000      0.0000000E+00
   2.890000      0.0000000E+00
   2.900000      0.0000000E+00
   2.910000      0.0000000E+00
   2.920000      0.0000000E+00
   2.930000      0.0000000E+00
   2.940000      0.0000000E+00
   2.950000      0.0000000E+00
   2.960000      0.0000000E+00
   2.970000      0.0000000E+00
   2.980000      0.0000000E+00
   2.990000      0.0000000E+00
   3.000000      0.0000000E+00
   3.010000      0.0000000E+00
   3.020000      0.0000000E+00
   3.030000      0.0000000E+00
   3.040000      0.0000000E+00
   3.050000      0.0000000E+00
   3.060000      0.0000000E+00
   3.070000      0.0000000E+00
   3.080000      0.0000000E+00
   3.090000      0.0000000E+00
   3.100000      0.0000000E+00
   3.110000      0.0000000E+00
   3.120000      0.0000000E+00
   3.130000      0.0000000E+00
   3.140000      0.0000000E+00
   3.150000      0.0000000E+00
   3.160000      0.0000000E+00
   3.170000      0.0000000E+00
   3.180000      0.0000000E+00
   3.190000      0.0000000E+00
   3.200000      0.0000000E+00
   3.210000      0.0000000E+00
   3.220000      0.0000000E+00
   3.230000      0.0000000E+00
   3.240000      0.0000000E+00
   3.250000      0.0000000E+00
   3.260000      0.0000000E+00
   3.270000      0.0000000E+00
   3.280000      0.0000000E+00
   3.290000      0.0000000E+00
   3.300000      0.0000000E+00
   3.310000      0.0000000E+00
   3.320000      0.0000000E+00
   3.330000      0.0000000E+00
   3.340000      0.0000000E+00
   3.350000      0.0000000E+00
   3.360000      0.0000000E+00
   3.370000      0.0000000E+00
   3.380000      0.0000000E+00
   3.390000      0.0000000E+00
   3.400000      0.0000000E+00
   3.410000      0.0000000E+00
   3.420000      0.0000000E+00
   3.430000      0.0000000E+00
   3.440000      0.0000000E+00
   3.450000      0.0000000E+00
   3.460000      0.0000000E+00
   3.470000      0.0000000E+00
   3.480000      0.0000000E+00
   3.490000      0.0000000E+00
   3.500000      0.0000000E+00
   3.510000      0.0000000E+00
   3.520000      0.0000000E+00
   3.530000      0.0000000E+00
   3.540000      0.0000000E+00
   3.550000      0.0000000E+00
   3.560000      0.0000000E+00
   3.570000      0.0000000E+00
   3.580000      0.0000000E+00
   3.590000      0.0000000E+00
   3.600000      1.3031292E-38
   3.610000      1.4679403E-38
   3.620000      1.6162061E-38
   3.630000      1.7584517E-38
   3.640000      1.8958684E-38
   3.650000      2.0318291E-38
   3.660000      2.1534889E-38
   3.670000      2.2554154E-38
   3.680000      2.3528802E-38
   3.690000      2.4890732E-38
   3.700000      2.6629909E-38
   3.710000      2.8249614E-38
   3.720000      2.9801302E-38
   3.730000      3.1224217E-38
   3.740000      3.2532324E-38
   3.750000      3.3974635E-38
   3.760000      3.4743360E-38
   3.770000      3.4710567E-38
   3.780000      3.4890269E-38
   3.790000      3.5521490E-38
   3.800000      3.6307128E-38
   3.810000      3.7187149E-38
   3.820000      3.8358746E-38
   3.830000      3.9570057E-38
   3.840000      4.0979889E-38
   3.850000      4.2569984E-38
   3.860000      4.4191360E-38
   3.870000      4.5618428E-38
   3.880000      4.6266489E-38
   3.890000      4.6103897E-38
   3.900000      4.5121272E-38
   3.910000      4.3230013E-38
   3.920000      3.9425230E-38
   3.930000      3.3619272E-38
   3.940000      2.6793513E-38
   3.950000      1.9030855E-38
   3.960000      0.0000000E+00
   3.970000      0.0000000E+00
   3.980000     -1.3188287E-38
   3.990000     -2.7042129E-38
   4.000000     -4.0457830E-38
   4.010000     -5.3948920E-38
   4.020000     -6.8525143E-38
   4.030000     -8.5045179E-38
   4.040000     -1.0349944E-37
   4.050000     -1.2109424E-37
   4.060000     -1.3782657E-37
   4.070000     -1.5446503E-37
   4.080000     -1.7022423E-37
   4.090000     -1.8581868E-37
   4.100000     -2.0145051E-37
   4.110000     -2.1819419E-37
   4.120000     -2.3663537E-37
   4.130000     -2.5669032E-37
   4.140000     -2.7886102E-37
   4.150000     -3.0311803E-37
   4.160000     -3.2807460E-37
   4.170000     -3.5128198E-37
   4.180000     -3.7178708E-37
   4.190000     -3.8985244E-37
   4.200000     -4.0836568E-37
   4.210000     -4.2779055E-37
   4.220000     -4.4534180E-37
   4.230000     -4.5671308E-37
   4.240000     -4.5999005E-37
   4.250000     -4.5711374E-37
   4.260000     -4.3559033E-37
   4.270000     -3.9310893E-37
   4.280000     -3.4136222E-37
   4.290000     -2.7774106E-37
   4.300000     -1.9624176E-37
   4.310000     -1.0188313E-37
   4.320000      0.0000000E+00
   4.330000      1.1580415E-37
   4.340000      2.3113355E-37
   4.350000      3.4043080E-37
   4.360000      4.4845313E-37
   4.370000      5.8289649E-37
   4.380000      7.6999786E-37
   4.390000      9.8583172E-37
   4.400000      1.2107044E-36
   4.410000      1.4450862E-36
   4.420000      1.6910782E-36
   4.430000      1.9662423E-36
   4.440000      2.2661896E-36
   4.450000      2.5718341E-36
   4.460000      2.8954424E-36
   4.470000      3.1557794E-36
   4.480000      3.3305761E-36
   4.490000      3.4999308E-36
   4.500000      3.6519641E-36
   4.510000      3.7350031E-36
   4.520000      3.7446304E-36
   4.530000      3.7205254E-36
   4.540000      3.6782391E-36
   4.550000      3.6484704E-36
   4.560000      3.6383046E-36
   4.570000      3.5889215E-36
   4.580000      3.5023705E-36
   4.590000      3.4345546E-36
   4.600000      3.3947135E-36
   4.610000      3.3749362E-36
   4.620000      3.3714762E-36
   4.630000      3.4499292E-36
   4.640000      3.5419652E-36
   4.650000      3.5906743E-36
   4.660000      3.6016515E-36
   4.670000      3.4673607E-36
   4.680000      3.2047801E-36
   4.690000      2.9367365E-36
   4.700000      2.6391471E-36
   4.710000      2.2280628E-36
   4.720000      1.7095285E-36
   4.730000      1.0446385E-36
   4.740000      2.4536066E-37
   4.750000     -6.3701243E-37
   4.760000     -1.6075642E-36
   4.770000     -2.6782117E-36
   4.780000     -3.8220746E-36
   4.790000     -5.0085846E-36
   4.800000     -6.2552435E-36
   4.810000     -7.5600580E-36
   4.820000     -8.9112115E-36
   4.830000     -1.0314325E-35
   4.840000     -1.1708395E-35
   4.850000     -1.3119104E-35
   4.860000     -1.4663065E-35
   4.870000     -1.6340287E-35
   4.880000     -1.8065533E-35
   4.890000     -1.9844534E-35
   4.900000     -2.1558914E-35
   4.910000     -2.3189182E-35
   4.920000     -2.4825548E-35
   4.930000     -2.6385853E-35
   4.940000     -2.7903429E-35
   4.950000     -2.9363961E-35
   4.960000     -3.0688177E-35
   4.970000     -3.1817441E-35
   4.980000     -3.2969038E-35
   4.990000     -3.3970794E-35
   5.000000     -3.4114585E-35
   5.010000     -3.3584221E-35
   5.020000     -3.2886010E-35
   5.030000     -3.2326617E-35
   5.040000     -3.1886472E-35
   5.050000     -3.1211559E-35
   5.060000     -3.0205794E-35
   5.070000     -2.8827220E-35
   5.080000     -2.7452922E-35
   5.090000     -2.6108347E-35
   5.100000     -2.4378438E-35
   5.110000     -2.2186698E-35
   5.120000     -1.9602061E-35
   5.130000     -1.6600351E-35
   5.140000     -1.3188585E-35
   5.150000     -9.4427948E-36
   5.160000     -5.7828069E-36
   5.170000     -2.8118338E-36
   5.180000     -1.0863444E-37
   5.190000      2.6751863E-36
   5.200000      5.8203501E-36
   5.210000      9.9020626E-36
   5.220000      1.4485227E-35
   5.230000      2.2077126E-35
   5.240000      3.4573786E-35
   5.250000      4.7966064E-35
   5.260000      6.0903992E-35
   5.270000      7.8549649E-35
   5.280000      1.0080687E-34
   5.290000      1.2466689E-34
   5.300000      1.5132143E-34
   5.310000      1.7826099E-34
   5.320000      2.0363096E-34
   5.330000      2.2911666E-34
   5.340000      2.5241893E-34
   5.350000      2.7211842E-34
   5.360000      2.8927878E-34
   5.370000      3.0368942E-34
   5.380000      3.1299518E-34
   5.390000      3.1895471E-34
   5.400000      3.2614490E-34
   5.410000      3.3389729E-34
   5.420000      3.4030754E-34
   5.430000      3.4511378E-34
   5.440000      3.4912430E-34
   5.450000      3.5434469E-34
   5.460000      3.6072815E-34
   5.470000      3.6458329E-34
   5.480000      3.6453832E-34
   5.490000      3.6198090E-34
   5.500000      3.5769432E-34
   5.510000      3.5333227E-34
   5.520000      3.4903403E-34
   5.530000      3.4323618E-34
   5.540000      3.3544690E-34
   5.550000      3.2375133E-34
   5.560000      3.0981288E-34
   5.570000      2.9483807E-34
   5.580000      2.7721302E-34
   5.590000      2.5783810E-34
   5.600000      2.3571375E-34
   5.610000      2.0837070E-34
   5.620000      1.7552214E-34
   5.630000      1.3710358E-34
   5.640000      9.2846335E-35
   5.650000      4.1273372E-35
   5.660000     -1.8123392E-35
   5.670000     -8.4029806E-35
   5.680000     -1.5700909E-34
   5.690000     -2.3596208E-34
   5.700000     -3.2089648E-34
   5.710000     -4.1634940E-34
   5.720000     -5.2505420E-34
   5.730000     -6.4214625E-34
   5.740000     -7.6370307E-34
   5.750000     -8.9358059E-34
   5.760000     -1.0314342E-33
   5.770000     -1.1746057E-33
   5.780000     -1.3232864E-33
   5.790000     -1.4758445E-33
   5.800000     -1.6315311E-33
   5.810000     -1.7903844E-33
   5.820000     -1.9512949E-33
   5.830000     -2.1130519E-33
   5.840000     -2.2753265E-33
   5.850000     -2.4362750E-33
   5.860000     -2.5959843E-33
   5.870000     -2.7555002E-33
   5.880000     -2.9121861E-33
   5.890000     -3.0670723E-33
   5.900000     -3.2205232E-33
   5.910000     -3.3677322E-33
   5.920000     -3.5141319E-33
   5.930000     -3.6598025E-33
   5.940000     -3.7985604E-33
   5.950000     -3.9320899E-33
   5.960000     -4.0599037E-33
   5.970000     -4.1815875E-33
   5.980000     -4.2961578E-33
   5.990000     -4.4019799E-33
   6.000000     -4.4976993E-33
   6.010000     -4.5819069E-33
   6.020000     -4.6520597E-33
   6.030000     -4.7056519E-33
   6.040000     -4.7408848E-33
   6.050000     -4.7552233E-33
   6.060000     -4.7460122E-33
   6.070000     -4.7107385E-33
   6.080000     -4.6464522E-33
   6.090000     -4.5501641E-33
   6.100000     -4.4188974E-33
   6.110000     -4.2498878E-33
   6.120000     -4.0405745E-33
   6.130000     -3.7880327E-33
   6.140000     -3.4894899E-33
   6.150000     -3.1423998E-33
   6.160000     -2.7444504E-33
   6.170000     -2.2935641E-33
   6.180000     -1.7878722E-33
   6.190000     -1.2250048E-33
   6.200000     -6.0404086E-34
   6.210000      7.5510112E-35
   6.220000      8.1520184E-34
   6.230000      1.6158514E-33
   6.240000      2.4780595E-33
   6.250000      3.4023251E-33
   6.260000      4.3891251E-33
   6.270000      5.4388559E-33
   6.280000      6.5521989E-33
   6.290000      7.7290576E-33
   6.300000      8.9695538E-33
   6.310000      1.0273784E-32
   6.320000      1.1641438E-32
   6.330000      1.3072897E-32
   6.340000      1.4567924E-32
   6.350000      1.6125862E-32
   6.360000      1.7746075E-32
   6.370000      1.9427530E-32
   6.380000      2.1168567E-32
   6.390000      2.2967489E-32
   6.400000      2.4821421E-32
   6.410000      2.6726857E-32
   6.420000      2.8680328E-32
   6.430000      3.0677361E-32
   6.440000      3.2712688E-32
   6.450000      3.4780274E-32
   6.460000      3.6873233E-32
   6.470000      3.8983821E-32
   6.480000      4.1103385E-32
   6.490000      4.3222384E-32
   6.500000      4.5330218E-32
   6.510000      4.7415337E-32
   6.520000      4.9465308E-32
   6.530000      5.1466640E-32
   6.540000      5.3405030E-32
   6.550000      5.5265273E-32
   6.560000      5.7031177E-32
   6.570000      5.8686079E-32
   6.580000      6.0211983E-32
   6.590000      6.1590215E-32
   6.600000      6.2802026E-32
   6.610000      6.3827797E-32
   6.620000      6.4647370E-32
   6.630000      6.5240078E-32
   6.640000      6.5584756E-32
   6.650000      6.5659852E-32
   6.660000      6.5443179E-32
   6.670000      6.4911680E-32
   6.680000      6.4042784E-32
   6.690000      6.2813375E-32
   6.700000      6.1199004E-32
   6.710000      5.9175144E-32
   6.720000      5.6716791E-32
   6.730000      5.3798538E-32
   6.740000      5.0394601E-32
   6.750000      4.6478900E-32
   6.760000      4.2025146E-32
   6.770000      3.7006957E-32
   6.780000      3.1398524E-32
   6.790000      2.5173097E-32
   6.800000      1.8304246E-32
   6.810000      1.0767153E-32
   6.820000      2.5370974E-33
   6.830000     -6.4097334E-33
   6.840000     -1.6096060E-32
   6.850000     -2.6543374E-32
   6.860000     -3.7771628E-32
   6.870000     -4.9798966E-32
   6.880000     -6.2641577E-32
   6.890000     -7.6313334E-32
   6.900000     -9.0825464E-32
   6.910000     -1.0618635E-31
   6.920000     -1.2240119E-31
   6.930000     -1.3947177E-31
   6.940000     -1.5739603E-31
   6.950000     -1.7616792E-31
   6.960000     -1.9577706E-31
   6.970000     -2.1620846E-31
   6.980000     -2.3744227E-31
   6.990000     -2.5945356E-31
   7.000000     -2.8221210E-31
   7.010000     -3.0568206E-31
   7.020000     -3.2982183E-31
   7.030000     -3.5458383E-31
   7.040000     -3.7991425E-31
   7.050000     -4.0575277E-31
   7.060000     -4.3203245E-31