  -2.600000      0.0000000E+00
  -2.590000      0.0000000E+00
  -2.580000      0.0000000E+00
  -2.570000      0.0000000E+00
  -2.560000      0.0000000E+00
  -2.550000      0.0000000E+00
  -2.540000      0.0000000E+00
  -2.530000      0.0000000E+00
  -2.520000      0.0000000E+00
  -2.510000      0.0000000E+00
  -2.500000      0.0000000E+00
  -2.490000      0.0000000E+00
  -2.480000      0.0000000E+00
  -2.470000      0.0000000E+00
  -2.460000      0.0000000E+00
  -2.450000      0.0000000E+00
  -2.440000      0.0000000E+00
  -2.430000      0.0000000E+00
  -2.420000      0.0000000E+00
  -2.410000      0.0000000E+00
  -2.400000      0.0000000E+00
  -2.390000      0.0000000E+00
  -2.380000      0.0000000E+00
  -2.370000      0.0000000E+00
  -2.360000      0.0000000E+00
  -2.350000      0.0000000E+00
  -2.340000      0.0000000E+00
  -2.330000      0.0000000E+00
  -2.320000      0.0000000E+00
  -2.310000      0.0000000E+00
  -2.300000      0.0000000E+00
  -2.290000      0.0000000E+00
  -2.280000      0.0000000E+00
  -2.270000      0.0000000E+00
  -2.260000      0.0000000E+00
  -2.250000      0.0000000E+00
  -2.240000      0.0000000E+00
  -2.230000      0.0000000E+00
  -2.220000      0.0000000E+00
  -2.210000      0.0000000E+00
  -2.200000      0.0000000E+00
  -2.190000      0.0000000E+00
  -2.180000      0.0000000E+00
  -2.170000      0.0000000E+00
  -2.160000      0.0000000E+00
  -2.150000      0.0000000E+00
  -2.140000      0.0000000E+00
  -2.130000      0.0000000E+00
  -2.120000      0.0000000E+00
  -2.110000      0.0000000E+00
  -2.100000      0.0000000E+00
  -2.090000      0.0000000E+00
  -2.080000      0.0000000E+00
  -2.070000      0.0000000E+00
  -2.060000      0.0000000E+00
  -2.050000      0.0000000E+00
  -2.040000      0.0000000E+00
  -2.030000      0.0000000E+00
  -2.020000      0.0000000E+00
  -2.010000      0.0000000E+00
  -2.000000      0.0000000E+00
  -1.990000      0.0000000E+00
  -1.980000      0.0000000E+00
  -1.970000      0.0000000E+00
  -1.960000      0.0000000E+00
  -1.950000      0.0000000E+00
  -1.940000      0.0000000E+00
  -1.930000      0.0000000E+00
  -1.920000      0.0000000E+00
  -1.910000      0.0000000E+00
  -1.900000      0.0000000E+00
  -1.890000      0.0000000E+00
  -1.880000      0.0000000E+00
  -1.870000      0.0000000E+00
  -1.860000      0.0000000E+00
  -1.850000      0.0000000E+00
  -1.840000      0.0000000E+00
  -1.830000      0.0000000E+00
  -1.820000      0.0000000E+00
  -1.810000      0.0000000E+00
  -1.800000      0.0000000E+00
  -1.790000      0.0000000E+00
  -1.780000      0.0000000E+00
  -1.770000      0.0000000E+00
  -1.760000      0.0000000E+00
  -1.750000      0.0000000E+00
  -1.740000      0.0000000E+00
  -1.730000      0.0000000E+00
  -1.720000      0.0000000E+00
  -1.710000      0.0000000E+00
  -1.700000      0.0000000E+00
  -1.690000      0.0000000E+00
  -1.680000      0.0000000E+00
  -1.670000      0.0000000E+00
  -1.660000      0.0000000E+00
  -1.650000      0.0000000E+00
  -1.640000      0.0000000E+00
  -1.630000      0.0000000E+00
  -1.620000      0.0000000E+00
  -1.610000      0.0000000E+00
  -1.600000      0.0000000E+00
  -1.590000      0.0000000E+00
  -1.580000      0.0000000E+00
  -1.570000      0.0000000E+00
  -1.560000      0.0000000E+00
  -1.550000      0.0000000E+00
  -1.540000      0.0000000E+00
  -1.530000      0.0000000E+00
  -1.520000      0.0000000E+00
  -1.510000      0.0000000E+00
  -1.500000      0.0000000E+00
  -1.490000      0.0000000E+00
  -1.480000      0.0000000E+00
  -1.470000      0.0000000E+00
  -1.460000      0.0000000E+00
  -1.450000      0.0000000E+00
  -1.440000      0.0000000E+00
  -1.430000      0.0000000E+00
  -1.420000      0.0000000E+00
  -1.410000      0.0000000E+00
  -1.400000      0.0000000E+00
  -1.390000      0.0000000E+00
  -1.380000      0.0000000E+00
  -1.370000      0.0000000E+00
  -1.360000      0.0000000E+00
  -1.350000      0.0000000E+00
  -1.340000      0.0000000E+00
  -1.330000      0.0000000E+00
  -1.320000      0.0000000E+00
  -1.310000      0.0000000E+00
  -1.300000      0.0000000E+00
  -1.290000      0.0000000E+00
  -1.280000      0.0000000E+00
  -1.270000      0.0000000E+00
  -1.260000      0.0000000E+00
  -1.250000      0.0000000E+00
  -1.240000      0.0000000E+00
  -1.230000      0.0000000E+00
  -1.220000      0.0000000E+00
  -1.210000      0.0000000E+00
  -1.200000      0.0000000E+00
  -1.190000      0.0000000E+00
  -1.180000      0.0000000E+00
  -1.170000      0.0000000E+00
  -1.160000      0.0000000E+00
  -1.150000      0.0000000E+00
  -1.140000      0.0000000E+00
  -1.130000      0.0000000E+00
  -1.120000      0.0000000E+00
  -1.110000      0.0000000E+00
  -1.100000      0.0000000E+00
  -1.090000      0.0000000E+00
  -1.080000      0.0000000E+00
  -1.070000      0.0000000E+00
  -1.060000      0.0000000E+00
  -1.050000      0.0000000E+00
  -1.040000     -1.5106716E-38
  -1.030000     -2.1400958E-38
  -1.020000     -2.8663106E-38
  -1.010000     -3.6419330E-38
  -1.000000     -1.4548879E-38
 -0.9900000      4.6140779E-38
 -0.9800000      1.2133750E-37
 -0.9700000      2.0734655E-37
 -0.9600000      2.7824855E-37
 -0.9500000      3.1799220E-37
 -0.9400000      3.1736081E-37
 -0.9300000      2.4742027E-37
 -0.9200000      1.0970174E-37
 -0.9100000     -9.2745118E-38
 -0.9000000     -3.6857867E-37
 -0.8900000     -6.4500432E-37
 -0.8800000     -8.4935171E-37
 -0.8700000     -9.7830291E-37
 -0.8600000     -1.0246206E-36
 -0.8500000     -9.6435244E-37
 -0.8400000     -7.6977661E-37
 -0.8300000     -4.3418576E-37
 -0.8200000      3.4564554E-38
 -0.8100000      5.7893155E-37
 -0.8000000      1.1454823E-36
 -0.7900000      1.7337677E-36
 -0.7800000      2.3356161E-36
 -0.7700000      2.9445522E-36
 -0.7600000      3.5183596E-36
 -0.7500000      4.1302616E-36
 -0.7400000      5.0654293E-36
 -0.7300000      6.2050662E-36
 -0.7200000      7.0231267E-36
 -0.7100000      6.5361367E-36
 -0.7000000      4.7779738E-36
 -0.6900000      2.2183330E-36
 -0.6800000     -2.1449472E-36
 -0.6700000     -6.5188573E-36
 -0.6600000     -9.9023582E-36
 -0.6500000     -1.4496418E-35
 -0.6400000     -2.0116359E-35
 -0.6300000     -2.5360346E-35
 -0.6200000     -3.0444569E-35
 -0.6100000     -3.5323456E-35
 -0.6000000     -3.8047268E-35
 -0.5900000     -3.8877891E-35
 -0.5800000     -3.8938813E-35
 -0.5700000     -3.7100226E-35
 -0.5600000     -3.2678539E-35
 -0.5500000     -2.5050812E-35
 -0.5400000     -1.3304541E-35
 -0.5300000      2.9550939E-36
 -0.5200000      2.4652605E-35
 -0.5100000      5.2112930E-35
 -0.5000000      8.4676965E-35
 -0.4900000      1.2311077E-34
 -0.4800000      1.6709340E-34
 -0.4700000      2.1262498E-34
 -0.4600000      2.5598238E-34
 -0.4500000      2.9465162E-34
 -0.4400000      3.2427414E-34
 -0.4300000      3.3881299E-34
 -0.4200000      3.2733268E-34
 -0.4100000      2.8146133E-34
 -0.4000000      2.0659368E-34
 -0.3900000      9.9613079E-35
 -0.3800000     -4.3913160E-35
 -0.3700000     -2.2014582E-34
 -0.3600000     -4.2470776E-34
 -0.3500000     -6.5303863E-34
 -0.3400000     -9.0528833E-34
 -0.3300000     -1.1680549E-33
 -0.3200000     -1.4325012E-33
 -0.3100000     -1.6825493E-33
 -0.3000000     -1.8900362E-33
 -0.2900000     -2.0341081E-33
 -0.2800000     -2.0932472E-33
 -0.2700000     -2.0366026E-33
 -0.2600000     -1.8371375E-33
 -0.2500000     -1.4755381E-33
 -0.2400000     -9.2208321E-34
 -0.2300000     -1.6024848E-34
 -0.2200000      8.1565615E-34
 -0.2100000      2.0074766E-33
 -0.2000000      3.4054659E-33
 -0.1900000      4.9855162E-33
 -0.1800000      6.7035666E-33
 -0.1700000      8.4951537E-33
 -0.1600000      1.0276341E-32
 -0.1500000      1.1947938E-32
 -0.1400000      1.3388028E-32
 -0.1300000      1.4449055E-32
 -0.1200000      1.4978703E-32
 -0.1100000      1.4820900E-32
 -0.1000000      1.3813582E-32
 -9.0000004E-02  1.1802337E-32
 -7.9999998E-02  8.6501088E-33
 -7.0000000E-02  4.2464928E-33
 -5.9999999E-02 -1.4792729E-33
 -5.0000001E-02 -8.5481310E-33
 -3.9999999E-02 -1.6920017E-32
 -2.9999999E-02 -2.6475086E-32
 -2.0000000E-02 -3.7006675E-32
 -9.9999998E-03 -4.8215355E-32
 -3.4694470E-17 -5.9700055E-32
  9.9999998E-03 -7.0955807E-32
  2.0000000E-02 -8.1378005E-32
  2.9999999E-02 -9.0268815E-32
  3.9999999E-02 -9.6850308E-32
  5.0000001E-02 -1.0028771E-31
  5.9999999E-02 -9.9717362E-32
  7.0000000E-02 -9.4285250E-32
  7.9999998E-02 -8.3192086E-32
  9.0000004E-02 -6.5747162E-32
  0.1000000     -4.1432173E-32
  0.1100000     -9.9722292E-33
  0.1200000      2.8586183E-32
  0.1300000      7.3789848E-32
  0.1400000      1.2468918E-31
  0.1500000      1.7974489E-31
  0.1600000      2.3672886E-31
  0.1700000      2.9262874E-31
  0.1800000      3.4355224E-31
  0.1900000      3.8463085E-31
  0.2000000      4.0993033E-31
  0.2100000      4.1236586E-31
  0.2200000      3.8362399E-31
  0.2300000      3.1409265E-31
  0.2400000      1.9280063E-31
  0.2500000      7.3654000E-33
  0.2600000     -2.5604663E-31
  0.2700000     -6.1274923E-31
  0.2800000     -1.0795574E-30
  0.2900000     -1.6747928E-30
  0.3000000     -2.4182774E-30
  0.3100000     -3.3313171E-30
  0.3200000     -4.4366753E-30
  0.3300000     -5.7585249E-30
  0.3400000     -7.3223902E-30
  0.3500000     -9.1550682E-30
  0.3600000     -1.1284546E-29
  0.3700000     -1.3739882E-29
  0.3800000     -1.6551069E-29
  0.3900000     -1.9748881E-29
  0.4000000     -2.3364675E-29
  0.4100000     -2.7430187E-29
  0.4200000     -3.1977277E-29
  0.4300000     -3.7037649E-29
  0.4400000     -4.2642539E-29
  0.4500000     -4.8822363E-29
  0.4600000     -5.5606352E-29
  0.4700000     -6.3022139E-29
  0.4800000     -7.1095379E-29
  0.4900000     -7.9849260E-29
  0.5000000     -8.9304096E-29
  0.5100000     -9.9476906E-29
  0.5200000     -1.1038103E-28
  0.5300000     -1.2202577E-28
  0.5400000     -1.3441613E-28
  0.5500000     -1.4755253E-28
  0.5600000     -1.6143079E-28
  0.5700000     -1.7604203E-28
  0.5800000     -1.9137292E-28
  0.5900000     -2.0740578E-28
  0.6000000     -2.2411914E-28
  0.6100000     -2.4148829E-28
  0.6200000     -2.5948615E-28
  0.6300000     -2.7808416E-28
  0.6400000     -2.9725330E-28
  0.6500000     -3.1696546E-28
  0.6600000     -3.3719473E-28
  0.6700000     -3.5791894E-28
  0.6800000     -3.7912109E-28
  0.6900000     -4.0079139E-28
  0.7000000     -4.2292849E-28
  0.7100000     -4.4554107E-28
  0.7200000     -4.6864982E-28
  0.7300000     -4.9228830E-28
  0.7400000     -5.1650480E-28
  0.7500000     -5.4136311E-28
  0.7600000     -5.6694380E-28
  0.7700000     -5.9334483E-28
  0.7800000     -6.2068206E-28
  0.7900000     -6.4908952E-28
  0.8000000     -6.7871952E-28
  0.8100000     -7.0974308E-28
  0.8200000     -7.4234902E-28
  0.8300000     -7.7674411E-28
  0.8400000     -8.1315256E-28
  0.8500000     -8.5181513E-28
  0.8600000     -8.9298872E-28
  0.8700000     -9.3694585E-28
  0.8800000     -9.8397456E-28
  0.8900000     -1.0343770E-27
  0.9000000     -1.0884695E-27
  0.9100000     -1.1465821E-27
  0.9200000     -1.2090578E-27
  0.9300000     -1.2762534E-27
  0.9400000     -1.3485378E-27
  0.9500000     -1.4262930E-27
  0.9600000     -1.5099133E-27
  0.9700000     -1.5998043E-27
  0.9800000     -1.6963830E-27
  0.9900000     -1.8000768E-27
   1.000000     -1.9113212E-27
   1.010000     -2.0305594E-27
   1.020000     -2.1582404E-27
   1.030000     -2.2948160E-27
   1.040000     -2.4407385E-27
   1.050000     -2.5964582E-27
   1.060000     -2.7624195E-27
   1.070000     -2.9390587E-27
   1.080000     -3.1268004E-27
   1.090000     -3.3260510E-27
   1.100000     -3.5371976E-27
   1.110000     -3.7606101E-27
   1.120000     -3.9966317E-27
   1.130000     -4.2455801E-27
   1.140000     -4.5077465E-27
   1.150000     -4.7833960E-27
   1.160000     -5.0727704E-27
   1.170000     -5.3760851E-27
   1.180000     -5.6935342E-27
   1.190000     -6.0252980E-27
   1.200000     -6.3715448E-27
   1.210000     -6.7324356E-27
   1.220000     -7.1081352E-27
   1.230000     -7.4988155E-27
   1.240000     -7.9046559E-27
   1.250000     -8.3258653E-27
   1.260000     -8.7626685E-27
   1.270000     -9.2153198E-27
   1.280000     -9.6841104E-27
   1.290000     -1.0169365E-26
   1.300000     -1.0671435E-26
   1.310000     -1.1190712E-26
   1.320000     -1.1727617E-26
   1.330000     -1.2282586E-26
   1.340000     -1.2856082E-26
   1.350000     -1.3448579E-26
   1.360000     -1.4060546E-26
   1.370000     -1.4692443E-26
   1.380000     -1.5344708E-26
   1.390000     -1.6017750E-26
   1.400000     -1.6711941E-26
   1.410000     -1.7427601E-26
   1.420000     -1.8164991E-26
   1.430000     -1.8924295E-26
   1.440000     -1.9705647E-26
   1.450000     -2.0509105E-26
   1.460000     -2.1334652E-26
   1.470000     -2.2182211E-26
   1.480000     -2.3051622E-26
   1.490000     -2.3942648E-26
   1.500000     -2.4855007E-26
   1.510000     -2.5788364E-26
   1.520000     -2.6742311E-26
   1.530000     -2.7716381E-26
   1.540000     -2.8710066E-26
   1.550000     -2.9722784E-26
   1.560000     -3.0753893E-26
   1.570000     -3.1802650E-26
   1.580000     -3.2868219E-26
   1.590000     -3.3949655E-26
   1.600000     -3.5045870E-26
   1.610000     -3.6155591E-26
   1.620000     -3.7277360E-26
   1.630000     -3.8409474E-26
   1.640000     -3.9549967E-26
   1.650000     -4.0696591E-26
   1.660000     -4.1846769E-26
   1.670000     -4.2997548E-26
   1.680000     -4.4145633E-26
   1.690000     -4.5287327E-26
   1.700000     -4.6418539E-26
   1.710000     -4.7534789E-26
   1.720000     -4.8631201E-26
   1.730000     -4.9702465E-26
   1.740000     -5.0742929E-26
   1.750000     -5.1746631E-26
   1.760000     -5.2707291E-26
   1.770000     -5.3618450E-26
   1.780000     -5.4473434E-26
   1.790000     -5.5265389E-26
   1.800000     -5.5987357E-26
   1.810000     -5.6632324E-26
   1.820000     -5.7193291E-26
   1.830000     -5.7663267E-26
   1.840000     -5.8035264E-26
   1.850000     -5.8302386E-26
   1.860000     -5.8457853E-26
   1.870000     -5.8494954E-26
   1.880000     -5.8407040E-26
   1.890000     -5.8187477E-26
   1.900000     -5.7829680E-26
   1.910000     -5.7327138E-26
   1.920000     -5.6673339E-26
   1.930000     -5.5861811E-26
   1.940000     -5.4885984E-26
   1.950000     -5.3739251E-26
   1.960000     -5.2414994E-26
   1.970000     -5.0906649E-26
   1.980000     -4.9207652E-26
   1.990000     -4.7311498E-26
   2.000000     -4.5211846E-26
   2.010000     -4.2902613E-26
   2.020000     -4.0378129E-26
   2.030000     -3.7633136E-26
   2.040000     -3.4662946E-26
   2.050000     -3.1463708E-26
   2.060000     -2.8032499E-26
   2.070000     -2.4367323E-26
   2.080000     -2.0467260E-26
   2.090000     -1.6332678E-26
   2.100000     -1.1965298E-26
   2.110000     -7.3681712E-27
   2.120000     -2.5459265E-27
   2.130000      2.4953581E-27
   2.140000      7.7481818E-27
   2.150000      1.3203393E-26
   2.160000      1.8850551E-26
   2.170000      2.4677953E-26
   2.180000      3.0672598E-26
   2.190000      3.6820382E-26
   2.200000      4.3106167E-26
   2.210000      4.9513838E-26
   2.220000      5.6026381E-26
   2.230000      6.2626077E-26
   2.240000      6.9294380E-26
   2.250000      7.6011944E-26
   2.260000      8.2758676E-26
   2.270000      8.9513563E-26
   2.280000      9.6254675E-26
   2.290000      1.0295891E-25
   2.300000      1.0960200E-25
   2.310000      1.1615823E-25
   2.320000      1.2260031E-25
   2.330000      1.2889911E-25
   2.340000      1.3502352E-25
   2.350000      1.4094053E-25
   2.360000      1.4661488E-25
   2.370000      1.5200894E-25
   2.380000      1.5708285E-25
   2.390000      1.6179457E-25
   2.400000      1.6609999E-25
   2.410000      1.6995292E-25
   2.420000      1.7330554E-25
   2.430000      1.7610864E-25
   2.440000      1.7831192E-25
   2.450000      1.7986446E-25
   2.460000      1.8071515E-25
   2.470000      1.8081314E-25
   2.480000      1.8010819E-25
   2.490000      1.7855115E-25
   2.500000      1.7609476E-25
   2.510000      1.7269351E-25
   2.520000      1.6830416E-25
   2.530000      1.6288595E-25
   2.540000      1.5640073E-25
   2.550000      1.4881308E-25
   2.560000      1.4009037E-25
   2.570000      1.3020264E-25
   2.580000      1.1912259E-25
   2.590000      1.0682535E-25
   2.600000      9.3288447E-26
   2.610000      7.8491697E-26
   2.620000      6.2416930E-26
   2.630000      4.5048207E-26
   2.640000      2.6372033E-26
   2.650000      6.3765745E-27
   2.660000     -1.4947526E-26
   2.670000     -3.7606549E-26
   2.680000     -6.1603442E-26
   2.690000     -8.6937686E-26
   2.700000     -1.1360468E-25
   2.710000     -1.4159502E-25
   2.720000     -1.7089295E-25
   2.730000     -2.0147559E-25
   2.740000     -2.3331330E-25
   2.750000     -2.6636793E-25
   2.760000     -3.0059197E-25
   2.770000     -3.3592845E-25
   2.780000     -3.7231032E-25
   2.790000     -4.0965988E-25
   2.800000     -4.4788949E-25
   2.810000     -4.8690083E-25
   2.820000     -5.2658502E-25
   2.830000     -5.6682392E-25
   2.840000     -6.0749000E-25
   2.850000     -6.4844820E-25
   2.860000     -6.8955742E-25
   2.870000     -7.3067024E-25
   2.880000     -7.7163356E-25
   2.890000     -8.1229229E-25
   2.900000     -8.5248865E-25
   2.910000     -8.9206235E-25
   2.920000     -9.3085360E-25
   2.930000     -9.6870315E-25
   2.940000     -1.0054536E-24
   2.950000     -1.0409492E-24
   2.960000     -1.0750360E-24
   2.970000     -1.1075636E-24
   2.980000     -1.1383831E-24
   2.990000     -1.1673489E-24
   3.000000     -1.1943182E-24
   3.010000     -1.2191503E-24
   3.020000     -1.2417085E-24
   3.030000     -1.2618585E-24
   3.040000     -1.2794697E-24
   3.050000     -1.2944176E-24
   3.060000     -1.3065816E-24
   3.070000     -1.3158470E-24
   3.080000     -1.3221070E-24
   3.090000     -1.3252634E-24
   3.100000     -1.3252301E-24
   3.110000     -1.3219350E-24
   3.120000     -1.3153240E-24
   3.130000     -1.3053634E-24
   3.140000     -1.2920430E-24
   3.150000     -1.2753784E-24
   3.160000     -1.2554150E-24
   3.170000     -1.2322325E-24
   3.180000     -1.2059457E-24
   3.190000     -1.1767059E-24
   3.200000     -1.1447050E-24
   3.210000     -1.1101743E-24
   3.220000     -1.0733877E-24
   3.230000     -1.0346615E-24
   3.240000     -9.9435325E-25
   3.250000     -9.5286114E-25
   3.260000     -9.1062237E-25
   3.270000     -8.6811224E-25
   3.280000     -8.2584172E-25
   3.290000     -7.8435533E-25
   3.300000     -7.4422873E-25
   3.310000     -7.0606601E-25
   3.320000     -6.7049854E-25
   3.330000     -6.3818118E-25
   3.340000     -6.0979268E-25
   3.350000     -5.8603160E-25
   3.360000     -5.6761515E-25
   3.370000     -5.5528008E-25
   3.380000     -5.4977753E-25
   3.390000     -5.5187289E-25
   3.400000     -5.6234566E-25
   3.410000     -5.8198514E-25
   3.420000     -6.1159055E-25
   3.430000     -6.5196765E-25
   3.440000     -7.0392494E-25
   3.450000     -7.6826823E-25
   3.460000     -8.4579684E-25
   3.470000     -9.3729623E-25
   3.480000     -1.0435300E-24
   3.490000     -1.1652282E-24
   3.500000     -1.3030824E-24
   3.510000     -1.4577298E-24
   3.520000     -1.6297406E-24
   3.530000     -1.8196061E-24
   3.540000     -2.0277196E-24
   3.550000     -2.2543649E-24
   3.560000     -2.4996957E-24
   3.570000     -2.7637176E-24
   3.580000     -3.0462743E-24
   3.590000     -3.3470276E-24
   3.600000     -3.6654406E-24
   3.610000     -4.0007637E-24
   3.620000     -4.3520099E-24
   3.630000     -4.7179455E-24
   3.640000     -5.0970733E-24
   3.650000     -5.4876107E-24
   3.660000     -5.8874871E-24
   3.670000     -6.2943216E-24
   3.680000     -6.7054124E-24
   3.690000     -7.1177318E-24
   3.700000     -7.5278992E-24
   3.710000     -7.9321692E-24
   3.720000     -8.3264190E-24
   3.730000     -8.7061356E-24
   3.740000     -9.0664005E-24
   3.750000     -9.4018699E-24
   3.760000     -9.7067552E-24
   3.770000     -9.9748211E-24
   3.780000     -1.0199368E-23
   3.790000     -1.0373203E-23
   3.800000     -1.0488620E-23
   3.810000     -1.0537397E-23
   3.820000     -1.0510776E-23
   3.830000     -1.0399455E-23
   3.840000     -1.0193586E-23
   3.850000     -9.8827461E-24
   3.860000     -9.4559495E-24
   3.870000     -8.9016358E-24
   3.880000     -8.2076780E-24
   3.890000     -7.3613960E-24
   3.900000     -6.3495659E-24
   3.910000     -5.1584384E-24
   3.920000     -3.7737694E-24
   3.930000     -2.1808468E-24
   3.940000     -3.6452631E-25
   3.950000      1.6907445E-24
   3.960000      4.0008580E-24
   3.970000      6.5819943E-24
   3.980000      9.4505939E-24
   3.990000      1.2623276E-23
   4.000000      1.6116768E-23
   4.010000      1.9947856E-23
   4.020000      2.4133295E-23
   4.030000      2.8689729E-23
   4.040000      3.3633615E-23
   4.050000      3.8981126E-23
   4.060000      4.4748043E-23
   4.070000      5.0949677E-23
   4.080000      5.7600730E-23
   4.090000      6.4715233E-23
   4.100000      7.2306334E-23
   4.110000      8.0386239E-23
   4.120000      8.8966042E-23
   4.130000      9.8055562E-23
   4.140000      1.0766322E-22
   4.150000      1.1779582E-22
   4.160000      1.2845836E-22
   4.170000      1.3965389E-22
   4.180000      1.5138332E-22
   4.190000      1.6364514E-22
   4.200000      1.7643525E-22
   4.210000      1.8974666E-22
   4.220000      2.0356928E-22
   4.230000      2.1788972E-22
   4.240000      2.3269100E-22
   4.250000      2.4795221E-22
   4.260000      2.6364842E-22
   4.270000      2.7975022E-22
   4.280000      2.9622358E-22
   4.290000      3.1302952E-22
   4.300000      3.3012385E-22
   4.310000      3.4745683E-22
   4.320000      3.6497300E-22
   4.330000      3.8261089E-22
   4.340000      4.0030281E-22
   4.350000      4.1797440E-22
   4.360000      4.3554457E-22
   4.370000      4.5292511E-22
   4.380000      4.7002049E-22
   4.390000      4.8672783E-22
   4.400000      5.0293636E-22
   4.410000      5.1852728E-22
   4.420000      5.3337372E-22
   4.430000      5.4734037E-22
   4.440000      5.6028330E-22
   4.450000      5.7204987E-22
   4.460000      5.8247853E-22
   4.470000      5.9139885E-22
   4.480000      5.9863138E-22
   4.490000      6.0398750E-22
   4.500000      6.0726932E-22
   4.510000      6.0826987E-22
   4.520000      6.0677293E-22
   4.530000      6.0255326E-22
   4.540000      5.9537662E-22
   4.550000      5.8500011E-22
   4.560000      5.7117225E-22
   4.570000      5.5363344E-22
   4.580000      5.3211609E-22
   4.590000      5.0634510E-22
   4.600000      4.7603830E-22
   4.610000      4.4090721E-22
   4.620000      4.0065730E-22
   4.630000      3.5498907E-22
   4.640000      3.0359881E-22
   4.650000      2.4617943E-22
   4.660000      1.8242121E-22
   4.670000      1.1201259E-22
   4.680000      3.4641590E-23
   4.690000     -5.0002987E-23
   4.700000     -1.4223018E-22
   4.710000     -2.4234595E-22
   4.720000     -3.5065132E-22
   4.730000     -4.6744091E-22
   4.740000     -5.9300136E-22
   4.750000     -7.2760971E-22
   4.760000     -8.7153131E-22
   4.770000     -1.0250183E-21
   4.780000     -1.1883068E-21
   4.790000     -1.3616149E-21
   4.800000     -1.5451412E-21
   4.810000     -1.7390612E-21
   4.820000     -1.9435257E-21
   4.830000     -2.1586573E-21
   4.840000     -2.3845487E-21
   4.850000     -2.6212592E-21
   4.860000     -2.8688118E-21
   4.870000     -3.1271904E-21
   4.880000     -3.3963374E-21
   4.890000     -3.6761494E-21
   4.900000     -3.9664736E-21
   4.910000     -4.2671061E-21
   4.920000     -4.5777867E-21
   4.930000     -4.8981964E-21
   4.940000     -5.2279531E-21
   4.950000     -5.5666081E-21
   4.960000     -5.9136443E-21
   4.970000     -6.2684692E-21
   4.980000     -6.6304144E-21
   4.990000     -6.9987307E-21
   5.000000     -7.3725824E-21
   5.010000     -7.7510491E-21
   5.020000     -8.1331152E-21
   5.030000     -8.5176726E-21
   5.040000     -8.9035136E-21
   5.050000     -9.2893304E-21
   5.060000     -9.6737084E-21
   5.070000     -1.0055125E-20
   5.080000     -1.0431952E-20
   5.090000     -1.0802441E-20
   5.100000     -1.1164729E-20
   5.110000     -1.1516837E-20
   5.120000     -1.1856666E-20
   5.130000     -1.2181991E-20
   5.140000     -1.2490465E-20
   5.150000     -1.2779616E-20
   5.160000     -1.3046844E-20
   5.170000     -1.3289427E-20
   5.180000     -1.3504515E-20
   5.190000     -1.3689132E-20
   5.200000     -1.3840176E-20
   5.210000     -1.3954429E-20
   5.220000     -1.4028542E-20
   5.230000     -1.4059054E-20
   5.240000     -1.4042389E-20
   5.250000     -1.3974853E-20
   5.260000     -1.3852650E-20
   5.270000     -1.3671884E-20
   5.280000     -1.3428558E-20
   5.290000     -1.3118589E-20
   5.300000     -1.2737813E-20
   5.310000     -1.2281999E-20
   5.320000     -1.1746844E-20
   5.330000     -1.1127998E-20
   5.340000     -1.0421068E-20
   5.350000     -9.6216332E-21
   5.360000     -8.7252522E-21
   5.370000     -7.7274825E-21
   5.380000     -6.6238951E-21
   5.390000     -5.4100904E-21
   5.400000     -4.0817147E-21
   5.410000     -2.6344780E-21
   5.420000     -1.0641769E-21
   5.430000      6.3328910E-22
   5.440000      2.4618894E-21
   5.450000      4.4254470E-21
   5.460000      6.5276090E-21
   5.470000      8.7718158E-21
   5.480000      1.1161293E-20
   5.490000      1.3699006E-20
   5.500000      1.6387634E-20
   5.510000      1.9229548E-20
   5.520000      2.2226781E-20
   5.530000      2.5380990E-20
   5.540000      2.8693425E-20
   5.550000      3.2164896E-20
   5.560000      3.5795747E-20
   5.570000      3.9585801E-20
   5.580000      4.3534328E-20
   5.590000      4.7640023E-20
   5.600000      5.1900940E-20
   5.610000      5.6314482E-20
   5.620000      6.0877359E-20
   5.630000      6.5585522E-20
   5.640000      7.0434164E-20
   5.650000      7.5417650E-20
   5.660000      8.0529471E-20
   5.670000      8.5762241E-20
   5.680000      9.1107631E-20
   5.690000      9.6556347E-20
   5.700000      1.0209808E-19
   5.710000      1.0772144E-19
   5.720000      1.1341398E-19
   5.730000      1.1916213E-19
   5.740000      1.2495114E-19
   5.750000      1.3076505E-19
   5.760000      1.3658671E-19
   5.770000      1.4239766E-19
   5.780000      1.4817818E-19
   5.790000      1.5390724E-19
   5.800000      1.5956252E-19
   5.810000      1.6512029E-19
   5.820000      1.7055548E-19
   5.830000      1.7584163E-19
   5.840000      1.8095092E-19
   5.850000      1.8585405E-19
   5.860000      1.9052039E-19
   5.870000      1.9491786E-19
   5.880000      1.9901308E-19
   5.890000      2.0277120E-19
   5.900000      2.0615601E-19
   5.910000      2.0912999E-19
   5.920000      2.1165424E-19
   5.930000      2.1368862E-19
   5.940000      2.1519171E-19
   5.950000      2.1612097E-19
   5.960000      2.1643265E-19
   5.970000      2.1608201E-19
   5.980000      2.1502327E-19
   5.990000      2.1320972E-19
   6.000000      2.1059379E-19
   6.010000      2.0712721E-19
   6.020000      2.0276104E-19
   6.030000      1.9744584E-19
   6.040000      1.9113178E-19
   6.050000      1.8376866E-19
   6.060000      1.7530618E-19
   6.070000      1.6569403E-19
   6.080000      1.5488207E-19
   6.090000      1.4282055E-19
   6.100000      1.2946023E-19
   6.110000      1.1475257E-19
   6.120000      9.8649973E-20
   6.130000      8.1105951E-20
   6.140000      6.2075362E-20
   6.150000      4.1514667E-20
   6.160000      1.9382120E-20
   6.170000     -4.3619403E-21
   6.180000     -2.9754808E-20
   6.190000     -5.6831224E-20
   6.200000     -8.5623042E-20
   6.210000     -1.1615892E-19
   6.220000     -1.4846406E-19
   6.230000     -1.8255981E-19
   6.240000     -2.1846354E-19
   6.250000     -2.5618812E-19
   6.260000     -2.9574150E-19
   6.270000     -3.3712669E-19
   6.280000     -3.8034114E-19
   6.290000     -4.2537647E-19
   6.300000     -4.7221828E-19
   6.310000     -5.2084559E-19
   6.320000     -5.7123051E-19
   6.330000     -6.2333793E-19
   6.340000     -6.7712509E-19
   6.350000     -7.3254133E-19
   6.360000     -7.8952766E-19
   6.370000     -8.4801641E-19
   6.380000     -9.0793071E-19
   6.390000     -9.6918447E-19
   6.400000     -1.0316819E-18
   6.410000     -1.0953167E-18
   6.420000     -1.1599723E-18
   6.430000     -1.2255218E-18
   6.440000     -1.2918268E-18
   6.450000     -1.3587375E-18
   6.460000     -1.4260926E-18
   6.470000     -1.4937190E-18
   6.480000     -1.5614314E-18
   6.490000     -1.6290321E-18
   6.500000     -1.6963110E-18
   6.510000     -1.7630451E-18
   6.520000     -1.8289987E-18
   6.530000     -1.8939231E-18
   6.540000     -1.9575570E-18
   6.550000     -2.0196258E-18
   6.560000     -2.0798414E-18
   6.570000     -2.1379033E-18
   6.580000     -2.1934981E-18
   6.590000     -2.2462993E-18
   6.600000     -2.2959676E-18
   6.610000     -2.3421509E-18
   6.620000     -2.3844856E-18
   6.630000     -2.4225959E-18
   6.640000     -2.4560953E-18
   6.650000     -2.4845854E-18
   6.660000     -2.5076574E-18
   6.670000     -2.5248919E-18
   6.680000     -2.5358613E-18
   6.690000     -2.5401292E-18
   6.700000     -2.5372504E-18
   6.710000     -2.5267733E-18
   6.720000     -2.5082397E-18
   6.730000     -2.4811864E-18
   6.740000     -2.4451459E-18
   6.750000     -2.3996476E-18
   6.760000     -2.3442193E-18
   6.770000     -2.2783877E-18
   6.780000     -2.2016812E-18
   6.790000     -2.1136297E-18
   6.800000     -2.0137675E-18
   6.810000     -1.9016330E-18
   6.820000     -1.7767728E-18
   6.830000     -1.6387419E-18
   6.840000     -1.4871060E-18
   6.850000     -1.3214436E-18
   6.860000     -1.1413470E-18
   6.870000     -9.4642635E-19
   6.880000     -7.3631032E-19
   6.890000     -5.1064801E-19
   6.900000     -2.6911236E-19
   6.910000     -1.1402425E-20
   6.920000      2.6275573E-19
   6.930000      5.5360427E-19
   6.940000      8.6135119E-19
   6.950000      1.1861698E-18
   6.960000      1.5281942E-18
   6.970000      1.8875168E-18
   6.980000      2.2641854E-18
   6.990000      2.6582005E-18
   7.000000      3.0695126E-18
   7.010000      3.4980211E-18
   7.020000      3.9435674E-18
   7.030000      4.4059366E-18
   7.040000      4.8848522E-18
   7.050000      5.3799707E-18
   7.060000      5.8908830E-18