  -2.600000      0.0000000E+00
  -2.590000      0.0000000E+00
  -2.580000      0.0000000E+00
  -2.570000      0.0000000E+00
  -2.560000      0.0000000E+00
  -2.550000      0.0000000E+00
  -2.540000      0.0000000E+00
  -2.530000      0.0000000E+00
  -2.520000      0.0000000E+00
  -2.510000      0.0000000E+00
  -2.500000      0.0000000E+00
  -2.490000      0.0000000E+00
  -2.480000      0.0000000E+00
  -2.470000      0.0000000E+00
  -2.460000      0.0000000E+00
  -2.450000      0.0000000E+00
  -2.440000      0.0000000E+00
  -2.430000      0.0000000E+00
  -2.420000      0.0000000E+00
  -2.410000      0.0000000E+00
  -2.400000      0.0000000E+00
  -2.390000      0.0000000E+00
  -2.380000      0.0000000E+00
  -2.370000      0.0000000E+00
  -2.360000      0.0000000E+00
  -2.350000      0.0000000E+00
  -2.340000      0.0000000E+00
  -2.330000      0.0000000E+00
  -2.320000      0.0000000E+00
  -2.310000      0.0000000E+00
  -2.300000      0.0000000E+00
  -2.290000      0.0000000E+00
  -2.280000      0.0000000E+00
  -2.270000      0.0000000E+00
  -2.260000      0.0000000E+00
  -2.250000      0.0000000E+00
  -2.240000      0.0000000E+00
  -2.230000      0.0000000E+00
  -2.220000      0.0000000E+00
  -2.210000      0.0000000E+00
  -2.200000      0.0000000E+00
  -2.190000      0.0000000E+00
  -2.180000      0.0000000E+00
  -2.170000      0.0000000E+00
  -2.160000      0.0000000E+00
  -2.150000      0.0000000E+00
  -2.140000      0.0000000E+00
  -2.130000      0.0000000E+00
  -2.120000      0.0000000E+00
  -2.110000      0.0000000E+00
  -2.100000      0.0000000E+00
  -2.090000      0.0000000E+00
  -2.080000      0.0000000E+00
  -2.070000      0.0000000E+00
  -2.060000      0.0000000E+00
  -2.050000      0.0000000E+00
  -2.040000      0.0000000E+00
  -2.030000      0.0000000E+00
  -2.020000      0.0000000E+00
  -2.010000      0.0000000E+00
  -2.000000      0.0000000E+00
  -1.990000      0.0000000E+00
  -1.980000      0.0000000E+00
  -1.970000      0.0000000E+00
  -1.960000      0.0000000E+00
  -1.950000      0.0000000E+00
  -1.940000      0.0000000E+00
  -1.930000      0.0000000E+00
  -1.920000      0.0000000E+00
  -1.910000      0.0000000E+00
  -1.900000      0.0000000E+00
  -1.890000      0.0000000E+00
  -1.880000      0.0000000E+00
  -1.870000      0.0000000E+00
  -1.860000      0.0000000E+00
  -1.850000      0.0000000E+00
  -1.840000      0.0000000E+00
  -1.830000      0.0000000E+00
  -1.820000      0.0000000E+00
  -1.810000      0.0000000E+00
  -1.800000      0.0000000E+00
  -1.790000      0.0000000E+00
  -1.780000      0.0000000E+00
  -1.770000      0.0000000E+00
  -1.760000      0.0000000E+00
  -1.750000      0.0000000E+00
  -1.740000      0.0000000E+00
  -1.730000      0.0000000E+00
  -1.720000      0.0000000E+00
  -1.710000      0.0000000E+00
  -1.700000      0.0000000E+00
  -1.690000      0.0000000E+00
  -1.680000      0.0000000E+00
  -1.670000      0.0000000E+00
  -1.660000      0.0000000E+00
  -1.650000      0.0000000E+00
  -1.640000      0.0000000E+00
  -1.630000      0.0000000E+00
  -1.620000      0.0000000E+00
  -1.610000      0.0000000E+00
  -1.600000      0.0000000E+00
  -1.590000      0.0000000E+00
  -1.580000      0.0000000E+00
  -1.570000      0.0000000E+00
  -1.560000      0.0000000E+00
  -1.550000      0.0000000E+00
  -1.540000      0.0000000E+00
  -1.530000      0.0000000E+00
  -1.520000      0.0000000E+00
  -1.510000      0.0000000E+00
  -1.500000      0.0000000E+00
  -1.490000      0.0000000E+00
  -1.480000      0.0000000E+00
  -1.470000      0.0000000E+00
  -1.460000      0.0000000E+00
  -1.450000      0.0000000E+00
  -1.440000      0.0000000E+00
  -1.430000      0.0000000E+00
  -1.420000      0.0000000E+00
  -1.410000      0.0000000E+00
  -1.400000      0.0000000E+00
  -1.390000      0.0000000E+00
  -1.380000      0.0000000E+00
  -1.370000      0.0000000E+00
  -1.360000      0.0000000E+00
  -1.350000      0.0000000E+00
  -1.340000      0.0000000E+00
  -1.330000      0.0000000E+00
  -1.320000      0.0000000E+00
  -1.310000      0.0000000E+00
  -1.300000      0.0000000E+00
  -1.290000      0.0000000E+00
  -1.280000      0.0000000E+00
  -1.270000      0.0000000E+00
  -1.260000      0.0000000E+00
  -1.250000      0.0000000E+00
  -1.240000      0.0000000E+00
  -1.230000      0.0000000E+00
  -1.220000      0.0000000E+00
  -1.210000      0.0000000E+00
  -1.200000      0.0000000E+00
  -1.190000      0.0000000E+00
  -1.180000      0.0000000E+00
  -1.170000      0.0000000E+00
  -1.160000      0.0000000E+00
  -1.150000      0.0000000E+00
  -1.140000      0.0000000E+00
  -1.130000      0.0000000E+00
  -1.120000      0.0000000E+00
  -1.110000      0.0000000E+00
  -1.100000      0.0000000E+00
  -1.090000      0.0000000E+00
  -1.080000      0.0000000E+00
  -1.070000      0.0000000E+00
  -1.060000      0.0000000E+00
  -1.050000      0.0000000E+00
  -1.040000      0.0000000E+00
  -1.030000      0.0000000E+00
  -1.020000      0.0000000E+00
  -1.010000      0.0000000E+00
  -1.000000      0.0000000E+00
 -0.9900000      0.0000000E+00
 -0.9800000      0.0000000E+00
 -0.9700000      0.0000000E+00
 -0.9600000      0.0000000E+00
 -0.9500000      0.0000000E+00
 -0.9400000      0.0000000E+00
 -0.9300000      0.0000000E+00
 -0.9200000      0.0000000E+00
 -0.9100000      0.0000000E+00
 -0.9000000      0.0000000E+00
 -0.8900000      0.0000000E+00
 -0.8800000      0.0000000E+00
 -0.8700000      0.0000000E+00
 -0.8600000      0.0000000E+00
 -0.8500000      0.0000000E+00
 -0.8400000      0.0000000E+00
 -0.8300000      0.0000000E+00
 -0.8200000      0.0000000E+00
 -0.8100000      0.0000000E+00
 -0.8000000      0.0000000E+00
 -0.7900000      0.0000000E+00
 -0.7800000      0.0000000E+00
 -0.7700000      0.0000000E+00
 -0.7600000      0.0000000E+00
 -0.7500000      0.0000000E+00
 -0.7400000      0.0000000E+00
 -0.7300000      0.0000000E+00
 -0.7200000      0.0000000E+00
 -0.7100000      0.0000000E+00
 -0.7000000      0.0000000E+00
 -0.6900000      0.0000000E+00
 -0.6800000      0.0000000E+00
 -0.6700000      0.0000000E+00
 -0.6600000      0.0000000E+00
 -0.6500000      0.0000000E+00
 -0.6400000      0.0000000E+00
 -0.6300000      0.0000000E+00
 -0.6200000      0.0000000E+00
 -0.6100000      0.0000000E+00
 -0.6000000      0.0000000E+00
 -0.5900000      0.0000000E+00
 -0.5800000      0.0000000E+00
 -0.5700000      0.0000000E+00
 -0.5600000      0.0000000E+00
 -0.5500000      0.0000000E+00
 -0.5400000      0.0000000E+00
 -0.5300000      0.0000000E+00
 -0.5200000      0.0000000E+00
 -0.5100000      0.0000000E+00
 -0.5000000      0.0000000E+00
 -0.4900000      0.0000000E+00
 -0.4800000      0.0000000E+00
 -0.4700000      0.0000000E+00
 -0.4600000      0.0000000E+00
 -0.4500000      0.0000000E+00
 -0.4400000      0.0000000E+00
 -0.4300000      0.0000000E+00
 -0.4200000      0.0000000E+00
 -0.4100000      0.0000000E+00
 -0.4000000      0.0000000E+00
 -0.3900000      0.0000000E+00
 -0.3800000      0.0000000E+00
 -0.3700000      0.0000000E+00
 -0.3600000      0.0000000E+00
 -0.3500000      0.0000000E+00
 -0.3400000      0.0000000E+00
 -0.3300000      0.0000000E+00
 -0.3200000      0.0000000E+00
 -0.3100000      0.0000000E+00
 -0.3000000      0.0000000E+00
 -0.2900000      0.0000000E+00
 -0.2800000      0.0000000E+00
 -0.2700000      0.0000000E+00
 -0.2600000      0.0000000E+00
 -0.2500000      0.0000000E+00
 -0.2400000      0.0000000E+00
 -0.2300000      0.0000000E+00
 -0.2200000      0.0000000E+00
 -0.2100000      0.0000000E+00
 -0.2000000      0.0000000E+00
 -0.1900000      0.0000000E+00
 -0.1800000      0.0000000E+00
 -0.1700000      0.0000000E+00
 -0.1600000      0.0000000E+00
 -0.1500000      0.0000000E+00
 -0.1400000      0.0000000E+00
 -0.1300000      0.0000000E+00
 -0.1200000      0.0000000E+00
 -0.1100000      0.0000000E+00
 -0.1000000      0.0000000E+00
 -9.0000004E-02  0.0000000E+00
 -7.9999998E-02  0.0000000E+00
 -7.0000000E-02  0.0000000E+00
 -5.9999999E-02  0.0000000E+00
 -5.0000001E-02  0.0000000E+00
 -3.9999999E-02  0.0000000E+00
 -2.9999999E-02  0.0000000E+00
 -2.0000000E-02  0.0000000E+00
 -9.9999998E-03  0.0000000E+00
 -3.4694470E-17  0.0000000E+00
  9.9999998E-03  0.0000000E+00
  2.0000000E-02  0.0000000E+00
  2.9999999E-02  0.0000000E+00
  3.9999999E-02  0.0000000E+00
  5.0000001E-02  0.0000000E+00
  5.9999999E-02  0.0000000E+00
  7.0000000E-02  0.0000000E+00
  7.9999998E-02  0.0000000E+00
  9.0000004E-02  0.0000000E+00
  0.1000000      0.0000000E+00
  0.1100000      0.0000000E+00
  0.1200000      0.0000000E+00
  0.1300000      0.0000000E+00
  0.1400000      0.0000000E+00
  0.1500000      0.0000000E+00
  0.1600000      0.0000000E+00
  0.1700000      0.0000000E+00
  0.1800000      0.0000000E+00
  0.1900000      0.0000000E+00
  0.2000000      0.0000000E+00
  0.2100000      0.0000000E+00
  0.2200000      0.0000000E+00
  0.2300000      0.0000000E+00
  0.2400000      0.0000000E+00
  0.2500000      0.0000000E+00
  0.2600000      0.0000000E+00
  0.2700000      0.0000000E+00
  0.2800000      0.0000000E+00
  0.2900000      0.0000000E+00
  0.3000000      0.0000000E+00
  0.3100000      0.0000000E+00
  0.3200000      0.0000000E+00
  0.3300000      0.0000000E+00
  0.3400000      0.0000000E+00
  0.3500000      0.0000000E+00
  0.3600000      0.0000000E+00
  0.3700000      0.0000000E+00
  0.3800000      0.0000000E+00
  0.3900000      0.0000000E+00
  0.4000000      0.0000000E+00
  0.4100000      0.0000000E+00
  0.4200000      0.0000000E+00
  0.4300000      0.0000000E+00
  0.4400000      0.0000000E+00
  0.4500000      0.0000000E+00
  0.4600000     -1.8093000E-38
  0.4700000     -2.9044904E-38
  0.4800000     -3.7263533E-38
  0.4900000     -4.0043191E-38
  0.5000000     -4.1137364E-38
  0.5100000     -4.1939896E-38
  0.5200000     -4.5419631E-38
  0.5300000     -5.3087738E-38
  0.5400000     -6.2759119E-38
  0.5500000     -7.4973986E-38
  0.5600000     -8.9443525E-38
  0.5700000     -9.4051274E-38
  0.5800000     -8.5534518E-38
  0.5900000     -7.0223595E-38
  0.6000000     -4.7324971E-38
  0.6100000     -2.2866722E-38
  0.6200000      0.0000000E+00
  0.6300000      0.0000000E+00
  0.6400000     -7.5466189E-38
  0.6500000     -1.8571747E-37
  0.6600000     -3.4000548E-37
  0.6700000     -5.3910064E-37
  0.6800000     -7.6764269E-37
  0.6900000     -9.7876182E-37
  0.7000000     -1.1682958E-36
  0.7100000     -1.3471153E-36
  0.7200000     -1.4476165E-36
  0.7300000     -1.4719157E-36
  0.7400000     -1.4732118E-36
  0.7500000     -1.3876857E-36
  0.7600000     -1.2285716E-36
  0.7700000     -1.1014563E-36
  0.7800000     -1.0061673E-36
  0.7900000     -9.2144212E-37
  0.8000000     -8.5607310E-37
  0.8100000     -8.3769541E-37
  0.8200000     -8.4867263E-37
  0.8300000     -8.5811455E-37
  0.8400000     -8.9096843E-37
  0.8500000     -9.3553555E-37
  0.8600000     -9.6243636E-37
  0.8700000     -9.7058021E-37
  0.8800000     -9.3319760E-37
  0.8900000     -5.6490893E-37
  0.9000000      2.4866602E-37
  0.9100000      1.2108003E-36
  0.9200000      2.1925728E-36
  0.9300000      3.2189493E-36
  0.9400000      4.2694677E-36
  0.9500000      5.5569634E-36
  0.9600000      7.0578169E-36
  0.9700000      8.6733288E-36
  0.9800000      1.0394923E-35
  0.9900000      1.2174909E-35
   1.000000      1.4048129E-35
   1.010000      1.5922576E-35
   1.020000      1.7656458E-35
   1.030000      1.9181278E-35
   1.040000      2.0567308E-35
   1.050000      2.1264023E-35
   1.060000      2.1125342E-35
   1.070000      2.0883326E-35
   1.080000      2.0257354E-35
   1.090000      1.8856102E-35
   1.100000      1.7013557E-35
   1.110000      1.6089945E-35
   1.120000      1.6704202E-35
   1.130000      1.7731902E-35
   1.140000      1.8660281E-35
   1.150000      1.9053370E-35
   1.160000      1.8370793E-35
   1.170000      1.6335860E-35
   1.180000      1.2971826E-35
   1.190000      8.3485641E-36
   1.200000      2.0117446E-36
   1.210000     -5.9892140E-36
   1.220000     -1.3249225E-35
   1.230000     -1.8740885E-35
   1.240000     -2.3601942E-35
   1.250000     -2.7536081E-35
   1.260000     -3.0498608E-35
   1.270000     -3.2959585E-35
   1.280000     -3.5631277E-35
   1.290000     -3.8902747E-35
   1.300000     -4.3495099E-35
   1.310000     -4.9740825E-35
   1.320000     -5.7302887E-35
   1.330000     -6.5317124E-35
   1.340000     -7.2660555E-35
   1.350000     -7.9550731E-35
   1.360000     -8.5443987E-35
   1.370000     -9.0686405E-35
   1.380000     -9.5354495E-35
   1.390000     -9.8055560E-35
   1.400000     -9.9197718E-35
   1.410000     -9.8121429E-35
   1.420000     -9.3296174E-35
   1.430000     -8.7623186E-35
   1.440000     -8.2436225E-35
   1.450000     -7.6380856E-35
   1.460000     -7.0750646E-35
   1.470000     -6.4513007E-35
   1.480000     -5.7298496E-35
   1.490000     -5.1123667E-35
   1.500000     -4.6295465E-35
   1.510000     -4.1805159E-35
   1.520000     -3.6123105E-35
   1.530000     -2.8693872E-35
   1.540000     -1.7629187E-35
   1.550000     -7.3050752E-37
   1.560000      2.9501094E-35
   1.570000      7.1199308E-35
   1.580000      1.1033762E-34
   1.590000      1.4574574E-34
   1.600000      1.8247578E-34
   1.610000      2.2516048E-34
   1.620000      2.6991818E-34
   1.630000      3.1253906E-34
   1.640000      3.4623913E-34
   1.650000      3.6120154E-34
   1.660000      3.6018917E-34
   1.670000      3.5038447E-34
   1.680000      3.3413349E-34
   1.690000      3.1938873E-34
   1.700000      3.1272147E-34
   1.710000      3.1132977E-34
   1.720000      3.1031157E-34
   1.730000      3.2451613E-34
   1.740000      3.6548900E-34
   1.750000      4.1868450E-34
   1.760000      4.7723436E-34
   1.770000      5.3524289E-34
   1.780000      5.8555961E-34
   1.790000      6.2071593E-34
   1.800000      6.3733821E-34
   1.810000      6.3627484E-34
   1.820000      6.1329356E-34
   1.830000      5.5959716E-34
   1.840000      4.7703889E-34
   1.850000      3.7103614E-34
   1.860000      2.4562540E-34
   1.870000      1.0000569E-34
   1.880000     -5.9680761E-35
   1.890000     -2.2031023E-34
   1.900000     -3.8726193E-34
   1.910000     -5.5261192E-34
   1.920000     -6.9010587E-34
   1.930000     -8.1198136E-34
   1.940000     -9.4398652E-34
   1.950000     -1.0897316E-33
   1.960000     -1.2561685E-33
   1.970000     -1.4520657E-33
   1.980000     -1.6869534E-33
   1.990000     -1.9654951E-33
   2.000000     -2.2867812E-33
   2.010000     -2.6482872E-33
   2.020000     -3.0446077E-33
   2.030000     -3.4684798E-33
   2.040000     -3.9064329E-33
   2.050000     -4.3492935E-33
   2.060000     -4.7856998E-33
   2.070000     -5.2008157E-33
   2.080000     -5.5882428E-33
   2.090000     -5.9439276E-33
   2.100000     -6.2668256E-33
   2.110000     -6.5575158E-33
   2.120000     -6.8180245E-33
   2.130000     -7.0502617E-33
   2.140000     -7.2610169E-33
   2.150000     -7.4544202E-33
   2.160000     -7.6286329E-33
   2.170000     -7.7815500E-33
   2.180000     -7.9077628E-33
   2.190000     -7.9987380E-33
   2.200000     -8.0400588E-33
   2.210000     -8.0151648E-33
   2.220000     -7.9105869E-33
   2.230000     -7.7102261E-33
   2.240000     -7.3945332E-33
   2.250000     -6.9503565E-33
   2.260000     -6.3704587E-33
   2.270000     -5.6492021E-33
   2.280000     -4.7845585E-33
   2.290000     -3.7770669E-33
   2.300000     -2.6303960E-33
   2.310000     -1.3517322E-33
   2.320000      5.7140545E-35
   2.330000      1.5931313E-33
   2.340000      3.2522108E-33
   2.350000      5.0354883E-33
   2.360000      6.9446193E-33
   2.370000      8.9840550E-33
   2.380000      1.1159711E-32
   2.390000      1.3477456E-32
   2.400000      1.5942406E-32
   2.410000      1.8557648E-32
   2.420000      2.1322480E-32
   2.430000      2.4232266E-32
   2.440000      2.7276888E-32
   2.450000      3.0440202E-32
   2.460000      3.3701147E-32
   2.470000      3.7034367E-32
   2.480000      4.0410869E-32
   2.490000      4.3799313E-32
   2.500000      4.7167014E-32
   2.510000      5.0481064E-32
   2.520000      5.3709371E-32
   2.530000      5.6820770E-32
   2.540000      5.9785925E-32
   2.550000      6.2575931E-32
   2.560000      6.5161449E-32
   2.570000      6.7512943E-32
   2.580000      6.9597694E-32
   2.590000      7.1382036E-32
   2.600000      7.2828399E-32
   2.610000      7.3892756E-32
   2.620000      7.4527582E-32
   2.630000      7.4680702E-32
   2.640000      7.4297773E-32
   2.650000      7.3322506E-32
   2.660000      7.1697121E-32
   2.670000      6.9365534E-32
   2.680000      6.6274524E-32
   2.690000      6.2375192E-32
   2.700000      5.7623973E-32
   2.710000      5.1983393E-32
   2.720000      4.5422365E-32
   2.730000      3.7916032E-32
   2.740000      2.9445302E-32
   2.750000      1.9996135E-32
   2.760000      9.5590459E-33
   2.770000     -1.8715885E-33
   2.780000     -1.4298004E-32
   2.790000     -2.7718792E-32
   2.800000     -4.2128369E-32
   2.810000     -5.7516016E-32
   2.820000     -7.3864515E-32
   2.830000     -9.1148302E-32
   2.840000     -1.0933161E-31
   2.850000     -1.2836655E-31
   2.860000     -1.4819147E-31
   2.870000     -1.6872964E-31
   2.880000     -1.8988791E-31
   2.890000     -2.1155640E-31
   2.900000     -2.3360872E-31
   2.910000     -2.5590249E-31
   2.920000     -2.7827997E-31
   2.930000     -3.0056956E-31
   2.940000     -3.2258671E-31
   2.950000     -3.4413523E-31
   2.960000     -3.6500830E-31
   2.970000     -3.8498879E-31
   2.980000     -4.0384964E-31
   2.990000     -4.2135407E-31
   3.000000     -4.3725508E-31
   3.010000     -4.5129523E-31
   3.020000     -4.6320632E-31
   3.030000     -4.7270925E-31
   3.040000     -4.7951419E-31
   3.050000     -4.8332185E-31
   3.060000     -4.8382473E-31
   3.070000     -4.8070849E-31
   3.080000     -4.7365539E-31
   3.090000     -4.6234713E-31
   3.100000     -4.4646827E-31
   3.110000     -4.2571003E-31
   3.120000     -3.9977397E-31
   3.130000     -3.6837564E-31
   3.140000     -3.3124784E-31
   3.150000     -2.8814371E-31
   3.160000     -2.3883922E-31
   3.170000     -1.8313597E-31
   3.180000     -1.2086353E-31
   3.190000     -5.1881513E-32
   3.200000      2.3918515E-32
   3.210000      1.0660974E-31
   3.220000      1.9622702E-31
   3.230000      2.9276340E-31
   3.240000      3.9616591E-31
   3.250000      5.0633093E-31
   3.260000      6.2309885E-31
   3.270000      7.4624867E-31
   3.280000      8.7549230E-31
   3.290000      1.0104693E-30
   3.300000      1.1507422E-30
   3.310000      1.2957921E-30
   3.320000      1.4450141E-30
   3.330000      1.5977144E-30
   3.340000      1.7531091E-30
   3.350000      1.9103216E-30
   3.360000      2.0683820E-30
   3.370000      2.2262274E-30
   3.380000      2.3827013E-30
   3.390000      2.5365558E-30
   3.400000      2.6864496E-30
   3.410000      2.8309513E-30
   3.420000      2.9685391E-30
   3.430000      3.0976008E-30
   3.440000      3.2164388E-30
   3.450000      3.3232696E-30
   3.460000      3.4162266E-30
   3.470000      3.4933638E-30
   3.480000      3.5526622E-30
   3.490000      3.5920343E-30
   3.500000      3.6093323E-30
   3.510000      3.6023579E-30
   3.520000      3.5688708E-30
   3.530000      3.5066016E-30
   3.540000      3.4132628E-30
   3.550000      3.2865652E-30
   3.560000      3.1242302E-30
   3.570000      2.9240067E-30
   3.580000      2.6836871E-30
   3.590000      2.4011253E-30
   3.600000      2.0742527E-30
   3.610000      1.7010972E-30
   3.620000      1.2798037E-30
   3.630000      8.0865444E-31
   3.640000      2.8609015E-31
   3.650000     -2.8926892E-31
   3.660000     -9.1859015E-31
   3.670000     -1.6028050E-30
   3.680000     -2.3425910E-30
   3.690000     -3.1383339E-30
   3.700000     -3.9900973E-30
   3.710000     -4.8975940E-30
   3.720000     -5.8601519E-30
   3.730000     -6.8766826E-30
   3.740000     -7.9456527E-30
   3.750000     -9.0650543E-30
   3.760000     -1.0232370E-29
   3.770000     -1.1444547E-29
   3.780000     -1.2697966E-29
   3.790000     -1.3988419E-29
   3.800000     -1.5311086E-29
   3.810000     -1.6660505E-29
   3.820000     -1.8030556E-29
   3.830000     -1.9414436E-29
   3.840000     -2.0804631E-29
   3.850000     -2.2192915E-29
   3.860000     -2.3570315E-29
   3.870000     -2.4927104E-29
   3.880000     -2.6252796E-29
   3.890000     -2.7536128E-29
   3.900000     -2.8765046E-29
   3.910000     -2.9926724E-29
   3.920000     -3.1007547E-29
   3.930000     -3.1993118E-29
   3.940000     -3.2868288E-29
   3.950000     -3.3617155E-29
   3.960000     -3.4223098E-29
   3.970000     -3.4668788E-29
   3.980000     -3.4936240E-29
   3.990000     -3.5006861E-29
   4.000000     -3.4861487E-29
   4.010000     -3.4480426E-29
   4.020000     -3.3843548E-29
   4.030000     -3.2930327E-29
   4.040000     -3.1719940E-29
   4.050000     -3.0191350E-29
   4.060000     -2.8323385E-29
   4.070000     -2.6094867E-29
   4.080000     -2.3484696E-29
   4.090000     -2.0472005E-29
   4.100000     -1.7036281E-29
   4.110000     -1.3157497E-29
   4.120000     -8.8162716E-30
   4.130000     -3.9940582E-30
   4.140000      1.3267088E-30
   4.150000      7.1624319E-30
   4.160000      1.3528153E-29
   4.170000      2.0437364E-29
   4.180000      2.7901754E-29
   4.190000      3.5931052E-29
   4.200000      4.4532809E-29
   4.210000      5.3712098E-29
   4.220000      6.3471350E-29
   4.230000      7.3810085E-29
   4.240000      8.4724625E-29
   4.250000      9.6207904E-29
   4.260000      1.0824918E-28
   4.270000      1.2083372E-28
   4.280000      1.3394260E-28
   4.290000      1.4755241E-28
   4.300000      1.6163497E-28
   4.310000      1.7615706E-28
   4.320000      1.9108013E-28
   4.330000      2.0636002E-28
   4.340000      2.2194672E-28
   4.350000      2.3778403E-28
   4.360000      2.5380942E-28
   4.370000      2.6995368E-28
   4.380000      2.8614071E-28
   4.390000      3.0228732E-28
   4.400000      3.1830304E-28
   4.410000      3.3408984E-28
   4.420000      3.4954194E-28
   4.430000      3.6454575E-28
   4.440000      3.7897973E-28
   4.450000      3.9271416E-28
   4.460000      4.0561125E-28
   4.470000      4.1752505E-28
   4.480000      4.2830145E-28
   4.490000      4.3777813E-28
   4.500000      4.4578470E-28
   4.510000      4.5214297E-28
   4.520000      4.5666683E-28
   4.530000      4.5916279E-28
   4.540000      4.5943015E-28
   4.550000      4.5726112E-28
   4.560000      4.5244148E-28
   4.570000      4.4475096E-28
   4.580000      4.3396373E-28
   4.590000      4.1984883E-28
   4.600000      4.0217110E-28
   4.610000      3.8069178E-28
   4.620000      3.5516929E-28
   4.630000      3.2536020E-28
   4.640000      2.9102005E-28
   4.650000      2.5190456E-28
   4.660000      2.0777084E-28
   4.670000      1.5837848E-28
   4.680000      1.0349040E-28
   4.690000      4.2875290E-29
   4.700000     -2.3691538E-29
   4.710000     -9.6426491E-29
   4.720000     -1.7553612E-28
   4.730000     -2.6121477E-28
   4.740000     -3.5364275E-28
   4.750000     -4.5298503E-28
   4.760000     -5.5938833E-28
   4.770000     -6.7297924E-28
   4.780000     -7.9386235E-28
   4.790000     -9.2211735E-28
   4.800000     -1.0577965E-27
   4.810000     -1.2009220E-27
   4.820000     -1.3514831E-27
   4.830000     -1.5094345E-27
   4.840000     -1.6746926E-27
   4.850000     -1.8471323E-27
   4.860000     -2.0265854E-27
   4.870000     -2.2128365E-27
   4.880000     -2.4056204E-27
   4.890000     -2.6046188E-27
   4.900000     -2.8094574E-27
   4.910000     -3.0197033E-27
   4.920000     -3.2348613E-27
   4.930000     -3.4543707E-27
   4.940000     -3.6776037E-27
   4.950000     -3.9038608E-27
   4.960000     -4.1323681E-27
   4.970000     -4.3622745E-27
   4.980000     -4.5926500E-27
   4.990000     -4.8224835E-27
   5.000000     -5.0506769E-27
   5.010000     -5.2760458E-27
   5.020000     -5.4973170E-27
   5.030000     -5.7131244E-27
   5.040000     -5.9220096E-27
   5.050000     -6.1224200E-27
   5.060000     -6.3127080E-27
   5.070000     -6.4911281E-27
   5.080000     -6.6558382E-27
   5.090000     -6.8048975E-27
   5.100000     -6.9362706E-27
   5.110000     -7.0478220E-27
   5.120000     -7.1373223E-27
   5.130000     -7.2024480E-27
   5.140000     -7.2407832E-27
   5.150000     -7.2498228E-27
   5.160000     -7.2269774E-27
   5.170000     -7.1695700E-27
   5.180000     -7.0748505E-27
   5.190000     -6.9399953E-27
   5.200000     -6.7621141E-27
   5.210000     -6.5382579E-27
   5.220000     -6.2654203E-27
   5.230000     -5.9405575E-27
   5.240000     -5.5605892E-27
   5.250000     -5.1224094E-27
   5.260000     -4.6229017E-27
   5.270000     -4.0589459E-27
   5.280000     -3.4274354E-27
   5.290000     -2.7252858E-27
   5.300000     -1.9494548E-27
   5.310000     -1.0969530E-27
   5.320000     -1.6486278E-28
   5.330000      8.4964046E-28
   5.340000      1.9492703E-27
   5.350000      3.1366051E-27
   5.360000      4.4140785E-27
   5.370000      5.7839540E-27
   5.380000      7.2482913E-27
   5.390000      8.8089255E-27
   5.400000      1.0467445E-26
   5.410000      1.2225167E-26
   5.420000      1.4083112E-26
   5.430000      1.6041955E-26
   5.440000      1.8102024E-26
   5.450000      2.0263261E-26
   5.460000      2.2525171E-26
   5.470000      2.4886821E-26
   5.480000      2.7346788E-26
   5.490000      2.9903119E-26
   5.500000      3.2553316E-26
   5.510000      3.5294284E-26
   5.520000      3.8122307E-26
   5.530000      4.1033016E-26
   5.540000      4.4021351E-26
   5.550000      4.7081518E-26
   5.560000      5.0206951E-26
   5.570000      5.3390309E-26
   5.580000      5.6623407E-26
   5.590000      5.9897185E-26
   5.600000      6.3201699E-26
   5.610000      6.6526076E-26
   5.620000      6.9858471E-26
   5.630000      7.3186047E-26
   5.640000      7.6494998E-26
   5.650000      7.9770434E-26
   5.660000      8.2996401E-26
   5.670000      8.6155863E-26
   5.680000      8.9230701E-26
   5.690000      9.2201650E-26
   5.700000      9.5048328E-26
   5.710000      9.7749203E-26
   5.720000      1.0028163E-25
   5.730000      1.0262178E-25
   5.740000      1.0474469E-25
   5.750000      1.0662431E-25
   5.760000      1.0823343E-25
   5.770000      1.0954373E-25
   5.780000      1.1052587E-25
   5.790000      1.1114942E-25
   5.800000      1.1138294E-25
   5.810000      1.1119407E-25
   5.820000      1.1054950E-25
   5.830000      1.0941511E-25
   5.840000      1.0775593E-25
   5.850000      1.0553633E-25
   5.860000      1.0272006E-25
   5.870000      9.9270312E-26
   5.880000      9.5149863E-26
   5.890000      9.0321147E-26
   5.900000      8.4746421E-26
   5.910000      7.8387832E-26
   5.920000      7.1207590E-26
   5.930000      6.3168166E-26
   5.940000      5.4232338E-26
   5.950000      4.4363430E-26
   5.960000      3.3525550E-26
   5.970000      2.1683702E-26
   5.980000      8.8039897E-27
   5.990000     -5.1461125E-27
   6.000000     -2.0197546E-26
   6.010000     -3.6379504E-26
   6.020000     -5.3719061E-26
   6.030000     -7.2241071E-26
   6.040000     -9.1967894E-26
   6.050000     -1.1291888E-25
   6.060000     -1.3511031E-25
   6.070000     -1.5855503E-25
   6.080000     -1.8326208E-25
   6.090000     -2.0923646E-25
   6.100000     -2.3647893E-25
   6.110000     -2.6498545E-25
   6.120000     -2.9474688E-25
   6.130000     -3.2574884E-25
   6.140000     -3.5797125E-25
   6.150000     -3.9138782E-25
   6.160000     -4.2596571E-25
   6.170000     -4.6166541E-25
   6.180000     -4.9844028E-25
   6.190000     -5.3623599E-25
   6.200000     -5.7499046E-25
   6.210000     -6.1463328E-25
   6.220000     -6.5508568E-25
   6.230000     -6.9625988E-25
   6.240000     -7.3805876E-25
   6.250000     -7.8037567E-25
   6.260000     -8.2309417E-25
   6.270000     -8.6608763E-25
   6.280000     -9.0921879E-25
   6.290000     -9.5234010E-25
   6.300000     -9.9529249E-25
   6.310000     -1.0379060E-24
   6.320000     -1.0799991E-24
   6.330000     -1.1213789E-24
   6.340000     -1.1618408E-24
   6.350000     -1.2011681E-24
   6.360000     -1.2391328E-24
   6.370000     -1.2754948E-24
   6.380000     -1.3100018E-24
   6.390000     -1.3423898E-24
   6.400000     -1.3723831E-24
   6.410000     -1.3996942E-24
   6.420000     -1.4240248E-24
   6.430000     -1.4450650E-24
   6.440000     -1.4624942E-24
   6.450000     -1.4759812E-24
   6.460000     -1.4851852E-24
   6.470000     -1.4897558E-24
   6.480000     -1.4893335E-24
   6.490000     -1.4835504E-24
   6.500000     -1.4720312E-24
   6.510000     -1.4543940E-24
   6.520000     -1.4302507E-24
   6.530000     -1.3992085E-24
   6.540000     -1.3608709E-24
   6.550000     -1.3148385E-24
   6.560000     -1.2607108E-24
   6.570000     -1.1980862E-24
   6.580000     -1.1265650E-24
   6.590000     -1.0457499E-24
   6.600000     -9.5524843E-25
   6.610000     -8.5467350E-25
   6.620000     -7.4364626E-25
   6.630000     -6.2179752E-25
   6.640000     -4.8876885E-25
   6.650000     -3.4421608E-25
   6.660000     -1.8781067E-25
   6.670000     -1.9241874E-26
   6.680000      1.6177998E-25
   6.690000      3.5552218E-25
   6.700000      5.6222654E-25
   6.710000      7.8210614E-25
   6.720000      1.0153441E-24
   6.730000      1.2620895E-24
   6.740000      1.5224557E-24
   6.750000      1.7965177E-24
   6.760000      2.0843074E-24
   6.770000      2.3858112E-24
   6.780000      2.7009686E-24
   6.790000      3.0296670E-24
   6.800000      3.3717390E-24
   6.810000      3.7269615E-24
   6.820000      4.0950519E-24
   6.830000      4.4756623E-24
   6.840000      4.8683766E-24
   6.850000      5.2727096E-24
   6.860000      5.6881033E-24
   6.870000      6.1139229E-24
   6.880000      6.5494538E-24
   6.890000      6.9938996E-24
   6.900000      7.4463768E-24
   6.910000      7.9059167E-24
   6.920000      8.3714606E-24
   6.930000      8.8418559E-24
   6.940000      9.3158533E-24
   6.950000      9.7921091E-24
   6.960000      1.0269179E-23
   6.970000      1.0745515E-23
   6.980000      1.1219472E-23
   6.990000      1.1689295E-23
   7.000000      1.2153126E-23
   7.010000      1.2609000E-23
   7.020000      1.3054846E-23
   7.030000      1.3488485E-23
   7.040000      1.3907637E-23
   7.050000      1.4309907E-23
   7.060000      1.4692801E-23