  -2.600000      0.0000000E+00
  -2.590000      0.0000000E+00
  -2.580000      0.0000000E+00
  -2.570000      0.0000000E+00
  -2.560000      0.0000000E+00
  -2.550000      0.0000000E+00
  -2.540000      0.0000000E+00
  -2.530000      0.0000000E+00
  -2.520000      0.0000000E+00
  -2.510000      0.0000000E+00
  -2.500000      0.0000000E+00
  -2.490000      0.0000000E+00
  -2.480000      0.0000000E+00
  -2.470000      0.0000000E+00
  -2.460000      0.0000000E+00
  -2.450000      0.0000000E+00
  -2.440000      0.0000000E+00
  -2.430000      0.0000000E+00
  -2.420000      0.0000000E+00
  -2.410000      0.0000000E+00
  -2.400000      0.0000000E+00
  -2.390000      0.0000000E+00
  -2.380000      0.0000000E+00
  -2.370000      0.0000000E+00
  -2.360000      0.0000000E+00
  -2.350000      0.0000000E+00
  -2.340000      0.0000000E+00
  -2.330000      0.0000000E+00
  -2.320000      0.0000000E+00
  -2.310000      0.0000000E+00
  -2.300000      0.0000000E+00
  -2.290000      0.0000000E+00
  -2.280000      0.0000000E+00
  -2.270000      0.0000000E+00
  -2.260000      0.0000000E+00
  -2.250000      0.0000000E+00
  -2.240000      0.0000000E+00
  -2.230000      0.0000000E+00
  -2.220000      0.0000000E+00
  -2.210000      0.0000000E+00
  -2.200000      0.0000000E+00
  -2.190000      0.0000000E+00
  -2.180000      0.0000000E+00
  -2.170000      0.0000000E+00
  -2.160000      0.0000000E+00
  -2.150000      0.0000000E+00
  -2.140000      0.0000000E+00
  -2.130000      0.0000000E+00
  -2.120000      0.0000000E+00
  -2.110000      0.0000000E+00
  -2.100000      0.0000000E+00
  -2.090000      0.0000000E+00
  -2.080000      0.0000000E+00
  -2.070000      0.0000000E+00
  -2.060000      0.0000000E+00
  -2.050000      0.0000000E+00
  -2.040000      0.0000000E+00
  -2.030000      0.0000000E+00
  -2.020000      0.0000000E+00
  -2.010000      0.0000000E+00
  -2.000000      0.0000000E+00
  -1.990000      0.0000000E+00
  -1.980000      0.0000000E+00
  -1.970000      0.0000000E+00
  -1.960000      0.0000000E+00
  -1.950000      0.0000000E+00
  -1.940000      0.0000000E+00
  -1.930000      0.0000000E+00
  -1.920000      0.0000000E+00
  -1.910000      0.0000000E+00
  -1.900000      0.0000000E+00
  -1.890000      0.0000000E+00
  -1.880000      0.0000000E+00
  -1.870000      0.0000000E+00
  -1.860000      0.0000000E+00
  -1.850000      0.0000000E+00
  -1.840000      0.0000000E+00
  -1.830000      0.0000000E+00
  -1.820000      0.0000000E+00
  -1.810000      0.0000000E+00
  -1.800000      0.0000000E+00
  -1.790000      0.0000000E+00
  -1.780000      0.0000000E+00
  -1.770000      0.0000000E+00
  -1.760000      0.0000000E+00
  -1.750000      0.0000000E+00
  -1.740000      0.0000000E+00
  -1.730000      0.0000000E+00
  -1.720000      0.0000000E+00
  -1.710000      0.0000000E+00
  -1.700000      0.0000000E+00
  -1.690000      0.0000000E+00
  -1.680000      0.0000000E+00
  -1.670000      0.0000000E+00
  -1.660000      0.0000000E+00
  -1.650000      0.0000000E+00
  -1.640000      0.0000000E+00
  -1.630000      0.0000000E+00
  -1.620000      0.0000000E+00
  -1.610000      0.0000000E+00
  -1.600000      0.0000000E+00
  -1.590000      0.0000000E+00
  -1.580000      0.0000000E+00
  -1.570000      0.0000000E+00
  -1.560000      0.0000000E+00
  -1.550000      0.0000000E+00
  -1.540000      0.0000000E+00
  -1.530000      0.0000000E+00
  -1.520000      0.0000000E+00
  -1.510000      0.0000000E+00
  -1.500000      0.0000000E+00
  -1.490000      0.0000000E+00
  -1.480000      0.0000000E+00
  -1.470000      0.0000000E+00
  -1.460000      0.0000000E+00
  -1.450000      0.0000000E+00
  -1.440000      0.0000000E+00
  -1.430000      0.0000000E+00
  -1.420000      0.0000000E+00
  -1.410000      0.0000000E+00
  -1.400000      0.0000000E+00
  -1.390000      0.0000000E+00
  -1.380000      0.0000000E+00
  -1.370000      0.0000000E+00
  -1.360000      0.0000000E+00
  -1.350000      0.0000000E+00
  -1.340000      0.0000000E+00
  -1.330000      0.0000000E+00
  -1.320000      0.0000000E+00
  -1.310000      0.0000000E+00
  -1.300000      0.0000000E+00
  -1.290000      0.0000000E+00
  -1.280000      0.0000000E+00
  -1.270000      0.0000000E+00
  -1.260000      0.0000000E+00
  -1.250000      0.0000000E+00
  -1.240000      0.0000000E+00
  -1.230000      0.0000000E+00
  -1.220000      0.0000000E+00
  -1.210000      0.0000000E+00
  -1.200000      0.0000000E+00
  -1.190000      0.0000000E+00
  -1.180000      0.0000000E+00
  -1.170000      0.0000000E+00
  -1.160000      0.0000000E+00
  -1.150000      0.0000000E+00
  -1.140000      0.0000000E+00
  -1.130000      0.0000000E+00
  -1.120000      0.0000000E+00
  -1.110000      0.0000000E+00
  -1.100000      0.0000000E+00
  -1.090000      0.0000000E+00
  -1.080000      0.0000000E+00
  -1.070000      0.0000000E+00
  -1.060000      0.0000000E+00
  -1.050000      0.0000000E+00
  -1.040000      0.0000000E+00
  -1.030000      0.0000000E+00
  -1.020000      0.0000000E+00
  -1.010000      0.0000000E+00
  -1.000000      0.0000000E+00
 -0.9900000      0.0000000E+00
 -0.9800000      0.0000000E+00
 -0.9700000      0.0000000E+00
 -0.9600000      0.0000000E+00
 -0.9500000      0.0000000E+00
 -0.9400000      0.0000000E+00
 -0.9300000      0.0000000E+00
 -0.9200000      0.0000000E+00
 -0.9100000      0.0000000E+00
 -0.9000000      0.0000000E+00
 -0.8900000      0.0000000E+00
 -0.8800000      0.0000000E+00
 -0.8700000      0.0000000E+00
 -0.8600000      0.0000000E+00
 -0.8500000      0.0000000E+00
 -0.8400000      0.0000000E+00
 -0.8300000      0.0000000E+00
 -0.8200000      0.0000000E+00
 -0.8100000      0.0000000E+00
 -0.8000000      0.0000000E+00
 -0.7900000      0.0000000E+00
 -0.7800000      0.0000000E+00
 -0.7700000      0.0000000E+00
 -0.7600000      0.0000000E+00
 -0.7500000      0.0000000E+00
 -0.7400000      0.0000000E+00
 -0.7300000      0.0000000E+00
 -0.7200000      0.0000000E+00
 -0.7100000      0.0000000E+00
 -0.7000000      0.0000000E+00
 -0.6900000      0.0000000E+00
 -0.6800000      0.0000000E+00
 -0.6700000      0.0000000E+00
 -0.6600000      0.0000000E+00
 -0.6500000      0.0000000E+00
 -0.6400000      0.0000000E+00
 -0.6300000      0.0000000E+00
 -0.6200000      0.0000000E+00
 -0.6100000      0.0000000E+00
 -0.6000000      0.0000000E+00
 -0.5900000      0.0000000E+00
 -0.5800000      0.0000000E+00
 -0.5700000      0.0000000E+00
 -0.5600000      0.0000000E+00
 -0.5500000      0.0000000E+00
 -0.5400000      0.0000000E+00
 -0.5300000      0.0000000E+00
 -0.5200000      0.0000000E+00
 -0.5100000      0.0000000E+00
 -0.5000000      0.0000000E+00
 -0.4900000      0.0000000E+00
 -0.4800000      0.0000000E+00
 -0.4700000      0.0000000E+00
 -0.4600000      0.0000000E+00
 -0.4500000      0.0000000E+00
 -0.4400000      0.0000000E+00
 -0.4300000      0.0000000E+00
 -0.4200000      0.0000000E+00
 -0.4100000      0.0000000E+00
 -0.4000000      0.0000000E+00
 -0.3900000      0.0000000E+00
 -0.3800000      0.0000000E+00
 -0.3700000      0.0000000E+00
 -0.3600000      0.0000000E+00
 -0.3500000      0.0000000E+00
 -0.3400000      0.0000000E+00
 -0.3300000      0.0000000E+00
 -0.3200000      0.0000000E+00
 -0.3100000      0.0000000E+00
 -0.3000000      0.0000000E+00
 -0.2900000      0.0000000E+00
 -0.2800000      0.0000000E+00
 -0.2700000      0.0000000E+00
 -0.2600000      0.0000000E+00
 -0.2500000      0.0000000E+00
 -0.2400000      0.0000000E+00
 -0.2300000      0.0000000E+00
 -0.2200000      0.0000000E+00
 -0.2100000      0.0000000E+00
 -0.2000000      0.0000000E+00
 -0.1900000      0.0000000E+00
 -0.1800000      0.0000000E+00
 -0.1700000      0.0000000E+00
 -0.1600000      0.0000000E+00
 -0.1500000      0.0000000E+00
 -0.1400000      0.0000000E+00
 -0.1300000      0.0000000E+00
 -0.1200000      0.0000000E+00
 -0.1100000      0.0000000E+00
 -0.1000000      0.0000000E+00
 -9.0000004E-02  0.0000000E+00
 -7.9999998E-02  0.0000000E+00
 -7.0000000E-02  0.0000000E+00
 -5.9999999E-02  0.0000000E+00
 -5.0000001E-02  0.0000000E+00
 -3.9999999E-02  0.0000000E+00
 -2.9999999E-02  0.0000000E+00
 -2.0000000E-02  0.0000000E+00
 -9.9999998E-03  0.0000000E+00
 -3.4694470E-17  0.0000000E+00
  9.9999998E-03  0.0000000E+00
  2.0000000E-02  0.0000000E+00
  2.9999999E-02  0.0000000E+00
  3.9999999E-02  0.0000000E+00
  5.0000001E-02  0.0000000E+00
  5.9999999E-02  0.0000000E+00
  7.0000000E-02  0.0000000E+00
  7.9999998E-02  0.0000000E+00
  9.0000004E-02  0.0000000E+00
  0.1000000      0.0000000E+00
  0.1100000      0.0000000E+00
  0.1200000      0.0000000E+00
  0.1300000      0.0000000E+00
  0.1400000      0.0000000E+00
  0.1500000      0.0000000E+00
  0.1600000      0.0000000E+00
  0.1700000      0.0000000E+00
  0.1800000      0.0000000E+00
  0.1900000      0.0000000E+00
  0.2000000      0.0000000E+00
  0.2100000      0.0000000E+00
  0.2200000      0.0000000E+00
  0.2300000      0.0000000E+00
  0.2400000      0.0000000E+00
  0.2500000      0.0000000E+00
  0.2600000      0.0000000E+00
  0.2700000      0.0000000E+00
  0.2800000      0.0000000E+00
  0.2900000      0.0000000E+00
  0.3000000      0.0000000E+00
  0.3100000      0.0000000E+00
  0.3200000      0.0000000E+00
  0.3300000      0.0000000E+00
  0.3400000      0.0000000E+00
  0.3500000      0.0000000E+00
  0.3600000      0.0000000E+00
  0.3700000      0.0000000E+00
  0.3800000      0.0000000E+00
  0.3900000      0.0000000E+00
  0.4000000      0.0000000E+00
  0.4100000      0.0000000E+00
  0.4200000      0.0000000E+00
  0.4300000      0.0000000E+00
  0.4400000      0.0000000E+00
  0.4500000      0.0000000E+00
  0.4600000      0.0000000E+00
  0.4700000      0.0000000E+00
  0.4800000      0.0000000E+00
  0.4900000      0.0000000E+00
  0.5000000      0.0000000E+00
  0.5100000      0.0000000E+00
  0.5200000      0.0000000E+00
  0.5300000      0.0000000E+00
  0.5400000      0.0000000E+00
  0.5500000      0.0000000E+00
  0.5600000      0.0000000E+00
  0.5700000      0.0000000E+00
  0.5800000      0.0000000E+00
  0.5900000      0.0000000E+00
  0.6000000      0.0000000E+00
  0.6100000      0.0000000E+00
  0.6200000      0.0000000E+00
  0.6300000      0.0000000E+00
  0.6400000      0.0000000E+00
  0.6500000      0.0000000E+00
  0.6600000      0.0000000E+00
  0.6700000      0.0000000E+00
  0.6800000      0.0000000E+00
  0.6900000      0.0000000E+00
  0.7000000      0.0000000E+00
  0.7100000      0.0000000E+00
  0.7200000      0.0000000E+00
  0.7300000      0.0000000E+00
  0.7400000      0.0000000E+00
  0.7500000      0.0000000E+00
  0.7600000      0.0000000E+00
  0.7700000      0.0000000E+00
  0.7800000      0.0000000E+00
  0.7900000      0.0000000E+00
  0.8000000      0.0000000E+00
  0.8100000      0.0000000E+00
  0.8200000      0.0000000E+00
  0.8300000      0.0000000E+00
  0.8400000      0.0000000E+00
  0.8500000      0.0000000E+00
  0.8600000      0.0000000E+00
  0.8700000      0.0000000E+00
  0.8800000      0.0000000E+00
  0.8900000      0.0000000E+00
  0.9000000      0.0000000E+00
  0.9100000      0.0000000E+00
  0.9200000      0.0000000E+00
  0.9300000      0.0000000E+00
  0.9400000      0.0000000E+00
  0.9500000      0.0000000E+00
  0.9600000      0.0000000E+00
  0.9700000      0.0000000E+00
  0.9800000      0.0000000E+00
  0.9900000      0.0000000E+00
   1.000000      0.0000000E+00
   1.010000      0.0000000E+00
   1.020000      0.0000000E+00
   1.030000      0.0000000E+00
   1.040000      0.0000000E+00
   1.050000      0.0000000E+00
   1.060000      0.0000000E+00
   1.070000      0.0000000E+00
   1.080000      0.0000000E+00
   1.090000      0.0000000E+00
   1.100000      0.0000000E+00
   1.110000      0.0000000E+00
   1.120000      0.0000000E+00
   1.130000      0.0000000E+00
   1.140000      0.0000000E+00
   1.150000      0.0000000E+00
   1.160000      0.0000000E+00
   1.170000      0.0000000E+00
   1.180000      0.0000000E+00
   1.190000      0.0000000E+00
   1.200000      0.0000000E+00
   1.210000      0.0000000E+00
   1.220000      0.0000000E+00
   1.230000      0.0000000E+00
   1.240000      0.0000000E+00
   1.250000      0.0000000E+00
   1.260000      0.0000000E+00
   1.270000      0.0000000E+00
   1.280000      0.0000000E+00
   1.290000      0.0000000E+00
   1.300000      0.0000000E+00
   1.310000      0.0000000E+00
   1.320000      0.0000000E+00
   1.330000      0.0000000E+00
   1.340000      0.0000000E+00
   1.350000      0.0000000E+00
   1.360000      0.0000000E+00
   1.370000      0.0000000E+00
   1.380000      0.0000000E+00
   1.390000      0.0000000E+00
   1.400000      0.0000000E+00
   1.410000      0.0000000E+00
   1.420000      0.0000000E+00
   1.430000      0.0000000E+00
   1.440000      0.0000000E+00
   1.450000      0.0000000E+00
   1.460000      0.0000000E+00
   1.470000      0.0000000E+00
   1.480000      0.0000000E+00
   1.490000      0.0000000E+00
   1.500000      0.0000000E+00
   1.510000      0.0000000E+00
   1.520000      0.0000000E+00
   1.530000      0.0000000E+00
   1.540000      0.0000000E+00
   1.550000      0.0000000E+00
   1.560000      0.0000000E+00
   1.570000      0.0000000E+00
   1.580000      0.0000000E+00
   1.590000      0.0000000E+00
   1.600000      0.0000000E+00
   1.610000      0.0000000E+00
   1.620000      0.0000000E+00
   1.630000      0.0000000E+00
   1.640000      0.0000000E+00
   1.650000      0.0000000E+00
   1.660000      0.0000000E+00
   1.670000      0.0000000E+00
   1.680000      0.0000000E+00
   1.690000      0.0000000E+00
   1.700000      0.0000000E+00
   1.710000      0.0000000E+00
   1.720000      0.0000000E+00
   1.730000      0.0000000E+00
   1.740000      0.0000000E+00
   1.750000      0.0000000E+00
   1.760000      0.0000000E+00
   1.770000      0.0000000E+00
   1.780000      0.0000000E+00
   1.790000      0.0000000E+00
   1.800000      0.0000000E+00
   1.810000      0.0000000E+00
   1.820000      0.0000000E+00
   1.830000      0.0000000E+00
   1.840000      0.0000000E+00
   1.850000      0.0000000E+00
   1.860000      0.0000000E+00
   1.870000      0.0000000E+00
   1.880000      0.0000000E+00
   1.890000      0.0000000E+00
   1.900000      0.0000000E+00
   1.910000      0.0000000E+00
   1.920000      0.0000000E+00
   1.930000      0.0000000E+00
   1.940000      0.0000000E+00
   1.950000      0.0000000E+00
   1.960000      0.0000000E+00
   1.970000      0.0000000E+00
   1.980000      0.0000000E+00
   1.990000      0.0000000E+00
   2.000000      0.0000000E+00
   2.010000      0.0000000E+00
   2.020000      0.0000000E+00
   2.030000      0.0000000E+00
   2.040000      0.0000000E+00
   2.050000      0.0000000E+00
   2.060000      0.0000000E+00
   2.070000      0.0000000E+00
   2.080000      0.0000000E+00
   2.090000      0.0000000E+00
   2.100000      0.0000000E+00
   2.110000      0.0000000E+00
   2.120000      0.0000000E+00
   2.130000      0.0000000E+00
   2.140000      0.0000000E+00
   2.150000      0.0000000E+00
   2.160000      0.0000000E+00
   2.170000      0.0000000E+00
   2.180000      0.0000000E+00
   2.190000      0.0000000E+00
   2.200000      0.0000000E+00
   2.210000      0.0000000E+00
   2.220000      0.0000000E+00
   2.230000      0.0000000E+00
   2.240000      0.0000000E+00
   2.250000      0.0000000E+00
   2.260000      0.0000000E+00
   2.270000      0.0000000E+00
   2.280000      0.0000000E+00
   2.290000      0.0000000E+00
   2.300000      0.0000000E+00
   2.310000      0.0000000E+00
   2.320000      0.0000000E+00
   2.330000      0.0000000E+00
   2.340000      0.0000000E+00
   2.350000      0.0000000E+00
   2.360000      0.0000000E+00
   2.370000      0.0000000E+00
   2.380000      0.0000000E+00
   2.390000      0.0000000E+00
   2.400000      0.0000000E+00
   2.410000      0.0000000E+00
   2.420000      0.0000000E+00
   2.430000      0.0000000E+00
   2.440000      0.0000000E+00
   2.450000      0.0000000E+00
   2.460000      0.0000000E+00
   2.470000      0.0000000E+00
   2.480000      0.0000000E+00
   2.490000      0.0000000E+00
   2.500000      0.0000000E+00
   2.510000      0.0000000E+00
   2.520000      0.0000000E+00
   2.530000      0.0000000E+00
   2.540000      0.0000000E+00
   2.550000      0.0000000E+00
   2.560000      0.0000000E+00
   2.570000      0.0000000E+00
   2.580000      0.0000000E+00
   2.590000      0.0000000E+00
   2.600000      0.0000000E+00
   2.610000      0.0000000E+00
   2.620000      0.0000000E+00
   2.630000      0.0000000E+00
   2.640000      0.0000000E+00
   2.650000      0.0000000E+00
   2.660000      0.0000000E+00
   2.670000      0.0000000E+00
   2.680000      0.0000000E+00
   2.690000      0.0000000E+00
   2.700000      0.0000000E+00
   2.710000      0.0000000E+00
   2.720000      0.0000000E+00
   2.730000      0.0000000E+00
   2.740000      0.0000000E+00
   2.750000      0.0000000E+00
   2.760000      0.0000000E+00
   2.770000      0.0000000E+00
   2.780000      0.0000000E+00
   2.790000      0.0000000E+00
   2.800000      0.0000000E+00
   2.810000      0.0000000E+00
   2.820000      0.0000000E+00
   2.830000      0.0000000E+00
   2.840000      0.0000000E+00
   2.850000      0.0000000E+00
   2.860000      0.0000000E+00
   2.870000      0.0000000E+00
   2.880000      0.0000000E+00
   2.890000      0.0000000E+00
   2.900000      0.0000000E+00
   2.910000      0.0000000E+00
   2.920000      0.0000000E+00
   2.930000      0.0000000E+00
   2.940000      0.0000000E+00
   2.950000      0.0000000E+00
   2.960000      0.0000000E+00
   2.970000      0.0000000E+00
   2.980000      0.0000000E+00
   2.990000      0.0000000E+00
   3.000000      0.0000000E+00
   3.010000      0.0000000E+00
   3.020000      0.0000000E+00
   3.030000      0.0000000E+00
   3.040000      0.0000000E+00
   3.050000      0.0000000E+00
   3.060000      0.0000000E+00
   3.070000      0.0000000E+00
   3.080000      0.0000000E+00
   3.090000      0.0000000E+00
   3.100000      0.0000000E+00
   3.110000      0.0000000E+00
   3.120000      0.0000000E+00
   3.130000      0.0000000E+00
   3.140000      0.0000000E+00
   3.150000      0.0000000E+00
   3.160000      0.0000000E+00
   3.170000      0.0000000E+00
   3.180000      0.0000000E+00
   3.190000      0.0000000E+00
   3.200000      0.0000000E+00
   3.210000      0.0000000E+00
   3.220000      0.0000000E+00
   3.230000      0.0000000E+00
   3.240000      0.0000000E+00
   3.250000      0.0000000E+00
   3.260000      0.0000000E+00
   3.270000      0.0000000E+00
   3.280000      0.0000000E+00
   3.290000      0.0000000E+00
   3.300000      0.0000000E+00
   3.310000      0.0000000E+00
   3.320000      0.0000000E+00
   3.330000      0.0000000E+00
   3.340000      0.0000000E+00
   3.350000      0.0000000E+00
   3.360000      0.0000000E+00
   3.370000      0.0000000E+00
   3.380000      0.0000000E+00
   3.390000      0.0000000E+00
   3.400000      0.0000000E+00
   3.410000      0.0000000E+00
   3.420000      0.0000000E+00
   3.430000      0.0000000E+00
   3.440000      0.0000000E+00
   3.450000      0.0000000E+00
   3.460000      0.0000000E+00
   3.470000      0.0000000E+00
   3.480000      0.0000000E+00
   3.490000      0.0000000E+00
   3.500000      0.0000000E+00
   3.510000      0.0000000E+00
   3.520000      0.0000000E+00
   3.530000      0.0000000E+00
   3.540000      0.0000000E+00
   3.550000      0.0000000E+00
   3.560000      0.0000000E+00
   3.570000      0.0000000E+00
   3.580000      0.0000000E+00
   3.590000      0.0000000E+00
   3.600000      0.0000000E+00
   3.610000      0.0000000E+00
   3.620000      0.0000000E+00
   3.630000      0.0000000E+00
   3.640000      0.0000000E+00
   3.650000      0.0000000E+00
   3.660000      0.0000000E+00
   3.670000      0.0000000E+00
   3.680000      0.0000000E+00
   3.690000      0.0000000E+00
   3.700000      0.0000000E+00
   3.710000      0.0000000E+00
   3.720000      0.0000000E+00
   3.730000      0.0000000E+00
   3.740000      0.0000000E+00
   3.750000      0.0000000E+00
   3.760000      0.0000000E+00
   3.770000      0.0000000E+00
   3.780000      0.0000000E+00
   3.790000      0.0000000E+00
   3.800000      0.0000000E+00
   3.810000      0.0000000E+00
   3.820000      0.0000000E+00
   3.830000      0.0000000E+00
   3.840000      0.0000000E+00
   3.850000      0.0000000E+00
   3.860000      0.0000000E+00
   3.870000      0.0000000E+00
   3.880000      0.0000000E+00
   3.890000      0.0000000E+00
   3.900000      0.0000000E+00
   3.910000      0.0000000E+00
   3.920000      1.4723002E-38
   3.930000      1.6196002E-38
   3.940000      1.6338228E-38
   3.950000      1.6499590E-38
   3.960000      1.6655420E-38
   3.970000      1.6815395E-38
   3.980000      1.6993940E-38
   3.990000      1.7184755E-38
   4.000000      1.7360650E-38
   4.010000      1.7524923E-38
   4.020000      1.7703946E-38
   4.030000      1.7892573E-38
   4.040000      1.8089154E-38
   4.050000      1.8194863E-38
   4.060000      1.8182058E-38
   4.070000      1.8123406E-38
   4.080000      1.8031581E-38
   4.090000      1.7926294E-38
   4.100000      1.7820865E-38
   4.110000      1.7725739E-38
   4.120000      1.7699937E-38
   4.130000      1.7696120E-38
   4.140000      1.7656592E-38
   4.150000      1.7557289E-38
   4.160000      1.7395597E-38
   4.170000      1.7166577E-38
   4.180000      1.5522077E-38
   4.190000      1.2319522E-38
   4.200000      0.0000000E+00
   4.210000      0.0000000E+00
   4.220000      0.0000000E+00
   4.230000      0.0000000E+00
   4.240000      0.0000000E+00
   4.250000     -1.4159862E-38
   4.260000     -1.8487332E-38
   4.270000     -2.2495759E-38
   4.280000     -2.9650458E-38
   4.290000     -3.8751284E-38
   4.300000     -4.6563859E-38
   4.310000     -5.5891221E-38
   4.320000     -6.6766048E-38
   4.330000     -7.7902167E-38
   4.340000     -8.8567752E-38
   4.350000     -9.8685290E-38
   4.360000     -1.0890042E-37
   4.370000     -1.1916515E-37
   4.380000     -1.2587634E-37
   4.390000     -1.2916244E-37
   4.400000     -1.3258316E-37
   4.410000     -1.3617258E-37
   4.420000     -1.4241294E-37
   4.430000     -1.5244904E-37
   4.440000     -1.6388848E-37
   4.450000     -1.7648963E-37
   4.460000     -1.9031319E-37
   4.470000     -2.0423705E-37
   4.480000     -2.1777873E-37
   4.490000     -2.3174730E-37
   4.500000     -2.4500603E-37
   4.510000     -2.5295536E-37
   4.520000     -2.5284953E-37
   4.530000     -2.4616027E-37
   4.540000     -2.3613361E-37
   4.550000     -2.2383564E-37
   4.560000     -2.0789760E-37
   4.570000     -1.8833510E-37
   4.580000     -1.6675408E-37
   4.590000     -1.4505984E-37
   4.600000     -1.2174729E-37
   4.610000     -9.6521562E-38
   4.620000     -7.0039145E-38
   4.630000     -4.1844283E-38
   4.640000     -2.1614174E-38
   4.650000      0.0000000E+00
   4.660000      0.0000000E+00
   4.670000      1.5616823E-38
   4.680000      3.1040969E-38
   4.690000      4.9308285E-38
   4.700000      7.3521018E-38
   4.710000      1.0675410E-37
   4.720000      1.5462204E-37
   4.730000      2.1736942E-37
   4.740000      2.8789446E-37
   4.750000      3.6356025E-37
   4.760000      4.4137382E-37
   4.770000      5.1674058E-37
   4.780000      5.8554398E-37
   4.790000      6.8439238E-37
   4.800000      8.1677046E-37
   4.810000      9.4459982E-37
   4.820000      1.0378686E-36
   4.830000      1.0995757E-36
   4.840000      1.1735157E-36
   4.850000      1.2637244E-36
   4.860000      1.3617353E-36
   4.870000      1.4692801E-36
   4.880000      1.5870315E-36
   4.890000      1.7020739E-36
   4.900000      1.8096977E-36
   4.910000      1.9120633E-36
   4.920000      2.0083341E-36
   4.930000      2.1008437E-36
   4.940000      2.3378021E-36
   4.950000      2.6705258E-36
   4.960000      3.0722145E-36
   4.970000      3.6259843E-36
   4.980000      4.2452877E-36
   4.990000      4.9440712E-36
   5.000000      5.7279237E-36
   5.010000      6.5913744E-36
   5.020000      7.2714614E-36
   5.030000      7.7008562E-36
   5.040000      7.9512170E-36
   5.050000      8.0522791E-36
   5.060000      7.8513724E-36
   5.070000      7.3009241E-36
   5.080000      6.6961709E-36
   5.090000      6.0967821E-36
   5.100000      5.4881531E-36
   5.110000      4.8415437E-36
   5.120000      4.1974289E-36
   5.130000      3.5795145E-36
   5.140000      3.0978262E-36
   5.150000      2.7424599E-36
   5.160000      2.4019178E-36
   5.170000      2.0851710E-36
   5.180000      1.7962105E-36
   5.190000      1.5412306E-36
   5.200000      1.3892812E-36
   5.210000      1.3386601E-36
   5.220000      1.2967453E-36
   5.230000      1.1853934E-36
   5.240000      9.0984296E-37
   5.250000      4.7410035E-37
   5.260000     -3.9353573E-37
   5.270000     -1.7597685E-36
   5.280000     -3.3803204E-36
   5.290000     -5.2363768E-36
   5.300000     -7.3530551E-36
   5.310000     -9.6589260E-36
   5.320000     -1.2041436E-35
   5.330000     -1.4243568E-35
   5.340000     -1.6312535E-35
   5.350000     -1.8562261E-35
   5.360000     -2.0864874E-35
   5.370000     -2.3143178E-35
   5.380000     -2.5625616E-35
   5.390000     -2.8263680E-35
   5.400000     -3.1051762E-35
   5.410000     -3.3914516E-35
   5.420000     -3.6579883E-35
   5.430000     -3.9300539E-35
   5.440000     -4.1924726E-35
   5.450000     -4.4219546E-35
   5.460000     -4.6174049E-35
   5.470000     -4.7698645E-35
   5.480000     -4.9247738E-35
   5.490000     -5.0726272E-35
   5.500000     -5.2019844E-35
   5.510000     -5.3353858E-35
   5.520000     -5.4260343E-35
   5.530000     -5.4701021E-35
   5.540000     -5.5139409E-35
   5.550000     -5.5707911E-35
   5.560000     -5.6265720E-35
   5.570000     -5.6775321E-35
   5.580000     -5.4709820E-35
   5.590000     -4.9939965E-35
   5.600000     -4.7528293E-35
   5.610000     -5.0086299E-35
   5.620000     -5.5120732E-35
   5.630000     -5.9850685E-35
   5.640000     -6.4277770E-35
   5.650000     -6.5524649E-35
   5.660000     -6.6946550E-35
   5.670000     -7.1535082E-35
   5.680000     -7.5708437E-35
   5.690000     -7.9619802E-35
   5.700000     -8.3324010E-35
   5.710000     -8.6449930E-35
   5.720000     -8.8741644E-35
   5.730000     -8.9992547E-35
   5.740000     -8.6529522E-35
   5.750000     -7.5504407E-35
   5.760000     -5.9628782E-35
   5.770000     -4.1298865E-35
   5.780000     -1.7736636E-35
   5.790000      1.0508101E-35
   5.800000      3.9590506E-35
   5.810000      6.8742617E-35
   5.820000      9.4021313E-35
   5.830000      1.1789461E-34
   5.840000      1.4307753E-34
   5.850000      1.6639789E-34
   5.860000      1.8607122E-34
   5.870000      2.0358297E-34
   5.880000      2.2132382E-34
   5.890000      2.3902392E-34
   5.900000      2.5312567E-34
   5.910000      2.6070580E-34
   5.920000      2.6452289E-34
   5.930000      2.7033188E-34
   5.940000      2.7946269E-34
   5.950000      2.9155809E-34
   5.960000      3.0272208E-34
   5.970000      3.1118518E-34
   5.980000      3.2154144E-34
   5.990000      3.3383512E-34
   6.000000      3.4941739E-34
   6.010000      3.6703000E-34
   6.020000      3.8435658E-34
   6.030000      4.0116155E-34
   6.040000      4.2037216E-34
   6.050000      4.4358023E-34
   6.060000      4.6987609E-34
   6.070000      4.9864025E-34
   6.080000      5.3024603E-34
   6.090000      5.6435952E-34
   6.100000      5.9829512E-34
   6.110000      6.3118022E-34
   6.120000      6.6159995E-34
   6.130000      6.8888744E-34
   6.140000      7.1308674E-34
   6.150000      7.3287210E-34
   6.160000      7.4780905E-34
   6.170000      7.5513348E-34
   6.180000      7.5451286E-34
   6.190000      7.5122001E-34
   6.200000      7.4610647E-34
   6.210000      7.3787764E-34
   6.220000      7.1858553E-34
   6.230000      6.8637386E-34
   6.240000      6.4829689E-34
   6.250000      6.0486485E-34
   6.260000      5.5671119E-34
   6.270000      5.0444366E-34
   6.280000      4.4852796E-34
   6.290000      3.9028249E-34
   6.300000      3.3217983E-34
   6.310000      2.7307886E-34
   6.320000      2.1057145E-34
   6.330000      1.4408193E-34
   6.340000      7.5917420E-35
   6.350000      7.8404957E-36
   6.360000     -6.2579244E-35
   6.370000     -1.3607013E-34
   6.380000     -2.1294661E-34
   6.390000     -2.9334214E-34
   6.400000     -3.7716645E-34
   6.410000     -4.6636329E-34
   6.420000     -5.6189378E-34
   6.430000     -6.6215785E-34
   6.440000     -7.6794160E-34
   6.450000     -8.8268238E-34
   6.460000     -1.0037356E-33
   6.470000     -1.1319813E-33
   6.480000     -1.2732036E-33
   6.490000     -1.4251412E-33
   6.500000     -1.5876991E-33
   6.510000     -1.7560561E-33
   6.520000     -1.9305987E-33
   6.530000     -2.1177328E-33
   6.540000     -2.3131982E-33
   6.550000     -2.5157969E-33
   6.560000     -2.7217510E-33
   6.570000     -2.9334979E-33
   6.580000     -3.1521770E-33
   6.590000     -3.3676510E-33
   6.600000     -3.5793190E-33
   6.610000     -3.7869153E-33
   6.620000     -3.9902769E-33
   6.630000     -4.1913250E-33
   6.640000     -4.3901176E-33
   6.650000     -4.5852016E-33
   6.660000     -4.7750289E-33
   6.670000     -4.9597854E-33
   6.680000     -5.1385149E-33
   6.690000     -5.3104254E-33
   6.700000     -5.4744484E-33
   6.710000     -5.6295251E-33
   6.720000     -5.7748485E-33
   6.730000     -5.9099474E-33
   6.740000     -6.0337185E-33
   6.750000     -6.1482245E-33
   6.760000     -6.2544800E-33
   6.770000     -6.3490022E-33
   6.780000     -6.4295361E-33
   6.790000     -6.4950030E-33
   6.800000     -6.5441049E-33
   6.810000     -6.5750410E-33
   6.820000     -6.5858526E-33
   6.830000     -6.5732968E-33
   6.840000     -6.5351836E-33
   6.850000     -6.4698313E-33
   6.860000     -6.3752532E-33
   6.870000     -6.2492960E-33
   6.880000     -6.0892040E-33
   6.890000     -5.8926231E-33
   6.900000     -5.6573806E-33
   6.910000     -5.3818760E-33
   6.920000     -5.0639966E-33
   6.930000     -4.7015274E-33
   6.940000     -4.2927658E-33
   6.950000     -3.8362354E-33
   6.960000     -3.3307651E-33
   6.970000     -2.7751950E-33
   6.980000     -2.1683187E-33
   6.990000     -1.5096683E-33
   7.000000     -7.9903622E-34
   7.010000     -3.6465026E-35
   7.020000      7.7876602E-34
   7.030000      1.6476243E-33
   7.040000      2.5697442E-33
   7.050000      3.5449486E-33
   7.060000      4.5732395E-33