  -2.600000      0.0000000E+00
  -2.590000      0.0000000E+00
  -2.580000      0.0000000E+00
  -2.570000      0.0000000E+00
  -2.560000      0.0000000E+00
  -2.550000      0.0000000E+00
  -2.540000      0.0000000E+00
  -2.530000      0.0000000E+00
  -2.520000      0.0000000E+00
  -2.510000      0.0000000E+00
  -2.500000      0.0000000E+00
  -2.490000      0.0000000E+00
  -2.480000      0.0000000E+00
  -2.470000      0.0000000E+00
  -2.460000      0.0000000E+00
  -2.450000      0.0000000E+00
  -2.440000      0.0000000E+00
  -2.430000      0.0000000E+00
  -2.420000      0.0000000E+00
  -2.410000      0.0000000E+00
  -2.400000      0.0000000E+00
  -2.390000      0.0000000E+00
  -2.380000      0.0000000E+00
  -2.370000      0.0000000E+00
  -2.360000      0.0000000E+00
  -2.350000      0.0000000E+00
  -2.340000      0.0000000E+00
  -2.330000      0.0000000E+00
  -2.320000      0.0000000E+00
  -2.310000      0.0000000E+00
  -2.300000      0.0000000E+00
  -2.290000      0.0000000E+00
  -2.280000      0.0000000E+00
  -2.270000      0.0000000E+00
  -2.260000      0.0000000E+00
  -2.250000      0.0000000E+00
  -2.240000      0.0000000E+00
  -2.230000      0.0000000E+00
  -2.220000      0.0000000E+00
  -2.210000      0.0000000E+00
  -2.200000      0.0000000E+00
  -2.190000      0.0000000E+00
  -2.180000      0.0000000E+00
  -2.170000      0.0000000E+00
  -2.160000      0.0000000E+00
  -2.150000      0.0000000E+00
  -2.140000      0.0000000E+00
  -2.130000      0.0000000E+00
  -2.120000      0.0000000E+00
  -2.110000      0.0000000E+00
  -2.100000      0.0000000E+00
  -2.090000      0.0000000E+00
  -2.080000      0.0000000E+00
  -2.070000      0.0000000E+00
  -2.060000      0.0000000E+00
  -2.050000      0.0000000E+00
  -2.040000      0.0000000E+00
  -2.030000      0.0000000E+00
  -2.020000      0.0000000E+00
  -2.010000      0.0000000E+00
  -2.000000      0.0000000E+00
  -1.990000      0.0000000E+00
  -1.980000      0.0000000E+00
  -1.970000      0.0000000E+00
  -1.960000      0.0000000E+00
  -1.950000      0.0000000E+00
  -1.940000      0.0000000E+00
  -1.930000      0.0000000E+00
  -1.920000      0.0000000E+00
  -1.910000      0.0000000E+00
  -1.900000      0.0000000E+00
  -1.890000      0.0000000E+00
  -1.880000      0.0000000E+00
  -1.870000      0.0000000E+00
  -1.860000      0.0000000E+00
  -1.850000      0.0000000E+00
  -1.840000      0.0000000E+00
  -1.830000      0.0000000E+00
  -1.820000      0.0000000E+00
  -1.810000      0.0000000E+00
  -1.800000      0.0000000E+00
  -1.790000      0.0000000E+00
  -1.780000      0.0000000E+00
  -1.770000      0.0000000E+00
  -1.760000      0.0000000E+00
  -1.750000      0.0000000E+00
  -1.740000      0.0000000E+00
  -1.730000      0.0000000E+00
  -1.720000      0.0000000E+00
  -1.710000      0.0000000E+00
  -1.700000      0.0000000E+00
  -1.690000      0.0000000E+00
  -1.680000      0.0000000E+00
  -1.670000      0.0000000E+00
  -1.660000      0.0000000E+00
  -1.650000      0.0000000E+00
  -1.640000      0.0000000E+00
  -1.630000      0.0000000E+00
  -1.620000      0.0000000E+00
  -1.610000      0.0000000E+00
  -1.600000      0.0000000E+00
  -1.590000      0.0000000E+00
  -1.580000      0.0000000E+00
  -1.570000      0.0000000E+00
  -1.560000      0.0000000E+00
  -1.550000      0.0000000E+00
  -1.540000      0.0000000E+00
  -1.530000      0.0000000E+00
  -1.520000      0.0000000E+00
  -1.510000      0.0000000E+00
  -1.500000      0.0000000E+00
  -1.490000      0.0000000E+00
  -1.480000      0.0000000E+00
  -1.470000      0.0000000E+00
  -1.460000      0.0000000E+00
  -1.450000      0.0000000E+00
  -1.440000      0.0000000E+00
  -1.430000      0.0000000E+00
  -1.420000      0.0000000E+00
  -1.410000      0.0000000E+00
  -1.400000      0.0000000E+00
  -1.390000      0.0000000E+00
  -1.380000      0.0000000E+00
  -1.370000      0.0000000E+00
  -1.360000      0.0000000E+00
  -1.350000      0.0000000E+00
  -1.340000      0.0000000E+00
  -1.330000      0.0000000E+00
  -1.320000      0.0000000E+00
  -1.310000      0.0000000E+00
  -1.300000      0.0000000E+00
  -1.290000      0.0000000E+00
  -1.280000      0.0000000E+00
  -1.270000      0.0000000E+00
  -1.260000      0.0000000E+00
  -1.250000      0.0000000E+00
  -1.240000      0.0000000E+00
  -1.230000      0.0000000E+00
  -1.220000      0.0000000E+00
  -1.210000      0.0000000E+00
  -1.200000      0.0000000E+00
  -1.190000      0.0000000E+00
  -1.180000      0.0000000E+00
  -1.170000      0.0000000E+00
  -1.160000      0.0000000E+00
  -1.150000      0.0000000E+00
  -1.140000      0.0000000E+00
  -1.130000      0.0000000E+00
  -1.120000      0.0000000E+00
  -1.110000      0.0000000E+00
  -1.100000      0.0000000E+00
  -1.090000      0.0000000E+00
  -1.080000      0.0000000E+00
  -1.070000      0.0000000E+00
  -1.060000      0.0000000E+00
  -1.050000      0.0000000E+00
  -1.040000      0.0000000E+00
  -1.030000      0.0000000E+00
  -1.020000      0.0000000E+00
  -1.010000      0.0000000E+00
  -1.000000      0.0000000E+00
 -0.9900000      0.0000000E+00
 -0.9800000      0.0000000E+00
 -0.9700000      0.0000000E+00
 -0.9600000      0.0000000E+00
 -0.9500000      0.0000000E+00
 -0.9400000      0.0000000E+00
 -0.9300000      0.0000000E+00
 -0.9200000      0.0000000E+00
 -0.9100000      0.0000000E+00
 -0.9000000      0.0000000E+00
 -0.8900000      0.0000000E+00
 -0.8800000      0.0000000E+00
 -0.8700000      0.0000000E+00
 -0.8600000      0.0000000E+00
 -0.8500000      0.0000000E+00
 -0.8400000      0.0000000E+00
 -0.8300000      0.0000000E+00
 -0.8200000      0.0000000E+00
 -0.8100000      0.0000000E+00
 -0.8000000      0.0000000E+00
 -0.7900000      0.0000000E+00
 -0.7800000      0.0000000E+00
 -0.7700000      0.0000000E+00
 -0.7600000      0.0000000E+00
 -0.7500000      0.0000000E+00
 -0.7400000      0.0000000E+00
 -0.7300000      0.0000000E+00
 -0.7200000      0.0000000E+00
 -0.7100000      0.0000000E+00
 -0.7000000      0.0000000E+00
 -0.6900000      0.0000000E+00
 -0.6800000      0.0000000E+00
 -0.6700000      0.0000000E+00
 -0.6600000      0.0000000E+00
 -0.6500000      0.0000000E+00
 -0.6400000      0.0000000E+00
 -0.6300000      0.0000000E+00
 -0.6200000      0.0000000E+00
 -0.6100000      0.0000000E+00
 -0.6000000      0.0000000E+00
 -0.5900000      0.0000000E+00
 -0.5800000      0.0000000E+00
 -0.5700000      0.0000000E+00
 -0.5600000      0.0000000E+00
 -0.5500000      0.0000000E+00
 -0.5400000      0.0000000E+00
 -0.5300000      0.0000000E+00
 -0.5200000      0.0000000E+00
 -0.5100000      0.0000000E+00
 -0.5000000      0.0000000E+00
 -0.4900000      0.0000000E+00
 -0.4800000      0.0000000E+00
 -0.4700000      0.0000000E+00
 -0.4600000      0.0000000E+00
 -0.4500000      0.0000000E+00
 -0.4400000      0.0000000E+00
 -0.4300000      0.0000000E+00
 -0.4200000      0.0000000E+00
 -0.4100000      0.0000000E+00
 -0.4000000      0.0000000E+00
 -0.3900000      0.0000000E+00
 -0.3800000      0.0000000E+00
 -0.3700000      0.0000000E+00
 -0.3600000      0.0000000E+00
 -0.3500000      0.0000000E+00
 -0.3400000      0.0000000E+00
 -0.3300000      0.0000000E+00
 -0.3200000      0.0000000E+00
 -0.3100000      0.0000000E+00
 -0.3000000      0.0000000E+00
 -0.2900000      0.0000000E+00
 -0.2800000      0.0000000E+00
 -0.2700000      0.0000000E+00
 -0.2600000      0.0000000E+00
 -0.2500000      0.0000000E+00
 -0.2400000      0.0000000E+00
 -0.2300000      0.0000000E+00
 -0.2200000      0.0000000E+00
 -0.2100000      0.0000000E+00
 -0.2000000      0.0000000E+00
 -0.1900000      0.0000000E+00
 -0.1800000      0.0000000E+00
 -0.1700000      0.0000000E+00
 -0.1600000      0.0000000E+00
 -0.1500000      0.0000000E+00
 -0.1400000      0.0000000E+00
 -0.1300000      0.0000000E+00
 -0.1200000      0.0000000E+00
 -0.1100000      0.0000000E+00
 -0.1000000      0.0000000E+00
 -9.0000004E-02  0.0000000E+00
 -7.9999998E-02  0.0000000E+00
 -7.0000000E-02  0.0000000E+00
 -5.9999999E-02  0.0000000E+00
 -5.0000001E-02  0.0000000E+00
 -3.9999999E-02  0.0000000E+00
 -2.9999999E-02  0.0000000E+00
 -2.0000000E-02  0.0000000E+00
 -9.9999998E-03  0.0000000E+00
 -3.4694470E-17  0.0000000E+00
  9.9999998E-03  0.0000000E+00
  2.0000000E-02  0.0000000E+00
  2.9999999E-02  0.0000000E+00
  3.9999999E-02  0.0000000E+00
  5.0000001E-02  0.0000000E+00
  5.9999999E-02  0.0000000E+00
  7.0000000E-02  0.0000000E+00
  7.9999998E-02  0.0000000E+00
  9.0000004E-02  0.0000000E+00
  0.1000000      0.0000000E+00
  0.1100000      0.0000000E+00
  0.1200000      0.0000000E+00
  0.1300000      0.0000000E+00
  0.1400000      0.0000000E+00
  0.1500000      0.0000000E+00
  0.1600000      0.0000000E+00
  0.1700000      0.0000000E+00
  0.1800000      0.0000000E+00
  0.1900000      0.0000000E+00
  0.2000000      0.0000000E+00
  0.2100000      0.0000000E+00
  0.2200000      0.0000000E+00
  0.2300000      0.0000000E+00
  0.2400000      0.0000000E+00
  0.2500000      0.0000000E+00
  0.2600000      0.0000000E+00
  0.2700000      0.0000000E+00
  0.2800000      0.0000000E+00
  0.2900000      0.0000000E+00
  0.3000000      0.0000000E+00
  0.3100000      0.0000000E+00
  0.3200000      0.0000000E+00
  0.3300000      0.0000000E+00
  0.3400000      0.0000000E+00
  0.3500000      0.0000000E+00
  0.3600000      0.0000000E+00
  0.3700000      0.0000000E+00
  0.3800000      0.0000000E+00
  0.3900000      0.0000000E+00
  0.4000000      0.0000000E+00
  0.4100000      0.0000000E+00
  0.4200000      0.0000000E+00
  0.4300000      0.0000000E+00
  0.4400000      0.0000000E+00
  0.4500000      0.0000000E+00
  0.4600000      0.0000000E+00
  0.4700000      0.0000000E+00
  0.4800000      0.0000000E+00
  0.4900000      0.0000000E+00
  0.5000000      0.0000000E+00
  0.5100000      0.0000000E+00
  0.5200000      0.0000000E+00
  0.5300000      0.0000000E+00
  0.5400000      0.0000000E+00
  0.5500000      0.0000000E+00
  0.5600000      0.0000000E+00
  0.5700000      0.0000000E+00
  0.5800000      0.0000000E+00
  0.5900000      0.0000000E+00
  0.6000000      0.0000000E+00
  0.6100000      0.0000000E+00
  0.6200000      0.0000000E+00
  0.6300000      0.0000000E+00
  0.6400000      0.0000000E+00
  0.6500000      0.0000000E+00
  0.6600000      0.0000000E+00
  0.6700000      0.0000000E+00
  0.6800000      0.0000000E+00
  0.6900000      0.0000000E+00
  0.7000000      0.0000000E+00
  0.7100000      0.0000000E+00
  0.7200000      0.0000000E+00
  0.7300000      0.0000000E+00
  0.7400000      0.0000000E+00
  0.7500000      0.0000000E+00
  0.7600000      0.0000000E+00
  0.7700000      0.0000000E+00
  0.7800000      0.0000000E+00
  0.7900000      0.0000000E+00
  0.8000000      0.0000000E+00
  0.8100000      0.0000000E+00
  0.8200000      0.0000000E+00
  0.8300000      0.0000000E+00
  0.8400000      0.0000000E+00
  0.8500000      0.0000000E+00
  0.8600000      0.0000000E+00
  0.8700000      0.0000000E+00
  0.8800000      0.0000000E+00
  0.8900000      0.0000000E+00
  0.9000000      0.0000000E+00
  0.9100000      0.0000000E+00
  0.9200000      0.0000000E+00
  0.9300000      0.0000000E+00
  0.9400000      0.0000000E+00
  0.9500000      0.0000000E+00
  0.9600000      0.0000000E+00
  0.9700000      0.0000000E+00
  0.9800000      0.0000000E+00
  0.9900000      0.0000000E+00
   1.000000      0.0000000E+00
   1.010000      0.0000000E+00
   1.020000      0.0000000E+00
   1.030000      0.0000000E+00
   1.040000      0.0000000E+00
   1.050000      0.0000000E+00
   1.060000      0.0000000E+00
   1.070000      0.0000000E+00
   1.080000      0.0000000E+00
   1.090000      0.0000000E+00
   1.100000      0.0000000E+00
   1.110000      0.0000000E+00
   1.120000      0.0000000E+00
   1.130000      0.0000000E+00
   1.140000      0.0000000E+00
   1.150000      0.0000000E+00
   1.160000      0.0000000E+00
   1.170000      0.0000000E+00
   1.180000      0.0000000E+00
   1.190000      0.0000000E+00
   1.200000      0.0000000E+00
   1.210000      0.0000000E+00
   1.220000      0.0000000E+00
   1.230000      0.0000000E+00
   1.240000      0.0000000E+00
   1.250000      0.0000000E+00
   1.260000      0.0000000E+00
   1.270000      0.0000000E+00
   1.280000      0.0000000E+00
   1.290000      0.0000000E+00
   1.300000      0.0000000E+00
   1.310000      0.0000000E+00
   1.320000      0.0000000E+00
   1.330000      0.0000000E+00
   1.340000      0.0000000E+00
   1.350000      0.0000000E+00
   1.360000      0.0000000E+00
   1.370000      0.0000000E+00
   1.380000      0.0000000E+00
   1.390000      0.0000000E+00
   1.400000      0.0000000E+00
   1.410000      0.0000000E+00
   1.420000      0.0000000E+00
   1.430000      0.0000000E+00
   1.440000      0.0000000E+00
   1.450000      0.0000000E+00
   1.460000      0.0000000E+00
   1.470000      0.0000000E+00
   1.480000      0.0000000E+00
   1.490000      0.0000000E+00
   1.500000      0.0000000E+00
   1.510000      0.0000000E+00
   1.520000      0.0000000E+00
   1.530000      0.0000000E+00
   1.540000      0.0000000E+00
   1.550000      0.0000000E+00
   1.560000      0.0000000E+00
   1.570000      0.0000000E+00
   1.580000      0.0000000E+00
   1.590000      0.0000000E+00
   1.600000      0.0000000E+00
   1.610000      0.0000000E+00
   1.620000      0.0000000E+00
   1.630000      0.0000000E+00
   1.640000      0.0000000E+00
   1.650000      0.0000000E+00
   1.660000      0.0000000E+00
   1.670000      0.0000000E+00
   1.680000      0.0000000E+00
   1.690000      0.0000000E+00
   1.700000      0.0000000E+00
   1.710000      0.0000000E+00
   1.720000      0.0000000E+00
   1.730000      0.0000000E+00
   1.740000      0.0000000E+00
   1.750000      0.0000000E+00
   1.760000      0.0000000E+00
   1.770000      0.0000000E+00
   1.780000      0.0000000E+00
   1.790000      0.0000000E+00
   1.800000      0.0000000E+00
   1.810000      0.0000000E+00
   1.820000      0.0000000E+00
   1.830000      0.0000000E+00
   1.840000      0.0000000E+00
   1.850000      0.0000000E+00
   1.860000      0.0000000E+00
   1.870000      0.0000000E+00
   1.880000      0.0000000E+00
   1.890000      0.0000000E+00
   1.900000      0.0000000E+00
   1.910000      0.0000000E+00
   1.920000      0.0000000E+00
   1.930000      0.0000000E+00
   1.940000      0.0000000E+00
   1.950000      0.0000000E+00
   1.960000      0.0000000E+00
   1.970000      0.0000000E+00
   1.980000      0.0000000E+00
   1.990000      0.0000000E+00
   2.000000      0.0000000E+00
   2.010000      0.0000000E+00
   2.020000      0.0000000E+00
   2.030000      0.0000000E+00
   2.040000      0.0000000E+00
   2.050000      0.0000000E+00
   2.060000      0.0000000E+00
   2.070000      0.0000000E+00
   2.080000      0.0000000E+00
   2.090000      0.0000000E+00
   2.100000      0.0000000E+00
   2.110000      0.0000000E+00
   2.120000      0.0000000E+00
   2.130000      0.0000000E+00
   2.140000      0.0000000E+00
   2.150000      0.0000000E+00
   2.160000      0.0000000E+00
   2.170000      0.0000000E+00
   2.180000      0.0000000E+00
   2.190000      0.0000000E+00
   2.200000      0.0000000E+00
   2.210000      0.0000000E+00
   2.220000      0.0000000E+00
   2.230000      0.0000000E+00
   2.240000      0.0000000E+00
   2.250000      0.0000000E+00
   2.260000      0.0000000E+00
   2.270000      0.0000000E+00
   2.280000      0.0000000E+00
   2.290000      0.0000000E+00
   2.300000      0.0000000E+00
   2.310000      0.0000000E+00
   2.320000      0.0000000E+00
   2.330000      0.0000000E+00
   2.340000      0.0000000E+00
   2.350000      0.0000000E+00
   2.360000      0.0000000E+00
   2.370000      0.0000000E+00
   2.380000      0.0000000E+00
   2.390000      0.0000000E+00
   2.400000      0.0000000E+00
   2.410000      0.0000000E+00
   2.420000      0.0000000E+00
   2.430000      0.0000000E+00
   2.440000      0.0000000E+00
   2.450000      0.0000000E+00
   2.460000      0.0000000E+00
   2.470000      0.0000000E+00
   2.480000      0.0000000E+00
   2.490000      0.0000000E+00
   2.500000      0.0000000E+00
   2.510000      0.0000000E+00
   2.520000      0.0000000E+00
   2.530000      0.0000000E+00
   2.540000      0.0000000E+00
   2.550000      0.0000000E+00
   2.560000      0.0000000E+00
   2.570000      0.0000000E+00
   2.580000      0.0000000E+00
   2.590000      0.0000000E+00
   2.600000      0.0000000E+00
   2.610000      0.0000000E+00
   2.620000      0.0000000E+00
   2.630000      0.0000000E+00
   2.640000      0.0000000E+00
   2.650000      0.0000000E+00
   2.660000      0.0000000E+00
   2.670000      0.0000000E+00
   2.680000      0.0000000E+00
   2.690000      0.0000000E+00
   2.700000      0.0000000E+00
   2.710000      0.0000000E+00
   2.720000      0.0000000E+00
   2.730000      0.0000000E+00
   2.740000      0.0000000E+00
   2.750000      0.0000000E+00
   2.760000      0.0000000E+00
   2.770000      0.0000000E+00
   2.780000      0.0000000E+00
   2.790000      0.0000000E+00
   2.800000      0.0000000E+00
   2.810000      0.0000000E+00
   2.820000      0.0000000E+00
   2.830000      0.0000000E+00
   2.840000      0.0000000E+00
   2.850000      0.0000000E+00
   2.860000      0.0000000E+00
   2.870000      0.0000000E+00
   2.880000      0.0000000E+00
   2.890000      0.0000000E+00
   2.900000      0.0000000E+00
   2.910000      0.0000000E+00
   2.920000      0.0000000E+00
   2.930000      0.0000000E+00
   2.940000      0.0000000E+00
   2.950000      0.0000000E+00
   2.960000      0.0000000E+00
   2.970000      0.0000000E+00
   2.980000      0.0000000E+00
   2.990000      0.0000000E+00
   3.000000      0.0000000E+00
   3.010000      0.0000000E+00
   3.020000      0.0000000E+00
   3.030000      0.0000000E+00
   3.040000      0.0000000E+00
   3.050000      0.0000000E+00
   3.060000      0.0000000E+00
   3.070000      0.0000000E+00
   3.080000      0.0000000E+00
   3.090000      0.0000000E+00
   3.100000      0.0000000E+00
   3.110000      0.0000000E+00
   3.120000      0.0000000E+00
   3.130000      0.0000000E+00
   3.140000      0.0000000E+00
   3.150000      0.0000000E+00
   3.160000      0.0000000E+00
   3.170000      0.0000000E+00
   3.180000      0.0000000E+00
   3.190000      0.0000000E+00
   3.200000      0.0000000E+00
   3.210000      0.0000000E+00
   3.220000      0.0000000E+00
   3.230000      0.0000000E+00
   3.240000      0.0000000E+00
   3.250000      0.0000000E+00
   3.260000      0.0000000E+00
   3.270000      0.0000000E+00
   3.280000      0.0000000E+00
   3.290000      0.0000000E+00
   3.300000      0.0000000E+00
   3.310000      0.0000000E+00
   3.320000      0.0000000E+00
   3.330000      0.0000000E+00
   3.340000      0.0000000E+00
   3.350000      0.0000000E+00
   3.360000      0.0000000E+00
   3.370000      0.0000000E+00
   3.380000      0.0000000E+00
   3.390000      0.0000000E+00
   3.400000      0.0000000E+00
   3.410000      0.0000000E+00
   3.420000      0.0000000E+00
   3.430000      0.0000000E+00
   3.440000      0.0000000E+00
   3.450000      0.0000000E+00
   3.460000      0.0000000E+00
   3.470000      0.0000000E+00
   3.480000      0.0000000E+00
   3.490000      0.0000000E+00
   3.500000      0.0000000E+00
   3.510000      0.0000000E+00
   3.520000      0.0000000E+00
   3.530000      0.0000000E+00
   3.540000      0.0000000E+00
   3.550000      0.0000000E+00
   3.560000      0.0000000E+00
   3.570000      0.0000000E+00
   3.580000      0.0000000E+00
   3.590000      0.0000000E+00
   3.600000      0.0000000E+00
   3.610000      0.0000000E+00
   3.620000      0.0000000E+00
   3.630000      0.0000000E+00
   3.640000      0.0000000E+00
   3.650000      0.0000000E+00
   3.660000      0.0000000E+00
   3.670000      0.0000000E+00
   3.680000      0.0000000E+00
   3.690000      0.0000000E+00
   3.700000      0.0000000E+00
   3.710000      0.0000000E+00
   3.720000      0.0000000E+00
   3.730000      0.0000000E+00
   3.740000      0.0000000E+00
   3.750000      0.0000000E+00
   3.760000      0.0000000E+00
   3.770000      0.0000000E+00
   3.780000      0.0000000E+00
   3.790000      0.0000000E+00
   3.800000      0.0000000E+00
   3.810000      0.0000000E+00
   3.820000      0.0000000E+00
   3.830000      0.0000000E+00
   3.840000      0.0000000E+00
   3.850000      0.0000000E+00
   3.860000      0.0000000E+00
   3.870000      0.0000000E+00
   3.880000      0.0000000E+00
   3.890000      0.0000000E+00
   3.900000      0.0000000E+00
   3.910000      0.0000000E+00
   3.920000      0.0000000E+00
   3.930000      0.0000000E+00
   3.940000      0.0000000E+00
   3.950000      0.0000000E+00
   3.960000      0.0000000E+00
   3.970000      0.0000000E+00
   3.980000      0.0000000E+00
   3.990000      0.0000000E+00
   4.000000      0.0000000E+00
   4.010000      0.0000000E+00
   4.020000      0.0000000E+00
   4.030000      0.0000000E+00
   4.040000      0.0000000E+00
   4.050000      0.0000000E+00
   4.060000      0.0000000E+00
   4.070000      0.0000000E+00
   4.080000     -1.4769345E-38
   4.090000     -1.8335632E-38
   4.100000     -2.2039695E-38
   4.110000     -2.5870282E-38
   4.120000     -2.9837419E-38
   4.130000     -3.3957388E-38
   4.140000     -3.8213493E-38
   4.150000     -4.2585062E-38
   4.160000     -4.7023126E-38
   4.170000     -5.1559292E-38
   4.180000     -5.6249684E-38
   4.190000     -6.1089489E-38
   4.200000     -6.6085858E-38
   4.210000     -7.1249486E-38
   4.220000     -7.6618101E-38
   4.230000     -8.2167686E-38
   4.240000     -8.7934304E-38
   4.250000     -9.4027418E-38
   4.260000     -1.0048931E-37
   4.270000     -1.0734204E-37
   4.280000     -1.1460071E-37
   4.290000     -1.2225682E-37
   4.300000     -1.3027363E-37
   4.310000     -1.3859257E-37
   4.320000     -1.4716907E-37
   4.330000     -1.5593995E-37
   4.340000     -1.6368110E-37
   4.350000     -1.7027430E-37
   4.360000     -1.7670615E-37
   4.370000     -1.8292130E-37
   4.380000     -1.8882914E-37
   4.390000     -1.9423656E-37
   4.400000     -1.9911496E-37
   4.410000     -2.0323738E-37
   4.420000     -2.0763351E-37
   4.430000     -2.1265063E-37
   4.440000     -2.1715245E-37
   4.450000     -2.2903571E-37
   4.460000     -2.4827704E-37
   4.470000     -2.6591486E-37
   4.480000     -2.8171830E-37
   4.490000     -2.9399726E-37
   4.500000     -2.9440705E-37
   4.510000     -2.8380984E-37
   4.520000     -2.7021249E-37
   4.530000     -2.5191275E-37
   4.540000     -2.2853727E-37
   4.550000     -2.0278143E-37
   4.560000     -1.7529665E-37
   4.570000     -1.4663427E-37
   4.580000     -1.1926610E-37
   4.590000     -9.2935398E-38
   4.600000     -6.8361796E-38
   4.610000     -4.5235610E-38
   4.620000     -1.9995458E-38
   4.630000      0.0000000E+00
   4.640000      4.0718398E-38
   4.650000      7.2398466E-38
   4.660000      9.8012969E-38
   4.670000      1.1850300E-37
   4.680000      1.3959068E-37
   4.690000      1.5945036E-37
   4.700000      1.7703137E-37
   4.710000      2.2125720E-37
   4.720000      2.9471856E-37
   4.730000      3.7243805E-37
   4.740000      4.5028948E-37
   4.750000      5.3728370E-37
   4.760000      6.2563353E-37
   4.770000      7.0847825E-37
   4.780000      7.9810786E-37
   4.790000      7.8555814E-37
   4.800000      6.6783158E-37
   4.810000      5.5042421E-37
   4.820000      5.8496023E-37
   4.830000      7.6579181E-37
   4.840000      9.3059778E-37
   4.850000      1.0834831E-36
   4.860000      1.2386887E-36
   4.870000      1.3915127E-36
   4.880000      1.5515607E-36
   4.890000      1.7209882E-36
   4.900000      1.8855829E-36
   4.910000      2.0375549E-36
   4.920000      2.1184124E-36
   4.930000      2.1400340E-36
   4.940000      2.1598824E-36
   4.950000      2.1699793E-36
   4.960000      2.1509642E-36
   4.970000      2.0975121E-36
   4.980000      2.0213854E-36
   4.990000      1.8952497E-36
   5.000000      1.7183053E-36
   5.010000      1.7185237E-36
   5.020000      1.9907554E-36
   5.030000      2.3512911E-36
   5.040000      2.7641717E-36
   5.050000      3.3386361E-36
   5.060000      4.0426011E-36
   5.070000      4.7726628E-36
   5.080000      4.8729173E-36
   5.090000      4.2013430E-36
   5.100000      3.3228626E-36
   5.110000      2.3371508E-36
   5.120000      1.3249841E-36
   5.130000      3.0272670E-37
   5.140000     -6.3864287E-37
   5.150000     -1.3928245E-36
   5.160000     -1.9355307E-36
   5.170000     -2.2404017E-36
   5.180000     -2.3390194E-36
   5.190000     -2.2847165E-36
   5.200000     -2.1062198E-36
   5.210000     -1.7472991E-36
   5.220000     -1.2431736E-36
   5.230000     -1.6887662E-36
   5.240000     -3.2227085E-36
   5.250000     -4.9742022E-36
   5.260000     -7.0472881E-36
   5.270000     -9.2614684E-36
   5.280000     -1.1372099E-35
   5.290000     -1.3417578E-35
   5.300000     -1.5414833E-35
   5.310000     -1.7267115E-35
   5.320000     -1.8890137E-35
   5.330000     -1.9417938E-35
   5.340000     -1.9636622E-35
   5.350000     -2.0867078E-35
   5.360000     -2.2682221E-35
   5.370000     -2.4728811E-35
   5.380000     -2.6897871E-35
   5.390000     -2.9320881E-35
   5.400000     -3.1941961E-35
   5.410000     -3.4678932E-35
   5.420000     -3.7374573E-35
   5.430000     -3.9920884E-35
   5.440000     -4.2259208E-35
   5.450000     -4.4327892E-35
   5.460000     -4.6076150E-35
   5.470000     -4.6436977E-35
   5.480000     -4.6176288E-35
   5.490000     -4.6419526E-35
   5.500000     -4.6618364E-35
   5.510000     -4.6901659E-35
   5.520000     -4.6772627E-35
   5.530000     -4.6568758E-35
   5.540000     -4.7292873E-35
   5.550000     -4.8737741E-35
   5.560000     -4.9736526E-35
   5.570000     -5.0092280E-35
   5.580000     -5.0408131E-35
   5.590000     -4.9729145E-35
   5.600000     -4.7519012E-35
   5.610000     -4.3840512E-35
   5.620000     -4.1738616E-35
   5.630000     -4.1863165E-35
   5.640000     -4.1614055E-35
   5.650000     -4.1730216E-35
   5.660000     -4.2536368E-35
   5.670000     -4.4106006E-35
   5.680000     -4.6616943E-35
   5.690000     -4.9660969E-35
   5.700000     -4.8711648E-35
   5.710000     -4.1154043E-35
   5.720000     -2.9061357E-35
   5.730000     -1.2561352E-35
   5.740000      7.5570849E-36
   5.750000      2.9301507E-35
   5.760000      5.1167926E-35
   5.770000      7.1648820E-35
   5.780000      8.9429062E-35
   5.790000      1.0309155E-34
   5.800000      1.0443364E-34
   5.810000      9.6204254E-35
   5.820000      8.7869615E-35
   5.830000      7.8737596E-35
   5.840000      6.7250600E-35
   5.850000      7.5726764E-35
   5.860000      1.0924062E-34
   5.870000      1.4775522E-34
   5.880000      1.8587263E-34
   5.890000      2.2091568E-34
   5.900000      2.5473385E-34
   5.910000      2.8934963E-34
   5.920000      3.1542366E-34
   5.930000      3.3009792E-34
   5.940000      3.4221345E-34
   5.950000      3.4315084E-34
   5.960000      3.3368896E-34
   5.970000      3.2465799E-34
   5.980000      3.1705321E-34
   5.990000      3.1977889E-34
   6.000000      3.4155529E-34
   6.010000      3.8021516E-34
   6.020000      4.2717552E-34
   6.030000      4.7421251E-34
   6.040000      5.1608771E-34
   6.050000      5.5279922E-34
   6.060000      5.8150741E-34
   6.070000      5.9401481E-34
   6.080000      5.8348679E-34
   6.090000      5.5019706E-34
   6.100000      5.0353508E-34
   6.110000      4.5077109E-34
   6.120000      3.9437583E-34
   6.130000      3.3783496E-34
   6.140000      2.8898303E-34
   6.150000      2.5282308E-34
   6.160000      2.3100838E-34
   6.170000      2.2396386E-34
   6.180000      2.3645585E-34
   6.190000      2.6208783E-34
   6.200000      2.8895977E-34
   6.210000      3.0312696E-34
   6.220000      2.9612923E-34
   6.230000      2.7166416E-34
   6.240000      2.2968847E-34
   6.250000      1.6968284E-34
   6.260000      9.0428364E-35
   6.270000     -2.3693135E-36
   6.280000     -1.0333577E-34
   6.290000     -2.0696507E-34
   6.300000     -3.0538560E-34
   6.310000     -3.9269864E-34
   6.320000     -4.6348916E-34
   6.330000     -5.1586675E-34
   6.340000     -5.5564966E-34
   6.350000     -5.8508477E-34
   6.360000     -6.0415749E-34
   6.370000     -6.1986999E-34
   6.380000     -6.3952463E-34
   6.390000     -6.7953253E-34
   6.400000     -7.4875395E-34
   6.410000     -8.4520248E-34
   6.420000     -9.6732991E-34
   6.430000     -1.1079352E-33
   6.440000     -1.2612547E-33
   6.450000     -1.4217675E-33
   6.460000     -1.5827598E-33
   6.470000     -1.7361258E-33
   6.480000     -1.8729005E-33
   6.490000     -1.9907590E-33
   6.500000     -2.0893139E-33
   6.510000     -2.1591535E-33
   6.520000     -2.2131950E-33
   6.530000     -2.2737216E-33
   6.540000     -2.3336072E-33
   6.550000     -2.3898645E-33
   6.560000     -2.4501569E-33
   6.570000     -2.5198887E-33
   6.580000     -2.6033291E-33
   6.590000     -2.7044589E-33
   6.600000     -2.8224962E-33
   6.610000     -2.9517168E-33
   6.620000     -3.0875601E-33
   6.630000     -3.2238664E-33
   6.640000     -3.3474847E-33
   6.650000     -3.4529596E-33
   6.660000     -3.5400843E-33
   6.670000     -3.5954115E-33
   6.680000     -3.6329241E-33
   6.690000     -3.6525350E-33
   6.700000     -3.6418740E-33
   6.710000     -3.6115767E-33
   6.720000     -3.5655018E-33
   6.730000     -3.5101870E-33
   6.740000     -3.4514424E-33
   6.750000     -3.3929671E-33
   6.760000     -3.3389190E-33
   6.770000     -3.2879470E-33
   6.780000     -3.2349101E-33
   6.790000     -3.1758562E-33
   6.800000     -3.1038583E-33
   6.810000     -3.0126458E-33
   6.820000     -2.8962032E-33
   6.830000     -2.7462884E-33
   6.840000     -2.5562122E-33
   6.850000     -2.3236419E-33
   6.860000     -2.0483110E-33
   6.870000     -1.7318294E-33
   6.880000     -1.3787945E-33
   6.890000     -9.9557484E-34
   6.900000     -5.8681362E-34
   6.910000     -1.5899916E-34
   6.920000      2.8070121E-34
   6.930000      7.3030805E-34
   6.940000      1.1896459E-33
   6.950000      1.6589721E-33
   6.960000      2.1403052E-33
   6.970000      2.6411385E-33
   6.980000      3.1687551E-33
   6.990000      3.7290810E-33
   7.000000      4.3261873E-33
   7.010000      4.9654145E-33
   7.020000      5.6542006E-33
   7.030000      6.3906176E-33
   7.040000      7.1735946E-33
   7.050000      8.0022109E-33
   7.060000      8.8687397E-33