  -2.600000      0.0000000E+00
  -2.590000      0.0000000E+00
  -2.580000      0.0000000E+00
  -2.570000      0.0000000E+00
  -2.560000      0.0000000E+00
  -2.550000      0.0000000E+00
  -2.540000      0.0000000E+00
  -2.530000      0.0000000E+00
  -2.520000      0.0000000E+00
  -2.510000      0.0000000E+00
  -2.500000      0.0000000E+00
  -2.490000      0.0000000E+00
  -2.480000      0.0000000E+00
  -2.470000      0.0000000E+00
  -2.460000      0.0000000E+00
  -2.450000      0.0000000E+00
  -2.440000      0.0000000E+00
  -2.430000      0.0000000E+00
  -2.420000      0.0000000E+00
  -2.410000      0.0000000E+00
  -2.400000      0.0000000E+00
  -2.390000      0.0000000E+00
  -2.380000      0.0000000E+00
  -2.370000      0.0000000E+00
  -2.360000      0.0000000E+00
  -2.350000      0.0000000E+00
  -2.340000      0.0000000E+00
  -2.330000      0.0000000E+00
  -2.320000      0.0000000E+00
  -2.310000      0.0000000E+00
  -2.300000      0.0000000E+00
  -2.290000      0.0000000E+00
  -2.280000      0.0000000E+00
  -2.270000      0.0000000E+00
  -2.260000      0.0000000E+00
  -2.250000      0.0000000E+00
  -2.240000      0.0000000E+00
  -2.230000      0.0000000E+00
  -2.220000      0.0000000E+00
  -2.210000      0.0000000E+00
  -2.200000      0.0000000E+00
  -2.190000      0.0000000E+00
  -2.180000      0.0000000E+00
  -2.170000      0.0000000E+00
  -2.160000      0.0000000E+00
  -2.150000      0.0000000E+00
  -2.140000      0.0000000E+00
  -2.130000      0.0000000E+00
  -2.120000      0.0000000E+00
  -2.110000      0.0000000E+00
  -2.100000      0.0000000E+00
  -2.090000      0.0000000E+00
  -2.080000      0.0000000E+00
  -2.070000      0.0000000E+00
  -2.060000      0.0000000E+00
  -2.050000      0.0000000E+00
  -2.040000      0.0000000E+00
  -2.030000      0.0000000E+00
  -2.020000      0.0000000E+00
  -2.010000      0.0000000E+00
  -2.000000      0.0000000E+00
  -1.990000      0.0000000E+00
  -1.980000      0.0000000E+00
  -1.970000      0.0000000E+00
  -1.960000      0.0000000E+00
  -1.950000      0.0000000E+00
  -1.940000      0.0000000E+00
  -1.930000      0.0000000E+00
  -1.920000      0.0000000E+00
  -1.910000      0.0000000E+00
  -1.900000      0.0000000E+00
  -1.890000      0.0000000E+00
  -1.880000      0.0000000E+00
  -1.870000      0.0000000E+00
  -1.860000      0.0000000E+00
  -1.850000      0.0000000E+00
  -1.840000      0.0000000E+00
  -1.830000      0.0000000E+00
  -1.820000      0.0000000E+00
  -1.810000      0.0000000E+00
  -1.800000      0.0000000E+00
  -1.790000      0.0000000E+00
  -1.780000      0.0000000E+00
  -1.770000      0.0000000E+00
  -1.760000      0.0000000E+00
  -1.750000      0.0000000E+00
  -1.740000      0.0000000E+00
  -1.730000      0.0000000E+00
  -1.720000      0.0000000E+00
  -1.710000      0.0000000E+00
  -1.700000      0.0000000E+00
  -1.690000      0.0000000E+00
  -1.680000      0.0000000E+00
  -1.670000      0.0000000E+00
  -1.660000      0.0000000E+00
  -1.650000      0.0000000E+00
  -1.640000      0.0000000E+00
  -1.630000      0.0000000E+00
  -1.620000      0.0000000E+00
  -1.610000      0.0000000E+00
  -1.600000      0.0000000E+00
  -1.590000      0.0000000E+00
  -1.580000      0.0000000E+00
  -1.570000      0.0000000E+00
  -1.560000      0.0000000E+00
  -1.550000      0.0000000E+00
  -1.540000      0.0000000E+00
  -1.530000      0.0000000E+00
  -1.520000      0.0000000E+00
  -1.510000      0.0000000E+00
  -1.500000      0.0000000E+00
  -1.490000      0.0000000E+00
  -1.480000      0.0000000E+00
  -1.470000      0.0000000E+00
  -1.460000      0.0000000E+00
  -1.450000      0.0000000E+00
  -1.440000      0.0000000E+00
  -1.430000      0.0000000E+00
  -1.420000      0.0000000E+00
  -1.410000      0.0000000E+00
  -1.400000      0.0000000E+00
  -1.390000      0.0000000E+00
  -1.380000      0.0000000E+00
  -1.370000      0.0000000E+00
  -1.360000      0.0000000E+00
  -1.350000      0.0000000E+00
  -1.340000      0.0000000E+00
  -1.330000      0.0000000E+00
  -1.320000      0.0000000E+00
  -1.310000      0.0000000E+00
  -1.300000      0.0000000E+00
  -1.290000      0.0000000E+00
  -1.280000      0.0000000E+00
  -1.270000      0.0000000E+00
  -1.260000      0.0000000E+00
  -1.250000      0.0000000E+00
  -1.240000      0.0000000E+00
  -1.230000      0.0000000E+00
  -1.220000      0.0000000E+00
  -1.210000      0.0000000E+00
  -1.200000      0.0000000E+00
  -1.190000      0.0000000E+00
  -1.180000      0.0000000E+00
  -1.170000      0.0000000E+00
  -1.160000      0.0000000E+00
  -1.150000      0.0000000E+00
  -1.140000      0.0000000E+00
  -1.130000      0.0000000E+00
  -1.120000      0.0000000E+00
  -1.110000      0.0000000E+00
  -1.100000      0.0000000E+00
  -1.090000      0.0000000E+00
  -1.080000      0.0000000E+00
  -1.070000      0.0000000E+00
  -1.060000      0.0000000E+00
  -1.050000      0.0000000E+00
  -1.040000      0.0000000E+00
  -1.030000      0.0000000E+00
  -1.020000      0.0000000E+00
  -1.010000      0.0000000E+00
  -1.000000      0.0000000E+00
 -0.9900000      0.0000000E+00
 -0.9800000      0.0000000E+00
 -0.9700000      0.0000000E+00
 -0.9600000      0.0000000E+00
 -0.9500000      0.0000000E+00
 -0.9400000      0.0000000E+00
 -0.9300000      0.0000000E+00
 -0.9200000      0.0000000E+00
 -0.9100000      0.0000000E+00
 -0.9000000      0.0000000E+00
 -0.8900000      0.0000000E+00
 -0.8800000      0.0000000E+00
 -0.8700000      0.0000000E+00
 -0.8600000      0.0000000E+00
 -0.8500000      0.0000000E+00
 -0.8400000      0.0000000E+00
 -0.8300000      0.0000000E+00
 -0.8200000      0.0000000E+00
 -0.8100000      0.0000000E+00
 -0.8000000      0.0000000E+00
 -0.7900000      0.0000000E+00
 -0.7800000      0.0000000E+00
 -0.7700000      0.0000000E+00
 -0.7600000      0.0000000E+00
 -0.7500000      0.0000000E+00
 -0.7400000      0.0000000E+00
 -0.7300000      0.0000000E+00
 -0.7200000      0.0000000E+00
 -0.7100000      0.0000000E+00
 -0.7000000      0.0000000E+00
 -0.6900000      0.0000000E+00
 -0.6800000      0.0000000E+00
 -0.6700000      0.0000000E+00
 -0.6600000      0.0000000E+00
 -0.6500000      0.0000000E+00
 -0.6400000      0.0000000E+00
 -0.6300000      0.0000000E+00
 -0.6200000      0.0000000E+00
 -0.6100000      0.0000000E+00
 -0.6000000      0.0000000E+00
 -0.5900000      0.0000000E+00
 -0.5800000      0.0000000E+00
 -0.5700000      0.0000000E+00
 -0.5600000      0.0000000E+00
 -0.5500000      0.0000000E+00
 -0.5400000      0.0000000E+00
 -0.5300000      0.0000000E+00
 -0.5200000      0.0000000E+00
 -0.5100000      0.0000000E+00
 -0.5000000      0.0000000E+00
 -0.4900000      0.0000000E+00
 -0.4800000      0.0000000E+00
 -0.4700000      0.0000000E+00
 -0.4600000      0.0000000E+00
 -0.4500000      0.0000000E+00
 -0.4400000      0.0000000E+00
 -0.4300000      0.0000000E+00
 -0.4200000      0.0000000E+00
 -0.4100000      0.0000000E+00
 -0.4000000      0.0000000E+00
 -0.3900000      0.0000000E+00
 -0.3800000      0.0000000E+00
 -0.3700000      0.0000000E+00
 -0.3600000      0.0000000E+00
 -0.3500000      0.0000000E+00
 -0.3400000      0.0000000E+00
 -0.3300000      0.0000000E+00
 -0.3200000      0.0000000E+00
 -0.3100000      0.0000000E+00
 -0.3000000      0.0000000E+00
 -0.2900000      0.0000000E+00
 -0.2800000      0.0000000E+00
 -0.2700000      0.0000000E+00
 -0.2600000      0.0000000E+00
 -0.2500000      0.0000000E+00
 -0.2400000      0.0000000E+00
 -0.2300000      0.0000000E+00
 -0.2200000      0.0000000E+00
 -0.2100000      0.0000000E+00
 -0.2000000      0.0000000E+00
 -0.1900000      0.0000000E+00
 -0.1800000      0.0000000E+00
 -0.1700000      0.0000000E+00
 -0.1600000      0.0000000E+00
 -0.1500000      0.0000000E+00
 -0.1400000      0.0000000E+00
 -0.1300000      0.0000000E+00
 -0.1200000      0.0000000E+00
 -0.1100000      0.0000000E+00
 -0.1000000      0.0000000E+00
 -9.0000004E-02  0.0000000E+00
 -7.9999998E-02  0.0000000E+00
 -7.0000000E-02  0.0000000E+00
 -5.9999999E-02  0.0000000E+00
 -5.0000001E-02  0.0000000E+00
 -3.9999999E-02  0.0000000E+00
 -2.9999999E-02  0.0000000E+00
 -2.0000000E-02  0.0000000E+00
 -9.9999998E-03  0.0000000E+00
 -3.4694470E-17  0.0000000E+00
  9.9999998E-03  0.0000000E+00
  2.0000000E-02  0.0000000E+00
  2.9999999E-02  0.0000000E+00
  3.9999999E-02  0.0000000E+00
  5.0000001E-02  0.0000000E+00
  5.9999999E-02  0.0000000E+00
  7.0000000E-02  0.0000000E+00
  7.9999998E-02  0.0000000E+00
  9.0000004E-02  0.0000000E+00
  0.1000000      0.0000000E+00
  0.1100000      0.0000000E+00
  0.1200000      0.0000000E+00
  0.1300000      0.0000000E+00
  0.1400000      0.0000000E+00
  0.1500000      0.0000000E+00
  0.1600000      0.0000000E+00
  0.1700000      0.0000000E+00
  0.1800000      0.0000000E+00
  0.1900000      0.0000000E+00
  0.2000000      0.0000000E+00
  0.2100000      0.0000000E+00
  0.2200000      0.0000000E+00
  0.2300000      0.0000000E+00
  0.2400000      0.0000000E+00
  0.2500000      0.0000000E+00
  0.2600000      0.0000000E+00
  0.2700000      0.0000000E+00
  0.2800000      0.0000000E+00
  0.2900000      0.0000000E+00
  0.3000000      0.0000000E+00
  0.3100000      0.0000000E+00
  0.3200000      0.0000000E+00
  0.3300000      0.0000000E+00
  0.3400000      0.0000000E+00
  0.3500000      0.0000000E+00
  0.3600000      0.0000000E+00
  0.3700000      0.0000000E+00
  0.3800000      0.0000000E+00
  0.3900000      0.0000000E+00
  0.4000000      0.0000000E+00
  0.4100000      0.0000000E+00
  0.4200000      0.0000000E+00
  0.4300000      0.0000000E+00
  0.4400000     -1.2907582E-38
  0.4500000     -1.5491464E-38
  0.4600000     -1.8444880E-38
  0.4700000     -2.1922772E-38
  0.4800000     -2.4581149E-38
  0.4900000     -2.2128432E-38
  0.5000000     -1.4615857E-38
  0.5100000      0.0000000E+00
  0.5200000      0.0000000E+00
  0.5300000      0.0000000E+00
  0.5400000      0.0000000E+00
  0.5500000      0.0000000E+00
  0.5600000      0.0000000E+00
  0.5700000      0.0000000E+00
  0.5800000      0.0000000E+00
  0.5900000     -1.1937656E-38
  0.6000000     -2.6889738E-38
  0.6100000     -5.1354708E-38
  0.6200000     -8.9071250E-38
  0.6300000     -1.5098318E-37
  0.6400000     -2.3707775E-37
  0.6500000     -3.4114903E-37
  0.6600000     -4.6371715E-37
  0.6700000     -6.0610212E-37
  0.6800000     -7.6496448E-37
  0.6900000     -9.2431638E-37
  0.7000000     -1.0844399E-36
  0.7100000     -1.2562596E-36
  0.7200000     -1.4277028E-36
  0.7300000     -1.6438416E-36
  0.7400000     -1.9548676E-36
  0.7500000     -2.3093395E-36
  0.7600000     -2.6620171E-36
  0.7700000     -3.0113508E-36
  0.7800000     -3.3514407E-36
  0.7900000     -3.6676891E-36
  0.8000000     -3.9407286E-36
  0.8100000     -4.1633418E-36
  0.8200000     -4.3420759E-36
  0.8300000     -4.4094720E-36
  0.8400000     -4.3306069E-36
  0.8500000     -4.1327060E-36
  0.8600000     -3.8219311E-36
  0.8700000     -3.3653161E-36
  0.8800000     -2.7273031E-36
  0.8900000     -1.9423534E-36
  0.9000000     -1.0428987E-36
  0.9100000     -4.8761061E-38
  0.9200000      1.0472703E-36
  0.9300000      2.2989944E-36
  0.9400000      3.6553591E-36
  0.9500000      5.1154613E-36
  0.9600000      6.7484841E-36
  0.9700000      8.5343150E-36
  0.9800000      1.0427207E-35
  0.9900000      1.2392925E-35
   1.000000      1.4612228E-35
   1.010000      1.7119662E-35
   1.020000      1.9805803E-35
   1.030000      2.2298903E-35
   1.040000      2.4049045E-35
   1.050000      2.5130895E-35
   1.060000      2.5977059E-35
   1.070000      2.6700849E-35
   1.080000      2.7727708E-35
   1.090000      2.9223226E-35
   1.100000      3.0488309E-35
   1.110000      3.1291057E-35
   1.120000      3.1667232E-35
   1.130000      3.2716789E-35
   1.140000      3.4691212E-35
   1.150000      3.6459183E-35
   1.160000      3.7742991E-35
   1.170000      3.8528957E-35
   1.180000      3.8496057E-35
   1.190000      3.7418324E-35
   1.200000      3.5962267E-35
   1.210000      3.4780817E-35
   1.220000      3.3261870E-35
   1.230000      3.0754476E-35
   1.240000      2.7239614E-35
   1.250000      2.2503419E-35
   1.260000      1.6530348E-35
   1.270000      9.8975806E-36
   1.280000      3.1835464E-36
   1.290000     -3.8451407E-36
   1.300000     -1.1450836E-35
   1.310000     -2.0195758E-35
   1.320000     -2.9951415E-35
   1.330000     -4.0069262E-35
   1.340000     -5.0534582E-35
   1.350000     -6.1058213E-35
   1.360000     -7.1696787E-35
   1.370000     -8.3133670E-35
   1.380000     -9.5220139E-35
   1.390000     -1.0688495E-34
   1.400000     -1.1758774E-34
   1.410000     -1.2789049E-34
   1.420000     -1.3801007E-34
   1.430000     -1.4726004E-34
   1.440000     -1.5579407E-34
   1.450000     -1.6380918E-34
   1.460000     -1.7088280E-34
   1.470000     -1.7670623E-34
   1.480000     -1.8030251E-34
   1.490000     -1.8094256E-34
   1.500000     -1.7910384E-34
   1.510000     -1.7742333E-34
   1.520000     -1.7618153E-34
   1.530000     -1.6909384E-34
   1.540000     -1.5515101E-34
   1.550000     -1.3769238E-34
   1.560000     -1.1594802E-34
   1.570000     -8.9800450E-35
   1.580000     -6.0084791E-35
   1.590000     -3.3896548E-35
   1.600000     -1.0653842E-35
   1.610000      1.6604226E-35
   1.620000      4.5794634E-35
   1.630000      7.5816986E-35
   1.640000      1.0741656E-34
   1.650000      1.4078984E-34
   1.660000      1.7335358E-34
   1.670000      2.0706510E-34
   1.680000      2.4720986E-34
   1.690000      2.9764254E-34
   1.700000      3.5476314E-34
   1.710000      4.1454015E-34
   1.720000      4.7634732E-34
   1.730000      5.4155098E-34
   1.740000      6.1204331E-34
   1.750000      6.8476270E-34
   1.760000      7.5910656E-34
   1.770000      8.3199424E-34
   1.780000      8.9982669E-34
   1.790000      9.6138164E-34
   1.800000      1.0205057E-33
   1.810000      1.0742510E-33
   1.820000      1.1149064E-33
   1.830000      1.1445958E-33
   1.840000      1.1626730E-33
   1.850000      1.1678330E-33
   1.860000      1.1576602E-33
   1.870000      1.1300278E-33
   1.880000      1.0820566E-33
   1.890000      1.0103462E-33
   1.900000      9.1569054E-34
   1.910000      7.9807149E-34
   1.920000      6.5748691E-34
   1.930000      4.9152516E-34
   1.940000      3.0295320E-34
   1.950000      8.6376530E-35
   1.960000     -1.6367315E-34
   1.970000     -4.4351090E-34
   1.980000     -7.5401438E-34
   1.990000     -1.0958664E-33
   2.000000     -1.4675343E-33
   2.010000     -1.8688246E-33
   2.020000     -2.3018086E-33
   2.030000     -2.7646749E-33
   2.040000     -3.2556734E-33
   2.050000     -3.7747221E-33
   2.060000     -4.3202937E-33
   2.070000     -4.8904338E-33
   2.080000     -5.4832638E-33
   2.090000     -6.0953842E-33
   2.100000     -6.7249701E-33
   2.110000     -7.3695128E-33
   2.120000     -8.0242462E-33
   2.130000     -8.6850548E-33
   2.140000     -9.3459155E-33
   2.150000     -1.0000080E-32
   2.160000     -1.0643647E-32
   2.170000     -1.1268218E-32
   2.180000     -1.1863783E-32
   2.190000     -1.2422811E-32
   2.200000     -1.2935312E-32
   2.210000     -1.3392096E-32
   2.220000     -1.3782889E-32
   2.230000     -1.4096124E-32
   2.240000     -1.4320300E-32
   2.250000     -1.4442836E-32
   2.260000     -1.4451730E-32
   2.270000     -1.4335108E-32
   2.280000     -1.4080312E-32
   2.290000     -1.3674377E-32
   2.300000     -1.3104261E-32
   2.310000     -1.2358677E-32
   2.320000     -1.1424972E-32
   2.330000     -1.0290989E-32
   2.340000     -8.9479108E-33
   2.350000     -7.3862114E-33
   2.360000     -5.5963949E-33
   2.370000     -3.5706989E-33
   2.380000     -1.3026067E-33
   2.390000      1.2130755E-33
   2.400000      3.9798815E-33
   2.410000      7.0001129E-33
   2.420000      1.0274217E-32
   2.430000      1.3800185E-32
   2.440000      1.7574161E-32
   2.450000      2.1589971E-32
   2.460000      2.5839059E-32
   2.470000      3.0310231E-32
   2.480000      3.4989468E-32
   2.490000      3.9859844E-32
   2.500000      4.4901286E-32
   2.510000      5.0090471E-32
   2.520000      5.5400614E-32
   2.530000      6.0801358E-32
   2.540000      6.6258737E-32
   2.550000      7.1734907E-32
   2.560000      7.7188190E-32
   2.570000      8.2572965E-32
   2.580000      8.7839691E-32
   2.590000      9.2935054E-32
   2.600000      9.7801847E-32
   2.610000      1.0237932E-31
   2.620000      1.0660310E-31
   2.630000      1.1040577E-31
   2.640000      1.1371702E-31
   2.650000      1.1646375E-31
   2.660000      1.1857081E-31
   2.670000      1.1996137E-31
   2.680000      1.2055740E-31
   2.690000      1.2028021E-31
   2.700000      1.1905118E-31
   2.710000      1.1679233E-31
   2.720000      1.1342704E-31
   2.730000      1.0888062E-31
   2.740000      1.0308143E-31
   2.750000      9.5961393E-32
   2.760000      8.7456762E-32
   2.770000      7.7509112E-32
   2.780000      6.6066197E-32
   2.790000      5.3082733E-32
   2.800000      3.8521385E-32
   2.810000      2.2353665E-32
   2.820000      4.5612685E-33
   2.830000     -1.4864033E-32
   2.840000     -3.5918661E-32
   2.850000     -5.8586315E-32
   2.860000     -8.2835735E-32
   2.870000     -1.0862081E-31
   2.880000     -1.3588105E-31
   2.890000     -1.6453834E-31
   2.900000     -1.9449666E-31
   2.910000     -2.2564112E-31
   2.920000     -2.5783702E-31
   2.930000     -2.9092904E-31
   2.940000     -3.2474045E-31
   2.950000     -3.5907219E-31
   2.960000     -3.9370277E-31
   2.970000     -4.2838771E-31
   2.980000     -4.6285885E-31
   2.990000     -4.9682476E-31
   3.000000     -5.2997059E-31
   3.010000     -5.6195885E-31
   3.020000     -5.9242950E-31
   3.030000     -6.2100097E-31
   3.040000     -6.4727134E-31
   3.050000     -6.7081955E-31
   3.060000     -6.9120723E-31
   3.070000     -7.0798045E-31
   3.080000     -7.2067179E-31
   3.090000     -7.2880292E-31
   3.100000     -7.3188737E-31
   3.110000     -7.2943322E-31
   3.120000     -7.2094667E-31
   3.130000     -7.0593481E-31
   3.140000     -6.8390971E-31
   3.150000     -6.5439220E-31
   3.160000     -6.1691575E-31
   3.170000     -5.7103089E-31
   3.180000     -5.1630952E-31
   3.190000     -4.5234969E-31
   3.200000     -3.7878023E-31
   3.210000     -2.9526603E-31
   3.220000     -2.0151330E-31
   3.230000     -9.7274943E-32
   3.240000      1.7643612E-32
   3.250000      1.4337894E-31
   3.260000      2.8000290E-31
   3.270000      4.2751709E-31
   3.280000      5.8584612E-31
   3.290000      7.5483091E-31
   3.300000      9.3422235E-31
   3.310000      1.1236743E-30
   3.320000      1.3227374E-30
   3.330000      1.5308523E-30
   3.340000      1.7473432E-30
   3.350000      1.9714114E-30
   3.360000      2.2021303E-30
   3.370000      2.4384402E-30
   3.380000      2.6791412E-30
   3.390000      2.9228912E-30
   3.400000      3.1682006E-30
   3.410000      3.4134306E-30
   3.420000      3.6567921E-30
   3.430000      3.8963429E-30
   3.440000      4.1299875E-30
   3.450000      4.3554808E-30
   3.460000      4.5704270E-30
   3.470000      4.7722859E-30
   3.480000      4.9583755E-30
   3.490000      5.1258787E-30
   3.500000      5.2718507E-30
   3.510000      5.3932275E-30
   3.520000      5.4868345E-30
   3.530000      5.5493994E-30
   3.540000      5.5775623E-30
   3.550000      5.5678909E-30
   3.560000      5.5168944E-30
   3.570000      5.4210422E-30
   3.580000      5.2767783E-30
   3.590000      5.0805438E-30
   3.600000      4.8287946E-30
   3.610000      4.5180270E-30
   3.620000      4.1447991E-30
   3.630000      3.7057567E-30
   3.640000      3.1976625E-30
   3.650000      2.6174242E-30
   3.660000      1.9621252E-30
   3.670000      1.2290592E-30
   3.680000      4.1576455E-31
   3.690000     -4.7994090E-31
   3.700000     -1.4599212E-30
   3.710000     -2.5256796E-30
   3.720000     -3.6783159E-30
   3.730000     -4.9184895E-30
   3.740000     -6.2463671E-30
   3.750000     -7.6615825E-30
   3.760000     -9.1631910E-30
   3.770000     -1.0749619E-29
   3.780000     -1.2418620E-29
   3.790000     -1.4167229E-29
   3.800000     -1.5991719E-29
   3.810000     -1.7887545E-29
   3.820000     -1.9849316E-29
   3.830000     -2.1870740E-29
   3.840000     -2.3944596E-29
   3.850000     -2.6062686E-29
   3.860000     -2.8215804E-29
   3.870000     -3.0393702E-29
   3.880000     -3.2585080E-29
   3.890000     -3.4777525E-29
   3.900000     -3.6957521E-29
   3.910000     -3.9110425E-29
   3.920000     -4.1220432E-29
   3.930000     -4.3270602E-29
   3.940000     -4.5242833E-29
   3.950000     -4.7117867E-29
   3.960000     -4.8875296E-29
   3.970000     -5.0493580E-29
   3.980000     -5.1950064E-29
   3.990000     -5.3221004E-29
   4.000000     -5.4281583E-29
   4.010000     -5.5105990E-29
   4.020000     -5.5667428E-29
   4.030000     -5.5938202E-29
   4.040000     -5.5889783E-29
   4.050000     -5.5492861E-29
   4.060000     -5.4717469E-29
   4.070000     -5.3533046E-29
   4.080000     -5.1908579E-29
   4.090000     -4.9812725E-29
   4.100000     -4.7213938E-29
   4.110000     -4.4080624E-29
   4.120000     -4.0381310E-29
   4.130000     -3.6084813E-29
   4.140000     -3.1160457E-29
   4.150000     -2.5578249E-29
   4.160000     -1.9309143E-29
   4.170000     -1.2325229E-29
   4.180000     -4.6000002E-30
   4.190000      3.8913960E-30
   4.200000      1.3171852E-29
   4.210000      2.3262039E-29
   4.220000      3.4180108E-29
   4.230000      4.5941416E-29
   4.240000      5.8558165E-29
   4.250000      7.2039079E-29
   4.260000      8.6389080E-29
   4.270000      1.0160897E-28
   4.280000      1.1769508E-28
   4.290000      1.3463886E-28
   4.300000      1.5242658E-28
   4.310000      1.7103899E-28
   4.320000      1.9045084E-28
   4.330000      2.1063065E-28
   4.340000      2.3154016E-28
   4.350000      2.5313419E-28
   4.360000      2.7536012E-28
   4.370000      2.9815755E-28
   4.380000      3.2145788E-28
   4.390000      3.4518406E-28
   4.400000      3.6925015E-28
   4.410000      3.9356099E-28
   4.420000      4.1801192E-28
   4.430000      4.4248852E-28
   4.440000      4.6686607E-28
   4.450000      4.9100963E-28
   4.460000      5.1477344E-28
   4.470000      5.3800102E-28
   4.480000      5.6052487E-28
   4.490000      5.8216625E-28
   4.500000      6.0273518E-28
   4.510000      6.2203050E-28
   4.520000      6.3983962E-28
   4.530000      6.5593881E-28
   4.540000      6.7009319E-28
   4.550000      6.8205692E-28
   4.560000      6.9157347E-28
   4.570000      6.9837581E-28
   4.580000      7.0218712E-28
   4.590000      7.0272090E-28
   4.600000      6.9968168E-28
   4.610000      6.9276557E-28
   4.620000      6.8166124E-28
   4.630000      6.6605027E-28
   4.640000      6.4560845E-28
   4.650000      6.2000615E-28
   4.660000      5.8891018E-28
   4.670000      5.5198457E-28
   4.680000      5.0889198E-28
   4.690000      4.5929471E-28
   4.700000      4.0285664E-28
   4.710000      3.3924459E-28
   4.720000      2.6813025E-28
   4.730000      1.8919192E-28
   4.740000      1.0211649E-28
   4.750000      6.6014108E-30
   4.760000     -9.7642686E-29
   4.770000     -2.1089000E-28
   4.780000     -3.3339699E-28
   4.790000     -4.6539986E-28
   4.800000     -6.0711186E-28
   4.810000     -7.5871972E-28
   4.820000     -9.2038122E-28
   4.830000     -1.0922218E-27
   4.840000     -1.2743321E-27
   4.850000     -1.4667633E-27
   4.860000     -1.6695247E-27
   4.870000     -1.8825802E-27
   4.880000     -2.1058432E-27
   4.890000     -2.3391742E-27
   4.900000     -2.5823774E-27
   4.910000     -2.8351963E-27
   4.920000     -3.0973081E-27
   4.930000     -3.3683228E-27
   4.940000     -3.6477764E-27
   4.950000     -3.9351302E-27
   4.960000     -4.2297632E-27
   4.970000     -4.5309701E-27
   4.980000     -4.8379587E-27
   4.990000     -5.1498438E-27
   5.000000     -5.4656436E-27
   5.010000     -5.7842783E-27
   5.020000     -6.1045643E-27
   5.030000     -6.4252128E-27
   5.040000     -6.7448239E-27
   5.050000     -7.0618844E-27
   5.060000     -7.3747694E-27
   5.070000     -7.6817334E-27
   5.080000     -7.9809119E-27
   5.090000     -8.2703184E-27
   5.100000     -8.5478425E-27
   5.110000     -8.8112512E-27
   5.120000     -9.0581832E-27
   5.130000     -9.2861532E-27
   5.140000     -9.4925505E-27
   5.150000     -9.6746371E-27
   5.160000     -9.8295535E-27
   5.170000     -9.9543191E-27
   5.180000     -1.0045832E-26
   5.190000     -1.0100875E-26
   5.200000     -1.0116122E-26
   5.210000     -1.0088139E-26
   5.220000     -1.0013390E-26
   5.230000     -9.8882436E-27
   5.240000     -9.7089819E-27
   5.250000     -9.4718090E-27
   5.260000     -9.1728607E-27
   5.270000     -8.8082129E-27
   5.280000     -8.3738979E-27
   5.290000     -7.8659100E-27
   5.300000     -7.2802263E-27
   5.310000     -6.6128176E-27
   5.320000     -5.8596646E-27
   5.330000     -5.0167783E-27
   5.340000     -4.0802189E-27
   5.350000     -3.0461101E-27
   5.360000     -1.9106685E-27
   5.370000     -6.7021919E-28
   5.380000      6.7877903E-28
   5.390000      2.1397041E-27
   5.400000      3.7157471E-27
   5.410000      5.4098906E-27
   5.420000      7.2248666E-27
   5.430000      9.1631286E-27
   5.440000      1.1226833E-26
   5.450000      1.3417798E-26
   5.460000      1.5737467E-26
   5.470000      1.8186871E-26
   5.480000      2.0766597E-26
   5.490000      2.3476744E-26
   5.500000      2.6316896E-26
   5.510000      2.9286073E-26
   5.520000      3.2382691E-26
   5.530000      3.5604519E-26
   5.540000      3.8948654E-26
   5.550000      4.2411449E-26
   5.560000      4.5988498E-26
   5.570000      4.9674568E-26
   5.580000      5.3463581E-26
   5.590000      5.7348536E-26
   5.600000      6.1321517E-26
   5.610000      6.5373612E-26
   5.620000      6.9494868E-26
   5.630000      7.3674265E-26
   5.640000      7.7899688E-26
   5.650000      8.2157873E-26
   5.660000      8.6434380E-26
   5.670000      9.0713544E-26
   5.680000      9.4978446E-26
   5.690000      9.9210882E-26
   5.700000      1.0339135E-25
   5.710000      1.0749900E-25
   5.720000      1.1151165E-25
   5.730000      1.1540575E-25
   5.740000      1.1915637E-25
   5.750000      1.2273712E-25
   5.760000      1.2612031E-25
   5.770000      1.2927680E-25
   5.780000      1.3217607E-25
   5.790000      1.3478623E-25
   5.800000      1.3707401E-25
   5.810000      1.3900485E-25
   5.820000      1.4054284E-25
   5.830000      1.4165083E-25
   5.840000      1.4229045E-25
   5.850000      1.4242218E-25
   5.860000      1.4200540E-25
   5.870000      1.4099846E-25
   5.880000      1.3935879E-25
   5.890000      1.3704301E-25
   5.900000      1.3400699E-25
   5.910000      1.3020592E-25
   5.920000      1.2559454E-25
   5.930000      1.2012725E-25
   5.940000      1.1375816E-25
   5.950000      1.0644145E-25
   5.960000      9.8131345E-26
   5.970000      8.8782394E-26
   5.980000      7.8349610E-26
   5.990000      6.6788798E-26
   6.000000      5.4056595E-26
   6.010000      4.0110807E-26
   6.020000      2.4910727E-26
   6.030000      8.4173076E-27
   6.040000     -9.4065330E-27
   6.050000     -2.8595625E-26
   6.060000     -4.9182288E-26
   6.070000     -7.1196028E-26
   6.080000     -9.4663105E-26
   6.090000     -1.1960633E-25
   6.100000     -1.4604468E-25
   6.110000     -1.7399286E-25
   6.120000     -2.0346109E-25
   6.130000     -2.3445456E-25
   6.140000     -2.6697314E-25
   6.150000     -3.0101096E-25
   6.160000     -3.3655604E-25
   6.170000     -3.7358993E-25
   6.180000     -4.1208713E-25
   6.190000     -4.5201488E-25
   6.200000     -4.9333266E-25
   6.210000     -5.3599159E-25
   6.220000     -5.7993440E-25
   6.230000     -6.2509471E-25
   6.240000     -6.7139676E-25
   6.250000     -7.1875484E-25
   6.260000     -7.6707306E-25
   6.270000     -8.1624493E-25
   6.280000     -8.6615300E-25
   6.290000     -9.1666840E-25
   6.300000     -9.6765071E-25
   6.310000     -1.0189472E-24
   6.320000     -1.0703929E-24
   6.330000     -1.1218107E-24
   6.340000     -1.1730099E-24
   6.350000     -1.2237872E-24
   6.360000     -1.2739257E-24
   6.370000     -1.3231951E-24
   6.380000     -1.3713521E-24
   6.390000     -1.4181390E-24
   6.400000     -1.4632844E-24
   6.410000     -1.5065037E-24
   6.420000     -1.5474986E-24
   6.430000     -1.5859570E-24
   6.440000     -1.6215538E-24
   6.450000     -1.6539505E-24
   6.460000     -1.6827965E-24
   6.470000     -1.7077281E-24
   6.480000     -1.7283698E-24
   6.490000     -1.7443350E-24
   6.500000     -1.7552254E-24
   6.510000     -1.7606332E-24
   6.520000     -1.7601408E-24
   6.530000     -1.7533221E-24
   6.540000     -1.7397430E-24
   6.550000     -1.7189632E-24
   6.560000     -1.6905358E-24
   6.570000     -1.6540105E-24
   6.580000     -1.6089335E-24
   6.590000     -1.5548492E-24
   6.600000     -1.4913019E-24
   6.610000     -1.4178377E-24
   6.620000     -1.3340050E-24
   6.630000     -1.2393578E-24
   6.640000     -1.1334563E-24
   6.650000     -1.0158697E-24
   6.660000     -8.8617843E-25
   6.670000     -7.4397580E-25
   6.680000     -5.8887101E-25
   6.690000     -4.2049141E-25
   6.700000     -2.3848471E-25
   6.710000     -4.2521917E-26
   6.720000      1.6770069E-25
   6.730000      3.9245687E-25
   6.740000      6.3198970E-25
   6.750000      8.8650719E-25
   6.760000      1.1561797E-24
   6.770000      1.4411373E-24
   6.780000      1.7414649E-24
   6.790000      2.0571999E-24
   6.800000      2.3883290E-24
   6.810000      2.7347861E-24
   6.820000      3.0964463E-24
   6.830000      3.4731250E-24
   6.840000      3.8645724E-24
   6.850000      4.2704705E-24
   6.860000      4.6904313E-24
   6.870000      5.1239884E-24
   6.880000      5.5706024E-24
   6.890000      6.0296508E-24
   6.900000      6.5004237E-24
   6.910000      6.9821266E-24
   6.920000      7.4738717E-24
   6.930000      7.9746769E-24
   6.940000      8.4834646E-24
   6.950000      8.9990554E-24
   6.960000      9.5201675E-24
   6.970000      1.0045416E-23
   6.980000      1.0573310E-23
   6.990000      1.1102248E-23
   7.000000      1.1630518E-23
   7.010000      1.2156295E-23
   7.020000      1.2677642E-23
   7.030000      1.3192504E-23
   7.040000      1.3698720E-23
   7.050000      1.4194003E-23
   7.060000      1.4675962E-23