  -2.600000      0.0000000E+00
  -2.590000      0.0000000E+00
  -2.580000      0.0000000E+00
  -2.570000      0.0000000E+00
  -2.560000      0.0000000E+00
  -2.550000      0.0000000E+00
  -2.540000      0.0000000E+00
  -2.530000      0.0000000E+00
  -2.520000      0.0000000E+00
  -2.510000      0.0000000E+00
  -2.500000      0.0000000E+00
  -2.490000      0.0000000E+00
  -2.480000      0.0000000E+00
  -2.470000      0.0000000E+00
  -2.460000      0.0000000E+00
  -2.450000      0.0000000E+00
  -2.440000      0.0000000E+00
  -2.430000      0.0000000E+00
  -2.420000      0.0000000E+00
  -2.410000      0.0000000E+00
  -2.400000      0.0000000E+00
  -2.390000      0.0000000E+00
  -2.380000      0.0000000E+00
  -2.370000      0.0000000E+00
  -2.360000      0.0000000E+00
  -2.350000      0.0000000E+00
  -2.340000      0.0000000E+00
  -2.330000      0.0000000E+00
  -2.320000      0.0000000E+00
  -2.310000      0.0000000E+00
  -2.300000      0.0000000E+00
  -2.290000      0.0000000E+00
  -2.280000      0.0000000E+00
  -2.270000      0.0000000E+00
  -2.260000      0.0000000E+00
  -2.250000      0.0000000E+00
  -2.240000      0.0000000E+00
  -2.230000      0.0000000E+00
  -2.220000      0.0000000E+00
  -2.210000      0.0000000E+00
  -2.200000      0.0000000E+00
  -2.190000      0.0000000E+00
  -2.180000      0.0000000E+00
  -2.170000      0.0000000E+00
  -2.160000      0.0000000E+00
  -2.150000      0.0000000E+00
  -2.140000      0.0000000E+00
  -2.130000      0.0000000E+00
  -2.120000      0.0000000E+00
  -2.110000      0.0000000E+00
  -2.100000      0.0000000E+00
  -2.090000      0.0000000E+00
  -2.080000      0.0000000E+00
  -2.070000      0.0000000E+00
  -2.060000      0.0000000E+00
  -2.050000      0.0000000E+00
  -2.040000      0.0000000E+00
  -2.030000      0.0000000E+00
  -2.020000      0.0000000E+00
  -2.010000      0.0000000E+00
  -2.000000      0.0000000E+00
  -1.990000      0.0000000E+00
  -1.980000      0.0000000E+00
  -1.970000      0.0000000E+00
  -1.960000      0.0000000E+00
  -1.950000      0.0000000E+00
  -1.940000      0.0000000E+00
  -1.930000      0.0000000E+00
  -1.920000      0.0000000E+00
  -1.910000      0.0000000E+00
  -1.900000      0.0000000E+00
  -1.890000      0.0000000E+00
  -1.880000      0.0000000E+00
  -1.870000      0.0000000E+00
  -1.860000      0.0000000E+00
  -1.850000      0.0000000E+00
  -1.840000      0.0000000E+00
  -1.830000      0.0000000E+00
  -1.820000      0.0000000E+00
  -1.810000      0.0000000E+00
  -1.800000      0.0000000E+00
  -1.790000      0.0000000E+00
  -1.780000      0.0000000E+00
  -1.770000      0.0000000E+00
  -1.760000      0.0000000E+00
  -1.750000      0.0000000E+00
  -1.740000      0.0000000E+00
  -1.730000      0.0000000E+00
  -1.720000      0.0000000E+00
  -1.710000      0.0000000E+00
  -1.700000      0.0000000E+00
  -1.690000      0.0000000E+00
  -1.680000      0.0000000E+00
  -1.670000      0.0000000E+00
  -1.660000      0.0000000E+00
  -1.650000      0.0000000E+00
  -1.640000      0.0000000E+00
  -1.630000      0.0000000E+00
  -1.620000      0.0000000E+00
  -1.610000      0.0000000E+00
  -1.600000      0.0000000E+00
  -1.590000      0.0000000E+00
  -1.580000      0.0000000E+00
  -1.570000      0.0000000E+00
  -1.560000      0.0000000E+00
  -1.550000      0.0000000E+00
  -1.540000      0.0000000E+00
  -1.530000      0.0000000E+00
  -1.520000      0.0000000E+00
  -1.510000      0.0000000E+00
  -1.500000      0.0000000E+00
  -1.490000      0.0000000E+00
  -1.480000      0.0000000E+00
  -1.470000      0.0000000E+00
  -1.460000      0.0000000E+00
  -1.450000      0.0000000E+00
  -1.440000      0.0000000E+00
  -1.430000      0.0000000E+00
  -1.420000      0.0000000E+00
  -1.410000      0.0000000E+00
  -1.400000      0.0000000E+00
  -1.390000      0.0000000E+00
  -1.380000      0.0000000E+00
  -1.370000      0.0000000E+00
  -1.360000      0.0000000E+00
  -1.350000      0.0000000E+00
  -1.340000      0.0000000E+00
  -1.330000      0.0000000E+00
  -1.320000      0.0000000E+00
  -1.310000      0.0000000E+00
  -1.300000      0.0000000E+00
  -1.290000      0.0000000E+00
  -1.280000      0.0000000E+00
  -1.270000      0.0000000E+00
  -1.260000      0.0000000E+00
  -1.250000      0.0000000E+00
  -1.240000      0.0000000E+00
  -1.230000      0.0000000E+00
  -1.220000      0.0000000E+00
  -1.210000      0.0000000E+00
  -1.200000      0.0000000E+00
  -1.190000      0.0000000E+00
  -1.180000      0.0000000E+00
  -1.170000      0.0000000E+00
  -1.160000      0.0000000E+00
  -1.150000      0.0000000E+00
  -1.140000      0.0000000E+00
  -1.130000      0.0000000E+00
  -1.120000      0.0000000E+00
  -1.110000      0.0000000E+00
  -1.100000      0.0000000E+00
  -1.090000      0.0000000E+00
  -1.080000      0.0000000E+00
  -1.070000      0.0000000E+00
  -1.060000      0.0000000E+00
  -1.050000      0.0000000E+00
  -1.040000      0.0000000E+00
  -1.030000      0.0000000E+00
  -1.020000      0.0000000E+00
  -1.010000     -1.2959280E-38
  -1.000000     -2.5570370E-38
 -0.9900000     -4.4387813E-38
 -0.9800000     -6.7294764E-38
 -0.9700000     -9.2140727E-38
 -0.9600000     -1.1757170E-37
 -0.9500000     -1.3746251E-37
 -0.9400000     -1.4238690E-37
 -0.9300000     -1.2159227E-37
 -0.9200000     -6.2515932E-38
 -0.9100000      3.3321599E-38
 -0.9000000      1.5756052E-37
 -0.8900000      3.0361241E-37
 -0.8800000      4.7457212E-37
 -0.8700000      6.6836681E-37
 -0.8600000      8.7291630E-37
 -0.8500000      1.0592986E-36
 -0.8400000      1.2040068E-36
 -0.8300000      1.3069221E-36
 -0.8200000      1.3314576E-36
 -0.8100000      1.2326639E-36
 -0.8000000      9.8720961E-37
 -0.7900000      5.6109560E-37
 -0.7800000     -7.6236937E-38
 -0.7700000     -9.5900401E-37
 -0.7600000     -2.1536728E-36
 -0.7500000     -3.6114040E-36
 -0.7400000     -5.2677719E-36
 -0.7300000     -7.1392994E-36
 -0.7200000     -9.0866919E-36
 -0.7100000     -1.0957405E-35
 -0.7000000     -1.2601994E-35
 -0.6900000     -1.3757418E-35
 -0.6800000     -1.4173474E-35
 -0.6700000     -1.3412831E-35
 -0.6600000     -1.1098724E-35
 -0.6500000     -6.8627999E-36
 -0.6400000     -1.1200236E-36
 -0.6300000      6.0297164E-36
 -0.6200000      1.4717973E-35
 -0.6100000      2.4883043E-35
 -0.6000000      3.6735961E-35
 -0.5900000      4.9744924E-35
 -0.5800000      6.3391822E-35
 -0.5700000      7.6564217E-35
 -0.5600000      8.8188594E-35
 -0.5500000      9.7450491E-35
 -0.5400000      1.0227715E-34
 -0.5300000      1.0160861E-34
 -0.5200000      9.4509637E-35
 -0.5100000      7.8896328E-35
 -0.5000000      5.3177516E-35
 -0.4900000      1.6608218E-35
 -0.4800000     -3.1903996E-35
 -0.4700000     -9.3552791E-35
 -0.4600000     -1.6764690E-34
 -0.4500000     -2.5188794E-34
 -0.4400000     -3.4343190E-34
 -0.4300000     -4.3667751E-34
 -0.4200000     -5.2626620E-34
 -0.4100000     -6.0779137E-34
 -0.4000000     -6.7412222E-34
 -0.3900000     -7.1616052E-34
 -0.3800000     -7.2434219E-34
 -0.3700000     -6.9081264E-34
 -0.3600000     -6.0644672E-34
 -0.3500000     -4.6098058E-34
 -0.3400000     -2.5242981E-34
 -0.3300000      2.4411967E-35
 -0.3200000      3.7785701E-34
 -0.3100000      8.0432347E-34
 -0.3000000      1.2965805E-33
 -0.2900000      1.8426059E-33
 -0.2800000      2.4225871E-33
 -0.2700000      3.0128772E-33
 -0.2600000      3.5805066E-33
 -0.2500000      4.0860305E-33
 -0.2400000      4.4839618E-33
 -0.2300000      4.7227572E-33
 -0.2200000      4.7449307E-33
 -0.2100000      4.4910489E-33
 -0.2000000      3.9068921E-33
 -0.1900000      2.9416755E-33
 -0.1800000      1.5522748E-33
 -0.1700000     -2.9290004E-34
 -0.1600000     -2.6075021E-33
 -0.1500000     -5.3815660E-33
 -0.1400000     -8.5771782E-33
 -0.1300000     -1.2126044E-32
 -0.1200000     -1.5925862E-32
 -0.1100000     -1.9837622E-32
 -0.1000000     -2.3682511E-32
 -9.0000004E-02 -2.7245009E-32
 -7.9999998E-02 -3.0278407E-32
 -7.0000000E-02 -3.2504385E-32
 -5.9999999E-02 -3.3624043E-32
 -5.0000001E-02 -3.3327451E-32
 -3.9999999E-02 -3.1308331E-32
 -2.9999999E-02 -2.7278155E-32
 -2.0000000E-02 -2.0982966E-32
 -9.9999998E-03 -1.2229320E-32
 -3.4694470E-17 -9.0071070E-34
  9.9999998E-03  1.3019896E-32
  2.0000000E-02  2.9428660E-32
  2.9999999E-02  4.8081980E-32
  3.9999999E-02  6.8579416E-32
  5.0000001E-02  9.0352193E-32
  5.9999999E-02  1.1265663E-31
  7.0000000E-02  1.3457555E-31
  7.9999998E-02  1.5502854E-31
  9.0000004E-02  1.7279269E-31
  0.1000000      1.8653499E-31
  0.1100000      1.9485172E-31
  0.1200000      1.9633029E-31
  0.1300000      1.8962294E-31
  0.1400000      1.7352621E-31
  0.1500000      1.4708109E-31
  0.1600000      1.0968302E-31
  0.1700000      6.1202666E-32
  0.1800000      2.1171996E-33
  0.1900000     -6.6351648E-32
  0.2000000     -1.4209483E-31
  0.2100000     -2.2197055E-31
  0.2200000     -3.0165983E-31
  0.2300000     -3.7552540E-31
  0.2400000     -4.3647737E-31
  0.2500000     -4.7584792E-31
  0.2600000     -4.8327784E-31
  0.2700000     -4.4661728E-31
  0.2800000     -3.5184321E-31
  0.2900000     -1.8299253E-31
  0.3000000      7.7884841E-32
  0.3100000      4.5075488E-31
  0.3200000      9.5761027E-31
  0.3300000      1.6224609E-30
  0.3400000      2.4713099E-30
  0.3500000      3.5321100E-30
  0.3600000      4.8347082E-30
  0.3700000      6.4107730E-30
  0.3800000      8.2937051E-30
  0.3900000      1.0518539E-29
  0.4000000      1.3121827E-29
  0.4100000      1.6141511E-29
  0.4200000      1.9616775E-29
  0.4300000      2.3587881E-29
  0.4400000      2.8095972E-29
  0.4500000      3.3182876E-29
  0.4600000      3.8890839E-29
  0.4700000      4.5262285E-29
  0.4800000      5.2339475E-29
  0.4900000      6.0164168E-29
  0.5000000      6.8777245E-29
  0.5100000      7.8218286E-29
  0.5200000      8.8525099E-29
  0.5300000      9.9733247E-29
  0.5400000      1.1187554E-28
  0.5500000      1.2498150E-28
  0.5600000      1.3907689E-28
  0.5700000      1.5418320E-28
  0.5800000      1.7031716E-28
  0.5900000      1.8749047E-28
  0.6000000      2.0570949E-28
  0.6100000      2.2497498E-28
  0.6200000      2.4528208E-28
  0.6300000      2.6662064E-28
  0.6400000      2.8897532E-28
  0.6500000      3.1232625E-28
  0.6600000      3.3664986E-28
  0.6700000      3.6191972E-28
  0.6800000      3.8810799E-28
  0.6900000      4.1518654E-28
  0.7000000      4.4312899E-28
  0.7100000      4.7191235E-28
  0.7200000      5.0151899E-28
  0.7300000      5.3193882E-28
  0.7400000      5.6317172E-28
  0.7500000      5.9522940E-28
  0.7600000      6.2813777E-28
  0.7700000      6.6193904E-28
  0.7800000      6.9669346E-28
  0.7900000      7.3248157E-28
  0.8000000      7.6940526E-28
  0.8100000      8.0758913E-28
  0.8200000      8.4718143E-28
  0.8300000      8.8835474E-28
  0.8400000      9.3130615E-28
  0.8500000      9.7625793E-28
  0.8600000      1.0234560E-27
  0.8700000      1.0731704E-27
  0.8800000      1.1256948E-27
  0.8900000      1.1813451E-27
  0.9000000      1.2404587E-27
  0.9100000      1.3033942E-27
  0.9200000      1.3705301E-27
  0.9300000      1.4422648E-27
  0.9400000      1.5190163E-27
  0.9500000      1.6012219E-27
  0.9600000      1.6893379E-27
  0.9700000      1.7838418E-27
  0.9800000      1.8852312E-27
  0.9900000      1.9940258E-27
   1.000000      2.1107682E-27
   1.010000      2.2360255E-27
   1.020000      2.3703903E-27
   1.030000      2.5144808E-27
   1.040000      2.6689429E-27
   1.050000      2.8344493E-27
   1.060000      3.0116991E-27
   1.070000      3.2014179E-27
   1.080000      3.4043547E-27
   1.090000      3.6212787E-27
   1.100000      3.8529792E-27
   1.110000      4.1002586E-27
   1.120000      4.3639288E-27
   1.130000      4.6448030E-27
   1.140000      4.9436923E-27
   1.150000      5.2614010E-27
   1.160000      5.5987165E-27
   1.170000      5.9564048E-27
   1.180000      6.3352075E-27
   1.190000      6.7358321E-27
   1.200000      7.1589512E-27
   1.210000      7.6052015E-27
   1.220000      8.0751785E-27
   1.230000      8.5694384E-27
   1.240000      9.0884996E-27
   1.250000      9.6328491E-27
   1.260000      1.0202944E-26
   1.270000      1.0799215E-26
   1.280000      1.1422074E-26
   1.290000      1.2071928E-26
   1.300000      1.2749178E-26
   1.310000      1.3454231E-26
   1.320000      1.4187500E-26
   1.330000      1.4949421E-26
   1.340000      1.5740437E-26
   1.350000      1.6561021E-26
   1.360000      1.7411656E-26
   1.370000      1.8292851E-26
   1.380000      1.9205124E-26
   1.390000      2.0148993E-26
   1.400000      2.1124966E-26
   1.410000      2.2133533E-26
   1.420000      2.3175148E-26
   1.430000      2.4250216E-26
   1.440000      2.5359079E-26
   1.450000      2.6501995E-26
   1.460000      2.7679135E-26
   1.470000      2.8890576E-26
   1.480000      3.0136271E-26
   1.490000      3.1416077E-26
   1.500000      3.2729713E-26
   1.510000      3.4076807E-26
   1.520000      3.5456882E-26
   1.530000      3.6869365E-26
   1.540000      3.8313597E-26
   1.550000      3.9788865E-26
   1.560000      4.1294403E-26
   1.570000      4.2829437E-26
   1.580000      4.4393184E-26
   1.590000      4.5984881E-26
   1.600000      4.7603793E-26
   1.610000      4.9249224E-26
   1.620000      5.0920540E-26
   1.630000      5.2617133E-26
   1.640000      5.4338452E-26
   1.650000      5.6083949E-26
   1.660000      5.7853105E-26
   1.670000      5.9645342E-26
   1.680000      6.1460042E-26
   1.690000      6.3296492E-26
   1.700000      6.5153797E-26
   1.710000      6.7030916E-26
   1.720000      6.8926598E-26
   1.730000      7.0839290E-26
   1.740000      7.2767149E-26
   1.750000      7.4708000E-26
   1.760000      7.6659340E-26
   1.770000      7.8618322E-26
   1.780000      8.0581710E-26
   1.790000      8.2545961E-26
   1.800000      8.4507242E-26
   1.810000      8.6461448E-26
   1.820000      8.8404252E-26
   1.830000      9.0331199E-26
   1.840000      9.2237752E-26
   1.850000      9.4119358E-26
   1.860000      9.5971456E-26
   1.870000      9.7789638E-26
   1.880000      9.9569629E-26
   1.890000      1.0130741E-25
   1.900000      1.0299911E-25
   1.910000      1.0464110E-25
   1.920000      1.0623001E-25
   1.930000      1.0776265E-25
   1.940000      1.0923600E-25
   1.950000      1.1064711E-25
   1.960000      1.1199310E-25
   1.970000      1.1327094E-25
   1.980000      1.1447746E-25
   1.990000      1.1560930E-25
   2.000000      1.1666272E-25
   2.010000      1.1763351E-25
   2.020000      1.1851700E-25
   2.030000      1.1930799E-25
   2.040000      1.2000062E-25
   2.050000      1.2058853E-25
   2.060000      1.2106475E-25
   2.070000      1.2142186E-25
   2.080000      1.2165205E-25
   2.090000      1.2174721E-25
   2.100000      1.2169911E-25
   2.110000      1.2149949E-25
   2.120000      1.2114024E-25
   2.130000      1.2061368E-25
   2.140000      1.1991253E-25
   2.150000      1.1903015E-25
   2.160000      1.1796068E-25
   2.170000      1.1669909E-25
   2.180000      1.1524123E-25
   2.190000      1.1358390E-25
   2.200000      1.1172482E-25
   2.210000      1.0966252E-25
   2.220000      1.0739626E-25
   2.230000      1.0492582E-25
   2.240000      1.0225149E-25
   2.250000      9.9373739E-26
   2.260000      9.6293058E-26
   2.270000      9.3009813E-26
   2.280000      8.9524040E-26
   2.290000      8.5835339E-26
   2.300000      8.1942729E-26
   2.310000      7.7844591E-26
   2.320000      7.3538754E-26
   2.330000      6.9022488E-26
   2.340000      6.4292792E-26
   2.350000      5.9346517E-26
   2.360000      5.4180612E-26
   2.370000      4.8792625E-26
   2.380000      4.3180964E-26
   2.390000      3.7345433E-26
   2.400000      3.1287746E-26
   2.410000      2.5011778E-26
   2.420000      1.8523927E-26
   2.430000      1.1833755E-26
   2.440000      4.9542140E-27
   2.450000     -2.0981705E-27
   2.460000     -9.3031114E-27
   2.470000     -1.6636391E-26
   2.480000     -2.4070040E-26
   2.490000     -3.1572565E-26
   2.500000     -3.9108852E-26
   2.510000     -4.6640748E-26
   2.520000     -5.4127371E-26
   2.530000     -6.1525511E-26
   2.540000     -6.8790107E-26
   2.550000     -7.5874522E-26
   2.560000     -8.2730912E-26
   2.570000     -8.9310807E-26
   2.580000     -9.5565494E-26
   2.590000     -1.0144563E-25
   2.600000     -1.0690167E-25
   2.610000     -1.1188344E-25
   2.620000     -1.1634044E-25
   2.630000     -1.2022161E-25
   2.640000     -1.2347421E-25
   2.650000     -1.2604359E-25
   2.660000     -1.2787270E-25
   2.670000     -1.2890178E-25
   2.680000     -1.2906748E-25
   2.690000     -1.2830248E-25
   2.700000     -1.2653529E-25
   2.710000     -1.2368990E-25
   2.720000     -1.1968612E-25
   2.730000     -1.1443918E-25
   2.740000     -1.0786019E-25
   2.750000     -9.9857816E-26
   2.760000     -9.0338101E-26
   2.770000     -7.9205789E-26
   2.780000     -6.6366517E-26
   2.790000     -5.1727742E-26
   2.800000     -3.5200533E-26
   2.810000     -1.6701711E-26
   2.820000      3.8442347E-27
   2.830000      2.6503739E-26
   2.840000      5.1332227E-26
   2.850000      7.8371340E-26
   2.860000      1.0764869E-25
   2.870000      1.3917583E-25
   2.880000      1.7294758E-25
   2.890000      2.0894105E-25
   2.900000      2.4711445E-25
   2.910000      2.8740705E-25
   2.920000      3.2973885E-25
   2.930000      3.7401081E-25
   2.940000      4.2010354E-25
   2.950000      4.6787888E-25
   2.960000      5.1717977E-25
   2.970000      5.6782908E-25
   2.980000      6.1962978E-25
   2.990000      6.7236444E-25
   3.000000      7.2579409E-25
   3.010000      7.7965722E-25
   3.020000      8.3366781E-25
   3.030000      8.8751388E-25
   3.040000      9.4085527E-25
   3.050000      9.9332034E-25
   3.060000      1.0445034E-24
   3.070000      1.0939622E-24
   3.080000      1.1412149E-24
   3.090000      1.1857367E-24
   3.100000      1.2269584E-24
   3.110000      1.2642628E-24
   3.120000      1.2969827E-24
   3.130000      1.3244008E-24
   3.140000      1.3457487E-24
   3.150000      1.3602064E-24
   3.160000      1.3669038E-24
   3.170000      1.3649210E-24
   3.180000      1.3532934E-24
   3.190000      1.3310134E-24
   3.200000      1.2970335E-24
   3.210000      1.2502729E-24
   3.220000      1.1896214E-24
   3.230000      1.1139455E-24
   3.240000      1.0220934E-24
   3.250000      9.1290445E-25
   3.260000      7.8521124E-25
   3.270000      6.3784650E-25
   3.280000      4.6965056E-25
   3.290000      2.7947779E-25
   3.300000      6.6202970E-26
   3.310000     -1.7127627E-25
   3.320000     -4.3403245E-25
   3.330000     -7.2309998E-25
   3.340000     -1.0394720E-24
   3.350000     -1.3840923E-24
   3.360000     -1.7578497E-24
   3.370000     -2.1615704E-24
   3.380000     -2.5960091E-24
   3.390000     -3.0618378E-24
   3.400000     -3.5596366E-24
   3.410000     -4.0898817E-24
   3.420000     -4.6529331E-24
   3.430000     -5.2490146E-24
   3.440000     -5.8781982E-24
   3.450000     -6.5403874E-24
   3.460000     -7.2352965E-24
   3.470000     -7.9624251E-24
   3.480000     -8.7210411E-24
   3.490000     -9.5101521E-24
   3.500000     -1.0328485E-23
   3.510000     -1.1174458E-23
   3.520000     -1.2046155E-23
   3.530000     -1.2941305E-23
   3.540000     -1.3857255E-23
   3.550000     -1.4790948E-23
   3.560000     -1.5738898E-23
   3.570000     -1.6697167E-23
   3.580000     -1.7661348E-23
   3.590000     -1.8626544E-23
   3.600000     -1.9587355E-23
   3.610000     -2.0537850E-23
   3.620000     -2.1471557E-23
   3.630000     -2.2381457E-23
   3.640000     -2.3259950E-23
   3.650000     -2.4098853E-23
   3.660000     -2.4889390E-23
   3.670000     -2.5622166E-23
   3.680000     -2.6287160E-23
   3.690000     -2.6873717E-23
   3.700000     -2.7370526E-23
   3.710000     -2.7765610E-23
   3.720000     -2.8046312E-23
   3.730000     -2.8199291E-23
   3.740000     -2.8210496E-23
   3.750000     -2.8065175E-23
   3.760000     -2.7747854E-23
   3.770000     -2.7242330E-23
   3.780000     -2.6531693E-23
   3.790000     -2.5598297E-23
   3.800000     -2.4423795E-23
   3.810000     -2.2989145E-23
   3.820000     -2.1274618E-23
   3.830000     -1.9259835E-23
   3.840000     -1.6923807E-23
   3.850000     -1.4244954E-23
   3.860000     -1.1201169E-23
   3.870000     -7.7698681E-24
   3.880000     -3.9280556E-24
   3.890000      3.4761553E-25
   3.900000      5.0807498E-24
   3.910000      1.0295137E-23
   3.920000      1.6014657E-23
   3.930000      2.2263166E-23
   3.940000      2.9064390E-23
   3.950000      3.6441833E-23
   3.960000      4.4418624E-23
   3.970000      5.3017410E-23
   3.980000      6.2260228E-23
   3.990000      7.2168328E-23
   4.000000      8.2762042E-23
   4.010000      9.4060619E-23
   4.020000      1.0608209E-22
   4.030000      1.1884302E-22
   4.040000      1.3235838E-22
   4.050000      1.4664133E-22
   4.060000      1.6170299E-22
   4.070000      1.7755226E-22
   4.080000      1.9419549E-22
   4.090000      2.1163637E-22
   4.100000      2.2987556E-22
   4.110000      2.4891040E-22
   4.120000      2.6873472E-22
   4.130000      2.8933845E-22
   4.140000      3.1070729E-22
   4.150000      3.3282246E-22
   4.160000      3.5566025E-22
   4.170000      3.7919178E-22
   4.180000      4.0338250E-22
   4.190000      4.2819188E-22
   4.200000      4.5357316E-22
   4.210000      4.7947274E-22
   4.220000      5.0582973E-22
   4.230000      5.3257593E-22
   4.240000      5.5963509E-22
   4.250000      5.8692266E-22
   4.260000      6.1434523E-22
   4.270000      6.4180037E-22
   4.280000      6.6917604E-22
   4.290000      6.9635027E-22
   4.300000      7.2319067E-22
   4.310000      7.4955438E-22
   4.320000      7.7528735E-22
   4.330000      8.0022404E-22
   4.340000      8.2418713E-22
   4.350000      8.4698726E-22
   4.360000      8.6842251E-22
   4.370000      8.8827818E-22
   4.380000      9.0632661E-22
   4.390000      9.2232678E-22
   4.400000      9.3602393E-22
   4.410000      9.4714957E-22
   4.420000      9.5542138E-22
   4.430000      9.6054279E-22
   4.440000      9.6220311E-22
   4.450000      9.6007719E-22
   4.460000      9.5382578E-22
   4.470000      9.4309515E-22
   4.480000      9.2751746E-22
   4.490000      9.0671092E-22
   4.500000      8.8028011E-22
   4.510000      8.4781610E-22
   4.520000      8.0889711E-22
   4.530000      7.6308886E-22
   4.540000      7.0994508E-22
   4.550000      6.4900831E-22
   4.560000      5.7981090E-22
   4.570000      5.0187533E-22
   4.580000      4.1471592E-22
   4.590000      3.1783948E-22
   4.600000      2.1074692E-22
   4.610000      9.2934239E-23
   4.620000     -3.6105693E-23
   4.630000     -1.7688145E-22
   4.640000     -3.2990143E-22
   4.650000     -4.9567162E-22
   4.660000     -6.7469377E-22
   4.670000     -8.6746316E-22
   4.680000     -1.0744657E-21
   4.690000     -1.2961760E-21
   4.700000     -1.5330542E-21
   4.710000     -1.7855429E-21
   4.720000     -2.0540643E-21
   4.730000     -2.3390176E-21
   4.740000     -2.6407737E-21
   4.750000     -2.9596734E-21
   4.760000     -3.2960223E-21
   4.770000     -3.6500871E-21
   4.780000     -4.0220914E-21
   4.790000     -4.4122105E-21
   4.800000     -4.8205675E-21
   4.810000     -5.2472287E-21
   4.820000     -5.6921981E-21
   4.830000     -6.1554112E-21
   4.840000     -6.6367314E-21
   4.850000     -7.1359434E-21
   4.860000     -7.6527463E-21
   4.870000     -8.1867495E-21
   4.880000     -8.7374660E-21
   4.890000     -9.3043069E-21
   4.900000     -9.8865701E-21
   4.910000     -1.0483442E-20
   4.920000     -1.1093983E-20
   4.930000     -1.1717128E-20
   4.940000     -1.2351673E-20
   4.950000     -1.2996271E-20
   4.960000     -1.3649427E-20
   4.970000     -1.4309488E-20
   4.980000     -1.4974638E-20
   4.990000     -1.5642890E-20
   5.000000     -1.6312082E-20
   5.010000     -1.6979866E-20
   5.020000     -1.7643706E-20
   5.030000     -1.8300865E-20
   5.040000     -1.8948409E-20
   5.050000     -1.9583191E-20
   5.060000     -2.0201849E-20
   5.070000     -2.0800804E-20
   5.080000     -2.1376252E-20
   5.090000     -2.1924156E-20
   5.100000     -2.2440244E-20
   5.110000     -2.2920012E-20
   5.120000     -2.3358715E-20
   5.130000     -2.3751362E-20
   5.140000     -2.4092716E-20
   5.150000     -2.4377300E-20
   5.160000     -2.4599385E-20
   5.170000     -2.4753000E-20
   5.180000     -2.4831930E-20
   5.190000     -2.4829715E-20
   5.200000     -2.4739663E-20
   5.210000     -2.4554842E-20
   5.220000     -2.4268095E-20
   5.230000     -2.3872050E-20
   5.240000     -2.3359117E-20
   5.250000     -2.2721506E-20
   5.260000     -2.1951238E-20
   5.270000     -2.1040155E-20
   5.280000     -1.9979939E-20
   5.290000     -1.8762116E-20
   5.300000     -1.7378097E-20
   5.310000     -1.5819172E-20
   5.320000     -1.4076546E-20
   5.330000     -1.2141363E-20
   5.340000     -1.0004731E-20
   5.350000     -7.6577465E-21
   5.360000     -5.0915204E-21
   5.370000     -2.2972161E-21
   5.380000      7.3390868E-22
   5.390000      4.0104782E-21
   5.400000      7.5409622E-21
   5.410000      1.1333610E-20
   5.420000      1.5396429E-20
   5.430000      1.9737129E-20
   5.440000      2.4363073E-20
   5.450000      2.9281237E-20
   5.460000      3.4498146E-20
   5.470000      4.0019809E-20
   5.480000      4.5851675E-20
   5.490000      5.1998567E-20
   5.500000      5.8464602E-20
   5.510000      6.5253151E-20
   5.520000      7.2366749E-20
   5.530000      7.9807032E-20
   5.540000      8.7574645E-20
   5.550000      9.5669189E-20
   5.560000      1.0408915E-19
   5.570000      1.1283180E-19
   5.580000      1.2189312E-19
   5.590000      1.3126770E-19
   5.600000      1.4094868E-19
   5.610000      1.5092765E-19
   5.620000      1.6119456E-19
   5.630000      1.7173765E-19
   5.640000      1.8254332E-19
   5.650000      1.9359609E-19
   5.660000      2.0487845E-19
   5.670000      2.1637083E-19
   5.680000      2.2805150E-19
   5.690000      2.3989639E-19
   5.700000      2.5187916E-19
   5.710000      2.6397091E-19
   5.720000      2.7614031E-19
   5.730000      2.8835340E-19
   5.740000      3.0057352E-19
   5.750000      3.1276118E-19
   5.760000      3.2487410E-19
   5.770000      3.3686706E-19
   5.780000      3.4869184E-19
   5.790000      3.6029718E-19
   5.800000      3.7162873E-19
   5.810000      3.8262896E-19
   5.820000      3.9323719E-19
   5.830000      4.0338946E-19
   5.840000      4.1301854E-19
   5.850000      4.2205399E-19
   5.860000      4.3042201E-19
   5.870000      4.3804564E-19
   5.880000      4.4484445E-19
   5.890000      4.5073496E-19
   5.900000      4.5563031E-19
   5.910000      4.5944067E-19
   5.920000      4.6207291E-19
   5.930000      4.6343099E-19
   5.940000      4.6341584E-19
   5.950000      4.6192573E-19
   5.960000      4.5885606E-19
   5.970000      4.5409977E-19
   5.980000      4.4754736E-19
   5.990000      4.3908711E-19
   6.000000      4.2860531E-19
   6.010000      4.1598639E-19
   6.020000      4.0111324E-19
   6.030000      3.8386748E-19
   6.040000      3.6412969E-19
   6.050000      3.4177973E-19
   6.060000      3.1669719E-19
   6.070000      2.8876151E-19
   6.080000      2.5785264E-19
   6.090000      2.2385120E-19
   6.100000      1.8663901E-19
   6.110000      1.4609959E-19
   6.120000      1.0211865E-19
   6.130000      5.4584608E-20
   6.140000      3.3891116E-21
   6.150000     -5.1572517E-20
   6.160000     -1.1040063E-19
   6.170000     -1.7319045E-19
   6.180000     -2.4003148E-19
   6.190000     -3.1100699E-19
   6.200000     -3.8619328E-19
   6.210000     -4.6565879E-19
   6.220000     -5.4946356E-19
   6.230000     -6.3765828E-19
   6.240000     -7.3028343E-19
   6.250000     -8.2736859E-19
   6.260000     -9.2893148E-19
   6.270000     -1.0349776E-18
   6.280000     -1.1454984E-18
   6.290000     -1.2604713E-18
   6.300000     -1.3798579E-18
   6.310000     -1.5036038E-18
   6.320000     -1.6316373E-18
   6.330000     -1.7638684E-18
   6.340000     -1.9001877E-18
   6.350000     -2.0404658E-18
   6.360000     -2.1845522E-18
   6.370000     -2.3322742E-18
   6.380000     -2.4834357E-18
   6.390000     -2.6378167E-18
   6.400000     -2.7951721E-18
   6.410000     -2.9552310E-18
   6.420000     -3.1176948E-18
   6.430000     -3.2822378E-18
   6.440000     -3.4485052E-18
   6.450000     -3.6161127E-18
   6.460000     -3.7846441E-18
   6.470000     -3.9536545E-18
   6.480000     -4.1226649E-18
   6.490000     -4.2911649E-18
   6.500000     -4.4586090E-18
   6.510000     -4.6244198E-18
   6.520000     -4.7879840E-18
   6.530000     -4.9486539E-18
   6.540000     -5.1057467E-18
   6.550000     -5.2585439E-18
   6.560000     -5.4062912E-18
   6.570000     -5.5481982E-18
   6.580000     -5.6834389E-18
   6.590000     -5.8111510E-18
   6.600000     -5.9304379E-18
   6.610000     -6.0403669E-18
   6.620000     -6.1399710E-18
   6.630000     -6.2282490E-18
   6.640000     -6.3041668E-18
   6.650000     -6.3666574E-18
   6.660000     -6.4146231E-18
   6.670000     -6.4469353E-18
   6.680000     -6.4624370E-18
   6.690000     -6.4599452E-18
   6.700000     -6.4382507E-18
   6.710000     -6.3961224E-18
   6.720000     -6.3323058E-18
   6.730000     -6.2455292E-18
   6.740000     -6.1345058E-18
   6.750000     -5.9979338E-18
   6.760000     -5.8345023E-18
   6.770000     -5.6428925E-18
   6.780000     -5.4217830E-18
   6.790000     -5.1698515E-18
   6.800000     -4.8857820E-18
   6.810000     -4.5682650E-18
   6.820000     -4.2160064E-18
   6.830000     -3.8277270E-18
   6.840000     -3.4021703E-18
   6.850000     -2.9381091E-18
   6.860000     -2.4343489E-18
   6.870000     -1.8897342E-18
   6.880000     -1.3031555E-18
   6.890000     -6.7355353E-19
   6.900000      7.3938778E-23
   6.910000      7.1866367E-19
   6.920000      1.4830815E-18
   6.930000      2.2941155E-18
   6.940000      3.1524658E-18
   6.950000      4.0587403E-18
   6.960000      5.0134457E-18
   6.970000      6.0169804E-18
   6.980000      7.0696240E-18
   6.990000      8.1715287E-18
   7.000000      9.3227159E-18
   7.010000      1.0523063E-17
   7.020000      1.1772295E-17
   7.030000      1.3069976E-17
   7.040000      1.4415500E-17
   7.050000      1.5808087E-17
   7.060000      1.7246764E-17