  -2.600000      0.0000000E+00
  -2.590000      0.0000000E+00
  -2.580000      0.0000000E+00
  -2.570000      0.0000000E+00
  -2.560000      0.0000000E+00
  -2.550000      0.0000000E+00
  -2.540000      0.0000000E+00
  -2.530000      0.0000000E+00
  -2.520000      0.0000000E+00
  -2.510000      0.0000000E+00
  -2.500000      0.0000000E+00
  -2.490000      0.0000000E+00
  -2.480000      0.0000000E+00
  -2.470000      0.0000000E+00
  -2.460000      0.0000000E+00
  -2.450000      0.0000000E+00
  -2.440000      0.0000000E+00
  -2.430000      0.0000000E+00
  -2.420000      0.0000000E+00
  -2.410000      0.0000000E+00
  -2.400000      0.0000000E+00
  -2.390000      0.0000000E+00
  -2.380000      0.0000000E+00
  -2.370000      0.0000000E+00
  -2.360000      0.0000000E+00
  -2.350000      0.0000000E+00
  -2.340000      0.0000000E+00
  -2.330000      0.0000000E+00
  -2.320000      0.0000000E+00
  -2.310000      0.0000000E+00
  -2.300000      0.0000000E+00
  -2.290000      0.0000000E+00
  -2.280000      0.0000000E+00
  -2.270000      0.0000000E+00
  -2.260000      0.0000000E+00
  -2.250000      0.0000000E+00
  -2.240000      0.0000000E+00
  -2.230000      0.0000000E+00
  -2.220000      0.0000000E+00
  -2.210000      0.0000000E+00
  -2.200000      0.0000000E+00
  -2.190000      0.0000000E+00
  -2.180000      0.0000000E+00
  -2.170000      0.0000000E+00
  -2.160000      0.0000000E+00
  -2.150000      0.0000000E+00
  -2.140000      0.0000000E+00
  -2.130000      0.0000000E+00
  -2.120000      0.0000000E+00
  -2.110000      0.0000000E+00
  -2.100000      0.0000000E+00
  -2.090000      0.0000000E+00
  -2.080000      0.0000000E+00
  -2.070000      0.0000000E+00
  -2.060000      0.0000000E+00
  -2.050000      0.0000000E+00
  -2.040000      0.0000000E+00
  -2.030000      0.0000000E+00
  -2.020000      0.0000000E+00
  -2.010000      0.0000000E+00
  -2.000000      0.0000000E+00
  -1.990000      0.0000000E+00
  -1.980000      0.0000000E+00
  -1.970000      0.0000000E+00
  -1.960000      0.0000000E+00
  -1.950000      0.0000000E+00
  -1.940000      0.0000000E+00
  -1.930000      0.0000000E+00
  -1.920000      0.0000000E+00
  -1.910000      0.0000000E+00
  -1.900000      0.0000000E+00
  -1.890000      0.0000000E+00
  -1.880000      0.0000000E+00
  -1.870000      0.0000000E+00
  -1.860000      0.0000000E+00
  -1.850000      0.0000000E+00
  -1.840000      0.0000000E+00
  -1.830000      0.0000000E+00
  -1.820000      0.0000000E+00
  -1.810000      0.0000000E+00
  -1.800000      0.0000000E+00
  -1.790000      0.0000000E+00
  -1.780000      0.0000000E+00
  -1.770000      0.0000000E+00
  -1.760000      0.0000000E+00
  -1.750000      0.0000000E+00
  -1.740000      0.0000000E+00
  -1.730000      0.0000000E+00
  -1.720000      0.0000000E+00
  -1.710000      0.0000000E+00
  -1.700000      0.0000000E+00
  -1.690000      0.0000000E+00
  -1.680000      0.0000000E+00
  -1.670000      0.0000000E+00
  -1.660000      0.0000000E+00
  -1.650000      0.0000000E+00
  -1.640000      0.0000000E+00
  -1.630000      0.0000000E+00
  -1.620000      0.0000000E+00
  -1.610000      0.0000000E+00
  -1.600000      0.0000000E+00
  -1.590000      0.0000000E+00
  -1.580000      0.0000000E+00
  -1.570000      0.0000000E+00
  -1.560000      0.0000000E+00
  -1.550000      0.0000000E+00
  -1.540000      0.0000000E+00
  -1.530000      0.0000000E+00
  -1.520000      0.0000000E+00
  -1.510000      0.0000000E+00
  -1.500000      0.0000000E+00
  -1.490000      0.0000000E+00
  -1.480000      0.0000000E+00
  -1.470000      0.0000000E+00
  -1.460000      0.0000000E+00
  -1.450000      0.0000000E+00
  -1.440000      0.0000000E+00
  -1.430000      0.0000000E+00
  -1.420000      0.0000000E+00
  -1.410000      0.0000000E+00
  -1.400000      0.0000000E+00
  -1.390000      0.0000000E+00
  -1.380000      0.0000000E+00
  -1.370000      0.0000000E+00
  -1.360000      0.0000000E+00
  -1.350000      0.0000000E+00
  -1.340000      0.0000000E+00
  -1.330000      0.0000000E+00
  -1.320000      0.0000000E+00
  -1.310000      0.0000000E+00
  -1.300000      0.0000000E+00
  -1.290000      0.0000000E+00
  -1.280000      0.0000000E+00
  -1.270000      0.0000000E+00
  -1.260000      0.0000000E+00
  -1.250000      0.0000000E+00
  -1.240000      0.0000000E+00
  -1.230000      0.0000000E+00
  -1.220000      0.0000000E+00
  -1.210000      0.0000000E+00
  -1.200000      0.0000000E+00
  -1.190000      0.0000000E+00
  -1.180000      0.0000000E+00
  -1.170000      0.0000000E+00
  -1.160000      0.0000000E+00
  -1.150000      0.0000000E+00
  -1.140000      0.0000000E+00
  -1.130000      0.0000000E+00
  -1.120000      0.0000000E+00
  -1.110000      0.0000000E+00
  -1.100000      0.0000000E+00
  -1.090000      0.0000000E+00
  -1.080000      0.0000000E+00
  -1.070000      0.0000000E+00
  -1.060000      0.0000000E+00
  -1.050000      0.0000000E+00
  -1.040000      0.0000000E+00
  -1.030000      0.0000000E+00
  -1.020000      0.0000000E+00
  -1.010000      0.0000000E+00
  -1.000000      0.0000000E+00
 -0.9900000      0.0000000E+00
 -0.9800000      0.0000000E+00
 -0.9700000      0.0000000E+00
 -0.9600000      0.0000000E+00
 -0.9500000      0.0000000E+00
 -0.9400000      0.0000000E+00
 -0.9300000      0.0000000E+00
 -0.9200000      0.0000000E+00
 -0.9100000      0.0000000E+00
 -0.9000000      0.0000000E+00
 -0.8900000      0.0000000E+00
 -0.8800000      0.0000000E+00
 -0.8700000      0.0000000E+00
 -0.8600000      0.0000000E+00
 -0.8500000      0.0000000E+00
 -0.8400000      0.0000000E+00
 -0.8300000      0.0000000E+00
 -0.8200000      0.0000000E+00
 -0.8100000      0.0000000E+00
 -0.8000000      0.0000000E+00
 -0.7900000      0.0000000E+00
 -0.7800000      0.0000000E+00
 -0.7700000      0.0000000E+00
 -0.7600000      0.0000000E+00
 -0.7500000      0.0000000E+00
 -0.7400000      0.0000000E+00
 -0.7300000      0.0000000E+00
 -0.7200000      0.0000000E+00
 -0.7100000      0.0000000E+00
 -0.7000000      0.0000000E+00
 -0.6900000      0.0000000E+00
 -0.6800000      0.0000000E+00
 -0.6700000      0.0000000E+00
 -0.6600000      0.0000000E+00
 -0.6500000      0.0000000E+00
 -0.6400000      0.0000000E+00
 -0.6300000      0.0000000E+00
 -0.6200000      0.0000000E+00
 -0.6100000      0.0000000E+00
 -0.6000000      0.0000000E+00
 -0.5900000      0.0000000E+00
 -0.5800000      0.0000000E+00
 -0.5700000      0.0000000E+00
 -0.5600000      0.0000000E+00
 -0.5500000      0.0000000E+00
 -0.5400000      0.0000000E+00
 -0.5300000      0.0000000E+00
 -0.5200000      0.0000000E+00
 -0.5100000      0.0000000E+00
 -0.5000000      0.0000000E+00
 -0.4900000      0.0000000E+00
 -0.4800000      0.0000000E+00
 -0.4700000      0.0000000E+00
 -0.4600000      0.0000000E+00
 -0.4500000      0.0000000E+00
 -0.4400000      0.0000000E+00
 -0.4300000      0.0000000E+00
 -0.4200000      0.0000000E+00
 -0.4100000      0.0000000E+00
 -0.4000000      0.0000000E+00
 -0.3900000      0.0000000E+00
 -0.3800000      0.0000000E+00
 -0.3700000      0.0000000E+00
 -0.3600000      0.0000000E+00
 -0.3500000      0.0000000E+00
 -0.3400000      0.0000000E+00
 -0.3300000      0.0000000E+00
 -0.3200000      0.0000000E+00
 -0.3100000      0.0000000E+00
 -0.3000000      0.0000000E+00
 -0.2900000      0.0000000E+00
 -0.2800000      0.0000000E+00
 -0.2700000      0.0000000E+00
 -0.2600000      0.0000000E+00
 -0.2500000      0.0000000E+00
 -0.2400000      0.0000000E+00
 -0.2300000      0.0000000E+00
 -0.2200000      0.0000000E+00
 -0.2100000      0.0000000E+00
 -0.2000000      0.0000000E+00
 -0.1900000      0.0000000E+00
 -0.1800000      0.0000000E+00
 -0.1700000      0.0000000E+00
 -0.1600000      0.0000000E+00
 -0.1500000      0.0000000E+00
 -0.1400000      0.0000000E+00
 -0.1300000      0.0000000E+00
 -0.1200000      0.0000000E+00
 -0.1100000      0.0000000E+00
 -0.1000000      0.0000000E+00
 -9.0000004E-02  0.0000000E+00
 -7.9999998E-02  0.0000000E+00
 -7.0000000E-02  0.0000000E+00
 -5.9999999E-02  0.0000000E+00
 -5.0000001E-02  0.0000000E+00
 -3.9999999E-02  0.0000000E+00
 -2.9999999E-02  0.0000000E+00
 -2.0000000E-02  0.0000000E+00
 -9.9999998E-03  0.0000000E+00
 -3.4694470E-17  0.0000000E+00
  9.9999998E-03  0.0000000E+00
  2.0000000E-02  0.0000000E+00
  2.9999999E-02  0.0000000E+00
  3.9999999E-02  0.0000000E+00
  5.0000001E-02  0.0000000E+00
  5.9999999E-02  0.0000000E+00
  7.0000000E-02  0.0000000E+00
  7.9999998E-02  0.0000000E+00
  9.0000004E-02  0.0000000E+00
  0.1000000      0.0000000E+00
  0.1100000      0.0000000E+00
  0.1200000      0.0000000E+00
  0.1300000      0.0000000E+00
  0.1400000      0.0000000E+00
  0.1500000      0.0000000E+00
  0.1600000      0.0000000E+00
  0.1700000      0.0000000E+00
  0.1800000      0.0000000E+00
  0.1900000      0.0000000E+00
  0.2000000      0.0000000E+00
  0.2100000      0.0000000E+00
  0.2200000      0.0000000E+00
  0.2300000      0.0000000E+00
  0.2400000      0.0000000E+00
  0.2500000      0.0000000E+00
  0.2600000      0.0000000E+00
  0.2700000      0.0000000E+00
  0.2800000      0.0000000E+00
  0.2900000      0.0000000E+00
  0.3000000      0.0000000E+00
  0.3100000      0.0000000E+00
  0.3200000      0.0000000E+00
  0.3300000      0.0000000E+00
  0.3400000      0.0000000E+00
  0.3500000      0.0000000E+00
  0.3600000      0.0000000E+00
  0.3700000      0.0000000E+00
  0.3800000      0.0000000E+00
  0.3900000      0.0000000E+00
  0.4000000      0.0000000E+00
  0.4100000      0.0000000E+00
  0.4200000      0.0000000E+00
  0.4300000      0.0000000E+00
  0.4400000      0.0000000E+00
  0.4500000     -1.3824600E-38
  0.4600000     -1.8629470E-38
  0.4700000     -2.4227764E-38
  0.4800000     -3.1639840E-38
  0.4900000     -4.1254569E-38
  0.5000000     -5.1267816E-38
  0.5100000     -6.1159346E-38
  0.5200000     -7.1488177E-38
  0.5300000     -8.2025224E-38
  0.5400000     -9.2223594E-38
  0.5500000     -1.0331907E-37
  0.5600000     -1.1637167E-37
  0.5700000     -1.2377812E-37
  0.5800000     -1.1840324E-37
  0.5900000     -1.0362249E-37
  0.6000000     -8.2019115E-38
  0.6100000     -5.1735401E-38
  0.6200000     -1.4310035E-38
  0.6300000      2.9765160E-38
  0.6400000      7.9691978E-38
  0.6500000      1.3432853E-37
  0.6600000      1.9720173E-37
  0.6700000      2.7494994E-37
  0.6800000      3.6240946E-37
  0.6900000      4.5226202E-37
  0.7000000      5.4979992E-37
  0.7100000      6.5462082E-37
  0.7200000      7.5891733E-37
  0.7300000      8.6048757E-37
  0.7400000      9.6953576E-37
  0.7500000      1.0790572E-36
  0.7600000      1.1846057E-36
  0.7700000      1.2545779E-36
  0.7800000      1.2808470E-36
  0.7900000      1.2862412E-36
  0.8000000      1.2606242E-36
  0.8100000      1.2124332E-36
  0.8200000      1.1426276E-36
  0.8300000      1.0446542E-36
  0.8400000      9.5635656E-37
  0.8500000      8.6676700E-37
  0.8600000      7.3996240E-37
  0.8700000      5.6957052E-37
  0.8800000      3.5307179E-37
  0.8900000      9.5897939E-38
  0.9000000     -1.9484495E-37
  0.9100000     -4.7535371E-37
  0.9200000     -7.2622264E-37
  0.9300000     -1.0880654E-36
  0.9400000     -1.7665562E-36
  0.9500000     -2.7250460E-36
  0.9600000     -3.8971673E-36
  0.9700000     -5.2797242E-36
  0.9800000     -6.7918089E-36
  0.9900000     -8.3531329E-36
   1.000000     -9.9561157E-36
   1.010000     -1.1612011E-35
   1.020000     -1.3182363E-35
   1.030000     -1.4684316E-35
   1.040000     -1.6201687E-35
   1.050000     -1.7517693E-35
   1.060000     -1.8539117E-35
   1.070000     -1.9296612E-35
   1.080000     -1.9723652E-35
   1.090000     -1.9910458E-35
   1.100000     -1.9808179E-35
   1.110000     -1.9503193E-35
   1.120000     -1.9089661E-35
   1.130000     -1.8450177E-35
   1.140000     -1.8125718E-35
   1.150000     -1.8120155E-35
   1.160000     -1.7999433E-35
   1.170000     -1.7637370E-35
   1.180000     -1.6740413E-35
   1.190000     -1.5594304E-35
   1.200000     -1.4122837E-35
   1.210000     -1.2236487E-35
   1.220000     -1.0314108E-35
   1.230000     -8.3545061E-36
   1.240000     -6.1999435E-36
   1.250000     -3.7316687E-36
   1.260000     -8.0840464E-37
   1.270000      2.5429974E-36
   1.280000      6.2476556E-36
   1.290000      1.0297810E-35
   1.300000      1.4815872E-35
   1.310000      2.0190941E-35
   1.320000      2.6181106E-35
   1.330000      3.2659561E-35
   1.340000      4.0269670E-35
   1.350000      4.8982545E-35
   1.360000      5.8180588E-35
   1.370000      6.7560040E-35
   1.380000      7.6901954E-35
   1.390000      8.5692626E-35
   1.400000      9.3982254E-35
   1.410000      1.0209372E-34
   1.420000      1.1043901E-34
   1.430000      1.1939399E-34
   1.440000      1.2503962E-34
   1.450000      1.2447266E-34
   1.460000      1.1966384E-34
   1.470000      1.1207587E-34
   1.480000      1.0313280E-34
   1.490000      9.3788992E-35
   1.500000      8.3348174E-35
   1.510000      7.5664442E-35
   1.520000      7.5711473E-35
   1.530000      7.9894270E-35
   1.540000      8.3549616E-35
   1.550000      8.9634532E-35
   1.560000      9.8054412E-35
   1.570000      1.0686892E-34
   1.580000      1.1750830E-34
   1.590000      1.2942266E-34
   1.600000      1.4183002E-34
   1.610000      1.5672541E-34
   1.620000      1.7213601E-34
   1.630000      1.8416434E-34
   1.640000      1.9786109E-34
   1.650000      2.1698590E-34
   1.660000      2.3796786E-34
   1.670000      2.5495559E-34
   1.680000      2.6942016E-34
   1.690000      2.8390326E-34
   1.700000      2.9588743E-34
   1.710000      3.0539263E-34
   1.720000      3.0856100E-34
   1.730000      3.0111392E-34
   1.740000      2.8704521E-34
   1.750000      2.6958018E-34
   1.760000      2.4441717E-34
   1.770000      2.1079966E-34
   1.780000      1.7208446E-34
   1.790000      1.2914445E-34
   1.800000      8.1335008E-35
   1.810000      2.8137380E-35
   1.820000     -2.7658880E-35
   1.830000     -8.3610967E-35
   1.840000     -1.4502152E-34
   1.850000     -2.1154003E-34
   1.860000     -2.7743618E-34
   1.870000     -3.4225358E-34
   1.880000     -4.0877045E-34
   1.890000     -4.7875291E-34
   1.900000     -5.5200085E-34
   1.910000     -6.2967215E-34
   1.920000     -7.1178217E-34
   1.930000     -7.9866907E-34
   1.940000     -8.9089780E-34
   1.950000     -9.8727061E-34
   1.960000     -1.0908182E-33
   1.970000     -1.2001498E-33
   1.980000     -1.3139009E-33
   1.990000     -1.4351912E-33
   2.000000     -1.5635379E-33
   2.010000     -1.6983811E-33
   2.020000     -1.8383854E-33
   2.030000     -1.9835106E-33
   2.040000     -2.1330566E-33
   2.050000     -2.2864445E-33
   2.060000     -2.4384536E-33
   2.070000     -2.5855347E-33
   2.080000     -2.7281486E-33
   2.090000     -2.8621667E-33
   2.100000     -2.9831363E-33
   2.110000     -3.0876339E-33
   2.120000     -3.1699361E-33
   2.130000     -3.2276294E-33
   2.140000     -3.2585298E-33
   2.150000     -3.2567361E-33
   2.160000     -3.2173409E-33
   2.170000     -3.1353865E-33
   2.180000     -3.0065220E-33
   2.190000     -2.8265241E-33
   2.200000     -2.5908316E-33
   2.210000     -2.2950985E-33
   2.220000     -1.9355815E-33
   2.230000     -1.5098912E-33
   2.240000     -1.0131366E-33
   2.250000     -4.3960238E-34
   2.260000      2.1196461E-34
   2.270000      9.4333027E-34
   2.280000      1.7580730E-33
   2.290000      2.6582247E-33
   2.300000      3.6458446E-33
   2.310000      4.7223142E-33
   2.320000      5.8881283E-33
   2.330000      7.1446877E-33
   2.340000      8.4917984E-33
   2.350000      9.9291951E-33
   2.360000      1.1457429E-32
   2.370000      1.3072505E-32
   2.380000      1.4770129E-32
   2.390000      1.6547283E-32
   2.400000      1.8398526E-32
   2.410000      2.0317102E-32
   2.420000      2.2294802E-32
   2.430000      2.4321841E-32
   2.440000      2.6386713E-32
   2.450000      2.8476104E-32
   2.460000      3.0574749E-32
   2.470000      3.2665927E-32
   2.480000      3.4730521E-32
   2.490000      3.6747094E-32
   2.500000      3.8692631E-32
   2.510000      4.0541892E-32
   2.520000      4.2267641E-32
   2.530000      4.3840661E-32
   2.540000      4.5229799E-32
   2.550000      4.6402137E-32
   2.560000      4.7323025E-32
   2.570000      4.7956426E-32
   2.580000      4.8264517E-32
   2.590000      4.8208278E-32
   2.600000      4.7748087E-32
   2.610000      4.6843329E-32
   2.620000      4.5452817E-32
   2.630000      4.3535047E-32
   2.640000      4.1048504E-32
   2.650000      3.7951917E-32
   2.660000      3.4204502E-32
   2.670000      2.9766332E-32
   2.680000      2.4598628E-32
   2.690000      1.8664123E-32
   2.700000      1.1927429E-32
   2.710000      4.3554251E-33
   2.720000     -4.0823229E-33
   2.730000     -1.3413115E-32
   2.740000     -2.3660569E-32
   2.750000     -3.4844159E-32
   2.760000     -4.6978688E-32
   2.770000     -6.0073662E-32
   2.780000     -7.4132716E-32
   2.790000     -8.9152953E-32
   2.800000     -1.0512430E-31
   2.810000     -1.2202888E-31
   2.820000     -1.3984033E-31
   2.830000     -1.5852328E-31
   2.840000     -1.7803255E-31
   2.850000     -1.9831262E-31
   2.860000     -2.1929630E-31
   2.870000     -2.4090671E-31
   2.880000     -2.6305514E-31
   2.890000     -2.8563878E-31
   2.900000     -3.0854310E-31
   2.910000     -3.3164072E-31
   2.920000     -3.5479095E-31
   2.930000     -3.7784028E-31
   2.940000     -4.0062192E-31
   2.950000     -4.2295570E-31
   2.960000     -4.4464861E-31
   2.970000     -4.6549473E-31
   2.980000     -4.8527609E-31
   2.990000     -5.0376262E-31
   3.000000     -5.2071311E-31
   3.010000     -5.3587562E-31
   3.020000     -5.4898840E-31
   3.030000     -5.5978075E-31
   3.040000     -5.6797433E-31
   3.050000     -5.7328380E-31
   3.060000     -5.7541840E-31
   3.070000     -5.7408346E-31
   3.080000     -5.6898177E-31
   3.090000     -5.5981522E-31
   3.100000     -5.4628674E-31
   3.110000     -5.2810236E-31
   3.120000     -5.0497310E-31
   3.130000     -4.7661749E-31
   3.140000     -4.4276401E-31
   3.150000     -4.0315403E-31
   3.160000     -3.5754433E-31
   3.170000     -3.0571006E-31
   3.180000     -2.4744821E-31
   3.190000     -1.8258083E-31
   3.200000     -1.1095851E-31
   3.210000     -3.2463951E-32
   3.220000      5.2984473E-32
   3.230000      1.4542888E-31
   3.240000      2.4486805E-31
   3.250000      3.5125410E-31
   3.260000      4.6448808E-31
   3.270000      5.8441658E-31
   3.280000      7.1082863E-31
   3.290000      8.4345199E-31
   3.300000      9.8195015E-31
   3.310000      1.1259189E-30
   3.320000      1.2748836E-30
   3.330000      1.4282973E-30
   3.340000      1.5855380E-30
   3.350000      1.7459070E-30
   3.360000      1.9086272E-30
   3.370000      2.0728417E-30
   3.380000      2.2376133E-30
   3.390000      2.4019245E-30
   3.400000      2.5646770E-30
   3.410000      2.7246921E-30
   3.420000      2.8807125E-30
   3.430000      3.0314030E-30
   3.440000      3.1753529E-30
   3.450000      3.3110787E-30
   3.460000      3.4370277E-30
   3.470000      3.5515815E-30
   3.480000      3.6530614E-30
   3.490000      3.7397332E-30
   3.500000      3.8098125E-30
   3.510000      3.8614749E-30
   3.520000      3.8928608E-30
   3.530000      3.9020872E-30
   3.540000      3.8872556E-30
   3.550000      3.8464639E-30
   3.560000      3.7778177E-30
   3.570000      3.6794451E-30
   3.580000      3.5495096E-30
   3.590000      3.3862268E-30
   3.600000      3.1878794E-30
   3.610000      2.9528347E-30
   3.620000      2.6795648E-30
   3.630000      2.3666642E-30
   3.640000      2.0128699E-30
   3.650000      1.6170847E-30
   3.660000      1.1783958E-30
   3.670000      6.9609879E-31
   3.680000      1.6972038E-31
   3.690000     -4.0095854E-31
   3.700000     -1.0158813E-30
   3.710000     -1.6746894E-30
   3.720000     -2.3766995E-30
   3.730000     -3.1208830E-30
   3.740000     -3.9058405E-30
   3.750000     -4.7297796E-30
   3.760000     -5.5904901E-30
   3.770000     -6.4853276E-30
   3.780000     -7.4111898E-30
   3.790000     -8.3644928E-30
   3.800000     -9.3411597E-30
   3.810000     -1.0336597E-29
   3.820000     -1.1345677E-29
   3.830000     -1.2362724E-29
   3.840000     -1.3381503E-29
   3.850000     -1.4395205E-29
   3.860000     -1.5396442E-29
   3.870000     -1.6377228E-29
   3.880000     -1.7328985E-29
   3.890000     -1.8242538E-29
   3.900000     -1.9108120E-29
   3.910000     -1.9915372E-29
   3.920000     -2.0653349E-29
   3.930000     -2.1310538E-29
   3.940000     -2.1874879E-29
   3.950000     -2.2333782E-29
   3.960000     -2.2674148E-29
   3.970000     -2.2882418E-29
   3.980000     -2.2944604E-29
   3.990000     -2.2846329E-29
   4.000000     -2.2572891E-29
   4.010000     -2.2109303E-29
   4.020000     -2.1440373E-29
   4.030000     -2.0550774E-29
   4.040000     -1.9425119E-29
   4.050000     -1.8048044E-29
   4.060000     -1.6404299E-29
   4.070000     -1.4478852E-29
   4.080000     -1.2257000E-29
   4.090000     -9.7244754E-30
   4.100000     -6.8675653E-30
   4.110000     -3.6732400E-30
   4.120000     -1.2929086E-31
   4.130000      3.7755404E-30
   4.140000      8.0513930E-30
   4.150000      1.2707156E-29
   4.160000      1.7750311E-29
   4.170000      2.3186742E-29
   4.180000      2.9020580E-29
   4.190000      3.5254024E-29
   4.200000      4.1887180E-29
   4.210000      4.8917835E-29
   4.220000      5.6341281E-29
   4.230000      6.4150132E-29
   4.240000      7.2334107E-29
   4.250000      8.0879837E-29
   4.260000      8.9770658E-29
   4.270000      9.8986407E-29
   4.280000      1.0850321E-28
   4.290000      1.1829329E-28
   4.300000      1.2832475E-28
   4.310000      1.3856135E-28
   4.320000      1.4896240E-28
   4.330000      1.5948244E-28
   4.340000      1.7007116E-28
   4.350000      1.8067317E-28
   4.360000      1.9122792E-28
   4.370000      2.0166943E-28
   4.380000      2.1192627E-28
   4.390000      2.2192132E-28
   4.400000      2.3157184E-28
   4.410000      2.4078922E-28
   4.420000      2.4947907E-28
   4.430000      2.5754106E-28
   4.440000      2.6486903E-28
   4.450000      2.7135099E-28
   4.460000      2.7686909E-28
   4.470000      2.8129979E-28
   4.480000      2.8451400E-28
   4.490000      2.8637716E-28
   4.500000      2.8674952E-28
   4.510000      2.8548628E-28
   4.520000      2.8243796E-28
   4.530000      2.7745067E-28
   4.540000      2.7036652E-28
   4.550000      2.6102398E-28
   4.560000      2.4925845E-28
   4.570000      2.3490267E-28
   4.580000      2.1778738E-28
   4.590000      1.9774192E-28
   4.600000      1.7459505E-28
   4.610000      1.4817548E-28
   4.620000      1.1831285E-28
   4.630000      8.4838634E-29
   4.640000      4.7587126E-29
   4.650000      6.3963827E-30
   4.660000     -3.8890604E-29
   4.670000     -8.8424638E-29
   4.680000     -1.4234930E-28
   4.690000     -2.0079945E-28
   4.700000     -2.6389990E-28
   4.710000     -3.3176375E-28
   4.720000     -4.0449098E-28
   4.730000     -4.8216696E-28
   4.740000     -5.6486071E-28
   4.750000     -6.5262298E-28
   4.760000     -7.4548473E-28
   4.770000     -8.4345486E-28
   4.780000     -9.4651849E-28
   4.790000     -1.0546350E-27
   4.800000     -1.1677362E-27
   4.810000     -1.2857239E-27
   4.820000     -1.4084679E-27
   4.830000     -1.5358041E-27
   4.840000     -1.6675318E-27
   4.850000     -1.8034115E-27
   4.860000     -1.9431636E-27
   4.870000     -2.0864658E-27
   4.880000     -2.2329501E-27
   4.890000     -2.3822018E-27
   4.900000     -2.5337565E-27
   4.910000     -2.6870979E-27
   4.920000     -2.8416569E-27
   4.930000     -2.9968082E-27
   4.940000     -3.1518691E-27
   4.950000     -3.3060976E-27
   4.960000     -3.4586905E-27
   4.970000     -3.6087813E-27
   4.980000     -3.7554394E-27
   4.990000     -3.8976685E-27
   5.000000     -4.0344061E-27
   5.010000     -4.1645211E-27
   5.020000     -4.2868146E-27
   5.030000     -4.4000173E-27
   5.040000     -4.5027915E-27
   5.050000     -4.5937300E-27
   5.060000     -4.6713573E-27
   5.070000     -4.7341272E-27
   5.080000     -4.7804281E-27
   5.090000     -4.8085814E-27
   5.100000     -4.8168448E-27
   5.110000     -4.8034137E-27
   5.120000     -4.7664239E-27
   5.130000     -4.7039549E-27
   5.140000     -4.6140340E-27
   5.150000     -4.4946379E-27
   5.160000     -4.3437023E-27
   5.170000     -4.1591228E-27
   5.180000     -3.9387613E-27
   5.190000     -3.6804537E-27
   5.200000     -3.3820173E-27
   5.210000     -3.0412575E-27
   5.220000     -2.6559764E-27
   5.230000     -2.2239819E-27
   5.240000     -1.7430964E-27
   5.250000     -1.2111695E-27
   5.260000     -6.2608858E-28
   5.270000      1.4210256E-29
   5.280000      7.1172789E-28
   5.290000      1.4683884E-27
   5.300000      2.2860261E-27
   5.310000      3.1663708E-27
   5.320000      4.1110288E-27
   5.330000      5.1214691E-27
   5.340000      6.1990042E-27
   5.350000      7.3447757E-27
   5.360000      8.5597278E-27
   5.370000      9.8445904E-27
   5.380000      1.1199864E-26
   5.390000      1.2625796E-26
   5.400000      1.4122348E-26
   5.410000      1.5689186E-26
   5.420000      1.7325655E-26
   5.430000      1.9030752E-26
   5.440000      2.0803100E-26
   5.450000      2.2640930E-26
   5.460000      2.4542056E-26
   5.470000      2.6503841E-26
   5.480000      2.8523170E-26
   5.490000      3.0596445E-26
   5.500000      3.2719534E-26
   5.510000      3.4887771E-26
   5.520000      3.7095901E-26
   5.530000      3.9338084E-26
   5.540000      4.1607846E-26
   5.550000      4.3898076E-26
   5.560000      4.6200982E-26
   5.570000      4.8508096E-26
   5.580000      5.0810223E-26
   5.590000      5.3097445E-26
   5.600000      5.5359084E-26
   5.610000      5.7583697E-26
   5.620000      5.9759073E-26
   5.630000      6.1872173E-26
   5.640000      6.3909166E-26
   5.650000      6.5855390E-26
   5.660000      6.7695378E-26
   5.670000      6.9412814E-26
   5.680000      7.0990573E-26
   5.690000      7.2410683E-26
   5.700000      7.3654359E-26
   5.710000      7.4701997E-26
   5.720000      7.5533204E-26
   5.730000      7.6126797E-26
   5.740000      7.6460836E-26
   5.750000      7.6512661E-26
   5.760000      7.6258906E-26
   5.770000      7.5675525E-26
   5.780000      7.4737872E-26
   5.790000      7.3420733E-26
   5.800000      7.1698360E-26
   5.810000      6.9544585E-26
   5.820000      6.6932808E-26
   5.830000      6.3836134E-26
   5.840000      6.0227435E-26
   5.850000      5.6079444E-26
   5.860000      5.1364860E-26
   5.870000      4.6056421E-26
   5.880000      4.0127012E-26
   5.890000      3.3549820E-26
   5.900000      2.6298441E-26
   5.910000      1.8347020E-26
   5.920000      9.6703801E-27
   5.930000      2.4417323E-28
   5.940000     -9.9549462E-27
   5.950000     -2.0949167E-26
   5.960000     -3.2759341E-26
   5.970000     -4.5404766E-26
   5.980000     -5.8903073E-26
   5.990000     -7.3269931E-26
   6.000000     -8.8518951E-26
   6.010000     -1.0466139E-25
   6.020000     -1.2170590E-25
   6.030000     -1.3965841E-25
   6.040000     -1.5852180E-25
   6.050000     -1.7829569E-25
   6.060000     -1.9897622E-25
   6.070000     -2.2055572E-25
   6.080000     -2.4302251E-25
   6.090000     -2.6636068E-25
   6.100000     -2.9054975E-25
   6.110000     -3.1556443E-25
   6.120000     -3.4137436E-25
   6.130000     -3.6794381E-25
   6.140000     -3.9523142E-25
   6.150000     -4.2319000E-25
   6.160000     -4.5176619E-25
   6.170000     -4.8090031E-25
   6.180000     -5.1052583E-25
   6.190000     -5.4056940E-25
   6.200000     -5.7095060E-25
   6.210000     -6.0158138E-25
   6.220000     -6.3236633E-25
   6.230000     -6.6320202E-25
   6.240000     -6.9397706E-25
   6.250000     -7.2457190E-25
   6.260000     -7.5485858E-25
   6.270000     -7.8470060E-25
   6.280000     -8.1395289E-25
   6.290000     -8.4246144E-25
   6.300000     -8.7006358E-25
   6.310000     -8.9658775E-25
   6.320000     -9.2185349E-25
   6.330000     -9.4567117E-25
   6.340000     -9.6784289E-25
   6.350000     -9.8816139E-25
   6.360000     -1.0064112E-24
   6.370000     -1.0223681E-24
   6.380000     -1.0357996E-24
   6.390000     -1.0464651E-24
   6.400000     -1.0541163E-24
   6.410000     -1.0584975E-24
   6.420000     -1.0593463E-24
   6.430000     -1.0563931E-24
   6.440000     -1.0493624E-24
   6.450000     -1.0379733E-24
   6.460000     -1.0219397E-24
   6.470000     -1.0009717E-24
   6.480000     -9.7477540E-25
   6.490000     -9.4305481E-25
   6.500000     -9.0551154E-25
   6.510000     -8.6184681E-25
   6.520000     -8.1176159E-25
   6.530000     -7.5495803E-25
   6.540000     -6.9114106E-25
   6.550000     -6.2001923E-25
   6.560000     -5.4130565E-25
   6.570000     -4.5471989E-25
   6.580000     -3.5998923E-25
   6.590000     -2.5685037E-25
   6.600000     -1.4505089E-25
   6.610000     -2.4350555E-26
   6.620000      1.0547625E-25
   6.630000      2.4463947E-25
   6.640000      3.9333076E-25
   6.650000      5.5172187E-25
   6.660000      7.1996288E-25
   6.670000      8.9817957E-25
   6.680000      1.0864717E-24
   6.690000      1.2849105E-24
   6.700000      1.4935369E-24
   6.710000      1.7123593E-24
   6.720000      1.9413506E-24
   6.730000      2.1804461E-24
   6.740000      2.4295411E-24
   6.750000      2.6884896E-24
   6.760000      2.9570997E-24
   6.770000      3.2351324E-24
   6.780000      3.5222987E-24
   6.790000      3.8182591E-24
   6.800000      4.1226183E-24
   6.810000      4.4349247E-24
   6.820000      4.7546670E-24
   6.830000      5.0812716E-24
   6.840000      5.4141023E-24
   6.850000      5.7524554E-24
   6.860000      6.0955606E-24
   6.870000      6.4425769E-24
   6.880000      6.7925902E-24
   6.890000      7.1446138E-24
   6.900000      7.4975849E-24
   6.910000      7.8503643E-24
   6.920000      8.2017324E-24
   6.930000      8.5503924E-24
   6.940000      8.8949652E-24
   6.950000      9.2339900E-24
   6.960000      9.5659269E-24
   6.970000      9.8891501E-24
   6.980000      1.0201955E-23
   6.990000      1.0502555E-23
   7.000000      1.0789078E-23
   7.010000      1.1059574E-23
   7.020000      1.1312015E-23
   7.030000      1.1544293E-23
   7.040000      1.1754222E-23
   7.050000      1.1939547E-23
   7.060000      1.2097938E-23