  -2.600000      0.0000000E+00
  -2.590000      0.0000000E+00
  -2.580000      0.0000000E+00
  -2.570000      0.0000000E+00
  -2.560000      0.0000000E+00
  -2.550000      0.0000000E+00
  -2.540000      0.0000000E+00
  -2.530000      0.0000000E+00
  -2.520000      0.0000000E+00
  -2.510000      0.0000000E+00
  -2.500000      0.0000000E+00
  -2.490000      0.0000000E+00
  -2.480000      0.0000000E+00
  -2.470000      0.0000000E+00
  -2.460000      0.0000000E+00
  -2.450000      0.0000000E+00
  -2.440000      0.0000000E+00
  -2.430000      0.0000000E+00
  -2.420000      0.0000000E+00
  -2.410000      0.0000000E+00
  -2.400000      0.0000000E+00
  -2.390000      0.0000000E+00
  -2.380000      0.0000000E+00
  -2.370000      0.0000000E+00
  -2.360000      0.0000000E+00
  -2.350000      0.0000000E+00
  -2.340000      0.0000000E+00
  -2.330000      0.0000000E+00
  -2.320000      0.0000000E+00
  -2.310000      0.0000000E+00
  -2.300000      0.0000000E+00
  -2.290000      0.0000000E+00
  -2.280000      0.0000000E+00
  -2.270000      0.0000000E+00
  -2.260000      0.0000000E+00
  -2.250000      0.0000000E+00
  -2.240000      0.0000000E+00
  -2.230000      0.0000000E+00
  -2.220000      0.0000000E+00
  -2.210000      0.0000000E+00
  -2.200000      0.0000000E+00
  -2.190000      0.0000000E+00
  -2.180000      0.0000000E+00
  -2.170000      0.0000000E+00
  -2.160000      0.0000000E+00
  -2.150000      0.0000000E+00
  -2.140000      0.0000000E+00
  -2.130000      0.0000000E+00
  -2.120000      0.0000000E+00
  -2.110000      0.0000000E+00
  -2.100000      0.0000000E+00
  -2.090000      0.0000000E+00
  -2.080000      0.0000000E+00
  -2.070000      0.0000000E+00
  -2.060000      0.0000000E+00
  -2.050000      0.0000000E+00
  -2.040000      0.0000000E+00
  -2.030000      0.0000000E+00
  -2.020000      0.0000000E+00
  -2.010000      0.0000000E+00
  -2.000000      0.0000000E+00
  -1.990000      0.0000000E+00
  -1.980000      0.0000000E+00
  -1.970000      0.0000000E+00
  -1.960000      0.0000000E+00
  -1.950000      0.0000000E+00
  -1.940000      0.0000000E+00
  -1.930000      0.0000000E+00
  -1.920000      0.0000000E+00
  -1.910000      0.0000000E+00
  -1.900000      0.0000000E+00
  -1.890000      0.0000000E+00
  -1.880000      0.0000000E+00
  -1.870000      0.0000000E+00
  -1.860000      0.0000000E+00
  -1.850000      0.0000000E+00
  -1.840000      0.0000000E+00
  -1.830000      0.0000000E+00
  -1.820000      0.0000000E+00
  -1.810000      0.0000000E+00
  -1.800000      0.0000000E+00
  -1.790000      0.0000000E+00
  -1.780000      0.0000000E+00
  -1.770000      0.0000000E+00
  -1.760000      0.0000000E+00
  -1.750000      0.0000000E+00
  -1.740000      0.0000000E+00
  -1.730000      0.0000000E+00
  -1.720000      0.0000000E+00
  -1.710000      0.0000000E+00
  -1.700000      0.0000000E+00
  -1.690000      0.0000000E+00
  -1.680000      0.0000000E+00
  -1.670000      0.0000000E+00
  -1.660000      0.0000000E+00
  -1.650000      0.0000000E+00
  -1.640000      0.0000000E+00
  -1.630000      0.0000000E+00
  -1.620000      0.0000000E+00
  -1.610000      0.0000000E+00
  -1.600000      0.0000000E+00
  -1.590000      0.0000000E+00
  -1.580000      0.0000000E+00
  -1.570000      0.0000000E+00
  -1.560000      0.0000000E+00
  -1.550000      0.0000000E+00
  -1.540000      0.0000000E+00
  -1.530000      0.0000000E+00
  -1.520000      0.0000000E+00
  -1.510000      0.0000000E+00
  -1.500000      0.0000000E+00
  -1.490000      0.0000000E+00
  -1.480000      0.0000000E+00
  -1.470000      0.0000000E+00
  -1.460000      0.0000000E+00
  -1.450000      0.0000000E+00
  -1.440000      0.0000000E+00
  -1.430000      0.0000000E+00
  -1.420000      0.0000000E+00
  -1.410000      0.0000000E+00
  -1.400000      0.0000000E+00
  -1.390000      0.0000000E+00
  -1.380000      0.0000000E+00
  -1.370000      0.0000000E+00
  -1.360000      0.0000000E+00
  -1.350000      0.0000000E+00
  -1.340000      0.0000000E+00
  -1.330000      0.0000000E+00
  -1.320000      0.0000000E+00
  -1.310000      0.0000000E+00
  -1.300000      0.0000000E+00
  -1.290000      0.0000000E+00
  -1.280000      0.0000000E+00
  -1.270000      0.0000000E+00
  -1.260000      0.0000000E+00
  -1.250000      0.0000000E+00
  -1.240000      0.0000000E+00
  -1.230000      0.0000000E+00
  -1.220000      0.0000000E+00
  -1.210000      0.0000000E+00
  -1.200000      0.0000000E+00
  -1.190000      0.0000000E+00
  -1.180000      0.0000000E+00
  -1.170000      0.0000000E+00
  -1.160000      0.0000000E+00
  -1.150000      0.0000000E+00
  -1.140000      0.0000000E+00
  -1.130000      0.0000000E+00
  -1.120000      0.0000000E+00
  -1.110000      0.0000000E+00
  -1.100000      0.0000000E+00
  -1.090000      0.0000000E+00
  -1.080000      0.0000000E+00
  -1.070000      0.0000000E+00
  -1.060000      0.0000000E+00
  -1.050000      0.0000000E+00
  -1.040000      0.0000000E+00
  -1.030000      0.0000000E+00
  -1.020000      0.0000000E+00
  -1.010000      0.0000000E+00
  -1.000000      2.3734114E-38
 -0.9900000      4.2365070E-38
 -0.9800000      6.4767611E-38
 -0.9700000      8.9753469E-38
 -0.9600000      1.1557256E-37
 -0.9500000      1.3860980E-37
 -0.9400000      1.4869292E-37
 -0.9300000      1.3221624E-37
 -0.9200000      7.6410227E-38
 -0.9100000     -1.8575711E-38
 -0.9000000     -1.4410146E-37
 -0.8900000     -2.9336838E-37
 -0.8800000     -4.6971744E-37
 -0.8700000     -6.6902827E-37
 -0.8600000     -8.7842446E-37
 -0.8500000     -1.0754477E-36
 -0.8400000     -1.2389004E-36
 -0.8300000     -1.3577197E-36
 -0.8200000     -1.4018417E-36
 -0.8100000     -1.3291954E-36
 -0.8000000     -1.1075311E-36
 -0.7900000     -7.0447982E-37
 -0.7800000     -9.6938835E-38
 -0.7700000      7.5597429E-37
 -0.7600000      1.8927032E-36
 -0.7500000      3.3284933E-36
 -0.7400000      5.0442070E-36
 -0.7300000      6.9942954E-36
 -0.7200000      9.1248251E-36
 -0.7100000      1.1155176E-35
 -0.7000000      1.2908415E-35
 -0.6900000      1.4228525E-35
 -0.6800000      1.4878771E-35
 -0.6700000      1.4456744E-35
 -0.6600000      1.2491372E-35
 -0.6500000      8.5417802E-36
 -0.6400000      2.5140670E-36
 -0.6300000     -5.0434135E-36
 -0.6200000     -1.3967591E-35
 -0.6100000     -2.4679840E-35
 -0.6000000     -3.6995126E-35
 -0.5900000     -5.0230446E-35
 -0.5800000     -6.4332011E-35
 -0.5700000     -7.8496855E-35
 -0.5600000     -9.1245809E-35
 -0.5500000     -1.0148867E-34
 -0.5400000     -1.0783824E-34
 -0.5300000     -1.0896349E-34
 -0.5200000     -1.0323244E-34
 -0.5100000     -8.8793899E-35
 -0.5000000     -6.4194849E-35
 -0.4900000     -2.8065949E-35
 -0.4800000      2.0906212E-35
 -0.4700000      8.3360624E-35
 -0.4600000      1.5938484E-34
 -0.4500000      2.4734970E-34
 -0.4400000      3.4322440E-34
 -0.4300000      4.4376409E-34
 -0.4200000      5.4442419E-34
 -0.4100000      6.3766711E-34
 -0.4000000      7.1560620E-34
 -0.3900000      7.6912187E-34
 -0.3800000      7.8803075E-34
 -0.3700000      7.6395644E-34
 -0.3600000      6.8557733E-34
 -0.3500000      5.4380586E-34
 -0.3400000      3.3447792E-34
 -0.3300000      5.1480500E-35
 -0.3200000     -3.1054334E-34
 -0.3100000     -7.5068796E-34
 -0.3000000     -1.2617721E-33
 -0.2900000     -1.8352169E-33
 -0.2800000     -2.4534117E-33
 -0.2700000     -3.0876269E-33
 -0.2600000     -3.7045848E-33
 -0.2500000     -4.2631261E-33
 -0.2400000     -4.7160411E-33
 -0.2300000     -5.0087928E-33
 -0.2200000     -5.0807250E-33
 -0.2100000     -4.8715796E-33
 -0.2000000     -4.3208472E-33
 -0.1900000     -3.3716491E-33
 -0.1800000     -1.9767675E-33
 -0.1700000     -1.0088503E-34
 -0.1600000      2.2732472E-33
 -0.1500000      5.1392911E-33
 -0.1400000      8.4649618E-33
 -0.1300000      1.2184884E-32
 -0.1200000      1.6196900E-32
 -0.1100000      2.0360431E-32
 -0.1000000      2.4494190E-32
 -9.0000004E-02  2.8376163E-32
 -7.9999998E-02  3.1749526E-32
 -7.0000000E-02  3.4325149E-32
 -5.9999999E-02  3.5786994E-32
 -5.0000001E-02  3.5806866E-32
 -3.9999999E-02  3.4056843E-32
 -2.9999999E-02  3.0224096E-32
 -2.0000000E-02  2.4032396E-32
 -9.9999998E-03  1.5261633E-32
 -3.4694470E-17  3.7691121E-33
  9.9999998E-03 -1.0485742E-32
  2.0000000E-02 -2.7419173E-32
  2.9999999E-02 -4.6801987E-32
  3.9999999E-02 -6.8241361E-32
  5.0000001E-02 -9.1167128E-32
  5.9999999E-02 -1.1482393E-31
  7.0000000E-02 -1.3827094E-31
  7.9999998E-02 -1.6039107E-31
  9.0000004E-02 -1.7991020E-31
  0.1000000     -1.9542871E-31
  0.1100000     -2.0546651E-31
  0.1200000     -2.0852181E-31
  0.1300000     -2.0314451E-31
  0.1400000     -1.8802381E-31
  0.1500000     -1.6209073E-31
  0.1600000     -1.2463233E-31
  0.1700000     -7.5425219E-32
  0.1800000     -1.4871060E-32
  0.1900000      5.5859121E-32
  0.2000000      1.3466584E-31
  0.2100000      2.1836573E-31
  0.2200000      3.0253345E-31
  0.2300000      3.8134664E-31
  0.2400000      4.4743646E-31
  0.2500000      4.9174686E-31
  0.2600000      5.0340517E-31
  0.2700000      4.6960670E-31
  0.2800000      3.7551527E-31
  0.2900000      2.0418177E-31
  0.3000000     -6.3518613E-32
  0.3100000     -4.4893051E-31
  0.3200000     -9.7564207E-31
  0.3300000     -1.6694896E-30
  0.3400000     -2.5585428E-30
  0.3500000     -3.6730745E-30
  0.3600000     -5.0455088E-30
  0.3700000     -6.7103560E-30
  0.3800000     -8.7041336E-30
  0.3900000     -1.1065263E-29
  0.4000000     -1.3833965E-29
  0.4100000     -1.7052115E-29
  0.4200000     -2.0763099E-29
  0.4300000     -2.5011635E-29
  0.4400000     -2.9843578E-29
  0.4500000     -3.5305684E-29
  0.4600000     -4.1445347E-29
  0.4700000     -4.8310307E-29
  0.4800000     -5.5948289E-29
  0.4900000     -6.4406648E-29
  0.5000000     -7.3731887E-29
  0.5100000     -8.3969228E-29
  0.5200000     -9.5162064E-29
  0.5300000     -1.0735140E-28
  0.5400000     -1.2057528E-28
  0.5500000     -1.3486818E-28
  0.5600000     -1.5026040E-28
  0.5700000     -1.6677746E-28
  0.5800000     -1.8443956E-28
  0.5900000     -2.0326111E-28
  0.6000000     -2.2325026E-28
  0.6100000     -2.4440872E-28
  0.6200000     -2.6673150E-28
  0.6300000     -2.9020697E-28
  0.6400000     -3.1481725E-28
  0.6500000     -3.4053845E-28
  0.6600000     -3.6734145E-28
  0.6700000     -3.9519283E-28
  0.6800000     -4.2405597E-28
  0.6900000     -4.5389258E-28
  0.7000000     -4.8466451E-28
  0.7100000     -5.1633517E-28
  0.7200000     -5.4887207E-28
  0.7300000     -5.8224878E-28
  0.7400000     -6.1644718E-28
  0.7500000     -6.5145996E-28
  0.7600000     -6.8729275E-28
  0.7700000     -7.2396641E-28
  0.7800000     -7.6151925E-28
  0.7900000     -8.0000872E-28
  0.8000000     -8.3951334E-28
  0.8100000     -8.8013400E-28
  0.8200000     -9.2199486E-28
  0.8300000     -9.6524441E-28
  0.8400000     -1.0100556E-27
  0.8500000     -1.0566261E-27
  0.8600000     -1.1051783E-27
  0.8700000     -1.1559585E-27
  0.8800000     -1.2092364E-27
  0.8900000     -1.2653044E-27
  0.9000000     -1.3244768E-27
  0.9100000     -1.3870886E-27
  0.9200000     -1.4534951E-27
  0.9300000     -1.5240712E-27
  0.9400000     -1.5992111E-27
  0.9500000     -1.6793283E-27
  0.9600000     -1.7648550E-27
  0.9700000     -1.8562434E-27
  0.9800000     -1.9539665E-27
  0.9900000     -2.0585183E-27
   1.000000     -2.1704152E-27
   1.010000     -2.2901969E-27
   1.020000     -2.4184274E-27
   1.030000     -2.5556971E-27
   1.040000     -2.7026217E-27
   1.050000     -2.8598436E-27
   1.060000     -3.0280314E-27
   1.070000     -3.2078786E-27
   1.080000     -3.4001003E-27
   1.090000     -3.6054333E-27
   1.100000     -3.8246303E-27
   1.110000     -4.0584575E-27
   1.120000     -4.3076867E-27
   1.130000     -4.5730921E-27
   1.140000     -4.8554431E-27
   1.150000     -5.1554953E-27
   1.160000     -5.4739871E-27
   1.170000     -5.8116334E-27
   1.180000     -6.1691184E-27
   1.190000     -6.5470895E-27
   1.200000     -6.9461537E-27
   1.210000     -7.3668746E-27
   1.220000     -7.8097769E-27
   1.230000     -8.2753335E-27
   1.240000     -8.7639766E-27
   1.250000     -9.2761052E-27
   1.260000     -9.8120831E-27
   1.270000     -1.0372244E-26
   1.280000     -1.0956904E-26
   1.290000     -1.1566366E-26
   1.300000     -1.2200929E-26
   1.310000     -1.2860892E-26
   1.320000     -1.3546568E-26
   1.330000     -1.4258286E-26
   1.340000     -1.4996397E-26
   1.350000     -1.5761268E-26
   1.360000     -1.6553292E-26
   1.370000     -1.7372882E-26
   1.380000     -1.8220451E-26
   1.390000     -1.9096424E-26
   1.400000     -2.0001208E-26
   1.410000     -2.0935187E-26
   1.420000     -2.1898703E-26
   1.430000     -2.2892033E-26
   1.440000     -2.3915381E-26
   1.450000     -2.4968857E-26
   1.460000     -2.6052449E-26
   1.470000     -2.7166012E-26
   1.480000     -2.8309257E-26
   1.490000     -2.9481750E-26
   1.500000     -3.0682902E-26
   1.510000     -3.1911929E-26
   1.520000     -3.3167900E-26
   1.530000     -3.4449734E-26
   1.540000     -3.5756196E-26
   1.550000     -3.7085920E-26
   1.560000     -3.8437408E-26
   1.570000     -3.9809061E-26
   1.580000     -4.1199161E-26
   1.590000     -4.2605918E-26
   1.600000     -4.4027473E-26
   1.610000     -4.5461878E-26
   1.620000     -4.6907124E-26
   1.630000     -4.8361102E-26
   1.640000     -4.9821607E-26
   1.650000     -5.1286328E-26
   1.660000     -5.2752787E-26
   1.670000     -5.4218305E-26
   1.680000     -5.5679966E-26
   1.690000     -5.7134595E-26
   1.700000     -5.8578641E-26
   1.710000     -6.0008162E-26
   1.720000     -6.1418793E-26
   1.730000     -6.2805623E-26
   1.740000     -6.4163210E-26
   1.750000     -6.5485562E-26
   1.760000     -6.6766056E-26
   1.770000     -6.7997425E-26
   1.780000     -6.9171854E-26
   1.790000     -7.0280888E-26
   1.800000     -7.1315534E-26
   1.810000     -7.2266259E-26
   1.820000     -7.3123067E-26
   1.830000     -7.3875579E-26
   1.840000     -7.4513071E-26
   1.850000     -7.5024623E-26
   1.860000     -7.5399196E-26
   1.870000     -7.5625673E-26
   1.880000     -7.5692923E-26
   1.890000     -7.5589952E-26
   1.900000     -7.5305901E-26
   1.910000     -7.4830107E-26
   1.920000     -7.4152130E-26
   1.930000     -7.3261796E-26
   1.940000     -7.2149144E-26
   1.950000     -7.0804383E-26
   1.960000     -6.9217953E-26
   1.970000     -6.7380394E-26
   1.980000     -6.5282289E-26
   1.990000     -6.2914295E-26
   2.000000     -6.0267032E-26
   2.010000     -5.7331046E-26
   2.020000     -5.4096802E-26
   2.030000     -5.0554740E-26
   2.040000     -4.6695247E-26
   2.050000     -4.2508722E-26
   2.060000     -3.7985736E-26
   2.070000     -3.3117093E-26
   2.080000     -2.7894038E-26
   2.090000     -2.2308436E-26
   2.100000     -1.6352963E-26
   2.110000     -1.0021421E-26
   2.120000     -3.3089865E-27
   2.130000      3.7875816E-27
   2.140000      1.1269650E-26
   2.150000      1.9136444E-26
   2.160000      2.7384924E-26
   2.170000      3.6009547E-26
   2.180000      4.5002046E-26
   2.190000      5.4351438E-26
   2.200000      6.4043956E-26
   2.210000      7.4063038E-26
   2.220000      8.4389381E-26
   2.230000      9.5001040E-26
   2.240000      1.0587356E-25
   2.250000      1.1698015E-25
   2.260000      1.2829189E-25
   2.270000      1.3977793E-25
   2.280000      1.5140561E-25
   2.290000      1.6314066E-25
   2.300000      1.7494754E-25
   2.310000      1.8678918E-25
   2.320000      1.9862724E-25
   2.330000      2.1042202E-25
   2.340000      2.2213233E-25
   2.350000      2.3371552E-25
   2.360000      2.4512696E-25
   2.370000      2.5632001E-25
   2.380000      2.6724552E-25
   2.390000      2.7785180E-25
   2.400000      2.8808392E-25
   2.410000      2.9788362E-25
   2.420000      3.0718894E-25
   2.430000      3.1593396E-25
   2.440000      3.2404873E-25
   2.450000      3.3145916E-25
   2.460000      3.3808702E-25
   2.470000      3.4385047E-25
   2.480000      3.4866395E-25
   2.490000      3.5243877E-25
   2.500000      3.5508360E-25
   2.510000      3.5650540E-25
   2.520000      3.5660987E-25
   2.530000      3.5530258E-25
   2.540000      3.5248948E-25
   2.550000      3.4807814E-25
   2.560000      3.4197862E-25
   2.570000      3.3410382E-25
   2.580000      3.2437053E-25
   2.590000      3.1270005E-25
   2.600000      2.9901861E-25
   2.610000      2.8325767E-25
   2.620000      2.6535420E-25
   2.630000      2.4525077E-25
   2.640000      2.2289519E-25
   2.650000      1.9824041E-25
   2.660000      1.7124408E-25
   2.670000      1.4186826E-25
   2.680000      1.1007933E-25
   2.690000      7.5847102E-26
   2.700000      3.9145426E-26
   2.710000     -4.9017999E-29
   2.720000     -4.1756898E-26
   2.730000     -8.5994689E-26
   2.740000     -1.3277525E-25
   2.750000     -1.8210694E-25
   2.760000     -2.3399310E-25
   2.770000     -2.8843193E-25
   2.780000     -3.4541379E-25
   2.790000     -4.0492016E-25
   2.800000     -4.6692292E-25
   2.810000     -5.3138297E-25
   2.820000     -5.9824859E-25
   2.830000     -6.6745408E-25
   2.840000     -7.3891797E-25
   2.850000     -8.1254325E-25
   2.860000     -8.8821675E-25
   2.870000     -9.6580842E-25
   2.880000     -1.0451718E-24
   2.890000     -1.1261445E-24
   2.900000     -1.2085493E-24
   2.910000     -1.2921952E-24
   2.920000     -1.3768796E-24
   2.930000     -1.4623901E-24
   2.940000     -1.5485072E-24
   2.950000     -1.6350071E-24
   2.960000     -1.7216631E-24
   2.970000     -1.8082489E-24
   2.980000     -1.8945416E-24
   2.990000     -1.9803231E-24
   3.000000     -2.0653830E-24
   3.010000     -2.1495207E-24
   3.020000     -2.2325456E-24
   3.030000     -2.3142789E-24
   3.040000     -2.3945549E-24
   3.050000     -2.4732201E-24
   3.060000     -2.5501339E-24
   3.070000     -2.6251682E-24
   3.080000     -2.6982074E-24
   3.090000     -2.7691489E-24
   3.100000     -2.8379011E-24
   3.110000     -2.9043839E-24
   3.120000     -2.9685305E-24
   3.130000     -3.0302865E-24
   3.140000     -3.0896114E-24
   3.150000     -3.1464806E-24
   3.160000     -3.2008879E-24
   3.170000     -3.2528494E-24
   3.180000     -3.3024054E-24
   3.190000     -3.3496265E-24
   3.200000     -3.3946156E-24
   3.210000     -3.4375135E-24
   3.220000     -3.4785054E-24
   3.230000     -3.5178234E-24
   3.240000     -3.5557531E-24
   3.250000     -3.5926347E-24
   3.260000     -3.6288690E-24
   3.270000     -3.6649192E-24
   3.280000     -3.7013109E-24
   3.290000     -3.7386315E-24
   3.300000     -3.7775322E-24
   3.310000     -3.8187254E-24
   3.320000     -3.8629781E-24
   3.330000     -3.9111097E-24
   3.340000     -3.9639854E-24
   3.350000     -4.0225098E-24
   3.360000     -4.0876173E-24
   3.370000     -4.1602647E-24
   3.380000     -4.2414246E-24
   3.390000     -4.3320730E-24
   3.400000     -4.4331821E-24
   3.410000     -4.5457112E-24
   3.420000     -4.6705938E-24
   3.430000     -4.8087375E-24
   3.440000     -4.9610094E-24
   3.450000     -5.1282289E-24
   3.460000     -5.3111599E-24
   3.470000     -5.5105007E-24
   3.480000     -5.7268840E-24
   3.490000     -5.9608610E-24
   3.500000     -6.2128961E-24
   3.510000     -6.4833531E-24
   3.520000     -6.7724845E-24
   3.530000     -7.0804218E-24
   3.540000     -7.4071554E-24
   3.550000     -7.7525219E-24
   3.560000     -8.1161796E-24
   3.570000     -8.4975868E-24
   3.580000     -8.8959758E-24
   3.590000     -9.3103297E-24
   3.600000     -9.7393493E-24
   3.610000     -1.0181424E-23
   3.620000     -1.0634594E-23
   3.630000     -1.1096511E-23
   3.640000     -1.1564411E-23
   3.650000     -1.2035069E-23
   3.660000     -1.2504765E-23
   3.670000     -1.2969250E-23
   3.680000     -1.3423702E-23
   3.690000     -1.3862695E-23
   3.700000     -1.4280168E-23
   3.710000     -1.4669392E-23
   3.720000     -1.5022938E-23
   3.730000     -1.5332643E-23
   3.740000     -1.5589599E-23
   3.750000     -1.5784116E-23
   3.760000     -1.5905705E-23
   3.770000     -1.5943057E-23
   3.780000     -1.5884024E-23
   3.790000     -1.5715600E-23
   3.800000     -1.5423903E-23
   3.810000     -1.4994163E-23
   3.820000     -1.4410704E-23
   3.830000     -1.3656905E-23
   3.840000     -1.2715217E-23
   3.850000     -1.1567138E-23
   3.860000     -1.0193193E-23
   3.870000     -8.5729206E-24
   3.880000     -6.6848657E-24
   3.890000     -4.5065616E-24
   3.900000     -2.0145380E-24
   3.910000      8.1567621E-25
   3.920000      4.0095516E-24
   3.930000      7.5935609E-24
   3.940000      1.1595132E-23
   3.950000      1.6042635E-23
   3.960000      2.0965328E-23
   3.970000      2.6393304E-23
   3.980000      3.2357434E-23
   3.990000      3.8889281E-23
   4.000000      4.6021022E-23
   4.010000      5.3785306E-23
   4.020000      6.2215200E-23
   4.030000      7.1343993E-23
   4.040000      8.1205058E-23
   4.050000      9.1831733E-23
   4.060000      1.0325710E-22
   4.070000      1.1551379E-22
   4.080000      1.2863379E-22
   4.090000      1.4264827E-22
   4.100000      1.5758734E-22
   4.110000      1.7347974E-22
   4.120000      1.9035267E-22
   4.130000      2.0823142E-22
   4.140000      2.2713921E-22
   4.150000      2.4709688E-22
   4.160000      2.6812244E-22
   4.170000      2.9023084E-22
   4.180000      3.1343367E-22
   4.190000      3.3773864E-22
   4.200000      3.6314933E-22
   4.210000      3.8966477E-22
   4.220000      4.1727887E-22
   4.230000      4.4598015E-22
   4.240000      4.7575113E-22
   4.250000      5.0656780E-22
   4.260000      5.3839936E-22
   4.270000      5.7120729E-22
   4.280000      6.0494499E-22
   4.290000      6.3955713E-22
   4.300000      6.7497908E-22
   4.310000      7.1113632E-22
   4.320000      7.4794359E-22
   4.330000      7.8530444E-22
   4.340000      8.2311034E-22
   4.350000      8.6124022E-22
   4.360000      8.9955982E-22
   4.370000      9.3792053E-22
   4.380000      9.7615956E-22
   4.390000      1.0140982E-21
   4.400000      1.0515418E-21
   4.410000      1.0882796E-21
   4.420000      1.1240826E-21
   4.430000      1.1587044E-21
   4.440000      1.1918798E-21
   4.450000      1.2233243E-21
   4.460000      1.2527337E-21
   4.470000      1.2797836E-21
   4.480000      1.3041289E-21
   4.490000      1.3254029E-21
   4.500000      1.3432177E-21
   4.510000      1.3571628E-21
   4.520000      1.3668056E-21
   4.530000      1.3716906E-21
   4.540000      1.3713396E-21
   4.550000      1.3652511E-21
   4.560000      1.3529004E-21
   4.570000      1.3337401E-21
   4.580000      1.3071991E-21
   4.590000      1.2726838E-21
   4.600000      1.2295778E-21
   4.610000      1.1772428E-21
   4.620000      1.1150190E-21
   4.630000      1.0422253E-21
   4.640000      9.5816111E-22
   4.650000      8.6210668E-22
   4.660000      7.5332430E-22
   4.670000      6.3105985E-22
   4.680000      4.9454450E-22
   4.690000      3.4299601E-22
   4.700000      1.7562158E-22
   4.710000     -8.3810641E-24
   4.720000     -2.0982095E-22
   4.730000     -4.2951076E-22
   4.740000     -6.6826394E-22
   4.750000     -9.2689203E-22
   4.760000     -1.2062010E-21
   4.770000     -1.5069878E-21
   4.780000     -1.8300359E-21
   4.790000     -2.1761117E-21
   4.800000     -2.5459591E-21
   4.810000     -2.9402963E-21
   4.820000     -3.3598089E-21
   4.830000     -3.8051467E-21
   4.840000     -4.2769160E-21
   4.850000     -4.7756748E-21
   4.860000     -5.3019256E-21
   4.870000     -5.8561108E-21
   4.880000     -6.4386030E-21
   4.890000     -7.0497001E-21
   4.900000     -7.6896156E-21
   4.910000     -8.3584719E-21
   4.920000     -9.0562948E-21
   4.930000     -9.7829989E-21
   4.940000     -1.0538383E-20
   4.950000     -1.1322120E-20
   4.960000     -1.2133751E-20
   4.970000     -1.2972666E-20
   4.980000     -1.3838106E-20
   4.990000     -1.4729145E-20
   5.000000     -1.5644680E-20
   5.010000     -1.6583424E-20
   5.020000     -1.7543888E-20
   5.030000     -1.8524385E-20
   5.040000     -1.9523005E-20
   5.050000     -2.0537604E-20
   5.060000     -2.1565801E-20
   5.070000     -2.2604961E-20
   5.080000     -2.3652189E-20
   5.090000     -2.4704313E-20
   5.100000     -2.5757879E-20
   5.110000     -2.6809134E-20
   5.120000     -2.7854018E-20
   5.130000     -2.8888162E-20
   5.140000     -2.9906864E-20
   5.150000     -3.0905090E-20
   5.160000     -3.1877460E-20
   5.170000     -3.2818239E-20
   5.180000     -3.3721339E-20
   5.190000     -3.4580298E-20
   5.200000     -3.5388286E-20
   5.210000     -3.6138090E-20
   5.220000     -3.6822107E-20
   5.230000     -3.7432359E-20
   5.240000     -3.7960472E-20
   5.250000     -3.8397685E-20
   5.260000     -3.8734842E-20
   5.270000     -3.8962401E-20
   5.280000     -3.9070435E-20
   5.290000     -3.9048631E-20
   5.300000     -3.8886297E-20
   5.310000     -3.8572388E-20
   5.320000     -3.8095490E-20
   5.330000     -3.7443846E-20
   5.340000     -3.6605369E-20
   5.350000     -3.5567671E-20
   5.360000     -3.4318063E-20
   5.370000     -3.2843571E-20
   5.380000     -3.1130984E-20
   5.390000     -2.9166876E-20
   5.400000     -2.6937615E-20
   5.410000     -2.4429421E-20
   5.420000     -2.1628396E-20
   5.430000     -1.8520555E-20
   5.440000     -1.5091867E-20
   5.450000     -1.1328320E-20
   5.460000     -7.2159561E-21
   5.470000     -2.7409134E-21
   5.480000      2.1105039E-21
   5.490000      7.3517575E-21
   5.500000      1.2996012E-20
   5.510000      1.9056076E-20
   5.520000      2.5544342E-20
   5.530000      3.2472700E-20
   5.540000      3.9852437E-20
   5.550000      4.7694178E-20
   5.560000      5.6007792E-20
   5.570000      6.4802299E-20
   5.580000      7.4085779E-20
   5.590000      8.3865244E-20
   5.600000      9.4146576E-20
   5.610000      1.0493439E-19
   5.620000      1.1623196E-19
   5.630000      1.2804107E-19
   5.640000      1.4036187E-19
   5.650000      1.5319284E-19
   5.660000      1.6653059E-19
   5.670000      1.8036972E-19
   5.680000      1.9470277E-19
   5.690000      2.0952002E-19
   5.700000      2.2480941E-19
   5.710000      2.4055630E-19
   5.720000      2.5674347E-19
   5.730000      2.7335088E-19
   5.740000      2.9035557E-19
   5.750000      3.0773148E-19
   5.760000      3.2544933E-19
   5.770000      3.4347654E-19
   5.780000      3.6177698E-19
   5.790000      3.8031092E-19
   5.800000      3.9903480E-19
   5.810000      4.1790124E-19
   5.820000      4.3685864E-19
   5.830000      4.5585143E-19
   5.840000      4.7481971E-19
   5.850000      4.9369918E-19
   5.860000      5.1242092E-19
   5.870000      5.3091145E-19
   5.880000      5.4909268E-19
   5.890000      5.6688156E-19
   5.900000      5.8419021E-19
   5.910000      6.0092583E-19
   5.920000      6.1699066E-19
   5.930000      6.3228176E-19
   5.940000      6.4669120E-19
   5.950000      6.6010595E-19
   5.960000      6.7240783E-19
   5.970000      6.8347370E-19
   5.980000      6.9317529E-19
   5.990000      7.0137937E-19
   6.000000      7.0794790E-19
   6.010000      7.1273795E-19
   6.020000      7.1560191E-19
   6.030000      7.1638752E-19
   6.040000      7.1493836E-19
   6.050000      7.1109347E-19
   6.060000      7.0468819E-19
   6.070000      6.9555410E-19
   6.080000      6.8351924E-19
   6.090000      6.6840862E-19
   6.100000      6.5004443E-19
   6.110000      6.2824642E-19
   6.120000      6.0283243E-19
   6.130000      5.7361853E-19
   6.140000      5.4041974E-19
   6.150000      5.0305056E-19
   6.160000      4.6132576E-19
   6.170000      4.1506044E-19
   6.180000      3.6407080E-19
   6.190000      3.0817503E-19
   6.200000      2.4719398E-19
   6.210000      1.8095199E-19
   6.220000      1.0927720E-19
   6.230000      3.2002933E-20
   6.240000     -5.1031648E-20
   6.250000     -1.3998063E-19
   6.260000     -2.3499041E-19
   6.270000     -3.3619849E-19
   6.280000     -4.4373261E-19
   6.290000     -5.5770962E-19
   6.300000     -6.7823423E-19
   6.310000     -8.0539805E-19
   6.320000     -9.3927827E-19
   6.330000     -1.0799363E-18
   6.340000     -1.2274167E-18
   6.350000     -1.3817459E-18
   6.360000     -1.5429306E-18
   6.370000     -1.7109565E-18
   6.380000     -1.8857869E-18
   6.390000     -2.0673615E-18
   6.400000     -2.2555946E-18
   6.410000     -2.4503741E-18
   6.420000     -2.6515593E-18
   6.430000     -2.8589804E-18
   6.440000     -3.0724354E-18
   6.450000     -3.2916904E-18
   6.460000     -3.5164771E-18
   6.470000     -3.7464912E-18
   6.480000     -3.9813923E-18
   6.490000     -4.2207999E-18
   6.500000     -4.4642946E-18
   6.510000     -4.7114140E-18
   6.520000     -4.9616547E-18
   6.530000     -5.2144676E-18
   6.540000     -5.4692587E-18
   6.550000     -5.7253869E-18
   6.560000     -5.9821627E-18
   6.570000     -6.2388485E-18
   6.580000     -6.4946570E-18
   6.590000     -6.7487482E-18
   6.600000     -7.0002318E-18
   6.610000     -7.2481627E-18
   6.620000     -7.4915449E-18
   6.630000     -7.7293270E-18
   6.640000     -7.9604049E-18
   6.650000     -8.1836187E-18
   6.660000     -8.3977543E-18
   6.670000     -8.6015435E-18
   6.680000     -8.7936653E-18
   6.690000     -8.9727424E-18
   6.700000     -9.1373472E-18
   6.710000     -9.2859974E-18
   6.720000     -9.4171618E-18
   6.730000     -9.5292571E-18
   6.740000     -9.6206548E-18
   6.750000     -9.6896781E-18
   6.760000     -9.7346056E-18
   6.770000     -9.7536729E-18
   6.780000     -9.7450768E-18
   6.790000     -9.7069786E-18
   6.800000     -9.6375053E-18
   6.810000     -9.5347529E-18
   6.820000     -9.3967924E-18
   6.830000     -9.2216733E-18
   6.840000     -9.0074253E-18
   6.850000     -8.7520664E-18
   6.860000     -8.4536064E-18
   6.870000     -8.1100559E-18
   6.880000     -7.7194248E-18
   6.890000     -7.2797362E-18
   6.900000     -6.7890286E-18
   6.910000     -6.2453650E-18
   6.920000     -5.6468353E-18
   6.930000     -4.9915722E-18
   6.940000     -4.2777525E-18
   6.950000     -3.5036095E-18
   6.960000     -2.6674412E-18
   6.970000     -1.7676182E-18
   6.980000     -8.0259251E-19
   6.990000      2.2908904E-19
   7.000000      1.3287750E-18
   7.010000      2.4977025E-18
   7.020000      3.7369832E-18
   7.030000      5.0475926E-18
   7.040000      6.4303557E-18
   7.050000      7.8859429E-18
   7.060000      9.4148523E-18