  -2.600000      0.0000000E+00
  -2.590000      0.0000000E+00
  -2.580000      0.0000000E+00
  -2.570000      0.0000000E+00
  -2.560000      0.0000000E+00
  -2.550000      0.0000000E+00
  -2.540000      0.0000000E+00
  -2.530000      0.0000000E+00
  -2.520000      0.0000000E+00
  -2.510000      0.0000000E+00
  -2.500000      0.0000000E+00
  -2.490000      0.0000000E+00
  -2.480000      0.0000000E+00
  -2.470000      0.0000000E+00
  -2.460000      0.0000000E+00
  -2.450000      0.0000000E+00
  -2.440000      0.0000000E+00
  -2.430000      0.0000000E+00
  -2.420000      0.0000000E+00
  -2.410000      0.0000000E+00
  -2.400000      0.0000000E+00
  -2.390000      0.0000000E+00
  -2.380000      0.0000000E+00
  -2.370000      0.0000000E+00
  -2.360000      0.0000000E+00
  -2.350000      0.0000000E+00
  -2.340000      0.0000000E+00
  -2.330000      0.0000000E+00
  -2.320000      0.0000000E+00
  -2.310000      0.0000000E+00
  -2.300000      0.0000000E+00
  -2.290000      0.0000000E+00
  -2.280000      0.0000000E+00
  -2.270000      0.0000000E+00
  -2.260000      0.0000000E+00
  -2.250000      0.0000000E+00
  -2.240000      0.0000000E+00
  -2.230000      0.0000000E+00
  -2.220000      0.0000000E+00
  -2.210000      0.0000000E+00
  -2.200000      0.0000000E+00
  -2.190000      0.0000000E+00
  -2.180000      0.0000000E+00
  -2.170000      0.0000000E+00
  -2.160000      0.0000000E+00
  -2.150000      0.0000000E+00
  -2.140000      0.0000000E+00
  -2.130000      0.0000000E+00
  -2.120000      0.0000000E+00
  -2.110000      0.0000000E+00
  -2.100000      0.0000000E+00
  -2.090000      0.0000000E+00
  -2.080000      0.0000000E+00
  -2.070000      0.0000000E+00
  -2.060000      0.0000000E+00
  -2.050000      0.0000000E+00
  -2.040000      0.0000000E+00
  -2.030000      0.0000000E+00
  -2.020000      0.0000000E+00
  -2.010000      0.0000000E+00
  -2.000000      0.0000000E+00
  -1.990000      0.0000000E+00
  -1.980000      0.0000000E+00
  -1.970000      0.0000000E+00
  -1.960000      0.0000000E+00
  -1.950000      0.0000000E+00
  -1.940000      0.0000000E+00
  -1.930000      0.0000000E+00
  -1.920000      0.0000000E+00
  -1.910000      0.0000000E+00
  -1.900000      0.0000000E+00
  -1.890000      0.0000000E+00
  -1.880000      0.0000000E+00
  -1.870000      0.0000000E+00
  -1.860000      0.0000000E+00
  -1.850000      0.0000000E+00
  -1.840000      0.0000000E+00
  -1.830000      0.0000000E+00
  -1.820000      0.0000000E+00
  -1.810000      0.0000000E+00
  -1.800000      0.0000000E+00
  -1.790000      0.0000000E+00
  -1.780000      0.0000000E+00
  -1.770000      0.0000000E+00
  -1.760000      0.0000000E+00
  -1.750000      0.0000000E+00
  -1.740000      0.0000000E+00
  -1.730000      0.0000000E+00
  -1.720000      0.0000000E+00
  -1.710000      0.0000000E+00
  -1.700000      0.0000000E+00
  -1.690000      0.0000000E+00
  -1.680000      0.0000000E+00
  -1.670000      0.0000000E+00
  -1.660000      0.0000000E+00
  -1.650000      0.0000000E+00
  -1.640000      0.0000000E+00
  -1.630000      0.0000000E+00
  -1.620000      0.0000000E+00
  -1.610000      0.0000000E+00
  -1.600000      0.0000000E+00
  -1.590000      0.0000000E+00
  -1.580000      0.0000000E+00
  -1.570000      0.0000000E+00
  -1.560000      0.0000000E+00
  -1.550000      0.0000000E+00
  -1.540000      0.0000000E+00
  -1.530000      0.0000000E+00
  -1.520000      0.0000000E+00
  -1.510000      0.0000000E+00
  -1.500000      0.0000000E+00
  -1.490000      0.0000000E+00
  -1.480000      0.0000000E+00
  -1.470000      0.0000000E+00
  -1.460000      0.0000000E+00
  -1.450000      0.0000000E+00
  -1.440000      0.0000000E+00
  -1.430000      0.0000000E+00
  -1.420000      0.0000000E+00
  -1.410000      0.0000000E+00
  -1.400000      0.0000000E+00
  -1.390000      0.0000000E+00
  -1.380000      0.0000000E+00
  -1.370000      0.0000000E+00
  -1.360000      0.0000000E+00
  -1.350000      0.0000000E+00
  -1.340000      0.0000000E+00
  -1.330000      0.0000000E+00
  -1.320000      0.0000000E+00
  -1.310000      0.0000000E+00
  -1.300000      0.0000000E+00
  -1.290000      0.0000000E+00
  -1.280000      0.0000000E+00
  -1.270000      0.0000000E+00
  -1.260000      0.0000000E+00
  -1.250000      0.0000000E+00
  -1.240000      0.0000000E+00
  -1.230000      0.0000000E+00
  -1.220000      0.0000000E+00
  -1.210000      0.0000000E+00
  -1.200000      0.0000000E+00
  -1.190000      0.0000000E+00
  -1.180000      0.0000000E+00
  -1.170000      0.0000000E+00
  -1.160000      0.0000000E+00
  -1.150000      0.0000000E+00
  -1.140000      0.0000000E+00
  -1.130000      0.0000000E+00
  -1.120000      0.0000000E+00
  -1.110000      0.0000000E+00
  -1.100000      0.0000000E+00
  -1.090000      0.0000000E+00
  -1.080000      0.0000000E+00
  -1.070000      0.0000000E+00
  -1.060000      0.0000000E+00
  -1.050000      0.0000000E+00
  -1.040000      0.0000000E+00
  -1.030000      0.0000000E+00
  -1.020000      0.0000000E+00
  -1.010000      0.0000000E+00
  -1.000000      0.0000000E+00
 -0.9900000      0.0000000E+00
 -0.9800000      0.0000000E+00
 -0.9700000      0.0000000E+00
 -0.9600000      0.0000000E+00
 -0.9500000      0.0000000E+00
 -0.9400000      0.0000000E+00
 -0.9300000      0.0000000E+00
 -0.9200000      0.0000000E+00
 -0.9100000      0.0000000E+00
 -0.9000000      0.0000000E+00
 -0.8900000      0.0000000E+00
 -0.8800000      0.0000000E+00
 -0.8700000      0.0000000E+00
 -0.8600000      0.0000000E+00
 -0.8500000      0.0000000E+00
 -0.8400000      0.0000000E+00
 -0.8300000      0.0000000E+00
 -0.8200000      0.0000000E+00
 -0.8100000      0.0000000E+00
 -0.8000000      0.0000000E+00
 -0.7900000      0.0000000E+00
 -0.7800000      0.0000000E+00
 -0.7700000      0.0000000E+00
 -0.7600000      0.0000000E+00
 -0.7500000      0.0000000E+00
 -0.7400000      0.0000000E+00
 -0.7300000      0.0000000E+00
 -0.7200000      0.0000000E+00
 -0.7100000      0.0000000E+00
 -0.7000000      0.0000000E+00
 -0.6900000      0.0000000E+00
 -0.6800000      0.0000000E+00
 -0.6700000      0.0000000E+00
 -0.6600000      0.0000000E+00
 -0.6500000      0.0000000E+00
 -0.6400000      0.0000000E+00
 -0.6300000      0.0000000E+00
 -0.6200000      0.0000000E+00
 -0.6100000      0.0000000E+00
 -0.6000000      0.0000000E+00
 -0.5900000      0.0000000E+00
 -0.5800000      0.0000000E+00
 -0.5700000      0.0000000E+00
 -0.5600000      0.0000000E+00
 -0.5500000      0.0000000E+00
 -0.5400000      0.0000000E+00
 -0.5300000      0.0000000E+00
 -0.5200000      0.0000000E+00
 -0.5100000      0.0000000E+00
 -0.5000000      0.0000000E+00
 -0.4900000      0.0000000E+00
 -0.4800000      0.0000000E+00
 -0.4700000      0.0000000E+00
 -0.4600000      0.0000000E+00
 -0.4500000      0.0000000E+00
 -0.4400000      0.0000000E+00
 -0.4300000      0.0000000E+00
 -0.4200000      0.0000000E+00
 -0.4100000      0.0000000E+00
 -0.4000000      0.0000000E+00
 -0.3900000      0.0000000E+00
 -0.3800000      0.0000000E+00
 -0.3700000      0.0000000E+00
 -0.3600000      0.0000000E+00
 -0.3500000      0.0000000E+00
 -0.3400000      0.0000000E+00
 -0.3300000      0.0000000E+00
 -0.3200000      0.0000000E+00
 -0.3100000      0.0000000E+00
 -0.3000000      0.0000000E+00
 -0.2900000      0.0000000E+00
 -0.2800000      0.0000000E+00
 -0.2700000      0.0000000E+00
 -0.2600000      0.0000000E+00
 -0.2500000      0.0000000E+00
 -0.2400000      0.0000000E+00
 -0.2300000      0.0000000E+00
 -0.2200000      0.0000000E+00
 -0.2100000      0.0000000E+00
 -0.2000000      0.0000000E+00
 -0.1900000      0.0000000E+00
 -0.1800000      0.0000000E+00
 -0.1700000      0.0000000E+00
 -0.1600000      0.0000000E+00
 -0.1500000      0.0000000E+00
 -0.1400000      0.0000000E+00
 -0.1300000      0.0000000E+00
 -0.1200000      0.0000000E+00
 -0.1100000      0.0000000E+00
 -0.1000000      0.0000000E+00
 -9.0000004E-02  0.0000000E+00
 -7.9999998E-02  0.0000000E+00
 -7.0000000E-02  0.0000000E+00
 -5.9999999E-02  0.0000000E+00
 -5.0000001E-02  0.0000000E+00
 -3.9999999E-02  0.0000000E+00
 -2.9999999E-02  0.0000000E+00
 -2.0000000E-02  0.0000000E+00
 -9.9999998E-03  0.0000000E+00
 -3.4694470E-17  0.0000000E+00
  9.9999998E-03  0.0000000E+00
  2.0000000E-02  0.0000000E+00
  2.9999999E-02  0.0000000E+00
  3.9999999E-02  0.0000000E+00
  5.0000001E-02  0.0000000E+00
  5.9999999E-02  0.0000000E+00
  7.0000000E-02  0.0000000E+00
  7.9999998E-02  0.0000000E+00
  9.0000004E-02  0.0000000E+00
  0.1000000      0.0000000E+00
  0.1100000      0.0000000E+00
  0.1200000      0.0000000E+00
  0.1300000      0.0000000E+00
  0.1400000      0.0000000E+00
  0.1500000      0.0000000E+00
  0.1600000      0.0000000E+00
  0.1700000      0.0000000E+00
  0.1800000      0.0000000E+00
  0.1900000      0.0000000E+00
  0.2000000      0.0000000E+00
  0.2100000      0.0000000E+00
  0.2200000      0.0000000E+00
  0.2300000      0.0000000E+00
  0.2400000      0.0000000E+00
  0.2500000      0.0000000E+00
  0.2600000      0.0000000E+00
  0.2700000      0.0000000E+00
  0.2800000      0.0000000E+00
  0.2900000      0.0000000E+00
  0.3000000      0.0000000E+00
  0.3100000      0.0000000E+00
  0.3200000      0.0000000E+00
  0.3300000      0.0000000E+00
  0.3400000      0.0000000E+00
  0.3500000      0.0000000E+00
  0.3600000      0.0000000E+00
  0.3700000      0.0000000E+00
  0.3800000      0.0000000E+00
  0.3900000      0.0000000E+00
  0.4000000      0.0000000E+00
  0.4100000      0.0000000E+00
  0.4200000      0.0000000E+00
  0.4300000      0.0000000E+00
  0.4400000      0.0000000E+00
  0.4500000      0.0000000E+00
  0.4600000      0.0000000E+00
  0.4700000      0.0000000E+00
  0.4800000      0.0000000E+00
  0.4900000      0.0000000E+00
  0.5000000      0.0000000E+00
  0.5100000      0.0000000E+00
  0.5200000      0.0000000E+00
  0.5300000      0.0000000E+00
  0.5400000      0.0000000E+00
  0.5500000      0.0000000E+00
  0.5600000      0.0000000E+00
  0.5700000      0.0000000E+00
  0.5800000      0.0000000E+00
  0.5900000      0.0000000E+00
  0.6000000      0.0000000E+00
  0.6100000      0.0000000E+00
  0.6200000      0.0000000E+00
  0.6300000      0.0000000E+00
  0.6400000      0.0000000E+00
  0.6500000      0.0000000E+00
  0.6600000      0.0000000E+00
  0.6700000      0.0000000E+00
  0.6800000      0.0000000E+00
  0.6900000      0.0000000E+00
  0.7000000      0.0000000E+00
  0.7100000      0.0000000E+00
  0.7200000      0.0000000E+00
  0.7300000      0.0000000E+00
  0.7400000      0.0000000E+00
  0.7500000      0.0000000E+00
  0.7600000      0.0000000E+00
  0.7700000      0.0000000E+00
  0.7800000      0.0000000E+00
  0.7900000      0.0000000E+00
  0.8000000      0.0000000E+00
  0.8100000      0.0000000E+00
  0.8200000      0.0000000E+00
  0.8300000      0.0000000E+00
  0.8400000      0.0000000E+00
  0.8500000      0.0000000E+00
  0.8600000      0.0000000E+00
  0.8700000      0.0000000E+00
  0.8800000      0.0000000E+00
  0.8900000      0.0000000E+00
  0.9000000      0.0000000E+00
  0.9100000      0.0000000E+00
  0.9200000      0.0000000E+00
  0.9300000      0.0000000E+00
  0.9400000      0.0000000E+00
  0.9500000      0.0000000E+00
  0.9600000      0.0000000E+00
  0.9700000      0.0000000E+00
  0.9800000      0.0000000E+00
  0.9900000      0.0000000E+00
   1.000000      0.0000000E+00
   1.010000      0.0000000E+00
   1.020000      0.0000000E+00
   1.030000      0.0000000E+00
   1.040000      0.0000000E+00
   1.050000      0.0000000E+00
   1.060000      0.0000000E+00
   1.070000      0.0000000E+00
   1.080000      0.0000000E+00
   1.090000      0.0000000E+00
   1.100000      0.0000000E+00
   1.110000      0.0000000E+00
   1.120000      0.0000000E+00
   1.130000      0.0000000E+00
   1.140000      0.0000000E+00
   1.150000      0.0000000E+00
   1.160000      0.0000000E+00
   1.170000      0.0000000E+00
   1.180000      0.0000000E+00
   1.190000      0.0000000E+00
   1.200000      0.0000000E+00
   1.210000      0.0000000E+00
   1.220000      0.0000000E+00
   1.230000      0.0000000E+00
   1.240000      0.0000000E+00
   1.250000      0.0000000E+00
   1.260000      0.0000000E+00
   1.270000      0.0000000E+00
   1.280000      0.0000000E+00
   1.290000      0.0000000E+00
   1.300000      0.0000000E+00
   1.310000      0.0000000E+00
   1.320000      0.0000000E+00
   1.330000      0.0000000E+00
   1.340000      0.0000000E+00
   1.350000      0.0000000E+00
   1.360000      0.0000000E+00
   1.370000      0.0000000E+00
   1.380000      0.0000000E+00
   1.390000      0.0000000E+00
   1.400000      0.0000000E+00
   1.410000      0.0000000E+00
   1.420000      0.0000000E+00
   1.430000      0.0000000E+00
   1.440000      0.0000000E+00
   1.450000      0.0000000E+00
   1.460000      0.0000000E+00
   1.470000      0.0000000E+00
   1.480000      0.0000000E+00
   1.490000      0.0000000E+00
   1.500000      0.0000000E+00
   1.510000      0.0000000E+00
   1.520000      0.0000000E+00
   1.530000      0.0000000E+00
   1.540000      0.0000000E+00
   1.550000      0.0000000E+00
   1.560000      0.0000000E+00
   1.570000      0.0000000E+00
   1.580000      0.0000000E+00
   1.590000      0.0000000E+00
   1.600000      0.0000000E+00
   1.610000      0.0000000E+00
   1.620000      0.0000000E+00
   1.630000      0.0000000E+00
   1.640000      0.0000000E+00
   1.650000      0.0000000E+00
   1.660000      0.0000000E+00
   1.670000      0.0000000E+00
   1.680000      0.0000000E+00
   1.690000      0.0000000E+00
   1.700000      0.0000000E+00
   1.710000      0.0000000E+00
   1.720000      0.0000000E+00
   1.730000      0.0000000E+00
   1.740000      0.0000000E+00
   1.750000      0.0000000E+00
   1.760000      0.0000000E+00
   1.770000      0.0000000E+00
   1.780000      0.0000000E+00
   1.790000      0.0000000E+00
   1.800000      0.0000000E+00
   1.810000      0.0000000E+00
   1.820000      0.0000000E+00
   1.830000      0.0000000E+00
   1.840000      0.0000000E+00
   1.850000      0.0000000E+00
   1.860000      0.0000000E+00
   1.870000      0.0000000E+00
   1.880000      0.0000000E+00
   1.890000      0.0000000E+00
   1.900000      0.0000000E+00
   1.910000      0.0000000E+00
   1.920000      0.0000000E+00
   1.930000      0.0000000E+00
   1.940000      0.0000000E+00
   1.950000      0.0000000E+00
   1.960000      0.0000000E+00
   1.970000      0.0000000E+00
   1.980000      0.0000000E+00
   1.990000      0.0000000E+00
   2.000000      0.0000000E+00
   2.010000      0.0000000E+00
   2.020000      0.0000000E+00
   2.030000      0.0000000E+00
   2.040000      0.0000000E+00
   2.050000      0.0000000E+00
   2.060000      0.0000000E+00
   2.070000      0.0000000E+00
   2.080000      0.0000000E+00
   2.090000      0.0000000E+00
   2.100000      0.0000000E+00
   2.110000      0.0000000E+00
   2.120000      0.0000000E+00
   2.130000      0.0000000E+00
   2.140000      0.0000000E+00
   2.150000      0.0000000E+00
   2.160000      0.0000000E+00
   2.170000      0.0000000E+00
   2.180000      0.0000000E+00
   2.190000      0.0000000E+00
   2.200000      0.0000000E+00
   2.210000      0.0000000E+00
   2.220000      0.0000000E+00
   2.230000      0.0000000E+00
   2.240000     -1.7201499E-38
   2.250000     -2.4969356E-38
   2.260000     -3.4042786E-38
   2.270000     -4.4336307E-38
   2.280000     -5.5699265E-38
   2.290000     -6.7929300E-38
   2.300000     -8.0807193E-38
   2.310000     -9.4094008E-38
   2.320000     -1.0753433E-37
   2.330000     -1.2084178E-37
   2.340000     -1.3372662E-37
   2.350000     -1.4590294E-37
   2.360000     -1.5708402E-37
   2.370000     -1.6702798E-37
   2.380000     -1.7554732E-37
   2.390000     -1.8251154E-37
   2.400000     -1.8785088E-37
   2.410000     -1.9010907E-37
   2.420000     -1.9010907E-37
   2.430000     -1.9010907E-37
   2.440000     -1.9010907E-37
   2.450000     -1.9010907E-37
   2.460000     -1.9016291E-37
   2.470000     -1.9011197E-37
   2.480000     -1.8979408E-37
   2.490000     -1.8931654E-37
   2.500000     -1.8874744E-37
   2.510000     -1.8806545E-37
   2.520000     -1.8718120E-37
   2.530000     -1.8421817E-37
   2.540000     -1.7870371E-37
   2.550000     -1.7187171E-37
   2.560000     -1.6349059E-37
   2.570000     -1.5329395E-37
   2.580000     -1.4096454E-37
   2.590000     -1.2616486E-37
   2.600000     -1.0855947E-37
   2.610000     -8.7818097E-38
   2.620000     -6.3625245E-38
   2.630000     -3.5683368E-38
   2.640000      0.0000000E+00
   2.650000      3.2298803E-38
   2.660000      7.2026646E-38
   2.670000      1.1542736E-37
   2.680000      1.6298945E-37
   2.690000      2.1459222E-37
   2.700000      2.6998690E-37
   2.710000      3.2880078E-37
   2.720000      3.9054547E-37
   2.730000      4.5316997E-37
   2.740000      5.1583586E-37
   2.750000      5.8265770E-37
   2.760000      6.5221713E-37
   2.770000      7.1924408E-37
   2.780000      7.8246282E-37
   2.790000      8.4118785E-37
   2.800000      8.9627830E-37
   2.810000      9.5096589E-37
   2.820000      1.0033965E-36
   2.830000      1.0499398E-36
   2.840000      1.0905014E-36
   2.850000      1.1200539E-36
   2.860000      1.1368794E-36
   2.870000      1.1495130E-36
   2.880000      1.1605016E-36
   2.890000      1.1645257E-36
   2.900000      1.1419163E-36
   2.910000      1.0904011E-36
   2.920000      1.0251188E-36
   2.930000      1.1300656E-36
   2.940000      1.4326348E-36
   2.950000      1.7790091E-36
   2.960000      2.1823292E-36
   2.970000      2.7020333E-36
   2.980000      3.3389969E-36
   2.990000      4.2836861E-36
   3.000000      5.5475169E-36
   3.010000      6.9034708E-36
   3.020000      7.1869971E-36
   3.030000      6.1169479E-36
   3.040000      4.6757724E-36
   3.050000      3.1542433E-36
   3.060000      1.7296193E-36
   3.070000      4.6953521E-37
   3.080000     -4.8306919E-37
   3.090000     -1.0350917E-36
   3.100000     -2.5722306E-37
   3.110000      1.6302438E-36
   3.120000      3.5009765E-36
   3.130000      5.3380100E-36
   3.140000      6.1695711E-36
   3.150000      5.7796802E-36
   3.160000      4.9945854E-36
   3.170000      3.8152874E-36
   3.180000      9.3639597E-37
   3.190000     -3.4858315E-36
   3.200000     -7.8698895E-36
   3.210000     -1.0988245E-35
   3.220000     -1.2703418E-35
   3.230000     -1.2655185E-35
   3.240000     -1.1225787E-35
   3.250000     -9.8258736E-36
   3.260000     -8.5729203E-36
   3.270000     -7.7560658E-36
   3.280000     -7.4214166E-36
   3.290000     -7.5323732E-36
   3.300000     -7.9235157E-36
   3.310000     -9.8620733E-36
   3.320000     -1.3703473E-35
   3.330000     -1.8470162E-35
   3.340000     -2.3851931E-35
   3.350000     -2.8242314E-35
   3.360000     -2.9461734E-35
   3.370000     -2.7566160E-35
   3.380000     -2.3762297E-35
   3.390000     -1.8478885E-35
   3.400000     -1.1337241E-35
   3.410000     -3.2313733E-36
   3.420000      4.2566248E-36
   3.430000      1.0666436E-35
   3.440000      1.3462114E-35
   3.450000      1.2448571E-35
   3.460000      9.8904290E-36
   3.470000      6.3768179E-36
   3.480000      2.6293351E-36
   3.490000     -1.0551902E-36
   3.500000     -2.4432757E-36
   3.510000     -2.6127689E-38
   3.520000      4.3960027E-36
   3.530000      9.6375140E-36
   3.540000      1.5516095E-35
   3.550000      2.2480605E-35
   3.560000      2.8844292E-35
   3.570000      3.3647960E-35
   3.580000      3.7990677E-35
   3.590000      4.1128837E-35
   3.600000      4.2663270E-35
   3.610000      4.2773209E-35
   3.620000      4.1358575E-35
   3.630000      3.9271011E-35
   3.640000      3.7138998E-35
   3.650000      3.7785330E-35
   3.660000      4.0270847E-35
   3.670000      4.2562627E-35
   3.680000      4.6377775E-35
   3.690000      5.1270856E-35
   3.700000      5.6585859E-35
   3.710000      6.2151601E-35
   3.720000      6.7664239E-35
   3.730000      7.0765850E-35
   3.740000      7.1175173E-35
   3.750000      6.9412075E-35
   3.760000      6.4738394E-35
   3.770000      5.7274080E-35
   3.780000      4.7545644E-35
   3.790000      3.6576396E-35
   3.800000      2.4739975E-35
   3.810000      1.5721198E-35
   3.820000      1.1170786E-35
   3.830000      8.8831801E-36
   3.840000      8.7614199E-36
   3.850000      1.0070888E-35
   3.860000      1.2669662E-35
   3.870000      1.5371292E-35
   3.880000      1.7064695E-35
   3.890000      1.6911346E-35
   3.900000      1.3968691E-35
   3.910000      7.9758554E-36
   3.920000     -1.8209965E-36
   3.930000     -1.9414031E-35
   3.940000     -4.1126053E-35
   3.950000     -6.0053837E-35
   3.960000     -7.8172515E-35
   3.970000     -8.9209942E-35
   3.980000     -9.1882459E-35
   3.990000     -9.3571376E-35
   4.000000     -9.3205883E-35
   4.010000     -9.2088182E-35
   4.020000     -9.0950030E-35
   4.030000     -9.3349571E-35
   4.040000     -1.0138045E-34
   4.050000     -1.1223770E-34
   4.060000     -1.2388983E-34
   4.070000     -1.3873832E-34
   4.080000     -1.5808140E-34
   4.090000     -1.8208000E-34
   4.100000     -2.1417457E-34
   4.110000     -2.4825534E-34
   4.120000     -2.7416181E-34
   4.130000     -2.8545080E-34
   4.140000     -2.9280655E-34
   4.150000     -3.0769988E-34
   4.160000     -3.2600258E-34
   4.170000     -3.4465028E-34
   4.180000     -3.6465394E-34
   4.190000     -3.8755236E-34
   4.200000     -4.1193216E-34
   4.210000     -4.3508963E-34
   4.220000     -4.5730578E-34
   4.230000     -4.8068650E-34
   4.240000     -5.0636922E-34
   4.250000     -5.2526690E-34
   4.260000     -5.3459982E-34
   4.270000     -5.4157977E-34
   4.280000     -5.4947914E-34
   4.290000     -5.5873184E-34
   4.300000     -5.6733008E-34
   4.310000     -5.7506286E-34
   4.320000     -5.8152936E-34
   4.330000     -5.8392925E-34
   4.340000     -5.8245722E-34
   4.350000     -5.7575149E-34
   4.360000     -5.5807090E-34
   4.370000     -5.2970994E-34
   4.380000     -4.9393772E-34
   4.390000     -4.6006604E-34
   4.400000     -4.2814328E-34
   4.410000     -3.9305872E-34
   4.420000     -3.5293063E-34
   4.430000     -3.0219258E-34
   4.440000     -2.4052272E-34
   4.450000     -1.7760241E-34
   4.460000     -1.1695839E-34
   4.470000     -4.9363910E-35
   4.480000      2.0948624E-35
   4.490000      8.9881317E-35
   4.500000      1.6193990E-34
   4.510000      2.4203615E-34
   4.520000      3.3029022E-34
   4.530000      4.2178799E-34
   4.540000      5.2353111E-34
   4.550000      6.4050378E-34
   4.560000      7.6711058E-34
   4.570000      9.0324352E-34
   4.580000      1.0519751E-33
   4.590000      1.2158726E-33
   4.600000      1.3909809E-33
   4.610000      1.5719849E-33
   4.620000      1.7596032E-33
   4.630000      1.9508927E-33
   4.640000      2.1468951E-33
   4.650000      2.3453280E-33
   4.660000      2.5436113E-33
   4.670000      2.7438551E-33
   4.680000      2.9462701E-33
   4.690000      3.1523956E-33
   4.700000      3.3637935E-33
   4.710000      3.5848078E-33
   4.720000      3.8151066E-33
   4.730000      4.0493929E-33
   4.740000      4.2873265E-33
   4.750000      4.5309944E-33
   4.760000      4.7764666E-33
   4.770000      5.0222629E-33
   4.780000      5.2676264E-33
   4.790000      5.5077487E-33
   4.800000      5.7370138E-33
   4.810000      5.9534502E-33
   4.820000      6.1566660E-33
   4.830000      6.3450026E-33
   4.840000      6.5159312E-33
   4.850000      6.6690261E-33
   4.860000      6.8067037E-33
   4.870000      6.9293034E-33
   4.880000      7.0303129E-33
   4.890000      7.1112023E-33
   4.900000      7.1773297E-33
   4.910000      7.2223225E-33
   4.920000      7.2437503E-33
   4.930000      7.2426696E-33
   4.940000      7.2150521E-33
   4.950000      7.1566432E-33
   4.960000      7.0590243E-33
   4.970000      6.9149660E-33
   4.980000      6.7223737E-33
   4.990000      6.4775903E-33
   5.000000      6.1786040E-33
   5.010000      5.8193803E-33
   5.020000      5.3971975E-33
   5.030000      4.9133232E-33
   5.040000      4.3673083E-33
   5.050000      3.7587707E-33
   5.060000      3.0876324E-33
   5.070000      2.3545214E-33
   5.080000      1.5594442E-33
   5.090000      6.9850662E-34
   5.100000     -2.3235336E-34
   5.110000     -1.2352217E-33
   5.120000     -2.3147793E-33
   5.130000     -3.4755481E-33
   5.140000     -4.7248540E-33
   5.150000     -6.0685957E-33
   5.160000     -7.5088764E-33
   5.170000     -9.0488424E-33
   5.180000     -1.0689686E-32
   5.190000     -1.2431103E-32
   5.200000     -1.4272464E-32
   5.210000     -1.6210094E-32
   5.220000     -1.8240546E-32
   5.230000     -2.0361303E-32
   5.240000     -2.2567924E-32
   5.250000     -2.4856140E-32
   5.260000     -2.7223629E-32
   5.270000     -2.9666965E-32
   5.280000     -3.2184403E-32
   5.290000     -3.4776401E-32
   5.300000     -3.7441661E-32
   5.310000     -4.0178294E-32
   5.320000     -4.2985228E-32
   5.330000     -4.5855791E-32
   5.340000     -4.8784432E-32
   5.350000     -5.1768483E-32
   5.360000     -5.4797356E-32
   5.370000     -5.7858543E-32
   5.380000     -6.0939702E-32
   5.390000     -6.4025134E-32
   5.400000     -6.7097717E-32
   5.410000     -7.0141072E-32
   5.420000     -7.3138212E-32
   5.430000     -7.6072340E-32
   5.440000     -7.8926094E-32
   5.450000     -8.1683721E-32
   5.460000     -8.4331328E-32
   5.470000     -8.6852558E-32
   5.480000     -8.9230753E-32
   5.490000     -9.1449129E-32
   5.500000     -9.3489517E-32
   5.510000     -9.5330940E-32
   5.520000     -9.6948908E-32
   5.530000     -9.8319029E-32
   5.540000     -9.9414590E-32
   5.550000     -1.0020523E-31
   5.560000     -1.0065906E-31
   5.570000     -1.0074249E-31
   5.580000     -1.0042268E-31
   5.590000     -9.9666792E-32
   5.600000     -9.8440511E-32
   5.610000     -9.6711241E-32
   5.620000     -9.4447374E-32
   5.630000     -9.1618183E-32
   5.640000     -8.8193885E-32
   5.650000     -8.4144860E-32
   5.660000     -7.9441654E-32
   5.670000     -7.4054704E-32
   5.680000     -6.7953307E-32
   5.690000     -6.1104518E-32
   5.700000     -5.3477235E-32
   5.710000     -4.5038990E-32
   5.720000     -3.5753774E-32
   5.730000     -2.5586759E-32
   5.740000     -1.4503434E-32
   5.750000     -2.4706638E-33
   5.760000      1.0542698E-32
   5.770000      2.4564958E-32
   5.780000      3.9620828E-32
   5.790000      5.5731092E-32
   5.800000      7.2912447E-32
   5.810000      9.1177572E-32
   5.820000      1.1053487E-31
   5.830000      1.3098917E-31
   5.840000      1.5254210E-31
   5.850000      1.7519229E-31
   5.860000      1.9893561E-31
   5.870000      2.2376541E-31
   5.880000      2.4967199E-31
   5.890000      2.7664246E-31
   5.900000      3.0466016E-31
   5.910000      3.3370362E-31
   5.920000      3.6374558E-31
   5.930000      3.9475221E-31
   5.940000      4.2668235E-31
   5.950000      4.5948668E-31
   5.960000      4.9310643E-31
   5.970000      5.2747366E-31
   5.980000      5.6251091E-31
   5.990000      5.9813149E-31
   6.000000      6.3423967E-31
   6.010000      6.7073134E-31
   6.020000      7.0749422E-31
   6.030000      7.4440827E-31
   6.040000      7.8134588E-31
   6.050000      8.1817200E-31
   6.060000      8.5474407E-31
   6.070000      8.9091074E-31
   6.080000      9.2651261E-31
   6.090000      9.6138050E-31
   6.100000      9.9533451E-31
   6.110000      1.0281844E-30
   6.120000      1.0597281E-30
   6.130000      1.0897519E-30
   6.140000      1.1180299E-30
   6.150000      1.1443245E-30
   6.160000      1.1683868E-30
   6.170000      1.1899580E-30
   6.180000      1.2087698E-30
   6.190000      1.2245456E-30
   6.200000      1.2370020E-30
   6.210000      1.2458487E-30
   6.220000      1.2507903E-30
   6.230000      1.2515265E-30
   6.240000      1.2477527E-30
   6.250000      1.2391603E-30
   6.260000      1.2254360E-30
   6.270000      1.2062624E-30
   6.280000      1.1813184E-30
   6.290000      1.1502792E-30
   6.300000      1.1128167E-30
   6.310000      1.0686008E-30
   6.320000      1.0173003E-30
   6.330000      9.5858480E-31
   6.340000      8.9212658E-31
   6.350000      8.1760184E-31
   6.360000      7.3469441E-31
   6.370000      6.4309697E-31
   6.380000      5.4251378E-31
   6.390000      4.3266289E-31
   6.400000      3.1327778E-31
   6.410000      1.8410882E-31
   6.420000      4.4925114E-32
   6.430000     -1.0448384E-31
   6.440000     -2.6430734E-31
   6.450000     -4.3471258E-31
   6.460000     -6.1584215E-31
   6.470000     -8.0781335E-31
   6.480000     -1.0107165E-30
   6.490000     -1.2246112E-30
   6.500000     -1.4495247E-30
   6.510000     -1.6854492E-30
   6.520000     -1.9323372E-30
   6.530000     -2.1901006E-30
   6.540000     -2.4586064E-30
   6.550000     -2.7376735E-30
   6.560000     -3.0270697E-30
   6.570000     -3.3265098E-30
   6.580000     -3.6356528E-30
   6.590000     -3.9540989E-30
   6.600000     -4.2813904E-30
   6.610000     -4.6170070E-30
   6.620000     -4.9603665E-30
   6.630000     -5.3108237E-30
   6.640000     -5.6676673E-30
   6.650000     -6.0301201E-30
   6.660000     -6.3973359E-30
   6.670000     -6.7683964E-30
   6.680000     -7.1423127E-30
   6.690000     -7.5180195E-30
   6.700000     -7.8943763E-30
   6.710000     -8.2701636E-30
   6.720000     -8.6440814E-30
   6.730000     -9.0147484E-30
   6.740000     -9.3807000E-30
   6.750000     -9.7403907E-30
   6.760000     -1.0092192E-29
   6.770000     -1.0434393E-29
   6.780000     -1.0765203E-29
   6.790000     -1.1082753E-29
   6.800000     -1.1385098E-29
   6.810000     -1.1670214E-29
   6.820000     -1.1936009E-29
   6.830000     -1.2180318E-29
   6.840000     -1.2400910E-29
   6.850000     -1.2595489E-29
   6.860000     -1.2761695E-29
   6.870000     -1.2897110E-29
   6.880000     -1.2999261E-29
   6.890000     -1.3065622E-29
   6.900000     -1.3093614E-29
   6.910000     -1.3080620E-29
   6.920000     -1.3023985E-29
   6.930000     -1.2921023E-29
   6.940000     -1.2769031E-29
   6.950000     -1.2565283E-29
   6.960000     -1.2307053E-29
   6.970000     -1.1991610E-29
   6.980000     -1.1616244E-29
   6.990000     -1.1178264E-29
   7.000000     -1.0675009E-29
   7.010000     -1.0103864E-29
   7.020000     -9.4622676E-30
   7.030000     -8.7477235E-30
   7.040000     -7.9578079E-30
   7.050000     -7.0901839E-30
   7.060000     -6.1426211E-30