  -2.600000      0.0000000E+00
  -2.590000      0.0000000E+00
  -2.580000      0.0000000E+00
  -2.570000      0.0000000E+00
  -2.560000      0.0000000E+00
  -2.550000      0.0000000E+00
  -2.540000      0.0000000E+00
  -2.530000      0.0000000E+00
  -2.520000      0.0000000E+00
  -2.510000      0.0000000E+00
  -2.500000      0.0000000E+00
  -2.490000      0.0000000E+00
  -2.480000      0.0000000E+00
  -2.470000      0.0000000E+00
  -2.460000      0.0000000E+00
  -2.450000      0.0000000E+00
  -2.440000      0.0000000E+00
  -2.430000      0.0000000E+00
  -2.420000      0.0000000E+00
  -2.410000      0.0000000E+00
  -2.400000      0.0000000E+00
  -2.390000      0.0000000E+00
  -2.380000      0.0000000E+00
  -2.370000      0.0000000E+00
  -2.360000      0.0000000E+00
  -2.350000      0.0000000E+00
  -2.340000      0.0000000E+00
  -2.330000      0.0000000E+00
  -2.320000      0.0000000E+00
  -2.310000      0.0000000E+00
  -2.300000      0.0000000E+00
  -2.290000      0.0000000E+00
  -2.280000      0.0000000E+00
  -2.270000      0.0000000E+00
  -2.260000      0.0000000E+00
  -2.250000      0.0000000E+00
  -2.240000      0.0000000E+00
  -2.230000      0.0000000E+00
  -2.220000      0.0000000E+00
  -2.210000      0.0000000E+00
  -2.200000      0.0000000E+00
  -2.190000      0.0000000E+00
  -2.180000      0.0000000E+00
  -2.170000      0.0000000E+00
  -2.160000      0.0000000E+00
  -2.150000      0.0000000E+00
  -2.140000      0.0000000E+00
  -2.130000      0.0000000E+00
  -2.120000      0.0000000E+00
  -2.110000      0.0000000E+00
  -2.100000      0.0000000E+00
  -2.090000      0.0000000E+00
  -2.080000      0.0000000E+00
  -2.070000      0.0000000E+00
  -2.060000      0.0000000E+00
  -2.050000      0.0000000E+00
  -2.040000      0.0000000E+00
  -2.030000      0.0000000E+00
  -2.020000      0.0000000E+00
  -2.010000      0.0000000E+00
  -2.000000      0.0000000E+00
  -1.990000      0.0000000E+00
  -1.980000      0.0000000E+00
  -1.970000      0.0000000E+00
  -1.960000      0.0000000E+00
  -1.950000      0.0000000E+00
  -1.940000      0.0000000E+00
  -1.930000      0.0000000E+00
  -1.920000      0.0000000E+00
  -1.910000      0.0000000E+00
  -1.900000      0.0000000E+00
  -1.890000      0.0000000E+00
  -1.880000      0.0000000E+00
  -1.870000      0.0000000E+00
  -1.860000      0.0000000E+00
  -1.850000      0.0000000E+00
  -1.840000      0.0000000E+00
  -1.830000      0.0000000E+00
  -1.820000      0.0000000E+00
  -1.810000      0.0000000E+00
  -1.800000      0.0000000E+00
  -1.790000      0.0000000E+00
  -1.780000      0.0000000E+00
  -1.770000      0.0000000E+00
  -1.760000      0.0000000E+00
  -1.750000      0.0000000E+00
  -1.740000      0.0000000E+00
  -1.730000      0.0000000E+00
  -1.720000      0.0000000E+00
  -1.710000      0.0000000E+00
  -1.700000      0.0000000E+00
  -1.690000      0.0000000E+00
  -1.680000      0.0000000E+00
  -1.670000      0.0000000E+00
  -1.660000      0.0000000E+00
  -1.650000      0.0000000E+00
  -1.640000      0.0000000E+00
  -1.630000      0.0000000E+00
  -1.620000      0.0000000E+00
  -1.610000      0.0000000E+00
  -1.600000      0.0000000E+00
  -1.590000      0.0000000E+00
  -1.580000      0.0000000E+00
  -1.570000      0.0000000E+00
  -1.560000      0.0000000E+00
  -1.550000      0.0000000E+00
  -1.540000      0.0000000E+00
  -1.530000      0.0000000E+00
  -1.520000      0.0000000E+00
  -1.510000      0.0000000E+00
  -1.500000      0.0000000E+00
  -1.490000      0.0000000E+00
  -1.480000      0.0000000E+00
  -1.470000      0.0000000E+00
  -1.460000      0.0000000E+00
  -1.450000      0.0000000E+00
  -1.440000      0.0000000E+00
  -1.430000      0.0000000E+00
  -1.420000      0.0000000E+00
  -1.410000      0.0000000E+00
  -1.400000      0.0000000E+00
  -1.390000      0.0000000E+00
  -1.380000      0.0000000E+00
  -1.370000      0.0000000E+00
  -1.360000      0.0000000E+00
  -1.350000      0.0000000E+00
  -1.340000      0.0000000E+00
  -1.330000      0.0000000E+00
  -1.320000      0.0000000E+00
  -1.310000      0.0000000E+00
  -1.300000      0.0000000E+00
  -1.290000      0.0000000E+00
  -1.280000      0.0000000E+00
  -1.270000      0.0000000E+00
  -1.260000      0.0000000E+00
  -1.250000      0.0000000E+00
  -1.240000      0.0000000E+00
  -1.230000      0.0000000E+00
  -1.220000      0.0000000E+00
  -1.210000      0.0000000E+00
  -1.200000      0.0000000E+00
  -1.190000      0.0000000E+00
  -1.180000      0.0000000E+00
  -1.170000      0.0000000E+00
  -1.160000      0.0000000E+00
  -1.150000      0.0000000E+00
  -1.140000      0.0000000E+00
  -1.130000      0.0000000E+00
  -1.120000      0.0000000E+00
  -1.110000      0.0000000E+00
  -1.100000      0.0000000E+00
  -1.090000      0.0000000E+00
  -1.080000      0.0000000E+00
  -1.070000      0.0000000E+00
  -1.060000      0.0000000E+00
  -1.050000      0.0000000E+00
  -1.040000      0.0000000E+00
  -1.030000      0.0000000E+00
  -1.020000      0.0000000E+00
  -1.010000      0.0000000E+00
  -1.000000      0.0000000E+00
 -0.9900000      0.0000000E+00
 -0.9800000      0.0000000E+00
 -0.9700000      0.0000000E+00
 -0.9600000      0.0000000E+00
 -0.9500000      0.0000000E+00
 -0.9400000      0.0000000E+00
 -0.9300000      0.0000000E+00
 -0.9200000      0.0000000E+00
 -0.9100000      0.0000000E+00
 -0.9000000      0.0000000E+00
 -0.8900000      0.0000000E+00
 -0.8800000      0.0000000E+00
 -0.8700000      0.0000000E+00
 -0.8600000      0.0000000E+00
 -0.8500000      0.0000000E+00
 -0.8400000      0.0000000E+00
 -0.8300000      0.0000000E+00
 -0.8200000      0.0000000E+00
 -0.8100000      0.0000000E+00
 -0.8000000      0.0000000E+00
 -0.7900000      0.0000000E+00
 -0.7800000      0.0000000E+00
 -0.7700000      0.0000000E+00
 -0.7600000      0.0000000E+00
 -0.7500000      0.0000000E+00
 -0.7400000      0.0000000E+00
 -0.7300000      0.0000000E+00
 -0.7200000      0.0000000E+00
 -0.7100000      0.0000000E+00
 -0.7000000      0.0000000E+00
 -0.6900000      0.0000000E+00
 -0.6800000      0.0000000E+00
 -0.6700000      0.0000000E+00
 -0.6600000      0.0000000E+00
 -0.6500000      0.0000000E+00
 -0.6400000      0.0000000E+00
 -0.6300000      0.0000000E+00
 -0.6200000      0.0000000E+00
 -0.6100000      0.0000000E+00
 -0.6000000      0.0000000E+00
 -0.5900000      0.0000000E+00
 -0.5800000      0.0000000E+00
 -0.5700000      0.0000000E+00
 -0.5600000      0.0000000E+00
 -0.5500000      0.0000000E+00
 -0.5400000      0.0000000E+00
 -0.5300000      0.0000000E+00
 -0.5200000      0.0000000E+00
 -0.5100000      0.0000000E+00
 -0.5000000      0.0000000E+00
 -0.4900000      0.0000000E+00
 -0.4800000      0.0000000E+00
 -0.4700000      0.0000000E+00
 -0.4600000      0.0000000E+00
 -0.4500000      0.0000000E+00
 -0.4400000      0.0000000E+00
 -0.4300000      0.0000000E+00
 -0.4200000      0.0000000E+00
 -0.4100000      0.0000000E+00
 -0.4000000      0.0000000E+00
 -0.3900000      0.0000000E+00
 -0.3800000      0.0000000E+00
 -0.3700000      0.0000000E+00
 -0.3600000      0.0000000E+00
 -0.3500000      0.0000000E+00
 -0.3400000      0.0000000E+00
 -0.3300000      0.0000000E+00
 -0.3200000      0.0000000E+00
 -0.3100000      0.0000000E+00
 -0.3000000      0.0000000E+00
 -0.2900000      0.0000000E+00
 -0.2800000      0.0000000E+00
 -0.2700000      0.0000000E+00
 -0.2600000      0.0000000E+00
 -0.2500000      0.0000000E+00
 -0.2400000      0.0000000E+00
 -0.2300000      0.0000000E+00
 -0.2200000      0.0000000E+00
 -0.2100000      0.0000000E+00
 -0.2000000      0.0000000E+00
 -0.1900000      0.0000000E+00
 -0.1800000      0.0000000E+00
 -0.1700000      0.0000000E+00
 -0.1600000      0.0000000E+00
 -0.1500000      0.0000000E+00
 -0.1400000      0.0000000E+00
 -0.1300000      0.0000000E+00
 -0.1200000      0.0000000E+00
 -0.1100000      0.0000000E+00
 -0.1000000      0.0000000E+00
 -9.0000004E-02  0.0000000E+00
 -7.9999998E-02  0.0000000E+00
 -7.0000000E-02  0.0000000E+00
 -5.9999999E-02  0.0000000E+00
 -5.0000001E-02  0.0000000E+00
 -3.9999999E-02  0.0000000E+00
 -2.9999999E-02  0.0000000E+00
 -2.0000000E-02  0.0000000E+00
 -9.9999998E-03  0.0000000E+00
 -3.4694470E-17  0.0000000E+00
  9.9999998E-03  0.0000000E+00
  2.0000000E-02  0.0000000E+00
  2.9999999E-02  0.0000000E+00
  3.9999999E-02  0.0000000E+00
  5.0000001E-02  0.0000000E+00
  5.9999999E-02  0.0000000E+00
  7.0000000E-02  0.0000000E+00
  7.9999998E-02  0.0000000E+00
  9.0000004E-02  0.0000000E+00
  0.1000000      0.0000000E+00
  0.1100000      0.0000000E+00
  0.1200000      0.0000000E+00
  0.1300000      0.0000000E+00
  0.1400000      0.0000000E+00
  0.1500000      0.0000000E+00
  0.1600000      0.0000000E+00
  0.1700000      0.0000000E+00
  0.1800000      0.0000000E+00
  0.1900000      0.0000000E+00
  0.2000000      0.0000000E+00
  0.2100000      0.0000000E+00
  0.2200000      0.0000000E+00
  0.2300000      0.0000000E+00
  0.2400000      0.0000000E+00
  0.2500000      0.0000000E+00
  0.2600000      0.0000000E+00
  0.2700000      0.0000000E+00
  0.2800000      0.0000000E+00
  0.2900000      0.0000000E+00
  0.3000000      0.0000000E+00
  0.3100000      0.0000000E+00
  0.3200000      0.0000000E+00
  0.3300000      0.0000000E+00
  0.3400000      0.0000000E+00
  0.3500000      0.0000000E+00
  0.3600000      0.0000000E+00
  0.3700000      0.0000000E+00
  0.3800000      0.0000000E+00
  0.3900000      0.0000000E+00
  0.4000000      0.0000000E+00
  0.4100000      0.0000000E+00
  0.4200000      0.0000000E+00
  0.4300000      0.0000000E+00
  0.4400000      0.0000000E+00
  0.4500000      0.0000000E+00
  0.4600000      0.0000000E+00
  0.4700000      0.0000000E+00
  0.4800000      0.0000000E+00
  0.4900000      0.0000000E+00
  0.5000000      0.0000000E+00
  0.5100000      0.0000000E+00
  0.5200000      0.0000000E+00
  0.5300000      0.0000000E+00
  0.5400000      0.0000000E+00
  0.5500000      0.0000000E+00
  0.5600000      0.0000000E+00
  0.5700000      0.0000000E+00
  0.5800000      0.0000000E+00
  0.5900000      0.0000000E+00
  0.6000000      0.0000000E+00
  0.6100000      0.0000000E+00
  0.6200000      0.0000000E+00
  0.6300000      0.0000000E+00
  0.6400000      0.0000000E+00
  0.6500000      0.0000000E+00
  0.6600000      0.0000000E+00
  0.6700000      0.0000000E+00
  0.6800000      0.0000000E+00
  0.6900000      0.0000000E+00
  0.7000000      0.0000000E+00
  0.7100000      0.0000000E+00
  0.7200000      0.0000000E+00
  0.7300000      0.0000000E+00
  0.7400000      0.0000000E+00
  0.7500000      0.0000000E+00
  0.7600000      0.0000000E+00
  0.7700000      0.0000000E+00
  0.7800000      0.0000000E+00
  0.7900000      0.0000000E+00
  0.8000000      0.0000000E+00
  0.8100000      0.0000000E+00
  0.8200000      0.0000000E+00
  0.8300000      0.0000000E+00
  0.8400000      0.0000000E+00
  0.8500000      0.0000000E+00
  0.8600000      0.0000000E+00
  0.8700000      0.0000000E+00
  0.8800000      0.0000000E+00
  0.8900000      0.0000000E+00
  0.9000000      0.0000000E+00
  0.9100000      0.0000000E+00
  0.9200000      0.0000000E+00
  0.9300000      0.0000000E+00
  0.9400000      0.0000000E+00
  0.9500000      0.0000000E+00
  0.9600000      0.0000000E+00
  0.9700000      0.0000000E+00
  0.9800000      0.0000000E+00
  0.9900000      0.0000000E+00
   1.000000      0.0000000E+00
   1.010000      0.0000000E+00
   1.020000      0.0000000E+00
   1.030000      0.0000000E+00
   1.040000      0.0000000E+00
   1.050000      0.0000000E+00
   1.060000      0.0000000E+00
   1.070000      0.0000000E+00
   1.080000      0.0000000E+00
   1.090000      0.0000000E+00
   1.100000      0.0000000E+00
   1.110000      0.0000000E+00
   1.120000      0.0000000E+00
   1.130000      0.0000000E+00
   1.140000      0.0000000E+00
   1.150000      0.0000000E+00
   1.160000      0.0000000E+00
   1.170000      0.0000000E+00
   1.180000      0.0000000E+00
   1.190000      0.0000000E+00
   1.200000      0.0000000E+00
   1.210000      0.0000000E+00
   1.220000      0.0000000E+00
   1.230000      0.0000000E+00
   1.240000      0.0000000E+00
   1.250000      0.0000000E+00
   1.260000      0.0000000E+00
   1.270000      0.0000000E+00
   1.280000      0.0000000E+00
   1.290000      0.0000000E+00
   1.300000      0.0000000E+00
   1.310000      0.0000000E+00
   1.320000      0.0000000E+00
   1.330000      0.0000000E+00
   1.340000      0.0000000E+00
   1.350000      0.0000000E+00
   1.360000      0.0000000E+00
   1.370000      0.0000000E+00
   1.380000      0.0000000E+00
   1.390000      0.0000000E+00
   1.400000      0.0000000E+00
   1.410000      0.0000000E+00
   1.420000      0.0000000E+00
   1.430000      0.0000000E+00
   1.440000      0.0000000E+00
   1.450000      0.0000000E+00
   1.460000      0.0000000E+00
   1.470000      0.0000000E+00
   1.480000      0.0000000E+00
   1.490000      0.0000000E+00
   1.500000      0.0000000E+00
   1.510000      0.0000000E+00
   1.520000      0.0000000E+00
   1.530000      0.0000000E+00
   1.540000      0.0000000E+00
   1.550000      0.0000000E+00
   1.560000      0.0000000E+00
   1.570000      0.0000000E+00
   1.580000      0.0000000E+00
   1.590000      0.0000000E+00
   1.600000      0.0000000E+00
   1.610000      0.0000000E+00
   1.620000      0.0000000E+00
   1.630000      0.0000000E+00
   1.640000      0.0000000E+00
   1.650000      0.0000000E+00
   1.660000      0.0000000E+00
   1.670000      0.0000000E+00
   1.680000      0.0000000E+00
   1.690000      0.0000000E+00
   1.700000      0.0000000E+00
   1.710000      0.0000000E+00
   1.720000      0.0000000E+00
   1.730000      0.0000000E+00
   1.740000      0.0000000E+00
   1.750000      0.0000000E+00
   1.760000      0.0000000E+00
   1.770000      0.0000000E+00
   1.780000      0.0000000E+00
   1.790000      0.0000000E+00
   1.800000      0.0000000E+00
   1.810000      0.0000000E+00
   1.820000      0.0000000E+00
   1.830000      0.0000000E+00
   1.840000      0.0000000E+00
   1.850000      0.0000000E+00
   1.860000      0.0000000E+00
   1.870000      0.0000000E+00
   1.880000      0.0000000E+00
   1.890000      0.0000000E+00
   1.900000      0.0000000E+00
   1.910000      0.0000000E+00
   1.920000      0.0000000E+00
   1.930000      0.0000000E+00
   1.940000      0.0000000E+00
   1.950000      0.0000000E+00
   1.960000      0.0000000E+00
   1.970000      0.0000000E+00
   1.980000      0.0000000E+00
   1.990000      0.0000000E+00
   2.000000      0.0000000E+00
   2.010000      0.0000000E+00
   2.020000      0.0000000E+00
   2.030000      0.0000000E+00
   2.040000      0.0000000E+00
   2.050000      0.0000000E+00
   2.060000      0.0000000E+00
   2.070000      0.0000000E+00
   2.080000      0.0000000E+00
   2.090000      0.0000000E+00
   2.100000      0.0000000E+00
   2.110000      0.0000000E+00
   2.120000      0.0000000E+00
   2.130000      0.0000000E+00
   2.140000      0.0000000E+00
   2.150000      0.0000000E+00
   2.160000      0.0000000E+00
   2.170000      0.0000000E+00
   2.180000      0.0000000E+00
   2.190000      0.0000000E+00
   2.200000      0.0000000E+00
   2.210000      0.0000000E+00
   2.220000      0.0000000E+00
   2.230000      0.0000000E+00
   2.240000      0.0000000E+00
   2.250000      0.0000000E+00
   2.260000      0.0000000E+00
   2.270000      0.0000000E+00
   2.280000      0.0000000E+00
   2.290000      0.0000000E+00
   2.300000      0.0000000E+00
   2.310000      0.0000000E+00
   2.320000      0.0000000E+00
   2.330000      0.0000000E+00
   2.340000      0.0000000E+00
   2.350000      0.0000000E+00
   2.360000      0.0000000E+00
   2.370000      1.3502238E-38
   2.380000      2.3315021E-38
   2.390000      3.3787024E-38
   2.400000      4.4869829E-38
   2.410000      5.6500248E-38
   2.420000      6.8606317E-38
   2.430000      8.1108932E-38
   2.440000      9.3918807E-38
   2.450000      1.0585348E-37
   2.460000      1.1670879E-37
   2.470000      1.1859599E-37
   2.480000      1.1077649E-37
   2.490000      1.0158747E-37
   2.500000      8.9909109E-38
   2.510000      7.6272647E-38
   2.520000      6.2837553E-38
   2.530000      5.7440401E-38
   2.540000      5.9199328E-38
   2.550000      5.9585257E-38
   2.560000      6.0693824E-38
   2.570000      5.9681100E-38
   2.580000      5.4594173E-38
   2.590000      4.8363401E-38
   2.600000      4.0753313E-38
   2.610000      3.1541906E-38
   2.620000      1.7964774E-38
   2.630000      0.0000000E+00
   2.640000     -2.9115288E-38
   2.650000     -7.3293420E-38
   2.660000     -1.2209845E-37
   2.670000     -1.7241642E-37
   2.680000     -2.2600870E-37
   2.690000     -2.8409573E-37
   2.700000     -3.3921907E-37
   2.710000     -3.8018573E-37
   2.720000     -4.0647391E-37
   2.730000     -4.2302416E-37
   2.740000     -4.3459696E-37
   2.750000     -4.4838493E-37
   2.760000     -4.6821749E-37
   2.770000     -4.9497324E-37
   2.780000     -5.3046066E-37
   2.790000     -5.7844403E-37
   2.800000     -6.4253059E-37
   2.810000     -7.1536928E-37
   2.820000     -7.7555785E-37
   2.830000     -8.2124350E-37
   2.840000     -8.6214644E-37
   2.850000     -8.9101085E-37
   2.860000     -9.0862802E-37
   2.870000     -9.1286537E-37
   2.880000     -8.9480104E-37
   2.890000     -8.5641676E-37
   2.900000     -7.8593714E-37
   2.910000     -6.8654652E-37
   2.920000     -5.7618886E-37
   2.930000     -4.6615814E-37
   2.940000     -3.6050040E-37
   2.950000     -2.5158554E-37
   2.960000     -1.4479630E-37
   2.970000     -3.3180419E-38
   2.980000      9.7627870E-38
   2.990000      2.3004361E-37
   3.000000      3.5542229E-37
   3.010000      4.9617965E-37
   3.020000      6.1573265E-37
   3.030000      7.1001869E-37
   3.040000      8.4956802E-37
   3.050000      1.0364035E-36
   3.060000      1.2749434E-36
   3.070000      1.5484135E-36
   3.080000      1.8252995E-36
   3.090000      2.1170943E-36
   3.100000      2.4349619E-36
   3.110000      2.7684417E-36
   3.120000      3.0774175E-36
   3.130000      3.3437189E-36
   3.140000      3.5612740E-36
   3.150000      3.7092583E-36
   3.160000      3.8053814E-36
   3.170000      3.8794922E-36
   3.180000      3.9523576E-36
   3.190000      4.0314093E-36
   3.200000      4.1067987E-36
   3.210000      4.1975469E-36
   3.220000      4.2928004E-36
   3.230000      4.3467782E-36
   3.240000      4.3422954E-36
   3.250000      4.3271343E-36
   3.260000      4.0796818E-36
   3.270000      3.3688991E-36
   3.280000      2.4080837E-36
   3.290000      1.3465642E-36
   3.300000      1.4763247E-37
   3.310000     -1.3227313E-36
   3.320000     -3.1111724E-36
   3.330000     -5.2990437E-36
   3.340000     -7.7972655E-36
   3.350000     -9.8576817E-36
   3.360000     -1.1457135E-35
   3.370000     -1.3125485E-35
   3.380000     -1.4893924E-35
   3.390000     -1.6339561E-35
   3.400000     -1.7299423E-35
   3.410000     -1.7894083E-35
   3.420000     -1.8075755E-35
   3.430000     -1.7921040E-35
   3.440000     -1.7366686E-35
   3.450000     -1.6239256E-35
   3.460000     -1.4189243E-35
   3.470000     -1.1476368E-35
   3.480000     -8.3702035E-36
   3.490000     -4.9258888E-36
   3.500000     -1.5853189E-36
   3.510000      1.6782865E-36
   3.520000      4.6257285E-36
   3.530000      7.0567730E-36
   3.540000      8.9339185E-36
   3.550000      1.0049309E-35
   3.560000      1.0890136E-35
   3.570000      1.1051822E-35
   3.580000      9.9666732E-36
   3.590000      8.6273788E-36
   3.600000      7.3390007E-36
   3.610000      5.7723617E-36
   3.620000      4.0727435E-36
   3.630000      2.3630387E-36
   3.640000      8.5067651E-37
   3.650000     -2.5676180E-37
   3.660000     -9.3619087E-37
   3.670000     -7.5756455E-37
   3.680000      4.6305708E-37
   3.690000      3.2991533E-36
   3.700000      6.4940940E-36
   3.710000      8.8004607E-36
   3.720000      1.3395204E-35
   3.730000      2.0612481E-35
   3.740000      2.8124658E-35
   3.750000      3.5600153E-35
   3.760000      4.2935806E-35
   3.770000      5.0464696E-35
   3.780000      5.8475782E-35
   3.790000      6.5872373E-35
   3.800000      7.1621585E-35
   3.810000      7.6045990E-35
   3.820000      7.9232819E-35
   3.830000      8.1411438E-35
   3.840000      8.2598579E-35
   3.850000      8.2443262E-35
   3.860000      8.0973469E-35
   3.870000      7.8279837E-35
   3.880000      7.4493884E-35
   3.890000      6.9540995E-35
   3.900000      6.3672999E-35
   3.910000      5.6623792E-35
   3.920000      4.8265942E-35
   3.930000      3.9407381E-35
   3.940000      3.0621717E-35
   3.950000      2.2267842E-35
   3.960000      1.4446625E-35
   3.970000      6.8801009E-36
   3.980000     -6.6006687E-37
   3.990000     -7.7044234E-36
   4.000000     -1.3964666E-35
   4.010000     -2.0179644E-35
   4.020000     -2.4832668E-35
   4.030000     -2.7023878E-35
   4.040000     -2.6638137E-35
   4.050000     -2.4693144E-35
   4.060000     -2.2211656E-35
   4.070000     -2.0582496E-35
   4.080000     -2.0706152E-35
   4.090000     -2.1253769E-35
   4.100000     -2.2701406E-35
   4.110000     -2.7803509E-35
   4.120000     -3.6792210E-35
   4.130000     -4.6803220E-35
   4.140000     -5.9591261E-35
   4.150000     -7.7001997E-35
   4.160000     -9.8099618E-35
   4.170000     -1.2218269E-34
   4.180000     -1.4673908E-34
   4.190000     -1.7119152E-34
   4.200000     -1.9853158E-34
   4.210000     -2.2796447E-34
   4.220000     -2.6055654E-34
   4.230000     -2.9701767E-34
   4.240000     -3.3338039E-34
   4.250000     -3.6673328E-34
   4.260000     -3.9657552E-34
   4.270000     -4.2334446E-34
   4.280000     -4.4666104E-34
   4.290000     -4.6614398E-34
   4.300000     -4.8319719E-34
   4.310000     -4.9866684E-34
   4.320000     -5.1150645E-34
   4.330000     -5.2192583E-34
   4.340000     -5.2802742E-34
   4.350000     -5.3068900E-34
   4.360000     -5.3077781E-34
   4.370000     -5.2667147E-34
   4.380000     -5.1858963E-34
   4.390000     -5.0739989E-34
   4.400000     -4.9667263E-34
   4.410000     -4.8634508E-34
   4.420000     -4.7504151E-34
   4.430000     -4.6536641E-34
   4.440000     -4.5718130E-34
   4.450000     -4.4924933E-34
   4.460000     -4.4267106E-34
   4.470000     -4.3955086E-34
   4.480000     -4.4018112E-34
   4.490000     -4.4205461E-34
   4.500000     -4.4189197E-34
   4.510000     -4.3834832E-34
   4.520000     -4.3186652E-34
   4.530000     -4.2378408E-34
   4.540000     -4.1279050E-34
   4.550000     -3.9075829E-34
   4.560000     -3.5725551E-34
   4.570000     -3.1539253E-34
   4.580000     -2.6297857E-34
   4.590000     -2.0177420E-34
   4.600000     -1.3184497E-34
   4.610000     -4.7756983E-35
   4.620000      5.0414513E-35
   4.630000      1.5889426E-34
   4.640000      2.7766148E-34
   4.650000      4.0583534E-34
   4.660000      5.4257582E-34
   4.670000      6.8784557E-34
   4.680000      8.3999945E-34
   4.690000      9.9821759E-34
   4.700000      1.1627232E-33
   4.710000      1.3314633E-33
   4.720000      1.5012175E-33
   4.730000      1.6720902E-33
   4.740000      1.8443705E-33
   4.750000      2.0183956E-33
   4.760000      2.1974633E-33
   4.770000      2.3808092E-33
   4.780000      2.5653711E-33
   4.790000      2.7517432E-33
   4.800000      2.9424947E-33
   4.810000      3.1381148E-33
   4.820000      3.3361657E-33
   4.830000      3.5355277E-33
   4.840000      3.7381573E-33
   4.850000      3.9453238E-33
   4.860000      4.1571560E-33
   4.870000      4.3739542E-33
   4.880000      4.5935605E-33
   4.890000      4.8149442E-33
   4.900000      5.0375678E-33
   4.910000      5.2568324E-33
   4.920000      5.4688817E-33
   4.930000      5.6736249E-33
   4.940000      5.8702649E-33
   4.950000      6.0584843E-33
   4.960000      6.2338052E-33
   4.970000      6.3911121E-33
   4.980000      6.5294009E-33
   4.990000      6.6468203E-33
   5.000000      6.7414476E-33
   5.010000      6.8107099E-33
   5.020000      6.8516296E-33
   5.030000      6.8607346E-33
   5.040000      6.8354387E-33
   5.050000      6.7736304E-33
   5.060000      6.6733858E-33
   5.070000      6.5299064E-33
   5.080000      6.3399142E-33
   5.090000      6.1042709E-33
   5.100000      5.8217842E-33
   5.110000      5.4892625E-33
   5.120000      5.1057366E-33
   5.130000      4.6701413E-33
   5.140000      4.1794338E-33
   5.150000      3.6319109E-33
   5.160000      3.0246546E-33
   5.170000      2.3556198E-33
   5.180000      1.6237212E-33
   5.190000      8.2737739E-34
   5.200000     -3.5583454E-35
   5.210000     -9.6830153E-34
   5.220000     -1.9727097E-33
   5.230000     -3.0510582E-33
   5.240000     -4.2049901E-33
   5.250000     -5.4363271E-33
   5.260000     -6.7482199E-33
   5.270000     -8.1417655E-33
   5.280000     -9.6180579E-33
   5.290000     -1.1178713E-32
   5.300000     -1.2824253E-32
   5.310000     -1.4554821E-32
   5.320000     -1.6370488E-32
   5.330000     -1.8271051E-32
   5.340000     -2.0255221E-32
   5.350000     -2.2320632E-32
   5.360000     -2.4464825E-32
   5.370000     -2.6684982E-32
   5.380000     -2.8976368E-32
   5.390000     -3.1335447E-32
   5.400000     -3.3757612E-32
   5.410000     -3.6235721E-32
   5.420000     -3.8763099E-32
   5.430000     -4.1333085E-32
   5.440000     -4.3936931E-32
   5.450000     -4.6566448E-32
   5.460000     -4.9213314E-32
   5.470000     -5.1866390E-32
   5.480000     -5.4514679E-32
   5.490000     -5.7146717E-32
   5.500000     -5.9750013E-32
   5.510000     -6.2311639E-32
   5.520000     -6.4818157E-32
   5.530000     -6.7255057E-32
   5.540000     -6.9606927E-32
   5.550000     -7.1857887E-32
   5.560000     -7.3991128E-32
   5.570000     -7.5989386E-32
   5.580000     -7.7833795E-32
   5.590000     -7.9504308E-32
   5.600000     -8.0982080E-32
   5.610000     -8.2244426E-32
   5.620000     -8.3267541E-32
   5.630000     -8.4029062E-32
   5.640000     -8.4504361E-32
   5.650000     -8.4668190E-32
   5.660000     -8.4494269E-32
   5.670000     -8.3955446E-32
   5.680000     -8.3024184E-32
   5.690000     -8.1672266E-32
   5.700000     -7.9869963E-32
   5.710000     -7.7587417E-32
   5.720000     -7.4795142E-32
   5.730000     -7.1462727E-32
   5.740000     -6.7560603E-32
   5.750000     -6.3058960E-32
   5.760000     -5.7927362E-32
   5.770000     -5.2136319E-32
   5.780000     -4.5656688E-32
   5.790000     -3.8459845E-32
   5.800000     -3.0518102E-32
   5.810000     -2.1804716E-32
   5.820000     -1.2294579E-32
   5.830000     -1.9629095E-33
   5.840000      9.2135431E-33
   5.850000      2.1255321E-32
   5.860000      3.4181601E-32
   5.870000      4.8009361E-32
   5.880000      6.2753114E-32
   5.890000      7.8424316E-32
   5.900000      9.5032994E-32
   5.910000      1.1258613E-31
   5.920000      1.3108629E-31
   5.930000      1.5053298E-31
   5.940000      1.7092225E-31
   5.950000      1.9224618E-31
   5.960000      2.1449252E-31
   5.970000      2.3764450E-31
   5.980000      2.6168061E-31
   5.990000      2.8657410E-31
   6.000000      3.1229276E-31
   6.010000      3.3879868E-31
   6.020000      3.6604800E-31
   6.030000      3.9399021E-31
   6.040000      4.2256817E-31
   6.050000      4.5171756E-31
   6.060000      4.8136701E-31
   6.070000      5.1143719E-31
   6.080000      5.4184106E-31
   6.090000      5.7248362E-31
   6.100000      6.0326140E-31
   6.110000      6.3406269E-31
   6.120000      6.6476702E-31
   6.130000      6.9524505E-31
   6.140000      7.2535840E-31
   6.150000      7.5496007E-31
   6.160000      7.8389392E-31
   6.170000      8.1199454E-31
   6.180000      8.3908752E-31
   6.190000      8.6498940E-31
   6.200000      8.8950767E-31
   6.210000      9.1244110E-31
   6.220000      9.3357949E-31
   6.230000      9.5270441E-31
   6.240000      9.6958874E-31
   6.250000      9.8399748E-31
   6.260000      9.9568791E-31
   6.270000      1.0044102E-30
   6.280000      1.0099074E-30
   6.290000      1.0119162E-30
   6.300000      1.0101678E-30
   6.310000      1.0043879E-30
   6.320000      9.9429744E-31
   6.330000      9.7961383E-31
   6.340000      9.6005097E-31
   6.350000      9.3532101E-31
   6.360000      9.0513441E-31
   6.370000      8.6920134E-31
   6.380000      8.2723290E-31
   6.390000      7.7894166E-31
   6.400000      7.2404358E-31
   6.410000      6.6225899E-31
   6.420000      5.9331394E-31
   6.430000      5.1694165E-31
   6.440000      4.3288416E-31
   6.450000      3.4089416E-31
   6.460000      2.4073621E-31
   6.470000      1.3218899E-31
   6.480000      1.5046960E-32
   6.490000     -1.1087786E-31
   6.500000     -2.4575379E-31
   6.510000     -3.8972746E-31
   6.520000     -5.4292186E-31
   6.530000     -7.0543414E-31
   6.540000     -8.7733369E-31
   6.550000     -1.0586599E-30
   6.560000     -1.2494194E-30
   6.570000     -1.4495849E-30
   6.580000     -1.6590916E-30
   6.590000     -1.8778359E-30
   6.600000     -2.1056722E-30
   6.610000     -2.3424123E-30
   6.620000     -2.5878211E-30
   6.630000     -2.8416150E-30
   6.640000     -3.1034604E-30
   6.650000     -3.3729710E-30
   6.660000     -3.6497038E-30
   6.670000     -3.9331608E-30
   6.680000     -4.2227835E-30
   6.690000     -4.5179522E-30
   6.700000     -4.8179846E-30
   6.710000     -5.1221337E-30
   6.720000     -5.4295862E-30
   6.730000     -5.7394601E-30
   6.740000     -6.0508036E-30
   6.750000     -6.3625947E-30
   6.760000     -6.6737385E-30
   6.770000     -6.9830691E-30
   6.780000     -7.2893447E-30
   6.790000     -7.5912507E-30
   6.800000     -7.8874001E-30
   6.810000     -8.1763287E-30
   6.820000     -8.4564988E-30
   6.830000     -8.7262991E-30
   6.840000     -8.9840457E-30
   6.850000     -9.2279820E-30
   6.860000     -9.4562837E-30
   6.870000     -9.6670556E-30
   6.880000     -9.8583389E-30
   6.890000     -1.0028110E-29
   6.900000     -1.0174283E-29
   6.910000     -1.0294721E-29
   6.920000     -1.0387226E-29
   6.930000     -1.0449558E-29
   6.940000     -1.0479428E-29
   6.950000     -1.0474510E-29
   6.960000     -1.0432442E-29
   6.970000     -1.0350838E-29
   6.980000     -1.0227289E-29
   6.990000     -1.0059373E-29
   7.000000     -9.8446580E-30
   7.010000     -9.5807168E-30
   7.020000     -9.2651314E-30
   7.030000     -8.8955040E-30
   7.040000     -8.4694650E-30
   7.050000     -7.9846821E-30
   7.060000     -7.4388751E-30