  -2.600000      0.0000000E+00
  -2.590000      0.0000000E+00
  -2.580000      0.0000000E+00
  -2.570000      0.0000000E+00
  -2.560000      0.0000000E+00
  -2.550000      0.0000000E+00
  -2.540000      0.0000000E+00
  -2.530000      0.0000000E+00
  -2.520000      0.0000000E+00
  -2.510000      0.0000000E+00
  -2.500000      0.0000000E+00
  -2.490000      0.0000000E+00
  -2.480000      0.0000000E+00
  -2.470000      0.0000000E+00
  -2.460000      0.0000000E+00
  -2.450000      0.0000000E+00
  -2.440000      0.0000000E+00
  -2.430000      0.0000000E+00
  -2.420000      0.0000000E+00
  -2.410000      0.0000000E+00
  -2.400000      0.0000000E+00
  -2.390000      0.0000000E+00
  -2.380000      0.0000000E+00
  -2.370000      0.0000000E+00
  -2.360000      0.0000000E+00
  -2.350000      0.0000000E+00
  -2.340000      0.0000000E+00
  -2.330000      0.0000000E+00
  -2.320000      0.0000000E+00
  -2.310000      0.0000000E+00
  -2.300000      0.0000000E+00
  -2.290000      0.0000000E+00
  -2.280000      0.0000000E+00
  -2.270000      0.0000000E+00
  -2.260000      0.0000000E+00
  -2.250000      0.0000000E+00
  -2.240000      0.0000000E+00
  -2.230000      0.0000000E+00
  -2.220000      0.0000000E+00
  -2.210000      0.0000000E+00
  -2.200000      0.0000000E+00
  -2.190000      0.0000000E+00
  -2.180000      0.0000000E+00
  -2.170000      0.0000000E+00
  -2.160000      0.0000000E+00
  -2.150000      0.0000000E+00
  -2.140000      0.0000000E+00
  -2.130000      0.0000000E+00
  -2.120000      0.0000000E+00
  -2.110000      0.0000000E+00
  -2.100000      0.0000000E+00
  -2.090000      0.0000000E+00
  -2.080000      0.0000000E+00
  -2.070000      0.0000000E+00
  -2.060000      0.0000000E+00
  -2.050000      0.0000000E+00
  -2.040000      0.0000000E+00
  -2.030000      0.0000000E+00
  -2.020000      0.0000000E+00
  -2.010000      0.0000000E+00
  -2.000000      0.0000000E+00
  -1.990000      0.0000000E+00
  -1.980000      0.0000000E+00
  -1.970000      0.0000000E+00
  -1.960000      0.0000000E+00
  -1.950000      0.0000000E+00
  -1.940000      0.0000000E+00
  -1.930000      0.0000000E+00
  -1.920000      0.0000000E+00
  -1.910000      0.0000000E+00
  -1.900000      0.0000000E+00
  -1.890000      0.0000000E+00
  -1.880000      0.0000000E+00
  -1.870000      0.0000000E+00
  -1.860000      0.0000000E+00
  -1.850000      0.0000000E+00
  -1.840000      0.0000000E+00
  -1.830000      0.0000000E+00
  -1.820000      0.0000000E+00
  -1.810000      0.0000000E+00
  -1.800000      0.0000000E+00
  -1.790000      0.0000000E+00
  -1.780000      0.0000000E+00
  -1.770000      0.0000000E+00
  -1.760000      0.0000000E+00
  -1.750000      0.0000000E+00
  -1.740000      0.0000000E+00
  -1.730000      0.0000000E+00
  -1.720000      0.0000000E+00
  -1.710000      0.0000000E+00
  -1.700000      0.0000000E+00
  -1.690000      0.0000000E+00
  -1.680000      0.0000000E+00
  -1.670000      0.0000000E+00
  -1.660000      0.0000000E+00
  -1.650000      0.0000000E+00
  -1.640000      0.0000000E+00
  -1.630000      0.0000000E+00
  -1.620000      0.0000000E+00
  -1.610000      0.0000000E+00
  -1.600000      0.0000000E+00
  -1.590000      0.0000000E+00
  -1.580000      0.0000000E+00
  -1.570000      0.0000000E+00
  -1.560000      0.0000000E+00
  -1.550000      0.0000000E+00
  -1.540000      0.0000000E+00
  -1.530000      0.0000000E+00
  -1.520000      0.0000000E+00
  -1.510000      0.0000000E+00
  -1.500000      0.0000000E+00
  -1.490000      0.0000000E+00
  -1.480000      0.0000000E+00
  -1.470000      0.0000000E+00
  -1.460000      0.0000000E+00
  -1.450000      0.0000000E+00
  -1.440000      0.0000000E+00
  -1.430000      0.0000000E+00
  -1.420000      0.0000000E+00
  -1.410000      0.0000000E+00
  -1.400000      0.0000000E+00
  -1.390000      0.0000000E+00
  -1.380000      0.0000000E+00
  -1.370000      0.0000000E+00
  -1.360000      0.0000000E+00
  -1.350000      0.0000000E+00
  -1.340000      0.0000000E+00
  -1.330000      0.0000000E+00
  -1.320000      0.0000000E+00
  -1.310000      0.0000000E+00
  -1.300000      0.0000000E+00
  -1.290000      0.0000000E+00
  -1.280000      0.0000000E+00
  -1.270000      0.0000000E+00
  -1.260000      0.0000000E+00
  -1.250000      0.0000000E+00
  -1.240000      0.0000000E+00
  -1.230000      0.0000000E+00
  -1.220000      0.0000000E+00
  -1.210000      0.0000000E+00
  -1.200000      0.0000000E+00
  -1.190000      0.0000000E+00
  -1.180000      0.0000000E+00
  -1.170000      0.0000000E+00
  -1.160000      0.0000000E+00
  -1.150000      0.0000000E+00
  -1.140000      0.0000000E+00
  -1.130000      0.0000000E+00
  -1.120000      0.0000000E+00
  -1.110000      0.0000000E+00
  -1.100000      0.0000000E+00
  -1.090000      0.0000000E+00
  -1.080000      0.0000000E+00
  -1.070000      0.0000000E+00
  -1.060000      0.0000000E+00
  -1.050000      0.0000000E+00
  -1.040000      0.0000000E+00
  -1.030000      0.0000000E+00
  -1.020000      0.0000000E+00
  -1.010000      0.0000000E+00
  -1.000000      0.0000000E+00
 -0.9900000      0.0000000E+00
 -0.9800000      0.0000000E+00
 -0.9700000      0.0000000E+00
 -0.9600000      0.0000000E+00
 -0.9500000      0.0000000E+00
 -0.9400000      0.0000000E+00
 -0.9300000      0.0000000E+00
 -0.9200000      0.0000000E+00
 -0.9100000      0.0000000E+00
 -0.9000000      0.0000000E+00
 -0.8900000      0.0000000E+00
 -0.8800000      0.0000000E+00
 -0.8700000      0.0000000E+00
 -0.8600000      0.0000000E+00
 -0.8500000      0.0000000E+00
 -0.8400000      0.0000000E+00
 -0.8300000      0.0000000E+00
 -0.8200000      0.0000000E+00
 -0.8100000      0.0000000E+00
 -0.8000000      0.0000000E+00
 -0.7900000      0.0000000E+00
 -0.7800000      0.0000000E+00
 -0.7700000      0.0000000E+00
 -0.7600000      0.0000000E+00
 -0.7500000      0.0000000E+00
 -0.7400000      0.0000000E+00
 -0.7300000      0.0000000E+00
 -0.7200000      0.0000000E+00
 -0.7100000      0.0000000E+00
 -0.7000000      0.0000000E+00
 -0.6900000      0.0000000E+00
 -0.6800000      0.0000000E+00
 -0.6700000      0.0000000E+00
 -0.6600000      0.0000000E+00
 -0.6500000      0.0000000E+00
 -0.6400000      0.0000000E+00
 -0.6300000      0.0000000E+00
 -0.6200000      0.0000000E+00
 -0.6100000      0.0000000E+00
 -0.6000000      0.0000000E+00
 -0.5900000      0.0000000E+00
 -0.5800000      0.0000000E+00
 -0.5700000      0.0000000E+00
 -0.5600000      0.0000000E+00
 -0.5500000      0.0000000E+00
 -0.5400000      0.0000000E+00
 -0.5300000      0.0000000E+00
 -0.5200000      0.0000000E+00
 -0.5100000      0.0000000E+00
 -0.5000000      0.0000000E+00
 -0.4900000      0.0000000E+00
 -0.4800000      0.0000000E+00
 -0.4700000      0.0000000E+00
 -0.4600000      0.0000000E+00
 -0.4500000      0.0000000E+00
 -0.4400000      0.0000000E+00
 -0.4300000      0.0000000E+00
 -0.4200000      0.0000000E+00
 -0.4100000      0.0000000E+00
 -0.4000000      0.0000000E+00
 -0.3900000      0.0000000E+00
 -0.3800000      0.0000000E+00
 -0.3700000      0.0000000E+00
 -0.3600000      0.0000000E+00
 -0.3500000      0.0000000E+00
 -0.3400000      0.0000000E+00
 -0.3300000      0.0000000E+00
 -0.3200000      0.0000000E+00
 -0.3100000      0.0000000E+00
 -0.3000000      0.0000000E+00
 -0.2900000      0.0000000E+00
 -0.2800000      0.0000000E+00
 -0.2700000      0.0000000E+00
 -0.2600000      0.0000000E+00
 -0.2500000      0.0000000E+00
 -0.2400000      0.0000000E+00
 -0.2300000      0.0000000E+00
 -0.2200000      0.0000000E+00
 -0.2100000      0.0000000E+00
 -0.2000000      0.0000000E+00
 -0.1900000      0.0000000E+00
 -0.1800000      0.0000000E+00
 -0.1700000      0.0000000E+00
 -0.1600000      0.0000000E+00
 -0.1500000      0.0000000E+00
 -0.1400000      0.0000000E+00
 -0.1300000      0.0000000E+00
 -0.1200000      0.0000000E+00
 -0.1100000      0.0000000E+00
 -0.1000000      0.0000000E+00
 -9.0000004E-02  0.0000000E+00
 -7.9999998E-02  0.0000000E+00
 -7.0000000E-02  0.0000000E+00
 -5.9999999E-02  0.0000000E+00
 -5.0000001E-02  0.0000000E+00
 -3.9999999E-02  0.0000000E+00
 -2.9999999E-02  0.0000000E+00
 -2.0000000E-02  0.0000000E+00
 -9.9999998E-03  0.0000000E+00
 -3.4694470E-17  0.0000000E+00
  9.9999998E-03  0.0000000E+00
  2.0000000E-02  0.0000000E+00
  2.9999999E-02  0.0000000E+00
  3.9999999E-02  0.0000000E+00
  5.0000001E-02  0.0000000E+00
  5.9999999E-02  0.0000000E+00
  7.0000000E-02  0.0000000E+00
  7.9999998E-02  0.0000000E+00
  9.0000004E-02  0.0000000E+00
  0.1000000      0.0000000E+00
  0.1100000      0.0000000E+00
  0.1200000      0.0000000E+00
  0.1300000      0.0000000E+00
  0.1400000      0.0000000E+00
  0.1500000      0.0000000E+00
  0.1600000      0.0000000E+00
  0.1700000      0.0000000E+00
  0.1800000      0.0000000E+00
  0.1900000      0.0000000E+00
  0.2000000      0.0000000E+00
  0.2100000      0.0000000E+00
  0.2200000      0.0000000E+00
  0.2300000      0.0000000E+00
  0.2400000      0.0000000E+00
  0.2500000      0.0000000E+00
  0.2600000      0.0000000E+00
  0.2700000      0.0000000E+00
  0.2800000      0.0000000E+00
  0.2900000      0.0000000E+00
  0.3000000      0.0000000E+00
  0.3100000      0.0000000E+00
  0.3200000      0.0000000E+00
  0.3300000      0.0000000E+00
  0.3400000      0.0000000E+00
  0.3500000      0.0000000E+00
  0.3600000      0.0000000E+00
  0.3700000      0.0000000E+00
  0.3800000      0.0000000E+00
  0.3900000      0.0000000E+00
  0.4000000      0.0000000E+00
  0.4100000      0.0000000E+00
  0.4200000      0.0000000E+00
  0.4300000      0.0000000E+00
  0.4400000      0.0000000E+00
  0.4500000      0.0000000E+00
  0.4600000      0.0000000E+00
  0.4700000      0.0000000E+00
  0.4800000      0.0000000E+00
  0.4900000      0.0000000E+00
  0.5000000      0.0000000E+00
  0.5100000      0.0000000E+00
  0.5200000      0.0000000E+00
  0.5300000      0.0000000E+00
  0.5400000      0.0000000E+00
  0.5500000      0.0000000E+00
  0.5600000      0.0000000E+00
  0.5700000      0.0000000E+00
  0.5800000      0.0000000E+00
  0.5900000      0.0000000E+00
  0.6000000      0.0000000E+00
  0.6100000      0.0000000E+00
  0.6200000      0.0000000E+00
  0.6300000      0.0000000E+00
  0.6400000      0.0000000E+00
  0.6500000      0.0000000E+00
  0.6600000      0.0000000E+00
  0.6700000      0.0000000E+00
  0.6800000      0.0000000E+00
  0.6900000      0.0000000E+00
  0.7000000      0.0000000E+00
  0.7100000      0.0000000E+00
  0.7200000      0.0000000E+00
  0.7300000      0.0000000E+00
  0.7400000      0.0000000E+00
  0.7500000      0.0000000E+00
  0.7600000      0.0000000E+00
  0.7700000      0.0000000E+00
  0.7800000      0.0000000E+00
  0.7900000      0.0000000E+00
  0.8000000      0.0000000E+00
  0.8100000      0.0000000E+00
  0.8200000      0.0000000E+00
  0.8300000      0.0000000E+00
  0.8400000      0.0000000E+00
  0.8500000      0.0000000E+00
  0.8600000      0.0000000E+00
  0.8700000      0.0000000E+00
  0.8800000      0.0000000E+00
  0.8900000      0.0000000E+00
  0.9000000      0.0000000E+00
  0.9100000      0.0000000E+00
  0.9200000      0.0000000E+00
  0.9300000      0.0000000E+00
  0.9400000      0.0000000E+00
  0.9500000      0.0000000E+00
  0.9600000      0.0000000E+00
  0.9700000      0.0000000E+00
  0.9800000      0.0000000E+00
  0.9900000      0.0000000E+00
   1.000000      0.0000000E+00
   1.010000      0.0000000E+00
   1.020000      0.0000000E+00
   1.030000      0.0000000E+00
   1.040000      0.0000000E+00
   1.050000      0.0000000E+00
   1.060000      0.0000000E+00
   1.070000      0.0000000E+00
   1.080000      0.0000000E+00
   1.090000      0.0000000E+00
   1.100000      0.0000000E+00
   1.110000      0.0000000E+00
   1.120000      0.0000000E+00
   1.130000      0.0000000E+00
   1.140000      0.0000000E+00
   1.150000      0.0000000E+00
   1.160000      0.0000000E+00
   1.170000      0.0000000E+00
   1.180000      0.0000000E+00
   1.190000      0.0000000E+00
   1.200000      0.0000000E+00
   1.210000      0.0000000E+00
   1.220000      0.0000000E+00
   1.230000      0.0000000E+00
   1.240000      0.0000000E+00
   1.250000      0.0000000E+00
   1.260000      0.0000000E+00
   1.270000      0.0000000E+00
   1.280000      0.0000000E+00
   1.290000      0.0000000E+00
   1.300000      0.0000000E+00
   1.310000      0.0000000E+00
   1.320000      0.0000000E+00
   1.330000      0.0000000E+00
   1.340000      0.0000000E+00
   1.350000      0.0000000E+00
   1.360000      0.0000000E+00
   1.370000      0.0000000E+00
   1.380000      0.0000000E+00
   1.390000      0.0000000E+00
   1.400000      0.0000000E+00
   1.410000      0.0000000E+00
   1.420000      0.0000000E+00
   1.430000      0.0000000E+00
   1.440000      0.0000000E+00
   1.450000      0.0000000E+00
   1.460000      0.0000000E+00
   1.470000      0.0000000E+00
   1.480000      0.0000000E+00
   1.490000      0.0000000E+00
   1.500000      0.0000000E+00
   1.510000      0.0000000E+00
   1.520000      0.0000000E+00
   1.530000      0.0000000E+00
   1.540000      0.0000000E+00
   1.550000      0.0000000E+00
   1.560000      0.0000000E+00
   1.570000      0.0000000E+00
   1.580000      0.0000000E+00
   1.590000      0.0000000E+00
   1.600000      0.0000000E+00
   1.610000      0.0000000E+00
   1.620000      0.0000000E+00
   1.630000      0.0000000E+00
   1.640000      0.0000000E+00
   1.650000      0.0000000E+00
   1.660000      0.0000000E+00
   1.670000      0.0000000E+00
   1.680000      0.0000000E+00
   1.690000      0.0000000E+00
   1.700000      0.0000000E+00
   1.710000      0.0000000E+00
   1.720000      0.0000000E+00
   1.730000      0.0000000E+00
   1.740000      0.0000000E+00
   1.750000      0.0000000E+00
   1.760000      0.0000000E+00
   1.770000      0.0000000E+00
   1.780000      0.0000000E+00
   1.790000      0.0000000E+00
   1.800000      0.0000000E+00
   1.810000      0.0000000E+00
   1.820000      0.0000000E+00
   1.830000      0.0000000E+00
   1.840000      0.0000000E+00
   1.850000      0.0000000E+00
   1.860000      0.0000000E+00
   1.870000      0.0000000E+00
   1.880000      0.0000000E+00
   1.890000      0.0000000E+00
   1.900000      0.0000000E+00
   1.910000      0.0000000E+00
   1.920000      0.0000000E+00
   1.930000      0.0000000E+00
   1.940000      0.0000000E+00
   1.950000      0.0000000E+00
   1.960000      0.0000000E+00
   1.970000      0.0000000E+00
   1.980000      0.0000000E+00
   1.990000      0.0000000E+00
   2.000000      0.0000000E+00
   2.010000      0.0000000E+00
   2.020000      0.0000000E+00
   2.030000      0.0000000E+00
   2.040000      0.0000000E+00
   2.050000      0.0000000E+00
   2.060000      0.0000000E+00
   2.070000      0.0000000E+00
   2.080000      0.0000000E+00
   2.090000      0.0000000E+00
   2.100000      0.0000000E+00
   2.110000      0.0000000E+00
   2.120000      0.0000000E+00
   2.130000      0.0000000E+00
   2.140000      0.0000000E+00
   2.150000      0.0000000E+00
   2.160000      1.3774636E-38
   2.170000      1.5746580E-38
   2.180000      1.5746580E-38
   2.190000      1.5746580E-38
   2.200000      1.5746580E-38
   2.210000      1.5746580E-38
   2.220000      1.5746580E-38
   2.230000      1.5746580E-38
   2.240000      1.5746580E-38
   2.250000      1.5746580E-38
   2.260000      1.3591516E-38
   2.270000      0.0000000E+00
   2.280000      0.0000000E+00
   2.290000      0.0000000E+00
   2.300000      0.0000000E+00
   2.310000     -1.9166387E-38
   2.320000     -2.6721941E-38
   2.330000     -3.4028308E-38
   2.340000     -3.8953199E-38
   2.350000     -4.1020151E-38
   2.360000     -4.1856589E-38
   2.370000     -4.1563858E-38
   2.380000     -4.0423248E-38
   2.390000     -3.7390390E-38
   2.400000     -3.5097644E-38
   2.410000     -3.5097644E-38
   2.420000     -3.5979148E-38
   2.430000     -4.0092567E-38
   2.440000     -4.7393153E-38
   2.450000     -5.6360701E-38
   2.460000     -6.6888779E-38
   2.470000     -7.8704253E-38
   2.480000     -9.1282185E-38
   2.490000     -1.0382233E-37
   2.500000     -1.1540756E-37
   2.510000     -1.2513685E-37
   2.520000     -1.3242779E-37
   2.530000     -1.3542619E-37
   2.540000     -1.3033623E-37
   2.550000     -1.1945377E-37
   2.560000     -1.0654096E-37
   2.570000     -9.1130542E-38
   2.580000     -7.3431705E-38
   2.590000     -5.3458970E-38
   2.600000     -3.1368304E-38
   2.610000      0.0000000E+00
   2.620000      1.9958943E-38
   2.630000      4.8946414E-38
   2.640000      7.9941421E-38
   2.650000      1.1541529E-37
   2.660000      1.5690804E-37
   2.670000      1.8940818E-37
   2.680000      2.1258115E-37
   2.690000      2.4083816E-37
   2.700000      2.7465580E-37
   2.710000      3.1340067E-37
   2.720000      3.5561946E-37
   2.730000      4.0037505E-37
   2.740000      4.4658678E-37
   2.750000      4.9325275E-37
   2.760000      5.4530250E-37
   2.770000      6.0410188E-37
   2.780000      6.6526252E-37
   2.790000      7.2709404E-37
   2.800000      7.8892601E-37
   2.810000      8.5035696E-37
   2.820000      9.1036357E-37
   2.830000      9.8877117E-37
   2.840000      1.0792001E-36
   2.850000      1.1604577E-36
   2.860000      1.2359366E-36
   2.870000      1.3104127E-36
   2.880000      1.3907161E-36
   2.890000      1.4659124E-36
   2.900000      1.9058154E-36
   2.910000      2.7511895E-36
   2.920000      3.6721399E-36
   2.930000      4.6008827E-36
   2.940000      5.5166390E-36
   2.950000      6.4756164E-36
   2.960000      7.4638503E-36
   2.970000      8.0518020E-36
   2.980000      8.1843974E-36
   2.990000      8.2270047E-36
   3.000000      8.1774745E-36
   3.010000      8.1033827E-36
   3.020000      7.4886588E-36
   3.030000      6.2673550E-36
   3.040000      4.9636372E-36
   3.050000      3.5623211E-36
   3.060000      2.0757419E-36
   3.070000      5.5207016E-37
   3.080000     -9.9507249E-37
   3.090000     -2.5785334E-36
   3.100000     -4.2217416E-36
   3.110000     -5.8718515E-36
   3.120000     -7.6968707E-36
   3.130000     -9.6311953E-36
   3.140000     -1.1290138E-35
   3.150000     -1.1920948E-35
   3.160000     -1.1734874E-35
   3.170000     -1.1596451E-35
   3.180000     -1.1637982E-35
   3.190000     -1.1090162E-35
   3.200000     -9.7864181E-36
   3.210000     -8.3970762E-36
   3.220000     -6.8575904E-36
   3.230000     -5.5370186E-36
   3.240000     -4.4831130E-36
   3.250000     -3.6152040E-36
   3.260000     -3.4623665E-36
   3.270000     -3.9061227E-36
   3.280000     -4.4511930E-36
   3.290000     -4.6072936E-36
   3.300000     -5.1273322E-36
   3.310000     -6.5893863E-36
   3.320000     -8.3433718E-36
   3.330000     -1.0324278E-35
   3.340000     -1.2579754E-35
   3.350000     -1.5163927E-35
   3.360000     -1.7993223E-35
   3.370000     -2.0923642E-35
   3.380000     -2.3926337E-35
   3.390000     -2.6944540E-35
   3.400000     -3.0004442E-35
   3.410000     -3.2847758E-35
   3.420000     -3.5216229E-35
   3.430000     -3.7095545E-35
   3.440000     -3.8047767E-35
   3.450000     -3.7961382E-35
   3.460000     -3.7162238E-35
   3.470000     -3.5805822E-35
   3.480000     -3.3921171E-35
   3.490000     -3.1508360E-35
   3.500000     -2.8300075E-35
   3.510000     -2.4614321E-35
   3.520000     -2.0631959E-35
   3.530000     -1.5901562E-35
   3.540000     -1.0561989E-35
   3.550000     -5.0311244E-36
   3.560000      6.2434573E-37
   3.570000      6.6352559E-36
   3.580000      1.2560642E-35
   3.590000      1.8894985E-35
   3.600000      2.5824919E-35
   3.610000      3.2381403E-35
   3.620000      3.8580850E-35
   3.630000      4.4592019E-35
   3.640000      5.0457521E-35
   3.650000      5.5756831E-35
   3.660000      6.0334239E-35
   3.670000      6.5876752E-35
   3.680000      7.2953269E-35
   3.690000      8.0138202E-35
   3.700000      8.3893517E-35
   3.710000      8.2477333E-35
   3.720000      8.0448492E-35
   3.730000      7.9478720E-35
   3.740000      7.8168354E-35
   3.750000      7.6717135E-35
   3.760000      7.7449575E-35
   3.770000      8.0374420E-35
   3.780000      8.3287706E-35
   3.790000      8.6402233E-35
   3.800000      8.9692050E-35
   3.810000      9.3101942E-35
   3.820000      9.6705647E-35
   3.830000      1.0038108E-34
   3.840000      1.0399605E-34
   3.850000      1.0889698E-34
   3.860000      1.1543074E-34
   3.870000      1.2223019E-34
   3.880000      1.3221780E-34
   3.890000      1.4508609E-34
   3.900000      1.5688518E-34
   3.910000      1.6612160E-34
   3.920000      1.7170358E-34
   3.930000      1.7466028E-34
   3.940000      1.7384943E-34
   3.950000      1.7043734E-34
   3.960000      1.6414232E-34
   3.970000      1.5215927E-34
   3.980000      1.3603250E-34
   3.990000      1.1794300E-34
   4.000000      9.7166512E-35
   4.010000      7.1233161E-35
   4.020000      4.1395676E-35
   4.030000      9.5473437E-36
   4.040000     -2.2973236E-35
   4.050000     -5.5128320E-35
   4.060000     -8.5318298E-35
   4.070000     -1.1107255E-34
   4.080000     -1.3392730E-34
   4.090000     -1.5664769E-34
   4.100000     -1.7974319E-34
   4.110000     -2.0197532E-34
   4.120000     -2.2513621E-34
   4.130000     -2.5036682E-34
   4.140000     -2.7639908E-34
   4.150000     -3.0349942E-34
   4.160000     -3.3110817E-34
   4.170000     -3.5999211E-34
   4.180000     -3.9078717E-34
   4.190000     -4.2306597E-34
   4.200000     -4.5689271E-34
   4.210000     -4.9172003E-34
   4.220000     -5.2760663E-34
   4.230000     -5.6539469E-34
   4.240000     -6.0835860E-34
   4.250000     -6.5690394E-34
   4.260000     -7.0390232E-34
   4.270000     -7.4893069E-34
   4.280000     -7.9563721E-34
   4.290000     -8.4556036E-34
   4.300000     -8.9847781E-34
   4.310000     -9.5010075E-34
   4.320000     -1.0025131E-33
   4.330000     -1.0570729E-33
   4.340000     -1.1102661E-33
   4.350000     -1.1615273E-33
   4.360000     -1.2103870E-33
   4.370000     -1.2558775E-33
   4.380000     -1.2970535E-33
   4.390000     -1.3319500E-33
   4.400000     -1.3586195E-33
   4.410000     -1.3762386E-33
   4.420000     -1.3848267E-33
   4.430000     -1.3852846E-33
   4.440000     -1.3777894E-33
   4.450000     -1.3624964E-33
   4.460000     -1.3393462E-33
   4.470000     -1.3114891E-33
   4.480000     -1.2773725E-33
   4.490000     -1.2342206E-33
   4.500000     -1.1820998E-33
   4.510000     -1.1211161E-33
   4.520000     -1.0521860E-33
   4.530000     -9.6991692E-34
   4.540000     -8.7541709E-34
   4.550000     -7.7390875E-34
   4.560000     -6.6318700E-34
   4.570000     -5.4272707E-34
   4.580000     -4.1234615E-34
   4.590000     -2.7196830E-34
   4.600000     -1.1947713E-34
   4.610000      4.7404456E-35
   4.620000      2.2605842E-34
   4.630000      4.1624278E-34
   4.640000      6.2187403E-34
   4.650000      8.4303737E-34
   4.660000      1.0788616E-33
   4.670000      1.3317227E-33
   4.680000      1.6020886E-33
   4.690000      1.8926447E-33
   4.700000      2.2052004E-33
   4.710000      2.5389054E-33
   4.720000      2.8935003E-33
   4.730000      3.2701750E-33
   4.740000      3.6671445E-33
   4.750000      4.0822197E-33
   4.760000      4.5155466E-33
   4.770000      4.9672593E-33
   4.780000      5.4356218E-33
   4.790000      5.9188708E-33
   4.800000      6.4159422E-33
   4.810000      6.9249173E-33
   4.820000      7.4448598E-33
   4.830000      7.9736412E-33
   4.840000      8.5087872E-33
   4.850000      9.0480849E-33
   4.860000      9.5903706E-33
   4.870000      1.0132919E-32
   4.880000      1.0673535E-32
   4.890000      1.1213043E-32
   4.900000      1.1747840E-32
   4.910000      1.2274594E-32
   4.920000      1.2793338E-32
   4.930000      1.3301527E-32
   4.940000      1.3793959E-32
   4.950000      1.4268017E-32
   4.960000      1.4722090E-32
   4.970000      1.5153863E-32
   4.980000      1.5559532E-32
   4.990000      1.5936981E-32
   5.000000      1.6281916E-32
   5.010000      1.6586813E-32
   5.020000      1.6850378E-32
   5.030000      1.7069233E-32
   5.040000      1.7236457E-32
   5.050000      1.7346400E-32
   5.060000      1.7393683E-32
   5.070000      1.7372788E-32
   5.080000      1.7277573E-32
   5.090000      1.7101155E-32
   5.100000      1.6836880E-32
   5.110000      1.6477530E-32
   5.120000      1.6014656E-32
   5.130000      1.5442073E-32
   5.140000      1.4753353E-32
   5.150000      1.3941150E-32
   5.160000      1.2997187E-32
   5.170000      1.1914559E-32
   5.180000      1.0687457E-32
   5.190000      9.3081344E-33
   5.200000      7.7694490E-33
   5.210000      6.0672054E-33
   5.220000      4.1967918E-33
   5.230000      2.1511201E-33
   5.240000     -7.5431157E-35
   5.250000     -2.4879883E-33
   5.260000     -5.0911524E-33
   5.270000     -7.8893943E-33
   5.280000     -1.0886560E-32
   5.290000     -1.4086110E-32
   5.300000     -1.7491429E-32
   5.310000     -2.1105069E-32
   5.320000     -2.4929473E-32
   5.330000     -2.8966720E-32
   5.340000     -3.3217807E-32
   5.350000     -3.7683110E-32
   5.360000     -4.2362736E-32
   5.370000     -4.7256310E-32
   5.380000     -5.2361303E-32
   5.390000     -5.7674378E-32
   5.400000     -6.3191867E-32
   5.410000     -6.8908948E-32
   5.420000     -7.4819792E-32
   5.430000     -8.0916658E-32
   5.440000     -8.7190483E-32
   5.450000     -9.3630635E-32
   5.460000     -1.0022474E-31
   5.470000     -1.0695900E-31
   5.480000     -1.1381782E-31
   5.490000     -1.2078269E-31
   5.500000     -1.2783260E-31
   5.510000     -1.3494760E-31
   5.520000     -1.4210465E-31
   5.530000     -1.4927654E-31
   5.540000     -1.5643547E-31
   5.550000     -1.6355168E-31
   5.560000     -1.7059162E-31
   5.570000     -1.7751957E-31
   5.580000     -1.8429933E-31
   5.590000     -1.9089178E-31
   5.600000     -1.9725562E-31
   5.610000     -2.0334719E-31
   5.620000     -2.0912021E-31
   5.630000     -2.1452650E-31
   5.640000     -2.1951619E-31
   5.650000     -2.2403672E-31
   5.660000     -2.2803358E-31
   5.670000     -2.3145037E-31
   5.680000     -2.3422846E-31
   5.690000     -2.3630725E-31
   5.700000     -2.3762440E-31
   5.710000     -2.3811559E-31
   5.720000     -2.3771472E-31
   5.730000     -2.3635416E-31
   5.740000     -2.3396475E-31
   5.750000     -2.3047584E-31
   5.760000     -2.2581538E-31
   5.770000     -2.1991045E-31
   5.780000     -2.1268711E-31
   5.790000     -2.0407085E-31
   5.800000     -1.9398670E-31
   5.810000     -1.8235934E-31
   5.820000     -1.6911364E-31
   5.830000     -1.5417497E-31
   5.840000     -1.3746948E-31
   5.850000     -1.1892408E-31
   5.860000     -9.8467759E-32
   5.870000     -7.6031533E-32
   5.880000     -5.1548090E-32
   5.890000     -2.4953497E-32
   5.900000      3.8126843E-33
   5.910000      3.4807405E-32
   5.920000      6.8083087E-32
   5.930000      1.0368735E-31
   5.940000      1.4166205E-31
   5.950000      1.8204300E-31
   5.960000      2.2485973E-31
   5.970000      2.7013427E-31
   5.980000      3.1788111E-31
   5.990000      3.6810627E-31
   6.000000      4.2080676E-31
   6.010000      4.7597003E-31
   6.020000      5.3357334E-31
   6.030000      5.9358318E-31
   6.040000      6.5595444E-31
   6.050000      7.2063028E-31
   6.060000      7.8754097E-31
   6.070000      8.5660342E-31
   6.080000      9.2772074E-31
   6.090000      1.0007815E-30
   6.100000      1.0756589E-30
   6.110000      1.1522104E-30
   6.120000      1.2302771E-30
   6.130000      1.3096833E-30
   6.140000      1.3902354E-30
   6.150000      1.4717219E-30
   6.160000      1.5539127E-30
   6.170000      1.6365584E-30
   6.180000      1.7193899E-30
   6.190000      1.8021188E-30
   6.200000      1.8844354E-30
   6.210000      1.9660100E-30
   6.220000      2.0464915E-30
   6.230000      2.1255080E-30
   6.240000      2.2026658E-30
   6.250000      2.2775500E-30
   6.260000      2.3497246E-30
   6.270000      2.4187323E-30
   6.280000      2.4840945E-30
   6.290000      2.5453122E-30
   6.300000      2.6018663E-30
   6.310000      2.6532170E-30
   6.320000      2.6988060E-30
   6.330000      2.7380562E-30
   6.340000      2.7703735E-30
   6.350000      2.7951461E-30
   6.360000      2.8117475E-30
   6.370000      2.8195366E-30
   6.380000      2.8178593E-30
   6.390000      2.8060491E-30
   6.400000      2.7834307E-30
   6.410000      2.7493199E-30
   6.420000      2.7030261E-30
   6.430000      2.6438544E-30
   6.440000      2.5711073E-30
   6.450000      2.4840872E-30
   6.460000      2.3820992E-30
   6.470000      2.2644533E-30
   6.480000      2.1304669E-30
   6.490000      1.9794682E-30
   6.500000      1.8107981E-30
   6.510000      1.6238153E-30
   6.520000      1.4178976E-30
   6.530000      1.1924465E-30
   6.540000      9.4689013E-31
   6.550000      6.8068787E-31
   6.560000      3.9333372E-31
   6.570000      8.4360739E-32
   6.580000     -2.4665678E-31
   6.590000     -6.0009701E-31
   6.600000     -9.7628596E-31
   6.610000     -1.3754934E-30
   6.620000     -1.7979290E-30
   6.630000     -2.2437370E-30
   6.640000     -2.7129921E-30
   6.650000     -3.2056931E-30
   6.660000     -3.7217599E-30
   6.670000     -4.2610267E-30
   6.680000     -4.8232388E-30
   6.690000     -5.4080474E-30
   6.700000     -6.0150031E-30
   6.710000     -6.6435518E-30
   6.720000     -7.2930318E-30
   6.730000     -7.9626656E-30
   6.740000     -8.6515572E-30
   6.750000     -9.3586864E-30
   6.760000     -1.0082909E-29
   6.770000     -1.0822945E-29
   6.780000     -1.1577378E-29
   6.790000     -1.2344656E-29
   6.800000     -1.3123076E-29
   6.810000     -1.3910795E-29
   6.820000     -1.4705814E-29
   6.830000     -1.5505982E-29
   6.840000     -1.6308993E-29
   6.850000     -1.7112380E-29
   6.860000     -1.7913518E-29
   6.870000     -1.8709622E-29
   6.880000     -1.9497740E-29
   6.890000     -2.0274760E-29
   6.900000     -2.1037402E-29
   6.910000     -2.1782227E-29
   6.920000     -2.2505635E-29
   6.930000     -2.3203863E-29
   6.940000     -2.3872988E-29
   6.950000     -2.4508933E-29
   6.960000     -2.5107470E-29
   6.970000     -2.5664223E-29
   6.980000     -2.6174670E-29
   6.990000     -2.6634158E-29
   7.000000     -2.7037896E-29
   7.010000     -2.7380970E-29
   7.020000     -2.7658355E-29
   7.030000     -2.7864920E-29
   7.040000     -2.7995432E-29
   7.050000     -2.8044579E-29
   7.060000     -2.8006973E-29