  -2.600000      0.0000000E+00
  -2.590000      0.0000000E+00
  -2.580000      0.0000000E+00
  -2.570000      0.0000000E+00
  -2.560000      0.0000000E+00
  -2.550000      0.0000000E+00
  -2.540000      0.0000000E+00
  -2.530000      0.0000000E+00
  -2.520000      0.0000000E+00
  -2.510000      0.0000000E+00
  -2.500000      0.0000000E+00
  -2.490000      0.0000000E+00
  -2.480000      0.0000000E+00
  -2.470000      0.0000000E+00
  -2.460000      0.0000000E+00
  -2.450000      0.0000000E+00
  -2.440000      0.0000000E+00
  -2.430000      0.0000000E+00
  -2.420000      0.0000000E+00
  -2.410000      0.0000000E+00
  -2.400000      0.0000000E+00
  -2.390000      0.0000000E+00
  -2.380000      0.0000000E+00
  -2.370000      0.0000000E+00
  -2.360000      0.0000000E+00
  -2.350000      0.0000000E+00
  -2.340000      0.0000000E+00
  -2.330000      0.0000000E+00
  -2.320000      0.0000000E+00
  -2.310000      0.0000000E+00
  -2.300000      0.0000000E+00
  -2.290000      0.0000000E+00
  -2.280000      0.0000000E+00
  -2.270000      0.0000000E+00
  -2.260000      0.0000000E+00
  -2.250000      0.0000000E+00
  -2.240000      0.0000000E+00
  -2.230000      0.0000000E+00
  -2.220000      0.0000000E+00
  -2.210000      0.0000000E+00
  -2.200000      0.0000000E+00
  -2.190000      0.0000000E+00
  -2.180000      0.0000000E+00
  -2.170000      0.0000000E+00
  -2.160000      0.0000000E+00
  -2.150000      0.0000000E+00
  -2.140000      0.0000000E+00
  -2.130000      0.0000000E+00
  -2.120000      0.0000000E+00
  -2.110000      0.0000000E+00
  -2.100000      0.0000000E+00
  -2.090000      0.0000000E+00
  -2.080000      0.0000000E+00
  -2.070000      0.0000000E+00
  -2.060000      0.0000000E+00
  -2.050000      0.0000000E+00
  -2.040000      0.0000000E+00
  -2.030000      0.0000000E+00
  -2.020000      0.0000000E+00
  -2.010000      0.0000000E+00
  -2.000000      0.0000000E+00
  -1.990000      0.0000000E+00
  -1.980000      0.0000000E+00
  -1.970000      0.0000000E+00
  -1.960000      0.0000000E+00
  -1.950000      0.0000000E+00
  -1.940000      0.0000000E+00
  -1.930000      0.0000000E+00
  -1.920000      0.0000000E+00
  -1.910000      0.0000000E+00
  -1.900000      0.0000000E+00
  -1.890000      0.0000000E+00
  -1.880000      0.0000000E+00
  -1.870000      0.0000000E+00
  -1.860000      0.0000000E+00
  -1.850000      0.0000000E+00
  -1.840000      0.0000000E+00
  -1.830000      0.0000000E+00
  -1.820000      0.0000000E+00
  -1.810000      0.0000000E+00
  -1.800000      0.0000000E+00
  -1.790000      0.0000000E+00
  -1.780000      0.0000000E+00
  -1.770000      0.0000000E+00
  -1.760000      0.0000000E+00
  -1.750000      0.0000000E+00
  -1.740000      0.0000000E+00
  -1.730000      0.0000000E+00
  -1.720000      0.0000000E+00
  -1.710000      0.0000000E+00
  -1.700000      0.0000000E+00
  -1.690000      0.0000000E+00
  -1.680000      0.0000000E+00
  -1.670000      0.0000000E+00
  -1.660000      0.0000000E+00
  -1.650000      0.0000000E+00
  -1.640000      0.0000000E+00
  -1.630000      0.0000000E+00
  -1.620000      0.0000000E+00
  -1.610000      0.0000000E+00
  -1.600000      0.0000000E+00
  -1.590000      0.0000000E+00
  -1.580000      0.0000000E+00
  -1.570000      0.0000000E+00
  -1.560000      0.0000000E+00
  -1.550000      0.0000000E+00
  -1.540000      0.0000000E+00
  -1.530000      0.0000000E+00
  -1.520000      0.0000000E+00
  -1.510000      0.0000000E+00
  -1.500000      0.0000000E+00
  -1.490000      0.0000000E+00
  -1.480000      0.0000000E+00
  -1.470000      0.0000000E+00
  -1.460000      0.0000000E+00
  -1.450000      0.0000000E+00
  -1.440000      0.0000000E+00
  -1.430000      0.0000000E+00
  -1.420000      0.0000000E+00
  -1.410000      0.0000000E+00
  -1.400000      0.0000000E+00
  -1.390000      0.0000000E+00
  -1.380000      0.0000000E+00
  -1.370000      0.0000000E+00
  -1.360000      0.0000000E+00
  -1.350000      0.0000000E+00
  -1.340000      0.0000000E+00
  -1.330000      0.0000000E+00
  -1.320000      0.0000000E+00
  -1.310000      0.0000000E+00
  -1.300000      0.0000000E+00
  -1.290000      0.0000000E+00
  -1.280000      0.0000000E+00
  -1.270000      0.0000000E+00
  -1.260000      0.0000000E+00
  -1.250000      0.0000000E+00
  -1.240000      0.0000000E+00
  -1.230000      0.0000000E+00
  -1.220000      0.0000000E+00
  -1.210000      0.0000000E+00
  -1.200000      0.0000000E+00
  -1.190000      0.0000000E+00
  -1.180000      0.0000000E+00
  -1.170000      0.0000000E+00
  -1.160000      0.0000000E+00
  -1.150000      0.0000000E+00
  -1.140000      0.0000000E+00
  -1.130000      0.0000000E+00
  -1.120000      0.0000000E+00
  -1.110000      0.0000000E+00
  -1.100000      0.0000000E+00
  -1.090000      0.0000000E+00
  -1.080000      0.0000000E+00
  -1.070000      0.0000000E+00
  -1.060000      0.0000000E+00
  -1.050000      0.0000000E+00
  -1.040000      0.0000000E+00
  -1.030000      0.0000000E+00
  -1.020000      0.0000000E+00
  -1.010000      0.0000000E+00
  -1.000000      0.0000000E+00
 -0.9900000      0.0000000E+00
 -0.9800000      0.0000000E+00
 -0.9700000      0.0000000E+00
 -0.9600000      0.0000000E+00
 -0.9500000      0.0000000E+00
 -0.9400000      0.0000000E+00
 -0.9300000      0.0000000E+00
 -0.9200000      0.0000000E+00
 -0.9100000      0.0000000E+00
 -0.9000000      0.0000000E+00
 -0.8900000      0.0000000E+00
 -0.8800000      0.0000000E+00
 -0.8700000      0.0000000E+00
 -0.8600000      0.0000000E+00
 -0.8500000      0.0000000E+00
 -0.8400000      0.0000000E+00
 -0.8300000      0.0000000E+00
 -0.8200000      0.0000000E+00
 -0.8100000      0.0000000E+00
 -0.8000000      0.0000000E+00
 -0.7900000      0.0000000E+00
 -0.7800000      0.0000000E+00
 -0.7700000      0.0000000E+00
 -0.7600000      0.0000000E+00
 -0.7500000      0.0000000E+00
 -0.7400000      0.0000000E+00
 -0.7300000      0.0000000E+00
 -0.7200000      0.0000000E+00
 -0.7100000      0.0000000E+00
 -0.7000000      0.0000000E+00
 -0.6900000      0.0000000E+00
 -0.6800000      0.0000000E+00
 -0.6700000      0.0000000E+00
 -0.6600000      0.0000000E+00
 -0.6500000      0.0000000E+00
 -0.6400000      0.0000000E+00
 -0.6300000      0.0000000E+00
 -0.6200000      0.0000000E+00
 -0.6100000      0.0000000E+00
 -0.6000000      0.0000000E+00
 -0.5900000      0.0000000E+00
 -0.5800000      0.0000000E+00
 -0.5700000      0.0000000E+00
 -0.5600000      0.0000000E+00
 -0.5500000      0.0000000E+00
 -0.5400000      0.0000000E+00
 -0.5300000      0.0000000E+00
 -0.5200000      0.0000000E+00
 -0.5100000      0.0000000E+00
 -0.5000000      0.0000000E+00
 -0.4900000      0.0000000E+00
 -0.4800000      0.0000000E+00
 -0.4700000      0.0000000E+00
 -0.4600000      0.0000000E+00
 -0.4500000      0.0000000E+00
 -0.4400000      0.0000000E+00
 -0.4300000      0.0000000E+00
 -0.4200000      0.0000000E+00
 -0.4100000      0.0000000E+00
 -0.4000000      0.0000000E+00
 -0.3900000      0.0000000E+00
 -0.3800000      0.0000000E+00
 -0.3700000      0.0000000E+00
 -0.3600000      0.0000000E+00
 -0.3500000      0.0000000E+00
 -0.3400000      0.0000000E+00
 -0.3300000      0.0000000E+00
 -0.3200000      0.0000000E+00
 -0.3100000      0.0000000E+00
 -0.3000000      0.0000000E+00
 -0.2900000      0.0000000E+00
 -0.2800000      0.0000000E+00
 -0.2700000      0.0000000E+00
 -0.2600000      0.0000000E+00
 -0.2500000      0.0000000E+00
 -0.2400000      0.0000000E+00
 -0.2300000      0.0000000E+00
 -0.2200000      0.0000000E+00
 -0.2100000      0.0000000E+00
 -0.2000000      0.0000000E+00
 -0.1900000      0.0000000E+00
 -0.1800000      0.0000000E+00
 -0.1700000      0.0000000E+00
 -0.1600000      0.0000000E+00
 -0.1500000      0.0000000E+00
 -0.1400000      0.0000000E+00
 -0.1300000      0.0000000E+00
 -0.1200000      0.0000000E+00
 -0.1100000      0.0000000E+00
 -0.1000000      0.0000000E+00
 -9.0000004E-02  0.0000000E+00
 -7.9999998E-02  0.0000000E+00
 -7.0000000E-02  0.0000000E+00
 -5.9999999E-02  0.0000000E+00
 -5.0000001E-02  0.0000000E+00
 -3.9999999E-02  0.0000000E+00
 -2.9999999E-02  0.0000000E+00
 -2.0000000E-02  0.0000000E+00
 -9.9999998E-03  0.0000000E+00
 -3.4694470E-17  0.0000000E+00
  9.9999998E-03  0.0000000E+00
  2.0000000E-02  0.0000000E+00
  2.9999999E-02  0.0000000E+00
  3.9999999E-02  0.0000000E+00
  5.0000001E-02  0.0000000E+00
  5.9999999E-02  0.0000000E+00
  7.0000000E-02  0.0000000E+00
  7.9999998E-02  0.0000000E+00
  9.0000004E-02  0.0000000E+00
  0.1000000      0.0000000E+00
  0.1100000      0.0000000E+00
  0.1200000      0.0000000E+00
  0.1300000      0.0000000E+00
  0.1400000      0.0000000E+00
  0.1500000      0.0000000E+00
  0.1600000      0.0000000E+00
  0.1700000      0.0000000E+00
  0.1800000      0.0000000E+00
  0.1900000      0.0000000E+00
  0.2000000      0.0000000E+00
  0.2100000      0.0000000E+00
  0.2200000      0.0000000E+00
  0.2300000      0.0000000E+00
  0.2400000      0.0000000E+00
  0.2500000      0.0000000E+00
  0.2600000      0.0000000E+00
  0.2700000      0.0000000E+00
  0.2800000      0.0000000E+00
  0.2900000      0.0000000E+00
  0.3000000      0.0000000E+00
  0.3100000      0.0000000E+00
  0.3200000      0.0000000E+00
  0.3300000      0.0000000E+00
  0.3400000      0.0000000E+00
  0.3500000      0.0000000E+00
  0.3600000      0.0000000E+00
  0.3700000      0.0000000E+00
  0.3800000      0.0000000E+00
  0.3900000      0.0000000E+00
  0.4000000      0.0000000E+00
  0.4100000      0.0000000E+00
  0.4200000      0.0000000E+00
  0.4300000      0.0000000E+00
  0.4400000      0.0000000E+00
  0.4500000      0.0000000E+00
  0.4600000      0.0000000E+00
  0.4700000      0.0000000E+00
  0.4800000      0.0000000E+00
  0.4900000      0.0000000E+00
  0.5000000      0.0000000E+00
  0.5100000      0.0000000E+00
  0.5200000      0.0000000E+00
  0.5300000      0.0000000E+00
  0.5400000      0.0000000E+00
  0.5500000      0.0000000E+00
  0.5600000      0.0000000E+00
  0.5700000      0.0000000E+00
  0.5800000      0.0000000E+00
  0.5900000      0.0000000E+00
  0.6000000      0.0000000E+00
  0.6100000      0.0000000E+00
  0.6200000      0.0000000E+00
  0.6300000      0.0000000E+00
  0.6400000      0.0000000E+00
  0.6500000      0.0000000E+00
  0.6600000      0.0000000E+00
  0.6700000      0.0000000E+00
  0.6800000      0.0000000E+00
  0.6900000      1.5905116E-38
  0.7000000      2.4164173E-38
  0.7100000      3.3395756E-38
  0.7200000      3.8883095E-38
  0.7300000      4.0081298E-38
  0.7400000      3.7016961E-38
  0.7500000      1.6853010E-38
  0.7600000     -2.0346786E-38
  0.7700000     -6.4779870E-38
  0.7800000     -1.1338357E-37
  0.7900000     -1.5380912E-37
  0.8000000     -1.6790430E-37
  0.8100000     -1.5989481E-37
  0.8200000     -1.3653053E-37
  0.8300000     -8.8717495E-38
  0.8400000     -1.9723593E-38
  0.8500000      6.1842816E-38
  0.8600000      1.5844262E-37
  0.8700000      2.6739010E-37
  0.8800000      3.7281422E-37
  0.8900000      4.4981824E-37
  0.9000000      5.1163676E-37
  0.9100000      5.9340914E-37
  0.9200000      6.5434625E-37
  0.9300000      6.0897288E-37
  0.9400000      4.4106930E-37
  0.9500000      1.9095308E-37
  0.9600000     -9.2520300E-38
  0.9700000     -3.7985789E-37
  0.9800000     -6.1047408E-37
  0.9900000     -7.7226227E-37
   1.000000     -9.3707469E-37
   1.010000     -1.1203290E-36
   1.020000     -1.2898335E-36
   1.030000     -1.4015020E-36
   1.040000     -1.4571865E-36
   1.050000     -1.5222743E-36
   1.060000     -1.5875410E-36
   1.070000     -1.6527763E-36
   1.080000     -1.7844193E-36
   1.090000     -1.9599975E-36
   1.100000     -2.1494600E-36
   1.110000     -2.3497057E-36
   1.120000     -2.5550567E-36
   1.130000     -2.7758543E-36
   1.140000     -2.9622877E-36
   1.150000     -3.0217946E-36
   1.160000     -2.5857948E-36
   1.170000     -1.4478277E-36
   1.180000      7.1961627E-37
   1.190000      3.7427266E-36
   1.200000      6.8893741E-36
   1.210000      9.8217238E-36
   1.220000      1.1859386E-35
   1.230000      1.3185106E-35
   1.240000      1.4496956E-35
   1.250000      1.5606048E-35
   1.260000      1.6190698E-35
   1.270000      1.5859134E-35
   1.280000      1.4643674E-35
   1.290000      1.3040541E-35
   1.300000      1.1300052E-35
   1.310000      9.5063428E-36
   1.320000      8.5751151E-36
   1.330000      8.7419651E-36
   1.340000      9.5912770E-36
   1.350000      1.0997381E-35
   1.360000      1.2742703E-35
   1.370000      1.4558146E-35
   1.380000      1.5980227E-35
   1.390000      1.6608633E-35
   1.400000      1.5890230E-35
   1.410000      1.3852461E-35
   1.420000      1.0379385E-35
   1.430000      5.8387452E-36
   1.440000      8.1460221E-38
   1.450000     -7.6261581E-36
   1.460000     -1.8562537E-35
   1.470000     -3.2360504E-35
   1.480000     -4.6819716E-35
   1.490000     -6.1925938E-35
   1.500000     -7.7090848E-35
   1.510000     -9.1120706E-35
   1.520000     -1.0377018E-34
   1.530000     -1.1427542E-34
   1.540000     -1.2329968E-34
   1.550000     -1.3211159E-34
   1.560000     -1.4093301E-34
   1.570000     -1.4964872E-34
   1.580000     -1.5720268E-34
   1.590000     -1.6313579E-34
   1.600000     -1.7053787E-34
   1.610000     -1.8074998E-34
   1.620000     -1.9090914E-34
   1.630000     -1.9984781E-34
   1.640000     -2.0855513E-34
   1.650000     -2.1603123E-34
   1.660000     -2.2114876E-34
   1.670000     -2.2301477E-34
   1.680000     -2.1882792E-34
   1.690000     -1.9977361E-34
   1.700000     -1.6414065E-34
   1.710000     -1.1880782E-34
   1.720000     -6.4839884E-35
   1.730000     -2.9349322E-36
   1.740000      6.4854623E-35
   1.750000      1.3896512E-34
   1.760000      2.1590890E-34
   1.770000      2.9048917E-34
   1.780000      3.5583373E-34
   1.790000      4.1752531E-34
   1.800000      4.8478237E-34
   1.810000      5.5783608E-34
   1.820000      6.3816716E-34
   1.830000      7.2315981E-34
   1.840000      8.1518494E-34
   1.850000      9.0917022E-34
   1.860000      9.9918746E-34
   1.870000      1.0864368E-33
   1.880000      1.1718891E-33
   1.890000      1.2534544E-33
   1.900000      1.3282098E-33
   1.910000      1.3963831E-33
   1.920000      1.4558149E-33
   1.930000      1.5038047E-33
   1.940000      1.5422468E-33
   1.950000      1.5695158E-33
   1.960000      1.5793193E-33
   1.970000      1.5697037E-33
   1.980000      1.5355350E-33
   1.990000      1.4749107E-33
   2.000000      1.3913745E-33
   2.010000      1.2867777E-33
   2.020000      1.1586409E-33
   2.030000      9.9635526E-34
   2.040000      7.9802429E-34
   2.050000      5.7085160E-34
   2.060000      3.1513406E-34
   2.070000      3.0915872E-35
   2.080000     -2.8065153E-34
   2.090000     -6.2048276E-34
   2.100000     -9.8407226E-34
   2.110000     -1.3770718E-33
   2.120000     -1.7947433E-33
   2.130000     -2.2293313E-33
   2.140000     -2.6823290E-33
   2.150000     -3.1556403E-33
   2.160000     -3.6603447E-33
   2.170000     -4.1881607E-33
   2.180000     -4.7290696E-33
   2.190000     -5.2832961E-33
   2.200000     -5.8454359E-33
   2.210000     -6.4092492E-33
   2.220000     -6.9652044E-33
   2.230000     -7.5037998E-33
   2.240000     -8.0170529E-33
   2.250000     -8.4982335E-33
   2.260000     -8.9422809E-33
   2.270000     -9.3410526E-33
   2.280000     -9.6885721E-33
   2.290000     -9.9795121E-33
   2.300000     -1.0202052E-32
   2.310000     -1.0349359E-32
   2.320000     -1.0418568E-32
   2.330000     -1.0401214E-32
   2.340000     -1.0289172E-32
   2.350000     -1.0074577E-32
   2.360000     -9.7480852E-33
   2.370000     -9.3008015E-33
   2.380000     -8.7234744E-33
   2.390000     -8.0061517E-33
   2.400000     -7.1410797E-33
   2.410000     -6.1214934E-33
   2.420000     -4.9430680E-33
   2.430000     -3.6019413E-33
   2.440000     -2.0964874E-33
   2.450000     -4.2781584E-34
   2.460000      1.4017653E-33
   2.470000      3.3900386E-33
   2.480000      5.5335258E-33
   2.490000      7.8241624E-33
   2.500000      1.0255125E-32
   2.510000      1.2818867E-32
   2.520000      1.5504540E-32
   2.530000      1.8301226E-32
   2.540000      2.1196629E-32
   2.550000      2.4176160E-32
   2.560000      2.7223573E-32
   2.570000      3.0320034E-32
   2.580000      3.3444648E-32
   2.590000      3.6574037E-32
   2.600000      3.9681448E-32
   2.610000      4.2737695E-32
   2.620000      4.5709362E-32
   2.630000      4.8563798E-32
   2.640000      5.1266806E-32
   2.650000      5.3779407E-32
   2.660000      5.6061065E-32
   2.670000      5.8075028E-32
   2.680000      5.9784109E-32
   2.690000      6.1148481E-32
   2.700000      6.2128091E-32
   2.710000      6.2682554E-32
   2.720000      6.2775383E-32
   2.730000      6.2370784E-32
   2.740000      6.1431758E-32
   2.750000      5.9922705E-32
   2.760000      5.7809002E-32
   2.770000      5.5057281E-32
   2.780000      5.1635570E-32
   2.790000      4.7513681E-32
   2.800000      4.2664850E-32
   2.810000      3.7065541E-32
   2.820000      3.0696331E-32
   2.830000      2.3542041E-32
   2.840000      1.5593516E-32
   2.850000      6.8476513E-33
   2.860000     -2.6920092E-33
   2.870000     -1.3014885E-32
   2.880000     -2.4102877E-32
   2.890000     -3.5930995E-32
   2.900000     -4.8466846E-32
   2.910000     -6.1669737E-32
   2.920000     -7.5492886E-32
   2.930000     -8.9882254E-32
   2.940000     -1.0477555E-31
   2.950000     -1.2010355E-31
   2.960000     -1.3578957E-31
   2.970000     -1.5174914E-31
   2.980000     -1.6788985E-31
   2.990000     -1.8411114E-31
   3.000000     -2.0030393E-31
   3.010000     -2.1635077E-31
   3.020000     -2.3212590E-31
   3.030000     -2.4749507E-31
   3.040000     -2.6231629E-31
   3.050000     -2.7644058E-31
   3.060000     -2.8971250E-31
   3.070000     -3.0197112E-31
   3.080000     -3.1305117E-31
   3.090000     -3.2278384E-31
   3.100000     -3.3099814E-31
   3.110000     -3.3752190E-31
   3.120000     -3.4218250E-31
   3.130000     -3.4480837E-31
   3.140000     -3.4522945E-31
   3.150000     -3.4327792E-31
   3.160000     -3.3878946E-31
   3.170000     -3.3160395E-31
   3.180000     -3.2156659E-31
   3.190000     -3.0852902E-31
   3.200000     -2.9235045E-31
   3.210000     -2.7289927E-31
   3.220000     -2.5005478E-31
   3.230000     -2.2370875E-31
   3.240000     -1.9376735E-31
   3.250000     -1.6015302E-31
   3.260000     -1.2280629E-31
   3.270000     -8.1687706E-32
   3.280000     -3.6779279E-32
   3.290000      1.1913914E-32
   3.300000      6.4362348E-32
   3.310000      1.2051103E-31
   3.320000      1.8027835E-31
   3.330000      2.4355533E-31
   3.340000      3.1020485E-31
   3.350000      3.8006079E-31
   3.360000      4.5292738E-31
   3.370000      5.2857853E-31
   3.380000      6.0675703E-31
   3.390000      6.8717373E-31
   3.400000      7.6950681E-31
   3.410000      8.5340119E-31
   3.420000      9.3846786E-31
   3.430000      1.0242837E-30
   3.440000      1.1103911E-30
   3.450000      1.1962980E-30
   3.460000      1.2814786E-30
   3.470000      1.3653743E-30
   3.480000      1.4473940E-30
   3.490000      1.5269164E-30
   3.500000      1.6032910E-30
   3.510000      1.6758400E-30
   3.520000      1.7438611E-30
   3.530000      1.8066286E-30
   3.540000      1.8633961E-30
   3.550000      1.9133992E-30
   3.560000      1.9558577E-30
   3.570000      1.9899776E-30
   3.580000      2.0149555E-30
   3.590000      2.0299793E-30
   3.600000      2.0342328E-30
   3.610000      2.0268996E-30
   3.620000      2.0071656E-30
   3.630000      1.9742238E-30
   3.640000      1.9272790E-30
   3.650000      1.8655530E-30
   3.660000      1.7882886E-30
   3.670000      1.6947563E-30
   3.680000      1.5842587E-30
   3.690000      1.4561376E-30
   3.700000      1.3097784E-30
   3.710000      1.1446167E-30
   3.720000      9.6014416E-31
   3.730000      7.5591354E-31
   3.740000      5.3154439E-31
   3.750000      2.8672886E-31
   3.760000      2.1237918E-32
   3.770000     -2.6507353E-31
   3.780000     -5.7226126E-31
   3.790000     -9.0028460E-31
   3.800000     -1.2490012E-30
   3.810000     -1.6181614E-30
   3.820000     -2.0074013E-30
   3.830000     -2.4162363E-30
   3.840000     -2.8440565E-30
   3.850000     -3.2901192E-30
   3.860000     -3.7535434E-30
   3.870000     -4.2333050E-30
   3.880000     -4.7282310E-30
   3.890000     -5.2369959E-30
   3.900000     -5.7581171E-30
   3.910000     -6.2899503E-30
   3.920000     -6.8306860E-30
   3.930000     -7.3783475E-30
   3.940000     -7.9307884E-30
   3.950000     -8.4856895E-30
   3.960000     -9.0405589E-30
   3.970000     -9.5927298E-30
   3.980000     -1.0139359E-29
   3.990000     -1.0677428E-29
   4.000000     -1.1203742E-29
   4.010000     -1.1714933E-29
   4.020000     -1.2207460E-29
   4.030000     -1.2677613E-29
   4.040000     -1.3121513E-29
   4.050000     -1.3535123E-29
   4.060000     -1.3914247E-29
   4.070000     -1.4254543E-29
   4.080000     -1.4551523E-29
   4.090000     -1.4800572E-29
   4.100000     -1.4996946E-29
   4.110000     -1.5135790E-29
   4.120000     -1.5212155E-29
   4.130000     -1.5220994E-29
   4.140000     -1.5157195E-29
   4.150000     -1.5015587E-29
   4.160000     -1.4790951E-29
   4.170000     -1.4478049E-29
   4.180000     -1.4071634E-29
   4.190000     -1.3566469E-29
   4.200000     -1.2957350E-29
   4.210000     -1.2239130E-29
   4.220000     -1.1406738E-29
   4.230000     -1.0455209E-29
   4.240000     -9.3797046E-30
   4.250000     -8.1755493E-30
   4.260000     -6.8382528E-30
   4.270000     -5.3635471E-30
   4.280000     -3.7474143E-30
   4.290000     -1.9861218E-30
   4.300000     -7.6259420E-32
   4.310000      1.9852224E-30
   4.320000      4.2009783E-30
   4.330000      6.5732297E-30
   4.340000      9.1037249E-30
   4.350000      1.1793702E-29
   4.360000      1.4643840E-29
   4.370000      1.7654214E-29
   4.380000      2.0824256E-29
   4.390000      2.4152713E-29
   4.400000      2.7637591E-29
   4.410000      3.1276118E-29
   4.420000      3.5064690E-29
   4.430000      3.8998820E-29
   4.440000      4.3073113E-29
   4.450000      4.7281171E-29
   4.460000      5.1615585E-29
   4.470000      5.6067877E-29
   4.480000      6.0628431E-29
   4.490000      6.5286479E-29
   4.500000      7.0030039E-29
   4.510000      7.4845857E-29
   4.520000      7.9719380E-29
   4.530000      8.4634715E-29
   4.540000      8.9574568E-29
   4.550000      9.4520212E-29
   4.560000      9.9451453E-29
   4.570000      1.0434660E-28
   4.580000      1.0918243E-28
   4.590000      1.1393414E-28
   4.600000      1.1857534E-28
   4.610000      1.2307805E-28
   4.620000      1.2741258E-28
   4.630000      1.3154768E-28
   4.640000      1.3545044E-28
   4.650000      1.3908628E-28
   4.660000      1.4241897E-28
   4.670000      1.4541067E-28
   4.680000      1.4802196E-28
   4.690000      1.5021177E-28
   4.700000      1.5193758E-28
   4.710000      1.5315533E-28
   4.720000      1.5381956E-28
   4.730000      1.5388343E-28
   4.740000      1.5329881E-28
   4.750000      1.5201641E-28
   4.760000      1.4998584E-28
   4.770000      1.4715575E-28
   4.780000      1.4347392E-28
   4.790000      1.3888752E-28
   4.800000      1.3334313E-28
   4.810000      1.2678699E-28
   4.820000      1.1916515E-28
   4.830000      1.1042374E-28
   4.840000      1.0050912E-28
   4.850000      8.9368199E-29
   4.860000      7.6948569E-29
   4.870000      6.3198880E-29
   4.880000      4.8069135E-29
   4.890000      3.1510925E-29
   4.900000      1.3477816E-29
   4.910000     -6.0742503E-30
   4.920000     -2.7186668E-29
   4.930000     -4.9897775E-29
   4.940000     -7.4242403E-29
   4.950000     -1.0025151E-28
   4.960000     -1.2795172E-28
   4.970000     -1.5736486E-28
   4.980000     -1.8850741E-28
   4.990000     -2.2139008E-28
   5.000000     -2.5601724E-28
   5.010000     -2.9238652E-28
   5.020000     -3.3048818E-28
   5.030000     -3.7030457E-28
   5.040000     -4.1180951E-28
   5.050000     -4.5496787E-28
   5.060000     -4.9973481E-28
   5.070000     -5.4605526E-28
   5.080000     -5.9386344E-28
   5.090000     -6.4308226E-28
   5.100000     -6.9362242E-28
   5.110000     -7.4538203E-28
   5.120000     -7.9824625E-28
   5.130000     -8.5208620E-28
   5.140000     -9.0675911E-28
   5.150000     -9.6210697E-28
   5.160000     -1.0179568E-27
   5.170000     -1.0741195E-27
   5.180000     -1.1303900E-27
   5.190000     -1.1865462E-27
   5.200000     -1.2423488E-27
   5.210000     -1.2975416E-27
   5.220000     -1.3518499E-27
   5.230000     -1.4049813E-27
   5.240000     -1.4566250E-27
   5.250000     -1.5064515E-27
   5.260000     -1.5541132E-27
   5.270000     -1.5992437E-27
   5.280000     -1.6414582E-27
   5.290000     -1.6803535E-27
   5.300000     -1.7155086E-27
   5.310000     -1.7464843E-27
   5.320000     -1.7728245E-27
   5.330000     -1.7940559E-27
   5.340000     -1.8096895E-27
   5.350000     -1.8192203E-27
   5.360000     -1.8221296E-27
   5.370000     -1.8178851E-27
   5.380000     -1.8059418E-27
   5.390000     -1.7857442E-27
   5.400000     -1.7567272E-27
   5.410000     -1.7183178E-27
   5.420000     -1.6699363E-27
   5.430000     -1.6109990E-27
   5.440000     -1.5409203E-27
   5.450000     -1.4591143E-27
   5.460000     -1.3649979E-27
   5.470000     -1.2579926E-27
   5.480000     -1.1375278E-27
   5.490000     -1.0030436E-27
   5.500000     -8.5399441E-28
   5.510000     -6.8985178E-28
   5.520000     -5.1010749E-28
   5.530000     -3.1427722E-28
   5.540000     -1.0190514E-28
   5.550000      1.2743287E-28
   5.560000      3.7412525E-28
   5.570000      6.3851959E-28
   5.580000      9.2091913E-28
   5.590000      1.2215783E-27
   5.600000      1.5406969E-27
   5.610000      1.8784165E-27
   5.620000      2.2348146E-27
   5.630000      2.6099001E-27
   5.640000      3.0036079E-27
   5.650000      3.4157943E-27
   5.660000      3.8462308E-27
   5.670000      4.2946004E-27
   5.680000      4.7604894E-27
   5.690000      5.2433847E-27
   5.700000      5.7426686E-27
   5.710000      6.2576102E-27
   5.720000      6.7873654E-27
   5.730000      7.3309676E-27
   5.740000      7.8873272E-27
   5.750000      8.4552200E-27
   5.760000      9.0332894E-27
   5.770000      9.6200370E-27
   5.780000      1.0213822E-26
   5.790000      1.0812856E-26
   5.800000      1.1415197E-26
   5.810000      1.2018753E-26
   5.820000      1.2621269E-26
   5.830000      1.3220333E-26
   5.840000      1.3813372E-26
   5.850000      1.4397650E-26
   5.860000      1.4970263E-26
   5.870000      1.5528149E-26
   5.880000      1.6068077E-26
   5.890000      1.6586654E-26
   5.900000      1.7080328E-26
   5.910000      1.7545387E-26
   5.920000      1.7977961E-26
   5.930000      1.8374037E-26
   5.940000      1.8729447E-26
   5.950000      1.9039884E-26
   5.960000      1.9300907E-26
   5.970000      1.9507946E-26
   5.980000      1.9656314E-26
   5.990000      1.9741218E-26
   6.000000      1.9757767E-26
   6.010000      1.9700983E-26
   6.020000      1.9565818E-26
   6.030000      1.9347167E-26
   6.040000      1.9039877E-26
   6.050000      1.8638780E-26
   6.060000      1.8138689E-26
   6.070000      1.7534435E-26
   6.080000      1.6820876E-26
   6.090000      1.5992930E-26
   6.100000      1.5045579E-26
   6.110000      1.3973916E-26
   6.120000      1.2773153E-26
   6.130000      1.1438656E-26
   6.140000      9.9659702E-27
   6.150000      8.3508446E-27
   6.160000      6.5892673E-27
   6.170000      4.6774991E-27
   6.180000      2.6121010E-27
   6.190000      3.8996622E-28
   6.200000     -1.9916448E-27
   6.210000     -4.5350712E-27
   6.220000     -7.2422115E-27
   6.230000     -1.0114486E-26
   6.240000     -1.3152810E-26
   6.250000     -1.6357553E-26
   6.260000     -1.9728498E-26
   6.270000     -2.3264796E-26
   6.280000     -2.6964945E-26
   6.290000     -3.0826746E-26
   6.300000     -3.4847253E-26
   6.310000     -3.9022743E-26
   6.320000     -4.3348683E-26
   6.330000     -4.7819700E-26
   6.340000     -5.2429526E-26
   6.350000     -5.7170962E-26
   6.360000     -6.2035868E-26
   6.370000     -6.7015102E-26
   6.380000     -7.2098516E-26
   6.390000     -7.7274922E-26
   6.400000     -8.2532039E-26
   6.410000     -8.7856511E-26
   6.420000     -9.3233825E-26
   6.430000     -9.8648350E-26
   6.440000     -1.0408328E-25
   6.450000     -1.0952063E-25
   6.460000     -1.1494121E-25
   6.470000     -1.2032468E-25
   6.480000     -1.2564947E-25
   6.490000     -1.3089282E-25
   6.500000     -1.3603077E-25
   6.510000     -1.4103819E-25
   6.520000     -1.4588874E-25
   6.530000     -1.5055502E-25
   6.540000     -1.5500837E-25
   6.550000     -1.5921914E-25
   6.560000     -1.6315658E-25
   6.570000     -1.6678891E-25
   6.580000     -1.7008339E-25
   6.590000     -1.7300637E-25
   6.600000     -1.7552331E-25
   6.610000     -1.7759891E-25
   6.620000     -1.7919711E-25
   6.630000     -1.8028129E-25
   6.640000     -1.8081427E-25
   6.650000     -1.8075836E-25
   6.660000     -1.8007556E-25
   6.670000     -1.7872764E-25
   6.680000     -1.7667625E-25
   6.690000     -1.7388300E-25
   6.700000     -1.7030967E-25
   6.710000     -1.6591830E-25
   6.720000     -1.6067143E-25
   6.730000     -1.5453212E-25
   6.740000     -1.4746418E-25
   6.750000     -1.3943240E-25
   6.760000     -1.3040263E-25
   6.770000     -1.2034199E-25
   6.780000     -1.0921909E-25
   6.790000     -9.7004210E-26
   6.800000     -8.3669521E-26
   6.810000     -6.9189258E-26
   6.820000     -5.3539922E-26
   6.830000     -3.6700549E-26
   6.840000     -1.8652930E-26
   6.850000      6.1820151E-28
   6.860000      2.1124929E-26
   6.870000      4.2875866E-26
   6.880000      6.5875962E-26
   6.890000      9.0126305E-26
   6.900000      1.1562386E-25
   6.910000      1.4236119E-25
   6.920000      1.7032626E-25
   6.930000      1.9950221E-25
   6.940000      2.2986699E-25
   6.950000      2.6139335E-25
   6.960000      2.9404847E-25
   6.970000      3.2779377E-25
   6.980000      3.6258473E-25
   6.990000      3.9837066E-25
   7.000000      4.3509461E-25
   7.010000      4.7269305E-25
   7.020000      5.1109578E-25
   7.030000      5.5022575E-25
   7.040000      5.8999883E-25
   7.050000      6.3032382E-25
   7.060000      6.7110226E-25