  -2.600000      0.0000000E+00
  -2.590000      0.0000000E+00
  -2.580000      0.0000000E+00
  -2.570000      0.0000000E+00
  -2.560000      0.0000000E+00
  -2.550000      0.0000000E+00
  -2.540000      0.0000000E+00
  -2.530000      0.0000000E+00
  -2.520000      0.0000000E+00
  -2.510000      0.0000000E+00
  -2.500000      0.0000000E+00
  -2.490000      0.0000000E+00
  -2.480000      0.0000000E+00
  -2.470000      0.0000000E+00
  -2.460000      0.0000000E+00
  -2.450000      0.0000000E+00
  -2.440000      0.0000000E+00
  -2.430000      0.0000000E+00
  -2.420000      0.0000000E+00
  -2.410000      0.0000000E+00
  -2.400000      0.0000000E+00
  -2.390000      0.0000000E+00
  -2.380000      0.0000000E+00
  -2.370000      0.0000000E+00
  -2.360000      0.0000000E+00
  -2.350000      0.0000000E+00
  -2.340000      0.0000000E+00
  -2.330000      0.0000000E+00
  -2.320000      0.0000000E+00
  -2.310000      0.0000000E+00
  -2.300000      0.0000000E+00
  -2.290000      0.0000000E+00
  -2.280000      0.0000000E+00
  -2.270000      0.0000000E+00
  -2.260000      0.0000000E+00
  -2.250000      0.0000000E+00
  -2.240000      0.0000000E+00
  -2.230000      0.0000000E+00
  -2.220000      0.0000000E+00
  -2.210000      0.0000000E+00
  -2.200000      0.0000000E+00
  -2.190000      0.0000000E+00
  -2.180000      0.0000000E+00
  -2.170000      0.0000000E+00
  -2.160000      0.0000000E+00
  -2.150000      0.0000000E+00
  -2.140000      0.0000000E+00
  -2.130000      0.0000000E+00
  -2.120000      0.0000000E+00
  -2.110000      0.0000000E+00
  -2.100000      0.0000000E+00
  -2.090000      0.0000000E+00
  -2.080000      0.0000000E+00
  -2.070000      0.0000000E+00
  -2.060000      0.0000000E+00
  -2.050000      0.0000000E+00
  -2.040000      0.0000000E+00
  -2.030000      0.0000000E+00
  -2.020000      0.0000000E+00
  -2.010000      0.0000000E+00
  -2.000000      0.0000000E+00
  -1.990000      0.0000000E+00
  -1.980000      0.0000000E+00
  -1.970000      0.0000000E+00
  -1.960000      0.0000000E+00
  -1.950000      0.0000000E+00
  -1.940000      0.0000000E+00
  -1.930000      0.0000000E+00
  -1.920000      0.0000000E+00
  -1.910000      0.0000000E+00
  -1.900000      0.0000000E+00
  -1.890000      0.0000000E+00
  -1.880000      0.0000000E+00
  -1.870000      0.0000000E+00
  -1.860000      0.0000000E+00
  -1.850000      0.0000000E+00
  -1.840000      0.0000000E+00
  -1.830000      0.0000000E+00
  -1.820000      0.0000000E+00
  -1.810000      0.0000000E+00
  -1.800000      0.0000000E+00
  -1.790000      0.0000000E+00
  -1.780000      0.0000000E+00
  -1.770000      0.0000000E+00
  -1.760000      0.0000000E+00
  -1.750000      0.0000000E+00
  -1.740000      0.0000000E+00
  -1.730000      0.0000000E+00
  -1.720000      0.0000000E+00
  -1.710000      0.0000000E+00
  -1.700000      0.0000000E+00
  -1.690000      0.0000000E+00
  -1.680000      0.0000000E+00
  -1.670000      0.0000000E+00
  -1.660000      0.0000000E+00
  -1.650000      0.0000000E+00
  -1.640000      0.0000000E+00
  -1.630000      0.0000000E+00
  -1.620000      0.0000000E+00
  -1.610000      0.0000000E+00
  -1.600000      0.0000000E+00
  -1.590000      0.0000000E+00
  -1.580000      0.0000000E+00
  -1.570000      0.0000000E+00
  -1.560000      0.0000000E+00
  -1.550000      0.0000000E+00
  -1.540000      0.0000000E+00
  -1.530000      0.0000000E+00
  -1.520000      0.0000000E+00
  -1.510000      0.0000000E+00
  -1.500000      0.0000000E+00
  -1.490000      0.0000000E+00
  -1.480000      0.0000000E+00
  -1.470000      0.0000000E+00
  -1.460000      0.0000000E+00
  -1.450000      0.0000000E+00
  -1.440000      0.0000000E+00
  -1.430000      0.0000000E+00
  -1.420000      0.0000000E+00
  -1.410000      0.0000000E+00
  -1.400000      0.0000000E+00
  -1.390000      0.0000000E+00
  -1.380000      0.0000000E+00
  -1.370000      0.0000000E+00
  -1.360000      0.0000000E+00
  -1.350000      0.0000000E+00
  -1.340000      0.0000000E+00
  -1.330000      0.0000000E+00
  -1.320000      0.0000000E+00
  -1.310000      0.0000000E+00
  -1.300000      0.0000000E+00
  -1.290000      0.0000000E+00
  -1.280000      0.0000000E+00
  -1.270000      0.0000000E+00
  -1.260000      0.0000000E+00
  -1.250000      0.0000000E+00
  -1.240000      0.0000000E+00
  -1.230000      0.0000000E+00
  -1.220000      0.0000000E+00
  -1.210000      0.0000000E+00
  -1.200000      0.0000000E+00
  -1.190000      0.0000000E+00
  -1.180000      0.0000000E+00
  -1.170000      0.0000000E+00
  -1.160000      0.0000000E+00
  -1.150000      0.0000000E+00
  -1.140000      0.0000000E+00
  -1.130000      0.0000000E+00
  -1.120000      0.0000000E+00
  -1.110000      0.0000000E+00
  -1.100000      0.0000000E+00
  -1.090000      0.0000000E+00
  -1.080000      0.0000000E+00
  -1.070000      0.0000000E+00
  -1.060000      0.0000000E+00
  -1.050000      0.0000000E+00
  -1.040000      0.0000000E+00
  -1.030000      0.0000000E+00
  -1.020000      0.0000000E+00
  -1.010000      0.0000000E+00
  -1.000000      0.0000000E+00
 -0.9900000      0.0000000E+00
 -0.9800000      0.0000000E+00
 -0.9700000      0.0000000E+00
 -0.9600000      0.0000000E+00
 -0.9500000      0.0000000E+00
 -0.9400000      0.0000000E+00
 -0.9300000      0.0000000E+00
 -0.9200000      0.0000000E+00
 -0.9100000      0.0000000E+00
 -0.9000000      0.0000000E+00
 -0.8900000      0.0000000E+00
 -0.8800000      0.0000000E+00
 -0.8700000      0.0000000E+00
 -0.8600000      0.0000000E+00
 -0.8500000      0.0000000E+00
 -0.8400000      0.0000000E+00
 -0.8300000      0.0000000E+00
 -0.8200000      0.0000000E+00
 -0.8100000      0.0000000E+00
 -0.8000000      0.0000000E+00
 -0.7900000      0.0000000E+00
 -0.7800000      0.0000000E+00
 -0.7700000      0.0000000E+00
 -0.7600000      0.0000000E+00
 -0.7500000      0.0000000E+00
 -0.7400000      0.0000000E+00
 -0.7300000      0.0000000E+00
 -0.7200000      0.0000000E+00
 -0.7100000      0.0000000E+00
 -0.7000000      0.0000000E+00
 -0.6900000      0.0000000E+00
 -0.6800000      0.0000000E+00
 -0.6700000      0.0000000E+00
 -0.6600000      0.0000000E+00
 -0.6500000      0.0000000E+00
 -0.6400000      0.0000000E+00
 -0.6300000      0.0000000E+00
 -0.6200000      0.0000000E+00
 -0.6100000      0.0000000E+00
 -0.6000000      0.0000000E+00
 -0.5900000      0.0000000E+00
 -0.5800000      0.0000000E+00
 -0.5700000      0.0000000E+00
 -0.5600000      0.0000000E+00
 -0.5500000      0.0000000E+00
 -0.5400000      0.0000000E+00
 -0.5300000      0.0000000E+00
 -0.5200000      0.0000000E+00
 -0.5100000      0.0000000E+00
 -0.5000000      0.0000000E+00
 -0.4900000      0.0000000E+00
 -0.4800000      0.0000000E+00
 -0.4700000      0.0000000E+00
 -0.4600000      0.0000000E+00
 -0.4500000      0.0000000E+00
 -0.4400000      0.0000000E+00
 -0.4300000      0.0000000E+00
 -0.4200000      0.0000000E+00
 -0.4100000      0.0000000E+00
 -0.4000000      0.0000000E+00
 -0.3900000      0.0000000E+00
 -0.3800000      0.0000000E+00
 -0.3700000      0.0000000E+00
 -0.3600000      0.0000000E+00
 -0.3500000      0.0000000E+00
 -0.3400000      0.0000000E+00
 -0.3300000      0.0000000E+00
 -0.3200000      0.0000000E+00
 -0.3100000      0.0000000E+00
 -0.3000000      0.0000000E+00
 -0.2900000      0.0000000E+00
 -0.2800000      0.0000000E+00
 -0.2700000      0.0000000E+00
 -0.2600000      0.0000000E+00
 -0.2500000      0.0000000E+00
 -0.2400000      0.0000000E+00
 -0.2300000      0.0000000E+00
 -0.2200000      0.0000000E+00
 -0.2100000      0.0000000E+00
 -0.2000000      0.0000000E+00
 -0.1900000      0.0000000E+00
 -0.1800000      0.0000000E+00
 -0.1700000      0.0000000E+00
 -0.1600000      0.0000000E+00
 -0.1500000      0.0000000E+00
 -0.1400000      0.0000000E+00
 -0.1300000      0.0000000E+00
 -0.1200000      0.0000000E+00
 -0.1100000      0.0000000E+00
 -0.1000000      0.0000000E+00
 -9.0000004E-02  0.0000000E+00
 -7.9999998E-02  0.0000000E+00
 -7.0000000E-02  0.0000000E+00
 -5.9999999E-02  0.0000000E+00
 -5.0000001E-02  0.0000000E+00
 -3.9999999E-02  0.0000000E+00
 -2.9999999E-02  0.0000000E+00
 -2.0000000E-02  0.0000000E+00
 -9.9999998E-03  0.0000000E+00
 -3.4694470E-17  0.0000000E+00
  9.9999998E-03  0.0000000E+00
  2.0000000E-02  0.0000000E+00
  2.9999999E-02  0.0000000E+00
  3.9999999E-02  0.0000000E+00
  5.0000001E-02  0.0000000E+00
  5.9999999E-02  0.0000000E+00
  7.0000000E-02  0.0000000E+00
  7.9999998E-02  0.0000000E+00
  9.0000004E-02  0.0000000E+00
  0.1000000      0.0000000E+00
  0.1100000      0.0000000E+00
  0.1200000      0.0000000E+00
  0.1300000      0.0000000E+00
  0.1400000      0.0000000E+00
  0.1500000      0.0000000E+00
  0.1600000      0.0000000E+00
  0.1700000      0.0000000E+00
  0.1800000      0.0000000E+00
  0.1900000      0.0000000E+00
  0.2000000      0.0000000E+00
  0.2100000      0.0000000E+00
  0.2200000      0.0000000E+00
  0.2300000      0.0000000E+00
  0.2400000      0.0000000E+00
  0.2500000      0.0000000E+00
  0.2600000      0.0000000E+00
  0.2700000      0.0000000E+00
  0.2800000      0.0000000E+00
  0.2900000      0.0000000E+00
  0.3000000      0.0000000E+00
  0.3100000      0.0000000E+00
  0.3200000      0.0000000E+00
  0.3300000      0.0000000E+00
  0.3400000      0.0000000E+00
  0.3500000      0.0000000E+00
  0.3600000      0.0000000E+00
  0.3700000      0.0000000E+00
  0.3800000      0.0000000E+00
  0.3900000      0.0000000E+00
  0.4000000      0.0000000E+00
  0.4100000      0.0000000E+00
  0.4200000      0.0000000E+00
  0.4300000      0.0000000E+00
  0.4400000      0.0000000E+00
  0.4500000      0.0000000E+00
  0.4600000      0.0000000E+00
  0.4700000      0.0000000E+00
  0.4800000      0.0000000E+00
  0.4900000      0.0000000E+00
  0.5000000     -2.1234597E-38
  0.5100000     -2.9709108E-38
  0.5200000     -3.3404293E-38
  0.5300000     -3.9395026E-38
  0.5400000     -4.6737227E-38
  0.5500000     -5.5089846E-38
  0.5600000     -6.0087006E-38
  0.5700000     -6.0593917E-38
  0.5800000     -5.9600194E-38
  0.5900000     -5.7581854E-38
  0.6000000     -5.4661671E-38
  0.6100000     -5.6327692E-38
  0.6200000     -6.0386850E-38
  0.6300000     -6.2560589E-38
  0.6400000     -1.1247533E-37
  0.6500000     -2.1776349E-37
  0.6600000     -3.2136650E-37
  0.6700000     -4.0687385E-37
  0.6800000     -4.8448632E-37
  0.6900000     -5.0836732E-37
  0.7000000     -5.6811012E-37
  0.7100000     -7.4785528E-37
  0.7200000     -9.6675908E-37
  0.7300000     -1.2194432E-36
  0.7400000     -1.5397903E-36
  0.7500000     -1.9242695E-36
  0.7600000     -2.3037115E-36
  0.7700000     -2.6050258E-36
  0.7800000     -2.8153531E-36
  0.7900000     -2.9138820E-36
  0.8000000     -2.9317871E-36
  0.8100000     -2.9269599E-36
  0.8200000     -2.9023522E-36
  0.8300000     -2.7294787E-36
  0.8400000     -2.3795983E-36
  0.8500000     -2.1947611E-36
  0.8600000     -2.2567391E-36
  0.8700000     -2.3772797E-36
  0.8800000     -2.5462394E-36
  0.8900000     -2.7564119E-36
  0.9000000     -2.5371577E-36
  0.9100000     -1.8635044E-36
  0.9200000     -9.8689473E-37
  0.9300000      6.5898599E-38
  0.9400000      1.1540071E-36
  0.9500000      1.8616547E-36
  0.9600000      2.3444004E-36
  0.9700000      3.0526309E-36
  0.9800000      3.7760076E-36
  0.9900000      4.4696210E-36
   1.000000      4.9224350E-36
   1.010000      5.2690454E-36
   1.020000      5.6705180E-36
   1.030000      6.2494794E-36
   1.040000      7.5252947E-36
   1.050000      9.4964898E-36
   1.060000      1.1956509E-35
   1.070000      1.4913318E-35
   1.080000      1.8104104E-35
   1.090000      2.1342216E-35
   1.100000      2.5026105E-35
   1.110000      2.9171540E-35
   1.120000      3.3261947E-35
   1.130000      3.7063139E-35
   1.140000      4.0922534E-35
   1.150000      4.4240310E-35
   1.160000      4.6293533E-35
   1.170000      4.7039378E-35
   1.180000      4.7037171E-35
   1.190000      4.6667020E-35
   1.200000      4.5113315E-35
   1.210000      4.2927263E-35
   1.220000      4.1001260E-35
   1.230000      3.9538717E-35
   1.240000      3.8192934E-35
   1.250000      3.6850827E-35
   1.260000      3.6771162E-35
   1.270000      3.8232213E-35
   1.280000      3.9574125E-35
   1.290000      3.9800672E-35
   1.300000      3.8250727E-35
   1.310000      3.4736639E-35
   1.320000      3.0508561E-35
   1.330000      2.4739312E-35
   1.340000      1.7085308E-35
   1.350000      8.6567604E-36
   1.360000      5.6883866E-37
   1.370000     -8.6242420E-36
   1.380000     -1.9729624E-35
   1.390000     -3.0535598E-35
   1.400000     -3.8949107E-35
   1.410000     -4.4817562E-35
   1.420000     -4.8089574E-35
   1.430000     -4.8294376E-35
   1.440000     -4.6514567E-35
   1.450000     -4.1790997E-35
   1.460000     -3.4261404E-35
   1.470000     -3.0260668E-35
   1.480000     -3.5076605E-35
   1.490000     -4.7434848E-35
   1.500000     -6.6898962E-35
   1.510000     -8.4152797E-35
   1.520000     -9.4570725E-35
   1.530000     -1.0256356E-34
   1.540000     -1.0451999E-34
   1.550000     -1.0043435E-34
   1.560000     -9.2097015E-35
   1.570000     -8.3222767E-35
   1.580000     -8.1128981E-35
   1.590000     -8.1107291E-35
   1.600000     -7.9918974E-35
   1.610000     -8.5166540E-35
   1.620000     -9.7498578E-35
   1.630000     -1.0533048E-34
   1.640000     -1.0330226E-34
   1.650000     -9.5684236E-35
   1.660000     -8.1953911E-35
   1.670000     -6.6150273E-35
   1.680000     -6.0037364E-35
   1.690000     -6.1885347E-35
   1.700000     -6.4896030E-35
   1.710000     -7.1292068E-35
   1.720000     -8.1158127E-35
   1.730000     -9.3612817E-35
   1.740000     -1.1665413E-34
   1.750000     -1.5363118E-34
   1.760000     -2.0185056E-34
   1.770000     -2.5512000E-34
   1.780000     -3.0825060E-34
   1.790000     -3.6278600E-34
   1.800000     -4.1457743E-34
   1.810000     -4.6160125E-34
   1.820000     -5.0443585E-34
   1.830000     -5.2503097E-34
   1.840000     -5.2657900E-34
   1.850000     -5.3858860E-34
   1.860000     -5.7579414E-34
   1.870000     -6.3580161E-34
   1.880000     -7.1301185E-34
   1.890000     -8.0908064E-34
   1.900000     -9.1711252E-34
   1.910000     -1.0359369E-33
   1.920000     -1.1627170E-33
   1.930000     -1.2887310E-33
   1.940000     -1.4073417E-33
   1.950000     -1.5157334E-33
   1.960000     -1.6074094E-33
   1.970000     -1.6779269E-33
   1.980000     -1.7287979E-33
   1.990000     -1.7537193E-33
   2.000000     -1.7515248E-33
   2.010000     -1.7259010E-33
   2.020000     -1.6776222E-33
   2.030000     -1.6106008E-33
   2.040000     -1.5275122E-33
   2.050000     -1.4283317E-33
   2.060000     -1.3139067E-33
   2.070000     -1.1810485E-33
   2.080000     -1.0251472E-33
   2.090000     -8.4189291E-34
   2.100000     -6.1876719E-34
   2.110000     -3.5640612E-34
   2.120000     -5.2755549E-35
   2.130000      3.1193896E-34
   2.140000      7.3588931E-34
   2.150000      1.2161904E-33
   2.160000      1.7603245E-33
   2.170000      2.3658025E-33
   2.180000      3.0225677E-33
   2.190000      3.7240833E-33
   2.200000      4.4650154E-33
   2.210000      5.2377527E-33
   2.220000      6.0338378E-33
   2.230000      6.8453158E-33
   2.240000      7.6659533E-33
   2.250000      8.4875431E-33
   2.260000      9.3059854E-33
   2.270000      1.0117683E-32
   2.280000      1.0915193E-32
   2.290000      1.1691450E-32
   2.300000      1.2438198E-32
   2.310000      1.3146435E-32
   2.320000      1.3801977E-32
   2.330000      1.4387416E-32
   2.340000      1.4885187E-32
   2.350000      1.5272869E-32
   2.360000      1.5525924E-32
   2.370000      1.5618954E-32
   2.380000      1.5525546E-32
   2.390000      1.5218407E-32
   2.400000      1.4671072E-32
   2.410000      1.3858112E-32
   2.420000      1.2756209E-32
   2.430000      1.1343134E-32
   2.440000      9.5996665E-33
   2.450000      7.5094003E-33
   2.460000      5.0547484E-33
   2.470000      2.2196090E-33
   2.480000     -1.0115879E-33
   2.490000     -4.6545554E-33
   2.500000     -8.7185101E-33
   2.510000     -1.3225807E-32
   2.520000     -1.8197095E-32
   2.530000     -2.3638720E-32
   2.540000     -2.9561970E-32
   2.550000     -3.5974071E-32
   2.560000     -4.2877749E-32
   2.570000     -5.0270133E-32
   2.580000     -5.8141602E-32
   2.590000     -6.6474987E-32
   2.600000     -7.5245245E-32
   2.610000     -8.4418779E-32
   2.620000     -9.3953237E-32
   2.630000     -1.0379729E-31
   2.640000     -1.1389116E-31
   2.650000     -1.2416693E-31
   2.660000     -1.3454847E-31
   2.670000     -1.4495162E-31
   2.680000     -1.5528412E-31
   2.690000     -1.6544539E-31
   2.700000     -1.7532613E-31
   2.710000     -1.8480805E-31
   2.720000     -1.9376306E-31
   2.730000     -2.0205286E-31
   2.740000     -2.0952837E-31
   2.750000     -2.1602967E-31
   2.760000     -2.2138605E-31
   2.770000     -2.2541625E-31
   2.780000     -2.2792828E-31
   2.790000     -2.2872374E-31
   2.800000     -2.2759712E-31
   2.810000     -2.2433503E-31
   2.820000     -2.1872144E-31
   2.830000     -2.1053851E-31
   2.840000     -1.9956854E-31
   2.850000     -1.8559576E-31
   2.860000     -1.6840801E-31
   2.870000     -1.4779830E-31
   2.880000     -1.2356611E-31
   2.890000     -9.5518790E-32
   2.900000     -6.3473421E-32
   2.910000     -2.7257052E-32
   2.920000      1.3290978E-32
   2.930000      5.8316251E-32
   2.940000      1.0794728E-31
   2.950000      1.6229298E-31
   2.960000      2.2143970E-31
   2.970000      2.8544680E-31
   2.980000      3.5434309E-31
   2.990000      4.2812238E-31
   3.000000      5.0673920E-31
   3.010000      5.9010461E-31
   3.020000      6.7808208E-31
   3.030000      7.7048360E-31
   3.040000      8.6706645E-31
   3.050000      9.6752975E-31
   3.060000      1.0715117E-30
   3.070000      1.1785883E-30
   3.080000      1.2882705E-30
   3.090000      1.4000032E-30
   3.100000      1.5131636E-30
   3.110000      1.6270602E-30
   3.120000      1.7409323E-30
   3.130000      1.8539485E-30
   3.140000      1.9652071E-30
   3.150000      2.0737359E-30
   3.160000      2.1784925E-30
   3.170000      2.2783655E-30
   3.180000      2.3721754E-30
   3.190000      2.4586775E-30
   3.200000      2.5365647E-30
   3.210000      2.6044714E-30
   3.220000      2.6609795E-30
   3.230000      2.7046237E-30
   3.240000      2.7338969E-30
   3.250000      2.7472599E-30
   3.260000      2.7431473E-30
   3.270000      2.7199775E-30
   3.280000      2.6761607E-30
   3.290000      2.6101098E-30
   3.300000      2.5202492E-30
   3.310000      2.4050268E-30
   3.320000      2.2629259E-30
   3.330000      2.0924764E-30
   3.340000      1.8922687E-30
   3.350000      1.6609692E-30
   3.360000      1.3973347E-30
   3.370000      1.1002287E-30
   3.380000      7.6864043E-31
   3.390000      4.0170465E-31
   3.400000     -1.2781730E-33
   3.410000     -4.4082077E-31
   3.420000     -9.1722668E-31
   3.430000     -1.4305674E-30
   3.440000     -1.9806611E-30
   3.450000     -2.5670487E-30
   3.460000     -3.1889721E-30
   3.470000     -3.8453546E-30
   3.480000     -4.5347781E-30
   3.490000     -5.2554682E-30
   3.500000     -6.0052734E-30
   3.510000     -6.7816515E-30
   3.520000     -7.5816549E-30
   3.530000     -8.4019198E-30
   3.540000     -9.2386513E-30
   3.550000     -1.0087621E-29
   3.560000     -1.0944155E-29
   3.570000     -1.1803134E-29
   3.580000     -1.2658987E-29
   3.590000     -1.3505698E-29
   3.600000     -1.4336803E-29
   3.610000     -1.5145396E-29
   3.620000     -1.5924144E-29
   3.630000     -1.6665291E-29
   3.640000     -1.7360686E-29
   3.650000     -1.8001786E-29
   3.660000     -1.8579688E-29
   3.670000     -1.9085159E-29
   3.680000     -1.9508658E-29
   3.690000     -1.9840378E-29
   3.700000     -2.0070284E-29
   3.710000     -2.0188159E-29
   3.720000     -2.0183648E-29
   3.730000     -2.0046320E-29
   3.740000     -1.9765721E-29
   3.750000     -1.9331448E-29
   3.760000     -1.8733217E-29
   3.770000     -1.7960940E-29
   3.780000     -1.7004813E-29
   3.790000     -1.5855406E-29
   3.800000     -1.4503753E-29
   3.810000     -1.2941464E-29
   3.820000     -1.1160839E-29
   3.830000     -9.1549742E-30
   3.840000     -6.9178839E-30
   3.850000     -4.4446265E-30
   3.860000     -1.7314264E-30
   3.870000      1.2241957E-30
   3.880000      4.4232923E-30
   3.890000      7.8653580E-30
   3.900000      1.1548211E-29
   3.910000      1.5467860E-29
   3.920000      1.9618376E-29
   3.930000      2.3991777E-29
   3.940000      2.8577917E-29
   3.950000      3.3364374E-29
   3.960000      3.8336349E-29
   3.970000      4.3476550E-29
   3.980000      4.8765130E-29
   3.990000      5.4179575E-29
   4.000000      5.9694644E-29
   4.010000      6.5282290E-29
   4.020000      7.0911615E-29
   4.030000      7.6548794E-29
   4.040000      8.2157084E-29
   4.050000      8.7696775E-29
   4.060000      9.3125147E-29
   4.070000      9.8396519E-29
   4.080000      1.0346224E-28
   4.090000      1.0827076E-28
   4.100000      1.1276765E-28
   4.110000      1.1689571E-28
   4.120000      1.2059504E-28
   4.130000      1.2380319E-28
   4.140000      1.2645534E-28
   4.150000      1.2848443E-28
   4.160000      1.2982142E-28
   4.170000      1.3039556E-28
   4.180000      1.3013460E-28
   4.190000      1.2896518E-28
   4.200000      1.2681313E-28
   4.210000      1.2360391E-28
   4.220000      1.1926303E-28
   4.230000      1.1371647E-28
   4.240000      1.0689130E-28
   4.250000      9.8716097E-29
   4.260000      8.9121572E-29
   4.270000      7.8041185E-29
   4.280000      6.5411737E-29
   4.290000      5.1174119E-29
   4.300000      3.5273925E-29
   4.310000      1.7662195E-29
   4.320000     -1.7038495E-30
   4.330000     -2.2860039E-29
   4.340000     -4.5834485E-29
   4.350000     -7.0646818E-29
   4.360000     -9.7307364E-29
   4.370000     -1.2581634E-28
   4.380000     -1.5616304E-28
   4.390000     -1.8832495E-28
   4.400000     -2.2226695E-28
   4.410000     -2.5794052E-28
   4.420000     -2.9528283E-28
   4.430000     -3.3421604E-28
   4.440000     -3.7464614E-28
   4.450000     -4.1646256E-28
   4.460000     -4.5953700E-28
   4.470000     -5.0372284E-28
   4.480000     -5.4885440E-28
   4.490000     -5.9474619E-28
   4.500000     -6.4119201E-28
   4.510000     -6.8796471E-28
   4.520000     -7.3481507E-28
   4.530000     -7.8147198E-28
   4.540000     -8.2764133E-28
   4.550000     -8.7300623E-28
   4.560000     -9.1722645E-28
   4.570000     -9.5993837E-28
   4.580000     -1.0007551E-27
   4.590000     -1.0392665E-27
   4.600000     -1.0750397E-27
   4.610000     -1.1076192E-27
   4.620000     -1.1365280E-27
   4.630000     -1.1612677E-27
   4.640000     -1.1813199E-27
   4.650000     -1.1961473E-27
   4.660000     -1.2051952E-27
   4.670000     -1.2078921E-27
   4.680000     -1.2036530E-27
   4.690000     -1.1918794E-27
   4.700000     -1.1719632E-27
   4.710000     -1.1432882E-27
   4.720000     -1.1052322E-27
   4.730000     -1.0571706E-27
   4.740000     -9.9847883E-28
   4.750000     -9.2853560E-28
   4.760000     -8.4672624E-28
   4.770000     -7.5244663E-28
   4.780000     -6.4510651E-28
   4.790000     -5.2413437E-28
   4.800000     -3.8898094E-28
   4.810000     -2.3912416E-28
   4.820000     -7.4074323E-29
   4.830000      1.0662176E-28
   4.840000      3.0337453E-28
   4.850000      5.1654688E-28
   4.860000      7.4644779E-28
   4.870000      9.9332697E-28
   4.880000      1.2573679E-27
   4.890000      1.5386820E-27
   4.900000      1.8373012E-27
   4.910000      2.1531731E-27
   4.920000      2.4861516E-27
   4.930000      2.8359904E-27
   4.940000      3.2023369E-27
   4.950000      3.5847249E-27
   4.960000      3.9825666E-27
   4.970000      4.3951455E-27
   4.980000      4.8216103E-27
   4.990000      5.2609677E-27
   5.000000      5.7120752E-27
   5.010000      6.1736347E-27
   5.020000      6.6441848E-27
   5.030000      7.1220974E-27
   5.040000      7.6055721E-27
   5.050000      8.0926274E-27
   5.060000      8.5810980E-27
   5.070000      9.0686325E-27
   5.080000      9.5526857E-27
   5.090000      1.0030514E-26
   5.100000      1.0499180E-26
   5.110000      1.0955543E-26
   5.120000      1.1396262E-26
   5.130000      1.1817792E-26
   5.140000      1.2216387E-26
   5.150000      1.2588097E-26
   5.160000      1.2928775E-26
   5.170000      1.3234078E-26
   5.180000      1.3499465E-26
   5.190000      1.3720214E-26
   5.200000      1.3891421E-26
   5.210000      1.4008011E-26
   5.220000      1.4064738E-26
   5.230000      1.4056213E-26
   5.240000      1.3976900E-26
   5.250000      1.3821137E-26
   5.260000      1.3583157E-26
   5.270000      1.3257093E-26
   5.280000      1.2837011E-26
   5.290000      1.2316921E-26
   5.300000      1.1690807E-26
   5.310000      1.0952648E-26
   5.320000      1.0096451E-26
   5.330000      9.1162769E-27
   5.340000      8.0062672E-27
   5.350000      6.7606843E-27
   5.360000      5.3739489E-27
   5.370000      3.8406722E-27
   5.380000      2.1556986E-27
   5.390000      3.1414931E-28
   5.400000     -1.6885404E-27
   5.410000     -3.8565719E-27
   5.420000     -6.1937291E-27
   5.430000     -8.7033398E-27
   5.440000     -1.1388217E-26
   5.450000     -1.4250606E-26
   5.460000     -1.7292131E-26
   5.470000     -2.0513738E-26
   5.480000     -2.3915642E-26
   5.490000     -2.7497260E-26
   5.500000     -3.1257156E-26
   5.510000     -3.5192989E-26
   5.520000     -3.9301432E-26
   5.530000     -4.3578119E-26
   5.540000     -4.8017584E-26
   5.550000     -5.2613207E-26
   5.560000     -5.7357121E-26
   5.570000     -6.2240176E-26
   5.580000     -6.7251877E-26
   5.590000     -7.2380268E-26
   5.600000     -7.7611932E-26
   5.610000     -8.2931905E-26
   5.620000     -8.8323634E-26
   5.630000     -9.3768907E-26
   5.640000     -9.9247792E-26
   5.650000     -1.0473860E-25
   5.660000     -1.1021785E-25
   5.670000     -1.1566019E-25
   5.680000     -1.2103838E-25
   5.690000     -1.2632330E-25
   5.700000     -1.3148391E-25
   5.710000     -1.3648715E-25
   5.720000     -1.4129804E-25
   5.730000     -1.4587961E-25
   5.740000     -1.5019287E-25
   5.750000     -1.5419688E-25
   5.760000     -1.5784884E-25
   5.770000     -1.6110400E-25
   5.780000     -1.6391571E-25
   5.790000     -1.6623551E-25
   5.800000     -1.6801323E-25
   5.810000     -1.6919701E-25
   5.820000     -1.6973335E-25
   5.830000     -1.6956730E-25
   5.840000     -1.6864252E-25
   5.850000     -1.6690146E-25
   5.860000     -1.6428544E-25
   5.870000     -1.6073486E-25
   5.880000     -1.5618934E-25
   5.890000     -1.5058791E-25
   5.900000     -1.4386930E-25
   5.910000     -1.3597205E-25
   5.920000     -1.2683482E-25
   5.930000     -1.1639662E-25
   5.940000     -1.0459719E-25
   5.950000     -9.1377173E-26
   5.960000     -7.6678562E-26
   5.970000     -6.0444957E-26
   5.980000     -4.2621967E-26
   5.990000     -2.3157513E-26
   6.000000     -2.0023406E-27
   6.010000      2.0889551E-26
   6.020000      4.5560588E-26
   6.030000      7.2049070E-26
   6.040000      1.0038866E-25
   6.050000      1.3060799E-25
   6.060000      1.6273006E-25
   6.070000      1.9677175E-25
   6.080000      2.3274320E-25
   6.090000      2.7064740E-25
   6.100000      3.1047948E-25
   6.110000      3.5222607E-25
   6.120000      3.9586505E-25
   6.130000      4.4136462E-25
   6.140000      4.8868291E-25
   6.150000      5.3776702E-25
   6.160000      5.8855280E-25
   6.170000      6.4096408E-25
   6.180000      6.9491206E-25
   6.190000      7.5029463E-25
   6.200000      8.0699583E-25
   6.210000      8.6488521E-25
   6.220000      9.2381775E-25
   6.230000      9.8363234E-25
   6.240000      1.0441522E-24
   6.250000      1.1051839E-24
   6.260000      1.1665167E-24
   6.270000      1.2279227E-24
   6.280000      1.2891561E-24
   6.290000      1.3499523E-24
   6.300000      1.4100286E-24
   6.310000      1.4690830E-24
   6.320000      1.5267950E-24
   6.330000      1.5828245E-24
   6.340000      1.6368117E-24
   6.350000      1.6883781E-24
   6.360000      1.7371258E-24
   6.370000      1.7826373E-24
   6.380000      1.8244765E-24
   6.390000      1.8621890E-24
   6.400000      1.8953020E-24
   6.410000      1.9233255E-24
   6.420000      1.9457522E-24
   6.430000      1.9620588E-24
   6.440000      1.9717062E-24
   6.450000      1.9741418E-24
   6.460000      1.9687992E-24
   6.470000      1.9551006E-24
   6.480000      1.9324582E-24
   6.490000      1.9002750E-24
   6.500000      1.8579471E-24
   6.510000      1.8048648E-24
   6.520000      1.7404167E-24
   6.530000      1.6639891E-24
   6.540000      1.5749705E-24
   6.550000      1.4727530E-24
   6.560000      1.3567353E-24
   6.570000      1.2263264E-24
   6.580000      1.0809473E-24
   6.590000      9.2003487E-25
   6.600000      7.4304495E-25
   6.610000      5.4945666E-25
   6.620000      3.3877511E-25
   6.630000      1.1053656E-25
   6.640000     -1.3568791E-25
   6.650000     -4.0028878E-25
   6.660000     -6.8361320E-25
   6.670000     -9.8596076E-25
   6.680000     -1.3075784E-24
   6.690000     -1.6486562E-24
   6.700000     -2.0093210E-24
   6.710000     -2.3896330E-24
   6.720000     -2.7895808E-24
   6.730000     -3.2090737E-24
   6.740000     -3.6479390E-24
   6.750000     -4.1059145E-24
   6.760000     -4.5826456E-24
   6.770000     -5.0776776E-24
   6.780000     -5.5904506E-24
   6.790000     -6.1202953E-24
   6.800000     -6.6664269E-24
   6.810000     -7.2279380E-24
   6.820000     -7.8037970E-24
   6.830000     -8.3928387E-24
   6.840000     -8.9937637E-24
   6.850000     -9.6051317E-24
   6.860000     -1.0225355E-23
   6.870000     -1.0852696E-23
   6.880000     -1.1485266E-23
   6.890000     -1.2121017E-23
   6.900000     -1.2757738E-23
   6.910000     -1.3393056E-23
   6.920000     -1.4024434E-23
   6.930000     -1.4649160E-23
   6.940000     -1.5264354E-23
   6.950000     -1.5866964E-23
   6.960000     -1.6453763E-23
   6.970000     -1.7021354E-23
   6.980000     -1.7566173E-23
   6.990000     -1.8084477E-23
   7.000000     -1.8572361E-23
   7.010000     -1.9025752E-23
   7.020000     -1.9440415E-23
   7.030000     -1.9811961E-23
   7.040000     -2.0135853E-23
   7.050000     -2.0407406E-23
   7.060000     -2.0621799E-23