  -2.600000      0.0000000E+00
  -2.590000      0.0000000E+00
  -2.580000      0.0000000E+00
  -2.570000      0.0000000E+00
  -2.560000      0.0000000E+00
  -2.550000      0.0000000E+00
  -2.540000      0.0000000E+00
  -2.530000      0.0000000E+00
  -2.520000      0.0000000E+00
  -2.510000      0.0000000E+00
  -2.500000      0.0000000E+00
  -2.490000      0.0000000E+00
  -2.480000      0.0000000E+00
  -2.470000      0.0000000E+00
  -2.460000      0.0000000E+00
  -2.450000      0.0000000E+00
  -2.440000      0.0000000E+00
  -2.430000      0.0000000E+00
  -2.420000      0.0000000E+00
  -2.410000      0.0000000E+00
  -2.400000      0.0000000E+00
  -2.390000      0.0000000E+00
  -2.380000      0.0000000E+00
  -2.370000      0.0000000E+00
  -2.360000      0.0000000E+00
  -2.350000      0.0000000E+00
  -2.340000      0.0000000E+00
  -2.330000      0.0000000E+00
  -2.320000      0.0000000E+00
  -2.310000      0.0000000E+00
  -2.300000      0.0000000E+00
  -2.290000      0.0000000E+00
  -2.280000      0.0000000E+00
  -2.270000      0.0000000E+00
  -2.260000      0.0000000E+00
  -2.250000      0.0000000E+00
  -2.240000      0.0000000E+00
  -2.230000      0.0000000E+00
  -2.220000      0.0000000E+00
  -2.210000      0.0000000E+00
  -2.200000      0.0000000E+00
  -2.190000      0.0000000E+00
  -2.180000      0.0000000E+00
  -2.170000      0.0000000E+00
  -2.160000      0.0000000E+00
  -2.150000      0.0000000E+00
  -2.140000      0.0000000E+00
  -2.130000      0.0000000E+00
  -2.120000      0.0000000E+00
  -2.110000      0.0000000E+00
  -2.100000      0.0000000E+00
  -2.090000      0.0000000E+00
  -2.080000      0.0000000E+00
  -2.070000      0.0000000E+00
  -2.060000      0.0000000E+00
  -2.050000      0.0000000E+00
  -2.040000      0.0000000E+00
  -2.030000      0.0000000E+00
  -2.020000      0.0000000E+00
  -2.010000      0.0000000E+00
  -2.000000      0.0000000E+00
  -1.990000      0.0000000E+00
  -1.980000      0.0000000E+00
  -1.970000      0.0000000E+00
  -1.960000      0.0000000E+00
  -1.950000      0.0000000E+00
  -1.940000      0.0000000E+00
  -1.930000      0.0000000E+00
  -1.920000      0.0000000E+00
  -1.910000      0.0000000E+00
  -1.900000      0.0000000E+00
  -1.890000      0.0000000E+00
  -1.880000      0.0000000E+00
  -1.870000      0.0000000E+00
  -1.860000      0.0000000E+00
  -1.850000      0.0000000E+00
  -1.840000      0.0000000E+00
  -1.830000      0.0000000E+00
  -1.820000      0.0000000E+00
  -1.810000      0.0000000E+00
  -1.800000      0.0000000E+00
  -1.790000      0.0000000E+00
  -1.780000      0.0000000E+00
  -1.770000      0.0000000E+00
  -1.760000      0.0000000E+00
  -1.750000      0.0000000E+00
  -1.740000      0.0000000E+00
  -1.730000      0.0000000E+00
  -1.720000      0.0000000E+00
  -1.710000      0.0000000E+00
  -1.700000      0.0000000E+00
  -1.690000      0.0000000E+00
  -1.680000      0.0000000E+00
  -1.670000      0.0000000E+00
  -1.660000      0.0000000E+00
  -1.650000      0.0000000E+00
  -1.640000      0.0000000E+00
  -1.630000      0.0000000E+00
  -1.620000      0.0000000E+00
  -1.610000      0.0000000E+00
  -1.600000      0.0000000E+00
  -1.590000      0.0000000E+00
  -1.580000      0.0000000E+00
  -1.570000      0.0000000E+00
  -1.560000      0.0000000E+00
  -1.550000      0.0000000E+00
  -1.540000      0.0000000E+00
  -1.530000      0.0000000E+00
  -1.520000      0.0000000E+00
  -1.510000      0.0000000E+00
  -1.500000      0.0000000E+00
  -1.490000      0.0000000E+00
  -1.480000      0.0000000E+00
  -1.470000      0.0000000E+00
  -1.460000      0.0000000E+00
  -1.450000      0.0000000E+00
  -1.440000      0.0000000E+00
  -1.430000      0.0000000E+00
  -1.420000      0.0000000E+00
  -1.410000      0.0000000E+00
  -1.400000      0.0000000E+00
  -1.390000      0.0000000E+00
  -1.380000      0.0000000E+00
  -1.370000      0.0000000E+00
  -1.360000      0.0000000E+00
  -1.350000      0.0000000E+00
  -1.340000      0.0000000E+00
  -1.330000      0.0000000E+00
  -1.320000      0.0000000E+00
  -1.310000      0.0000000E+00
  -1.300000      0.0000000E+00
  -1.290000      0.0000000E+00
  -1.280000      0.0000000E+00
  -1.270000      0.0000000E+00
  -1.260000      0.0000000E+00
  -1.250000      0.0000000E+00
  -1.240000      0.0000000E+00
  -1.230000      0.0000000E+00
  -1.220000      0.0000000E+00
  -1.210000      0.0000000E+00
  -1.200000      0.0000000E+00
  -1.190000      0.0000000E+00
  -1.180000      0.0000000E+00
  -1.170000      0.0000000E+00
  -1.160000      0.0000000E+00
  -1.150000      0.0000000E+00
  -1.140000      0.0000000E+00
  -1.130000      0.0000000E+00
  -1.120000      0.0000000E+00
  -1.110000      0.0000000E+00
  -1.100000      0.0000000E+00
  -1.090000      0.0000000E+00
  -1.080000      0.0000000E+00
  -1.070000      0.0000000E+00
  -1.060000      0.0000000E+00
  -1.050000      0.0000000E+00
  -1.040000      0.0000000E+00
  -1.030000      0.0000000E+00
  -1.020000      0.0000000E+00
  -1.010000      0.0000000E+00
  -1.000000      0.0000000E+00
 -0.9900000      0.0000000E+00
 -0.9800000      0.0000000E+00
 -0.9700000      0.0000000E+00
 -0.9600000      0.0000000E+00
 -0.9500000      0.0000000E+00
 -0.9400000      0.0000000E+00
 -0.9300000      0.0000000E+00
 -0.9200000      0.0000000E+00
 -0.9100000      0.0000000E+00
 -0.9000000      0.0000000E+00
 -0.8900000      0.0000000E+00
 -0.8800000      0.0000000E+00
 -0.8700000      0.0000000E+00
 -0.8600000      0.0000000E+00
 -0.8500000      0.0000000E+00
 -0.8400000      0.0000000E+00
 -0.8300000      0.0000000E+00
 -0.8200000      0.0000000E+00
 -0.8100000      0.0000000E+00
 -0.8000000      0.0000000E+00
 -0.7900000      0.0000000E+00
 -0.7800000      0.0000000E+00
 -0.7700000      0.0000000E+00
 -0.7600000      0.0000000E+00
 -0.7500000      0.0000000E+00
 -0.7400000      0.0000000E+00
 -0.7300000      0.0000000E+00
 -0.7200000      0.0000000E+00
 -0.7100000      0.0000000E+00
 -0.7000000      0.0000000E+00
 -0.6900000      0.0000000E+00
 -0.6800000      0.0000000E+00
 -0.6700000      0.0000000E+00
 -0.6600000      0.0000000E+00
 -0.6500000      0.0000000E+00
 -0.6400000      0.0000000E+00
 -0.6300000      0.0000000E+00
 -0.6200000      0.0000000E+00
 -0.6100000      0.0000000E+00
 -0.6000000      0.0000000E+00
 -0.5900000      0.0000000E+00
 -0.5800000      0.0000000E+00
 -0.5700000      0.0000000E+00
 -0.5600000      0.0000000E+00
 -0.5500000      0.0000000E+00
 -0.5400000      0.0000000E+00
 -0.5300000      0.0000000E+00
 -0.5200000      0.0000000E+00
 -0.5100000      0.0000000E+00
 -0.5000000      0.0000000E+00
 -0.4900000      0.0000000E+00
 -0.4800000      0.0000000E+00
 -0.4700000      0.0000000E+00
 -0.4600000      0.0000000E+00
 -0.4500000      0.0000000E+00
 -0.4400000      0.0000000E+00
 -0.4300000      0.0000000E+00
 -0.4200000      0.0000000E+00
 -0.4100000      0.0000000E+00
 -0.4000000      0.0000000E+00
 -0.3900000      0.0000000E+00
 -0.3800000      0.0000000E+00
 -0.3700000      0.0000000E+00
 -0.3600000      0.0000000E+00
 -0.3500000      0.0000000E+00
 -0.3400000      0.0000000E+00
 -0.3300000      0.0000000E+00
 -0.3200000      0.0000000E+00
 -0.3100000      0.0000000E+00
 -0.3000000      0.0000000E+00
 -0.2900000      0.0000000E+00
 -0.2800000      0.0000000E+00
 -0.2700000      0.0000000E+00
 -0.2600000      0.0000000E+00
 -0.2500000      0.0000000E+00
 -0.2400000      0.0000000E+00
 -0.2300000      0.0000000E+00
 -0.2200000      0.0000000E+00
 -0.2100000      0.0000000E+00
 -0.2000000      0.0000000E+00
 -0.1900000      0.0000000E+00
 -0.1800000      0.0000000E+00
 -0.1700000      0.0000000E+00
 -0.1600000      0.0000000E+00
 -0.1500000      0.0000000E+00
 -0.1400000      0.0000000E+00
 -0.1300000      0.0000000E+00
 -0.1200000      0.0000000E+00
 -0.1100000      0.0000000E+00
 -0.1000000      0.0000000E+00
 -9.0000004E-02  0.0000000E+00
 -7.9999998E-02  0.0000000E+00
 -7.0000000E-02  0.0000000E+00
 -5.9999999E-02  0.0000000E+00
 -5.0000001E-02  0.0000000E+00
 -3.9999999E-02  0.0000000E+00
 -2.9999999E-02  0.0000000E+00
 -2.0000000E-02  0.0000000E+00
 -9.9999998E-03  0.0000000E+00
 -3.4694470E-17  0.0000000E+00
  9.9999998E-03  0.0000000E+00
  2.0000000E-02  0.0000000E+00
  2.9999999E-02  0.0000000E+00
  3.9999999E-02  0.0000000E+00
  5.0000001E-02  0.0000000E+00
  5.9999999E-02  0.0000000E+00
  7.0000000E-02  0.0000000E+00
  7.9999998E-02  0.0000000E+00
  9.0000004E-02  0.0000000E+00
  0.1000000      0.0000000E+00
  0.1100000      0.0000000E+00
  0.1200000      0.0000000E+00
  0.1300000      0.0000000E+00
  0.1400000      0.0000000E+00
  0.1500000      0.0000000E+00
  0.1600000      0.0000000E+00
  0.1700000      0.0000000E+00
  0.1800000      0.0000000E+00
  0.1900000      0.0000000E+00
  0.2000000      0.0000000E+00
  0.2100000      0.0000000E+00
  0.2200000      0.0000000E+00
  0.2300000      0.0000000E+00
  0.2400000      0.0000000E+00
  0.2500000      0.0000000E+00
  0.2600000      0.0000000E+00
  0.2700000      0.0000000E+00
  0.2800000      0.0000000E+00
  0.2900000      0.0000000E+00
  0.3000000      0.0000000E+00
  0.3100000      0.0000000E+00
  0.3200000      0.0000000E+00
  0.3300000      0.0000000E+00
  0.3400000      0.0000000E+00
  0.3500000      0.0000000E+00
  0.3600000      0.0000000E+00
  0.3700000      0.0000000E+00
  0.3800000      0.0000000E+00
  0.3900000      0.0000000E+00
  0.4000000      0.0000000E+00
  0.4100000      0.0000000E+00
  0.4200000      0.0000000E+00
  0.4300000      0.0000000E+00
  0.4400000      0.0000000E+00
  0.4500000      0.0000000E+00
  0.4600000      0.0000000E+00
  0.4700000      0.0000000E+00
  0.4800000      0.0000000E+00
  0.4900000      1.3270144E-38
  0.5000000      1.6787225E-38
  0.5100000      2.2879521E-38
  0.5200000      2.5918072E-38
  0.5300000      2.2671423E-38
  0.5400000      1.8630754E-38
  0.5500000      0.0000000E+00
  0.5600000      0.0000000E+00
  0.5700000     -2.5126097E-38
  0.5800000     -4.3587268E-38
  0.5900000     -6.2022961E-38
  0.6000000     -7.6708608E-38
  0.6100000     -8.6374339E-38
  0.6200000     -9.1795273E-38
  0.6300000     -9.3791305E-38
  0.6400000     -8.2121734E-38
  0.6500000     -5.0261353E-38
  0.6600000      0.0000000E+00
  0.6700000      4.5422148E-38
  0.6800000      1.4554895E-37
  0.6900000      3.1038115E-37
  0.7000000      5.3123579E-37
  0.7100000      7.8837796E-37
  0.7200000      1.0594424E-36
  0.7300000      1.3490851E-36
  0.7400000      1.6834456E-36
  0.7500000      2.0727998E-36
  0.7600000      2.4665526E-36
  0.7700000      2.8511770E-36
  0.7800000      3.2199211E-36
  0.7900000      3.5620442E-36
  0.8000000      3.9119841E-36
  0.8100000      4.3650326E-36
  0.8200000      4.9657160E-36
  0.8300000      5.6197390E-36
  0.8400000      6.2901783E-36
  0.8500000      6.9201131E-36
  0.8600000      7.4870725E-36
  0.8700000      8.0374398E-36
  0.8800000      8.5952041E-36
  0.8900000      8.9828905E-36
  0.9000000      9.1685094E-36
  0.9100000      9.2742601E-36
  0.9200000      9.1961971E-36
  0.9300000      8.9087419E-36
  0.9400000      8.4677178E-36
  0.9500000      7.8755295E-36
  0.9600000      7.0929547E-36
  0.9700000      6.0789459E-36
  0.9800000      4.9466329E-36
  0.9900000      3.5919485E-36
   1.000000      1.8616829E-36
   1.010000     -2.0073594E-37
   1.020000     -2.5634742E-36
   1.030000     -5.0756941E-36
   1.040000     -7.7065148E-36
   1.050000     -1.0514937E-35
   1.060000     -1.3543623E-35
   1.070000     -1.6846596E-35
   1.080000     -2.0601368E-35
   1.090000     -2.4900624E-35
   1.100000     -2.9302483E-35
   1.110000     -3.3440010E-35
   1.120000     -3.7652020E-35
   1.130000     -4.2134238E-35
   1.140000     -4.7053532E-35
   1.150000     -5.2316432E-35
   1.160000     -5.7376786E-35
   1.170000     -6.2291145E-35
   1.180000     -6.7058997E-35
   1.190000     -7.1989260E-35
   1.200000     -7.7288512E-35
   1.210000     -8.2023499E-35
   1.220000     -8.5770600E-35
   1.230000     -8.8953578E-35
   1.240000     -9.1811860E-35
   1.250000     -9.4140355E-35
   1.260000     -9.5766962E-35
   1.270000     -9.7052418E-35
   1.280000     -9.7802312E-35
   1.290000     -9.7723747E-35
   1.300000     -9.6558435E-35
   1.310000     -9.4341119E-35
   1.320000     -9.1157159E-35
   1.330000     -8.7377353E-35
   1.340000     -8.3701718E-35
   1.350000     -7.9569385E-35
   1.360000     -7.4376438E-35
   1.370000     -6.8269739E-35
   1.380000     -6.1972286E-35
   1.390000     -5.5441078E-35
   1.400000     -4.7926942E-35
   1.410000     -3.9491421E-35
   1.420000     -2.9092601E-35
   1.430000     -1.6491915E-35
   1.440000     -3.8663160E-36
   1.450000      8.5172128E-36
   1.460000      2.1374458E-35
   1.470000      3.3442220E-35
   1.480000      4.4292748E-35
   1.490000      5.4936642E-35
   1.500000      6.7249653E-35
   1.510000      8.2741945E-35
   1.520000      9.9650949E-35
   1.530000      1.1729975E-34
   1.540000      1.3584441E-34
   1.550000      1.5432299E-34
   1.560000      1.7012233E-34
   1.570000      1.8416121E-34
   1.580000      1.9782734E-34
   1.590000      2.0992805E-34
   1.600000      2.2018499E-34
   1.610000      2.2829774E-34
   1.620000      2.3526309E-34
   1.630000      2.4231790E-34
   1.640000      2.4737197E-34
   1.650000      2.4567132E-34
   1.660000      2.3930742E-34
   1.670000      2.3304357E-34
   1.680000      2.3072507E-34
   1.690000      2.3268559E-34
   1.700000      2.3570535E-34
   1.710000      2.3811810E-34
   1.720000      2.4095754E-34
   1.730000      2.4695789E-34
   1.740000      2.5610511E-34
   1.750000      2.6924666E-34
   1.760000      2.8412199E-34
   1.770000      2.9867592E-34
   1.780000      3.1521524E-34
   1.790000      3.3886894E-34
   1.800000      3.7169981E-34
   1.810000      4.1168852E-34
   1.820000      4.5701613E-34
   1.830000      5.0899378E-34
   1.840000      5.6727117E-34
   1.850000      6.2909845E-34
   1.860000      6.9741942E-34
   1.870000      7.7271746E-34
   1.880000      8.5418583E-34
   1.890000      9.4189846E-34
   1.900000      1.0357409E-33
   1.910000      1.1340618E-33
   1.920000      1.2356190E-33
   1.930000      1.3406515E-33
   1.940000      1.4472558E-33
   1.950000      1.5555019E-33
   1.960000      1.6677513E-33
   1.970000      1.7824721E-33
   1.980000      1.8920606E-33
   1.990000      1.9958627E-33
   2.000000      2.0954072E-33
   2.010000      2.1857250E-33
   2.020000      2.2630873E-33
   2.030000      2.3244370E-33
   2.040000      2.3668832E-33
   2.050000      2.3870273E-33
   2.060000      2.3810812E-33
   2.070000      2.3451599E-33
   2.080000      2.2759394E-33
   2.090000      2.1675723E-33
   2.100000      2.0152038E-33
   2.110000      1.8148599E-33
   2.120000      1.5627461E-33
   2.130000      1.2574022E-33
   2.140000      8.9242530E-34
   2.150000      4.6244531E-34
   2.160000     -3.4143310E-35
   2.170000     -5.9991272E-34
   2.180000     -1.2378498E-33
   2.190000     -1.9503009E-33
   2.200000     -2.7381907E-33
   2.210000     -3.6015986E-33
   2.220000     -4.5404873E-33
   2.230000     -5.5550090E-33
   2.240000     -6.6407371E-33
   2.250000     -7.7919428E-33
   2.260000     -9.0048047E-33
   2.270000     -1.0273143E-32
   2.280000     -1.1588234E-32
   2.290000     -1.2939680E-32
   2.300000     -1.4315446E-32
   2.310000     -1.5701506E-32
   2.320000     -1.7081665E-32
   2.330000     -1.8437842E-32
   2.340000     -1.9749312E-32
   2.350000     -2.0992979E-32
   2.360000     -2.2144155E-32
   2.370000     -2.3175748E-32
   2.380000     -2.4058455E-32
   2.390000     -2.4761157E-32
   2.400000     -2.5250785E-32
   2.410000     -2.5492717E-32
   2.420000     -2.5449849E-32
   2.430000     -2.5083980E-32
   2.440000     -2.4356735E-32
   2.450000     -2.3227981E-32
   2.460000     -2.1657026E-32
   2.470000     -1.9603087E-32
   2.480000     -1.7024999E-32
   2.490000     -1.3881802E-32
   2.500000     -1.0133263E-32
   2.510000     -5.7404580E-33
   2.520000     -6.6569127E-34
   2.530000      5.1265472E-33
   2.540000      1.1669220E-32
   2.550000      1.8992572E-32
   2.560000      2.7123051E-32
   2.570000      3.6082692E-32
   2.580000      4.5888522E-32
   2.590000      5.6551846E-32
   2.600000      6.8077392E-32
   2.610000      8.0462483E-32
   2.620000      9.3696116E-32
   2.630000      1.0775805E-31
   2.640000      1.2261780E-31
   2.650000      1.3823360E-31
   2.660000      1.5455160E-31
   2.670000      1.7150481E-31
   2.680000      1.8901156E-31
   2.690000      2.0697507E-31
   2.700000      2.2528267E-31
   2.710000      2.4380453E-31
   2.720000      2.6239321E-31
   2.730000      2.8088296E-31
   2.740000      2.9908928E-31
   2.750000      3.1680852E-31
   2.760000      3.3381780E-31
   2.770000      3.4987515E-31
   2.780000      3.6471969E-31
   2.790000      3.7807223E-31
   2.800000      3.8963580E-31
   2.810000      3.9909674E-31
   2.820000      4.0612573E-31
   2.830000      4.1037937E-31
   2.840000      4.1150117E-31
   2.850000      4.0912385E-31
   2.860000      4.0287097E-31
   2.870000      3.9235940E-31
   2.880000      3.7720121E-31
   2.890000      3.5700643E-31
   2.900000      3.3138573E-31
   2.910000      2.9995320E-31
   2.920000      2.6232967E-31
   2.930000      2.1814549E-31
   2.940000      1.6704457E-31
   2.950000      1.0868831E-31
   2.960000      4.2758977E-32
   2.970000     -3.1035449E-32
   2.980000     -1.1295681E-31
   2.990000     -2.0323190E-31
   3.000000     -3.0204725E-31
   3.010000     -4.0954355E-31
   3.020000     -5.2580991E-31
   3.030000     -6.5087771E-31
   3.040000     -7.8471423E-31
   3.050000     -9.2721650E-31
   3.060000     -1.0782043E-30
   3.070000     -1.2374137E-30
   3.080000     -1.4044901E-30
   3.090000     -1.5789821E-30
   3.100000     -1.7603346E-30
   3.110000     -1.9478835E-30
   3.120000     -2.1408487E-30
   3.130000     -2.3383312E-30
   3.140000     -2.5393067E-30
   3.150000     -2.7426228E-30
   3.160000     -2.9469967E-30
   3.170000     -3.1510121E-30
   3.180000     -3.3531196E-30
   3.190000     -3.5516360E-30
   3.200000     -3.7447473E-30
   3.210000     -3.9305093E-30
   3.220000     -4.1068534E-30
   3.230000     -4.2715896E-30
   3.240000     -4.4224148E-30
   3.250000     -4.5569180E-30
   3.260000     -4.6725904E-30
   3.270000     -4.7668354E-30
   3.280000     -4.8369776E-30
   3.290000     -4.8802760E-30
   3.300000     -4.8939366E-30
   3.310000     -4.8751275E-30
   3.320000     -4.8209927E-30
   3.330000     -4.7286703E-30
   3.340000     -4.5953098E-30
   3.350000     -4.4180919E-30
   3.360000     -4.1942485E-30
   3.370000     -3.9210873E-30
   3.380000     -3.5960129E-30
   3.390000     -3.2165554E-30
   3.400000     -2.7803977E-30
   3.410000     -2.2854035E-30
   3.420000     -1.7296506E-30
   3.430000     -1.1114631E-30
   3.440000     -4.2944697E-31
   3.450000      3.1747371E-31
   3.460000      1.1300196E-30
   3.470000      2.0085162E-30
   3.480000      2.9528540E-30
   3.490000      3.9624493E-30
   3.500000      5.0362037E-30
   3.510000      6.1724644E-30
   3.520000      7.3689856E-30
   3.530000      8.6228939E-30
   3.540000      9.9306462E-30
   3.550000      1.1288008E-29
   3.560000      1.2690014E-29
   3.570000      1.4130950E-29
   3.580000      1.5604324E-29
   3.590000      1.7102860E-29
   3.600000      1.8618469E-29
   3.610000      2.0142259E-29
   3.620000      2.1664515E-29
   3.630000      2.3174720E-29
   3.640000      2.4661548E-29
   3.650000      2.6112884E-29
   3.660000      2.7515845E-29
   3.670000      2.8856804E-29
   3.680000      3.0121424E-29
   3.690000      3.1294682E-29
   3.700000      3.2360928E-29
   3.710000      3.3303927E-29
   3.720000      3.4106916E-29
   3.730000      3.4752657E-29
   3.740000      3.5223516E-29
   3.750000      3.5501545E-29
   3.760000      3.5568553E-29
   3.770000      3.5406209E-29
   3.780000      3.4996142E-29
   3.790000      3.4320054E-29
   3.800000      3.3359842E-29
   3.810000      3.2097741E-29
   3.820000      3.0516459E-29
   3.830000      2.8599334E-29
   3.840000      2.6330508E-29
   3.850000      2.3695092E-29
   3.860000      2.0679384E-29
   3.870000      1.7271031E-29
   3.880000      1.3459265E-29
   3.890000      9.2351072E-30
   3.900000      4.5915945E-30
   3.910000     -4.7598964E-31
   3.920000     -5.9698991E-30
   3.930000     -1.1889676E-29
   3.940000     -1.8231933E-29
   3.950000     -2.4990125E-29
   3.960000     -3.2154321E-29
   3.970000     -3.9710987E-29
   3.980000     -4.7642794E-29
   3.990000     -5.5928416E-29
   4.000000     -6.4542342E-29
   4.010000     -7.3454721E-29
   4.020000     -8.2631200E-29
   4.030000     -9.2032777E-29
   4.040000     -1.0161571E-28
   4.050000     -1.1133141E-28
   4.060000     -1.2112636E-28
   4.070000     -1.3094203E-28
   4.080000     -1.4071488E-28
   4.090000     -1.5037633E-28
   4.100000     -1.5985276E-28
   4.110000     -1.6906553E-28
   4.120000     -1.7793109E-28
   4.130000     -1.8636100E-28
   4.140000     -1.9426211E-28
   4.150000     -2.0153670E-28
   4.160000     -2.0808265E-28
   4.170000     -2.1379366E-28
   4.180000     -2.1855959E-28
   4.190000     -2.2226669E-28
   4.200000     -2.2479808E-28
   4.210000     -2.2603405E-28
   4.220000     -2.2585270E-28
   4.230000     -2.2413034E-28
   4.240000     -2.2074217E-28
   4.250000     -2.1556296E-28
   4.260000     -2.0846778E-28
   4.270000     -1.9933281E-28
   4.280000     -1.8803615E-28
   4.290000     -1.7445888E-28
   4.300000     -1.5848597E-28
   4.310000     -1.4000733E-28
   4.320000     -1.1891895E-28
   4.330000     -9.5124075E-29
   4.340000     -6.8534337E-29
   4.350000     -3.9071124E-29
   4.360000     -6.6666847E-30
   4.370000      2.8734423E-29
   4.380000      6.7174053E-29
   4.390000      1.0867923E-28
   4.400000      1.5326071E-28
   4.410000      2.0091158E-28
   4.420000      2.5160604E-28
   4.430000      3.0529810E-28
   4.440000      3.6192001E-28
   4.450000      4.2138115E-28
   4.460000      4.8356668E-28
   4.470000      5.4833633E-28
   4.480000      6.1552293E-28
   4.490000      6.8493151E-28
   4.500000      7.5633768E-28
   4.510000      8.2948705E-28
   4.520000      9.0409372E-28
   4.530000      9.7983939E-28
   4.540000      1.0563722E-27
   4.550000      1.1333062E-27
   4.560000      1.2102204E-27
   4.570000      1.2866580E-27
   4.580000      1.3621261E-27
   4.590000      1.4360951E-27
   4.600000      1.5079983E-27
   4.610000      1.5772327E-27
   4.620000      1.6431582E-27
   4.630000      1.7050982E-27
   4.640000      1.7623411E-27
   4.650000      1.8141397E-27
   4.660000      1.8597145E-27
   4.670000      1.8982532E-27
   4.680000      1.9289136E-27
   4.690000      1.9508251E-27
   4.700000      1.9630921E-27
   4.710000      1.9647962E-27
   4.720000      1.9549992E-27
   4.730000      1.9327470E-27
   4.740000      1.8970732E-27
   4.750000      1.8470030E-27
   4.760000      1.7815586E-27
   4.770000      1.6997630E-27
   4.780000      1.6006453E-27
   4.790000      1.4832471E-27
   4.800000      1.3466276E-27
   4.810000      1.1898692E-27
   4.820000      1.0120849E-27
   4.830000      8.1242447E-28
   4.840000      5.9008178E-28
   4.850000      3.4430155E-28
   4.860000      7.4387895E-29
   4.870000     -2.2028820E-28
   4.880000     -5.4028089E-28
   4.890000     -8.8606009E-28
   4.900000     -1.2580031E-27
   4.910000     -1.6563847E-27
   4.920000     -2.0813685E-27
   4.930000     -2.5329960E-27
   4.940000     -3.0111776E-27
   4.950000     -3.5156827E-27
   4.960000     -4.0461265E-27
   4.970000     -4.6019638E-27
   4.980000     -5.1824733E-27
   4.990000     -5.7867512E-27
   5.000000     -6.4136976E-27
   5.010000     -7.0620076E-27
   5.020000     -7.7301605E-27
   5.030000     -8.4164086E-27
   5.040000     -9.1187706E-27
   5.050000     -9.8350186E-27
   5.060000     -1.0562670E-26
   5.070000     -1.1298983E-26
   5.080000     -1.2040941E-26
   5.090000     -1.2785258E-26
   5.100000     -1.3528361E-26
   5.110000     -1.4266389E-26
   5.120000     -1.4995193E-26
   5.130000     -1.5710330E-26
   5.140000     -1.6407056E-26
   5.150000     -1.7080335E-26
   5.160000     -1.7724831E-26
   5.170000     -1.8334918E-26
   5.180000     -1.8904676E-26
   5.190000     -1.9427898E-26
   5.200000     -1.9898098E-26
   5.210000     -2.0308517E-26
   5.220000     -2.0652132E-26
   5.230000     -2.0921668E-26
   5.240000     -2.1109610E-26
   5.250000     -2.1208219E-26
   5.260000     -2.1209548E-26
   5.270000     -2.1105465E-26
   5.280000     -2.0887669E-26
   5.290000     -2.0547719E-26
   5.300000     -2.0077057E-26
   5.310000     -1.9467038E-26
   5.320000     -1.8708964E-26
   5.330000     -1.7794120E-26
   5.340000     -1.6713807E-26
   5.350000     -1.5459392E-26
   5.360000     -1.4022342E-26
   5.370000     -1.2394278E-26
   5.380000     -1.0567024E-26
   5.390000     -8.5326547E-27
   5.400000     -6.2835672E-27
   5.410000     -3.8125235E-27
   5.420000     -1.1127209E-27
   5.430000      1.8221377E-27
   5.440000      4.9977824E-27
   5.450000      8.4193129E-27
   5.460000      1.2091106E-26
   5.470000      1.6016753E-26
   5.480000      2.0198984E-26
   5.490000      2.4639585E-26
   5.500000      2.9339318E-26
   5.510000      3.4297839E-26
   5.520000      3.9513614E-26
   5.530000      4.4983835E-26
   5.540000      5.0704327E-26
   5.550000      5.6669475E-26
   5.560000      6.2872116E-26
   5.570000      6.9303489E-26
   5.580000      7.5953106E-26
   5.590000      8.2808695E-26
   5.600000      8.9856083E-26
   5.610000      9.7079170E-26
   5.620000      1.0445975E-25
   5.630000      1.1197752E-25
   5.640000      1.1960997E-25
   5.650000      1.2733227E-25
   5.660000      1.3511724E-25
   5.670000      1.4293527E-25
   5.680000      1.5075426E-25
   5.690000      1.5853956E-25
   5.700000      1.6625389E-25
   5.710000      1.7385733E-25
   5.720000      1.8130727E-25
   5.730000      1.8855837E-25
   5.740000      1.9556259E-25
   5.750000      2.0226911E-25
   5.760000      2.0862442E-25
   5.770000      2.1457229E-25
   5.780000      2.2005371E-25
   5.790000      2.2500712E-25
   5.800000      2.2936836E-25
   5.810000      2.3307073E-25
   5.820000      2.3604513E-25
   5.830000      2.3822012E-25
   5.840000      2.3952208E-25
   5.850000      2.3987539E-25
   5.860000      2.3920252E-25
   5.870000      2.3742421E-25
   5.880000      2.3445974E-25
   5.890000      2.3022713E-25
   5.900000      2.2464338E-25
   5.910000      2.1762466E-25
   5.920000      2.0908672E-25
   5.930000      1.9894519E-25
   5.940000      1.8711582E-25
   5.950000      1.7351496E-25
   5.960000      1.5805987E-25
   5.970000      1.4066916E-25
   5.980000      1.2126323E-25
   5.990000      9.9764773E-26
   6.000000      7.6099181E-26
   6.010000      5.0195133E-26
   6.020000      2.1985174E-26
   6.030000     -8.5937891E-27
   6.040000     -4.1599831E-26
   6.050000     -7.7085417E-26
   6.060000     -1.1509675E-25
   6.070000     -1.5567299E-25
   6.080000     -1.9884569E-25
   6.090000     -2.4463802E-25
   6.100000     -2.9306407E-25
   6.110000     -3.4412787E-25
   6.120000     -3.9782292E-25
   6.130000     -4.5413115E-25
   6.140000     -5.1302223E-25
   6.150000     -5.7445285E-25
   6.160000     -6.3836557E-25
   6.170000     -7.0468831E-25
   6.180000     -7.7333336E-25
   6.190000     -8.4419664E-25
   6.200000     -9.1715681E-25
   6.210000     -9.9207473E-25
   6.220000     -1.0687922E-24
   6.230000     -1.1471315E-24
   6.240000     -1.2268945E-24
   6.250000     -1.3078621E-24
   6.260000     -1.3897933E-24
   6.270000     -1.4724249E-24
   6.280000     -1.5554704E-24
   6.290000     -1.6386198E-24
   6.300000     -1.7215386E-24
   6.310000     -1.8038685E-24
   6.320000     -1.8852249E-24
   6.330000     -1.9651992E-24
   6.340000     -2.0433560E-24
   6.350000     -2.1192350E-24
   6.360000     -2.1923492E-24
   6.370000     -2.2621866E-24
   6.380000     -2.3282094E-24
   6.390000     -2.3898535E-24
   6.400000     -2.4465304E-24
   6.410000     -2.4976267E-24
   6.420000     -2.5425052E-24
   6.430000     -2.5805054E-24
   6.440000     -2.6109440E-24
   6.450000     -2.6331171E-24
   6.460000     -2.6463006E-24
   6.470000     -2.6497522E-24
   6.480000     -2.6427128E-24
   6.490000     -2.6244077E-24
   6.500000     -2.5940496E-24
   6.510000     -2.5508403E-24
   6.520000     -2.4939735E-24
   6.530000     -2.4226366E-24
   6.540000     -2.3360146E-24
   6.550000     -2.2332922E-24
   6.560000     -2.1136587E-24
   6.570000     -1.9763094E-24
   6.580000     -1.8204504E-24
   6.590000     -1.6453032E-24
   6.600000     -1.4501077E-24
   6.610000     -1.2341273E-24
   6.620000     -9.9665377E-25
   6.630000     -7.3701120E-25
   6.640000     -4.5456261E-25
   6.650000     -1.4871378E-25
   6.660000      1.8108033E-25
   6.670000      5.3531016E-25
   6.680000      9.1440585E-25
   6.690000      1.3187303E-24
   6.700000      1.7485741E-24
   6.710000      2.2041476E-24
   6.720000      2.6855742E-24
   6.730000      3.1928845E-24
   6.740000      3.7260094E-24
   6.750000      4.2847726E-24
   6.760000      4.8688834E-24
   6.770000      5.4779306E-24
   6.780000      6.1113725E-24
   6.790000      6.7685331E-24
   6.800000      7.4485919E-24
   6.810000      8.1505795E-24
   6.820000      8.8733678E-24
   6.830000      9.6156670E-24
   6.840000      1.0376011E-23
   6.850000      1.1152762E-23
   6.860000      1.1944094E-23
   6.870000      1.2747991E-23
   6.880000      1.3562243E-23
   6.890000      1.4384437E-23
   6.900000      1.5211954E-23
   6.910000      1.6041965E-23
   6.920000      1.6871423E-23
   6.930000      1.7697067E-23
   6.940000      1.8515411E-23
   6.950000      1.9322746E-23
   6.960000      2.0115139E-23
   6.970000      2.0888431E-23
   6.980000      2.1638237E-23
   6.990000      2.2359948E-23
   7.000000      2.3048734E-23
   7.010000      2.3699543E-23
   7.020000      2.4307105E-23
   7.030000      2.4865939E-23
   7.040000      2.5370366E-23
   7.050000      2.5814509E-23
   7.060000      2.6192298E-23