  -2.600000      0.0000000E+00
  -2.590000      0.0000000E+00
  -2.580000      0.0000000E+00
  -2.570000      0.0000000E+00
  -2.560000      0.0000000E+00
  -2.550000      0.0000000E+00
  -2.540000      0.0000000E+00
  -2.530000      0.0000000E+00
  -2.520000      0.0000000E+00
  -2.510000      0.0000000E+00
  -2.500000      0.0000000E+00
  -2.490000      0.0000000E+00
  -2.480000      0.0000000E+00
  -2.470000      0.0000000E+00
  -2.460000      0.0000000E+00
  -2.450000      0.0000000E+00
  -2.440000      0.0000000E+00
  -2.430000      0.0000000E+00
  -2.420000      0.0000000E+00
  -2.410000      0.0000000E+00
  -2.400000      0.0000000E+00
  -2.390000      0.0000000E+00
  -2.380000      0.0000000E+00
  -2.370000      0.0000000E+00
  -2.360000      0.0000000E+00
  -2.350000      0.0000000E+00
  -2.340000      0.0000000E+00
  -2.330000      0.0000000E+00
  -2.320000      0.0000000E+00
  -2.310000      0.0000000E+00
  -2.300000      0.0000000E+00
  -2.290000      0.0000000E+00
  -2.280000      0.0000000E+00
  -2.270000      0.0000000E+00
  -2.260000      0.0000000E+00
  -2.250000      0.0000000E+00
  -2.240000      0.0000000E+00
  -2.230000      0.0000000E+00
  -2.220000      0.0000000E+00
  -2.210000      0.0000000E+00
  -2.200000      0.0000000E+00
  -2.190000      0.0000000E+00
  -2.180000      0.0000000E+00
  -2.170000      0.0000000E+00
  -2.160000      0.0000000E+00
  -2.150000      0.0000000E+00
  -2.140000      0.0000000E+00
  -2.130000      0.0000000E+00
  -2.120000      0.0000000E+00
  -2.110000      0.0000000E+00
  -2.100000      0.0000000E+00
  -2.090000      0.0000000E+00
  -2.080000      0.0000000E+00
  -2.070000      0.0000000E+00
  -2.060000      0.0000000E+00
  -2.050000      0.0000000E+00
  -2.040000      0.0000000E+00
  -2.030000      0.0000000E+00
  -2.020000      0.0000000E+00
  -2.010000      0.0000000E+00
  -2.000000      0.0000000E+00
  -1.990000      0.0000000E+00
  -1.980000      0.0000000E+00
  -1.970000      0.0000000E+00
  -1.960000      0.0000000E+00
  -1.950000      0.0000000E+00
  -1.940000      0.0000000E+00
  -1.930000      0.0000000E+00
  -1.920000      0.0000000E+00
  -1.910000      0.0000000E+00
  -1.900000      0.0000000E+00
  -1.890000      0.0000000E+00
  -1.880000      0.0000000E+00
  -1.870000      0.0000000E+00
  -1.860000      0.0000000E+00
  -1.850000      0.0000000E+00
  -1.840000      0.0000000E+00
  -1.830000      0.0000000E+00
  -1.820000      0.0000000E+00
  -1.810000      0.0000000E+00
  -1.800000      0.0000000E+00
  -1.790000      0.0000000E+00
  -1.780000      0.0000000E+00
  -1.770000      0.0000000E+00
  -1.760000      0.0000000E+00
  -1.750000      0.0000000E+00
  -1.740000      0.0000000E+00
  -1.730000      0.0000000E+00
  -1.720000      0.0000000E+00
  -1.710000      0.0000000E+00
  -1.700000      0.0000000E+00
  -1.690000      0.0000000E+00
  -1.680000      0.0000000E+00
  -1.670000      0.0000000E+00
  -1.660000      0.0000000E+00
  -1.650000      0.0000000E+00
  -1.640000      0.0000000E+00
  -1.630000      0.0000000E+00
  -1.620000      0.0000000E+00
  -1.610000      0.0000000E+00
  -1.600000      0.0000000E+00
  -1.590000      0.0000000E+00
  -1.580000      0.0000000E+00
  -1.570000      0.0000000E+00
  -1.560000      0.0000000E+00
  -1.550000      0.0000000E+00
  -1.540000      0.0000000E+00
  -1.530000      0.0000000E+00
  -1.520000      0.0000000E+00
  -1.510000      0.0000000E+00
  -1.500000      0.0000000E+00
  -1.490000      0.0000000E+00
  -1.480000      0.0000000E+00
  -1.470000      0.0000000E+00
  -1.460000      0.0000000E+00
  -1.450000      0.0000000E+00
  -1.440000      0.0000000E+00
  -1.430000      0.0000000E+00
  -1.420000      0.0000000E+00
  -1.410000      0.0000000E+00
  -1.400000      0.0000000E+00
  -1.390000      0.0000000E+00
  -1.380000      0.0000000E+00
  -1.370000      0.0000000E+00
  -1.360000      0.0000000E+00
  -1.350000      0.0000000E+00
  -1.340000      0.0000000E+00
  -1.330000      0.0000000E+00
  -1.320000      0.0000000E+00
  -1.310000      0.0000000E+00
  -1.300000      0.0000000E+00
  -1.290000      0.0000000E+00
  -1.280000      0.0000000E+00
  -1.270000      0.0000000E+00
  -1.260000      0.0000000E+00
  -1.250000      0.0000000E+00
  -1.240000      0.0000000E+00
  -1.230000      0.0000000E+00
  -1.220000      0.0000000E+00
  -1.210000      0.0000000E+00
  -1.200000      0.0000000E+00
  -1.190000      0.0000000E+00
  -1.180000      0.0000000E+00
  -1.170000      0.0000000E+00
  -1.160000      0.0000000E+00
  -1.150000      0.0000000E+00
  -1.140000      0.0000000E+00
  -1.130000      0.0000000E+00
  -1.120000      0.0000000E+00
  -1.110000      0.0000000E+00
  -1.100000      0.0000000E+00
  -1.090000      0.0000000E+00
  -1.080000      0.0000000E+00
  -1.070000      0.0000000E+00
  -1.060000      0.0000000E+00
  -1.050000      0.0000000E+00
  -1.040000      0.0000000E+00
  -1.030000      0.0000000E+00
  -1.020000      0.0000000E+00
  -1.010000      0.0000000E+00
  -1.000000      0.0000000E+00
 -0.9900000      0.0000000E+00
 -0.9800000      0.0000000E+00
 -0.9700000      0.0000000E+00
 -0.9600000      0.0000000E+00
 -0.9500000      0.0000000E+00
 -0.9400000      0.0000000E+00
 -0.9300000      0.0000000E+00
 -0.9200000      0.0000000E+00
 -0.9100000      0.0000000E+00
 -0.9000000      0.0000000E+00
 -0.8900000      0.0000000E+00
 -0.8800000      0.0000000E+00
 -0.8700000      0.0000000E+00
 -0.8600000      0.0000000E+00
 -0.8500000      0.0000000E+00
 -0.8400000      0.0000000E+00
 -0.8300000      0.0000000E+00
 -0.8200000      0.0000000E+00
 -0.8100000      0.0000000E+00
 -0.8000000      0.0000000E+00
 -0.7900000      0.0000000E+00
 -0.7800000      0.0000000E+00
 -0.7700000      0.0000000E+00
 -0.7600000      0.0000000E+00
 -0.7500000      0.0000000E+00
 -0.7400000      0.0000000E+00
 -0.7300000      0.0000000E+00
 -0.7200000      0.0000000E+00
 -0.7100000      0.0000000E+00
 -0.7000000      0.0000000E+00
 -0.6900000      0.0000000E+00
 -0.6800000      0.0000000E+00
 -0.6700000      0.0000000E+00
 -0.6600000      0.0000000E+00
 -0.6500000      0.0000000E+00
 -0.6400000      0.0000000E+00
 -0.6300000      0.0000000E+00
 -0.6200000      0.0000000E+00
 -0.6100000      0.0000000E+00
 -0.6000000      0.0000000E+00
 -0.5900000      0.0000000E+00
 -0.5800000      0.0000000E+00
 -0.5700000      0.0000000E+00
 -0.5600000      0.0000000E+00
 -0.5500000      0.0000000E+00
 -0.5400000      0.0000000E+00
 -0.5300000      0.0000000E+00
 -0.5200000      0.0000000E+00
 -0.5100000      0.0000000E+00
 -0.5000000      0.0000000E+00
 -0.4900000      0.0000000E+00
 -0.4800000      0.0000000E+00
 -0.4700000      0.0000000E+00
 -0.4600000      0.0000000E+00
 -0.4500000      0.0000000E+00
 -0.4400000      0.0000000E+00
 -0.4300000      0.0000000E+00
 -0.4200000      0.0000000E+00
 -0.4100000      0.0000000E+00
 -0.4000000      0.0000000E+00
 -0.3900000      0.0000000E+00
 -0.3800000      0.0000000E+00
 -0.3700000      0.0000000E+00
 -0.3600000      0.0000000E+00
 -0.3500000      0.0000000E+00
 -0.3400000      0.0000000E+00
 -0.3300000      0.0000000E+00
 -0.3200000      0.0000000E+00
 -0.3100000      0.0000000E+00
 -0.3000000      0.0000000E+00
 -0.2900000      0.0000000E+00
 -0.2800000      0.0000000E+00
 -0.2700000      0.0000000E+00
 -0.2600000      0.0000000E+00
 -0.2500000      0.0000000E+00
 -0.2400000      0.0000000E+00
 -0.2300000      0.0000000E+00
 -0.2200000      0.0000000E+00
 -0.2100000      0.0000000E+00
 -0.2000000      0.0000000E+00
 -0.1900000      0.0000000E+00
 -0.1800000      0.0000000E+00
 -0.1700000      0.0000000E+00
 -0.1600000      0.0000000E+00
 -0.1500000      0.0000000E+00
 -0.1400000      0.0000000E+00
 -0.1300000      0.0000000E+00
 -0.1200000      0.0000000E+00
 -0.1100000      0.0000000E+00
 -0.1000000      0.0000000E+00
 -9.0000004E-02  0.0000000E+00
 -7.9999998E-02  0.0000000E+00
 -7.0000000E-02  0.0000000E+00
 -5.9999999E-02  0.0000000E+00
 -5.0000001E-02  0.0000000E+00
 -3.9999999E-02  0.0000000E+00
 -2.9999999E-02  0.0000000E+00
 -2.0000000E-02  0.0000000E+00
 -9.9999998E-03  0.0000000E+00
 -3.4694470E-17  0.0000000E+00
  9.9999998E-03  0.0000000E+00
  2.0000000E-02  0.0000000E+00
  2.9999999E-02  0.0000000E+00
  3.9999999E-02  0.0000000E+00
  5.0000001E-02  0.0000000E+00
  5.9999999E-02  0.0000000E+00
  7.0000000E-02  0.0000000E+00
  7.9999998E-02  0.0000000E+00
  9.0000004E-02  0.0000000E+00
  0.1000000      0.0000000E+00
  0.1100000      0.0000000E+00
  0.1200000      0.0000000E+00
  0.1300000      0.0000000E+00
  0.1400000      0.0000000E+00
  0.1500000      0.0000000E+00
  0.1600000      0.0000000E+00
  0.1700000      0.0000000E+00
  0.1800000      0.0000000E+00
  0.1900000      0.0000000E+00
  0.2000000      0.0000000E+00
  0.2100000      0.0000000E+00
  0.2200000      0.0000000E+00
  0.2300000      0.0000000E+00
  0.2400000      0.0000000E+00
  0.2500000      0.0000000E+00
  0.2600000      0.0000000E+00
  0.2700000      0.0000000E+00
  0.2800000      0.0000000E+00
  0.2900000      0.0000000E+00
  0.3000000      0.0000000E+00
  0.3100000      0.0000000E+00
  0.3200000      0.0000000E+00
  0.3300000      0.0000000E+00
  0.3400000      0.0000000E+00
  0.3500000      0.0000000E+00
  0.3600000      0.0000000E+00
  0.3700000      0.0000000E+00
  0.3800000      0.0000000E+00
  0.3900000      0.0000000E+00
  0.4000000      0.0000000E+00
  0.4100000      0.0000000E+00
  0.4200000      0.0000000E+00
  0.4300000      0.0000000E+00
  0.4400000      0.0000000E+00
  0.4500000      0.0000000E+00
  0.4600000      0.0000000E+00
  0.4700000      0.0000000E+00
  0.4800000      0.0000000E+00
  0.4900000      0.0000000E+00
  0.5000000      0.0000000E+00
  0.5100000      0.0000000E+00
  0.5200000      0.0000000E+00
  0.5300000      0.0000000E+00
  0.5400000      0.0000000E+00
  0.5500000      0.0000000E+00
  0.5600000      0.0000000E+00
  0.5700000      0.0000000E+00
  0.5800000      0.0000000E+00
  0.5900000      0.0000000E+00
  0.6000000      0.0000000E+00
  0.6100000      0.0000000E+00
  0.6200000      0.0000000E+00
  0.6300000      0.0000000E+00
  0.6400000      0.0000000E+00
  0.6500000      0.0000000E+00
  0.6600000      0.0000000E+00
  0.6700000      0.0000000E+00
  0.6800000      0.0000000E+00
  0.6900000      0.0000000E+00
  0.7000000      0.0000000E+00
  0.7100000      0.0000000E+00
  0.7200000      1.2472317E-38
  0.7300000      1.4574174E-38
  0.7400000      1.6221892E-38
  0.7500000      1.6628304E-38
  0.7600000      1.5528935E-38
  0.7700000      1.3220981E-38
  0.7800000      0.0000000E+00
  0.7900000      0.0000000E+00
  0.8000000      0.0000000E+00
  0.8100000      0.0000000E+00
  0.8200000      0.0000000E+00
  0.8300000      0.0000000E+00
  0.8400000     -2.6186947E-38
  0.8500000     -4.5599670E-38
  0.8600000     -6.8254339E-38
  0.8700000     -9.0791759E-38
  0.8800000     -1.1439614E-37
  0.8900000     -1.4337525E-37
  0.9000000     -1.7473788E-37
  0.9100000     -2.0754887E-37
  0.9200000     -2.3952065E-37
  0.9300000     -2.6559808E-37
  0.9400000     -2.9008313E-37
  0.9500000     -3.1513541E-37
  0.9600000     -3.3432836E-37
  0.9700000     -3.3671408E-37
  0.9800000     -3.1205569E-37
  0.9900000     -2.6448683E-37
   1.000000     -1.9935412E-37
   1.010000     -1.1322042E-37
   1.020000      0.0000000E+00
   1.030000      1.3763596E-37
   1.040000      2.9602488E-37
   1.050000      4.7057809E-37
   1.060000      6.6044331E-37
   1.070000      8.6083832E-37
   1.080000      1.0648984E-36
   1.090000      1.2665558E-36
   1.100000      1.4663044E-36
   1.110000      1.6474022E-36
   1.120000      1.7936190E-36
   1.130000      1.9204027E-36
   1.140000      1.9979363E-36
   1.150000      2.0135605E-36
   1.160000      2.0119634E-36
   1.170000      2.0025094E-36
   1.180000      1.9591177E-36
   1.190000      1.8572809E-36
   1.200000      1.6782313E-36
   1.210000      1.3742605E-36
   1.220000      9.3271923E-37
   1.230000      3.6856907E-37
   1.240000     -3.3619567E-37
   1.250000     -1.1550490E-36
   1.260000     -2.0953251E-36
   1.270000     -3.2156992E-36
   1.280000     -4.3514295E-36
   1.290000     -5.2551331E-36
   1.300000     -5.9534696E-36
   1.310000     -6.6328237E-36
   1.320000     -7.3385558E-36
   1.330000     -7.9295065E-36
   1.340000     -8.3353563E-36
   1.350000     -8.5473542E-36
   1.360000     -8.4792510E-36
   1.370000     -8.3003468E-36
   1.380000     -8.2127609E-36
   1.390000     -8.0818616E-36
   1.400000     -7.8509642E-36
   1.410000     -7.5668001E-36
   1.420000     -6.9264900E-36
   1.430000     -5.8770065E-36
   1.440000     -4.6192835E-36
   1.450000     -3.1478162E-36
   1.460000     -1.7408301E-36
   1.470000     -2.7624007E-37
   1.480000      1.4721255E-36
   1.490000      3.3966051E-36
   1.500000      5.6304780E-36
   1.510000      8.3283086E-36
   1.520000      1.1541082E-35
   1.530000      1.5288202E-35
   1.540000      1.9445407E-35
   1.550000      2.3921464E-35
   1.560000      2.8686051E-35
   1.570000      3.3653382E-35
   1.580000      3.8782167E-35
   1.590000      4.3957054E-35
   1.600000      4.8955701E-35
   1.610000      5.3479041E-35
   1.620000      5.7210202E-35
   1.630000      5.9562018E-35
   1.640000      6.0196687E-35
   1.650000      5.9134081E-35
   1.660000      5.6605219E-35
   1.670000      5.3297947E-35
   1.680000      4.9971223E-35
   1.690000      4.6525771E-35
   1.700000      4.1701592E-35
   1.710000      3.4552761E-35
   1.720000      2.5678060E-35
   1.730000      1.5299957E-35
   1.740000      3.2502609E-36
   1.750000     -9.4543947E-36
   1.760000     -2.3048906E-35
   1.770000     -3.7602520E-35
   1.780000     -5.2375689E-35
   1.790000     -6.9420254E-35
   1.800000     -8.8424921E-35
   1.810000     -1.0837266E-34
   1.820000     -1.3036658E-34
   1.830000     -1.5171692E-34
   1.840000     -1.7307442E-34
   1.850000     -1.9697036E-34
   1.860000     -2.2261457E-34
   1.870000     -2.4824296E-34
   1.880000     -2.7205354E-34
   1.890000     -2.9276373E-34
   1.900000     -3.0853717E-34
   1.910000     -3.1762312E-34
   1.920000     -3.2148556E-34
   1.930000     -3.2072523E-34
   1.940000     -3.1372156E-34
   1.950000     -3.0384747E-34
   1.960000     -2.9058539E-34
   1.970000     -2.7299440E-34
   1.980000     -2.5328335E-34
   1.990000     -2.3143948E-34
   2.000000     -2.0687197E-34
   2.010000     -1.7820917E-34
   2.020000     -1.4462595E-34
   2.030000     -1.0578732E-34
   2.040000     -5.9872720E-35
   2.050000     -6.5689234E-36
   2.060000      5.3748681E-35
   2.070000      1.1805385E-34
   2.080000      1.8408993E-34
   2.090000      2.5571660E-34
   2.100000      3.3257458E-34
   2.110000      4.1773028E-34
   2.120000      5.1030552E-34
   2.130000      6.0632329E-34
   2.140000      7.0833586E-34
   2.150000      8.1633344E-34
   2.160000      9.3185781E-34
   2.170000      1.0503346E-33
   2.180000      1.1693439E-33
   2.190000      1.2916635E-33
   2.200000      1.4158189E-33
   2.210000      1.5404177E-33
   2.220000      1.6620473E-33
   2.230000      1.7788383E-33
   2.240000      1.8910936E-33
   2.250000      1.9948749E-33
   2.260000      2.0870180E-33
   2.270000      2.1670148E-33
   2.280000      2.2319756E-33
   2.290000      2.2795785E-33
   2.300000      2.3073419E-33
   2.310000      2.3123012E-33
   2.320000      2.2924465E-33
   2.330000      2.2457871E-33
   2.340000      2.1696715E-33
   2.350000      2.0633028E-33
   2.360000      1.9242725E-33
   2.370000      1.7492645E-33
   2.380000      1.5375619E-33
   2.390000      1.2875166E-33
   2.400000      9.9844837E-34
   2.410000      6.7131725E-34
   2.420000      3.0438827E-34
   2.430000     -1.0374426E-34
   2.440000     -5.5222824E-34
   2.450000     -1.0405561E-33
   2.460000     -1.5678661E-33
   2.470000     -2.1333040E-33
   2.480000     -2.7346315E-33
   2.490000     -3.3696332E-33
   2.500000     -4.0365752E-33
   2.510000     -4.7324473E-33
   2.520000     -5.4534423E-33
   2.530000     -6.1957324E-33
   2.540000     -6.9553531E-33
   2.550000     -7.7277638E-33
   2.560000     -8.5074369E-33
   2.570000     -9.2881003E-33
   2.580000     -1.0063251E-32
   2.590000     -1.0825794E-32
   2.600000     -1.1567811E-32
   2.610000     -1.2280794E-32
   2.620000     -1.2955917E-32
   2.630000     -1.3584377E-32
   2.640000     -1.4156894E-32
   2.650000     -1.4662122E-32
   2.660000     -1.5088945E-32
   2.670000     -1.5427028E-32
   2.680000     -1.5665272E-32
   2.690000     -1.5792420E-32
   2.700000     -1.5797197E-32
   2.710000     -1.5668457E-32
   2.720000     -1.5395219E-32
   2.730000     -1.4966766E-32
   2.740000     -1.4372906E-32
   2.750000     -1.3603313E-32
   2.760000     -1.2649267E-32
   2.770000     -1.1502942E-32
   2.780000     -1.0156535E-32
   2.790000     -8.6035512E-33
   2.800000     -6.8385934E-33
   2.810000     -4.8577715E-33
   2.820000     -2.6585168E-33
   2.830000     -2.3979095E-34
   2.840000      2.3976773E-33
   2.850000      5.2513050E-33
   2.860000      8.3166607E-33
   2.870000      1.1587292E-32
   2.880000      1.5054459E-32
   2.890000      1.8707223E-32
   2.900000      2.2532375E-32
   2.910000      2.6514157E-32
   2.920000      3.0634244E-32
   2.930000      3.4872113E-32
   2.940000      3.9204297E-32
   2.950000      4.3605307E-32
   2.960000      4.8047185E-32
   2.970000      5.2498665E-32
   2.980000      5.6926353E-32
   2.990000      6.1294366E-32
   3.000000      6.5564455E-32
   3.010000      6.9696312E-32
   3.020000      7.3647325E-32
   3.030000      7.7372696E-32
   3.040000      8.0825939E-32
   3.050000      8.3959020E-32
   3.060000      8.6722301E-32
   3.070000      8.9064950E-32
   3.080000      9.0935420E-32
   3.090000      9.2281549E-32
   3.100000      9.3050957E-32
   3.110000      9.3191341E-32
   3.120000      9.2650901E-32
   3.130000      9.1378793E-32
   3.140000      8.9325522E-32
   3.150000      8.6443321E-32
   3.160000      8.2686688E-32
   3.170000      7.8012829E-32
   3.180000      7.2382093E-32
   3.190000      6.5758570E-32
   3.200000      5.8110504E-32
   3.210000      4.9410812E-32
   3.220000      3.9637602E-32
   3.230000      2.8774703E-32
   3.240000      1.6812138E-32
   3.250000      3.7466131E-33
   3.260000     -1.0417877E-32
   3.270000     -2.5669664E-32
   3.280000     -4.1988902E-32
   3.290000     -5.9346748E-32
   3.300000     -7.7706095E-32
   3.310000     -9.7020355E-32
   3.320000     -1.1723238E-31
   3.330000     -1.3827530E-31
   3.340000     -1.6007184E-31
   3.350000     -1.8253401E-31
   3.360000     -2.0556300E-31
   3.370000     -2.2904907E-31
   3.380000     -2.5287138E-31
   3.390000     -2.7689799E-31
   3.400000     -3.0098589E-31
   3.410000     -3.2498112E-31
   3.420000     -3.4871889E-31
   3.430000     -3.7202386E-31
   3.440000     -3.9471036E-31
   3.450000     -4.1658288E-31
   3.460000     -4.3743648E-31
   3.470000     -4.5705722E-31
   3.480000     -4.7522307E-31
   3.490000     -4.9170435E-31
   3.500000     -5.0626463E-31
   3.510000     -5.1866173E-31
   3.520000     -5.2864849E-31
   3.530000     -5.3597403E-31
   3.540000     -5.4038482E-31
   3.550000     -5.4162590E-31
   3.560000     -5.3944226E-31
   3.570000     -5.3358021E-31
   3.580000     -5.2378886E-31
   3.590000     -5.0982159E-31
   3.600000     -4.9143775E-31
   3.610000     -4.6840436E-31
   3.620000     -4.4049775E-31
   3.630000     -4.0750552E-31
   3.640000     -3.6922821E-31
   3.650000     -3.2548122E-31
   3.660000     -2.7609706E-31
   3.670000     -2.2092704E-31
   3.680000     -1.5984333E-31
   3.690000     -9.2741209E-32
   3.700000     -1.9540904E-32
   3.710000      5.9810128E-32
   3.720000      1.4533517E-31
   3.730000      2.3702607E-31
   3.740000      3.3484128E-31
   3.750000      4.3870390E-31
   3.760000      5.4849911E-31
   3.770000      6.6407296E-31
   3.780000      7.8522985E-31
   3.790000      9.1173091E-31
   3.800000      1.0432920E-30
   3.810000      1.1795821E-30
   3.820000      1.3202214E-30
   3.830000      1.4647806E-30
   3.840000      1.6127786E-30
   3.850000      1.7636816E-30
   3.860000      1.9169020E-30
   3.870000      2.0717969E-30
   3.880000      2.2276684E-30
   3.890000      2.3837622E-30
   3.900000      2.5392668E-30
   3.910000      2.6933141E-30
   3.920000      2.8449794E-30
   3.930000      2.9932811E-30
   3.940000      3.1371813E-30
   3.950000      3.2755870E-30
   3.960000      3.4073511E-30
   3.970000      3.5312731E-30
   3.980000      3.6461014E-30
   3.990000      3.7505349E-30
   4.000000      3.8432252E-30
   4.010000      3.9227796E-30
   4.020000      3.9877632E-30
   4.030000      4.0367029E-30
   4.040000      4.0680903E-30
   4.050000      4.0803861E-30
   4.060000      4.0720249E-30
   4.070000      4.0414184E-30
   4.080000      3.9869627E-30
   4.090000      3.9070408E-30
   4.100000      3.8000321E-30
   4.110000      3.6643164E-30
   4.120000      3.4982813E-30
   4.130000      3.3003296E-30
   4.140000      3.0688874E-30
   4.150000      2.8024107E-30
   4.160000      2.4993967E-30
   4.170000      2.1583901E-30
   4.180000      1.7779945E-30
   4.190000      1.3568819E-30
   4.200000      8.9380246E-31
   4.210000      3.8759641E-31
   4.220000     -1.6279444E-31
   4.230000     -7.5831686E-31
   4.240000     -1.3997919E-30
   4.250000     -2.0879027E-30
   4.260000     -2.8231818E-30
   4.270000     -3.6059988E-30
   4.280000     -4.4365451E-30
   4.290000     -5.3148226E-30
   4.300000     -6.2406247E-30
   4.310000     -7.2135262E-30
   4.320000     -8.2328653E-30
   4.330000     -9.2977315E-30
   4.340000     -1.0406947E-29
   4.350000     -1.1559058E-29
   4.360000     -1.2752310E-29
   4.370000     -1.3984642E-29
   4.380000     -1.5253668E-29
   4.390000     -1.6556654E-29
   4.400000     -1.7890515E-29
   4.410000     -1.9251799E-29
   4.420000     -2.0636660E-29
   4.430000     -2.2040861E-29
   4.440000     -2.3459748E-29
   4.450000     -2.4888243E-29
   4.460000     -2.6320833E-29
   4.470000     -2.7751546E-29
   4.480000     -2.9173957E-29
   4.490000     -3.0581168E-29
   4.500000     -3.1965803E-29
   4.510000     -3.3319993E-29
   4.520000     -3.4635379E-29
   4.530000     -3.5903105E-29
   4.540000     -3.7113808E-29
   4.550000     -3.8257626E-29
   4.560000     -3.9324188E-29
   4.570000     -4.0302621E-29
   4.580000     -4.1181555E-29
   4.590000     -4.1949138E-29
   4.600000     -4.2593021E-29
   4.610000     -4.3100383E-29
   4.620000     -4.3457962E-29
   4.630000     -4.3652045E-29
   4.640000     -4.3668499E-29
   4.650000     -4.3492803E-29
   4.660000     -4.3110061E-29
   4.670000     -4.2505036E-29
   4.680000     -4.1662201E-29
   4.690000     -4.0565748E-29
   4.700000     -3.9199656E-29
   4.710000     -3.7547726E-29
   4.720000     -3.5593638E-29
   4.730000     -3.3321001E-29
   4.740000     -3.0713419E-29
   4.750000     -2.7754540E-29
   4.760000     -2.4428152E-29
   4.770000     -2.0718249E-29
   4.780000     -1.6609089E-29
   4.790000     -1.2085326E-29
   4.800000     -7.1320601E-30
   4.810000     -1.7349433E-30
   4.820000      4.1196875E-30
   4.830000      1.0444746E-29
   4.840000      1.7252258E-29
   4.850000      2.4553235E-29
   4.860000      3.2357579E-29
   4.870000      4.0673922E-29
   4.880000      4.9509493E-29
   4.890000      5.8869979E-29
   4.900000      6.8759406E-29
   4.910000      7.9179939E-29
   4.920000      9.0131764E-29
   4.930000      1.0161289E-28
   4.940000      1.1361902E-28
   4.950000      1.2614337E-28
   4.960000      1.3917647E-28
   4.970000      1.5270600E-28
   4.980000      1.6671665E-28
   4.990000      1.8118989E-28
   5.000000      1.9610378E-28
   5.010000      2.1143287E-28
   5.020000      2.2714791E-28
   5.030000      2.4321568E-28
   5.040000      2.5959889E-28
   5.050000      2.7625597E-28
   5.060000      2.9314084E-28
   5.070000      3.1020277E-28
   5.080000      3.2738623E-28
   5.090000      3.4463069E-28
   5.100000      3.6187056E-28
   5.110000      3.7903493E-28
   5.120000      3.9604746E-28
   5.130000      4.1282636E-28
   5.140000      4.2928420E-28
   5.150000      4.4532777E-28
   5.160000      4.6085809E-28
   5.170000      4.7577032E-28
   5.180000      4.8995379E-28
   5.190000      5.0329181E-28
   5.200000      5.1566187E-28
   5.210000      5.2693549E-28
   5.220000      5.3697849E-28
   5.230000      5.4565081E-28
   5.240000      5.5280680E-28
   5.250000      5.5829541E-28
   5.260000      5.6196021E-28
   5.270000      5.6363977E-28
   5.280000      5.6316772E-28
   5.290000      5.6037334E-28
   5.300000      5.5508151E-28
   5.310000      5.4711351E-28
   5.320000      5.3628704E-28
   5.330000      5.2241712E-28
   5.340000      5.0531625E-28
   5.350000      4.8479523E-28
   5.360000      4.6066366E-28
   5.370000      4.3273055E-28
   5.380000      4.0080535E-28
   5.390000      3.6469838E-28
   5.400000      3.2422193E-28
   5.410000      2.7919099E-28
   5.420000      2.2942436E-28
   5.430000      1.7474565E-28
   5.440000      1.1498443E-28
   5.450000      4.9977076E-29
   5.460000     -2.0431861E-29
   5.470000     -9.6388268E-29
   5.480000     -1.7802722E-28
   5.490000     -2.6547165E-28
   5.500000     -3.5883101E-28
   5.510000     -4.5820002E-28
   5.520000     -5.6365643E-28
   5.530000     -6.7526002E-28
   5.540000     -7.9305077E-28
   5.550000     -9.1704743E-28
   5.560000     -1.0472456E-27
   5.570000     -1.1836159E-27
   5.580000     -1.3261024E-27
   5.590000     -1.4746213E-27
   5.600000     -1.6290577E-27
   5.610000     -1.7892656E-27
   5.620000     -1.9550648E-27
   5.630000     -2.1262394E-27
   5.640000     -2.3025359E-27
   5.650000     -2.4836621E-27
   5.660000     -2.6692842E-27
   5.670000     -2.8590261E-27
   5.680000     -3.0524667E-27
   5.690000     -3.2491390E-27
   5.700000     -3.4485282E-27
   5.710000     -3.6500713E-27
   5.720000     -3.8531530E-27
   5.730000     -4.0571066E-27
   5.740000     -4.2612132E-27
   5.750000     -4.4646981E-27
   5.760000     -4.6667312E-27
   5.770000     -4.8664275E-27
   5.780000     -5.0628450E-27
   5.790000     -5.2549834E-27
   5.800000     -5.4417859E-27
   5.810000     -5.6221369E-27
   5.820000     -5.7948644E-27
   5.830000     -5.9587375E-27
   5.840000     -6.1124702E-27
   5.850000     -6.2547198E-27
   5.860000     -6.3840891E-27
   5.870000     -6.4991284E-27
   5.880000     -6.5983354E-27
   5.890000     -6.6801573E-27
   5.900000     -6.7429974E-27
   5.910000     -6.7852114E-27
   5.920000     -6.8051148E-27
   5.930000     -6.8009856E-27
   5.940000     -6.7710659E-27
   5.950000     -6.7135715E-27
   5.960000     -6.6266881E-27
   5.970000     -6.5085855E-27
   5.980000     -6.3574162E-27
   5.990000     -6.1713243E-27
   6.000000     -5.9484523E-27
   6.010000     -5.6869472E-27
   6.020000     -5.3849664E-27
   6.030000     -5.0406871E-27
   6.040000     -4.6523153E-27
   6.050000     -4.2180916E-27
   6.060000     -3.7363018E-27
   6.070000     -3.2052869E-27
   6.080000     -2.6234517E-27
   6.090000     -1.9892771E-27
   6.100000     -1.3013295E-27
   6.110000     -5.5827177E-28
   6.120000      2.4112484E-28
   6.130000      1.0979685E-27
   6.140000      2.0132327E-27
   6.150000      2.9877464E-27
   6.160000      4.0221780E-27
   6.170000      5.1170275E-27
   6.180000      6.2726075E-27
   6.190000      7.4890310E-27
   6.200000      8.7661945E-27
   6.210000      1.0103773E-26
   6.220000      1.1501198E-26
   6.230000      1.2957641E-26
   6.240000      1.4472011E-26
   6.250000      1.6042922E-26
   6.260000      1.7668702E-26
   6.270000      1.9347355E-26
   6.280000      2.1076564E-26
   6.290000      2.2853672E-26
   6.300000      2.4675669E-26
   6.310000      2.6539179E-26
   6.320000      2.8440448E-26
   6.330000      3.0375333E-26
   6.340000      3.2339288E-26
   6.350000      3.4327356E-26
   6.360000      3.6334166E-26
   6.370000      3.8353912E-26
   6.380000      4.0380348E-26
   6.390000      4.2406783E-26
   6.400000      4.4426095E-26
   6.410000      4.6430689E-26
   6.420000      4.8412523E-26
   6.430000      5.0363093E-26
   6.440000      5.2273443E-26
   6.450000      5.4134150E-26
   6.460000      5.5935360E-26
   6.470000      5.7666755E-26
   6.480000      5.9317582E-26
   6.490000      6.0876649E-26
   6.500000      6.2332350E-26
   6.510000      6.3672686E-26
   6.520000      6.4885252E-26
   6.530000      6.5957270E-26
   6.540000      6.6875628E-26
   6.550000      6.7626858E-26
   6.560000      6.8197210E-26
   6.570000      6.8572659E-26
   6.580000      6.8738917E-26
   6.590000      6.8681503E-26
   6.600000      6.8385754E-26
   6.610000      6.7836879E-26
   6.620000      6.7019989E-26
   6.630000      6.5920157E-26
   6.640000      6.4522443E-26
   6.650000      6.2811983E-26
   6.660000      6.0773992E-26
   6.670000      5.8393869E-26
   6.680000      5.5657231E-26
   6.690000      5.2549988E-26
   6.700000      4.9058388E-26
   6.710000      4.5169112E-26
   6.720000      4.0869330E-26
   6.730000      3.6146784E-26
   6.740000      3.0989858E-26
   6.750000      2.5387662E-26
   6.760000      1.9330110E-26
   6.770000      1.2808015E-26
   6.780000      5.8131422E-27
   6.790000     -1.6616743E-27
   6.800000     -9.6224360E-27
   6.810000     -1.8073896E-26
   6.820000     -2.7019487E-26
   6.830000     -3.6461210E-26
   6.840000     -4.6399526E-26
   6.850000     -5.6833305E-26
   6.860000     -6.7759694E-26
   6.870000     -7.9174012E-26
   6.880000     -9.1069714E-26
   6.890000     -1.0343822E-25
   6.900000     -1.1626889E-25
   6.910000     -1.2954887E-25
   6.920000     -1.4326304E-25
   6.930000     -1.5739398E-25
   6.940000     -1.7192176E-25
   6.950000     -1.8682394E-25
   6.960000     -2.0207550E-25
   6.970000     -2.1764875E-25
   6.980000     -2.3351323E-25
   6.990000     -2.4963567E-25
   7.000000     -2.6597996E-25
   7.010000     -2.8250706E-25
   7.020000     -2.9917496E-25
   7.030000     -3.1593860E-25
   7.040000     -3.3274991E-25
   7.050000     -3.4955780E-25
   7.060000     -3.6630803E-25