  -2.600000      0.0000000E+00
  -2.590000      0.0000000E+00
  -2.580000      0.0000000E+00
  -2.570000      0.0000000E+00
  -2.560000      0.0000000E+00
  -2.550000      0.0000000E+00
  -2.540000      0.0000000E+00
  -2.530000      0.0000000E+00
  -2.520000      0.0000000E+00
  -2.510000      0.0000000E+00
  -2.500000      0.0000000E+00
  -2.490000      0.0000000E+00
  -2.480000      0.0000000E+00
  -2.470000      0.0000000E+00
  -2.460000      0.0000000E+00
  -2.450000      0.0000000E+00
  -2.440000      0.0000000E+00
  -2.430000      0.0000000E+00
  -2.420000      0.0000000E+00
  -2.410000      0.0000000E+00
  -2.400000      0.0000000E+00
  -2.390000      0.0000000E+00
  -2.380000      0.0000000E+00
  -2.370000      0.0000000E+00
  -2.360000      0.0000000E+00
  -2.350000      0.0000000E+00
  -2.340000      0.0000000E+00
  -2.330000      0.0000000E+00
  -2.320000      0.0000000E+00
  -2.310000      0.0000000E+00
  -2.300000      0.0000000E+00
  -2.290000      0.0000000E+00
  -2.280000      0.0000000E+00
  -2.270000      0.0000000E+00
  -2.260000      0.0000000E+00
  -2.250000      0.0000000E+00
  -2.240000      0.0000000E+00
  -2.230000      0.0000000E+00
  -2.220000      0.0000000E+00
  -2.210000      0.0000000E+00
  -2.200000      0.0000000E+00
  -2.190000      0.0000000E+00
  -2.180000      0.0000000E+00
  -2.170000      0.0000000E+00
  -2.160000      0.0000000E+00
  -2.150000      0.0000000E+00
  -2.140000      0.0000000E+00
  -2.130000      0.0000000E+00
  -2.120000      0.0000000E+00
  -2.110000      0.0000000E+00
  -2.100000      0.0000000E+00
  -2.090000      0.0000000E+00
  -2.080000      0.0000000E+00
  -2.070000      0.0000000E+00
  -2.060000      0.0000000E+00
  -2.050000      0.0000000E+00
  -2.040000      0.0000000E+00
  -2.030000      0.0000000E+00
  -2.020000      0.0000000E+00
  -2.010000      0.0000000E+00
  -2.000000      0.0000000E+00
  -1.990000      0.0000000E+00
  -1.980000      0.0000000E+00
  -1.970000      0.0000000E+00
  -1.960000      0.0000000E+00
  -1.950000      0.0000000E+00
  -1.940000      0.0000000E+00
  -1.930000      0.0000000E+00
  -1.920000      0.0000000E+00
  -1.910000      0.0000000E+00
  -1.900000      0.0000000E+00
  -1.890000      0.0000000E+00
  -1.880000      0.0000000E+00
  -1.870000      0.0000000E+00
  -1.860000      0.0000000E+00
  -1.850000      0.0000000E+00
  -1.840000      0.0000000E+00
  -1.830000      0.0000000E+00
  -1.820000      0.0000000E+00
  -1.810000      0.0000000E+00
  -1.800000      0.0000000E+00
  -1.790000      0.0000000E+00
  -1.780000      0.0000000E+00
  -1.770000      0.0000000E+00
  -1.760000      0.0000000E+00
  -1.750000      0.0000000E+00
  -1.740000      0.0000000E+00
  -1.730000      0.0000000E+00
  -1.720000      0.0000000E+00
  -1.710000      0.0000000E+00
  -1.700000      0.0000000E+00
  -1.690000      0.0000000E+00
  -1.680000      0.0000000E+00
  -1.670000      0.0000000E+00
  -1.660000      0.0000000E+00
  -1.650000      0.0000000E+00
  -1.640000      0.0000000E+00
  -1.630000      0.0000000E+00
  -1.620000      0.0000000E+00
  -1.610000      0.0000000E+00
  -1.600000      0.0000000E+00
  -1.590000      0.0000000E+00
  -1.580000      0.0000000E+00
  -1.570000      0.0000000E+00
  -1.560000      0.0000000E+00
  -1.550000      0.0000000E+00
  -1.540000      0.0000000E+00
  -1.530000      0.0000000E+00
  -1.520000      0.0000000E+00
  -1.510000      0.0000000E+00
  -1.500000      0.0000000E+00
  -1.490000      0.0000000E+00
  -1.480000      0.0000000E+00
  -1.470000      0.0000000E+00
  -1.460000      0.0000000E+00
  -1.450000      0.0000000E+00
  -1.440000      0.0000000E+00
  -1.430000      0.0000000E+00
  -1.420000      0.0000000E+00
  -1.410000      0.0000000E+00
  -1.400000      0.0000000E+00
  -1.390000      0.0000000E+00
  -1.380000      0.0000000E+00
  -1.370000      0.0000000E+00
  -1.360000      0.0000000E+00
  -1.350000      0.0000000E+00
  -1.340000      0.0000000E+00
  -1.330000      0.0000000E+00
  -1.320000      0.0000000E+00
  -1.310000      0.0000000E+00
  -1.300000      0.0000000E+00
  -1.290000      0.0000000E+00
  -1.280000      0.0000000E+00
  -1.270000      0.0000000E+00
  -1.260000      0.0000000E+00
  -1.250000      0.0000000E+00
  -1.240000      0.0000000E+00
  -1.230000      0.0000000E+00
  -1.220000      0.0000000E+00
  -1.210000      0.0000000E+00
  -1.200000      0.0000000E+00
  -1.190000      0.0000000E+00
  -1.180000      0.0000000E+00
  -1.170000      0.0000000E+00
  -1.160000      0.0000000E+00
  -1.150000      0.0000000E+00
  -1.140000      0.0000000E+00
  -1.130000      0.0000000E+00
  -1.120000      0.0000000E+00
  -1.110000      0.0000000E+00
  -1.100000      0.0000000E+00
  -1.090000      0.0000000E+00
  -1.080000      0.0000000E+00
  -1.070000      0.0000000E+00
  -1.060000      0.0000000E+00
  -1.050000      0.0000000E+00
  -1.040000      0.0000000E+00
  -1.030000      0.0000000E+00
  -1.020000      0.0000000E+00
  -1.010000      0.0000000E+00
  -1.000000      0.0000000E+00
 -0.9900000      0.0000000E+00
 -0.9800000      0.0000000E+00
 -0.9700000      0.0000000E+00
 -0.9600000      0.0000000E+00
 -0.9500000      0.0000000E+00
 -0.9400000      0.0000000E+00
 -0.9300000      0.0000000E+00
 -0.9200000      0.0000000E+00
 -0.9100000      0.0000000E+00
 -0.9000000      0.0000000E+00
 -0.8900000      0.0000000E+00
 -0.8800000      0.0000000E+00
 -0.8700000      0.0000000E+00
 -0.8600000      0.0000000E+00
 -0.8500000      0.0000000E+00
 -0.8400000      0.0000000E+00
 -0.8300000      0.0000000E+00
 -0.8200000      0.0000000E+00
 -0.8100000      0.0000000E+00
 -0.8000000      0.0000000E+00
 -0.7900000      0.0000000E+00
 -0.7800000      0.0000000E+00
 -0.7700000      0.0000000E+00
 -0.7600000      0.0000000E+00
 -0.7500000      0.0000000E+00
 -0.7400000      0.0000000E+00
 -0.7300000      0.0000000E+00
 -0.7200000      0.0000000E+00
 -0.7100000      0.0000000E+00
 -0.7000000      0.0000000E+00
 -0.6900000      0.0000000E+00
 -0.6800000      0.0000000E+00
 -0.6700000      0.0000000E+00
 -0.6600000      0.0000000E+00
 -0.6500000      0.0000000E+00
 -0.6400000      0.0000000E+00
 -0.6300000      0.0000000E+00
 -0.6200000      0.0000000E+00
 -0.6100000      0.0000000E+00
 -0.6000000      0.0000000E+00
 -0.5900000      0.0000000E+00
 -0.5800000      0.0000000E+00
 -0.5700000      0.0000000E+00
 -0.5600000      0.0000000E+00
 -0.5500000      0.0000000E+00
 -0.5400000      0.0000000E+00
 -0.5300000      0.0000000E+00
 -0.5200000      0.0000000E+00
 -0.5100000      0.0000000E+00
 -0.5000000      0.0000000E+00
 -0.4900000      0.0000000E+00
 -0.4800000      0.0000000E+00
 -0.4700000      0.0000000E+00
 -0.4600000      0.0000000E+00
 -0.4500000      0.0000000E+00
 -0.4400000      0.0000000E+00
 -0.4300000      0.0000000E+00
 -0.4200000      0.0000000E+00
 -0.4100000      0.0000000E+00
 -0.4000000      0.0000000E+00
 -0.3900000      0.0000000E+00
 -0.3800000      0.0000000E+00
 -0.3700000      0.0000000E+00
 -0.3600000      0.0000000E+00
 -0.3500000      0.0000000E+00
 -0.3400000      0.0000000E+00
 -0.3300000      0.0000000E+00
 -0.3200000      0.0000000E+00
 -0.3100000      0.0000000E+00
 -0.3000000      0.0000000E+00
 -0.2900000      0.0000000E+00
 -0.2800000      0.0000000E+00
 -0.2700000      0.0000000E+00
 -0.2600000      0.0000000E+00
 -0.2500000      0.0000000E+00
 -0.2400000      0.0000000E+00
 -0.2300000      0.0000000E+00
 -0.2200000      0.0000000E+00
 -0.2100000      0.0000000E+00
 -0.2000000      0.0000000E+00
 -0.1900000      0.0000000E+00
 -0.1800000      0.0000000E+00
 -0.1700000      0.0000000E+00
 -0.1600000      0.0000000E+00
 -0.1500000      0.0000000E+00
 -0.1400000      0.0000000E+00
 -0.1300000      0.0000000E+00
 -0.1200000      0.0000000E+00
 -0.1100000      0.0000000E+00
 -0.1000000      0.0000000E+00
 -9.0000004E-02  0.0000000E+00
 -7.9999998E-02  0.0000000E+00
 -7.0000000E-02  0.0000000E+00
 -5.9999999E-02  0.0000000E+00
 -5.0000001E-02  0.0000000E+00
 -3.9999999E-02  0.0000000E+00
 -2.9999999E-02  0.0000000E+00
 -2.0000000E-02  0.0000000E+00
 -9.9999998E-03  0.0000000E+00
 -3.4694470E-17  0.0000000E+00
  9.9999998E-03  0.0000000E+00
  2.0000000E-02  0.0000000E+00
  2.9999999E-02  0.0000000E+00
  3.9999999E-02  0.0000000E+00
  5.0000001E-02  0.0000000E+00
  5.9999999E-02  0.0000000E+00
  7.0000000E-02  0.0000000E+00
  7.9999998E-02  0.0000000E+00
  9.0000004E-02  0.0000000E+00
  0.1000000      0.0000000E+00
  0.1100000      0.0000000E+00
  0.1200000      0.0000000E+00
  0.1300000      0.0000000E+00
  0.1400000      0.0000000E+00
  0.1500000      0.0000000E+00
  0.1600000      0.0000000E+00
  0.1700000      0.0000000E+00
  0.1800000      0.0000000E+00
  0.1900000      0.0000000E+00
  0.2000000      0.0000000E+00
  0.2100000      0.0000000E+00
  0.2200000      0.0000000E+00
  0.2300000      0.0000000E+00
  0.2400000      0.0000000E+00
  0.2500000      0.0000000E+00
  0.2600000      0.0000000E+00
  0.2700000      0.0000000E+00
  0.2800000      0.0000000E+00
  0.2900000      0.0000000E+00
  0.3000000      0.0000000E+00
  0.3100000      0.0000000E+00
  0.3200000      0.0000000E+00
  0.3300000      0.0000000E+00
  0.3400000      0.0000000E+00
  0.3500000      0.0000000E+00
  0.3600000      0.0000000E+00
  0.3700000      0.0000000E+00
  0.3800000      0.0000000E+00
  0.3900000      0.0000000E+00
  0.4000000      0.0000000E+00
  0.4100000      0.0000000E+00
  0.4200000      0.0000000E+00
  0.4300000      0.0000000E+00
  0.4400000      0.0000000E+00
  0.4500000      0.0000000E+00
  0.4600000      0.0000000E+00
  0.4700000     -1.4159757E-38
  0.4800000     -1.9079934E-38
  0.4900000     -2.6093716E-38
  0.5000000     -3.4983999E-38
  0.5100000     -4.7333912E-38
  0.5200000     -6.4402186E-38
  0.5300000     -8.4808164E-38
  0.5400000     -1.0617070E-37
  0.5500000     -1.2801188E-37
  0.5600000     -1.5137410E-37
  0.5700000     -1.7682744E-37
  0.5800000     -2.0790110E-37
  0.5900000     -2.4325044E-37
  0.6000000     -2.7788935E-37
  0.6100000     -3.1306871E-37
  0.6200000     -3.3829336E-37
  0.6300000     -3.4985739E-37
  0.6400000     -3.2897264E-37
  0.6500000     -2.6981592E-37
  0.6600000     -1.9337365E-37
  0.6700000     -9.8654439E-38
  0.6800000      0.0000000E+00
  0.6900000      1.1541414E-37
  0.7000000      2.2258608E-37
  0.7100000      3.5081572E-37
  0.7200000      4.9432205E-37
  0.7300000      6.6532440E-37
  0.7400000      8.5710849E-37
  0.7500000      1.0558686E-36
  0.7600000      1.2698044E-36
  0.7700000      1.4926445E-36
  0.7800000      1.7261368E-36
  0.7900000      1.9544611E-36
  0.8000000      2.1740972E-36
  0.8100000      2.3889749E-36
  0.8200000      2.6026447E-36
  0.8300000      2.8198494E-36
  0.8400000      3.0339844E-36
  0.8500000      3.2641008E-36
  0.8600000      3.5061684E-36
  0.8700000      3.7680043E-36
  0.8800000      4.0547269E-36
  0.8900000      4.3467347E-36
  0.9000000      4.5959461E-36
  0.9100000      4.7845275E-36
  0.9200000      4.9356012E-36
  0.9300000      5.0388157E-36
  0.9400000      5.0704028E-36
  0.9500000      5.0188300E-36
  0.9600000      4.8610817E-36
  0.9700000      4.5868587E-36
  0.9800000      4.2362667E-36
  0.9900000      3.8490570E-36
   1.000000      3.2507136E-36
   1.010000      2.3126373E-36
   1.020000      9.2280082E-37
   1.030000     -8.4628768E-37
   1.040000     -2.9738244E-36
   1.050000     -5.6316464E-36
   1.060000     -8.6933009E-36
   1.070000     -1.1953711E-35
   1.080000     -1.5443175E-35
   1.090000     -1.9369132E-35
   1.100000     -2.3594393E-35
   1.110000     -2.7809131E-35
   1.120000     -3.2125956E-35
   1.130000     -3.6334054E-35
   1.140000     -4.0125267E-35
   1.150000     -4.3605715E-35
   1.160000     -4.6709201E-35
   1.170000     -4.9804777E-35
   1.180000     -5.2793202E-35
   1.190000     -5.5206449E-35
   1.200000     -5.7201145E-35
   1.210000     -5.8980486E-35
   1.220000     -6.0736536E-35
   1.230000     -6.2352933E-35
   1.240000     -6.3711759E-35
   1.250000     -6.4884740E-35
   1.260000     -6.5612748E-35
   1.270000     -6.5653041E-35
   1.280000     -6.4965710E-35
   1.290000     -6.3640099E-35
   1.300000     -6.1912639E-35
   1.310000     -5.9608096E-35
   1.320000     -5.6620842E-35
   1.330000     -5.3308749E-35
   1.340000     -4.9620951E-35
   1.350000     -4.5129217E-35
   1.360000     -3.9863568E-35
   1.370000     -3.3773468E-35
   1.380000     -2.6579156E-35
   1.390000     -1.8424891E-35
   1.400000     -9.1560226E-36
   1.410000      1.4682957E-36
   1.420000      1.3214251E-35
   1.430000      2.6419677E-35
   1.440000      4.1373736E-35
   1.450000      5.9569904E-35
   1.460000      8.1241026E-35
   1.470000      1.0455657E-34
   1.480000      1.2886139E-34
   1.490000      1.5261357E-34
   1.500000      1.7591843E-34
   1.510000      1.9950839E-34
   1.520000      2.2286376E-34
   1.530000      2.4566060E-34
   1.540000      2.6746117E-34
   1.550000      2.8852024E-34
   1.560000      3.0927996E-34
   1.570000      3.3018516E-34
   1.580000      3.5201409E-34
   1.590000      3.7188258E-34
   1.600000      3.8795630E-34
   1.610000      4.0167482E-34
   1.620000      4.0982720E-34
   1.630000      4.1148276E-34
   1.640000      4.1050830E-34
   1.650000      4.0761001E-34
   1.660000      4.0061559E-34
   1.670000      3.8769879E-34
   1.680000      3.6843226E-34
   1.690000      3.4380852E-34
   1.700000      3.1401871E-34
   1.710000      2.7867419E-34
   1.720000      2.3769187E-34
   1.730000      1.9197198E-34
   1.740000      1.4193927E-34
   1.750000      8.6440574E-35
   1.760000      2.5511350E-35
   1.770000     -3.9352850E-35
   1.780000     -1.0942587E-34
   1.790000     -1.8638333E-34
   1.800000     -2.6896043E-34
   1.810000     -3.5542275E-34
   1.820000     -4.4402352E-34
   1.830000     -5.3871721E-34
   1.840000     -6.3728816E-34
   1.850000     -7.3484023E-34
   1.860000     -8.3457573E-34
   1.870000     -9.3455998E-34
   1.880000     -1.0335460E-33
   1.890000     -1.1334979E-33
   1.900000     -1.2331627E-33
   1.910000     -1.3300359E-33
   1.920000     -1.4210863E-33
   1.930000     -1.5052548E-33
   1.940000     -1.5839797E-33
   1.950000     -1.6534239E-33
   1.960000     -1.7183716E-33
   1.970000     -1.7794051E-33
   1.980000     -1.8282522E-33
   1.990000     -1.8630502E-33
   2.000000     -1.8794327E-33
   2.010000     -1.8757259E-33
   2.020000     -1.8504042E-33
   2.030000     -1.7994912E-33
   2.040000     -1.7210165E-33
   2.050000     -1.6101312E-33
   2.060000     -1.4603591E-33
   2.070000     -1.2691395E-33
   2.080000     -1.0344344E-33
   2.090000     -7.5244335E-34
   2.100000     -4.1966907E-34
   2.110000     -3.1898460E-35
   2.120000      4.1115192E-34
   2.130000      9.1083262E-34
   2.140000      1.4742721E-33
   2.150000      2.0982390E-33
   2.160000      2.7826436E-33
   2.170000      3.5310124E-33
   2.180000      4.3406554E-33
   2.190000      5.2089802E-33
   2.200000      6.1367898E-33
   2.210000      7.1218236E-33
   2.220000      8.1573864E-33
   2.230000      9.2395267E-33
   2.240000      1.0362859E-32
   2.250000      1.1520883E-32
   2.260000      1.2706139E-32
   2.270000      1.3910706E-32
   2.280000      1.5125355E-32
   2.290000      1.6340253E-32
   2.300000      1.7544425E-32
   2.310000      1.8726380E-32
   2.320000      1.9871933E-32
   2.330000      2.0966126E-32
   2.340000      2.1996557E-32
   2.350000      2.2947999E-32
   2.360000      2.3802588E-32
   2.370000      2.4541273E-32
   2.380000      2.5147621E-32
   2.390000      2.5603551E-32
   2.400000      2.5887004E-32
   2.410000      2.5976630E-32
   2.420000      2.5850305E-32
   2.430000      2.5485626E-32
   2.440000      2.4859513E-32
   2.450000      2.3947715E-32
   2.460000      2.2726461E-32
   2.470000      2.1172130E-32
   2.480000      1.9260966E-32
   2.490000      1.6970193E-32
   2.500000      1.4278155E-32
   2.510000      1.1164220E-32
   2.520000      7.6098022E-33
   2.530000      3.5994871E-33
   2.540000     -8.8211723E-34
   2.550000     -5.8475337E-33
   2.560000     -1.1302092E-32
   2.570000     -1.7248372E-32
   2.580000     -2.3685197E-32
   2.590000     -3.0606687E-32
   2.600000     -3.8001587E-32
   2.610000     -4.5851741E-32
   2.620000     -5.4133102E-32
   2.630000     -6.2815532E-32
   2.640000     -7.1861843E-32
   2.650000     -8.1229528E-32
   2.660000     -9.0864503E-32
   2.670000     -1.0070514E-31
   2.680000     -1.1068665E-31
   2.690000     -1.2073452E-31
   2.700000     -1.3076672E-31
   2.710000     -1.4069327E-31
   2.720000     -1.5041661E-31
   2.730000     -1.5983258E-31
   2.740000     -1.6882986E-31
   2.750000     -1.7728981E-31
   2.760000     -1.8508751E-31
   2.770000     -1.9209195E-31
   2.780000     -1.9816644E-31
   2.790000     -2.0316915E-31
   2.800000     -2.0695352E-31
   2.810000     -2.0936890E-31
   2.820000     -2.1026157E-31
   2.830000     -2.0947544E-31
   2.840000     -2.0685296E-31
   2.850000     -2.0223630E-31
   2.860000     -1.9546858E-31
   2.870000     -1.8639537E-31
   2.880000     -1.7486614E-31
   2.890000     -1.6073611E-31
   2.900000     -1.4386798E-31
   2.910000     -1.2413438E-31
   2.920000     -1.0141989E-31
   2.930000     -7.5623325E-32
   2.940000     -4.6660469E-32
   2.950000     -1.4466702E-32
   2.960000      2.1000255E-32
   2.970000      5.9757360E-32
   2.980000      1.0179383E-31
   2.990000      1.4706791E-31
   3.000000      1.9550382E-31
   3.010000      2.4698944E-31
   3.020000      3.0137341E-31
   3.030000      3.5846270E-31
   3.040000      4.1802013E-31
   3.050000      4.7976293E-31
   3.060000      5.4336041E-31
   3.070000      6.0843188E-31
   3.080000      6.7454615E-31
   3.090000      7.4122033E-31
   3.100000      8.0791915E-31
   3.110000      8.7405481E-31
   3.120000      9.3898696E-31
   3.130000      1.0020232E-30
   3.140000      1.0624198E-30
   3.150000      1.1193831E-30
   3.160000      1.1720710E-30
   3.170000      1.2195945E-30
   3.180000      1.2610208E-30
   3.190000      1.2953761E-30
   3.200000      1.3216482E-30
   3.210000      1.3387913E-30
   3.220000      1.3457300E-30
   3.230000      1.3413644E-30
   3.240000      1.3245759E-30
   3.250000      1.2942340E-30
   3.260000      1.2492030E-30
   3.270000      1.1883509E-30
   3.280000      1.1105576E-30
   3.290000      1.0147257E-30
   3.300000      8.9979090E-31
   3.310000      7.6473435E-31
   3.320000      6.0859499E-31
   3.330000      4.3048352E-31
   3.340000      2.2959727E-31
   3.350000      5.2357782E-33
   3.360000     -2.4318376E-31
   3.370000     -5.1610916E-31
   3.380000     -8.1383593E-31
   3.390000     -1.1364896E-30
   3.400000     -1.4840087E-30
   3.410000     -1.8561263E-30
   3.420000     -2.2523523E-30
   3.430000     -2.6719573E-30
   3.440000     -3.1139545E-30
   3.450000     -3.5770850E-30
   3.460000     -4.0598013E-30
   3.470000     -4.5602553E-30
   3.480000     -5.0762845E-30
   3.490000     -5.6053988E-30
   3.500000     -6.1447720E-30
   3.510000     -6.6912351E-30
   3.520000     -7.2412649E-30
   3.530000     -7.7909825E-30
   3.540000     -8.3361470E-30
   3.550000     -8.8721582E-30
   3.560000     -9.3940506E-30
   3.570000     -9.8965001E-30
   3.580000     -1.0373830E-29
   3.590000     -1.0820011E-29
   3.600000     -1.1228682E-29
   3.610000     -1.1593150E-29
   3.620000     -1.1906415E-29
   3.630000     -1.2161188E-29
   3.640000     -1.2349906E-29
   3.650000     -1.2464768E-29
   3.660000     -1.2497757E-29
   3.670000     -1.2440678E-29
   3.680000     -1.2285201E-29
   3.690000     -1.2022903E-29
   3.700000     -1.1645316E-29
   3.710000     -1.1143986E-29
   3.720000     -1.0510532E-29
   3.730000     -9.7367164E-30
   3.740000     -8.8145104E-30
   3.750000     -7.7361777E-30
   3.760000     -6.4943554E-30
   3.770000     -5.0821428E-30
   3.780000     -3.4931934E-30
   3.790000     -1.7218107E-30
   3.800000      2.3694903E-31
   3.810000      2.3871768E-30
   3.820000      4.7320057E-30
   3.830000      7.2734971E-30
   3.840000      1.0012539E-29
   3.850000      1.2948740E-29
   3.860000      1.6080314E-29
   3.870000      1.9403974E-29
   3.880000      2.2914832E-29
   3.890000      2.6606292E-29
   3.900000      3.0469951E-29
   3.910000      3.4495509E-29
   3.920000      3.8670657E-29
   3.930000      4.2981012E-29
   3.940000      4.7410025E-29
   3.950000      5.1938888E-29
   3.960000      5.6546495E-29
   3.970000      6.1209340E-29
   3.980000      6.5901483E-29
   3.990000      7.0594517E-29
   4.000000      7.5257494E-29
   4.010000      7.9856922E-29
   4.020000      8.4356725E-29
   4.030000      8.8718264E-29
   4.040000      9.2900348E-29
   4.050000      9.6859242E-29
   4.060000      1.0054875E-28
   4.070000      1.0392024E-28
   4.080000      1.0692277E-28
   4.090000      1.0950315E-28
   4.100000      1.1160618E-28
   4.110000      1.1317467E-28
   4.120000      1.1414980E-28
   4.130000      1.1447117E-28
   4.140000      1.1407720E-28
   4.150000      1.1290537E-28
   4.160000      1.1089247E-28
   4.170000      1.0797505E-28
   4.180000      1.0408974E-28
   4.190000      9.9173686E-29
   4.200000      9.3164965E-29
   4.210000      8.6003112E-29
   4.220000      7.7629566E-29
   4.230000      6.7988210E-29
   4.240000      5.7025961E-29
   4.250000      4.4693305E-29
   4.260000      3.0944894E-29
   4.270000      1.5740192E-29
   4.280000     -9.5588126E-31
   4.290000     -1.9172332E-29
   4.300000     -3.8931404E-29
   4.310000     -6.0247891E-29
   4.320000     -8.3128439E-29
   4.330000     -1.0757086E-28
   4.340000     -1.3356335E-28
   4.350000     -1.6108387E-28
   4.360000     -1.9009930E-28
   4.370000     -2.2056486E-28
   4.380000     -2.5242321E-28
   4.390000     -2.8560383E-28
   4.400000     -3.2002229E-28
   4.410000     -3.5557949E-28
   4.420000     -3.9216103E-28
   4.430000     -4.2963655E-28
   4.440000     -4.6785908E-28
   4.450000     -5.0666441E-28
   4.460000     -5.4587046E-28
   4.470000     -5.8527706E-28
   4.480000     -6.2466522E-28
   4.490000     -6.6379699E-28
   4.500000     -7.0241491E-28
   4.510000     -7.4024210E-28
   4.520000     -7.7698215E-28
   4.530000     -8.1231892E-28
   4.540000     -8.4591677E-28
   4.550000     -8.7742113E-28
   4.560000     -9.0645828E-28
   4.570000     -9.3263658E-28
   4.580000     -9.5554658E-28
   4.590000     -9.7476235E-28
   4.600000     -9.8984200E-28
   4.610000     -1.0003293E-27
   4.620000     -1.0057546E-27
   4.630000     -1.0056366E-27
   4.640000     -9.9948426E-28
   4.650000     -9.8679787E-28
   4.660000     -9.6707173E-28
   4.670000     -9.3979613E-28
   4.680000     -9.0445984E-28
   4.690000     -8.6055249E-28
   4.700000     -8.0756727E-28
   4.710000     -7.4500435E-28
   4.720000     -6.7237344E-28
   4.730000     -5.8919744E-28
   4.740000     -4.9501604E-28
   4.750000     -3.8938926E-28
   4.760000     -2.7190151E-28
   4.770000     -1.4216561E-28
   4.780000      1.7269582E-31
   4.790000      1.5543036E-28
   4.800000      3.2388222E-28
   4.810000      5.0575566E-28
   4.820000      7.0122628E-28
   4.830000      9.1041193E-28
   4.840000      1.1333678E-27
   4.850000      1.3700800E-27
   4.860000      1.6204607E-27
   4.870000      1.8843426E-27
   4.880000      2.1614721E-27
   4.890000      2.4515041E-27
   4.900000      2.7539957E-27
   4.910000      3.0684006E-27
   4.920000      3.3940636E-27
   4.930000      3.7302147E-27
   4.940000      4.0759634E-27
   4.950000      4.4302933E-27
   4.960000      4.7920577E-27
   4.970000      5.1599738E-27
   4.980000      5.5326190E-27
   4.990000      5.9084253E-27
   5.000000      6.2856776E-27
   5.010000      6.6625081E-27
   5.020000      7.0368950E-27
   5.030000      7.4066574E-27
   5.040000      7.7694564E-27
   5.050000      8.1227921E-27
   5.060000      8.4640022E-27
   5.070000      8.7902624E-27
   5.080000      9.0985876E-27
   5.090000      9.3858332E-27
   5.100000      9.6486956E-27
   5.110000      9.8837169E-27
   5.120000      1.0087285E-26
   5.130000      1.0255646E-26
   5.140000      1.0384899E-26
   5.150000      1.0471015E-26
   5.160000      1.0509836E-26
   5.170000      1.0497091E-26
   5.180000      1.0428401E-26
   5.190000      1.0299292E-26
   5.200000      1.0105217E-26
   5.210000      9.8415559E-27
   5.220000      9.5036454E-27
   5.230000      9.0867902E-27
   5.240000      8.5862826E-27
   5.250000      7.9974295E-27
   5.260000      7.3155686E-27
   5.270000      6.5360986E-27
   5.280000      5.6545018E-27
   5.290000      4.6663742E-27
   5.300000      3.5674563E-27
   5.310000      2.3536632E-27
   5.320000      1.0211148E-27
   5.330000     -4.3382612E-28
   5.340000     -2.0145173E-27
   5.350000     -3.7239993E-27
   5.360000     -5.5649572E-27
   5.370000     -7.5396822E-27
   5.380000     -9.6500261E-27
   5.390000     -1.1897359E-26
   5.400000     -1.4282525E-26
   5.410000     -1.6805800E-26
   5.420000     -1.9466845E-26
   5.430000     -2.2264653E-26
   5.440000     -2.5197501E-26
   5.450000     -2.8262908E-26
   5.460000     -3.1457573E-26
   5.470000     -3.4777349E-26
   5.480000     -3.8217168E-26
   5.490000     -4.1770998E-26
   5.500000     -4.5431800E-26
   5.510000     -4.9191468E-26
   5.520000     -5.3040782E-26
   5.530000     -5.6969384E-26
   5.540000     -6.0965691E-26
   5.550000     -6.5016862E-26
   5.560000     -6.9108770E-26
   5.570000     -7.3225952E-26
   5.580000     -7.7351571E-26
   5.590000     -8.1467373E-26
   5.600000     -8.5553660E-26
   5.610000     -8.9589257E-26
   5.620000     -9.3551508E-26
   5.630000     -9.7416217E-26
   5.640000     -1.0115766E-25
   5.650000     -1.0474860E-25
   5.660000     -1.0816021E-25
   5.670000     -1.1136216E-25
   5.680000     -1.1432259E-25
   5.690000     -1.1700809E-25
   5.700000     -1.1938382E-25
   5.710000     -1.2141345E-25
   5.720000     -1.2305924E-25
   5.730000     -1.2428215E-25
   5.740000     -1.2504178E-25
   5.750000     -1.2529650E-25
   5.760000     -1.2500360E-25
   5.770000     -1.2411931E-25
   5.780000     -1.2259889E-25
   5.790000     -1.2039679E-25
   5.800000     -1.1746674E-25
   5.810000     -1.1376198E-25
   5.820000     -1.0923528E-25
   5.830000     -1.0383926E-25
   5.840000     -9.7526430E-26
   5.850000     -9.0249472E-26
   5.860000     -8.1961434E-26
   5.870000     -7.2615959E-26
   5.880000     -6.2167503E-26
   5.890000     -5.0571642E-26
   5.900000     -3.7785297E-26
   5.910000     -2.3767046E-26
   5.920000     -8.4774868E-27
   5.930000      8.1205573E-27
   5.940000      2.6061635E-26
   5.950000      4.5377285E-26
   5.960000      6.6095722E-26
   5.970000      8.8241463E-26
   5.980000      1.1183489E-25
   5.990000      1.3689183E-25
   6.000000      1.6342319E-25
   6.010000      1.9143449E-25
   6.020000      2.2092540E-25
   6.030000      2.5188933E-25
   6.040000      2.8431289E-25
   6.050000      3.1817553E-25
   6.060000      3.5344908E-25
   6.070000      3.9009712E-25
   6.080000      4.2807458E-25
   6.090000      4.6732736E-25
   6.100000      5.0779154E-25
   6.110000      5.4939330E-25
   6.120000      5.9204834E-25
   6.130000      6.3566106E-25
   6.140000      6.8012452E-25
   6.150000      7.2532003E-25
   6.160000      7.7111627E-25
   6.170000      8.1736930E-25
   6.180000      8.6392201E-25
   6.190000      9.1060384E-25
   6.200000      9.5723005E-25
   6.210000      1.0036021E-24
   6.220000      1.0495068E-24
   6.230000      1.0947164E-24
   6.240000      1.1389881E-24
   6.250000      1.1820641E-24
   6.260000      1.2236716E-24
   6.270000      1.2635223E-24
   6.280000      1.3013129E-24
   6.290000      1.3367253E-24
   6.300000      1.3694261E-24
   6.310000      1.3990671E-24
   6.320000      1.4252859E-24
   6.330000      1.4477057E-24
   6.340000      1.4659365E-24
   6.350000      1.4795749E-24
   6.360000      1.4882055E-24
   6.370000      1.4914007E-24
   6.380000      1.4887224E-24
   6.390000      1.4797225E-24
   6.400000      1.4639442E-24
   6.410000      1.4409228E-24
   6.420000      1.4101877E-24
   6.430000      1.3712630E-24
   6.440000      1.3236699E-24
   6.450000      1.2669277E-24
   6.460000      1.2005556E-24
   6.470000      1.1240754E-24
   6.480000      1.0370129E-24
   6.490000      9.3889978E-25
   6.500000      8.2927711E-25
   6.510000      7.0769698E-25
   6.520000      5.7372513E-25
   6.530000      4.2694424E-25
   6.540000      2.6695618E-25
   6.550000      9.3385539E-26
   6.560000     -9.4117164E-26
   6.570000     -2.9587269E-25
   6.580000     -5.1216903E-25
   6.590000     -7.4325789E-25
   6.600000     -9.8935168E-25
   6.610000     -1.2506187E-24
   6.620000     -1.5271799E-24
   6.630000     -1.8191046E-24
   6.640000     -2.1264067E-24
   6.650000     -2.4490402E-24
   6.660000     -2.7868947E-24
   6.670000     -3.1397914E-24
   6.680000     -3.5074795E-24
   6.690000     -3.8896298E-24
   6.700000     -4.2858320E-24
   6.710000     -4.6955896E-24
   6.720000     -5.1183157E-24
   6.730000     -5.5533291E-24
   6.740000     -5.9998492E-24
   6.750000     -6.4569914E-24
   6.760000     -6.9237651E-24
   6.770000     -7.3990680E-24
   6.780000     -7.8816805E-24
   6.790000     -8.3702662E-24
   6.800000     -8.8633650E-24
   6.810000     -9.3593937E-24
   6.820000     -9.8566387E-24
   6.830000     -1.0353254E-23
   6.840000     -1.0847263E-23
   6.850000     -1.1336550E-23
   6.860000     -1.1818865E-23
   6.870000     -1.2291817E-23
   6.880000     -1.2752877E-23
   6.890000     -1.3199378E-23
   6.900000     -1.3628511E-23
   6.910000     -1.4037329E-23
   6.920000     -1.4422749E-23
   6.930000     -1.4781549E-23
   6.940000     -1.5110381E-23
   6.950000     -1.5405766E-23
   6.960000     -1.5664094E-23
   6.970000     -1.5881640E-23
   6.980000     -1.6054569E-23
   6.990000     -1.6178930E-23
   7.000000     -1.6250677E-23
   7.010000     -1.6265668E-23
   7.020000     -1.6219684E-23
   7.030000     -1.6108428E-23
   7.040000     -1.5927543E-23
   7.050000     -1.5672631E-23
   7.060000     -1.5339249E-23