  -2.600000      0.0000000E+00
  -2.590000      0.0000000E+00
  -2.580000      0.0000000E+00
  -2.570000      0.0000000E+00
  -2.560000      0.0000000E+00
  -2.550000      0.0000000E+00
  -2.540000      0.0000000E+00
  -2.530000      0.0000000E+00
  -2.520000      0.0000000E+00
  -2.510000      0.0000000E+00
  -2.500000      0.0000000E+00
  -2.490000      0.0000000E+00
  -2.480000      0.0000000E+00
  -2.470000      0.0000000E+00
  -2.460000      0.0000000E+00
  -2.450000      0.0000000E+00
  -2.440000      0.0000000E+00
  -2.430000      0.0000000E+00
  -2.420000      0.0000000E+00
  -2.410000      0.0000000E+00
  -2.400000      0.0000000E+00
  -2.390000      0.0000000E+00
  -2.380000      0.0000000E+00
  -2.370000      0.0000000E+00
  -2.360000      0.0000000E+00
  -2.350000      0.0000000E+00
  -2.340000      0.0000000E+00
  -2.330000      0.0000000E+00
  -2.320000      0.0000000E+00
  -2.310000      0.0000000E+00
  -2.300000      0.0000000E+00
  -2.290000      0.0000000E+00
  -2.280000      0.0000000E+00
  -2.270000      0.0000000E+00
  -2.260000      0.0000000E+00
  -2.250000      0.0000000E+00
  -2.240000      0.0000000E+00
  -2.230000      0.0000000E+00
  -2.220000      0.0000000E+00
  -2.210000      0.0000000E+00
  -2.200000      0.0000000E+00
  -2.190000      0.0000000E+00
  -2.180000      0.0000000E+00
  -2.170000      0.0000000E+00
  -2.160000      0.0000000E+00
  -2.150000      0.0000000E+00
  -2.140000      0.0000000E+00
  -2.130000      0.0000000E+00
  -2.120000      0.0000000E+00
  -2.110000      0.0000000E+00
  -2.100000      0.0000000E+00
  -2.090000      0.0000000E+00
  -2.080000      0.0000000E+00
  -2.070000      0.0000000E+00
  -2.060000      0.0000000E+00
  -2.050000      0.0000000E+00
  -2.040000      0.0000000E+00
  -2.030000      0.0000000E+00
  -2.020000      0.0000000E+00
  -2.010000      0.0000000E+00
  -2.000000      0.0000000E+00
  -1.990000      0.0000000E+00
  -1.980000      0.0000000E+00
  -1.970000      0.0000000E+00
  -1.960000      0.0000000E+00
  -1.950000      0.0000000E+00
  -1.940000      0.0000000E+00
  -1.930000      0.0000000E+00
  -1.920000      0.0000000E+00
  -1.910000      0.0000000E+00
  -1.900000      0.0000000E+00
  -1.890000      0.0000000E+00
  -1.880000      0.0000000E+00
  -1.870000      0.0000000E+00
  -1.860000      0.0000000E+00
  -1.850000      0.0000000E+00
  -1.840000      0.0000000E+00
  -1.830000      0.0000000E+00
  -1.820000      0.0000000E+00
  -1.810000      0.0000000E+00
  -1.800000      0.0000000E+00
  -1.790000      0.0000000E+00
  -1.780000      0.0000000E+00
  -1.770000      0.0000000E+00
  -1.760000      0.0000000E+00
  -1.750000      0.0000000E+00
  -1.740000      0.0000000E+00
  -1.730000      0.0000000E+00
  -1.720000      0.0000000E+00
  -1.710000      0.0000000E+00
  -1.700000      0.0000000E+00
  -1.690000      0.0000000E+00
  -1.680000      0.0000000E+00
  -1.670000      0.0000000E+00
  -1.660000      0.0000000E+00
  -1.650000      0.0000000E+00
  -1.640000      0.0000000E+00
  -1.630000      0.0000000E+00
  -1.620000      0.0000000E+00
  -1.610000      0.0000000E+00
  -1.600000      0.0000000E+00
  -1.590000      0.0000000E+00
  -1.580000      0.0000000E+00
  -1.570000      0.0000000E+00
  -1.560000      0.0000000E+00
  -1.550000      0.0000000E+00
  -1.540000      0.0000000E+00
  -1.530000      0.0000000E+00
  -1.520000      0.0000000E+00
  -1.510000      0.0000000E+00
  -1.500000      0.0000000E+00
  -1.490000      0.0000000E+00
  -1.480000      0.0000000E+00
  -1.470000      0.0000000E+00
  -1.460000      0.0000000E+00
  -1.450000      0.0000000E+00
  -1.440000      0.0000000E+00
  -1.430000      0.0000000E+00
  -1.420000      0.0000000E+00
  -1.410000      0.0000000E+00
  -1.400000      0.0000000E+00
  -1.390000      0.0000000E+00
  -1.380000      0.0000000E+00
  -1.370000      0.0000000E+00
  -1.360000      0.0000000E+00
  -1.350000      0.0000000E+00
  -1.340000      0.0000000E+00
  -1.330000      0.0000000E+00
  -1.320000      0.0000000E+00
  -1.310000      0.0000000E+00
  -1.300000      0.0000000E+00
  -1.290000      0.0000000E+00
  -1.280000      0.0000000E+00
  -1.270000      0.0000000E+00
  -1.260000      0.0000000E+00
  -1.250000      0.0000000E+00
  -1.240000      0.0000000E+00
  -1.230000      0.0000000E+00
  -1.220000      0.0000000E+00
  -1.210000      0.0000000E+00
  -1.200000      0.0000000E+00
  -1.190000      0.0000000E+00
  -1.180000      0.0000000E+00
  -1.170000      0.0000000E+00
  -1.160000      0.0000000E+00
  -1.150000      0.0000000E+00
  -1.140000      0.0000000E+00
  -1.130000      0.0000000E+00
  -1.120000      0.0000000E+00
  -1.110000      0.0000000E+00
  -1.100000      0.0000000E+00
  -1.090000      0.0000000E+00
  -1.080000      0.0000000E+00
  -1.070000      0.0000000E+00
  -1.060000      0.0000000E+00
  -1.050000      0.0000000E+00
  -1.040000      0.0000000E+00
  -1.030000      0.0000000E+00
  -1.020000      0.0000000E+00
  -1.010000      0.0000000E+00
  -1.000000      0.0000000E+00
 -0.9900000      0.0000000E+00
 -0.9800000      0.0000000E+00
 -0.9700000      0.0000000E+00
 -0.9600000      0.0000000E+00
 -0.9500000      0.0000000E+00
 -0.9400000      0.0000000E+00
 -0.9300000      0.0000000E+00
 -0.9200000      0.0000000E+00
 -0.9100000      0.0000000E+00
 -0.9000000      0.0000000E+00
 -0.8900000      0.0000000E+00
 -0.8800000      0.0000000E+00
 -0.8700000      0.0000000E+00
 -0.8600000      0.0000000E+00
 -0.8500000      0.0000000E+00
 -0.8400000      0.0000000E+00
 -0.8300000      0.0000000E+00
 -0.8200000      0.0000000E+00
 -0.8100000      0.0000000E+00
 -0.8000000      0.0000000E+00
 -0.7900000      0.0000000E+00
 -0.7800000      0.0000000E+00
 -0.7700000      0.0000000E+00
 -0.7600000      0.0000000E+00
 -0.7500000      0.0000000E+00
 -0.7400000      0.0000000E+00
 -0.7300000      0.0000000E+00
 -0.7200000      0.0000000E+00
 -0.7100000      0.0000000E+00
 -0.7000000      0.0000000E+00
 -0.6900000      0.0000000E+00
 -0.6800000      0.0000000E+00
 -0.6700000      0.0000000E+00
 -0.6600000      0.0000000E+00
 -0.6500000      0.0000000E+00
 -0.6400000      0.0000000E+00
 -0.6300000      0.0000000E+00
 -0.6200000      0.0000000E+00
 -0.6100000      0.0000000E+00
 -0.6000000      0.0000000E+00
 -0.5900000      0.0000000E+00
 -0.5800000      0.0000000E+00
 -0.5700000      0.0000000E+00
 -0.5600000      0.0000000E+00
 -0.5500000      0.0000000E+00
 -0.5400000      0.0000000E+00
 -0.5300000      0.0000000E+00
 -0.5200000      0.0000000E+00
 -0.5100000      0.0000000E+00
 -0.5000000      0.0000000E+00
 -0.4900000      0.0000000E+00
 -0.4800000      0.0000000E+00
 -0.4700000      0.0000000E+00
 -0.4600000      0.0000000E+00
 -0.4500000      0.0000000E+00
 -0.4400000      0.0000000E+00
 -0.4300000      0.0000000E+00
 -0.4200000      0.0000000E+00
 -0.4100000      0.0000000E+00
 -0.4000000      0.0000000E+00
 -0.3900000      0.0000000E+00
 -0.3800000      0.0000000E+00
 -0.3700000      0.0000000E+00
 -0.3600000      0.0000000E+00
 -0.3500000      0.0000000E+00
 -0.3400000      0.0000000E+00
 -0.3300000      0.0000000E+00
 -0.3200000      0.0000000E+00
 -0.3100000      0.0000000E+00
 -0.3000000      0.0000000E+00
 -0.2900000      0.0000000E+00
 -0.2800000      0.0000000E+00
 -0.2700000      0.0000000E+00
 -0.2600000      0.0000000E+00
 -0.2500000      0.0000000E+00
 -0.2400000      0.0000000E+00
 -0.2300000      0.0000000E+00
 -0.2200000      0.0000000E+00
 -0.2100000      0.0000000E+00
 -0.2000000      0.0000000E+00
 -0.1900000      0.0000000E+00
 -0.1800000      0.0000000E+00
 -0.1700000      0.0000000E+00
 -0.1600000      0.0000000E+00
 -0.1500000      0.0000000E+00
 -0.1400000      0.0000000E+00
 -0.1300000      0.0000000E+00
 -0.1200000      0.0000000E+00
 -0.1100000      0.0000000E+00
 -0.1000000      0.0000000E+00
 -9.0000004E-02  0.0000000E+00
 -7.9999998E-02  0.0000000E+00
 -7.0000000E-02  0.0000000E+00
 -5.9999999E-02  0.0000000E+00
 -5.0000001E-02  0.0000000E+00
 -3.9999999E-02  0.0000000E+00
 -2.9999999E-02  0.0000000E+00
 -2.0000000E-02  0.0000000E+00
 -9.9999998E-03  0.0000000E+00
 -3.4694470E-17  0.0000000E+00
  9.9999998E-03  0.0000000E+00
  2.0000000E-02  0.0000000E+00
  2.9999999E-02  0.0000000E+00
  3.9999999E-02  0.0000000E+00
  5.0000001E-02  0.0000000E+00
  5.9999999E-02  0.0000000E+00
  7.0000000E-02  0.0000000E+00
  7.9999998E-02  0.0000000E+00
  9.0000004E-02  0.0000000E+00
  0.1000000      0.0000000E+00
  0.1100000      0.0000000E+00
  0.1200000      0.0000000E+00
  0.1300000      0.0000000E+00
  0.1400000      0.0000000E+00
  0.1500000      0.0000000E+00
  0.1600000      0.0000000E+00
  0.1700000      0.0000000E+00
  0.1800000      0.0000000E+00
  0.1900000      0.0000000E+00
  0.2000000      0.0000000E+00
  0.2100000      0.0000000E+00
  0.2200000      0.0000000E+00
  0.2300000      0.0000000E+00
  0.2400000      0.0000000E+00
  0.2500000      0.0000000E+00
  0.2600000      0.0000000E+00
  0.2700000      0.0000000E+00
  0.2800000      0.0000000E+00
  0.2900000      0.0000000E+00
  0.3000000      0.0000000E+00
  0.3100000      0.0000000E+00
  0.3200000      0.0000000E+00
  0.3300000      0.0000000E+00
  0.3400000      0.0000000E+00
  0.3500000      0.0000000E+00
  0.3600000      0.0000000E+00
  0.3700000      0.0000000E+00
  0.3800000      0.0000000E+00
  0.3900000      0.0000000E+00
  0.4000000      0.0000000E+00
  0.4100000      0.0000000E+00
  0.4200000      0.0000000E+00
  0.4300000      0.0000000E+00
  0.4400000      0.0000000E+00
  0.4500000      0.0000000E+00
  0.4600000      0.0000000E+00
  0.4700000      0.0000000E+00
  0.4800000      0.0000000E+00
  0.4900000      0.0000000E+00
  0.5000000      0.0000000E+00
  0.5100000      0.0000000E+00
  0.5200000      0.0000000E+00
  0.5300000      0.0000000E+00
  0.5400000      0.0000000E+00
  0.5500000      0.0000000E+00
  0.5600000      0.0000000E+00
  0.5700000      0.0000000E+00
  0.5800000      0.0000000E+00
  0.5900000      0.0000000E+00
  0.6000000      0.0000000E+00
  0.6100000      0.0000000E+00
  0.6200000      0.0000000E+00
  0.6300000      0.0000000E+00
  0.6400000      0.0000000E+00
  0.6500000      0.0000000E+00
  0.6600000      0.0000000E+00
  0.6700000      0.0000000E+00
  0.6800000      0.0000000E+00
  0.6900000      0.0000000E+00
  0.7000000      0.0000000E+00
  0.7100000      0.0000000E+00
  0.7200000      0.0000000E+00
  0.7300000      0.0000000E+00
  0.7400000     -2.3993957E-38
  0.7500000     -4.2273716E-38
  0.7600000     -6.0796466E-38
  0.7700000     -7.8169148E-38
  0.7800000     -9.7393438E-38
  0.7900000     -1.1737979E-37
  0.8000000     -1.3207871E-37
  0.8100000     -1.3615279E-37
  0.8200000     -1.3234912E-37
  0.8300000     -1.1811123E-37
  0.8400000     -8.9623277E-38
  0.8500000     -4.7132450E-38
  0.8600000      0.0000000E+00
  0.8700000      7.2084469E-38
  0.8800000      1.4934266E-37
  0.8900000      2.3511824E-37
  0.9000000      3.2353941E-37
  0.9100000      4.1039082E-37
  0.9200000      4.9012837E-37
  0.9300000      5.5563753E-37
  0.9400000      5.9586995E-37
  0.9500000      6.0378803E-37
  0.9600000      5.7500558E-37
  0.9700000      4.8996502E-37
  0.9800000      3.5133245E-37
  0.9900000      1.8719590E-37
   1.000000      0.0000000E+00
   1.010000     -2.6906054E-37
   1.020000     -5.6679931E-37
   1.030000     -8.8544880E-37
   1.040000     -1.2518836E-36
   1.050000     -1.6995446E-36
   1.060000     -2.1714740E-36
   1.070000     -2.5898227E-36
   1.080000     -2.8771117E-36
   1.090000     -3.0578645E-36
   1.100000     -3.2059474E-36
   1.110000     -3.3227166E-36
   1.120000     -3.4277151E-36
   1.130000     -3.4890949E-36
   1.140000     -3.4237557E-36
   1.150000     -3.2208165E-36
   1.160000     -2.8689843E-36
   1.170000     -2.3526367E-36
   1.180000     -1.5694372E-36
   1.190000     -4.4232293E-37
   1.200000      8.4458648E-37
   1.210000      2.2291467E-36
   1.220000      3.6729858E-36
   1.230000      5.1086268E-36
   1.240000      6.7270649E-36
   1.250000      8.5866010E-36
   1.260000      1.0537472E-35
   1.270000      1.2661749E-35
   1.280000      1.4804004E-35
   1.290000      1.7037776E-35
   1.300000      1.9336294E-35
   1.310000      2.1206304E-35
   1.320000      2.2856975E-35
   1.330000      2.4750656E-35
   1.340000      2.6699586E-35
   1.350000      2.8374583E-35
   1.360000      3.0004281E-35
   1.370000      3.1563978E-35
   1.380000      3.2702368E-35
   1.390000      3.3352399E-35
   1.400000      3.3495654E-35
   1.410000      3.2831296E-35
   1.420000      3.1261064E-35
   1.430000      2.8582647E-35
   1.440000      2.4050213E-35
   1.450000      1.7977460E-35
   1.460000      1.0916589E-35
   1.470000      2.5968049E-36
   1.480000     -7.1628042E-36
   1.490000     -1.8266905E-35
   1.500000     -3.0742432E-35
   1.510000     -4.5518333E-35
   1.520000     -6.2376649E-35
   1.530000     -8.0038389E-35
   1.540000     -9.8967337E-35
   1.550000     -1.2037199E-34
   1.560000     -1.4347403E-34
   1.570000     -1.6723191E-34
   1.580000     -1.9018787E-34
   1.590000     -2.1147772E-34
   1.600000     -2.3252488E-34
   1.610000     -2.5322635E-34
   1.620000     -2.7278995E-34
   1.630000     -2.9024248E-34
   1.640000     -3.0500157E-34
   1.650000     -3.1759006E-34
   1.660000     -3.2635589E-34
   1.670000     -3.3049995E-34
   1.680000     -3.3087131E-34
   1.690000     -3.2748049E-34
   1.700000     -3.2014118E-34
   1.710000     -3.0760878E-34
   1.720000     -2.8921413E-34
   1.730000     -2.6546595E-34
   1.740000     -2.3917008E-34
   1.750000     -2.0631223E-34
   1.760000     -1.6427978E-34
   1.770000     -1.1633980E-34
   1.780000     -5.7231485E-35
   1.790000      1.4718745E-35
   1.800000      9.6446292E-35
   1.810000      1.9003070E-34
   1.820000      2.9604570E-34
   1.830000      4.1096876E-34
   1.840000      5.3609031E-34
   1.850000      6.6963519E-34
   1.860000      8.0795262E-34
   1.870000      9.5341234E-34
   1.880000      1.1054861E-33
   1.890000      1.2593358E-33
   1.900000      1.4106575E-33
   1.910000      1.5602302E-33
   1.920000      1.7110066E-33
   1.930000      1.8627400E-33
   1.940000      2.0106570E-33
   1.950000      2.1501880E-33
   1.960000      2.2795368E-33
   1.970000      2.3989412E-33
   1.980000      2.5077166E-33
   1.990000      2.6007340E-33
   2.000000      2.6734424E-33
   2.010000      2.7236483E-33
   2.020000      2.7502806E-33
   2.030000      2.7493724E-33
   2.040000      2.7191365E-33
   2.050000      2.6588826E-33
   2.060000      2.5599235E-33
   2.070000      2.4193637E-33
   2.080000      2.2364838E-33
   2.090000      2.0066445E-33
   2.100000      1.7269781E-33
   2.110000      1.3936259E-33
   2.120000      1.0074437E-33
   2.130000      5.6758189E-34
   2.140000      7.2076481E-35
   2.150000     -4.8157579E-34
   2.160000     -1.0943655E-33
   2.170000     -1.7625878E-33
   2.180000     -2.4870112E-33
   2.190000     -3.2660468E-33
   2.200000     -4.0955711E-33
   2.210000     -4.9724689E-33
   2.220000     -5.8914914E-33
   2.230000     -6.8478541E-33
   2.240000     -7.8371237E-33
   2.250000     -8.8499230E-33
   2.260000     -9.8788655E-33
   2.270000     -1.0917274E-32
   2.280000     -1.1954499E-32
   2.290000     -1.2980197E-32
   2.300000     -1.3982699E-32
   2.310000     -1.4949028E-32
   2.320000     -1.5865749E-32
   2.330000     -1.6719282E-32
   2.340000     -1.7495710E-32
   2.350000     -1.8180100E-32
   2.360000     -1.8757047E-32
   2.370000     -1.9211752E-32
   2.380000     -1.9529593E-32
   2.390000     -1.9692582E-32
   2.400000     -1.9683062E-32
   2.410000     -1.9484784E-32
   2.420000     -1.9084405E-32
   2.430000     -1.8468591E-32
   2.440000     -1.7621294E-32
   2.450000     -1.6529049E-32
   2.460000     -1.5180707E-32
   2.470000     -1.3563540E-32
   2.480000     -1.1666087E-32
   2.490000     -9.4812443E-33
   2.500000     -7.0024764E-33
   2.510000     -4.2250250E-33
   2.520000     -1.1464442E-33
   2.530000      2.2332444E-33
   2.540000      5.9113264E-33
   2.550000      9.8825257E-33
   2.560000      1.4137817E-32
   2.570000      1.8665039E-32
   2.580000      2.3448175E-32
   2.590000      2.8469304E-32
   2.600000      3.3707004E-32
   2.610000      3.9133982E-32
   2.620000      4.4719863E-32
   2.630000      5.0430812E-32
   2.640000      5.6228738E-32
   2.650000      6.2071550E-32
   2.660000      6.7913945E-32
   2.670000      7.3706705E-32
   2.680000      7.9396515E-32
   2.690000      8.4927809E-32
   2.700000      9.0241637E-32
   2.710000      9.5274893E-32
   2.720000      9.9962488E-32
   2.730000      1.0423662E-31
   2.740000      1.0802833E-31
   2.750000      1.1126690E-31
   2.760000      1.1387962E-31
   2.770000      1.1579353E-31
   2.780000      1.1693550E-31
   2.790000      1.1723291E-31
   2.800000      1.1661398E-31
   2.810000      1.1500847E-31
   2.820000      1.1234862E-31
   2.830000      1.0856943E-31
   2.840000      1.0360956E-31
   2.850000      9.7412247E-32
   2.860000      8.9925635E-32
   2.870000      8.1103497E-32
   2.880000      7.0906395E-32
   2.890000      5.9302085E-32
   2.900000      4.6266532E-32
   2.910000      3.1784536E-32
   2.920000      1.5850322E-32
   2.930000     -1.5315239E-33
   2.940000     -2.0345400E-32
   2.950000     -4.0564030E-32
   2.960000     -6.2147781E-32
   2.970000     -8.5044072E-32
   2.980000     -1.0918690E-31
   2.990000     -1.3449629E-31
   3.000000     -1.6087795E-31
   3.010000     -1.8822274E-31
   3.020000     -2.1640661E-31
   3.030000     -2.4529057E-31
   3.040000     -2.7472029E-31
   3.050000     -3.0452641E-31
   3.060000     -3.3452449E-31
   3.070000     -3.6451532E-31
   3.080000     -3.9428537E-31
   3.090000     -4.2360702E-31
   3.100000     -4.5223929E-31
   3.110000     -4.7992858E-31
   3.120000     -5.0640936E-31
   3.130000     -5.3140512E-31
   3.140000     -5.5462950E-31
   3.150000     -5.7578741E-31
   3.160000     -5.9457647E-31
   3.170000     -6.1068822E-31
   3.180000     -6.2380998E-31
   3.190000     -6.3362630E-31
   3.200000     -6.3982096E-31
   3.210000     -6.4207932E-31
   3.220000     -6.4008888E-31
   3.230000     -6.3354260E-31
   3.240000     -6.2214191E-31
   3.250000     -6.0559762E-31
   3.260000     -5.8363299E-31
   3.270000     -5.5598607E-31
   3.280000     -5.2241235E-31
   3.290000     -4.8268727E-31
   3.300000     -4.3660898E-31
   3.310000     -3.8400081E-31
   3.320000     -3.2471442E-31
   3.330000     -2.5863159E-31
   3.340000     -1.8566737E-31
   3.350000     -1.0577332E-31
   3.360000     -1.8939286E-32
   3.370000      7.4803923E-32
   3.380000      1.7538196E-31
   3.390000      2.8267463E-31
   3.400000      3.9651376E-31
   3.410000      5.1668092E-31
   3.420000      6.4290579E-31
   3.430000      7.7486411E-31
   3.440000      9.1217628E-31
   3.450000      1.0544058E-30
   3.460000      1.2010582E-30
   3.470000      1.3515803E-30
   3.480000      1.5053590E-30
   3.490000      1.6617213E-30
   3.500000      1.8199336E-30
   3.510000      1.9792024E-30
   3.520000      2.1386739E-30
   3.530000      2.2974354E-30
   3.540000      2.4545155E-30
   3.550000      2.6088858E-30
   3.560000      2.7594625E-30
   3.570000      2.9051081E-30
   3.580000      3.0446344E-30
   3.590000      3.1768045E-30
   3.600000      3.3003364E-30
   3.610000      3.4139057E-30
   3.620000      3.5161500E-30
   3.630000      3.6056738E-30
   3.640000      3.6810528E-30
   3.650000      3.7408387E-30
   3.660000      3.7835646E-30
   3.670000      3.8077516E-30
   3.680000      3.8119153E-30
   3.690000      3.7945717E-30
   3.700000      3.7542453E-30
   3.710000      3.6894758E-30
   3.720000      3.5988258E-30
   3.730000      3.4808904E-30
   3.740000      3.3343050E-30
   3.750000      3.1577529E-30
   3.760000      2.9499760E-30
   3.770000      2.7097844E-30
   3.780000      2.4360648E-30
   3.790000      2.1277907E-30
   3.800000      1.7840333E-30
   3.810000      1.4039706E-30
   3.820000      9.8689832E-31
   3.830000      5.3224085E-31
   3.840000      3.9560854E-32
   3.850000     -4.9142961E-31
   3.860000     -1.0608582E-30
   3.870000     -1.6686819E-30
   3.880000     -2.3146768E-30
   3.890000     -2.9984267E-30
   3.900000     -3.7193130E-30
   3.910000     -4.4765037E-30
   3.920000     -5.2689445E-30
   3.930000     -6.0953467E-30
   3.940000     -6.9541794E-30
   3.950000     -7.8436581E-30
   3.960000     -8.7617377E-30
   3.970000     -9.7061001E-30
   3.980000     -1.0674151E-29
   3.990000     -1.1663008E-29
   4.000000     -1.2669495E-29
   4.010000     -1.3690134E-29
   4.020000     -1.4721145E-29
   4.030000     -1.5758431E-29
   4.040000     -1.6797585E-29
   4.050000     -1.7833878E-29
   4.060000     -1.8862264E-29
   4.070000     -1.9877376E-29
   4.080000     -2.0873525E-29
   4.090000     -2.1844705E-29
   4.100000     -2.2784591E-29
   4.110000     -2.3686550E-29
   4.120000     -2.4543639E-29
   4.130000     -2.5348620E-29
   4.140000     -2.6093964E-29
   4.150000     -2.6771856E-29
   4.160000     -2.7374220E-29
   4.170000     -2.7892723E-29
   4.180000     -2.8318790E-29
   4.190000     -2.8643622E-29
   4.200000     -2.8858222E-29
   4.210000     -2.8953402E-29
   4.220000     -2.8919815E-29
   4.230000     -2.8747986E-29
   4.240000     -2.8428315E-29
   4.250000     -2.7951130E-29
   4.260000     -2.7306707E-29
   4.270000     -2.6485307E-29
   4.280000     -2.5477203E-29
   4.290000     -2.4272734E-29
   4.300000     -2.2862328E-29
   4.310000     -2.1236552E-29
   4.320000     -1.9386163E-29
   4.330000     -1.7302150E-29
   4.340000     -1.4975789E-29
   4.350000     -1.2398693E-29
   4.360000     -9.5628711E-30
   4.370000     -6.4607848E-30
   4.380000     -3.0854174E-30
   4.390000      5.6966826E-31
   4.400000      4.5102642E-30
   4.410000      8.7414417E-30
   4.420000      1.3267479E-29
   4.430000      1.8091784E-29
   4.440000      2.3216830E-29
   4.450000      2.8644061E-29
   4.460000      3.4373823E-29
   4.470000      4.0405267E-29
   4.480000      4.6736271E-29
   4.490000      5.3363366E-29
   4.500000      6.0281637E-29
   4.510000      6.7484609E-29
   4.520000      7.4964217E-29
   4.530000      8.2710650E-29
   4.540000      9.0712299E-29
   4.550000      9.8955671E-29
   4.560000      1.0742524E-28
   4.570000      1.1610343E-28
   4.580000      1.2497049E-28
   4.590000      1.3400436E-28
   4.600000      1.4318066E-28
   4.610000      1.5247255E-28
   4.620000      1.6185069E-28
   4.630000      1.7128305E-28
   4.640000      1.8073496E-28
   4.650000      1.9016898E-28
   4.660000      1.9954481E-28
   4.670000      2.0881922E-28
   4.680000      2.1794603E-28
   4.690000      2.2687606E-28
   4.700000      2.3555700E-28
   4.710000      2.4393350E-28
   4.720000      2.5194700E-28
   4.730000      2.5953586E-28
   4.740000      2.6663520E-28
   4.750000      2.7317708E-28
   4.760000      2.7909041E-28
   4.770000      2.8430092E-28
   4.780000      2.8873142E-28
   4.790000      2.9230166E-28
   4.800000      2.9492858E-28
   4.810000      2.9652626E-28
   4.820000      2.9700615E-28
   4.830000      2.9627726E-28
   4.840000      2.9424623E-28
   4.850000      2.9081747E-28
   4.860000      2.8589361E-28
   4.870000      2.7937549E-28
   4.880000      2.7116261E-28
   4.890000      2.6115326E-28
   4.900000      2.4924502E-28
   4.910000      2.3533504E-28
   4.920000      2.1932035E-28
   4.930000      2.0109838E-28
   4.940000      1.8056737E-28
   4.950000      1.5762682E-28
   4.960000      1.3217809E-28
   4.970000      1.0412482E-28
   4.980000      7.3373676E-29
   4.990000      3.9834825E-29
   5.000000      3.4226679E-30
   5.010000     -3.5943480E-29
   5.020000     -7.8338681E-29
   5.030000     -1.2383152E-28
   5.040000     -1.7248340E-28
   5.050000     -2.2434773E-28
   5.060000     -2.7946893E-28
   5.070000     -3.3788161E-28
   5.080000     -3.9960969E-28
   5.090000     -4.6466527E-28
   5.100000     -5.3304777E-28
   5.110000     -6.0474292E-28
   5.120000     -6.7972154E-28
   5.130000     -7.5793866E-28
   5.140000     -8.3933240E-28
   5.150000     -9.2382285E-28
   5.160000     -1.0113111E-27
   5.170000     -1.1016778E-27
   5.180000     -1.1947823E-27
   5.190000     -1.2904618E-27
   5.200000     -1.3885295E-27
   5.210000     -1.4887745E-27
   5.220000     -1.5909598E-27
   5.230000     -1.6948216E-27
   5.240000     -1.8000689E-27
   5.250000     -1.9063812E-27
   5.260000     -2.0134091E-27
   5.270000     -2.1207726E-27
   5.280000     -2.2280596E-27
   5.290000     -2.3348270E-27
   5.300000     -2.4405983E-27
   5.310000     -2.5448637E-27
   5.320000     -2.6470796E-27
   5.330000     -2.7466685E-27
   5.340000     -2.8430179E-27
   5.350000     -2.9354814E-27
   5.360000     -3.0233772E-27
   5.370000     -3.1059892E-27
   5.380000     -3.1825671E-27
   5.390000     -3.2523268E-27
   5.400000     -3.3144507E-27
   5.410000     -3.3680898E-27
   5.420000     -3.4123623E-27
   5.430000     -3.4463573E-27
   5.440000     -3.4691352E-27
   5.450000     -3.4797286E-27
   5.460000     -3.4771460E-27
   5.470000     -3.4603719E-27
   5.480000     -3.4283714E-27
   5.490000     -3.3800910E-27
   5.500000     -3.3144623E-27
   5.510000     -3.2304062E-27
   5.520000     -3.1268347E-27
   5.530000     -3.0026561E-27
   5.540000     -2.8567789E-27
   5.550000     -2.6881156E-27
   5.560000     -2.4955881E-27
   5.570000     -2.2781326E-27
   5.580000     -2.0347057E-27
   5.590000     -1.7642886E-27
   5.600000     -1.4658944E-27
   5.610000     -1.1385738E-27
   5.620000     -7.8142239E-28
   5.630000     -3.9358706E-28
   5.640000      2.5726569E-29
   5.650000      4.7724650E-28
   5.660000      9.6162626E-28
   5.670000      1.4794374E-27
   5.680000      2.0311614E-27
   5.690000      2.6171797E-27
   5.700000      3.2377660E-27
   5.710000      3.8930767E-27
   5.720000      4.5831417E-27
   5.730000      5.3078571E-27
   5.740000      6.0669725E-27
   5.750000      6.8600823E-27
   5.760000      7.6866183E-27
   5.770000      8.5458380E-27
   5.780000      9.4368148E-27
   5.790000      1.0358429E-26
   5.800000      1.1309358E-26
   5.810000      1.2288068E-26
   5.820000      1.3292804E-26
   5.830000      1.4321580E-26
   5.840000      1.5372173E-26
   5.850000      1.6442114E-26
   5.860000      1.7528671E-26
   5.870000      1.8628861E-26
   5.880000      1.9739425E-26
   5.890000      2.0856828E-26
   5.900000      2.1977255E-26
   5.910000      2.3096609E-26
   5.920000      2.4210499E-26
   5.930000      2.5314238E-26
   5.940000      2.6402851E-26
   5.950000      2.7471055E-26
   5.960000      2.8513279E-26
   5.970000      2.9523649E-26
   5.980000      3.0496004E-26
   5.990000      3.1423880E-26
   6.000000      3.2300532E-26
   6.010000      3.3118938E-26
   6.020000      3.3871804E-26
   6.030000      3.4551559E-26
   6.040000      3.5150394E-26
   6.050000      3.5660245E-26
   6.060000      3.6072837E-26
   6.070000      3.6379673E-26
   6.080000      3.6572069E-26
   6.090000      3.6641168E-26
   6.100000      3.6577961E-26
   6.110000      3.6373313E-26
   6.120000      3.6017984E-26
   6.130000      3.5502670E-26
   6.140000      3.4818015E-26
   6.150000      3.3954663E-26
   6.160000      3.2903271E-26
   6.170000      3.1654569E-26
   6.180000      3.0199377E-26
   6.190000      2.8528668E-26
   6.200000      2.6633593E-26
   6.210000      2.4505531E-26
   6.220000      2.2136149E-26
   6.230000      1.9517434E-26
   6.240000      1.6641757E-26
   6.250000      1.3501923E-26
   6.260000      1.0091224E-26
   6.270000      6.4034956E-27
   6.280000      2.4331771E-27
   6.290000     -1.8246172E-27
   6.300000     -6.3740485E-27
   6.310000     -1.1218493E-26
   6.320000     -1.6360468E-26
   6.330000     -2.1801567E-26
   6.340000     -2.7542404E-26
   6.350000     -3.3582533E-26
   6.360000     -3.9920389E-26
   6.370000     -4.6553224E-26
   6.380000     -5.3477035E-26
   6.390000     -6.0686484E-26
   6.400000     -6.8174869E-26
   6.410000     -7.5934013E-26
   6.420000     -8.3954238E-26
   6.430000     -9.2224268E-26
   6.440000     -1.0073120E-25
   6.450000     -1.0946043E-25
   6.460000     -1.1839558E-25
   6.470000     -1.2751849E-25
   6.480000     -1.3680911E-25
   6.490000     -1.4624551E-25
   6.500000     -1.5580378E-25
   6.510000     -1.6545804E-25
   6.520000     -1.7518038E-25
   6.530000     -1.8494087E-25
   6.540000     -1.9470744E-25
   6.550000     -2.0444596E-25
   6.560000     -2.1412024E-25
   6.570000     -2.2369194E-25
   6.580000     -2.3312058E-25
   6.590000     -2.4236366E-25
   6.600000     -2.5137657E-25
   6.610000     -2.6011268E-25
   6.620000     -2.6852332E-25
   6.630000     -2.7655787E-25
   6.640000     -2.8416385E-25
   6.650000     -2.9128682E-25
   6.660000     -2.9787072E-25
   6.670000     -3.0385773E-25
   6.680000     -3.0918846E-25
   6.690000     -3.1380209E-25
   6.700000     -3.1763642E-25
   6.710000     -3.2062808E-25
   6.720000     -3.2271257E-25
   6.730000     -3.2382454E-25
   6.740000     -3.2389791E-25
   6.750000     -3.2286603E-25
   6.760000     -3.2066188E-25
   6.770000     -3.1721830E-25
   6.780000     -3.1246827E-25
   6.790000     -3.0634501E-25
   6.800000     -2.9878233E-25
   6.810000     -2.8971491E-25
   6.820000     -2.7907843E-25
   6.830000     -2.6681006E-25
   6.840000     -2.5284866E-25
   6.850000     -2.3713499E-25
   6.860000     -2.1961227E-25
   6.870000     -2.0022628E-25
   6.880000     -1.7892581E-25
   6.890000     -1.5566305E-25
   6.900000     -1.3039388E-25
   6.910000     -1.0307824E-25
   6.920000     -7.3680601E-26
   6.930000     -4.2170230E-26
   6.940000     -8.5216884E-27
   6.950000      2.7284770E-26
   6.960000      6.5262925E-26
   6.970000      1.0542012E-25
   6.980000      1.4775677E-25
   6.990000      1.9226601E-25
   7.000000      2.3893337E-25
   7.010000      2.8773628E-25
   7.020000      3.3864369E-25
   7.030000      3.9161570E-25
   7.040000      4.4660320E-25
   7.050000      5.0354742E-25
   7.060000      5.6237958E-25