  -2.600000      0.0000000E+00
  -2.590000      0.0000000E+00
  -2.580000      0.0000000E+00
  -2.570000      0.0000000E+00
  -2.560000      0.0000000E+00
  -2.550000      0.0000000E+00
  -2.540000      0.0000000E+00
  -2.530000      0.0000000E+00
  -2.520000      0.0000000E+00
  -2.510000      0.0000000E+00
  -2.500000      0.0000000E+00
  -2.490000      0.0000000E+00
  -2.480000      0.0000000E+00
  -2.470000      0.0000000E+00
  -2.460000      0.0000000E+00
  -2.450000      0.0000000E+00
  -2.440000      0.0000000E+00
  -2.430000      0.0000000E+00
  -2.420000      0.0000000E+00
  -2.410000      0.0000000E+00
  -2.400000      0.0000000E+00
  -2.390000      0.0000000E+00
  -2.380000      0.0000000E+00
  -2.370000      0.0000000E+00
  -2.360000      0.0000000E+00
  -2.350000      0.0000000E+00
  -2.340000      0.0000000E+00
  -2.330000      0.0000000E+00
  -2.320000      0.0000000E+00
  -2.310000      0.0000000E+00
  -2.300000      0.0000000E+00
  -2.290000      0.0000000E+00
  -2.280000      0.0000000E+00
  -2.270000      0.0000000E+00
  -2.260000      0.0000000E+00
  -2.250000      0.0000000E+00
  -2.240000      0.0000000E+00
  -2.230000      0.0000000E+00
  -2.220000      0.0000000E+00
  -2.210000      0.0000000E+00
  -2.200000      0.0000000E+00
  -2.190000      0.0000000E+00
  -2.180000      0.0000000E+00
  -2.170000      0.0000000E+00
  -2.160000      0.0000000E+00
  -2.150000      0.0000000E+00
  -2.140000      0.0000000E+00
  -2.130000      0.0000000E+00
  -2.120000      0.0000000E+00
  -2.110000      0.0000000E+00
  -2.100000      0.0000000E+00
  -2.090000      0.0000000E+00
  -2.080000      0.0000000E+00
  -2.070000      0.0000000E+00
  -2.060000      0.0000000E+00
  -2.050000      0.0000000E+00
  -2.040000      0.0000000E+00
  -2.030000      0.0000000E+00
  -2.020000      0.0000000E+00
  -2.010000      0.0000000E+00
  -2.000000      0.0000000E+00
  -1.990000      0.0000000E+00
  -1.980000      0.0000000E+00
  -1.970000      0.0000000E+00
  -1.960000      0.0000000E+00
  -1.950000      0.0000000E+00
  -1.940000      0.0000000E+00
  -1.930000      0.0000000E+00
  -1.920000      0.0000000E+00
  -1.910000      0.0000000E+00
  -1.900000      0.0000000E+00
  -1.890000      0.0000000E+00
  -1.880000      0.0000000E+00
  -1.870000      0.0000000E+00
  -1.860000      0.0000000E+00
  -1.850000      0.0000000E+00
  -1.840000      0.0000000E+00
  -1.830000      0.0000000E+00
  -1.820000      0.0000000E+00
  -1.810000      0.0000000E+00
  -1.800000      0.0000000E+00
  -1.790000      0.0000000E+00
  -1.780000      0.0000000E+00
  -1.770000      0.0000000E+00
  -1.760000      0.0000000E+00
  -1.750000      0.0000000E+00
  -1.740000      0.0000000E+00
  -1.730000      0.0000000E+00
  -1.720000      0.0000000E+00
  -1.710000      0.0000000E+00
  -1.700000      0.0000000E+00
  -1.690000      0.0000000E+00
  -1.680000      0.0000000E+00
  -1.670000      0.0000000E+00
  -1.660000      0.0000000E+00
  -1.650000      0.0000000E+00
  -1.640000      0.0000000E+00
  -1.630000      0.0000000E+00
  -1.620000      0.0000000E+00
  -1.610000      0.0000000E+00
  -1.600000      0.0000000E+00
  -1.590000      0.0000000E+00
  -1.580000      0.0000000E+00
  -1.570000      0.0000000E+00
  -1.560000      0.0000000E+00
  -1.550000      0.0000000E+00
  -1.540000      0.0000000E+00
  -1.530000      0.0000000E+00
  -1.520000      0.0000000E+00
  -1.510000      0.0000000E+00
  -1.500000      0.0000000E+00
  -1.490000      0.0000000E+00
  -1.480000      0.0000000E+00
  -1.470000      0.0000000E+00
  -1.460000      0.0000000E+00
  -1.450000      0.0000000E+00
  -1.440000      0.0000000E+00
  -1.430000      0.0000000E+00
  -1.420000      0.0000000E+00
  -1.410000      0.0000000E+00
  -1.400000      0.0000000E+00
  -1.390000      0.0000000E+00
  -1.380000      0.0000000E+00
  -1.370000      0.0000000E+00
  -1.360000      0.0000000E+00
  -1.350000      0.0000000E+00
  -1.340000      0.0000000E+00
  -1.330000      0.0000000E+00
  -1.320000      0.0000000E+00
  -1.310000      0.0000000E+00
  -1.300000      0.0000000E+00
  -1.290000      0.0000000E+00
  -1.280000      0.0000000E+00
  -1.270000      0.0000000E+00
  -1.260000      0.0000000E+00
  -1.250000      0.0000000E+00
  -1.240000      0.0000000E+00
  -1.230000      0.0000000E+00
  -1.220000      0.0000000E+00
  -1.210000      0.0000000E+00
  -1.200000      0.0000000E+00
  -1.190000      0.0000000E+00
  -1.180000      0.0000000E+00
  -1.170000      0.0000000E+00
  -1.160000      0.0000000E+00
  -1.150000      0.0000000E+00
  -1.140000      0.0000000E+00
  -1.130000      0.0000000E+00
  -1.120000      0.0000000E+00
  -1.110000      0.0000000E+00
  -1.100000      0.0000000E+00
  -1.090000      0.0000000E+00
  -1.080000      0.0000000E+00
  -1.070000      0.0000000E+00
  -1.060000      0.0000000E+00
  -1.050000      0.0000000E+00
  -1.040000      0.0000000E+00
  -1.030000      0.0000000E+00
  -1.020000      0.0000000E+00
  -1.010000      0.0000000E+00
  -1.000000      0.0000000E+00
 -0.9900000      0.0000000E+00
 -0.9800000      0.0000000E+00
 -0.9700000      0.0000000E+00
 -0.9600000      0.0000000E+00
 -0.9500000      0.0000000E+00
 -0.9400000      0.0000000E+00
 -0.9300000      0.0000000E+00
 -0.9200000      0.0000000E+00
 -0.9100000      0.0000000E+00
 -0.9000000      0.0000000E+00
 -0.8900000      0.0000000E+00
 -0.8800000      0.0000000E+00
 -0.8700000      0.0000000E+00
 -0.8600000      0.0000000E+00
 -0.8500000      0.0000000E+00
 -0.8400000      0.0000000E+00
 -0.8300000      0.0000000E+00
 -0.8200000      0.0000000E+00
 -0.8100000      0.0000000E+00
 -0.8000000      0.0000000E+00
 -0.7900000      0.0000000E+00
 -0.7800000      0.0000000E+00
 -0.7700000      0.0000000E+00
 -0.7600000      0.0000000E+00
 -0.7500000      0.0000000E+00
 -0.7400000      0.0000000E+00
 -0.7300000      0.0000000E+00
 -0.7200000      0.0000000E+00
 -0.7100000      0.0000000E+00
 -0.7000000      0.0000000E+00
 -0.6900000      0.0000000E+00
 -0.6800000      0.0000000E+00
 -0.6700000      0.0000000E+00
 -0.6600000      0.0000000E+00
 -0.6500000      0.0000000E+00
 -0.6400000      0.0000000E+00
 -0.6300000      0.0000000E+00
 -0.6200000      0.0000000E+00
 -0.6100000      0.0000000E+00
 -0.6000000      0.0000000E+00
 -0.5900000      0.0000000E+00
 -0.5800000      0.0000000E+00
 -0.5700000      0.0000000E+00
 -0.5600000      0.0000000E+00
 -0.5500000      0.0000000E+00
 -0.5400000      0.0000000E+00
 -0.5300000      0.0000000E+00
 -0.5200000      0.0000000E+00
 -0.5100000      0.0000000E+00
 -0.5000000      0.0000000E+00
 -0.4900000      0.0000000E+00
 -0.4800000      0.0000000E+00
 -0.4700000      0.0000000E+00
 -0.4600000      0.0000000E+00
 -0.4500000      0.0000000E+00
 -0.4400000      0.0000000E+00
 -0.4300000      0.0000000E+00
 -0.4200000      0.0000000E+00
 -0.4100000      0.0000000E+00
 -0.4000000      0.0000000E+00
 -0.3900000      0.0000000E+00
 -0.3800000      0.0000000E+00
 -0.3700000      0.0000000E+00
 -0.3600000      0.0000000E+00
 -0.3500000      0.0000000E+00
 -0.3400000      0.0000000E+00
 -0.3300000      0.0000000E+00
 -0.3200000      0.0000000E+00
 -0.3100000      0.0000000E+00
 -0.3000000      0.0000000E+00
 -0.2900000      0.0000000E+00
 -0.2800000      0.0000000E+00
 -0.2700000      0.0000000E+00
 -0.2600000      0.0000000E+00
 -0.2500000      0.0000000E+00
 -0.2400000      0.0000000E+00
 -0.2300000      0.0000000E+00
 -0.2200000      0.0000000E+00
 -0.2100000      0.0000000E+00
 -0.2000000      0.0000000E+00
 -0.1900000      0.0000000E+00
 -0.1800000      0.0000000E+00
 -0.1700000      0.0000000E+00
 -0.1600000      0.0000000E+00
 -0.1500000      0.0000000E+00
 -0.1400000      0.0000000E+00
 -0.1300000      0.0000000E+00
 -0.1200000      0.0000000E+00
 -0.1100000      0.0000000E+00
 -0.1000000      0.0000000E+00
 -9.0000004E-02  0.0000000E+00
 -7.9999998E-02  0.0000000E+00
 -7.0000000E-02  0.0000000E+00
 -5.9999999E-02  0.0000000E+00
 -5.0000001E-02  0.0000000E+00
 -3.9999999E-02  0.0000000E+00
 -2.9999999E-02  0.0000000E+00
 -2.0000000E-02  0.0000000E+00
 -9.9999998E-03  0.0000000E+00
 -3.4694470E-17  0.0000000E+00
  9.9999998E-03  0.0000000E+00
  2.0000000E-02  0.0000000E+00
  2.9999999E-02  0.0000000E+00
  3.9999999E-02  0.0000000E+00
  5.0000001E-02  0.0000000E+00
  5.9999999E-02  0.0000000E+00
  7.0000000E-02  0.0000000E+00
  7.9999998E-02  0.0000000E+00
  9.0000004E-02  0.0000000E+00
  0.1000000      0.0000000E+00
  0.1100000      0.0000000E+00
  0.1200000      0.0000000E+00
  0.1300000      0.0000000E+00
  0.1400000      0.0000000E+00
  0.1500000      0.0000000E+00
  0.1600000      0.0000000E+00
  0.1700000      0.0000000E+00
  0.1800000      0.0000000E+00
  0.1900000      0.0000000E+00
  0.2000000      0.0000000E+00
  0.2100000      0.0000000E+00
  0.2200000      0.0000000E+00
  0.2300000      0.0000000E+00
  0.2400000      0.0000000E+00
  0.2500000      0.0000000E+00
  0.2600000      0.0000000E+00
  0.2700000      0.0000000E+00
  0.2800000      0.0000000E+00
  0.2900000      0.0000000E+00
  0.3000000      0.0000000E+00
  0.3100000      0.0000000E+00
  0.3200000      0.0000000E+00
  0.3300000      0.0000000E+00
  0.3400000      0.0000000E+00
  0.3500000      0.0000000E+00
  0.3600000      0.0000000E+00
  0.3700000      0.0000000E+00
  0.3800000      0.0000000E+00
  0.3900000      0.0000000E+00
  0.4000000      0.0000000E+00
  0.4100000      0.0000000E+00
  0.4200000      0.0000000E+00
  0.4300000      0.0000000E+00
  0.4400000      0.0000000E+00
  0.4500000      0.0000000E+00
  0.4600000      0.0000000E+00
  0.4700000      0.0000000E+00
  0.4800000      0.0000000E+00
  0.4900000      0.0000000E+00
  0.5000000      0.0000000E+00
  0.5100000      0.0000000E+00
  0.5200000      0.0000000E+00
  0.5300000      0.0000000E+00
  0.5400000      0.0000000E+00
  0.5500000      0.0000000E+00
  0.5600000      0.0000000E+00
  0.5700000      0.0000000E+00
  0.5800000      0.0000000E+00
  0.5900000      0.0000000E+00
  0.6000000      0.0000000E+00
  0.6100000      0.0000000E+00
  0.6200000      0.0000000E+00
  0.6300000      0.0000000E+00
  0.6400000      0.0000000E+00
  0.6500000      0.0000000E+00
  0.6600000      0.0000000E+00
  0.6700000      0.0000000E+00
  0.6800000      0.0000000E+00
  0.6900000      0.0000000E+00
  0.7000000      0.0000000E+00
  0.7100000      0.0000000E+00
  0.7200000      0.0000000E+00
  0.7300000      0.0000000E+00
  0.7400000      0.0000000E+00
  0.7500000      0.0000000E+00
  0.7600000      0.0000000E+00
  0.7700000      0.0000000E+00
  0.7800000      0.0000000E+00
  0.7900000      0.0000000E+00
  0.8000000      0.0000000E+00
  0.8100000      0.0000000E+00
  0.8200000      0.0000000E+00
  0.8300000      0.0000000E+00
  0.8400000      0.0000000E+00
  0.8500000      0.0000000E+00
  0.8600000      0.0000000E+00
  0.8700000      0.0000000E+00
  0.8800000      0.0000000E+00
  0.8900000      0.0000000E+00
  0.9000000      0.0000000E+00
  0.9100000      0.0000000E+00
  0.9200000      0.0000000E+00
  0.9300000      0.0000000E+00
  0.9400000      0.0000000E+00
  0.9500000      0.0000000E+00
  0.9600000      0.0000000E+00
  0.9700000      0.0000000E+00
  0.9800000      0.0000000E+00
  0.9900000      0.0000000E+00
   1.000000      0.0000000E+00
   1.010000      0.0000000E+00
   1.020000      0.0000000E+00
   1.030000      0.0000000E+00
   1.040000      0.0000000E+00
   1.050000      0.0000000E+00
   1.060000      0.0000000E+00
   1.070000      0.0000000E+00
   1.080000      0.0000000E+00
   1.090000      0.0000000E+00
   1.100000      0.0000000E+00
   1.110000      0.0000000E+00
   1.120000      0.0000000E+00
   1.130000      0.0000000E+00
   1.140000      0.0000000E+00
   1.150000      0.0000000E+00
   1.160000      0.0000000E+00
   1.170000      0.0000000E+00
   1.180000      0.0000000E+00
   1.190000      0.0000000E+00
   1.200000      0.0000000E+00
   1.210000      0.0000000E+00
   1.220000      0.0000000E+00
   1.230000      0.0000000E+00
   1.240000      0.0000000E+00
   1.250000      0.0000000E+00
   1.260000      0.0000000E+00
   1.270000      0.0000000E+00
   1.280000      0.0000000E+00
   1.290000      0.0000000E+00
   1.300000      0.0000000E+00
   1.310000      0.0000000E+00
   1.320000      0.0000000E+00
   1.330000      0.0000000E+00
   1.340000      0.0000000E+00
   1.350000      0.0000000E+00
   1.360000      0.0000000E+00
   1.370000      0.0000000E+00
   1.380000      0.0000000E+00
   1.390000      0.0000000E+00
   1.400000      0.0000000E+00
   1.410000      0.0000000E+00
   1.420000      0.0000000E+00
   1.430000      0.0000000E+00
   1.440000      0.0000000E+00
   1.450000      0.0000000E+00
   1.460000      0.0000000E+00
   1.470000      0.0000000E+00
   1.480000      0.0000000E+00
   1.490000      0.0000000E+00
   1.500000      0.0000000E+00
   1.510000      0.0000000E+00
   1.520000      0.0000000E+00
   1.530000      0.0000000E+00
   1.540000      0.0000000E+00
   1.550000      0.0000000E+00
   1.560000      0.0000000E+00
   1.570000      0.0000000E+00
   1.580000      0.0000000E+00
   1.590000      0.0000000E+00
   1.600000      0.0000000E+00
   1.610000      0.0000000E+00
   1.620000      0.0000000E+00
   1.630000      0.0000000E+00
   1.640000      0.0000000E+00
   1.650000      0.0000000E+00
   1.660000      0.0000000E+00
   1.670000      0.0000000E+00
   1.680000      0.0000000E+00
   1.690000      0.0000000E+00
   1.700000      0.0000000E+00
   1.710000      0.0000000E+00
   1.720000      0.0000000E+00
   1.730000      0.0000000E+00
   1.740000      0.0000000E+00
   1.750000      0.0000000E+00
   1.760000      0.0000000E+00
   1.770000      0.0000000E+00
   1.780000      0.0000000E+00
   1.790000      0.0000000E+00
   1.800000      0.0000000E+00
   1.810000      0.0000000E+00
   1.820000      0.0000000E+00
   1.830000      0.0000000E+00
   1.840000      0.0000000E+00
   1.850000      0.0000000E+00
   1.860000      0.0000000E+00
   1.870000      0.0000000E+00
   1.880000      0.0000000E+00
   1.890000      0.0000000E+00
   1.900000      0.0000000E+00
   1.910000      0.0000000E+00
   1.920000      0.0000000E+00
   1.930000      0.0000000E+00
   1.940000      0.0000000E+00
   1.950000      0.0000000E+00
   1.960000      0.0000000E+00
   1.970000      0.0000000E+00
   1.980000      0.0000000E+00
   1.990000      0.0000000E+00
   2.000000      0.0000000E+00
   2.010000      0.0000000E+00
   2.020000      0.0000000E+00
   2.030000      0.0000000E+00
   2.040000      0.0000000E+00
   2.050000      0.0000000E+00
   2.060000      0.0000000E+00
   2.070000      0.0000000E+00
   2.080000      0.0000000E+00
   2.090000      0.0000000E+00
   2.100000      0.0000000E+00
   2.110000      0.0000000E+00
   2.120000      0.0000000E+00
   2.130000      0.0000000E+00
   2.140000      0.0000000E+00
   2.150000      0.0000000E+00
   2.160000      0.0000000E+00
   2.170000      0.0000000E+00
   2.180000      0.0000000E+00
   2.190000      0.0000000E+00
   2.200000      0.0000000E+00
   2.210000      0.0000000E+00
   2.220000      0.0000000E+00
   2.230000      0.0000000E+00
   2.240000      0.0000000E+00
   2.250000      0.0000000E+00
   2.260000      0.0000000E+00
   2.270000      0.0000000E+00
   2.280000      0.0000000E+00
   2.290000      0.0000000E+00
   2.300000      0.0000000E+00
   2.310000      0.0000000E+00
   2.320000      0.0000000E+00
   2.330000      0.0000000E+00
   2.340000      0.0000000E+00
   2.350000      0.0000000E+00
   2.360000      0.0000000E+00
   2.370000      0.0000000E+00
   2.380000      0.0000000E+00
   2.390000      0.0000000E+00
   2.400000      0.0000000E+00
   2.410000      0.0000000E+00
   2.420000      0.0000000E+00
   2.430000      0.0000000E+00
   2.440000      0.0000000E+00
   2.450000      0.0000000E+00
   2.460000      0.0000000E+00
   2.470000      0.0000000E+00
   2.480000      0.0000000E+00
   2.490000      0.0000000E+00
   2.500000      0.0000000E+00
   2.510000      0.0000000E+00
   2.520000      0.0000000E+00
   2.530000      1.1956198E-38
   2.540000      1.2948061E-38
   2.550000      1.4181582E-38
   2.560000      1.5648285E-38
   2.570000      1.7165107E-38
   2.580000      1.8463366E-38
   2.590000      1.9701822E-38
   2.600000      2.0998294E-38
   2.610000      2.2189495E-38
   2.620000      2.3368043E-38
   2.630000      2.5417584E-38
   2.640000      2.8383822E-38
   2.650000      3.1306630E-38
   2.660000      3.4238716E-38
   2.670000      3.7342850E-38
   2.680000      3.9731724E-38
   2.690000      4.1381913E-38
   2.700000      4.2874994E-38
   2.710000      4.4271099E-38
   2.720000      4.6051822E-38
   2.730000      4.7537817E-38
   2.740000      4.9199477E-38
   2.750000      5.6025247E-38
   2.760000      6.4955116E-38
   2.770000      7.1682947E-38
   2.780000      8.5535740E-38
   2.790000      1.0707109E-37
   2.800000      1.2947460E-37
   2.810000      1.5472304E-37
   2.820000      1.8082953E-37
   2.830000      1.8967754E-37
   2.840000      1.8186222E-37
   2.850000      1.7186418E-37
   2.860000      1.5982011E-37
   2.870000      1.4649665E-37
   2.880000      1.2932341E-37
   2.890000      1.0769714E-37
   2.900000      9.2201549E-38
   2.910000      8.5681604E-38
   2.920000      8.0595093E-38
   2.930000      7.6052380E-38
   2.940000      7.4960102E-38
   2.950000      7.7540901E-38
   2.960000      6.8512453E-38
   2.970000      5.4541832E-38
   2.980000      4.7872935E-38
   2.990000      3.8198460E-38
   3.000000      2.4224162E-38
   3.010000      0.0000000E+00
   3.020000     -1.2805332E-38
   3.030000     -3.8255330E-38
   3.040000     -7.0641210E-38
   3.050000     -1.0449033E-37
   3.060000     -1.4345382E-37
   3.070000     -1.9304884E-37
   3.080000     -2.5066526E-37
   3.090000     -3.1847324E-37
   3.100000     -3.9606430E-37
   3.110000     -4.9118363E-37
   3.120000     -6.0854316E-37
   3.130000     -7.4241837E-37
   3.140000     -9.0092505E-37
   3.150000     -1.0773631E-36
   3.160000     -1.2541758E-36
   3.170000     -1.4285106E-36
   3.180000     -1.6138795E-36
   3.190000     -1.8174679E-36
   3.200000     -2.0276876E-36
   3.210000     -2.2441471E-36
   3.220000     -2.4432531E-36
   3.230000     -2.6130024E-36
   3.240000     -2.7558948E-36
   3.250000     -2.8757731E-36
   3.260000     -2.9748800E-36
   3.270000     -3.0538624E-36
   3.280000     -3.1192314E-36
   3.290000     -3.1608795E-36
   3.300000     -3.1709541E-36
   3.310000     -3.1518993E-36
   3.320000     -3.1263845E-36
   3.330000     -3.1096324E-36
   3.340000     -3.0901497E-36
   3.350000     -3.0554344E-36
   3.360000     -3.0171343E-36
   3.370000     -2.9708708E-36
   3.380000     -2.9299753E-36
   3.390000     -2.9130614E-36
   3.400000     -2.8997322E-36
   3.410000     -2.8736064E-36
   3.420000     -2.8044973E-36
   3.430000     -2.7227626E-36
   3.440000     -2.5772741E-36
   3.450000     -2.2993325E-36
   3.460000     -1.9153207E-36
   3.470000     -1.4717625E-36
   3.480000     -1.0639664E-36
   3.490000     -6.6733891E-37
   3.500000     -1.7679943E-37
   3.510000      3.8268327E-37
   3.520000      9.9306619E-37
   3.530000      1.8615810E-36
   3.540000      2.9847146E-36
   3.550000      4.2190762E-36
   3.560000      5.4116100E-36
   3.570000      6.4788529E-36
   3.580000      7.5590572E-36
   3.590000      8.7085341E-36
   3.600000      9.9672056E-36
   3.610000      1.1268341E-35
   3.620000      1.2512737E-35
   3.630000      1.3718444E-35
   3.640000      1.4935751E-35
   3.650000      1.6161472E-35
   3.660000      1.7230451E-35
   3.670000      1.8050669E-35
   3.680000      1.8598202E-35
   3.690000      1.8674747E-35
   3.700000      1.8307718E-35
   3.710000      1.7744651E-35
   3.720000      1.7291981E-35
   3.730000      1.6914148E-35
   3.740000      1.6393544E-35
   3.750000      1.5880927E-35
   3.760000      1.5529870E-35
   3.770000      1.5361884E-35
   3.780000      1.5223471E-35
   3.790000      1.4849950E-35
   3.800000      1.4223536E-35
   3.810000      1.3028299E-35
   3.820000      1.1025623E-35
   3.830000      8.7543464E-36
   3.840000      6.1514350E-36
   3.850000      3.0052472E-36
   3.860000     -4.6202048E-37
   3.870000     -4.1571630E-36
   3.880000     -8.1378116E-36
   3.890000     -1.2369821E-35
   3.900000     -1.6603766E-35
   3.910000     -2.1388471E-35
   3.920000     -2.6952820E-35
   3.930000     -3.2791764E-35
   3.940000     -3.8810794E-35
   3.950000     -4.5049897E-35
   3.960000     -5.1947759E-35
   3.970000     -5.9222967E-35
   3.980000     -6.6281609E-35
   3.990000     -7.3633661E-35
   4.000000     -8.1255789E-35
   4.010000     -8.9410368E-35
   4.020000     -9.8184773E-35
   4.030000     -1.0733703E-34
   4.040000     -1.1778533E-34
   4.050000     -1.2877103E-34
   4.060000     -1.3937691E-34
   4.070000     -1.4989682E-34
   4.080000     -1.6036973E-34
   4.090000     -1.7107292E-34
   4.100000     -1.8016840E-34
   4.110000     -1.8745083E-34
   4.120000     -1.9448850E-34
   4.130000     -2.0053155E-34
   4.140000     -2.0516573E-34
   4.150000     -2.0846511E-34
   4.160000     -2.0998156E-34
   4.170000     -2.0936583E-34
   4.180000     -2.0680764E-34
   4.190000     -2.0275482E-34
   4.200000     -1.9761927E-34
   4.210000     -1.9086066E-34
   4.220000     -1.8238929E-34
   4.230000     -1.7225871E-34
   4.240000     -1.5939842E-34
   4.250000     -1.4213281E-34
   4.260000     -1.2166288E-34
   4.270000     -9.9577779E-35
   4.280000     -7.6545265E-35
   4.290000     -5.3406887E-35
   4.300000     -2.8418104E-35
   4.310000      1.3570956E-36
   4.320000      3.5875938E-35
   4.330000      7.3161982E-35
   4.340000      1.1285315E-34
   4.350000      1.5476694E-34
   4.360000      2.0045659E-34
   4.370000      2.5039111E-34
   4.380000      3.0354442E-34
   4.390000      3.6014346E-34
   4.400000      4.2181288E-34
   4.410000      4.9171971E-34
   4.420000      5.6985790E-34
   4.430000      6.5231263E-34
   4.440000      7.3570642E-34
   4.450000      8.1968654E-34
   4.460000      9.0661150E-34
   4.470000      9.9156392E-34
   4.480000      1.0737369E-33
   4.490000      1.1547012E-33
   4.500000      1.2333164E-33
   4.510000      1.3158813E-33
   4.520000      1.4072316E-33
   4.530000      1.5011197E-33
   4.540000      1.5898442E-33
   4.550000      1.6755833E-33
   4.560000      1.7582721E-33
   4.570000      1.8359200E-33
   4.580000      1.9060448E-33
   4.590000      1.9708017E-33
   4.600000      2.0328428E-33
   4.610000      2.0879085E-33
   4.620000      2.1345519E-33
   4.630000      2.1718413E-33
   4.640000      2.1996583E-33
   4.650000      2.2172836E-33
   4.660000      2.2202925E-33
   4.670000      2.2034748E-33
   4.680000      2.1634801E-33
   4.690000      2.1029471E-33
   4.700000      2.0223423E-33
   4.710000      1.9195329E-33
   4.720000      1.7990801E-33
   4.730000      1.6578777E-33
   4.740000      1.4905200E-33
   4.750000      1.2954531E-33
   4.760000      1.0701368E-33
   4.770000      8.1720459E-34
   4.780000      5.3771566E-34
   4.790000      2.3266897E-34
   4.800000     -1.0419680E-34
   4.810000     -4.7626044E-34
   4.820000     -8.8439346E-34
   4.830000     -1.3281294E-33
   4.840000     -1.8036837E-33
   4.850000     -2.3127976E-33
   4.860000     -2.8547279E-33
   4.870000     -3.4305407E-33
   4.880000     -4.0403941E-33
   4.890000     -4.6829436E-33
   4.900000     -5.3580322E-33
   4.910000     -6.0643518E-33
   4.920000     -6.7998778E-33
   4.930000     -7.5622747E-33
   4.940000     -8.3515795E-33
   4.950000     -9.1677495E-33
   4.960000     -1.0000547E-32
   4.970000     -1.0845433E-32
   4.980000     -1.1705737E-32
   4.990000     -1.2574610E-32
   5.000000     -1.3444147E-32
   5.010000     -1.4309537E-32
   5.020000     -1.5165633E-32
   5.030000     -1.6005734E-32
   5.040000     -1.6821299E-32
   5.050000     -1.7604582E-32
   5.060000     -1.8347845E-32
   5.070000     -1.9043665E-32
   5.080000     -1.9682372E-32
   5.090000     -2.0253468E-32
   5.100000     -2.0747411E-32
   5.110000     -2.1153272E-32
   5.120000     -2.1459981E-32
   5.130000     -2.1656000E-32
   5.140000     -2.1728932E-32
   5.150000     -2.1666584E-32
   5.160000     -2.1456013E-32
   5.170000     -2.1083085E-32
   5.180000     -2.0534348E-32
   5.190000     -1.9797109E-32
   5.200000     -1.8855391E-32
   5.210000     -1.7693738E-32
   5.220000     -1.6298633E-32
   5.230000     -1.4655742E-32
   5.240000     -1.2751795E-32
   5.250000     -1.0572538E-32
   5.260000     -8.1035840E-33
   5.270000     -5.3308614E-33
   5.280000     -2.2424878E-33
   5.290000      1.1728033E-33
   5.300000      4.9271830E-33
   5.310000      9.0312408E-33
   5.320000      1.3494759E-32
   5.330000      1.8324914E-32
   5.340000      2.3527562E-32
   5.350000      2.9108490E-32
   5.360000      3.5071209E-32
   5.370000      4.1416666E-32
   5.380000      4.8143735E-32
   5.390000      5.5249134E-32
   5.400000      6.2726765E-32
   5.410000      7.0567765E-32
   5.420000      7.8761689E-32
   5.430000      8.7292416E-32
   5.440000      9.6142237E-32
   5.450000      1.0529152E-31
   5.460000      1.1471279E-31
   5.470000      1.2437680E-31
   5.480000      1.3425069E-31
   5.490000      1.4429585E-31
   5.500000      1.5447023E-31
   5.510000      1.6472678E-31
   5.520000      1.7501314E-31
   5.530000      1.8527205E-31
   5.540000      1.9544092E-31
   5.550000      2.0545135E-31
   5.560000      2.1522984E-31
   5.570000      2.2469720E-31
   5.580000      2.3376786E-31
   5.590000      2.4235040E-31
   5.600000      2.5034755E-31
   5.610000      2.5765618E-31
   5.620000      2.6416694E-31
   5.630000      2.6976472E-31
   5.640000      2.7432827E-31
   5.650000      2.7773043E-31
   5.660000      2.7983884E-31
   5.670000      2.8051572E-31
   5.680000      2.7961797E-31
   5.690000      2.7699767E-31
   5.700000      2.7250247E-31
   5.710000      2.6597586E-31
   5.720000      2.5725774E-31
   5.730000      2.4618491E-31
   5.740000      2.3259163E-31
   5.750000      2.1631040E-31
   5.760000      1.9717251E-31
   5.770000      1.7500886E-31
   5.780000      1.4965096E-31
   5.790000      1.2093171E-31
   5.800000      8.8686447E-32
   5.810000      5.2753965E-32
   5.820000      1.2977766E-32
   5.830000     -3.0792777E-32
   5.840000     -7.8701175E-32
   5.850000     -1.3088241E-31
   5.860000     -1.8746146E-31
   5.870000     -2.4855177E-31
   5.880000     -3.1425365E-31
   5.890000     -3.8465264E-31
   5.900000     -4.5981780E-31
   5.910000     -5.3979956E-31
   5.920000     -6.2462812E-31
   5.930000     -7.1431143E-31
   5.940000     -8.0883293E-31
   5.950000     -9.0814960E-31
   5.960000     -1.0121898E-30
   5.970000     -1.1208510E-30
   5.980000     -1.2339972E-30
   5.990000     -1.3514568E-30
   6.000000     -1.4730214E-30
   6.010000     -1.5984419E-30
   6.020000     -1.7274264E-30
   6.030000     -1.8596379E-30
   6.040000     -1.9946928E-30
   6.050000     -2.1321579E-30
   6.060000     -2.2715477E-30
   6.070000     -2.4123236E-30
   6.080000     -2.5538901E-30
   6.090000     -2.6955942E-30
   6.100000     -2.8367222E-30
   6.110000     -2.9764990E-30
   6.120000     -3.1140862E-30
   6.130000     -3.2485796E-30
   6.140000     -3.3790095E-30
   6.150000     -3.5043382E-30
   6.160000     -3.6234600E-30
   6.170000     -3.7352001E-30
   6.180000     -3.8383144E-30
   6.190000     -3.9314896E-30
   6.200000     -4.0133431E-30
   6.210000     -4.0824238E-30
   6.220000     -4.1372127E-30
   6.230000     -4.1761248E-30
   6.240000     -4.1975117E-30
   6.250000     -4.1996603E-30
   6.260000     -4.1808004E-30
   6.270000     -4.1391052E-30
   6.280000     -4.0726941E-30
   6.290000     -3.9796405E-30
   6.300000     -3.8579728E-30
   6.310000     -3.7056822E-30
   6.320000     -3.5207293E-30
   6.330000     -3.3010492E-30
   6.340000     -3.0445599E-30
   6.350000     -2.7491715E-30
   6.360000     -2.4127947E-30
   6.370000     -2.0333502E-30
   6.380000     -1.6087801E-30
   6.390000     -1.1370583E-30
   6.400000     -6.1620359E-31
   6.410000     -4.4292745E-32
   6.420000      5.8052546E-31
   6.430000      1.2600158E-30
   6.440000      1.9958414E-30
   6.450000      2.7895461E-30
   6.460000      3.6425376E-30
   6.470000      4.5560709E-30
   6.480000      5.5312260E-30
   6.490000      6.5688904E-30
   6.500000      7.6697384E-30
   6.510000      8.8342091E-30
   6.520000      1.0062484E-29
   6.530000      1.1354464E-29
   6.540000      1.2709752E-29
   6.550000      1.4127617E-29
   6.560000      1.5606979E-29
   6.570000      1.7146383E-29
   6.580000      1.8743970E-29
   6.590000      2.0397455E-29
   6.600000      2.2104097E-29
   6.610000      2.3860677E-29
   6.620000      2.5663471E-29
   6.630000      2.7508223E-29
   6.640000      2.9390121E-29
   6.650000      3.1303764E-29
   6.660000      3.3243152E-29
   6.670000      3.5201645E-29
   6.680000      3.7171953E-29
   6.690000      3.9146100E-29
   6.700000      4.1115421E-29
   6.710000      4.3070519E-29
   6.720000      4.5001264E-29
   6.730000      4.6896773E-29
   6.740000      4.8745386E-29
   6.750000      5.0534656E-29
   6.760000      5.2251346E-29
   6.770000      5.3881417E-29
   6.780000      5.5410022E-29
   6.790000      5.6821500E-29
   6.800000      5.8099390E-29
   6.810000      5.9226408E-29
   6.820000      6.0184504E-29
   6.830000      6.0954816E-29
   6.840000      6.1517741E-29
   6.850000      6.1852925E-29
   6.860000      6.1939291E-29
   6.870000      6.1755100E-29
   6.880000      6.1277945E-29
   6.890000      6.0484829E-29
   6.900000      5.9352208E-29
   6.910000      5.7856031E-29
   6.920000      5.5971839E-29
   6.930000      5.3674795E-29
   6.940000      5.0939782E-29
   6.950000      4.7741492E-29
   6.960000      4.4054495E-29
   6.970000      3.9853359E-29
   6.980000      3.5112763E-29
   6.990000      2.9807609E-29
   7.000000      2.3913142E-29
   7.010000      1.7405083E-29
   7.020000      1.0259770E-29
   7.030000      2.4543150E-30
   7.040000     -6.0332287E-30
   7.050000     -1.5223707E-29
   7.060000     -2.5136684E-29