  -2.600000      0.0000000E+00
  -2.590000      0.0000000E+00
  -2.580000      0.0000000E+00
  -2.570000      0.0000000E+00
  -2.560000      0.0000000E+00
  -2.550000      0.0000000E+00
  -2.540000      0.0000000E+00
  -2.530000      0.0000000E+00
  -2.520000      0.0000000E+00
  -2.510000      0.0000000E+00
  -2.500000      0.0000000E+00
  -2.490000      0.0000000E+00
  -2.480000      0.0000000E+00
  -2.470000      0.0000000E+00
  -2.460000      0.0000000E+00
  -2.450000      0.0000000E+00
  -2.440000      0.0000000E+00
  -2.430000      0.0000000E+00
  -2.420000      0.0000000E+00
  -2.410000      0.0000000E+00
  -2.400000      0.0000000E+00
  -2.390000      0.0000000E+00
  -2.380000      0.0000000E+00
  -2.370000      0.0000000E+00
  -2.360000      0.0000000E+00
  -2.350000      0.0000000E+00
  -2.340000      0.0000000E+00
  -2.330000      0.0000000E+00
  -2.320000      0.0000000E+00
  -2.310000      0.0000000E+00
  -2.300000      0.0000000E+00
  -2.290000      0.0000000E+00
  -2.280000      0.0000000E+00
  -2.270000      0.0000000E+00
  -2.260000      0.0000000E+00
  -2.250000      0.0000000E+00
  -2.240000      0.0000000E+00
  -2.230000      0.0000000E+00
  -2.220000      0.0000000E+00
  -2.210000      0.0000000E+00
  -2.200000      0.0000000E+00
  -2.190000      0.0000000E+00
  -2.180000      0.0000000E+00
  -2.170000      0.0000000E+00
  -2.160000      0.0000000E+00
  -2.150000      0.0000000E+00
  -2.140000      0.0000000E+00
  -2.130000      0.0000000E+00
  -2.120000      0.0000000E+00
  -2.110000      0.0000000E+00
  -2.100000      0.0000000E+00
  -2.090000      0.0000000E+00
  -2.080000      0.0000000E+00
  -2.070000      0.0000000E+00
  -2.060000      0.0000000E+00
  -2.050000      0.0000000E+00
  -2.040000      0.0000000E+00
  -2.030000      0.0000000E+00
  -2.020000      0.0000000E+00
  -2.010000      0.0000000E+00
  -2.000000      0.0000000E+00
  -1.990000      0.0000000E+00
  -1.980000      0.0000000E+00
  -1.970000      0.0000000E+00
  -1.960000      0.0000000E+00
  -1.950000      0.0000000E+00
  -1.940000      0.0000000E+00
  -1.930000      0.0000000E+00
  -1.920000      0.0000000E+00
  -1.910000      0.0000000E+00
  -1.900000      0.0000000E+00
  -1.890000      0.0000000E+00
  -1.880000      0.0000000E+00
  -1.870000      0.0000000E+00
  -1.860000      0.0000000E+00
  -1.850000      0.0000000E+00
  -1.840000      0.0000000E+00
  -1.830000      0.0000000E+00
  -1.820000      0.0000000E+00
  -1.810000      0.0000000E+00
  -1.800000      0.0000000E+00
  -1.790000      0.0000000E+00
  -1.780000      0.0000000E+00
  -1.770000      0.0000000E+00
  -1.760000      0.0000000E+00
  -1.750000      0.0000000E+00
  -1.740000      0.0000000E+00
  -1.730000      0.0000000E+00
  -1.720000      0.0000000E+00
  -1.710000      0.0000000E+00
  -1.700000      0.0000000E+00
  -1.690000      0.0000000E+00
  -1.680000      0.0000000E+00
  -1.670000      0.0000000E+00
  -1.660000      0.0000000E+00
  -1.650000      0.0000000E+00
  -1.640000      0.0000000E+00
  -1.630000      0.0000000E+00
  -1.620000      0.0000000E+00
  -1.610000      0.0000000E+00
  -1.600000      0.0000000E+00
  -1.590000      0.0000000E+00
  -1.580000      0.0000000E+00
  -1.570000      0.0000000E+00
  -1.560000      0.0000000E+00
  -1.550000      0.0000000E+00
  -1.540000      0.0000000E+00
  -1.530000      0.0000000E+00
  -1.520000      0.0000000E+00
  -1.510000      0.0000000E+00
  -1.500000      0.0000000E+00
  -1.490000      0.0000000E+00
  -1.480000      0.0000000E+00
  -1.470000      0.0000000E+00
  -1.460000      0.0000000E+00
  -1.450000      0.0000000E+00
  -1.440000      0.0000000E+00
  -1.430000      0.0000000E+00
  -1.420000      0.0000000E+00
  -1.410000      0.0000000E+00
  -1.400000      0.0000000E+00
  -1.390000      0.0000000E+00
  -1.380000      0.0000000E+00
  -1.370000      0.0000000E+00
  -1.360000      0.0000000E+00
  -1.350000      0.0000000E+00
  -1.340000      0.0000000E+00
  -1.330000      0.0000000E+00
  -1.320000      0.0000000E+00
  -1.310000      0.0000000E+00
  -1.300000      0.0000000E+00
  -1.290000      0.0000000E+00
  -1.280000      0.0000000E+00
  -1.270000      0.0000000E+00
  -1.260000      0.0000000E+00
  -1.250000      0.0000000E+00
  -1.240000      0.0000000E+00
  -1.230000      0.0000000E+00
  -1.220000      0.0000000E+00
  -1.210000      0.0000000E+00
  -1.200000      0.0000000E+00
  -1.190000      0.0000000E+00
  -1.180000      0.0000000E+00
  -1.170000      0.0000000E+00
  -1.160000      0.0000000E+00
  -1.150000      0.0000000E+00
  -1.140000      0.0000000E+00
  -1.130000      0.0000000E+00
  -1.120000      0.0000000E+00
  -1.110000      0.0000000E+00
  -1.100000      0.0000000E+00
  -1.090000      0.0000000E+00
  -1.080000      0.0000000E+00
  -1.070000      0.0000000E+00
  -1.060000      0.0000000E+00
  -1.050000      0.0000000E+00
  -1.040000      0.0000000E+00
  -1.030000      0.0000000E+00
  -1.020000      0.0000000E+00
  -1.010000      0.0000000E+00
  -1.000000      0.0000000E+00
 -0.9900000      0.0000000E+00
 -0.9800000      0.0000000E+00
 -0.9700000      0.0000000E+00
 -0.9600000      0.0000000E+00
 -0.9500000      0.0000000E+00
 -0.9400000      0.0000000E+00
 -0.9300000      0.0000000E+00
 -0.9200000      0.0000000E+00
 -0.9100000      0.0000000E+00
 -0.9000000      0.0000000E+00
 -0.8900000      0.0000000E+00
 -0.8800000      0.0000000E+00
 -0.8700000      0.0000000E+00
 -0.8600000      0.0000000E+00
 -0.8500000      0.0000000E+00
 -0.8400000      0.0000000E+00
 -0.8300000      0.0000000E+00
 -0.8200000      0.0000000E+00
 -0.8100000      0.0000000E+00
 -0.8000000      0.0000000E+00
 -0.7900000      0.0000000E+00
 -0.7800000      0.0000000E+00
 -0.7700000      0.0000000E+00
 -0.7600000      0.0000000E+00
 -0.7500000      0.0000000E+00
 -0.7400000      0.0000000E+00
 -0.7300000      0.0000000E+00
 -0.7200000      0.0000000E+00
 -0.7100000      0.0000000E+00
 -0.7000000      0.0000000E+00
 -0.6900000      0.0000000E+00
 -0.6800000      0.0000000E+00
 -0.6700000      0.0000000E+00
 -0.6600000      0.0000000E+00
 -0.6500000      0.0000000E+00
 -0.6400000      0.0000000E+00
 -0.6300000      0.0000000E+00
 -0.6200000      0.0000000E+00
 -0.6100000      0.0000000E+00
 -0.6000000      0.0000000E+00
 -0.5900000      0.0000000E+00
 -0.5800000      0.0000000E+00
 -0.5700000      0.0000000E+00
 -0.5600000      0.0000000E+00
 -0.5500000      0.0000000E+00
 -0.5400000      0.0000000E+00
 -0.5300000      0.0000000E+00
 -0.5200000      0.0000000E+00
 -0.5100000      0.0000000E+00
 -0.5000000      0.0000000E+00
 -0.4900000      0.0000000E+00
 -0.4800000      0.0000000E+00
 -0.4700000      0.0000000E+00
 -0.4600000      0.0000000E+00
 -0.4500000      0.0000000E+00
 -0.4400000      0.0000000E+00
 -0.4300000      0.0000000E+00
 -0.4200000      0.0000000E+00
 -0.4100000      0.0000000E+00
 -0.4000000      0.0000000E+00
 -0.3900000      0.0000000E+00
 -0.3800000      0.0000000E+00
 -0.3700000      0.0000000E+00
 -0.3600000      0.0000000E+00
 -0.3500000      0.0000000E+00
 -0.3400000      0.0000000E+00
 -0.3300000      0.0000000E+00
 -0.3200000      0.0000000E+00
 -0.3100000      0.0000000E+00
 -0.3000000      0.0000000E+00
 -0.2900000      0.0000000E+00
 -0.2800000      0.0000000E+00
 -0.2700000      0.0000000E+00
 -0.2600000      0.0000000E+00
 -0.2500000      0.0000000E+00
 -0.2400000      0.0000000E+00
 -0.2300000      0.0000000E+00
 -0.2200000      0.0000000E+00
 -0.2100000      0.0000000E+00
 -0.2000000      0.0000000E+00
 -0.1900000      0.0000000E+00
 -0.1800000      0.0000000E+00
 -0.1700000      0.0000000E+00
 -0.1600000      0.0000000E+00
 -0.1500000      0.0000000E+00
 -0.1400000      0.0000000E+00
 -0.1300000      0.0000000E+00
 -0.1200000      0.0000000E+00
 -0.1100000      0.0000000E+00
 -0.1000000      0.0000000E+00
 -9.0000004E-02  0.0000000E+00
 -7.9999998E-02  0.0000000E+00
 -7.0000000E-02  0.0000000E+00
 -5.9999999E-02  0.0000000E+00
 -5.0000001E-02  0.0000000E+00
 -3.9999999E-02  0.0000000E+00
 -2.9999999E-02  0.0000000E+00
 -2.0000000E-02  0.0000000E+00
 -9.9999998E-03  0.0000000E+00
 -3.4694470E-17  0.0000000E+00
  9.9999998E-03  0.0000000E+00
  2.0000000E-02  0.0000000E+00
  2.9999999E-02  0.0000000E+00
  3.9999999E-02  0.0000000E+00
  5.0000001E-02  0.0000000E+00
  5.9999999E-02  0.0000000E+00
  7.0000000E-02  0.0000000E+00
  7.9999998E-02  0.0000000E+00
  9.0000004E-02  0.0000000E+00
  0.1000000      0.0000000E+00
  0.1100000      0.0000000E+00
  0.1200000      0.0000000E+00
  0.1300000      0.0000000E+00
  0.1400000      0.0000000E+00
  0.1500000      0.0000000E+00
  0.1600000      0.0000000E+00
  0.1700000      0.0000000E+00
  0.1800000      0.0000000E+00
  0.1900000      0.0000000E+00
  0.2000000      0.0000000E+00
  0.2100000      0.0000000E+00
  0.2200000      0.0000000E+00
  0.2300000      0.0000000E+00
  0.2400000      0.0000000E+00
  0.2500000      0.0000000E+00
  0.2600000      0.0000000E+00
  0.2700000      0.0000000E+00
  0.2800000      0.0000000E+00
  0.2900000      0.0000000E+00
  0.3000000      0.0000000E+00
  0.3100000      0.0000000E+00
  0.3200000      0.0000000E+00
  0.3300000      0.0000000E+00
  0.3400000      0.0000000E+00
  0.3500000      0.0000000E+00
  0.3600000      0.0000000E+00
  0.3700000      0.0000000E+00
  0.3800000      0.0000000E+00
  0.3900000      0.0000000E+00
  0.4000000      0.0000000E+00
  0.4100000      0.0000000E+00
  0.4200000      0.0000000E+00
  0.4300000      0.0000000E+00
  0.4400000      0.0000000E+00
  0.4500000      0.0000000E+00
  0.4600000      0.0000000E+00
  0.4700000      0.0000000E+00
  0.4800000      0.0000000E+00
  0.4900000      0.0000000E+00
  0.5000000      0.0000000E+00
  0.5100000      0.0000000E+00
  0.5200000      0.0000000E+00
  0.5300000      0.0000000E+00
  0.5400000      0.0000000E+00
  0.5500000      0.0000000E+00
  0.5600000      0.0000000E+00
  0.5700000      0.0000000E+00
  0.5800000      0.0000000E+00
  0.5900000      0.0000000E+00
  0.6000000      0.0000000E+00
  0.6100000      0.0000000E+00
  0.6200000      0.0000000E+00
  0.6300000      0.0000000E+00
  0.6400000      0.0000000E+00
  0.6500000      0.0000000E+00
  0.6600000      0.0000000E+00
  0.6700000      0.0000000E+00
  0.6800000      0.0000000E+00
  0.6900000      0.0000000E+00
  0.7000000      0.0000000E+00
  0.7100000      0.0000000E+00
  0.7200000      0.0000000E+00
  0.7300000      0.0000000E+00
  0.7400000      0.0000000E+00
  0.7500000      0.0000000E+00
  0.7600000      0.0000000E+00
  0.7700000      0.0000000E+00
  0.7800000      0.0000000E+00
  0.7900000      0.0000000E+00
  0.8000000      0.0000000E+00
  0.8100000      0.0000000E+00
  0.8200000      0.0000000E+00
  0.8300000      0.0000000E+00
  0.8400000      0.0000000E+00
  0.8500000      0.0000000E+00
  0.8600000      0.0000000E+00
  0.8700000      0.0000000E+00
  0.8800000      0.0000000E+00
  0.8900000      0.0000000E+00
  0.9000000      0.0000000E+00
  0.9100000      0.0000000E+00
  0.9200000      0.0000000E+00
  0.9300000      0.0000000E+00
  0.9400000      0.0000000E+00
  0.9500000      0.0000000E+00
  0.9600000      0.0000000E+00
  0.9700000      0.0000000E+00
  0.9800000      0.0000000E+00
  0.9900000      0.0000000E+00
   1.000000      0.0000000E+00
   1.010000      0.0000000E+00
   1.020000      0.0000000E+00
   1.030000      0.0000000E+00
   1.040000      0.0000000E+00
   1.050000      0.0000000E+00
   1.060000      0.0000000E+00
   1.070000      0.0000000E+00
   1.080000      0.0000000E+00
   1.090000      0.0000000E+00
   1.100000      0.0000000E+00
   1.110000      0.0000000E+00
   1.120000      0.0000000E+00
   1.130000      0.0000000E+00
   1.140000      0.0000000E+00
   1.150000      0.0000000E+00
   1.160000      0.0000000E+00
   1.170000      0.0000000E+00
   1.180000      0.0000000E+00
   1.190000      0.0000000E+00
   1.200000      0.0000000E+00
   1.210000      0.0000000E+00
   1.220000      0.0000000E+00
   1.230000      0.0000000E+00
   1.240000      0.0000000E+00
   1.250000      0.0000000E+00
   1.260000      0.0000000E+00
   1.270000      0.0000000E+00
   1.280000      0.0000000E+00
   1.290000      0.0000000E+00
   1.300000      0.0000000E+00
   1.310000      0.0000000E+00
   1.320000      0.0000000E+00
   1.330000      0.0000000E+00
   1.340000      0.0000000E+00
   1.350000      0.0000000E+00
   1.360000      0.0000000E+00
   1.370000      0.0000000E+00
   1.380000      0.0000000E+00
   1.390000      0.0000000E+00
   1.400000      0.0000000E+00
   1.410000      0.0000000E+00
   1.420000      0.0000000E+00
   1.430000      0.0000000E+00
   1.440000      0.0000000E+00
   1.450000      0.0000000E+00
   1.460000      0.0000000E+00
   1.470000      0.0000000E+00
   1.480000      0.0000000E+00
   1.490000      0.0000000E+00
   1.500000      0.0000000E+00
   1.510000      0.0000000E+00
   1.520000      0.0000000E+00
   1.530000      0.0000000E+00
   1.540000      0.0000000E+00
   1.550000      0.0000000E+00
   1.560000      0.0000000E+00
   1.570000      0.0000000E+00
   1.580000      0.0000000E+00
   1.590000      0.0000000E+00
   1.600000      0.0000000E+00
   1.610000      0.0000000E+00
   1.620000      0.0000000E+00
   1.630000      0.0000000E+00
   1.640000      0.0000000E+00
   1.650000      0.0000000E+00
   1.660000      0.0000000E+00
   1.670000      0.0000000E+00
   1.680000      0.0000000E+00
   1.690000      0.0000000E+00
   1.700000      0.0000000E+00
   1.710000      0.0000000E+00
   1.720000      0.0000000E+00
   1.730000      0.0000000E+00
   1.740000      0.0000000E+00
   1.750000      0.0000000E+00
   1.760000      0.0000000E+00
   1.770000      0.0000000E+00
   1.780000      0.0000000E+00
   1.790000      0.0000000E+00
   1.800000      0.0000000E+00
   1.810000      0.0000000E+00
   1.820000      0.0000000E+00
   1.830000      0.0000000E+00
   1.840000      0.0000000E+00
   1.850000      0.0000000E+00
   1.860000      0.0000000E+00
   1.870000      0.0000000E+00
   1.880000      0.0000000E+00
   1.890000      0.0000000E+00
   1.900000      0.0000000E+00
   1.910000      0.0000000E+00
   1.920000      0.0000000E+00
   1.930000      0.0000000E+00
   1.940000      0.0000000E+00
   1.950000      0.0000000E+00
   1.960000      0.0000000E+00
   1.970000      0.0000000E+00
   1.980000      0.0000000E+00
   1.990000      0.0000000E+00
   2.000000      0.0000000E+00
   2.010000      0.0000000E+00
   2.020000      0.0000000E+00
   2.030000      0.0000000E+00
   2.040000      0.0000000E+00
   2.050000      0.0000000E+00
   2.060000      0.0000000E+00
   2.070000      0.0000000E+00
   2.080000      0.0000000E+00
   2.090000      0.0000000E+00
   2.100000      0.0000000E+00
   2.110000      0.0000000E+00
   2.120000      0.0000000E+00
   2.130000      0.0000000E+00
   2.140000      0.0000000E+00
   2.150000      0.0000000E+00
   2.160000      0.0000000E+00
   2.170000      0.0000000E+00
   2.180000      0.0000000E+00
   2.190000      0.0000000E+00
   2.200000      0.0000000E+00
   2.210000      0.0000000E+00
   2.220000      0.0000000E+00
   2.230000      0.0000000E+00
   2.240000      0.0000000E+00
   2.250000      0.0000000E+00
   2.260000      0.0000000E+00
   2.270000      0.0000000E+00
   2.280000      0.0000000E+00
   2.290000      0.0000000E+00
   2.300000      0.0000000E+00
   2.310000      0.0000000E+00
   2.320000      0.0000000E+00
   2.330000      0.0000000E+00
   2.340000      0.0000000E+00
   2.350000      0.0000000E+00
   2.360000      0.0000000E+00
   2.370000      0.0000000E+00
   2.380000      0.0000000E+00
   2.390000      0.0000000E+00
   2.400000      0.0000000E+00
   2.410000      0.0000000E+00
   2.420000      0.0000000E+00
   2.430000      0.0000000E+00
   2.440000      0.0000000E+00
   2.450000      0.0000000E+00
   2.460000     -1.2019521E-38
   2.470000     -1.2798582E-38
   2.480000     -1.3596767E-38
   2.490000     -1.4429343E-38
   2.500000     -1.5309358E-38
   2.510000     -1.6247505E-38
   2.520000     -1.7250400E-38
   2.530000     -1.8320897E-38
   2.540000     -1.9457332E-38
   2.550000     -2.0705971E-38
   2.560000     -2.2042914E-38
   2.570000     -2.3368729E-38
   2.580000     -2.4672382E-38
   2.590000     -2.5966175E-38
   2.600000     -2.7241441E-38
   2.610000     -2.8415160E-38
   2.620000     -2.9603963E-38
   2.630000     -3.0676447E-38
   2.640000     -3.1479055E-38
   2.650000     -3.2187593E-38
   2.660000     -3.2841876E-38
   2.670000     -3.3407863E-38
   2.680000     -3.4016893E-38
   2.690000     -3.4752109E-38
   2.700000     -3.5378445E-38
   2.710000     -3.5780752E-38
   2.720000     -3.6018314E-38
   2.730000     -3.6534275E-38
   2.740000     -3.7933023E-38
   2.750000     -3.9359063E-38
   2.760000     -4.0284228E-38
   2.770000     -4.0751603E-38
   2.780000     -4.0733089E-38
   2.790000     -4.1249314E-38
   2.800000     -4.2642600E-38
   2.810000     -4.4883556E-38
   2.820000     -4.6465754E-38
   2.830000     -4.6822816E-38
   2.840000     -4.7075394E-38
   2.850000     -4.7494691E-38
   2.860000     -4.8340318E-38
   2.870000     -4.8894846E-38
   2.880000     -4.8591633E-38
   2.890000     -4.8207700E-38
   2.900000     -4.9042604E-38
   2.910000     -5.0488784E-38
   2.920000     -5.0308554E-38
   2.930000     -4.8799238E-38
   2.940000     -4.7654209E-38
   2.950000     -4.9242940E-38
   2.960000     -5.3443416E-38
   2.970000     -5.9825506E-38
   2.980000     -6.8641580E-38
   2.990000     -8.0844888E-38
   3.000000     -9.6405556E-38
   3.010000     -1.1140384E-37
   3.020000     -1.2408952E-37
   3.030000     -1.4174430E-37
   3.040000     -1.6811823E-37
   3.050000     -2.0414129E-37
   3.060000     -2.5144274E-37
   3.070000     -3.0540657E-37
   3.080000     -3.6416812E-37
   3.090000     -4.2743267E-37
   3.100000     -4.8655136E-37
   3.110000     -5.3720738E-37
   3.120000     -5.8379533E-37
   3.130000     -6.2329366E-37
   3.140000     -6.5793366E-37
   3.150000     -6.9248901E-37
   3.160000     -7.2572875E-37
   3.170000     -7.5483998E-37
   3.180000     -7.7873057E-37
   3.190000     -7.9430987E-37
   3.200000     -8.0342696E-37
   3.210000     -8.1694319E-37
   3.220000     -8.2714536E-37
   3.230000     -8.3196314E-37
   3.240000     -8.3404253E-37
   3.250000     -8.1487994E-37
   3.260000     -7.8204319E-37
   3.270000     -7.4515088E-37
   3.280000     -6.9070674E-37
   3.290000     -6.2230015E-37
   3.300000     -5.4346157E-37
   3.310000     -4.5858571E-37
   3.320000     -3.6754693E-37
   3.330000     -2.3113968E-37
   3.340000     -4.6338732E-38
   3.350000      1.8934125E-37
   3.360000      4.9404681E-37
   3.370000      8.5553993E-37
   3.380000      1.2563781E-36
   3.390000      1.6852757E-36
   3.400000      2.1453229E-36
   3.410000      2.6211625E-36
   3.420000      3.1441844E-36
   3.430000      3.6901113E-36
   3.440000      4.2376697E-36
   3.450000      4.8418899E-36
   3.460000      5.4622928E-36
   3.470000      6.1011185E-36
   3.480000      6.7952628E-36
   3.490000      7.5005831E-36
   3.500000      8.2081548E-36
   3.510000      8.9647264E-36
   3.520000      9.7435754E-36
   3.530000      1.0505893E-35
   3.540000      1.1263705E-35
   3.550000      1.1968549E-35
   3.560000      1.2634740E-35
   3.570000      1.3315297E-35
   3.580000      1.4009363E-35
   3.590000      1.4784830E-35
   3.600000      1.5624409E-35
   3.610000      1.6404289E-35
   3.620000      1.7102959E-35
   3.630000      1.7740184E-35
   3.640000      1.8370074E-35
   3.650000      1.9007617E-35
   3.660000      1.9660556E-35
   3.670000      2.0098758E-35
   3.680000      2.0186781E-35
   3.690000      2.0058917E-35
   3.700000      1.9682791E-35
   3.710000      1.9184775E-35
   3.720000      1.8557072E-35
   3.730000      1.7665244E-35
   3.740000      1.6246724E-35
   3.750000      1.4306586E-35
   3.760000      1.2382633E-35
   3.770000      1.0422367E-35
   3.780000      8.1912764E-36
   3.790000      5.7248164E-36
   3.800000      3.1411783E-36
   3.810000      5.5190940E-37
   3.820000     -2.3049597E-36
   3.830000     -5.6078054E-36
   3.840000     -9.2243375E-36
   3.850000     -1.3019604E-35
   3.860000     -1.6913728E-35
   3.870000     -2.1193232E-35
   3.880000     -2.5852536E-35
   3.890000     -3.0625433E-35
   3.900000     -3.5508275E-35
   3.910000     -4.0493903E-35
   3.920000     -4.5692522E-35
   3.930000     -5.1130652E-35
   3.940000     -5.6807452E-35
   3.950000     -6.2853097E-35
   3.960000     -6.9220931E-35
   3.970000     -7.5939036E-35
   3.980000     -8.3121829E-35
   3.990000     -9.0508135E-35
   4.000000     -9.8029812E-35
   4.010000     -1.0548271E-34
   4.020000     -1.1263420E-34
   4.030000     -1.1971057E-34
   4.040000     -1.2678767E-34
   4.050000     -1.3388804E-34
   4.060000     -1.4057492E-34
   4.070000     -1.4657326E-34
   4.080000     -1.5186369E-34
   4.090000     -1.5614985E-34
   4.100000     -1.5920273E-34
   4.110000     -1.6105518E-34
   4.120000     -1.6189824E-34
   4.130000     -1.6183156E-34
   4.140000     -1.6029089E-34
   4.150000     -1.5734115E-34
   4.160000     -1.5301892E-34
   4.170000     -1.4690461E-34
   4.180000     -1.3943686E-34
   4.190000     -1.3015487E-34
   4.200000     -1.1840596E-34
   4.210000     -1.0446391E-34
   4.220000     -8.9249277E-35
   4.230000     -7.3235996E-35
   4.240000     -5.5283362E-35
   4.250000     -3.5209680E-35
   4.260000     -1.4402524E-35
   4.270000      7.6225571E-36
   4.280000      3.1751351E-35
   4.290000      5.6506622E-35
   4.300000      8.2085207E-35
   4.310000      1.1004222E-34
   4.320000      1.3965651E-34
   4.330000      1.7085484E-34
   4.340000      2.0494664E-34
   4.350000      2.4186441E-34
   4.360000      2.8102964E-34
   4.370000      3.2173760E-34
   4.380000      3.6387754E-34
   4.390000      4.0724143E-34
   4.400000      4.5201569E-34
   4.410000      4.9907564E-34
   4.420000      5.4656033E-34
   4.430000      5.9535813E-34
   4.440000      6.4677701E-34
   4.450000      6.9994076E-34
   4.460000      7.5111215E-34
   4.470000      7.9847336E-34
   4.480000      8.4325226E-34
   4.490000      8.8651541E-34
   4.500000      9.3028605E-34
   4.510000      9.7450860E-34
   4.520000      1.0160963E-33
   4.530000      1.0530224E-33
   4.540000      1.0863273E-33
   4.550000      1.1131469E-33
   4.560000      1.1298301E-33
   4.570000      1.1381196E-33
   4.580000      1.1403361E-33
   4.590000      1.1340366E-33
   4.600000      1.1179372E-33
   4.610000      1.0927166E-33
   4.620000      1.0582432E-33
   4.630000      1.0131859E-33
   4.640000      9.5689657E-34
   4.650000      8.8923448E-34
   4.660000      8.0979448E-34
   4.670000      7.1847358E-34
   4.680000      6.1699122E-34
   4.690000      5.0529396E-34
   4.700000      3.7912117E-34
   4.710000      2.3867056E-34
   4.720000      8.2944127E-35
   4.730000     -8.7955378E-35
   4.740000     -2.7469886E-34
   4.750000     -4.7851524E-34
   4.760000     -6.9802131E-34
   4.770000     -9.3447126E-34
   4.780000     -1.1903584E-33
   4.790000     -1.4667636E-33
   4.800000     -1.7644991E-33
   4.810000     -2.0776943E-33
   4.820000     -2.4051064E-33
   4.830000     -2.7523179E-33
   4.840000     -3.1131903E-33
   4.850000     -3.4875143E-33
   4.860000     -3.8776572E-33
   4.870000     -4.2791620E-33
   4.880000     -4.6883773E-33
   4.890000     -5.1040791E-33
   4.900000     -5.5278298E-33
   4.910000     -5.9577397E-33
   4.920000     -6.3893657E-33
   4.930000     -6.8188245E-33
   4.940000     -7.2423728E-33
   4.950000     -7.6570100E-33
   4.960000     -8.0590247E-33
   4.970000     -8.4442856E-33
   4.980000     -8.8091223E-33
   4.990000     -9.1501333E-33
   5.000000     -9.4591149E-33
   5.010000     -9.7311008E-33
   5.020000     -9.9680679E-33
   5.030000     -1.0161463E-32
   5.040000     -1.0301740E-32
   5.050000     -1.0386271E-32
   5.060000     -1.0409515E-32
   5.070000     -1.0365417E-32
   5.080000     -1.0245822E-32
   5.090000     -1.0047199E-32
   5.100000     -9.7639147E-33
   5.110000     -9.3887410E-33
   5.120000     -8.9161856E-33
   5.130000     -8.3368521E-33
   5.140000     -7.6453065E-33
   5.150000     -6.8357201E-33
   5.160000     -5.9009412E-33
   5.170000     -4.8353027E-33
   5.180000     -3.6326952E-33
   5.190000     -2.2866361E-33
   5.200000     -7.9098289E-34
   5.210000      8.5914136E-34
   5.220000      2.6676825E-33
   5.230000      4.6401335E-33
   5.240000      6.7807804E-33
   5.250000      9.0919022E-33
   5.260000      1.1575871E-32
   5.270000      1.4233872E-32
   5.280000      1.7066066E-32
   5.290000      2.0071515E-32
   5.300000      2.3247861E-32
   5.310000      2.6591681E-32
   5.320000      3.0098160E-32
   5.330000      3.3760991E-32
   5.340000      3.7571847E-32
   5.350000      4.1520797E-32
   5.360000      4.5596491E-32
   5.370000      4.9785501E-32
   5.380000      5.4072552E-32
   5.390000      5.8440313E-32
   5.400000      6.2869270E-32
   5.410000      6.7337777E-32
   5.420000      7.1821870E-32
   5.430000      7.6295261E-32
   5.440000      8.0729214E-32
   5.450000      8.5092508E-32
   5.460000      8.9351289E-32
   5.470000      9.3469257E-32
   5.480000      9.7406511E-32
   5.490000      1.0112234E-31
   5.500000      1.0457349E-31
   5.510000      1.0771162E-31
   5.520000      1.1048708E-31
   5.530000      1.1284781E-31
   5.540000      1.1473868E-31
   5.550000      1.1610192E-31
   5.560000      1.1687744E-31
   5.570000      1.1700237E-31
   5.580000      1.1641192E-31
   5.590000      1.1503943E-31
   5.600000      1.1281566E-31
   5.610000      1.0966944E-31
   5.620000      1.0552875E-31
   5.630000      1.0032036E-31
   5.640000      9.3969218E-32
   5.650000      8.6400063E-32
   5.660000      7.7537429E-32
   5.670000      6.7306015E-32
   5.680000      5.5631087E-32
   5.690000      4.2439049E-32
   5.700000      2.7657927E-32
   5.710000      1.1217940E-32
   5.720000     -6.9479173E-33
   5.730000     -2.6903248E-32
   5.740000     -4.8707602E-32
   5.750000     -7.2415777E-32
   5.760000     -9.8077148E-32
   5.770000     -1.2573483E-31
   5.780000     -1.5542489E-31
   5.790000     -1.8717562E-31
   5.800000     -2.2100657E-31
   5.810000     -2.5692761E-31
   5.820000     -2.9493819E-31
   5.830000     -3.3502605E-31
   5.840000     -3.7716653E-31
   5.850000     -4.2132158E-31
   5.860000     -4.6743834E-31
   5.870000     -5.1544825E-31
   5.880000     -5.6526632E-31
   5.890000     -6.1678955E-31
   5.900000     -6.6989622E-31
   5.910000     -7.2444471E-31
   5.920000     -7.8027199E-31
   5.930000     -8.3719281E-31
   5.940000     -8.9499921E-31
   5.950000     -9.5345851E-31
   5.960000     -1.0123131E-30
   5.970000     -1.0712789E-30
   5.980000     -1.1300446E-30
   5.990000     -1.1882708E-30
   6.000000     -1.2455894E-30
   6.010000     -1.3016023E-30
   6.020000     -1.3558814E-30
   6.030000     -1.4079675E-30
   6.040000     -1.4573702E-30
   6.050000     -1.5035672E-30
   6.060000     -1.5460046E-30
   6.070000     -1.5840962E-30
   6.080000     -1.6172244E-30
   6.090000     -1.6447398E-30
   6.100000     -1.6659618E-30
   6.110000     -1.6801790E-30
   6.120000     -1.6866512E-30
   6.130000     -1.6846092E-30
   6.140000     -1.6732564E-30
   6.150000     -1.6517706E-30
   6.160000     -1.6193057E-30
   6.170000     -1.5749934E-30
   6.180000     -1.5179463E-30
   6.190000     -1.4472596E-30
   6.200000     -1.3620150E-30
   6.210000     -1.2612836E-30
   6.220000     -1.1441293E-30
   6.230000     -1.0096126E-30
   6.240000     -8.5679573E-31
   6.250000     -6.8474681E-31
   6.260000     -4.9254469E-31
   6.270000     -2.7928521E-31
   6.280000     -4.4086639E-32
   6.290000      2.1390414E-31
   6.300000      4.9550463E-31
   6.310000      8.0149042E-31
   6.320000      1.1325863E-30
   6.330000      1.4894593E-30
   6.340000      1.8727103E-30
   6.350000      2.2828653E-30
   6.360000      2.7203657E-30
   6.370000      3.1855592E-30
   6.380000      3.6786902E-30
   6.390000      4.1998886E-30
   6.400000      4.7491608E-30
   6.410000      5.3263759E-30
   6.420000      5.9312575E-30
   6.430000      6.5633699E-30
   6.440000      7.2221086E-30
   6.450000      7.9066850E-30
   6.460000      8.6161171E-30
   6.470000      9.3492148E-30
   6.480000      1.0104571E-29
   6.490000      1.0880544E-29
   6.500000      1.1675251E-29
   6.510000      1.2486546E-29
   6.520000      1.3312023E-29
   6.530000      1.4148989E-29
   6.540000      1.4994458E-29
   6.550000      1.5845140E-29
   6.560000      1.6697430E-29
   6.570000      1.7547399E-29
   6.580000      1.8390776E-29
   6.590000      1.9222948E-29
   6.600000      2.0038946E-29
   6.610000      2.0833440E-29
   6.620000      2.1600732E-29
   6.630000      2.2334748E-29
   6.640000      2.3029035E-29
   6.650000      2.3676760E-29
   6.660000      2.4270705E-29
   6.670000      2.4803268E-29
   6.680000      2.5266468E-29
   6.690000      2.5651945E-29
   6.700000      2.5950967E-29
   6.710000      2.6154436E-29
   6.720000      2.6252899E-29
   6.730000      2.6236564E-29
   6.740000      2.6095310E-29
   6.750000      2.5818701E-29
   6.760000      2.5396019E-29
   6.770000      2.4816281E-29
   6.780000      2.4068256E-29
   6.790000      2.3140513E-29
   6.800000      2.2021441E-29
   6.810000      2.0699289E-29
   6.820000      1.9162210E-29
   6.830000      1.7398299E-29
   6.840000      1.5395649E-29
   6.850000      1.3142395E-29
   6.860000      1.0626780E-29
   6.870000      7.8372093E-30
   6.880000      4.7623113E-30
   6.890000      1.3910179E-30
   6.900000     -2.2873704E-30
   6.910000     -6.2831042E-30
   6.920000     -1.0605904E-29
   6.930000     -1.5264867E-29
   6.940000     -2.0268383E-29
   6.950000     -2.5624031E-29
   6.960000     -3.1338491E-29
   6.970000     -3.7417424E-29
   6.980000     -4.3865381E-29
   6.990000     -5.0685667E-29
   7.000000     -5.7880249E-29
   7.010000     -6.5449612E-29
   7.020000     -7.3392646E-29
   7.030000     -8.1706537E-29
   7.040000     -9.0386601E-29
   7.050000     -9.9426163E-29
   7.060000     -1.0881644E-28