  -2.600000      0.0000000E+00
  -2.590000      0.0000000E+00
  -2.580000      0.0000000E+00
  -2.570000      0.0000000E+00
  -2.560000      0.0000000E+00
  -2.550000      0.0000000E+00
  -2.540000      0.0000000E+00
  -2.530000      0.0000000E+00
  -2.520000      0.0000000E+00
  -2.510000      0.0000000E+00
  -2.500000      0.0000000E+00
  -2.490000      0.0000000E+00
  -2.480000      0.0000000E+00
  -2.470000      0.0000000E+00
  -2.460000      0.0000000E+00
  -2.450000      0.0000000E+00
  -2.440000      0.0000000E+00
  -2.430000      0.0000000E+00
  -2.420000      0.0000000E+00
  -2.410000      0.0000000E+00
  -2.400000      0.0000000E+00
  -2.390000      0.0000000E+00
  -2.380000      0.0000000E+00
  -2.370000      0.0000000E+00
  -2.360000      0.0000000E+00
  -2.350000      0.0000000E+00
  -2.340000      0.0000000E+00
  -2.330000      0.0000000E+00
  -2.320000      0.0000000E+00
  -2.310000      0.0000000E+00
  -2.300000      0.0000000E+00
  -2.290000      0.0000000E+00
  -2.280000      0.0000000E+00
  -2.270000      0.0000000E+00
  -2.260000      0.0000000E+00
  -2.250000      0.0000000E+00
  -2.240000      0.0000000E+00
  -2.230000      0.0000000E+00
  -2.220000      0.0000000E+00
  -2.210000      0.0000000E+00
  -2.200000      0.0000000E+00
  -2.190000      0.0000000E+00
  -2.180000      0.0000000E+00
  -2.170000      0.0000000E+00
  -2.160000      0.0000000E+00
  -2.150000      0.0000000E+00
  -2.140000      0.0000000E+00
  -2.130000      0.0000000E+00
  -2.120000      0.0000000E+00
  -2.110000      0.0000000E+00
  -2.100000      0.0000000E+00
  -2.090000      0.0000000E+00
  -2.080000      0.0000000E+00
  -2.070000      0.0000000E+00
  -2.060000      0.0000000E+00
  -2.050000      0.0000000E+00
  -2.040000      0.0000000E+00
  -2.030000      0.0000000E+00
  -2.020000      0.0000000E+00
  -2.010000      0.0000000E+00
  -2.000000      0.0000000E+00
  -1.990000      0.0000000E+00
  -1.980000      0.0000000E+00
  -1.970000      0.0000000E+00
  -1.960000      0.0000000E+00
  -1.950000      0.0000000E+00
  -1.940000      0.0000000E+00
  -1.930000      0.0000000E+00
  -1.920000      0.0000000E+00
  -1.910000      0.0000000E+00
  -1.900000      0.0000000E+00
  -1.890000      0.0000000E+00
  -1.880000      0.0000000E+00
  -1.870000      0.0000000E+00
  -1.860000      0.0000000E+00
  -1.850000      0.0000000E+00
  -1.840000      0.0000000E+00
  -1.830000      0.0000000E+00
  -1.820000      0.0000000E+00
  -1.810000      0.0000000E+00
  -1.800000      0.0000000E+00
  -1.790000      0.0000000E+00
  -1.780000      0.0000000E+00
  -1.770000      0.0000000E+00
  -1.760000      0.0000000E+00
  -1.750000      0.0000000E+00
  -1.740000      0.0000000E+00
  -1.730000      0.0000000E+00
  -1.720000      0.0000000E+00
  -1.710000      0.0000000E+00
  -1.700000      0.0000000E+00
  -1.690000      0.0000000E+00
  -1.680000      0.0000000E+00
  -1.670000      0.0000000E+00
  -1.660000      0.0000000E+00
  -1.650000      0.0000000E+00
  -1.640000      0.0000000E+00
  -1.630000      0.0000000E+00
  -1.620000      0.0000000E+00
  -1.610000      0.0000000E+00
  -1.600000      0.0000000E+00
  -1.590000      0.0000000E+00
  -1.580000      0.0000000E+00
  -1.570000      0.0000000E+00
  -1.560000      0.0000000E+00
  -1.550000      0.0000000E+00
  -1.540000      0.0000000E+00
  -1.530000      0.0000000E+00
  -1.520000      0.0000000E+00
  -1.510000      0.0000000E+00
  -1.500000      0.0000000E+00
  -1.490000      0.0000000E+00
  -1.480000      0.0000000E+00
  -1.470000      0.0000000E+00
  -1.460000      0.0000000E+00
  -1.450000      0.0000000E+00
  -1.440000      0.0000000E+00
  -1.430000      0.0000000E+00
  -1.420000      0.0000000E+00
  -1.410000      0.0000000E+00
  -1.400000      0.0000000E+00
  -1.390000      0.0000000E+00
  -1.380000      0.0000000E+00
  -1.370000      0.0000000E+00
  -1.360000      0.0000000E+00
  -1.350000      0.0000000E+00
  -1.340000      0.0000000E+00
  -1.330000      0.0000000E+00
  -1.320000      0.0000000E+00
  -1.310000      0.0000000E+00
  -1.300000      0.0000000E+00
  -1.290000      0.0000000E+00
  -1.280000      0.0000000E+00
  -1.270000      0.0000000E+00
  -1.260000      0.0000000E+00
  -1.250000      0.0000000E+00
  -1.240000      0.0000000E+00
  -1.230000      0.0000000E+00
  -1.220000      0.0000000E+00
  -1.210000      0.0000000E+00
  -1.200000      0.0000000E+00
  -1.190000      0.0000000E+00
  -1.180000      0.0000000E+00
  -1.170000      0.0000000E+00
  -1.160000      0.0000000E+00
  -1.150000      0.0000000E+00
  -1.140000      0.0000000E+00
  -1.130000      0.0000000E+00
  -1.120000      0.0000000E+00
  -1.110000      0.0000000E+00
  -1.100000      0.0000000E+00
  -1.090000      0.0000000E+00
  -1.080000      0.0000000E+00
  -1.070000      0.0000000E+00
  -1.060000      0.0000000E+00
  -1.050000      0.0000000E+00
  -1.040000      0.0000000E+00
  -1.030000      0.0000000E+00
  -1.020000      0.0000000E+00
  -1.010000      0.0000000E+00
  -1.000000      0.0000000E+00
 -0.9900000      0.0000000E+00
 -0.9800000      0.0000000E+00
 -0.9700000      0.0000000E+00
 -0.9600000      0.0000000E+00
 -0.9500000      0.0000000E+00
 -0.9400000      0.0000000E+00
 -0.9300000      0.0000000E+00
 -0.9200000      0.0000000E+00
 -0.9100000      0.0000000E+00
 -0.9000000      0.0000000E+00
 -0.8900000      0.0000000E+00
 -0.8800000      0.0000000E+00
 -0.8700000      0.0000000E+00
 -0.8600000      0.0000000E+00
 -0.8500000      0.0000000E+00
 -0.8400000      0.0000000E+00
 -0.8300000      0.0000000E+00
 -0.8200000      0.0000000E+00
 -0.8100000      0.0000000E+00
 -0.8000000      0.0000000E+00
 -0.7900000      0.0000000E+00
 -0.7800000      0.0000000E+00
 -0.7700000      0.0000000E+00
 -0.7600000      0.0000000E+00
 -0.7500000      0.0000000E+00
 -0.7400000      0.0000000E+00
 -0.7300000      0.0000000E+00
 -0.7200000      0.0000000E+00
 -0.7100000      0.0000000E+00
 -0.7000000      0.0000000E+00
 -0.6900000      0.0000000E+00
 -0.6800000      0.0000000E+00
 -0.6700000      0.0000000E+00
 -0.6600000      0.0000000E+00
 -0.6500000      0.0000000E+00
 -0.6400000      0.0000000E+00
 -0.6300000      0.0000000E+00
 -0.6200000      0.0000000E+00
 -0.6100000      0.0000000E+00
 -0.6000000      0.0000000E+00
 -0.5900000      0.0000000E+00
 -0.5800000      0.0000000E+00
 -0.5700000      0.0000000E+00
 -0.5600000      0.0000000E+00
 -0.5500000      0.0000000E+00
 -0.5400000      0.0000000E+00
 -0.5300000      0.0000000E+00
 -0.5200000      0.0000000E+00
 -0.5100000      0.0000000E+00
 -0.5000000      0.0000000E+00
 -0.4900000      0.0000000E+00
 -0.4800000      0.0000000E+00
 -0.4700000      0.0000000E+00
 -0.4600000      0.0000000E+00
 -0.4500000      0.0000000E+00
 -0.4400000      0.0000000E+00
 -0.4300000      0.0000000E+00
 -0.4200000      0.0000000E+00
 -0.4100000      0.0000000E+00
 -0.4000000      0.0000000E+00
 -0.3900000      0.0000000E+00
 -0.3800000      0.0000000E+00
 -0.3700000      0.0000000E+00
 -0.3600000      0.0000000E+00
 -0.3500000      0.0000000E+00
 -0.3400000      0.0000000E+00
 -0.3300000      0.0000000E+00
 -0.3200000      0.0000000E+00
 -0.3100000      0.0000000E+00
 -0.3000000      0.0000000E+00
 -0.2900000      0.0000000E+00
 -0.2800000      0.0000000E+00
 -0.2700000      0.0000000E+00
 -0.2600000      0.0000000E+00
 -0.2500000      0.0000000E+00
 -0.2400000      0.0000000E+00
 -0.2300000      0.0000000E+00
 -0.2200000      0.0000000E+00
 -0.2100000      0.0000000E+00
 -0.2000000      0.0000000E+00
 -0.1900000      0.0000000E+00
 -0.1800000      0.0000000E+00
 -0.1700000      0.0000000E+00
 -0.1600000      0.0000000E+00
 -0.1500000      0.0000000E+00
 -0.1400000      0.0000000E+00
 -0.1300000      0.0000000E+00
 -0.1200000      1.2267300E-38
 -0.1100000      1.2961024E-38
 -0.1000000      0.0000000E+00
 -9.0000004E-02  0.0000000E+00
 -7.9999998E-02 -2.0877206E-38
 -7.0000000E-02 -3.7640687E-38
 -5.9999999E-02 -4.8981099E-38
 -5.0000001E-02 -5.3942839E-38
 -3.9999999E-02 -4.8443785E-38
 -2.9999999E-02 -3.1104902E-38
 -2.0000000E-02  0.0000000E+00
 -9.9999998E-03  3.6771565E-38
 -3.4694470E-17  7.8358850E-38
  9.9999998E-03  1.1968230E-37
  2.0000000E-02  1.5613197E-37
  2.9999999E-02  1.8123960E-37
  3.9999999E-02  2.0000724E-37
  5.0000001E-02  1.8378155E-37
  5.9999999E-02  1.0645788E-37
  7.0000000E-02  3.3491591E-38
  7.9999998E-02 -2.1173711E-38
  9.0000004E-02 -6.5886744E-38
  0.1000000     -6.8369190E-38
  0.1100000     -6.8118996E-38
  0.1200000     -7.9704001E-38
  0.1300000     -5.9568609E-38
  0.1400000     -1.9252922E-38
  0.1500000      2.0466850E-37
  0.1600000      6.1837041E-37
  0.1700000      7.6037872E-37
  0.1800000      3.1978483E-37
  0.1900000     -2.2591521E-37
  0.2000000     -5.8168442E-37
  0.2100000     -1.1718196E-36
  0.2200000     -1.9622603E-36
  0.2300000     -2.6874758E-36
  0.2400000     -3.1089548E-36
  0.2500000     -3.3227632E-36
  0.2600000     -3.3559320E-36
  0.2700000     -3.0861674E-36
  0.2800000     -2.0607426E-36
  0.2900000     -1.5766052E-37
  0.3000000      2.6346192E-36
  0.3100000      6.5747665E-36
  0.3200000      1.0253432E-35
  0.3300000      1.3607077E-35
  0.3400000      1.7726106E-35
  0.3500000      2.2391730E-35
  0.3600000      2.7570890E-35
  0.3700000      3.4508554E-35
  0.3800000      4.3486860E-35
  0.3900000      5.2837524E-35
  0.4000000      6.4119153E-35
  0.4100000      7.9400867E-35
  0.4200000      9.8604059E-35
  0.4300000      1.2086563E-34
  0.4400000      1.4490715E-34
  0.4500000      1.7061930E-34
  0.4600000      1.9993407E-34
  0.4700000      2.3401246E-34
  0.4800000      2.7952546E-34
  0.4900000      3.3400189E-34
  0.5000000      3.9038103E-34
  0.5100000      4.5276603E-34
  0.5200000      4.9645796E-34
  0.5300000      5.1500263E-34
  0.5400000      5.2474766E-34
  0.5500000      5.2643830E-34
  0.5600000      5.3576755E-34
  0.5700000      5.5263066E-34
  0.5800000      5.6781942E-34
  0.5900000      6.0253471E-34
  0.6000000      6.6550920E-34
  0.6100000      7.5622458E-34
  0.6200000      8.6916227E-34
  0.6300000      9.8651977E-34
  0.6400000      1.1016816E-33
  0.6500000      1.2058325E-33
  0.6600000      1.2994101E-33
  0.6700000      1.3841257E-33
  0.6800000      1.4561198E-33
  0.6900000      1.5138758E-33
  0.7000000      1.5491111E-33
  0.7100000      1.5622821E-33
  0.7200000      1.5729993E-33
  0.7300000      1.5879724E-33
  0.7400000      1.6061826E-33
  0.7500000      1.6338565E-33
  0.7600000      1.6733061E-33
  0.7700000      1.7237910E-33
  0.7800000      1.7837837E-33
  0.7900000      1.8509349E-33
  0.8000000      1.9205372E-33
  0.8100000      1.9878267E-33
  0.8200000      2.0473952E-33
  0.8300000      2.0941059E-33
  0.8400000      2.1239245E-33
  0.8500000      2.1344408E-33
  0.8600000      2.1249725E-33
  0.8700000      2.0964246E-33
  0.8800000      2.0514884E-33
  0.8900000      1.9938748E-33
  0.9000000      1.9282034E-33
  0.9100000      1.8588777E-33
  0.9200000      1.7898591E-33
  0.9300000      1.7241905E-33
  0.9400000      1.6628264E-33
  0.9500000      1.6056204E-33
  0.9600000      1.5506976E-33
  0.9700000      1.4941163E-33
  0.9800000      1.4315234E-33
  0.9900000      1.3573404E-33
   1.000000      1.2658738E-33
   1.010000      1.1528337E-33
   1.020000      1.0149260E-33
   1.030000      8.5040726E-34
   1.040000      6.5921792E-34
   1.050000      4.4297467E-34
   1.060000      2.0457034E-34
   1.070000     -5.2203394E-35
   1.080000     -3.2318592E-34
   1.090000     -6.0469018E-34
   1.100000     -8.9389081E-34
   1.110000     -1.1895366E-33
   1.120000     -1.4923781E-33
   1.130000     -1.8050158E-33
   1.140000     -2.1324487E-33
   1.150000     -2.4814438E-33
   1.160000     -2.8596918E-33
   1.170000     -3.2758390E-33
   1.180000     -3.7387494E-33
   1.190000     -4.2570623E-33
   1.200000     -4.8386183E-33
   1.210000     -5.4900861E-33
   1.220000     -6.2170206E-33
   1.230000     -7.0237176E-33
   1.240000     -7.9137696E-33
   1.250000     -8.8903233E-33
   1.260000     -9.9523148E-33
   1.270000     -1.1108712E-32
   1.280000     -1.2368948E-32
   1.290000     -1.3735478E-32
   1.300000     -1.5217389E-32
   1.310000     -1.6824618E-32
   1.320000     -1.8568799E-32
   1.330000     -2.0463064E-32
   1.340000     -2.2521424E-32
   1.350000     -2.4758259E-32
   1.360000     -2.7187835E-32
   1.370000     -2.9823793E-32
   1.380000     -3.2678802E-32
   1.390000     -3.5764392E-32
   1.400000     -3.9091009E-32
   1.410000     -4.2668129E-32
   1.420000     -4.6504875E-32
   1.430000     -5.0610386E-32
   1.440000     -5.4994193E-32
   1.450000     -5.9667000E-32
   1.460000     -6.4641028E-32
   1.470000     -6.9930318E-32
   1.480000     -7.5550862E-32
   1.490000     -8.1520463E-32
   1.500000     -8.7858317E-32
   1.510000     -9.4584495E-32
   1.520000     -1.0171928E-31
   1.530000     -1.0928243E-31
   1.540000     -1.1729248E-31
   1.550000     -1.2576609E-31
   1.560000     -1.3471761E-31
   1.570000     -1.4415888E-31
   1.580000     -1.5409923E-31
   1.590000     -1.6454591E-31
   1.600000     -1.7550450E-31
   1.610000     -1.8697964E-31
   1.620000     -1.9897588E-31
   1.630000     -2.1149849E-31
   1.640000     -2.2455426E-31
   1.650000     -2.3815224E-31
   1.660000     -2.5230418E-31
   1.670000     -2.6702485E-31
   1.680000     -2.8233221E-31
   1.690000     -2.9824725E-31
   1.700000     -3.1479384E-31
   1.710000     -3.3199847E-31
   1.720000     -3.4988982E-31
   1.730000     -3.6849855E-31
   1.740000     -3.8785711E-31
   1.750000     -4.0799956E-31
   1.760000     -4.2896187E-31
   1.770000     -4.5078201E-31
   1.780000     -4.7350022E-31
   1.790000     -4.9715935E-31
   1.800000     -5.2180519E-31
   1.810000     -5.4748687E-31
   1.820000     -5.7425697E-31
   1.830000     -6.0217157E-31
   1.840000     -6.3129045E-31
   1.850000     -6.6167637E-31
   1.860000     -6.9339539E-31
   1.870000     -7.2651649E-31
   1.880000     -7.6111134E-31
   1.890000     -7.9725422E-31
   1.900000     -8.3502276E-31
   1.910000     -8.7449755E-31
   1.920000     -9.1576389E-31
   1.930000     -9.5891196E-31
   1.940000     -1.0040383E-30
   1.950000     -1.0512475E-30
   1.960000     -1.1006533E-30
   1.970000     -1.1523792E-30
   1.980000     -1.2065605E-30
   1.990000     -1.2633436E-30
   2.000000     -1.3228866E-30
   2.010000     -1.3853582E-30
   2.020000     -1.4509371E-30
   2.030000     -1.5198098E-30
   2.040000     -1.5921680E-30
   2.050000     -1.6682050E-30
   2.060000     -1.7481132E-30
   2.070000     -1.8320802E-30
   2.080000     -1.9202844E-30
   2.090000     -2.0128926E-30
   2.100000     -2.1100560E-30
   2.110000     -2.2119068E-30
   2.120000     -2.3185556E-30
   2.130000     -2.4300869E-30
   2.140000     -2.5465579E-30
   2.150000     -2.6679975E-30
   2.160000     -2.7944019E-30
   2.170000     -2.9257328E-30
   2.180000     -3.0619162E-30
   2.190000     -3.2028373E-30
   2.200000     -3.3483379E-30
   2.210000     -3.4982155E-30
   2.220000     -3.6522166E-30
   2.230000     -3.8100341E-30
   2.240000     -3.9713003E-30
   2.250000     -4.1355844E-30
   2.260000     -4.3023838E-30
   2.270000     -4.4711186E-30
   2.280000     -4.6411248E-30
   2.290000     -4.8116444E-30
   2.300000     -4.9818139E-30
   2.310000     -5.1506589E-30
   2.320000     -5.3170803E-30
   2.330000     -5.4798440E-30
   2.340000     -5.6375678E-30
   2.350000     -5.7887150E-30
   2.360000     -5.9315772E-30
   2.370000     -6.0642648E-30
   2.380000     -6.1846967E-30
   2.390000     -6.2905913E-30
   2.400000     -6.3794534E-30
   2.410000     -6.4485702E-30
   2.420000     -6.4950099E-30
   2.430000     -6.5156136E-30
   2.440000     -6.5069981E-30
   2.450000     -6.4655522E-30
   2.460000     -6.3874467E-30
   2.470000     -6.2686338E-30
   2.480000     -6.1048594E-30
   2.490000     -5.8916759E-30
   2.500000     -5.6244441E-30
   2.510000     -5.2983480E-30
   2.520000     -4.9084055E-30
   2.530000     -4.4494827E-30
   2.540000     -3.9163056E-30
   2.550000     -3.3034720E-30
   2.560000     -2.6054650E-30
   2.570000     -1.8166678E-30
   2.580000     -9.3137323E-31
   2.590000      5.6197623E-32
   2.600000      1.1518830E-30
   2.610000      2.3615651E-30
   2.620000      3.6911534E-30
   2.630000      5.1465467E-30
   2.640000      6.7336086E-30
   2.650000      8.4581502E-30
   2.660000      1.0325882E-29
   2.670000      1.2342369E-29
   2.680000      1.4512994E-29
   2.690000      1.6842903E-29
   2.700000      1.9336925E-29
   2.710000      2.1999528E-29
   2.720000      2.4834728E-29
   2.730000      2.7846046E-29
   2.740000      3.1036388E-29
   2.750000      3.4407984E-29
   2.760000      3.7962285E-29
   2.770000      4.1699916E-29
   2.780000      4.5620577E-29
   2.790000      4.9722916E-29
   2.800000      5.4004490E-29
   2.810000      5.8461658E-29
   2.820000      6.3089481E-29
   2.830000      6.7881706E-29
   2.840000      7.2830678E-29
   2.850000      7.7927236E-29
   2.860000      8.3160728E-29
   2.870000      8.8518918E-29
   2.880000      9.3987951E-29
   2.890000      9.9552378E-29
   2.900000      1.0519503E-28
   2.910000      1.1089697E-28
   2.920000      1.1663762E-28
   2.930000      1.2239461E-28
   2.940000      1.2814386E-28
   2.950000      1.3385950E-28
   2.960000      1.3951392E-28
   2.970000      1.4507771E-28
   2.980000      1.5051974E-28
   2.990000      1.5580707E-28
   3.000000      1.6090506E-28
   3.010000      1.6577737E-28
   3.020000      1.7038599E-28
   3.030000      1.7469126E-28
   3.040000      1.7865207E-28
   3.050000      1.8222580E-28
   3.060000      1.8536857E-28
   3.070000      1.8803534E-28
   3.080000      1.9018014E-28
   3.090000      1.9175621E-28
   3.100000      1.9271628E-28
   3.110000      1.9301287E-28
   3.120000      1.9259859E-28
   3.130000      1.9142659E-28
   3.140000      1.8945080E-28
   3.150000      1.8662643E-28
   3.160000      1.8291031E-28
   3.170000      1.7826152E-28
   3.180000      1.7264172E-28
   3.190000      1.6601565E-28
   3.200000      1.5835175E-28
   3.210000      1.4962260E-28
   3.220000      1.3980546E-28
   3.230000      1.2888287E-28
   3.240000      1.1684306E-28
   3.250000      1.0368054E-28
   3.260000      8.9396552E-29
   3.270000      7.3999717E-29
   3.280000      5.7506414E-29
   3.290000      3.9941283E-29
   3.300000      2.1337763E-29
   3.310000      1.7386009E-30
   3.320000     -1.8803710E-29
   3.330000     -4.0226496E-29
   3.340000     -6.2456428E-29
   3.350000     -8.5409149E-29
   3.360000     -1.0898866E-28
   3.370000     -1.3308721E-28
   3.380000     -1.5758464E-28
   3.390000     -1.8234812E-28
   3.400000     -2.0723189E-28
   3.410000     -2.3207704E-28
   3.420000     -2.5671096E-28
   3.430000     -2.8094765E-28
   3.440000     -3.0458741E-28
   3.450000     -3.2741709E-28
   3.460000     -3.4921024E-28
   3.470000     -3.6972720E-28
   3.480000     -3.8871576E-28
   3.490000     -4.0591169E-28
   3.500000     -4.2103958E-28
   3.510000     -4.3381360E-28
   3.520000     -4.4393903E-28
   3.530000     -4.5111332E-28
   3.540000     -4.5502724E-28
   3.550000     -4.5536721E-28
   3.560000     -4.5181739E-28
   3.570000     -4.4406095E-28
   3.580000     -4.3178285E-28
   3.590000     -4.1467246E-28
   3.600000     -3.9242607E-28
   3.610000     -3.6474990E-28
   3.620000     -3.3136251E-28
   3.630000     -2.9199852E-28
   3.640000     -2.4641202E-28
   3.650000     -1.9437941E-28
   3.660000     -1.3570350E-28
   3.670000     -7.0217721E-29
   3.680000      2.2109905E-30
   3.690000      8.1677569E-29
   3.700000      1.6823470E-28
   3.710000      2.6188892E-28
   3.720000      3.6259555E-28
   3.730000      4.7025422E-28
   3.740000      5.8470439E-28
   3.750000      7.0572082E-28
   3.760000      8.3300813E-28
   3.770000      9.6619610E-28
   3.780000      1.1048344E-27
   3.790000      1.2483875E-27
   3.800000      1.3962301E-27
   3.810000      1.5476412E-27
   3.820000      1.7018006E-27
   3.830000      1.8577826E-27
   3.840000      2.0145528E-27
   3.850000      2.1709635E-27
   3.860000      2.3257493E-27
   3.870000      2.4775244E-27
   3.880000      2.6247794E-27
   3.890000      2.7658781E-27
   3.900000      2.8990573E-27
   3.910000      3.0224252E-27
   3.920000      3.1339622E-27
   3.930000      3.2315202E-27
   3.940000      3.3128225E-27
   3.950000      3.3754688E-27
   3.960000      3.4169379E-27
   3.970000      3.4345918E-27
   3.980000      3.4256832E-27
   3.990000      3.3873599E-27
   4.000000      3.3166771E-27
   4.010000      3.2106024E-27
   4.020000      3.0660292E-27
   4.030000      2.8797878E-27
   4.040000      2.6486592E-27
   4.050000      2.3693898E-27
   4.060000      2.0387134E-27
   4.070000      1.6533642E-27
   4.080000      1.2100986E-27
   4.090000      7.0571755E-28
   4.100000      1.3708213E-28
   4.110000     -4.9885360E-28
   4.120000     -1.2050085E-27
   4.130000     -1.9841529E-27
   4.140000     -2.8388727E-27
   4.150000     -3.7715421E-27
   4.160000     -4.7842854E-27
   4.170000     -5.8789381E-27
   4.180000     -7.0570095E-27
   4.190000     -8.3196291E-27
   4.200000     -9.6675166E-27
   4.210000     -1.1100924E-26
   4.220000     -1.2619596E-26
   4.230000     -1.4222729E-26
   4.240000     -1.5908896E-26
   4.250000     -1.7676000E-26
   4.260000     -1.9521246E-26
   4.270000     -2.1441058E-26
   4.280000     -2.3431032E-26
   4.290000     -2.5485879E-26
   4.300000     -2.7599377E-26
   4.310000     -2.9764304E-26
   4.320000     -3.1972391E-26
   4.330000     -3.4214253E-26
   4.340000     -3.6479341E-26
   4.350000     -3.8755898E-26
   4.360000     -4.1030905E-26
   4.370000     -4.3290033E-26
   4.380000     -4.5517595E-26
   4.390000     -4.7696493E-26
   4.400000     -4.9808178E-26
   4.410000     -5.1832636E-26
   4.420000     -5.3748335E-26
   4.430000     -5.5532209E-26
   4.440000     -5.7159635E-26
   4.450000     -5.8604415E-26
   4.460000     -5.9838748E-26
   4.470000     -6.0833274E-26
   4.480000     -6.1557017E-26
   4.490000     -6.1977492E-26
   4.500000     -6.2060667E-26
   4.510000     -6.1770995E-26
   4.520000     -6.1071497E-26
   4.530000     -5.9923754E-26
   4.540000     -5.8288051E-26
   4.550000     -5.6123441E-26
   4.560000     -5.3387869E-26
   4.570000     -5.0038193E-26
   4.580000     -4.6030388E-26
   4.590000     -4.1319690E-26
   4.600000     -3.5860720E-26
   4.610000     -2.9607700E-26
   4.620000     -2.2514744E-26
   4.630000     -1.4535969E-26
   4.640000     -5.6257211E-27
   4.650000      4.2610449E-27
   4.660000      1.5168546E-26
   4.670000      2.7139900E-26
   4.680000      4.0216785E-26
   4.690000      5.4439069E-26
   4.700000      6.9844383E-26
   4.710000      8.6467765E-26
   4.720000      1.0434130E-25
   4.730000      1.2349368E-25
   4.740000      1.4394961E-25
   4.750000      1.6572929E-25
   4.760000      1.8884811E-25
   4.770000      2.1331600E-25
   4.780000      2.3913690E-25
   4.790000      2.6630810E-25
   4.800000      2.9481968E-25
   4.810000      3.2465403E-25
   4.820000      3.5578502E-25
   4.830000      3.8817747E-25
   4.840000      4.2178647E-25
   4.850000      4.5655670E-25
   4.860000      4.9242167E-25
   4.870000      5.2930304E-25
   4.880000      5.6711023E-25
   4.890000      6.0573937E-25
   4.900000      6.4507242E-25
   4.910000      6.8497695E-25
   4.920000      7.2530480E-25
   4.930000      7.6589189E-25
   4.940000      8.0655752E-25
   4.950000      8.4710349E-25
   4.960000      8.8731351E-25
   4.970000      9.2695268E-25
   4.980000      9.6576701E-25
   4.990000      1.0034826E-24
   5.000000      1.0398057E-24
   5.010000      1.0744216E-24
   5.020000      1.1069940E-24
   5.030000      1.1371659E-24
   5.040000      1.1645583E-24
   5.050000      1.1887703E-24
   5.060000      1.2093794E-24
   5.070000      1.2259406E-24
   5.080000      1.2379872E-24
   5.090000      1.2450314E-24
   5.100000      1.2465633E-24
   5.110000      1.2420520E-24
   5.120000      1.2309462E-24
   5.130000      1.2126761E-24
   5.140000      1.1866520E-24
   5.150000      1.1522661E-24
   5.160000      1.1088945E-24
   5.170000      1.0558984E-24
   5.180000      9.9262525E-25
   5.190000      9.1840981E-25
   5.200000      8.3257682E-25
   5.210000      7.3444217E-25
   5.220000      6.2331756E-25
   5.230000      4.9851187E-25
   5.240000      3.5933223E-25
   5.250000      2.0508882E-25
   5.260000      3.5098804E-26
   5.270000     -1.5131286E-25
   5.280000     -3.5480565E-25
   5.290000     -5.7602140E-25
   5.300000     -8.1558194E-25
   5.310000     -1.0740809E-24
   5.320000     -1.3520813E-24
   5.330000     -1.6501099E-24
   5.340000     -1.9686503E-24
   5.350000     -2.3081376E-24
   5.360000     -2.6689555E-24
   5.370000     -3.0514282E-24
   5.380000     -3.4558123E-24
   5.390000     -3.8822902E-24
   5.400000     -4.3309659E-24
   5.410000     -4.8018539E-24
   5.420000     -5.2948727E-24
   5.430000     -5.8098371E-24
   5.440000     -6.3464530E-24
   5.450000     -6.9043079E-24
   5.460000     -7.4828584E-24
   5.470000     -8.0814272E-24
   5.480000     -8.6991889E-24
   5.490000     -9.3351662E-24
   5.500000     -9.9882168E-24
   5.510000     -1.0657032E-23
   5.520000     -1.1340120E-23
   5.530000     -1.2035802E-23
   5.540000     -1.2742196E-23
   5.550000     -1.3457216E-23
   5.560000     -1.4178560E-23
   5.570000     -1.4903703E-23
   5.580000     -1.5629884E-23
   5.590000     -1.6354101E-23
   5.600000     -1.7073107E-23
   5.610000     -1.7783391E-23
   5.620000     -1.8481190E-23
   5.630000     -1.9162466E-23
   5.640000     -1.9822909E-23
   5.650000     -2.0457926E-23
   5.660000     -2.1062643E-23
   5.670000     -2.1631898E-23
   5.680000     -2.2160245E-23
   5.690000     -2.2641946E-23
   5.700000     -2.3070961E-23
   5.710000     -2.3440964E-23
   5.720000     -2.3745340E-23
   5.730000     -2.3977187E-23
   5.740000     -2.4129318E-23
   5.750000     -2.4194263E-23
   5.760000     -2.4164288E-23
   5.770000     -2.4031392E-23
   5.780000     -2.3787332E-23
   5.790000     -2.3423633E-23
   5.800000     -2.2931582E-23
   5.810000     -2.2302292E-23
   5.820000     -2.1526675E-23
   5.830000     -2.0595454E-23
   5.840000     -1.9499230E-23
   5.850000     -1.8228485E-23
   5.860000     -1.6773608E-23
   5.870000     -1.5124942E-23
   5.880000     -1.3272832E-23
   5.890000     -1.1207623E-23
   5.900000     -8.9196984E-24
   5.910000     -6.3995367E-24
   5.920000     -3.6377658E-24
   5.930000     -6.2519056E-25
   5.940000      2.6471245E-24
   5.950000      6.1878159E-24
   5.960000      1.0005200E-23
   5.970000      1.4107174E-23
   5.980000      1.8501142E-23
   5.990000      2.3193959E-23
   6.000000      2.8191876E-23
   6.010000      3.3500449E-23
   6.020000      3.9124465E-23
   6.030000      4.5067889E-23
   6.040000      5.1333763E-23
   6.050000      5.7924113E-23
   6.060000      6.4839842E-23
   6.070000      7.2080726E-23
   6.080000      7.9645221E-23
   6.090000      8.7530416E-23
   6.100000      9.5731912E-23
   6.110000      1.0424376E-22
   6.120000      1.1305838E-22
   6.130000      1.2216640E-22
   6.140000      1.3155658E-22
   6.150000      1.4121571E-22
   6.160000      1.5112848E-22
   6.170000      1.6127744E-22
   6.180000      1.7164278E-22
   6.190000      1.8220238E-22
   6.200000      1.9293160E-22
   6.210000      2.0380317E-22
   6.220000      2.1478724E-22
   6.230000      2.2585110E-22
   6.240000      2.3695920E-22
   6.250000      2.4807303E-22
   6.260000      2.5915101E-22
   6.270000      2.7014851E-22
   6.280000      2.8101767E-22
   6.290000      2.9170741E-22
   6.300000      3.0216336E-22
   6.310000      3.1232778E-22
   6.320000      3.2213937E-22
   6.330000      3.3153355E-22
   6.340000      3.4044220E-22
   6.350000      3.4879373E-22
   6.360000      3.5651313E-22
   6.370000      3.6352210E-22
   6.380000      3.6973870E-22
   6.390000      3.7507771E-22
   6.400000      3.7945058E-22
   6.410000      3.8276551E-22
   6.420000      3.8492764E-22
   6.430000      3.8583901E-22
   6.440000      3.8539884E-22
   6.450000      3.8350345E-22
   6.460000      3.8004650E-22
   6.470000      3.7491941E-22
   6.480000      3.6801149E-22
   6.490000      3.5920987E-22
   6.500000      3.4840023E-22
   6.510000      3.3546697E-22
   6.520000      3.2029348E-22
   6.530000      3.0276242E-22
   6.540000      2.8275620E-22
   6.550000      2.6015716E-22
   6.560000      2.3484818E-22
   6.570000      2.0671329E-22
   6.580000      1.7563784E-22
   6.590000      1.4150911E-22
   6.600000      1.0421681E-22
   6.610000      6.3654209E-23
   6.620000      1.9718498E-23
   6.630000     -2.7689188E-23
   6.640000     -7.8662799E-23
   6.650000     -1.3329019E-22
   6.660000     -1.9165261E-22
   6.670000     -2.5382406E-22
   6.680000     -3.1987032E-22
   6.690000     -3.8984872E-22
   6.700000     -4.6380684E-22
   6.710000     -5.4178129E-22
   6.720000     -6.2379672E-22
   6.730000     -7.0986536E-22
   6.740000     -7.9998649E-22
   6.750000     -8.9414478E-22
   6.760000     -9.9230927E-22
   6.770000     -1.0944326E-21
   6.780000     -1.2004500E-21
   6.790000     -1.3102786E-21
   6.800000     -1.4238160E-21
   6.810000     -1.5409393E-21
   6.820000     -1.6615038E-21
   6.830000     -1.7853419E-21
   6.840000     -1.9122622E-21
   6.850000     -2.0420496E-21
   6.860000     -2.1744623E-21
   6.870000     -2.3092322E-21
   6.880000     -2.4460633E-21
   6.890000     -2.5846310E-21
   6.900000     -2.7245815E-21
   6.910000     -2.8655297E-21
   6.920000     -3.0070604E-21
   6.930000     -3.1487262E-21
   6.940000     -3.2900467E-21
   6.950000     -3.4305082E-21
   6.960000     -3.5695638E-21
   6.970000     -3.7066319E-21
   6.980000     -3.8410960E-21
   6.990000     -3.9723031E-21
   7.000000     -4.0995673E-21
   7.010000     -4.2221657E-21
   7.020000     -4.3393402E-21
   7.030000     -4.4502955E-21
   7.040000     -4.5542048E-21
   7.050000     -4.6502034E-21
   7.060000     -4.7373926E-21