  -2.600000      0.0000000E+00
  -2.590000      0.0000000E+00
  -2.580000      0.0000000E+00
  -2.570000      0.0000000E+00
  -2.560000      0.0000000E+00
  -2.550000      0.0000000E+00
  -2.540000      0.0000000E+00
  -2.530000      0.0000000E+00
  -2.520000      0.0000000E+00
  -2.510000      0.0000000E+00
  -2.500000      0.0000000E+00
  -2.490000      0.0000000E+00
  -2.480000      0.0000000E+00
  -2.470000      0.0000000E+00
  -2.460000      0.0000000E+00
  -2.450000      0.0000000E+00
  -2.440000      0.0000000E+00
  -2.430000      0.0000000E+00
  -2.420000      0.0000000E+00
  -2.410000      0.0000000E+00
  -2.400000      0.0000000E+00
  -2.390000      0.0000000E+00
  -2.380000      0.0000000E+00
  -2.370000      0.0000000E+00
  -2.360000      0.0000000E+00
  -2.350000      0.0000000E+00
  -2.340000      0.0000000E+00
  -2.330000      0.0000000E+00
  -2.320000      0.0000000E+00
  -2.310000      0.0000000E+00
  -2.300000      0.0000000E+00
  -2.290000      0.0000000E+00
  -2.280000      0.0000000E+00
  -2.270000      0.0000000E+00
  -2.260000      0.0000000E+00
  -2.250000      0.0000000E+00
  -2.240000      0.0000000E+00
  -2.230000      0.0000000E+00
  -2.220000      0.0000000E+00
  -2.210000      0.0000000E+00
  -2.200000      0.0000000E+00
  -2.190000      0.0000000E+00
  -2.180000      0.0000000E+00
  -2.170000      0.0000000E+00
  -2.160000      0.0000000E+00
  -2.150000      0.0000000E+00
  -2.140000      0.0000000E+00
  -2.130000      0.0000000E+00
  -2.120000      0.0000000E+00
  -2.110000      0.0000000E+00
  -2.100000      0.0000000E+00
  -2.090000      0.0000000E+00
  -2.080000      0.0000000E+00
  -2.070000      0.0000000E+00
  -2.060000      0.0000000E+00
  -2.050000      0.0000000E+00
  -2.040000      0.0000000E+00
  -2.030000      0.0000000E+00
  -2.020000      0.0000000E+00
  -2.010000      0.0000000E+00
  -2.000000      0.0000000E+00
  -1.990000      0.0000000E+00
  -1.980000      0.0000000E+00
  -1.970000      0.0000000E+00
  -1.960000      0.0000000E+00
  -1.950000      0.0000000E+00
  -1.940000      0.0000000E+00
  -1.930000      0.0000000E+00
  -1.920000      0.0000000E+00
  -1.910000      0.0000000E+00
  -1.900000      0.0000000E+00
  -1.890000      0.0000000E+00
  -1.880000      0.0000000E+00
  -1.870000      0.0000000E+00
  -1.860000      0.0000000E+00
  -1.850000      0.0000000E+00
  -1.840000      0.0000000E+00
  -1.830000      0.0000000E+00
  -1.820000      0.0000000E+00
  -1.810000      0.0000000E+00
  -1.800000      0.0000000E+00
  -1.790000      0.0000000E+00
  -1.780000      0.0000000E+00
  -1.770000      0.0000000E+00
  -1.760000      0.0000000E+00
  -1.750000      0.0000000E+00
  -1.740000      0.0000000E+00
  -1.730000      0.0000000E+00
  -1.720000      0.0000000E+00
  -1.710000      0.0000000E+00
  -1.700000      0.0000000E+00
  -1.690000      0.0000000E+00
  -1.680000      0.0000000E+00
  -1.670000      0.0000000E+00
  -1.660000      0.0000000E+00
  -1.650000      0.0000000E+00
  -1.640000      0.0000000E+00
  -1.630000      0.0000000E+00
  -1.620000      0.0000000E+00
  -1.610000      0.0000000E+00
  -1.600000      0.0000000E+00
  -1.590000      0.0000000E+00
  -1.580000      0.0000000E+00
  -1.570000      0.0000000E+00
  -1.560000      0.0000000E+00
  -1.550000      0.0000000E+00
  -1.540000      0.0000000E+00
  -1.530000      0.0000000E+00
  -1.520000      0.0000000E+00
  -1.510000      0.0000000E+00
  -1.500000      0.0000000E+00
  -1.490000      0.0000000E+00
  -1.480000      0.0000000E+00
  -1.470000      0.0000000E+00
  -1.460000      0.0000000E+00
  -1.450000      0.0000000E+00
  -1.440000      0.0000000E+00
  -1.430000      0.0000000E+00
  -1.420000      0.0000000E+00
  -1.410000      0.0000000E+00
  -1.400000      0.0000000E+00
  -1.390000      0.0000000E+00
  -1.380000      0.0000000E+00
  -1.370000      0.0000000E+00
  -1.360000      0.0000000E+00
  -1.350000      0.0000000E+00
  -1.340000      0.0000000E+00
  -1.330000      0.0000000E+00
  -1.320000      0.0000000E+00
  -1.310000      0.0000000E+00
  -1.300000      0.0000000E+00
  -1.290000      0.0000000E+00
  -1.280000      0.0000000E+00
  -1.270000      0.0000000E+00
  -1.260000      0.0000000E+00
  -1.250000      0.0000000E+00
  -1.240000      0.0000000E+00
  -1.230000      0.0000000E+00
  -1.220000      0.0000000E+00
  -1.210000      0.0000000E+00
  -1.200000      0.0000000E+00
  -1.190000      0.0000000E+00
  -1.180000      0.0000000E+00
  -1.170000      0.0000000E+00
  -1.160000      0.0000000E+00
  -1.150000      0.0000000E+00
  -1.140000      0.0000000E+00
  -1.130000      0.0000000E+00
  -1.120000      0.0000000E+00
  -1.110000      0.0000000E+00
  -1.100000      0.0000000E+00
  -1.090000      0.0000000E+00
  -1.080000      0.0000000E+00
  -1.070000      0.0000000E+00
  -1.060000      0.0000000E+00
  -1.050000      0.0000000E+00
  -1.040000      0.0000000E+00
  -1.030000      0.0000000E+00
  -1.020000      0.0000000E+00
  -1.010000      0.0000000E+00
  -1.000000      0.0000000E+00
 -0.9900000      0.0000000E+00
 -0.9800000      0.0000000E+00
 -0.9700000      0.0000000E+00
 -0.9600000      0.0000000E+00
 -0.9500000      0.0000000E+00
 -0.9400000      0.0000000E+00
 -0.9300000      0.0000000E+00
 -0.9200000      0.0000000E+00
 -0.9100000      0.0000000E+00
 -0.9000000      0.0000000E+00
 -0.8900000      0.0000000E+00
 -0.8800000      0.0000000E+00
 -0.8700000      0.0000000E+00
 -0.8600000      0.0000000E+00
 -0.8500000      0.0000000E+00
 -0.8400000      0.0000000E+00
 -0.8300000      0.0000000E+00
 -0.8200000      0.0000000E+00
 -0.8100000      0.0000000E+00
 -0.8000000      0.0000000E+00
 -0.7900000      0.0000000E+00
 -0.7800000      0.0000000E+00
 -0.7700000      0.0000000E+00
 -0.7600000      0.0000000E+00
 -0.7500000      0.0000000E+00
 -0.7400000      0.0000000E+00
 -0.7300000      0.0000000E+00
 -0.7200000      0.0000000E+00
 -0.7100000      0.0000000E+00
 -0.7000000      0.0000000E+00
 -0.6900000      0.0000000E+00
 -0.6800000      0.0000000E+00
 -0.6700000      0.0000000E+00
 -0.6600000      0.0000000E+00
 -0.6500000      0.0000000E+00
 -0.6400000      0.0000000E+00
 -0.6300000      0.0000000E+00
 -0.6200000      0.0000000E+00
 -0.6100000      0.0000000E+00
 -0.6000000      0.0000000E+00
 -0.5900000      0.0000000E+00
 -0.5800000      0.0000000E+00
 -0.5700000      0.0000000E+00
 -0.5600000      0.0000000E+00
 -0.5500000      0.0000000E+00
 -0.5400000      0.0000000E+00
 -0.5300000      0.0000000E+00
 -0.5200000      0.0000000E+00
 -0.5100000      0.0000000E+00
 -0.5000000      0.0000000E+00
 -0.4900000      0.0000000E+00
 -0.4800000      0.0000000E+00
 -0.4700000      0.0000000E+00
 -0.4600000      0.0000000E+00
 -0.4500000      0.0000000E+00
 -0.4400000      0.0000000E+00
 -0.4300000      0.0000000E+00
 -0.4200000      0.0000000E+00
 -0.4100000      0.0000000E+00
 -0.4000000      0.0000000E+00
 -0.3900000      0.0000000E+00
 -0.3800000      0.0000000E+00
 -0.3700000      0.0000000E+00
 -0.3600000      0.0000000E+00
 -0.3500000      0.0000000E+00
 -0.3400000      0.0000000E+00
 -0.3300000      0.0000000E+00
 -0.3200000      0.0000000E+00
 -0.3100000      0.0000000E+00
 -0.3000000      0.0000000E+00
 -0.2900000      0.0000000E+00
 -0.2800000      0.0000000E+00
 -0.2700000      0.0000000E+00
 -0.2600000      0.0000000E+00
 -0.2500000      0.0000000E+00
 -0.2400000      0.0000000E+00
 -0.2300000      0.0000000E+00
 -0.2200000      0.0000000E+00
 -0.2100000      0.0000000E+00
 -0.2000000      0.0000000E+00
 -0.1900000      0.0000000E+00
 -0.1800000      0.0000000E+00
 -0.1700000      0.0000000E+00
 -0.1600000      0.0000000E+00
 -0.1500000      0.0000000E+00
 -0.1400000      0.0000000E+00
 -0.1300000      0.0000000E+00
 -0.1200000      0.0000000E+00
 -0.1100000      0.0000000E+00
 -0.1000000      0.0000000E+00
 -9.0000004E-02  0.0000000E+00
 -7.9999998E-02 -1.8589180E-38
 -7.0000000E-02 -3.0571638E-38
 -5.9999999E-02 -4.4175732E-38
 -5.0000001E-02 -5.9326235E-38
 -3.9999999E-02 -7.3853188E-38
 -2.9999999E-02 -8.5795614E-38
 -2.0000000E-02 -9.2545349E-38
 -9.9999998E-03 -9.3635430E-38
 -3.4694470E-17 -9.0049334E-38
  9.9999998E-03 -8.0119694E-38
  2.0000000E-02 -6.5037748E-38
  2.9999999E-02 -5.1968465E-38
  3.9999999E-02 -3.9512351E-38
  5.0000001E-02 -2.0804735E-38
  5.9999999E-02  0.0000000E+00
  7.0000000E-02  2.5286080E-38
  7.9999998E-02  5.7388391E-38
  9.0000004E-02  1.1256891E-37
  0.1000000      1.8007158E-37
  0.1100000      2.5848224E-37
  0.1200000      3.4731694E-37
  0.1300000      4.4477828E-37
  0.1400000      5.2965432E-37
  0.1500000      5.9358528E-37
  0.1600000      6.4762100E-37
  0.1700000      6.5687657E-37
  0.1800000      5.7909590E-37
  0.1900000      4.6191645E-37
  0.2000000      3.2248974E-37
  0.2100000      1.1199488E-37
  0.2200000     -1.4330079E-37
  0.2300000     -4.3726243E-37
  0.2400000     -8.4015811E-37
  0.2500000     -1.3197942E-36
  0.2600000     -1.7465377E-36
  0.2700000     -2.1006769E-36
  0.2800000     -2.4694050E-36
  0.2900000     -2.8854914E-36
  0.3000000     -3.1073573E-36
  0.3100000     -2.8013019E-36
  0.3200000     -2.0574984E-36
  0.3300000     -9.9170659E-37
  0.3400000      6.3274908E-37
  0.3500000      2.9125213E-36
  0.3600000      5.8716929E-36
  0.3700000      9.8462195E-36
  0.3800000      1.5022623E-35
  0.3900000      2.1496031E-35
  0.4000000      2.9344187E-35
  0.4100000      3.8765224E-35
  0.4200000      5.0100166E-35
  0.4300000      6.3684352E-35
  0.4400000      7.9683020E-35
  0.4500000      9.8161975E-35
  0.4600000      1.2099164E-34
  0.4700000      1.4825821E-34
  0.4800000      1.7867774E-34
  0.4900000      2.1201981E-34
  0.5000000      2.4831446E-34
  0.5100000      2.8584710E-34
  0.5200000      3.2135217E-34
  0.5300000      3.5600560E-34
  0.5400000      3.9279704E-34
  0.5500000      4.2863694E-34
  0.5600000      4.6344962E-34
  0.5700000      5.0013896E-34
  0.5800000      5.3775487E-34
  0.5900000      5.7689920E-34
  0.6000000      6.1793520E-34
  0.6100000      6.6535630E-34
  0.6200000      7.2185832E-34
  0.6300000      7.9073981E-34
  0.6400000      8.6932261E-34
  0.6500000      9.4927303E-34
  0.6600000      1.0331376E-33
  0.6700000      1.1212330E-33
  0.6800000      1.2126268E-33
  0.6900000      1.3087964E-33
  0.7000000      1.4124496E-33
  0.7100000      1.5210879E-33
  0.7200000      1.6308873E-33
  0.7300000      1.7430636E-33
  0.7400000      1.8603412E-33
  0.7500000      1.9762172E-33
  0.7600000      2.0810759E-33
  0.7700000      2.1811092E-33
  0.7800000      2.2786728E-33
  0.7900000      2.3695564E-33
  0.8000000      2.4558162E-33
  0.8100000      2.5327082E-33
  0.8200000      2.5960960E-33
  0.8300000      2.6487647E-33
  0.8400000      2.6903346E-33
  0.8500000      2.7205386E-33
  0.8600000      2.7390346E-33
  0.8700000      2.7475105E-33
  0.8800000      2.7448115E-33
  0.8900000      2.7293770E-33
  0.9000000      2.7029266E-33
  0.9100000      2.6654711E-33
  0.9200000      2.6157343E-33
  0.9300000      2.5551555E-33
  0.9400000      2.4848972E-33
  0.9500000      2.4032341E-33
  0.9600000      2.3095268E-33
  0.9700000      2.2027410E-33
  0.9800000      2.0820892E-33
  0.9900000      1.9465894E-33
   1.000000      1.7945558E-33
   1.010000      1.6244358E-33
   1.020000      1.4345650E-33
   1.030000      1.2232240E-33
   1.040000      9.8874448E-34
   1.050000      7.2943217E-34
   1.060000      4.4369287E-34
   1.070000      1.3004352E-34
   1.080000     -2.1266277E-34
   1.090000     -5.8547641E-34
   1.100000     -9.8932727E-34
   1.110000     -1.4246992E-33
   1.120000     -1.8942248E-33
   1.130000     -2.3939684E-33
   1.140000     -2.9254737E-33
   1.150000     -3.4914170E-33
   1.160000     -4.0882533E-33
   1.170000     -4.7172485E-33
   1.180000     -5.3788451E-33
   1.190000     -6.0740207E-33
   1.200000     -6.8029370E-33
   1.210000     -7.5663067E-33
   1.220000     -8.3656245E-33
   1.230000     -9.2027285E-33
   1.240000     -1.0079998E-32
   1.250000     -1.1000317E-32
   1.260000     -1.1967384E-32
   1.270000     -1.2985558E-32
   1.280000     -1.4059790E-32
   1.290000     -1.5195590E-32
   1.300000     -1.6399116E-32
   1.310000     -1.7677335E-32
   1.320000     -1.9037722E-32
   1.330000     -2.0489071E-32
   1.340000     -2.2039133E-32
   1.350000     -2.3696165E-32
   1.360000     -2.5470506E-32
   1.370000     -2.7372256E-32
   1.380000     -2.9412100E-32
   1.390000     -3.1601394E-32
   1.400000     -3.3952268E-32
   1.410000     -3.6477776E-32
   1.420000     -3.9192048E-32
   1.430000     -4.2110513E-32
   1.440000     -4.5250164E-32
   1.450000     -4.8629746E-32
   1.460000     -5.2270002E-32
   1.470000     -5.6193873E-32
   1.480000     -6.0426822E-32
   1.490000     -6.4996709E-32
   1.500000     -6.9934591E-32
   1.510000     -7.5274761E-32
   1.520000     -8.1054038E-32
   1.530000     -8.7312300E-32
   1.540000     -9.4092616E-32
   1.550000     -1.0144107E-31
   1.560000     -1.0940661E-31
   1.570000     -1.1804094E-31
   1.580000     -1.2739827E-31
   1.590000     -1.3753512E-31
   1.600000     -1.4851012E-31
   1.610000     -1.6038364E-31
   1.620000     -1.7321765E-31
   1.630000     -1.8707545E-31
   1.640000     -2.0202123E-31
   1.650000     -2.1812012E-31
   1.660000     -2.3543807E-31
   1.670000     -2.5404154E-31
   1.680000     -2.7399744E-31
   1.690000     -2.9537314E-31
   1.700000     -3.1823655E-31
   1.710000     -3.4265585E-31
   1.720000     -3.6869975E-31
   1.730000     -3.9643735E-31
   1.740000     -4.2593807E-31
   1.750000     -4.5727149E-31
   1.760000     -4.9050713E-31
   1.770000     -5.2571413E-31
   1.780000     -5.6296070E-31
   1.790000     -6.0231320E-31
   1.800000     -6.4383565E-31
   1.810000     -6.8758840E-31
   1.820000     -7.3362668E-31
   1.830000     -7.8199945E-31
   1.840000     -8.3274766E-31
   1.850000     -8.8590220E-31
   1.860000     -9.4148239E-31
   1.870000     -9.9949388E-31
   1.880000     -1.0599263E-30
   1.890000     -1.1227521E-30
   1.900000     -1.1879237E-30
   1.910000     -1.2553725E-30
   1.920000     -1.3250069E-30
   1.930000     -1.3967113E-30
   1.940000     -1.4703446E-30
   1.950000     -1.5457396E-30
   1.960000     -1.6227021E-30
   1.970000     -1.7010110E-30
   1.980000     -1.7804175E-30
   1.990000     -1.8606458E-30
   2.000000     -1.9413932E-30
   2.010000     -2.0223303E-30
   2.020000     -2.1031016E-30
   2.030000     -2.1833254E-30
   2.040000     -2.2625951E-30
   2.050000     -2.3404779E-30
   2.060000     -2.4165162E-30
   2.070000     -2.4902269E-30
   2.080000     -2.5611007E-30
   2.090000     -2.6286021E-30
   2.100000     -2.6921685E-30
   2.110000     -2.7512084E-30
   2.120000     -2.8051015E-30
   2.130000     -2.8531984E-30
   2.140000     -2.8948177E-30
   2.150000     -2.9292473E-30
   2.160000     -2.9557431E-30
   2.170000     -2.9735313E-30
   2.180000     -2.9818073E-30
   2.190000     -2.9797386E-30
   2.200000     -2.9664689E-30
   2.210000     -2.9411200E-30
   2.220000     -2.9027975E-30
   2.230000     -2.8505973E-30
   2.240000     -2.7836111E-30
   2.250000     -2.7009347E-30
   2.260000     -2.6016774E-30
   2.270000     -2.4849704E-30
   2.280000     -2.3499759E-30
   2.290000     -2.1958981E-30
   2.300000     -2.0219919E-30
   2.310000     -1.8275730E-30
   2.320000     -1.6120256E-30
   2.330000     -1.3748117E-30
   2.340000     -1.1154790E-30
   2.350000     -8.3366567E-31
   2.360000     -5.2910646E-31
   2.370000     -2.0163635E-31
   2.380000      1.4880665E-31
   2.390000      5.2218116E-31
   2.400000      9.1833963E-31
   2.410000      1.3370287E-30
   2.420000      1.7778927E-30
   2.430000      2.2404721E-30
   2.440000      2.7242040E-30
   2.450000      3.2284247E-30
   2.460000      3.7523679E-30
   2.470000      4.2951698E-30
   2.480000      4.8558633E-30
   2.490000      5.4333764E-30
   2.500000      6.0265320E-30
   2.510000      6.6340493E-30
   2.520000      7.2545327E-30
   2.530000      7.8864762E-30
   2.540000      8.5282600E-30
   2.550000      9.1781508E-30
   2.560000      9.8343023E-30
   2.570000      1.0494757E-29
   2.580000      1.1157458E-29
   2.590000      1.1820261E-29
   2.600000      1.2480941E-29
   2.610000      1.3137226E-29
   2.620000      1.3786812E-29
   2.630000      1.4427402E-29
   2.640000      1.5056732E-29
   2.650000      1.5672630E-29
   2.660000      1.6273041E-29
   2.670000      1.6856104E-29
   2.680000      1.7420188E-29
   2.690000      1.7963955E-29
   2.700000      1.8486430E-29
   2.710000      1.8987054E-29
   2.720000      1.9465753E-29
   2.730000      1.9922996E-29
   2.740000      2.0359848E-29
   2.750000      2.0778047E-29
   2.760000      2.1180037E-29
   2.770000      2.1569022E-29
   2.780000      2.1949020E-29
   2.790000      2.2324898E-29
   2.800000      2.2702415E-29
   2.810000      2.3088256E-29
   2.820000      2.3490045E-29
   2.830000      2.3916400E-29
   2.840000      2.4376938E-29
   2.850000      2.4882306E-29
   2.860000      2.5444213E-29
   2.870000      2.6075445E-29
   2.880000      2.6789887E-29
   2.890000      2.7602533E-29
   2.900000      2.8529544E-29
   2.910000      2.9588251E-29
   2.920000      3.0797164E-29
   2.930000      3.2175982E-29
   2.940000      3.3745660E-29
   2.950000      3.5528352E-29
   2.960000      3.7547410E-29
   2.970000      3.9827359E-29
   2.980000      4.2393910E-29
   2.990000      4.5273786E-29
   3.000000      4.8494750E-29
   3.010000      5.2085487E-29
   3.020000      5.6075418E-29
   3.030000      6.0494501E-29
   3.040000      6.5373080E-29
   3.050000      7.0741724E-29
   3.060000      7.6630857E-29
   3.070000      8.3070420E-29
   3.080000      9.0089670E-29
   3.090000      9.7716774E-29
   3.100000      1.0597840E-28
   3.110000      1.1489936E-28
   3.120000      1.2450213E-28
   3.130000      1.3480644E-28
   3.140000      1.4582880E-28
   3.150000      1.5758209E-28
   3.160000      1.7007499E-28
   3.170000      1.8331147E-28
   3.180000      1.9729057E-28
   3.190000      2.1200562E-28
   3.200000      2.2744390E-28
   3.210000      2.4358611E-28
   3.220000      2.6040590E-28
   3.230000      2.7786946E-28
   3.240000      2.9593498E-28
   3.250000      3.1455210E-28
   3.260000      3.3366151E-28
   3.270000      3.5319446E-28
   3.280000      3.7307213E-28
   3.290000      3.9320532E-28
   3.300000      4.1349384E-28
   3.310000      4.3382602E-28
   3.320000      4.5407828E-28
   3.330000      4.7411474E-28
   3.340000      4.9378658E-28
   3.350000      5.1293181E-28
   3.360000      5.3137495E-28
   3.370000      5.4892663E-28
   3.380000      5.6538360E-28
   3.390000      5.8052844E-28
   3.400000      5.9412965E-28
   3.410000      6.0594195E-28
   3.420000      6.1570642E-28
   3.430000      6.2315081E-28
   3.440000      6.2799019E-28
   3.450000      6.2992806E-28
   3.460000      6.2865733E-28
   3.470000      6.2386071E-28
   3.480000      6.1521290E-28
   3.490000      6.0238231E-28
   3.500000      5.8503194E-28
   3.510000      5.6282192E-28
   3.520000      5.3541204E-28
   3.530000      5.0246342E-28
   3.540000      4.6364149E-28
   3.550000      4.1861845E-28
   3.560000      3.6707683E-28
   3.570000      3.0871227E-28
   3.580000      2.4323653E-28
   3.590000      1.7038099E-28
   3.600000      8.9901194E-29
   3.610000      1.5792642E-30
   3.620000     -9.4770733E-29
   3.630000     -1.9929955E-28
   3.640000     -3.1211804E-28
   3.650000     -4.3329220E-28
   3.660000     -5.6283954E-28
   3.670000     -7.0072270E-28
   3.680000     -8.4684497E-28
   3.690000     -1.0010453E-27
   3.700000     -1.1630924E-27
   3.710000     -1.3326795E-27
   3.720000     -1.5094182E-27
   3.730000     -1.6928327E-27
   3.740000     -1.8823542E-27
   3.750000     -2.0773150E-27
   3.760000     -2.2769420E-27
   3.770000     -2.4803522E-27
   3.780000     -2.6865465E-27
   3.790000     -2.8944033E-27
   3.800000     -3.1026751E-27
   3.810000     -3.3099841E-27
   3.820000     -3.5148160E-27
   3.830000     -3.7155183E-27
   3.840000     -3.9102976E-27
   3.850000     -4.0972160E-27
   3.860000     -4.2741886E-27
   3.870000     -4.4389870E-27
   3.880000     -4.5892364E-27
   3.890000     -4.7224184E-27
   3.900000     -4.8358714E-27
   3.910000     -4.9267965E-27
   3.920000     -4.9922631E-27
   3.930000     -5.0292117E-27
   3.940000     -5.0344637E-27
   3.950000     -5.0047312E-27
   3.960000     -4.9366238E-27
   3.970000     -4.8266616E-27
   3.980000     -4.6712922E-27
   3.990000     -4.4669018E-27
   4.000000     -4.2098333E-27
   4.010000     -3.8964028E-27
   4.020000     -3.5229249E-27
   4.030000     -3.0857303E-27
   4.040000     -2.5811914E-27
   4.050000     -2.0057520E-27
   4.060000     -1.3559548E-27
   4.070000     -6.2847114E-28
   4.080000      1.7986309E-28
   4.090000      1.0720146E-27
   4.100000      2.0507073E-27
   4.110000      3.1183856E-27
   4.120000      4.2771722E-27
   4.130000      5.5288206E-27
   4.140000      6.8746578E-27
   4.150000      8.3155438E-27
   4.160000      9.8518173E-27
   4.170000      1.1483231E-26
   4.180000      1.3208900E-26
   4.190000      1.5027238E-26
   4.200000      1.6935907E-26
   4.210000      1.8931736E-26
   4.220000      2.1010671E-26
   4.230000      2.3167706E-26
   4.240000      2.5396819E-26
   4.250000      2.7690897E-26
   4.260000      3.0041681E-26
   4.270000      3.2439692E-26
   4.280000      3.4874169E-26
   4.290000      3.7333024E-26
   4.300000      3.9802747E-26
   4.310000      4.2268369E-26
   4.320000      4.4713394E-26
   4.330000      4.7119743E-26
   4.340000      4.9467736E-26
   4.350000      5.1735982E-26
   4.360000      5.3901393E-26
   4.370000      5.5939107E-26
   4.380000      5.7822475E-26
   4.390000      5.9523050E-26
   4.400000      6.1010533E-26
   4.410000      6.2252780E-26
   4.420000      6.3215800E-26
   4.430000      6.3863806E-26
   4.440000      6.4159130E-26
   4.450000      6.4062322E-26
   4.460000      6.3532176E-26
   4.470000      6.2525812E-26
   4.480000      6.0998725E-26
   4.490000      5.8904848E-26
   4.500000      5.6196664E-26
   4.510000      5.2825343E-26
   4.520000      4.8740834E-26
   4.530000      4.3892119E-26
   4.540000      3.8227278E-26
   4.550000      3.1693726E-26
   4.560000      2.4238434E-26
   4.570000      1.5808142E-26
   4.580000      6.3497217E-27
   4.590000     -4.1895925E-27
   4.600000     -1.5861961E-26
   4.610000     -2.8718531E-26
   4.620000     -4.2809059E-26
   4.630000     -5.8181542E-26
   4.640000     -7.4881796E-26
   4.650000     -9.2953040E-26
   4.660000     -1.1243535E-25
   4.670000     -1.3336523E-25
   4.680000     -1.5577508E-25
   4.690000     -1.7969264E-25
   4.700000     -2.0514041E-25
   4.710000     -2.3213499E-25
   4.720000     -2.6068658E-25
   4.730000     -2.9079824E-25
   4.740000     -3.2246514E-25
   4.750000     -3.5567404E-25
   4.760000     -3.9040236E-25
   4.770000     -4.2661770E-25
   4.780000     -4.6427694E-25
   4.790000     -5.0332526E-25
   4.800000     -5.4369551E-25
   4.810000     -5.8530748E-25
   4.820000     -6.2806699E-25
   4.830000     -6.7186524E-25
   4.840000     -7.1657768E-25
   4.850000     -7.6206330E-25
   4.860000     -8.0816384E-25
   4.870000     -8.5470298E-25
   4.880000     -9.0148569E-25
   4.890000     -9.4829699E-25
   4.900000     -9.9490181E-25
   4.910000     -1.0410436E-24
   4.920000     -1.0864440E-24
   4.930000     -1.1308024E-24
   4.940000     -1.1737951E-24
   4.950000     -1.2150745E-24
   4.960000     -1.2542687E-24
   4.970000     -1.2909816E-24
   4.980000     -1.3247924E-24
   4.990000     -1.3552548E-24
   5.000000     -1.3818972E-24
   5.010000     -1.4042226E-24
   5.020000     -1.4217086E-24
   5.030000     -1.4338076E-24
   5.040000     -1.4399480E-24
   5.050000     -1.4395328E-24
   5.060000     -1.4319412E-24
   5.070000     -1.4165298E-24
   5.080000     -1.3926328E-24
   5.090000     -1.3595630E-24
   5.100000     -1.3166134E-24
   5.110000     -1.2630592E-24
   5.120000     -1.1981589E-24
   5.130000     -1.1211559E-24
   5.140000     -1.0312807E-24
   5.150000     -9.2775407E-25
   5.160000     -8.0978865E-25
   5.170000     -6.7659254E-25
   5.180000     -5.2737210E-25
   5.190000     -3.6133515E-25
   5.200000     -1.7769548E-25
   5.210000      2.4323289E-26
   5.220000      2.4548454E-25
   5.230000      4.8653312E-25
   5.240000      7.4819000E-25
   5.250000      1.0311487E-24
   5.260000      1.3360686E-24
   5.270000      1.6635682E-24
   5.280000      2.0142200E-24
   5.290000      2.3885450E-24
   5.300000      2.7870036E-24
   5.310000      3.2099896E-24
   5.320000      3.6578226E-24
   5.330000      4.1307412E-24
   5.340000      4.6288926E-24
   5.350000      5.1523271E-24
   5.360000      5.7009869E-24
   5.370000      6.2746990E-24
   5.380000      6.8731644E-24
   5.390000      7.4959512E-24
   5.400000      8.1424818E-24
   5.410000      8.8120260E-24
   5.420000      9.5036905E-24
   5.430000      1.0216406E-23
   5.440000      1.0948919E-23
   5.450000      1.1699784E-23
   5.460000      1.2467350E-23
   5.470000      1.3249752E-23
   5.480000      1.4044898E-23
   5.490000      1.4850463E-23
   5.500000      1.5663873E-23
   5.510000      1.6482300E-23
   5.520000      1.7302653E-23
   5.530000      1.8121568E-23
   5.540000      1.8935394E-23
   5.550000      1.9740195E-23
   5.560000      2.0531732E-23
   5.570000      2.1305462E-23
   5.580000      2.2056526E-23
   5.590000      2.2779750E-23
   5.600000      2.3469633E-23
   5.610000      2.4120347E-23
   5.620000      2.4725736E-23
   5.630000      2.5279311E-23
   5.640000      2.5774243E-23
   5.650000      2.6203372E-23
   5.660000      2.6559214E-23
   5.670000      2.6833949E-23
   5.680000      2.7019436E-23
   5.690000      2.7107220E-23
   5.700000      2.7088537E-23
   5.710000      2.6954326E-23
   5.720000      2.6695246E-23
   5.730000      2.6301686E-23
   5.740000      2.5763779E-23
   5.750000      2.5071420E-23
   5.760000      2.4214305E-23
   5.770000      2.3181940E-23
   5.780000      2.1963655E-23
   5.790000      2.0548664E-23
   5.800000      1.8926095E-23
   5.810000      1.7084998E-23
   5.820000      1.5014404E-23
   5.830000      1.2703384E-23
   5.840000      1.0141055E-23
   5.850000      7.3166502E-24
   5.860000      4.2195700E-24
   5.870000      8.3943616E-25
   5.880000     -2.8338337E-24
   5.890000     -6.8099814E-24
   5.900000     -1.1098345E-23
   5.910000     -1.5707783E-23
   5.920000     -2.0646599E-23
   5.930000     -2.5922447E-23
   5.940000     -3.1542278E-23
   5.950000     -3.7512258E-23
   5.960000     -4.3837654E-23
   5.970000     -5.0522758E-23
   5.980000     -5.7570804E-23
   5.990000     -6.4983837E-23
   6.000000     -7.2762643E-23
   6.010000     -8.0906622E-23
   6.020000     -8.9413711E-23
   6.030000     -9.8280230E-23
   6.040000     -1.0750083E-22
   6.050000     -1.1706831E-22
   6.060000     -1.2697359E-22
   6.070000     -1.3720548E-22
   6.080000     -1.4775066E-22
   6.090000     -1.5859352E-22
   6.100000     -1.6971605E-22
   6.110000     -1.8109775E-22
   6.120000     -1.9271545E-22
   6.130000     -2.0454319E-22
   6.140000     -2.1655216E-22
   6.150000     -2.2871059E-22
   6.160000     -2.4098358E-22
   6.170000     -2.5333302E-22
   6.180000     -2.6571751E-22
   6.190000     -2.7809220E-22
   6.200000     -2.9040875E-22
   6.210000     -3.0261532E-22
   6.220000     -3.1465627E-22
   6.230000     -3.2647229E-22
   6.240000     -3.3800024E-22
   6.250000     -3.4917319E-22
   6.260000     -3.5992015E-22
   6.270000     -3.7016630E-22
   6.280000     -3.7983279E-22
   6.290000     -3.8883681E-22
   6.300000     -3.9709168E-22
   6.310000     -4.0450674E-22
   6.320000     -4.1098744E-22
   6.330000     -4.1643533E-22
   6.340000     -4.2074824E-22
   6.350000     -4.2382036E-22
   6.360000     -4.2554227E-22
   6.370000     -4.2580112E-22
   6.380000     -4.2448078E-22
   6.390000     -4.2146218E-22
   6.400000     -4.1662337E-22
   6.410000     -4.0983967E-22
   6.420000     -4.0098403E-22
   6.430000     -3.8992756E-22
   6.440000     -3.7653952E-22
   6.450000     -3.6068753E-22
   6.460000     -3.4223843E-22
   6.470000     -3.2105844E-22
   6.480000     -2.9701373E-22
   6.490000     -2.6997064E-22
   6.500000     -2.3979657E-22
   6.510000     -2.0636018E-22
   6.520000     -1.6953207E-22
   6.530000     -1.2918550E-22
   6.540000     -8.5197110E-23
   6.550000     -3.7447536E-23
   6.560000      1.4177904E-23
   6.570000      6.9788524E-23
   6.580000      1.2948715E-22
   6.590000      1.9336965E-22
   6.600000      2.6152380E-22
   6.610000      3.3402855E-22
   6.620000      4.1095296E-22
   6.630000      4.9235543E-22
   6.640000      5.7828235E-22
   6.650000      6.6876699E-22
   6.660000      7.6382890E-22
   6.670000      8.6347276E-22
   6.680000      9.6768671E-22
   6.690000      1.0764418E-21
   6.700000      1.1896906E-21
   6.710000      1.3073660E-21
   6.720000      1.4293801E-21
   6.730000      1.5556230E-21
   6.740000      1.6859613E-21
   6.750000      1.8202374E-21
   6.760000      1.9582675E-21
   6.770000      2.0998414E-21
   6.780000      2.2447206E-21
   6.790000      2.3926371E-21
   6.800000      2.5432924E-21
   6.810000      2.6963572E-21
   6.820000      2.8514681E-21
   6.830000      3.0082291E-21
   6.840000      3.1662087E-21
   6.850000      3.3249401E-21
   6.860000      3.4839191E-21
   6.870000      3.6426045E-21
   6.880000      3.8004163E-21
   6.890000      3.9567357E-21
   6.900000      4.1109039E-21
   6.910000      4.2622222E-21
   6.920000      4.4099511E-21
   6.930000      4.5533102E-21
   6.940000      4.6914776E-21
   6.950000      4.8235911E-21
   6.960000      4.9487461E-21
   6.970000      5.0659982E-21
   6.980000      5.1743625E-21
   6.990000      5.2728143E-21
   7.000000      5.3602887E-21
   7.010000      5.4356833E-21
   7.020000      5.4978588E-21
   7.030000      5.5456402E-21
   7.040000      5.5778182E-21
   7.050000      5.5931522E-21
   7.060000      5.5903693E-21