  -2.600000      0.0000000E+00
  -2.590000      0.0000000E+00
  -2.580000      0.0000000E+00
  -2.570000      0.0000000E+00
  -2.560000      0.0000000E+00
  -2.550000      0.0000000E+00
  -2.540000      0.0000000E+00
  -2.530000      0.0000000E+00
  -2.520000      0.0000000E+00
  -2.510000      0.0000000E+00
  -2.500000      0.0000000E+00
  -2.490000      0.0000000E+00
  -2.480000      0.0000000E+00
  -2.470000      0.0000000E+00
  -2.460000      0.0000000E+00
  -2.450000      0.0000000E+00
  -2.440000      0.0000000E+00
  -2.430000      0.0000000E+00
  -2.420000      0.0000000E+00
  -2.410000      0.0000000E+00
  -2.400000      0.0000000E+00
  -2.390000      0.0000000E+00
  -2.380000      0.0000000E+00
  -2.370000      0.0000000E+00
  -2.360000      0.0000000E+00
  -2.350000      0.0000000E+00
  -2.340000      0.0000000E+00
  -2.330000      0.0000000E+00
  -2.320000      0.0000000E+00
  -2.310000      0.0000000E+00
  -2.300000      0.0000000E+00
  -2.290000      0.0000000E+00
  -2.280000      0.0000000E+00
  -2.270000      0.0000000E+00
  -2.260000      0.0000000E+00
  -2.250000      0.0000000E+00
  -2.240000      0.0000000E+00
  -2.230000      0.0000000E+00
  -2.220000      0.0000000E+00
  -2.210000      0.0000000E+00
  -2.200000      0.0000000E+00
  -2.190000      0.0000000E+00
  -2.180000      0.0000000E+00
  -2.170000      0.0000000E+00
  -2.160000      0.0000000E+00
  -2.150000      0.0000000E+00
  -2.140000      0.0000000E+00
  -2.130000      0.0000000E+00
  -2.120000      0.0000000E+00
  -2.110000      0.0000000E+00
  -2.100000      0.0000000E+00
  -2.090000      0.0000000E+00
  -2.080000      0.0000000E+00
  -2.070000      0.0000000E+00
  -2.060000      0.0000000E+00
  -2.050000      0.0000000E+00
  -2.040000      0.0000000E+00
  -2.030000      0.0000000E+00
  -2.020000      0.0000000E+00
  -2.010000      0.0000000E+00
  -2.000000      0.0000000E+00
  -1.990000      0.0000000E+00
  -1.980000      0.0000000E+00
  -1.970000      0.0000000E+00
  -1.960000      0.0000000E+00
  -1.950000      0.0000000E+00
  -1.940000      0.0000000E+00
  -1.930000      0.0000000E+00
  -1.920000      0.0000000E+00
  -1.910000      0.0000000E+00
  -1.900000      0.0000000E+00
  -1.890000      0.0000000E+00
  -1.880000      0.0000000E+00
  -1.870000      0.0000000E+00
  -1.860000      0.0000000E+00
  -1.850000      0.0000000E+00
  -1.840000      0.0000000E+00
  -1.830000      0.0000000E+00
  -1.820000      0.0000000E+00
  -1.810000      0.0000000E+00
  -1.800000      0.0000000E+00
  -1.790000      0.0000000E+00
  -1.780000      0.0000000E+00
  -1.770000      0.0000000E+00
  -1.760000      0.0000000E+00
  -1.750000      0.0000000E+00
  -1.740000      0.0000000E+00
  -1.730000      0.0000000E+00
  -1.720000      0.0000000E+00
  -1.710000      0.0000000E+00
  -1.700000      0.0000000E+00
  -1.690000      0.0000000E+00
  -1.680000      0.0000000E+00
  -1.670000      0.0000000E+00
  -1.660000      0.0000000E+00
  -1.650000      0.0000000E+00
  -1.640000      0.0000000E+00
  -1.630000      0.0000000E+00
  -1.620000      0.0000000E+00
  -1.610000      0.0000000E+00
  -1.600000      0.0000000E+00
  -1.590000      0.0000000E+00
  -1.580000      0.0000000E+00
  -1.570000      0.0000000E+00
  -1.560000      0.0000000E+00
  -1.550000      0.0000000E+00
  -1.540000      0.0000000E+00
  -1.530000      0.0000000E+00
  -1.520000      0.0000000E+00
  -1.510000      0.0000000E+00
  -1.500000      0.0000000E+00
  -1.490000      0.0000000E+00
  -1.480000      0.0000000E+00
  -1.470000      0.0000000E+00
  -1.460000      0.0000000E+00
  -1.450000      0.0000000E+00
  -1.440000      0.0000000E+00
  -1.430000      0.0000000E+00
  -1.420000      0.0000000E+00
  -1.410000      0.0000000E+00
  -1.400000      0.0000000E+00
  -1.390000      0.0000000E+00
  -1.380000      0.0000000E+00
  -1.370000      0.0000000E+00
  -1.360000      0.0000000E+00
  -1.350000      0.0000000E+00
  -1.340000      0.0000000E+00
  -1.330000      0.0000000E+00
  -1.320000      0.0000000E+00
  -1.310000      0.0000000E+00
  -1.300000      0.0000000E+00
  -1.290000      0.0000000E+00
  -1.280000      0.0000000E+00
  -1.270000      0.0000000E+00
  -1.260000      0.0000000E+00
  -1.250000      0.0000000E+00
  -1.240000      0.0000000E+00
  -1.230000      0.0000000E+00
  -1.220000      0.0000000E+00
  -1.210000      0.0000000E+00
  -1.200000      0.0000000E+00
  -1.190000      0.0000000E+00
  -1.180000      0.0000000E+00
  -1.170000      0.0000000E+00
  -1.160000      0.0000000E+00
  -1.150000      0.0000000E+00
  -1.140000      0.0000000E+00
  -1.130000      0.0000000E+00
  -1.120000      0.0000000E+00
  -1.110000      0.0000000E+00
  -1.100000      0.0000000E+00
  -1.090000      0.0000000E+00
  -1.080000      0.0000000E+00
  -1.070000      0.0000000E+00
  -1.060000      0.0000000E+00
  -1.050000      0.0000000E+00
  -1.040000      0.0000000E+00
  -1.030000      0.0000000E+00
  -1.020000      0.0000000E+00
  -1.010000      0.0000000E+00
  -1.000000      0.0000000E+00
 -0.9900000      0.0000000E+00
 -0.9800000      0.0000000E+00
 -0.9700000      0.0000000E+00
 -0.9600000      0.0000000E+00
 -0.9500000      0.0000000E+00
 -0.9400000      0.0000000E+00
 -0.9300000      0.0000000E+00
 -0.9200000      0.0000000E+00
 -0.9100000      0.0000000E+00
 -0.9000000      0.0000000E+00
 -0.8900000      0.0000000E+00
 -0.8800000      0.0000000E+00
 -0.8700000      0.0000000E+00
 -0.8600000      0.0000000E+00
 -0.8500000      0.0000000E+00
 -0.8400000      0.0000000E+00
 -0.8300000      0.0000000E+00
 -0.8200000      0.0000000E+00
 -0.8100000      0.0000000E+00
 -0.8000000      0.0000000E+00
 -0.7900000      0.0000000E+00
 -0.7800000      0.0000000E+00
 -0.7700000      0.0000000E+00
 -0.7600000      0.0000000E+00
 -0.7500000      0.0000000E+00
 -0.7400000      0.0000000E+00
 -0.7300000      0.0000000E+00
 -0.7200000      0.0000000E+00
 -0.7100000      0.0000000E+00
 -0.7000000      0.0000000E+00
 -0.6900000      0.0000000E+00
 -0.6800000      0.0000000E+00
 -0.6700000      0.0000000E+00
 -0.6600000      0.0000000E+00
 -0.6500000      0.0000000E+00
 -0.6400000      0.0000000E+00
 -0.6300000      0.0000000E+00
 -0.6200000      0.0000000E+00
 -0.6100000      0.0000000E+00
 -0.6000000      0.0000000E+00
 -0.5900000      0.0000000E+00
 -0.5800000      0.0000000E+00
 -0.5700000      0.0000000E+00
 -0.5600000      0.0000000E+00
 -0.5500000      0.0000000E+00
 -0.5400000      0.0000000E+00
 -0.5300000      0.0000000E+00
 -0.5200000      0.0000000E+00
 -0.5100000      0.0000000E+00
 -0.5000000      0.0000000E+00
 -0.4900000      0.0000000E+00
 -0.4800000      0.0000000E+00
 -0.4700000      0.0000000E+00
 -0.4600000      0.0000000E+00
 -0.4500000      0.0000000E+00
 -0.4400000      0.0000000E+00
 -0.4300000      0.0000000E+00
 -0.4200000      0.0000000E+00
 -0.4100000      0.0000000E+00
 -0.4000000      0.0000000E+00
 -0.3900000      0.0000000E+00
 -0.3800000      0.0000000E+00
 -0.3700000      0.0000000E+00
 -0.3600000      0.0000000E+00
 -0.3500000      0.0000000E+00
 -0.3400000      0.0000000E+00
 -0.3300000      0.0000000E+00
 -0.3200000      0.0000000E+00
 -0.3100000      0.0000000E+00
 -0.3000000      0.0000000E+00
 -0.2900000      0.0000000E+00
 -0.2800000      0.0000000E+00
 -0.2700000      0.0000000E+00
 -0.2600000      0.0000000E+00
 -0.2500000      0.0000000E+00
 -0.2400000      0.0000000E+00
 -0.2300000      0.0000000E+00
 -0.2200000      0.0000000E+00
 -0.2100000      0.0000000E+00
 -0.2000000      0.0000000E+00
 -0.1900000      0.0000000E+00
 -0.1800000      0.0000000E+00
 -0.1700000      0.0000000E+00
 -0.1600000      0.0000000E+00
 -0.1500000      0.0000000E+00
 -0.1400000      0.0000000E+00
 -0.1300000      0.0000000E+00
 -0.1200000      0.0000000E+00
 -0.1100000      0.0000000E+00
 -0.1000000      0.0000000E+00
 -9.0000004E-02  0.0000000E+00
 -7.9999998E-02  0.0000000E+00
 -7.0000000E-02  0.0000000E+00
 -5.9999999E-02  0.0000000E+00
 -5.0000001E-02  0.0000000E+00
 -3.9999999E-02  0.0000000E+00
 -2.9999999E-02  0.0000000E+00
 -2.0000000E-02  0.0000000E+00
 -9.9999998E-03  0.0000000E+00
 -3.4694470E-17  0.0000000E+00
  9.9999998E-03  0.0000000E+00
  2.0000000E-02  0.0000000E+00
  2.9999999E-02  0.0000000E+00
  3.9999999E-02  0.0000000E+00
  5.0000001E-02  0.0000000E+00
  5.9999999E-02  0.0000000E+00
  7.0000000E-02  0.0000000E+00
  7.9999998E-02  0.0000000E+00
  9.0000004E-02  0.0000000E+00
  0.1000000      0.0000000E+00
  0.1100000      0.0000000E+00
  0.1200000      0.0000000E+00
  0.1300000      0.0000000E+00
  0.1400000      0.0000000E+00
  0.1500000      0.0000000E+00
  0.1600000      0.0000000E+00
  0.1700000      0.0000000E+00
  0.1800000      0.0000000E+00
  0.1900000      0.0000000E+00
  0.2000000      0.0000000E+00
  0.2100000      0.0000000E+00
  0.2200000      0.0000000E+00
  0.2300000      0.0000000E+00
  0.2400000      0.0000000E+00
  0.2500000      0.0000000E+00
  0.2600000      0.0000000E+00
  0.2700000      0.0000000E+00
  0.2800000      0.0000000E+00
  0.2900000      0.0000000E+00
  0.3000000      0.0000000E+00
  0.3100000      0.0000000E+00
  0.3200000      0.0000000E+00
  0.3300000      0.0000000E+00
  0.3400000      0.0000000E+00
  0.3500000      0.0000000E+00
  0.3600000      0.0000000E+00
  0.3700000      0.0000000E+00
  0.3800000      0.0000000E+00
  0.3900000      0.0000000E+00
  0.4000000      0.0000000E+00
  0.4100000      0.0000000E+00
  0.4200000      0.0000000E+00
  0.4300000      0.0000000E+00
  0.4400000      0.0000000E+00
  0.4500000      0.0000000E+00
  0.4600000      0.0000000E+00
  0.4700000      0.0000000E+00
  0.4800000      0.0000000E+00
  0.4900000      0.0000000E+00
  0.5000000      0.0000000E+00
  0.5100000      0.0000000E+00
  0.5200000      0.0000000E+00
  0.5300000      0.0000000E+00
  0.5400000      0.0000000E+00
  0.5500000      0.0000000E+00
  0.5600000      0.0000000E+00
  0.5700000      0.0000000E+00
  0.5800000      0.0000000E+00
  0.5900000      0.0000000E+00
  0.6000000      0.0000000E+00
  0.6100000      0.0000000E+00
  0.6200000      0.0000000E+00
  0.6300000      0.0000000E+00
  0.6400000      0.0000000E+00
  0.6500000      0.0000000E+00
  0.6600000      0.0000000E+00
  0.6700000      0.0000000E+00
  0.6800000      0.0000000E+00
  0.6900000      0.0000000E+00
  0.7000000      0.0000000E+00
  0.7100000      0.0000000E+00
  0.7200000      0.0000000E+00
  0.7300000      0.0000000E+00
  0.7400000      0.0000000E+00
  0.7500000      0.0000000E+00
  0.7600000      0.0000000E+00
  0.7700000      0.0000000E+00
  0.7800000      0.0000000E+00
  0.7900000      0.0000000E+00
  0.8000000      0.0000000E+00
  0.8100000      0.0000000E+00
  0.8200000      0.0000000E+00
  0.8300000      0.0000000E+00
  0.8400000      0.0000000E+00
  0.8500000      0.0000000E+00
  0.8600000      0.0000000E+00
  0.8700000      0.0000000E+00
  0.8800000      0.0000000E+00
  0.8900000      0.0000000E+00
  0.9000000      0.0000000E+00
  0.9100000      0.0000000E+00
  0.9200000      0.0000000E+00
  0.9300000      0.0000000E+00
  0.9400000      0.0000000E+00
  0.9500000      0.0000000E+00
  0.9600000      0.0000000E+00
  0.9700000      0.0000000E+00
  0.9800000      0.0000000E+00
  0.9900000      0.0000000E+00
   1.000000      0.0000000E+00
   1.010000      0.0000000E+00
   1.020000      0.0000000E+00
   1.030000      0.0000000E+00
   1.040000      0.0000000E+00
   1.050000      0.0000000E+00
   1.060000      0.0000000E+00
   1.070000      0.0000000E+00
   1.080000      0.0000000E+00
   1.090000      0.0000000E+00
   1.100000      0.0000000E+00
   1.110000      0.0000000E+00
   1.120000      0.0000000E+00
   1.130000      0.0000000E+00
   1.140000      0.0000000E+00
   1.150000      0.0000000E+00
   1.160000      0.0000000E+00
   1.170000      0.0000000E+00
   1.180000      0.0000000E+00
   1.190000      0.0000000E+00
   1.200000      0.0000000E+00
   1.210000      0.0000000E+00
   1.220000      0.0000000E+00
   1.230000      0.0000000E+00
   1.240000      0.0000000E+00
   1.250000      0.0000000E+00
   1.260000      0.0000000E+00
   1.270000      0.0000000E+00
   1.280000      0.0000000E+00
   1.290000      0.0000000E+00
   1.300000      0.0000000E+00
   1.310000      0.0000000E+00
   1.320000      0.0000000E+00
   1.330000      0.0000000E+00
   1.340000      0.0000000E+00
   1.350000      0.0000000E+00
   1.360000      0.0000000E+00
   1.370000      0.0000000E+00
   1.380000      0.0000000E+00
   1.390000      0.0000000E+00
   1.400000      0.0000000E+00
   1.410000      0.0000000E+00
   1.420000      0.0000000E+00
   1.430000      0.0000000E+00
   1.440000      0.0000000E+00
   1.450000      0.0000000E+00
   1.460000      0.0000000E+00
   1.470000      0.0000000E+00
   1.480000      0.0000000E+00
   1.490000      0.0000000E+00
   1.500000      0.0000000E+00
   1.510000      0.0000000E+00
   1.520000      0.0000000E+00
   1.530000      0.0000000E+00
   1.540000      0.0000000E+00
   1.550000      0.0000000E+00
   1.560000      0.0000000E+00
   1.570000      0.0000000E+00
   1.580000      0.0000000E+00
   1.590000      0.0000000E+00
   1.600000      0.0000000E+00
   1.610000      0.0000000E+00
   1.620000      0.0000000E+00
   1.630000      0.0000000E+00
   1.640000      0.0000000E+00
   1.650000      0.0000000E+00
   1.660000      0.0000000E+00
   1.670000      0.0000000E+00
   1.680000      0.0000000E+00
   1.690000      0.0000000E+00
   1.700000      0.0000000E+00
   1.710000      0.0000000E+00
   1.720000      0.0000000E+00
   1.730000      0.0000000E+00
   1.740000      0.0000000E+00
   1.750000      0.0000000E+00
   1.760000      0.0000000E+00
   1.770000      0.0000000E+00
   1.780000      0.0000000E+00
   1.790000      0.0000000E+00
   1.800000      0.0000000E+00
   1.810000      0.0000000E+00
   1.820000      0.0000000E+00
   1.830000      0.0000000E+00
   1.840000      0.0000000E+00
   1.850000      0.0000000E+00
   1.860000      0.0000000E+00
   1.870000      0.0000000E+00
   1.880000      0.0000000E+00
   1.890000      0.0000000E+00
   1.900000      0.0000000E+00
   1.910000      0.0000000E+00
   1.920000      0.0000000E+00
   1.930000      0.0000000E+00
   1.940000      0.0000000E+00
   1.950000      0.0000000E+00
   1.960000      0.0000000E+00
   1.970000      0.0000000E+00
   1.980000      0.0000000E+00
   1.990000      0.0000000E+00
   2.000000      0.0000000E+00
   2.010000      0.0000000E+00
   2.020000      0.0000000E+00
   2.030000      0.0000000E+00
   2.040000      0.0000000E+00
   2.050000      0.0000000E+00
   2.060000      0.0000000E+00
   2.070000      0.0000000E+00
   2.080000      0.0000000E+00
   2.090000      0.0000000E+00
   2.100000      0.0000000E+00
   2.110000      0.0000000E+00
   2.120000      0.0000000E+00
   2.130000      0.0000000E+00
   2.140000      0.0000000E+00
   2.150000      0.0000000E+00
   2.160000      0.0000000E+00
   2.170000      0.0000000E+00
   2.180000      0.0000000E+00
   2.190000      0.0000000E+00
   2.200000      0.0000000E+00
   2.210000      0.0000000E+00
   2.220000      0.0000000E+00
   2.230000      0.0000000E+00
   2.240000      0.0000000E+00
   2.250000      0.0000000E+00
   2.260000      0.0000000E+00
   2.270000      0.0000000E+00
   2.280000      0.0000000E+00
   2.290000      0.0000000E+00
   2.300000      0.0000000E+00
   2.310000      0.0000000E+00
   2.320000      0.0000000E+00
   2.330000      0.0000000E+00
   2.340000      0.0000000E+00
   2.350000      0.0000000E+00
   2.360000      0.0000000E+00
   2.370000      0.0000000E+00
   2.380000      0.0000000E+00
   2.390000      0.0000000E+00
   2.400000      0.0000000E+00
   2.410000      0.0000000E+00
   2.420000      0.0000000E+00
   2.430000      0.0000000E+00
   2.440000      0.0000000E+00
   2.450000      0.0000000E+00
   2.460000      0.0000000E+00
   2.470000      0.0000000E+00
   2.480000      0.0000000E+00
   2.490000      0.0000000E+00
   2.500000      0.0000000E+00
   2.510000      0.0000000E+00
   2.520000      0.0000000E+00
   2.530000      0.0000000E+00
   2.540000      0.0000000E+00
   2.550000      0.0000000E+00
   2.560000      0.0000000E+00
   2.570000      0.0000000E+00
   2.580000      0.0000000E+00
   2.590000      0.0000000E+00
   2.600000      0.0000000E+00
   2.610000      0.0000000E+00
   2.620000      0.0000000E+00
   2.630000      0.0000000E+00
   2.640000      0.0000000E+00
   2.650000      0.0000000E+00
   2.660000      0.0000000E+00
   2.670000      0.0000000E+00
   2.680000      0.0000000E+00
   2.690000      0.0000000E+00
   2.700000      0.0000000E+00
   2.710000      0.0000000E+00
   2.720000      0.0000000E+00
   2.730000      0.0000000E+00
   2.740000      0.0000000E+00
   2.750000     -1.2057722E-38
   2.760000     -3.0438223E-38
   2.770000     -5.0879107E-38
   2.780000     -7.4117030E-38
   2.790000     -1.0058363E-37
   2.800000     -1.2994296E-37
   2.810000     -1.6040874E-37
   2.820000     -1.6085755E-37
   2.830000     -1.2602737E-37
   2.840000     -8.4065476E-38
   2.850000     -4.0756351E-38
   2.860000      0.0000000E+00
   2.870000      2.7555197E-38
   2.880000      4.0475539E-38
   2.890000      4.0878951E-38
   2.900000      0.0000000E+00
   2.910000     -6.5463491E-38
   2.920000     -1.0663187E-37
   2.930000     -1.1709145E-37
   2.940000     -1.2568874E-37
   2.950000     -1.3375614E-37
   2.960000     -1.3972855E-37
   2.970000     -1.4009727E-37
   2.980000     -1.3546191E-37
   2.990000     -1.2236556E-37
   3.000000     -9.4540081E-38
   3.010000     -1.4399823E-38
   3.020000      1.1191869E-37
   3.030000      2.1528260E-37
   3.040000      2.8489373E-37
   3.050000      3.3649793E-37
   3.060000      3.5080861E-37
   3.070000      3.4044842E-37
   3.080000      3.3674052E-37
   3.090000      3.4204563E-37
   3.100000      3.6174329E-37
   3.110000      4.3017814E-37
   3.120000      5.5413408E-37
   3.130000      7.0031382E-37
   3.140000      8.5841051E-37
   3.150000      1.0250293E-36
   3.160000      1.1947151E-36
   3.170000      1.3425168E-36
   3.180000      1.4710957E-36
   3.190000      1.5705244E-36
   3.200000      1.6471152E-36
   3.210000      1.7455987E-36
   3.220000      1.8383470E-36
   3.230000      1.9126658E-36
   3.240000      1.9816197E-36
   3.250000      1.9885630E-36
   3.260000      1.9254610E-36
   3.270000      1.8248929E-36
   3.280000      1.6992498E-36
   3.290000      1.5648152E-36
   3.300000      1.4502264E-36
   3.310000      1.3961416E-36
   3.320000      1.4710543E-36
   3.330000      1.6712050E-36
   3.340000      1.9241147E-36
   3.350000      2.1813099E-36
   3.360000      2.4680791E-36
   3.370000      2.8033189E-36
   3.380000      2.9475781E-36
   3.390000      2.8391033E-36
   3.400000      2.5928169E-36
   3.410000      2.2224536E-36
   3.420000      1.7567800E-36
   3.430000      1.2263541E-36
   3.440000      7.2359313E-37
   3.450000     -3.1738079E-38
   3.460000     -1.2906705E-36
   3.470000     -2.3195478E-36
   3.480000     -2.8754514E-36
   3.490000     -3.3511318E-36
   3.500000     -3.7972127E-36
   3.510000     -4.2113029E-36
   3.520000     -4.3978559E-36
   3.530000     -4.1761492E-36
   3.540000     -3.8707094E-36
   3.550000     -4.1216854E-36
   3.560000     -4.6183171E-36
   3.570000     -4.9780937E-36
   3.580000     -5.4335447E-36
   3.590000     -5.9446968E-36
   3.600000     -6.6745049E-36
   3.610000     -7.7523910E-36
   3.620000     -8.6203297E-36
   3.630000     -9.3165346E-36
   3.640000     -1.0163619E-35
   3.650000     -1.1494687E-35
   3.660000     -1.2818140E-35
   3.670000     -1.3464019E-35
   3.680000     -1.3601112E-35
   3.690000     -1.2784394E-35
   3.700000     -1.1936824E-35
   3.710000     -1.1334488E-35
   3.720000     -1.0139024E-35
   3.730000     -8.6784687E-36
   3.740000     -7.2605904E-36
   3.750000     -6.1224480E-36
   3.760000     -5.7111361E-36
   3.770000     -5.7663763E-36
   3.780000     -5.5785910E-36
   3.790000     -4.9411888E-36
   3.800000     -4.6029253E-36
   3.810000     -4.2638862E-36
   3.820000     -2.4244926E-36
   3.830000      6.6465985E-37
   3.840000      3.8953959E-36
   3.850000      6.2773343E-36
   3.860000      8.2503962E-36
   3.870000      1.0535465E-35
   3.880000      1.2859946E-35
   3.890000      1.5661561E-35
   3.900000      1.9368326E-35
   3.910000      2.3872151E-35
   3.920000      2.9373064E-35
   3.930000      3.5008701E-35
   3.940000      4.0038135E-35
   3.950000      4.4805884E-35
   3.960000      4.9650907E-35
   3.970000      5.5095971E-35
   3.980000      6.1808779E-35
   3.990000      6.8736929E-35
   4.000000      7.5473057E-35
   4.010000      8.2729588E-35
   4.020000      8.8854809E-35
   4.030000      9.2763591E-35
   4.040000      9.4729778E-35
   4.050000      9.5666397E-35
   4.060000      9.6840255E-35
   4.070000      9.9251614E-35
   4.080000      1.0227288E-34
   4.090000      1.0242895E-34
   4.100000      9.9464351E-35
   4.110000      9.5994226E-35
   4.120000      9.3615148E-35
   4.130000      9.4579483E-35
   4.140000      9.7927989E-35
   4.150000      1.0028517E-34
   4.160000      1.0013385E-34
   4.170000      9.6544223E-35
   4.180000      9.0148231E-35
   4.190000      8.5758977E-35
   4.200000      8.4795697E-35
   4.210000      8.5053669E-35
   4.220000      8.3158282E-35
   4.230000      7.6224702E-35
   4.240000      6.6514493E-35
   4.250000      5.4909941E-35
   4.260000      3.8775285E-35
   4.270000      1.6346077E-35
   4.280000     -1.2338003E-35
   4.290000     -4.5193990E-35
   4.300000     -8.2326889E-35
   4.310000     -1.2190819E-34
   4.320000     -1.5712391E-34
   4.330000     -1.8789390E-34
   4.340000     -2.1789558E-34
   4.350000     -2.4896509E-34
   4.360000     -2.8343777E-34
   4.370000     -3.2375114E-34
   4.380000     -3.6793127E-34
   4.390000     -4.0068718E-34
   4.400000     -4.2191904E-34
   4.410000     -4.4283577E-34
   4.420000     -4.6481145E-34
   4.430000     -4.9218596E-34
   4.440000     -5.2887865E-34
   4.450000     -5.7680530E-34
   4.460000     -6.3634234E-34
   4.470000     -7.1068129E-34
   4.480000     -7.9732836E-34
   4.490000     -8.8845039E-34
   4.500000     -9.8228725E-34
   4.510000     -1.0736117E-33
   4.520000     -1.1405104E-33
   4.530000     -1.1748204E-33
   4.540000     -1.1821912E-33
   4.550000     -1.1675184E-33
   4.560000     -1.1333807E-33
   4.570000     -1.0843583E-33
   4.580000     -1.0351887E-33
   4.590000     -9.9839061E-34
   4.600000     -9.7377263E-34
   4.610000     -9.5568168E-34
   4.620000     -9.4029308E-34
   4.630000     -9.2206888E-34
   4.640000     -9.1189470E-34
   4.650000     -9.2109781E-34
   4.660000     -9.3962617E-34
   4.670000     -9.4785464E-34
   4.680000     -9.2784919E-34
   4.690000     -8.6873863E-34
   4.700000     -7.7513200E-34
   4.710000     -6.6201169E-34
   4.720000     -5.1882620E-34
   4.730000     -3.3370739E-34
   4.740000     -1.1933973E-34
   4.750000      1.1853744E-34
   4.760000      3.8255633E-34
   4.770000      6.6815099E-34
   4.780000      9.6196975E-34
   4.790000      1.2423823E-33
   4.800000      1.5001554E-33
   4.810000      1.7425885E-33
   4.820000      1.9702250E-33
   4.830000      2.1978828E-33
   4.840000      2.4408839E-33
   4.850000      2.7048314E-33
   4.860000      2.9966229E-33
   4.870000      3.3172080E-33
   4.880000      3.6766135E-33
   4.890000      4.0806353E-33
   4.900000      4.5229959E-33
   4.910000      4.9974713E-33
   4.920000      5.4939983E-33
   4.930000      6.0003267E-33
   4.940000      6.5034365E-33
   4.950000      6.9896040E-33
   4.960000      7.4484847E-33
   4.970000      7.8719742E-33
   4.980000      8.2538996E-33
   4.990000      8.5934228E-33
   5.000000      8.8944191E-33
   5.010000      9.1587797E-33
   5.020000      9.3899576E-33
   5.030000      9.5983110E-33
   5.040000      9.7909026E-33
   5.050000      9.9658727E-33
   5.060000      1.0124677E-32
   5.070000      1.0259332E-32
   5.080000      1.0363613E-32
   5.090000      1.0427273E-32
   5.100000      1.0428390E-32
   5.110000      1.0349628E-32
   5.120000      1.0170224E-32
   5.130000      9.8837247E-33
   5.140000      9.4760383E-33
   5.150000      8.9253677E-33
   5.160000      8.2301568E-33
   5.170000      7.3996069E-33
   5.180000      6.4318312E-33
   5.190000      5.3232030E-33
   5.200000      4.0819725E-33
   5.210000      2.7140793E-33
   5.220000      1.2204201E-33
   5.230000     -4.0227616E-34
   5.240000     -2.1583059E-33
   5.250000     -4.0545280E-33
   5.260000     -6.1029430E-33
   5.270000     -8.3166945E-33
   5.280000     -1.0710279E-32
   5.290000     -1.3296766E-32
   5.300000     -1.6087526E-32
   5.310000     -1.9090925E-32
   5.320000     -2.2310620E-32
   5.330000     -2.5745660E-32
   5.340000     -2.9389742E-32
   5.350000     -3.3232227E-32
   5.360000     -3.7258748E-32
   5.370000     -4.1452157E-32
   5.380000     -4.5793951E-32
   5.390000     -5.0265514E-32
   5.400000     -5.4849013E-32
   5.410000     -5.9528233E-32
   5.420000     -6.4288738E-32
   5.430000     -6.9117434E-32
   5.440000     -7.4002083E-32
   5.450000     -7.8930061E-32
   5.460000     -8.3887080E-32
   5.470000     -8.8855500E-32
   5.480000     -9.3813195E-32
   5.490000     -9.8732944E-32
   5.500000     -1.0358055E-31
   5.510000     -1.0831569E-31
   5.520000     -1.1289246E-31
   5.530000     -1.1725841E-31
   5.540000     -1.2135632E-31
   5.550000     -1.2512608E-31
   5.560000     -1.2850541E-31
   5.570000     -1.3143126E-31
   5.580000     -1.3384106E-31
   5.590000     -1.3567228E-31
   5.600000     -1.3686459E-31
   5.610000     -1.3735818E-31
   5.620000     -1.3709182E-31
   5.630000     -1.3600361E-31
   5.640000     -1.3402884E-31
   5.650000     -1.3109676E-31
   5.660000     -1.2713935E-31
   5.670000     -1.2208266E-31
   5.680000     -1.1584068E-31
   5.690000     -1.0832588E-31
   5.700000     -9.9446987E-32
   5.710000     -8.9110107E-32
   5.720000     -7.7220246E-32
   5.730000     -6.3683600E-32
   5.740000     -4.8408400E-32
   5.750000     -3.1307064E-32
   5.760000     -1.2298059E-32
   5.770000      8.6941340E-33
   5.780000      3.1738365E-32
   5.790000      5.6896777E-32
   5.800000      8.4225164E-32
   5.810000      1.1377352E-31
   5.820000      1.4558655E-31
   5.830000      1.7970411E-31
   5.840000      2.1616128E-31
   5.850000      2.5498798E-31
   5.860000      2.9620821E-31
   5.870000      3.3983868E-31
   5.880000      3.8588698E-31
   5.890000      4.3434939E-31
   5.900000      4.8520857E-31
   5.910000      5.3843100E-31
   5.920000      5.9396488E-31
   5.930000      6.5173798E-31
   5.940000      7.1165622E-31
   5.950000      7.7360224E-31
   5.960000      8.3743478E-31
   5.970000      9.0298871E-31
   5.980000      9.7007427E-31
   5.990000      1.0384780E-30
   6.000000      1.1079623E-30
   6.010000      1.1782656E-30
   6.020000      1.2491019E-30
   6.030000      1.3201599E-30
   6.040000      1.3911024E-30
   6.050000      1.4615638E-30
   6.060000      1.5311490E-30
   6.070000      1.5994310E-30
   6.080000      1.6659490E-30
   6.090000      1.7302060E-30
   6.100000      1.7916680E-30
   6.110000      1.8497624E-30
   6.120000      1.9038777E-30
   6.130000      1.9533635E-30
   6.140000      1.9975313E-30
   6.150000      2.0356557E-30
   6.160000      2.0669759E-30
   6.170000      2.0906974E-30
   6.180000      2.1059937E-30
   6.190000      2.1120090E-30
   6.200000      2.1078587E-30
   6.210000      2.0926316E-30
   6.220000      2.0653913E-30
   6.230000      2.0251767E-30
   6.240000      1.9710044E-30
   6.250000      1.9018692E-30
   6.260000      1.8167446E-30
   6.270000      1.7145887E-30
   6.280000      1.5943433E-30
   6.290000      1.4549390E-30
   6.300000      1.2952995E-30
   6.310000      1.1143465E-30
   6.320000      9.1100586E-31
   6.330000      6.8421497E-31
   6.340000      4.3292944E-31
   6.350000      1.5613004E-31
   6.360000     -1.4716859E-31
   6.370000     -4.7791011E-31
   6.380000     -8.3698884E-31
   6.390000     -1.2252407E-30
   6.400000     -1.6434368E-30
   6.410000     -2.0922746E-30
   6.420000     -2.5723700E-30
   6.430000     -3.0842483E-30
   6.440000     -3.6283339E-30
   6.450000     -4.2049427E-30
   6.460000     -4.8142708E-30
   6.470000     -5.4563826E-30
   6.480000     -6.1311999E-30
   6.490000     -6.8384882E-30
   6.500000     -7.5778414E-30
   6.510000     -8.3486701E-30
   6.520000     -9.1501865E-30
   6.530000     -9.9813900E-30
   6.540000     -1.0841054E-29
   6.550000     -1.1727708E-29
   6.560000     -1.2639633E-29
   6.570000     -1.3574836E-29
   6.580000     -1.4531048E-29
   6.590000     -1.5505707E-29
   6.600000     -1.6495945E-29
   6.610000     -1.7498578E-29
   6.620000     -1.8510093E-29
   6.630000     -1.9526638E-29
   6.640000     -2.0544006E-29
   6.650000     -2.1557628E-29
   6.660000     -2.2562561E-29
   6.670000     -2.3553479E-29
   6.680000     -2.4524660E-29
   6.690000     -2.5469975E-29
   6.700000     -2.6382884E-29
   6.710000     -2.7256429E-29
   6.720000     -2.8083221E-29
   6.730000     -2.8855462E-29
   6.740000     -2.9564914E-29
   6.750000     -3.0202918E-29
   6.760000     -3.0760390E-29
   6.770000     -3.1227835E-29
   6.780000     -3.1595344E-29
   6.790000     -3.1852609E-29
   6.800000     -3.1988932E-29
   6.810000     -3.1993253E-29
   6.820000     -3.1854150E-29
   6.830000     -3.1559862E-29
   6.840000     -3.1098328E-29
   6.850000     -3.0457183E-29
   6.860000     -2.9623812E-29
   6.870000     -2.8585371E-29
   6.880000     -2.7328832E-29
   6.890000     -2.5841003E-29
   6.900000     -2.4108589E-29
   6.910000     -2.2118240E-29
   6.920000     -1.9856603E-29
   6.930000     -1.7310368E-29
   6.940000     -1.4466340E-29
   6.950000     -1.1311507E-29
   6.960000     -7.8331197E-30
   6.970000     -4.0187541E-30
   6.980000      1.4361518E-31
   6.990000      4.6655220E-30
   7.000000      9.5579156E-30
   7.010000      1.4831070E-29
   7.020000      2.0494475E-29
   7.030000      2.6556741E-29
   7.040000      3.3025504E-29
   7.050000      3.9907300E-29
   7.060000      4.7207462E-29