  -2.600000      0.0000000E+00
  -2.590000      0.0000000E+00
  -2.580000      0.0000000E+00
  -2.570000      0.0000000E+00
  -2.560000      0.0000000E+00
  -2.550000      0.0000000E+00
  -2.540000      0.0000000E+00
  -2.530000      0.0000000E+00
  -2.520000      0.0000000E+00
  -2.510000      0.0000000E+00
  -2.500000      0.0000000E+00
  -2.490000      0.0000000E+00
  -2.480000      0.0000000E+00
  -2.470000      0.0000000E+00
  -2.460000      0.0000000E+00
  -2.450000      0.0000000E+00
  -2.440000      0.0000000E+00
  -2.430000      0.0000000E+00
  -2.420000      0.0000000E+00
  -2.410000      0.0000000E+00
  -2.400000      0.0000000E+00
  -2.390000      0.0000000E+00
  -2.380000      0.0000000E+00
  -2.370000      0.0000000E+00
  -2.360000      0.0000000E+00
  -2.350000      0.0000000E+00
  -2.340000      0.0000000E+00
  -2.330000      0.0000000E+00
  -2.320000      0.0000000E+00
  -2.310000      0.0000000E+00
  -2.300000      0.0000000E+00
  -2.290000      0.0000000E+00
  -2.280000      0.0000000E+00
  -2.270000      0.0000000E+00
  -2.260000      0.0000000E+00
  -2.250000      0.0000000E+00
  -2.240000      0.0000000E+00
  -2.230000      0.0000000E+00
  -2.220000      0.0000000E+00
  -2.210000      0.0000000E+00
  -2.200000      0.0000000E+00
  -2.190000      0.0000000E+00
  -2.180000      0.0000000E+00
  -2.170000      0.0000000E+00
  -2.160000      0.0000000E+00
  -2.150000      0.0000000E+00
  -2.140000      0.0000000E+00
  -2.130000      0.0000000E+00
  -2.120000      0.0000000E+00
  -2.110000      0.0000000E+00
  -2.100000      0.0000000E+00
  -2.090000      0.0000000E+00
  -2.080000      0.0000000E+00
  -2.070000      0.0000000E+00
  -2.060000      0.0000000E+00
  -2.050000      0.0000000E+00
  -2.040000      0.0000000E+00
  -2.030000      0.0000000E+00
  -2.020000      0.0000000E+00
  -2.010000      0.0000000E+00
  -2.000000      0.0000000E+00
  -1.990000      0.0000000E+00
  -1.980000      0.0000000E+00
  -1.970000      0.0000000E+00
  -1.960000      0.0000000E+00
  -1.950000      0.0000000E+00
  -1.940000      0.0000000E+00
  -1.930000      0.0000000E+00
  -1.920000      0.0000000E+00
  -1.910000      0.0000000E+00
  -1.900000      0.0000000E+00
  -1.890000      0.0000000E+00
  -1.880000      0.0000000E+00
  -1.870000      0.0000000E+00
  -1.860000      0.0000000E+00
  -1.850000      0.0000000E+00
  -1.840000      0.0000000E+00
  -1.830000      0.0000000E+00
  -1.820000      0.0000000E+00
  -1.810000      0.0000000E+00
  -1.800000      0.0000000E+00
  -1.790000      0.0000000E+00
  -1.780000      0.0000000E+00
  -1.770000      0.0000000E+00
  -1.760000      0.0000000E+00
  -1.750000      0.0000000E+00
  -1.740000      0.0000000E+00
  -1.730000      0.0000000E+00
  -1.720000      0.0000000E+00
  -1.710000      0.0000000E+00
  -1.700000      0.0000000E+00
  -1.690000      0.0000000E+00
  -1.680000      0.0000000E+00
  -1.670000      0.0000000E+00
  -1.660000      0.0000000E+00
  -1.650000      0.0000000E+00
  -1.640000      0.0000000E+00
  -1.630000      0.0000000E+00
  -1.620000      0.0000000E+00
  -1.610000      0.0000000E+00
  -1.600000      0.0000000E+00
  -1.590000      0.0000000E+00
  -1.580000      0.0000000E+00
  -1.570000      0.0000000E+00
  -1.560000      0.0000000E+00
  -1.550000      0.0000000E+00
  -1.540000      0.0000000E+00
  -1.530000      0.0000000E+00
  -1.520000      0.0000000E+00
  -1.510000      0.0000000E+00
  -1.500000      0.0000000E+00
  -1.490000      0.0000000E+00
  -1.480000      0.0000000E+00
  -1.470000      0.0000000E+00
  -1.460000      0.0000000E+00
  -1.450000      0.0000000E+00
  -1.440000      0.0000000E+00
  -1.430000      0.0000000E+00
  -1.420000      0.0000000E+00
  -1.410000      0.0000000E+00
  -1.400000      0.0000000E+00
  -1.390000      0.0000000E+00
  -1.380000      0.0000000E+00
  -1.370000      0.0000000E+00
  -1.360000      0.0000000E+00
  -1.350000      0.0000000E+00
  -1.340000      0.0000000E+00
  -1.330000      0.0000000E+00
  -1.320000      0.0000000E+00
  -1.310000      0.0000000E+00
  -1.300000      0.0000000E+00
  -1.290000      0.0000000E+00
  -1.280000      0.0000000E+00
  -1.270000      0.0000000E+00
  -1.260000      0.0000000E+00
  -1.250000      0.0000000E+00
  -1.240000      0.0000000E+00
  -1.230000      0.0000000E+00
  -1.220000      0.0000000E+00
  -1.210000      0.0000000E+00
  -1.200000      0.0000000E+00
  -1.190000      0.0000000E+00
  -1.180000      0.0000000E+00
  -1.170000      0.0000000E+00
  -1.160000      0.0000000E+00
  -1.150000      0.0000000E+00
  -1.140000      0.0000000E+00
  -1.130000      0.0000000E+00
  -1.120000      0.0000000E+00
  -1.110000      0.0000000E+00
  -1.100000      0.0000000E+00
  -1.090000      0.0000000E+00
  -1.080000      0.0000000E+00
  -1.070000      0.0000000E+00
  -1.060000      0.0000000E+00
  -1.050000      0.0000000E+00
  -1.040000      0.0000000E+00
  -1.030000      0.0000000E+00
  -1.020000      0.0000000E+00
  -1.010000      0.0000000E+00
  -1.000000      0.0000000E+00
 -0.9900000      0.0000000E+00
 -0.9800000      0.0000000E+00
 -0.9700000      0.0000000E+00
 -0.9600000      0.0000000E+00
 -0.9500000      0.0000000E+00
 -0.9400000      0.0000000E+00
 -0.9300000      0.0000000E+00
 -0.9200000      0.0000000E+00
 -0.9100000      0.0000000E+00
 -0.9000000      0.0000000E+00
 -0.8900000      0.0000000E+00
 -0.8800000      0.0000000E+00
 -0.8700000      0.0000000E+00
 -0.8600000      0.0000000E+00
 -0.8500000      0.0000000E+00
 -0.8400000      0.0000000E+00
 -0.8300000      0.0000000E+00
 -0.8200000      0.0000000E+00
 -0.8100000      0.0000000E+00
 -0.8000000      0.0000000E+00
 -0.7900000      0.0000000E+00
 -0.7800000      0.0000000E+00
 -0.7700000      0.0000000E+00
 -0.7600000      0.0000000E+00
 -0.7500000      0.0000000E+00
 -0.7400000      0.0000000E+00
 -0.7300000      0.0000000E+00
 -0.7200000      0.0000000E+00
 -0.7100000      0.0000000E+00
 -0.7000000      0.0000000E+00
 -0.6900000      0.0000000E+00
 -0.6800000      0.0000000E+00
 -0.6700000      0.0000000E+00
 -0.6600000      0.0000000E+00
 -0.6500000      0.0000000E+00
 -0.6400000      0.0000000E+00
 -0.6300000      0.0000000E+00
 -0.6200000      0.0000000E+00
 -0.6100000      0.0000000E+00
 -0.6000000      0.0000000E+00
 -0.5900000      0.0000000E+00
 -0.5800000      0.0000000E+00
 -0.5700000      0.0000000E+00
 -0.5600000      0.0000000E+00
 -0.5500000      0.0000000E+00
 -0.5400000      0.0000000E+00
 -0.5300000      0.0000000E+00
 -0.5200000      0.0000000E+00
 -0.5100000      0.0000000E+00
 -0.5000000      0.0000000E+00
 -0.4900000      0.0000000E+00
 -0.4800000      0.0000000E+00
 -0.4700000      0.0000000E+00
 -0.4600000      0.0000000E+00
 -0.4500000      0.0000000E+00
 -0.4400000      0.0000000E+00
 -0.4300000      0.0000000E+00
 -0.4200000      0.0000000E+00
 -0.4100000      0.0000000E+00
 -0.4000000      0.0000000E+00
 -0.3900000      0.0000000E+00
 -0.3800000      0.0000000E+00
 -0.3700000      0.0000000E+00
 -0.3600000      0.0000000E+00
 -0.3500000      0.0000000E+00
 -0.3400000      0.0000000E+00
 -0.3300000      0.0000000E+00
 -0.3200000      0.0000000E+00
 -0.3100000      0.0000000E+00
 -0.3000000      0.0000000E+00
 -0.2900000      0.0000000E+00
 -0.2800000      0.0000000E+00
 -0.2700000      0.0000000E+00
 -0.2600000      0.0000000E+00
 -0.2500000      0.0000000E+00
 -0.2400000      0.0000000E+00
 -0.2300000      0.0000000E+00
 -0.2200000      0.0000000E+00
 -0.2100000      0.0000000E+00
 -0.2000000      0.0000000E+00
 -0.1900000      0.0000000E+00
 -0.1800000      0.0000000E+00
 -0.1700000      0.0000000E+00
 -0.1600000      0.0000000E+00
 -0.1500000      0.0000000E+00
 -0.1400000      0.0000000E+00
 -0.1300000      0.0000000E+00
 -0.1200000      0.0000000E+00
 -0.1100000      0.0000000E+00
 -0.1000000      0.0000000E+00
 -9.0000004E-02  0.0000000E+00
 -7.9999998E-02  0.0000000E+00
 -7.0000000E-02  0.0000000E+00
 -5.9999999E-02  0.0000000E+00
 -5.0000001E-02  0.0000000E+00
 -3.9999999E-02  0.0000000E+00
 -2.9999999E-02  0.0000000E+00
 -2.0000000E-02  0.0000000E+00
 -9.9999998E-03  0.0000000E+00
 -3.4694470E-17  0.0000000E+00
  9.9999998E-03  0.0000000E+00
  2.0000000E-02  0.0000000E+00
  2.9999999E-02  0.0000000E+00
  3.9999999E-02  0.0000000E+00
  5.0000001E-02  0.0000000E+00
  5.9999999E-02  0.0000000E+00
  7.0000000E-02  0.0000000E+00
  7.9999998E-02  0.0000000E+00
  9.0000004E-02  0.0000000E+00
  0.1000000      0.0000000E+00
  0.1100000      0.0000000E+00
  0.1200000      0.0000000E+00
  0.1300000      0.0000000E+00
  0.1400000      0.0000000E+00
  0.1500000      0.0000000E+00
  0.1600000      0.0000000E+00
  0.1700000      0.0000000E+00
  0.1800000      0.0000000E+00
  0.1900000      0.0000000E+00
  0.2000000      0.0000000E+00
  0.2100000      0.0000000E+00
  0.2200000      0.0000000E+00
  0.2300000      0.0000000E+00
  0.2400000      0.0000000E+00
  0.2500000      0.0000000E+00
  0.2600000      0.0000000E+00
  0.2700000      0.0000000E+00
  0.2800000      0.0000000E+00
  0.2900000      0.0000000E+00
  0.3000000      0.0000000E+00
  0.3100000      0.0000000E+00
  0.3200000      0.0000000E+00
  0.3300000      0.0000000E+00
  0.3400000      0.0000000E+00
  0.3500000      0.0000000E+00
  0.3600000      0.0000000E+00
  0.3700000      0.0000000E+00
  0.3800000      0.0000000E+00
  0.3900000      0.0000000E+00
  0.4000000      0.0000000E+00
  0.4100000      0.0000000E+00
  0.4200000      0.0000000E+00
  0.4300000      0.0000000E+00
  0.4400000      0.0000000E+00
  0.4500000      0.0000000E+00
  0.4600000      0.0000000E+00
  0.4700000      0.0000000E+00
  0.4800000      0.0000000E+00
  0.4900000      0.0000000E+00
  0.5000000      0.0000000E+00
  0.5100000      0.0000000E+00
  0.5200000      0.0000000E+00
  0.5300000      0.0000000E+00
  0.5400000      0.0000000E+00
  0.5500000      0.0000000E+00
  0.5600000      0.0000000E+00
  0.5700000      0.0000000E+00
  0.5800000      0.0000000E+00
  0.5900000      0.0000000E+00
  0.6000000      0.0000000E+00
  0.6100000      0.0000000E+00
  0.6200000      0.0000000E+00
  0.6300000      0.0000000E+00
  0.6400000      0.0000000E+00
  0.6500000      0.0000000E+00
  0.6600000      0.0000000E+00
  0.6700000      0.0000000E+00
  0.6800000      0.0000000E+00
  0.6900000      0.0000000E+00
  0.7000000      0.0000000E+00
  0.7100000      0.0000000E+00
  0.7200000      0.0000000E+00
  0.7300000      0.0000000E+00
  0.7400000      0.0000000E+00
  0.7500000      0.0000000E+00
  0.7600000      0.0000000E+00
  0.7700000      0.0000000E+00
  0.7800000      0.0000000E+00
  0.7900000      0.0000000E+00
  0.8000000      0.0000000E+00
  0.8100000      0.0000000E+00
  0.8200000      0.0000000E+00
  0.8300000      0.0000000E+00
  0.8400000      0.0000000E+00
  0.8500000      0.0000000E+00
  0.8600000      0.0000000E+00
  0.8700000      0.0000000E+00
  0.8800000      0.0000000E+00
  0.8900000      0.0000000E+00
  0.9000000      0.0000000E+00
  0.9100000      0.0000000E+00
  0.9200000      0.0000000E+00
  0.9300000      0.0000000E+00
  0.9400000      0.0000000E+00
  0.9500000      0.0000000E+00
  0.9600000      0.0000000E+00
  0.9700000      0.0000000E+00
  0.9800000      0.0000000E+00
  0.9900000      0.0000000E+00
   1.000000      0.0000000E+00
   1.010000      0.0000000E+00
   1.020000      0.0000000E+00
   1.030000      0.0000000E+00
   1.040000      0.0000000E+00
   1.050000      0.0000000E+00
   1.060000      0.0000000E+00
   1.070000      0.0000000E+00
   1.080000      0.0000000E+00
   1.090000      0.0000000E+00
   1.100000      0.0000000E+00
   1.110000      0.0000000E+00
   1.120000      0.0000000E+00
   1.130000      0.0000000E+00
   1.140000      0.0000000E+00
   1.150000      0.0000000E+00
   1.160000      0.0000000E+00
   1.170000      0.0000000E+00
   1.180000      0.0000000E+00
   1.190000      0.0000000E+00
   1.200000      0.0000000E+00
   1.210000      0.0000000E+00
   1.220000      0.0000000E+00
   1.230000      0.0000000E+00
   1.240000      0.0000000E+00
   1.250000      0.0000000E+00
   1.260000      0.0000000E+00
   1.270000      0.0000000E+00
   1.280000      0.0000000E+00
   1.290000      0.0000000E+00
   1.300000      0.0000000E+00
   1.310000      0.0000000E+00
   1.320000      0.0000000E+00
   1.330000      0.0000000E+00
   1.340000      0.0000000E+00
   1.350000      0.0000000E+00
   1.360000      0.0000000E+00
   1.370000      0.0000000E+00
   1.380000      0.0000000E+00
   1.390000      0.0000000E+00
   1.400000      0.0000000E+00
   1.410000      0.0000000E+00
   1.420000      0.0000000E+00
   1.430000      0.0000000E+00
   1.440000      0.0000000E+00
   1.450000      0.0000000E+00
   1.460000      0.0000000E+00
   1.470000      0.0000000E+00
   1.480000      0.0000000E+00
   1.490000      0.0000000E+00
   1.500000      0.0000000E+00
   1.510000      0.0000000E+00
   1.520000      0.0000000E+00
   1.530000      0.0000000E+00
   1.540000      0.0000000E+00
   1.550000      0.0000000E+00
   1.560000      0.0000000E+00
   1.570000      0.0000000E+00
   1.580000      0.0000000E+00
   1.590000      0.0000000E+00
   1.600000      0.0000000E+00
   1.610000      0.0000000E+00
   1.620000      0.0000000E+00
   1.630000      0.0000000E+00
   1.640000      0.0000000E+00
   1.650000      0.0000000E+00
   1.660000      0.0000000E+00
   1.670000      0.0000000E+00
   1.680000      0.0000000E+00
   1.690000      0.0000000E+00
   1.700000      0.0000000E+00
   1.710000      0.0000000E+00
   1.720000      0.0000000E+00
   1.730000      0.0000000E+00
   1.740000      0.0000000E+00
   1.750000      0.0000000E+00
   1.760000      0.0000000E+00
   1.770000      0.0000000E+00
   1.780000      0.0000000E+00
   1.790000      0.0000000E+00
   1.800000      0.0000000E+00
   1.810000      0.0000000E+00
   1.820000      0.0000000E+00
   1.830000      0.0000000E+00
   1.840000      0.0000000E+00
   1.850000      0.0000000E+00
   1.860000      0.0000000E+00
   1.870000      0.0000000E+00
   1.880000      0.0000000E+00
   1.890000      0.0000000E+00
   1.900000      0.0000000E+00
   1.910000      0.0000000E+00
   1.920000      0.0000000E+00
   1.930000      0.0000000E+00
   1.940000      0.0000000E+00
   1.950000      0.0000000E+00
   1.960000      0.0000000E+00
   1.970000      0.0000000E+00
   1.980000      0.0000000E+00
   1.990000      0.0000000E+00
   2.000000      0.0000000E+00
   2.010000      0.0000000E+00
   2.020000      0.0000000E+00
   2.030000      0.0000000E+00
   2.040000      0.0000000E+00
   2.050000      0.0000000E+00
   2.060000      0.0000000E+00
   2.070000      0.0000000E+00
   2.080000      0.0000000E+00
   2.090000      0.0000000E+00
   2.100000      0.0000000E+00
   2.110000      0.0000000E+00
   2.120000      0.0000000E+00
   2.130000      0.0000000E+00
   2.140000      0.0000000E+00
   2.150000      0.0000000E+00
   2.160000      0.0000000E+00
   2.170000      0.0000000E+00
   2.180000      0.0000000E+00
   2.190000      0.0000000E+00
   2.200000      0.0000000E+00
   2.210000      0.0000000E+00
   2.220000      0.0000000E+00
   2.230000      0.0000000E+00
   2.240000      0.0000000E+00
   2.250000      0.0000000E+00
   2.260000      0.0000000E+00
   2.270000      0.0000000E+00
   2.280000      0.0000000E+00
   2.290000      0.0000000E+00
   2.300000      0.0000000E+00
   2.310000      0.0000000E+00
   2.320000      0.0000000E+00
   2.330000      0.0000000E+00
   2.340000      0.0000000E+00
   2.350000      0.0000000E+00
   2.360000      0.0000000E+00
   2.370000      0.0000000E+00
   2.380000      0.0000000E+00
   2.390000      0.0000000E+00
   2.400000      0.0000000E+00
   2.410000      0.0000000E+00
   2.420000      0.0000000E+00
   2.430000      0.0000000E+00
   2.440000      0.0000000E+00
   2.450000      0.0000000E+00
   2.460000      0.0000000E+00
   2.470000      0.0000000E+00
   2.480000      0.0000000E+00
   2.490000      0.0000000E+00
   2.500000      0.0000000E+00
   2.510000      0.0000000E+00
   2.520000      0.0000000E+00
   2.530000      0.0000000E+00
   2.540000      0.0000000E+00
   2.550000      0.0000000E+00
   2.560000      0.0000000E+00
   2.570000      0.0000000E+00
   2.580000      0.0000000E+00
   2.590000      0.0000000E+00
   2.600000      0.0000000E+00
   2.610000      0.0000000E+00
   2.620000      0.0000000E+00
   2.630000      0.0000000E+00
   2.640000      0.0000000E+00
   2.650000      0.0000000E+00
   2.660000      0.0000000E+00
   2.670000      0.0000000E+00
   2.680000      0.0000000E+00
   2.690000      0.0000000E+00
   2.700000      0.0000000E+00
   2.710000      0.0000000E+00
   2.720000      0.0000000E+00
   2.730000      0.0000000E+00
   2.740000      0.0000000E+00
   2.750000      0.0000000E+00
   2.760000      0.0000000E+00
   2.770000      0.0000000E+00
   2.780000      0.0000000E+00
   2.790000      0.0000000E+00
   2.800000      0.0000000E+00
   2.810000      0.0000000E+00
   2.820000      0.0000000E+00
   2.830000      0.0000000E+00
   2.840000      0.0000000E+00
   2.850000      0.0000000E+00
   2.860000      0.0000000E+00
   2.870000      0.0000000E+00
   2.880000      0.0000000E+00
   2.890000      0.0000000E+00
   2.900000      0.0000000E+00
   2.910000      0.0000000E+00
   2.920000      0.0000000E+00
   2.930000      0.0000000E+00
   2.940000      0.0000000E+00
   2.950000      0.0000000E+00
   2.960000      0.0000000E+00
   2.970000      0.0000000E+00
   2.980000      0.0000000E+00
   2.990000      0.0000000E+00
   3.000000      0.0000000E+00
   3.010000      0.0000000E+00
   3.020000      0.0000000E+00
   3.030000      0.0000000E+00
   3.040000      0.0000000E+00
   3.050000      0.0000000E+00
   3.060000      0.0000000E+00
   3.070000      0.0000000E+00
   3.080000      0.0000000E+00
   3.090000      0.0000000E+00
   3.100000      0.0000000E+00
   3.110000      0.0000000E+00
   3.120000      0.0000000E+00
   3.130000      0.0000000E+00
   3.140000      0.0000000E+00
   3.150000      0.0000000E+00
   3.160000      0.0000000E+00
   3.170000      0.0000000E+00
   3.180000      0.0000000E+00
   3.190000      0.0000000E+00
   3.200000      0.0000000E+00
   3.210000      0.0000000E+00
   3.220000      0.0000000E+00
   3.230000      0.0000000E+00
   3.240000      0.0000000E+00
   3.250000      0.0000000E+00
   3.260000      0.0000000E+00
   3.270000      0.0000000E+00
   3.280000      0.0000000E+00
   3.290000      0.0000000E+00
   3.300000      0.0000000E+00
   3.310000      0.0000000E+00
   3.320000      0.0000000E+00
   3.330000      0.0000000E+00
   3.340000      0.0000000E+00
   3.350000      0.0000000E+00
   3.360000      0.0000000E+00
   3.370000      0.0000000E+00
   3.380000      0.0000000E+00
   3.390000      0.0000000E+00
   3.400000      0.0000000E+00
   3.410000      0.0000000E+00
   3.420000      0.0000000E+00
   3.430000      0.0000000E+00
   3.440000      0.0000000E+00
   3.450000      0.0000000E+00
   3.460000      0.0000000E+00
   3.470000      0.0000000E+00
   3.480000      0.0000000E+00
   3.490000      0.0000000E+00
   3.500000      0.0000000E+00
   3.510000      0.0000000E+00
   3.520000      0.0000000E+00
   3.530000      0.0000000E+00
   3.540000      0.0000000E+00
   3.550000      0.0000000E+00
   3.560000      0.0000000E+00
   3.570000      0.0000000E+00
   3.580000      0.0000000E+00
   3.590000      0.0000000E+00
   3.600000      0.0000000E+00
   3.610000      0.0000000E+00
   3.620000      0.0000000E+00
   3.630000      0.0000000E+00
   3.640000     -1.2450112E-38
   3.650000     -1.4522614E-38
   3.660000     -1.5501406E-38
   3.670000     -1.5501406E-38
   3.680000     -1.5501406E-38
   3.690000     -1.5501406E-38
   3.700000     -1.5501406E-38
   3.710000     -1.5501406E-38
   3.720000     -1.5501406E-38
   3.730000     -1.5501406E-38
   3.740000     -1.5501406E-38
   3.750000     -1.5501406E-38
   3.760000     -1.5501406E-38
   3.770000     -1.5501406E-38
   3.780000     -1.5501406E-38
   3.790000     -1.5501406E-38
   3.800000     -1.5501406E-38
   3.810000     -1.5501406E-38
   3.820000     -1.4172423E-38
   3.830000      0.0000000E+00
   3.840000      0.0000000E+00
   3.850000      0.0000000E+00
   3.860000      0.0000000E+00
   3.870000      0.0000000E+00
   3.880000      0.0000000E+00
   3.890000      0.0000000E+00
   3.900000      0.0000000E+00
   3.910000      0.0000000E+00
   3.920000      0.0000000E+00
   3.930000      0.0000000E+00
   3.940000      0.0000000E+00
   3.950000      0.0000000E+00
   3.960000      0.0000000E+00
   3.970000      0.0000000E+00
   3.980000      1.2209511E-38
   3.990000      1.3610229E-38
   4.000000      1.2692429E-38
   4.010000      0.0000000E+00
   4.020000      0.0000000E+00
   4.030000      0.0000000E+00
   4.040000      0.0000000E+00
   4.050000      0.0000000E+00
   4.060000     -1.2748150E-38
   4.070000     -1.8981623E-38
   4.080000     -2.4785436E-38
   4.090000     -2.9818726E-38
   4.100000     -3.4930175E-38
   4.110000     -3.9977571E-38
   4.120000     -4.4839726E-38
   4.130000     -4.8434435E-38
   4.140000     -5.0305225E-38
   4.150000     -5.0930344E-38
   4.160000     -4.9132893E-38
   4.170000     -4.3765157E-38
   4.180000     -3.6207714E-38
   4.190000     -2.7864416E-38
   4.200000     -1.8635226E-38
   4.210000      0.0000000E+00
   4.220000      0.0000000E+00
   4.230000      1.7252467E-38
   4.240000      3.2930752E-38
   4.250000      4.0664025E-38
   4.260000      3.6049367E-38
   4.270000      2.8619537E-38
   4.280000      5.0515627E-38
   4.290000      1.0718892E-37
   4.300000      1.7150230E-37
   4.310000      3.3985819E-37
   4.320000      6.1977117E-37
   4.330000      9.1923413E-37
   4.340000      1.2340687E-36
   4.350000      1.5627169E-36
   4.360000      1.9065379E-36
   4.370000      2.2213457E-36
   4.380000      2.5147861E-36
   4.390000      2.8217380E-36
   4.400000      2.5021576E-36
   4.410000      1.4284693E-36
   4.420000      2.0501416E-37
   4.430000     -9.9797831E-37
   4.440000     -1.5191824E-36
   4.450000     -1.4315057E-36
   4.460000     -1.2366748E-36
   4.470000     -7.1098579E-37
   4.480000     -3.6652951E-38
   4.490000      6.6387481E-37
   4.500000      1.5272993E-36
   4.510000      2.5261821E-36
   4.520000      3.5645141E-36
   4.530000      4.6752949E-36
   4.540000      5.2683161E-36
   4.550000      5.1007013E-36
   4.560000      4.7130303E-36
   4.570000      4.2464741E-36
   4.580000      3.7614406E-36
   4.590000      3.2411086E-36
   4.600000      2.7529711E-36
   4.610000      2.4412338E-36
   4.620000      2.1740206E-36
   4.630000      1.9910838E-36
   4.640000      2.1539519E-36
   4.650000      2.9068887E-36
   4.660000      4.6558667E-36
   4.670000      5.6036657E-36
   4.680000      4.8874482E-36
   4.690000      3.7094653E-36
   4.700000      2.0699211E-36
   4.710000     -6.5358057E-38
   4.720000     -2.5665768E-36
   4.730000     -5.2538919E-36
   4.740000     -7.4722439E-36
   4.750000     -9.2991418E-36
   4.760000     -1.1382823E-35
   4.770000     -1.3377522E-35
   4.780000     -1.4955578E-35
   4.790000     -1.6338159E-35
   4.800000     -1.7652968E-35
   4.810000     -1.8786858E-35
   4.820000     -1.9795849E-35
   4.830000     -2.0098500E-35
   4.840000     -2.0025729E-35
   4.850000     -2.0646164E-35
   4.860000     -2.1085477E-35
   4.870000     -2.1823921E-35
   4.880000     -2.3894993E-35
   4.890000     -2.6527421E-35
   4.900000     -2.8486938E-35
   4.910000     -3.0511242E-35
   4.920000     -3.3146636E-35
   4.930000     -3.5654732E-35
   4.940000     -3.8017054E-35
   4.950000     -3.9212772E-35
   4.960000     -3.9689427E-35
   4.970000     -4.1801991E-35
   4.980000     -4.4343533E-35
   4.990000     -4.7091010E-35
   5.000000     -5.0999747E-35
   5.010000     -5.5851008E-35
   5.020000     -6.2435533E-35
   5.030000     -6.5044183E-35
   5.040000     -6.1525099E-35
   5.050000     -5.4459259E-35
   5.060000     -4.3467109E-35
   5.070000     -3.0459662E-35
   5.080000     -1.8339402E-35
   5.090000     -8.0423802E-36
   5.100000      1.1030453E-37
   5.110000      2.2332692E-36
   5.120000      1.1208544E-36
   5.130000      1.3648505E-36
   5.140000      1.2108700E-36
   5.150000      4.8413145E-37
   5.160000     -2.5723423E-37
   5.170000      1.8958215E-36
   5.180000      1.2220087E-35
   5.190000      3.0446543E-35
   5.200000      5.1800960E-35
   5.210000      7.4355964E-35
   5.220000      9.3054681E-35
   5.230000      1.1190526E-34
   5.240000      1.3342866E-34
   5.250000      1.5201037E-34
   5.260000      1.6944090E-34
   5.270000      1.8596037E-34
   5.280000      2.0143221E-34
   5.290000      2.1834142E-34
   5.300000      2.2976146E-34
   5.310000      2.3574101E-34
   5.320000      2.4318267E-34
   5.330000      2.5131087E-34
   5.340000      2.5912412E-34
   5.350000      2.6892760E-34
   5.360000      2.8508036E-34
   5.370000      3.0445278E-34
   5.380000      3.2690016E-34
   5.390000      3.5309541E-34
   5.400000      3.7984670E-34
   5.410000      4.0220797E-34
   5.420000      4.1706732E-34
   5.430000      4.2569178E-34
   5.440000      4.2732861E-34
   5.450000      4.2197428E-34
   5.460000      4.1518190E-34
   5.470000      4.0562825E-34
   5.480000      3.9134585E-34
   5.490000      3.7576374E-34
   5.500000      3.5835230E-34
   5.510000      3.3974987E-34
   5.520000      3.1929815E-34
   5.530000      2.9400996E-34
   5.540000      2.6555678E-34
   5.550000      2.3518809E-34
   5.560000      1.9884848E-34
   5.570000      1.5396270E-34
   5.580000      1.0091954E-34
   5.590000      4.0592615E-35
   5.600000     -3.0219434E-35
   5.610000     -1.0887696E-34
   5.620000     -1.9192805E-34
   5.630000     -2.7842433E-34
   5.640000     -3.6456674E-34
   5.650000     -4.5815756E-34
   5.660000     -5.6051795E-34
   5.670000     -6.6333022E-34
   5.680000     -7.7062205E-34
   5.690000     -8.8284998E-34
   5.700000     -9.9274713E-34
   5.710000     -1.0966653E-33
   5.720000     -1.1977749E-33
   5.730000     -1.3035754E-33
   5.740000     -1.4164760E-33
   5.750000     -1.5385013E-33
   5.760000     -1.6773939E-33
   5.770000     -1.8366664E-33
   5.780000     -2.0091966E-33
   5.790000     -2.1918088E-33
   5.800000     -2.3866190E-33
   5.810000     -2.5855641E-33
   5.820000     -2.7836772E-33
   5.830000     -2.9824832E-33
   5.840000     -3.1771614E-33
   5.850000     -3.3614194E-33
   5.860000     -3.5308379E-33
   5.870000     -3.6868264E-33
   5.880000     -3.8341856E-33
   5.890000     -3.9755245E-33
   5.900000     -4.1107622E-33
   5.910000     -4.2401418E-33
   5.920000     -4.3658294E-33
   5.930000     -4.4881385E-33
   5.940000     -4.6083500E-33
   5.950000     -4.7259608E-33
   5.960000     -4.8335935E-33
   5.970000     -4.9296236E-33
   5.980000     -5.0100131E-33
   5.990000     -5.0604091E-33
   6.000000     -5.0743674E-33
   6.010000     -5.0441781E-33
   6.020000     -4.9630374E-33
   6.030000     -4.8314904E-33
   6.040000     -4.6480593E-33
   6.050000     -4.4172771E-33
   6.060000     -4.1372273E-33
   6.070000     -3.8046829E-33
   6.080000     -3.4310770E-33
   6.090000     -3.0235142E-33
   6.100000     -2.5762419E-33
   6.110000     -2.0833408E-33
   6.120000     -1.5412549E-33
   6.130000     -9.4388844E-34
   6.140000     -2.8341150E-34
   6.150000      4.4794122E-34
   6.160000      1.2550118E-33
   6.170000      2.1437779E-33
   6.180000      3.1206778E-33
   6.190000      4.1881791E-33
   6.200000      5.3481470E-33
   6.210000      6.6020200E-33
   6.220000      7.9481264E-33
   6.230000      9.3813038E-33
   6.240000      1.0898104E-32
   6.250000      1.2496720E-32
   6.260000      1.4172264E-32
   6.270000      1.5922106E-32
   6.280000      1.7744997E-32
   6.290000      1.9638931E-32
   6.300000      2.1602603E-32
   6.310000      2.3639105E-32
   6.320000      2.5751852E-32
   6.330000      2.7940910E-32
   6.340000      3.0206734E-32
   6.350000      3.2547996E-32
   6.360000      3.4962011E-32
   6.370000      3.7442886E-32
   6.380000      3.9980887E-32
   6.390000      4.2565750E-32
   6.400000      4.5183511E-32
   6.410000      4.7816174E-32
   6.420000      5.0446687E-32
   6.430000      5.3058770E-32
   6.440000      5.5636536E-32
   6.450000      5.8160910E-32
   6.460000      6.0614396E-32
   6.470000      6.2982893E-32
   6.480000      6.5250698E-32
   6.490000      6.7403022E-32
   6.500000      6.9423303E-32
   6.510000      7.1296160E-32
   6.520000      7.3002978E-32
   6.530000      7.4519859E-32
   6.540000      7.5822983E-32
   6.550000      7.6885153E-32
   6.560000      7.7673275E-32
   6.570000      7.8155616E-32
   6.580000      7.8296317E-32
   6.590000      7.8055969E-32
   6.600000      7.7396834E-32
   6.610000      7.6280256E-32
   6.620000      7.4670810E-32
   6.630000      7.2532310E-32
   6.640000      6.9829754E-32
   6.650000      6.6529530E-32
   6.660000      6.2598718E-32
   6.670000      5.8008836E-32
   6.680000      5.2723420E-32
   6.690000      4.6705226E-32
   6.700000      3.9924273E-32
   6.710000      3.2344177E-32
   6.720000      2.3926807E-32
   6.730000      1.4634083E-32
   6.740000      4.4262681E-33
   6.750000     -6.7366553E-33
   6.760000     -1.8893981E-32
   6.770000     -3.2083449E-32
   6.780000     -4.6340091E-32
   6.790000     -6.1695345E-32
   6.800000     -7.8176264E-32
   6.810000     -9.5804835E-32
   6.820000     -1.1459789E-31
   6.830000     -1.3456694E-31
   6.840000     -1.5571839E-31
   6.850000     -1.7805410E-31
   6.860000     -2.0157135E-31
   6.870000     -2.2626317E-31
   6.880000     -2.5211930E-31
   6.890000     -2.7912506E-31
   6.900000     -3.0726122E-31
   6.910000     -3.3650423E-31
   6.920000     -3.6682456E-31
   6.930000     -3.9818545E-31
   6.940000     -4.3054211E-31
   6.950000     -4.6384015E-31
   6.960000     -4.9801464E-31
   6.970000     -5.3298908E-31
   6.980000     -5.6867407E-31
   6.990000     -6.0496727E-31
   7.000000     -6.4175385E-31
   7.010000     -6.7890615E-31
   7.020000     -7.1628320E-31
   7.030000     -7.5373229E-31
   7.040000     -7.9108776E-31
   7.050000     -8.2817235E-31
   7.060000     -8.6479850E-31