  -2.600000      0.0000000E+00
  -2.590000      0.0000000E+00
  -2.580000      0.0000000E+00
  -2.570000      0.0000000E+00
  -2.560000      0.0000000E+00
  -2.550000      0.0000000E+00
  -2.540000      0.0000000E+00
  -2.530000      0.0000000E+00
  -2.520000      0.0000000E+00
  -2.510000      0.0000000E+00
  -2.500000      0.0000000E+00
  -2.490000      0.0000000E+00
  -2.480000      0.0000000E+00
  -2.470000      0.0000000E+00
  -2.460000      0.0000000E+00
  -2.450000      0.0000000E+00
  -2.440000      0.0000000E+00
  -2.430000      0.0000000E+00
  -2.420000      0.0000000E+00
  -2.410000      0.0000000E+00
  -2.400000      0.0000000E+00
  -2.390000      0.0000000E+00
  -2.380000      0.0000000E+00
  -2.370000      0.0000000E+00
  -2.360000      0.0000000E+00
  -2.350000      0.0000000E+00
  -2.340000      0.0000000E+00
  -2.330000      0.0000000E+00
  -2.320000      0.0000000E+00
  -2.310000      0.0000000E+00
  -2.300000      0.0000000E+00
  -2.290000      0.0000000E+00
  -2.280000      0.0000000E+00
  -2.270000      0.0000000E+00
  -2.260000      0.0000000E+00
  -2.250000      0.0000000E+00
  -2.240000      0.0000000E+00
  -2.230000      0.0000000E+00
  -2.220000      0.0000000E+00
  -2.210000      0.0000000E+00
  -2.200000      0.0000000E+00
  -2.190000      0.0000000E+00
  -2.180000      0.0000000E+00
  -2.170000      0.0000000E+00
  -2.160000      0.0000000E+00
  -2.150000      0.0000000E+00
  -2.140000      0.0000000E+00
  -2.130000      0.0000000E+00
  -2.120000      0.0000000E+00
  -2.110000      0.0000000E+00
  -2.100000      0.0000000E+00
  -2.090000      0.0000000E+00
  -2.080000      0.0000000E+00
  -2.070000      0.0000000E+00
  -2.060000      0.0000000E+00
  -2.050000      0.0000000E+00
  -2.040000      0.0000000E+00
  -2.030000      0.0000000E+00
  -2.020000      0.0000000E+00
  -2.010000      0.0000000E+00
  -2.000000      0.0000000E+00
  -1.990000      0.0000000E+00
  -1.980000      0.0000000E+00
  -1.970000      0.0000000E+00
  -1.960000      0.0000000E+00
  -1.950000      0.0000000E+00
  -1.940000      0.0000000E+00
  -1.930000      0.0000000E+00
  -1.920000      0.0000000E+00
  -1.910000      0.0000000E+00
  -1.900000      0.0000000E+00
  -1.890000      0.0000000E+00
  -1.880000      0.0000000E+00
  -1.870000      0.0000000E+00
  -1.860000      0.0000000E+00
  -1.850000      0.0000000E+00
  -1.840000      0.0000000E+00
  -1.830000      0.0000000E+00
  -1.820000      0.0000000E+00
  -1.810000      0.0000000E+00
  -1.800000      0.0000000E+00
  -1.790000      0.0000000E+00
  -1.780000      0.0000000E+00
  -1.770000      0.0000000E+00
  -1.760000      0.0000000E+00
  -1.750000      0.0000000E+00
  -1.740000      0.0000000E+00
  -1.730000      0.0000000E+00
  -1.720000      0.0000000E+00
  -1.710000      0.0000000E+00
  -1.700000      0.0000000E+00
  -1.690000      0.0000000E+00
  -1.680000      0.0000000E+00
  -1.670000      0.0000000E+00
  -1.660000      0.0000000E+00
  -1.650000      0.0000000E+00
  -1.640000      0.0000000E+00
  -1.630000      0.0000000E+00
  -1.620000      0.0000000E+00
  -1.610000      0.0000000E+00
  -1.600000      0.0000000E+00
  -1.590000      0.0000000E+00
  -1.580000      0.0000000E+00
  -1.570000      0.0000000E+00
  -1.560000      0.0000000E+00
  -1.550000      0.0000000E+00
  -1.540000      0.0000000E+00
  -1.530000      0.0000000E+00
  -1.520000      0.0000000E+00
  -1.510000      0.0000000E+00
  -1.500000      0.0000000E+00
  -1.490000      0.0000000E+00
  -1.480000      0.0000000E+00
  -1.470000      0.0000000E+00
  -1.460000      0.0000000E+00
  -1.450000      0.0000000E+00
  -1.440000      0.0000000E+00
  -1.430000      0.0000000E+00
  -1.420000      0.0000000E+00
  -1.410000      0.0000000E+00
  -1.400000      0.0000000E+00
  -1.390000      0.0000000E+00
  -1.380000      0.0000000E+00
  -1.370000      0.0000000E+00
  -1.360000      0.0000000E+00
  -1.350000      0.0000000E+00
  -1.340000      0.0000000E+00
  -1.330000      0.0000000E+00
  -1.320000      0.0000000E+00
  -1.310000      0.0000000E+00
  -1.300000      0.0000000E+00
  -1.290000      0.0000000E+00
  -1.280000      0.0000000E+00
  -1.270000      0.0000000E+00
  -1.260000      0.0000000E+00
  -1.250000      0.0000000E+00
  -1.240000      0.0000000E+00
  -1.230000      0.0000000E+00
  -1.220000      0.0000000E+00
  -1.210000      0.0000000E+00
  -1.200000      0.0000000E+00
  -1.190000      0.0000000E+00
  -1.180000      0.0000000E+00
  -1.170000      0.0000000E+00
  -1.160000      0.0000000E+00
  -1.150000      0.0000000E+00
  -1.140000      0.0000000E+00
  -1.130000      0.0000000E+00
  -1.120000      0.0000000E+00
  -1.110000      0.0000000E+00
  -1.100000      0.0000000E+00
  -1.090000      0.0000000E+00
  -1.080000      0.0000000E+00
  -1.070000      0.0000000E+00
  -1.060000      0.0000000E+00
  -1.050000      0.0000000E+00
  -1.040000      0.0000000E+00
  -1.030000      0.0000000E+00
  -1.020000      0.0000000E+00
  -1.010000      0.0000000E+00
  -1.000000      0.0000000E+00
 -0.9900000      0.0000000E+00
 -0.9800000      0.0000000E+00
 -0.9700000      0.0000000E+00
 -0.9600000      0.0000000E+00
 -0.9500000      0.0000000E+00
 -0.9400000      0.0000000E+00
 -0.9300000      0.0000000E+00
 -0.9200000      0.0000000E+00
 -0.9100000      0.0000000E+00
 -0.9000000      0.0000000E+00
 -0.8900000      0.0000000E+00
 -0.8800000      0.0000000E+00
 -0.8700000      0.0000000E+00
 -0.8600000      0.0000000E+00
 -0.8500000      0.0000000E+00
 -0.8400000      0.0000000E+00
 -0.8300000      0.0000000E+00
 -0.8200000      0.0000000E+00
 -0.8100000      0.0000000E+00
 -0.8000000      0.0000000E+00
 -0.7900000      0.0000000E+00
 -0.7800000      0.0000000E+00
 -0.7700000      0.0000000E+00
 -0.7600000      0.0000000E+00
 -0.7500000      0.0000000E+00
 -0.7400000      0.0000000E+00
 -0.7300000      0.0000000E+00
 -0.7200000      0.0000000E+00
 -0.7100000      0.0000000E+00
 -0.7000000      0.0000000E+00
 -0.6900000      0.0000000E+00
 -0.6800000      0.0000000E+00
 -0.6700000      0.0000000E+00
 -0.6600000      0.0000000E+00
 -0.6500000      0.0000000E+00
 -0.6400000      0.0000000E+00
 -0.6300000      0.0000000E+00
 -0.6200000      0.0000000E+00
 -0.6100000      0.0000000E+00
 -0.6000000      0.0000000E+00
 -0.5900000      0.0000000E+00
 -0.5800000      0.0000000E+00
 -0.5700000      0.0000000E+00
 -0.5600000      0.0000000E+00
 -0.5500000      0.0000000E+00
 -0.5400000      0.0000000E+00
 -0.5300000      0.0000000E+00
 -0.5200000      0.0000000E+00
 -0.5100000      0.0000000E+00
 -0.5000000      0.0000000E+00
 -0.4900000      0.0000000E+00
 -0.4800000      0.0000000E+00
 -0.4700000      0.0000000E+00
 -0.4600000      0.0000000E+00
 -0.4500000      0.0000000E+00
 -0.4400000      0.0000000E+00
 -0.4300000      0.0000000E+00
 -0.4200000      0.0000000E+00
 -0.4100000      0.0000000E+00
 -0.4000000      0.0000000E+00
 -0.3900000      0.0000000E+00
 -0.3800000      0.0000000E+00
 -0.3700000      0.0000000E+00
 -0.3600000      0.0000000E+00
 -0.3500000      0.0000000E+00
 -0.3400000      0.0000000E+00
 -0.3300000      0.0000000E+00
 -0.3200000      0.0000000E+00
 -0.3100000      0.0000000E+00
 -0.3000000      0.0000000E+00
 -0.2900000      0.0000000E+00
 -0.2800000      0.0000000E+00
 -0.2700000      0.0000000E+00
 -0.2600000      0.0000000E+00
 -0.2500000      0.0000000E+00
 -0.2400000      0.0000000E+00
 -0.2300000      0.0000000E+00
 -0.2200000      0.0000000E+00
 -0.2100000      0.0000000E+00
 -0.2000000      0.0000000E+00
 -0.1900000      0.0000000E+00
 -0.1800000      0.0000000E+00
 -0.1700000      0.0000000E+00
 -0.1600000      0.0000000E+00
 -0.1500000      0.0000000E+00
 -0.1400000      0.0000000E+00
 -0.1300000      0.0000000E+00
 -0.1200000      0.0000000E+00
 -0.1100000      0.0000000E+00
 -0.1000000      0.0000000E+00
 -9.0000004E-02  0.0000000E+00
 -7.9999998E-02  0.0000000E+00
 -7.0000000E-02  0.0000000E+00
 -5.9999999E-02  0.0000000E+00
 -5.0000001E-02  0.0000000E+00
 -3.9999999E-02  0.0000000E+00
 -2.9999999E-02  0.0000000E+00
 -2.0000000E-02  0.0000000E+00
 -9.9999998E-03  0.0000000E+00
 -3.4694470E-17  0.0000000E+00
  9.9999998E-03  0.0000000E+00
  2.0000000E-02  0.0000000E+00
  2.9999999E-02  0.0000000E+00
  3.9999999E-02  0.0000000E+00
  5.0000001E-02  0.0000000E+00
  5.9999999E-02  0.0000000E+00
  7.0000000E-02  0.0000000E+00
  7.9999998E-02  0.0000000E+00
  9.0000004E-02  0.0000000E+00
  0.1000000      0.0000000E+00
  0.1100000      0.0000000E+00
  0.1200000      0.0000000E+00
  0.1300000      0.0000000E+00
  0.1400000      0.0000000E+00
  0.1500000      0.0000000E+00
  0.1600000      0.0000000E+00
  0.1700000      0.0000000E+00
  0.1800000      0.0000000E+00
  0.1900000      0.0000000E+00
  0.2000000      0.0000000E+00
  0.2100000      0.0000000E+00
  0.2200000      0.0000000E+00
  0.2300000      0.0000000E+00
  0.2400000      0.0000000E+00
  0.2500000      0.0000000E+00
  0.2600000      0.0000000E+00
  0.2700000      0.0000000E+00
  0.2800000      0.0000000E+00
  0.2900000      0.0000000E+00
  0.3000000      0.0000000E+00
  0.3100000      0.0000000E+00
  0.3200000      0.0000000E+00
  0.3300000      0.0000000E+00
  0.3400000      0.0000000E+00
  0.3500000      0.0000000E+00
  0.3600000      0.0000000E+00
  0.3700000      0.0000000E+00
  0.3800000      0.0000000E+00
  0.3900000      0.0000000E+00
  0.4000000      0.0000000E+00
  0.4100000      0.0000000E+00
  0.4200000      0.0000000E+00
  0.4300000      0.0000000E+00
  0.4400000      0.0000000E+00
  0.4500000      0.0000000E+00
  0.4600000      0.0000000E+00
  0.4700000      0.0000000E+00
  0.4800000      0.0000000E+00
  0.4900000      0.0000000E+00
  0.5000000      0.0000000E+00
  0.5100000      0.0000000E+00
  0.5200000      0.0000000E+00
  0.5300000      0.0000000E+00
  0.5400000      0.0000000E+00
  0.5500000      0.0000000E+00
  0.5600000      0.0000000E+00
  0.5700000      0.0000000E+00
  0.5800000      0.0000000E+00
  0.5900000      0.0000000E+00
  0.6000000      0.0000000E+00
  0.6100000      0.0000000E+00
  0.6200000      0.0000000E+00
  0.6300000      0.0000000E+00
  0.6400000      0.0000000E+00
  0.6500000      0.0000000E+00
  0.6600000      0.0000000E+00
  0.6700000      0.0000000E+00
  0.6800000      0.0000000E+00
  0.6900000      0.0000000E+00
  0.7000000      0.0000000E+00
  0.7100000      0.0000000E+00
  0.7200000      0.0000000E+00
  0.7300000      0.0000000E+00
  0.7400000      0.0000000E+00
  0.7500000      0.0000000E+00
  0.7600000      0.0000000E+00
  0.7700000      0.0000000E+00
  0.7800000      0.0000000E+00
  0.7900000      0.0000000E+00
  0.8000000      0.0000000E+00
  0.8100000      0.0000000E+00
  0.8200000      0.0000000E+00
  0.8300000      0.0000000E+00
  0.8400000      0.0000000E+00
  0.8500000      0.0000000E+00
  0.8600000      1.3848024E-38
  0.8700000      1.5986373E-38
  0.8800000      1.8546112E-38
  0.8900000      2.2390463E-38
  0.9000000      2.6730668E-38
  0.9100000      3.1064948E-38
  0.9200000      3.6249784E-38
  0.9300000      4.2685897E-38
  0.9400000      4.9629552E-38
  0.9500000      5.7544781E-38
  0.9600000      6.7311904E-38
  0.9700000      7.8044494E-38
  0.9800000      8.8812139E-38
  0.9900000      1.0059872E-37
   1.000000      1.1155700E-37
   1.010000      1.2056485E-37
   1.020000      1.2850131E-37
   1.030000      1.3454686E-37
   1.040000      1.3880703E-37
   1.050000      1.4155599E-37
   1.060000      1.4167170E-37
   1.070000      1.3897983E-37
   1.080000      1.3650186E-37
   1.090000      1.3427559E-37
   1.100000      1.3984195E-37
   1.110000      1.5112739E-37
   1.120000      1.5882136E-37
   1.130000      1.6165960E-37
   1.140000      1.5488851E-37
   1.150000      1.2197307E-37
   1.160000      5.9822334E-38
   1.170000     -1.8545960E-38
   1.180000     -1.1448907E-37
   1.190000     -2.2607922E-37
   1.200000     -3.4139521E-37
   1.210000     -4.5835190E-37
   1.220000     -5.8992809E-37
   1.230000     -7.0869031E-37
   1.240000     -7.9924809E-37
   1.250000     -8.8190542E-37
   1.260000     -9.2575785E-37
   1.270000     -9.3240364E-37
   1.280000     -9.4206995E-37
   1.290000     -9.6060046E-37
   1.300000     -1.0067021E-36
   1.310000     -1.0808771E-36
   1.320000     -1.2910219E-36
   1.330000     -1.6577742E-36
   1.340000     -2.1682585E-36
   1.350000     -2.8471002E-36
   1.360000     -3.6198830E-36
   1.370000     -4.4570511E-36
   1.380000     -5.3405372E-36
   1.390000     -6.2686242E-36
   1.400000     -7.3046442E-36
   1.410000     -8.4469141E-36
   1.420000     -9.5097450E-36
   1.430000     -1.0429909E-35
   1.440000     -1.1353988E-35
   1.450000     -1.2154287E-35
   1.460000     -1.2604923E-35
   1.470000     -1.2813564E-35
   1.480000     -1.2868678E-35
   1.490000     -1.2514746E-35
   1.500000     -1.1777359E-35
   1.510000     -1.0891170E-35
   1.520000     -9.7559531E-36
   1.530000     -8.2652786E-36
   1.540000     -6.4255790E-36
   1.550000     -4.2156841E-36
   1.560000     -1.5989869E-36
   1.570000      1.3574443E-36
   1.580000      4.6408609E-36
   1.590000      8.2230501E-36
   1.600000      1.2179601E-35
   1.610000      1.6471441E-35
   1.620000      2.1030298E-35
   1.630000      2.5929982E-35
   1.640000      3.1143868E-35
   1.650000      3.6700716E-35
   1.660000      4.2722321E-35
   1.670000      4.9115173E-35
   1.680000      5.6036723E-35
   1.690000      6.3470111E-35
   1.700000      7.0759129E-35
   1.710000      7.8075330E-35
   1.720000      8.5356026E-35
   1.730000      9.2442862E-35
   1.740000      9.9734416E-35
   1.750000      1.0669392E-34
   1.760000      1.1349236E-34
   1.770000      1.2053621E-34
   1.780000      1.2727043E-34
   1.790000      1.3356519E-34
   1.800000      1.3859094E-34
   1.810000      1.4308001E-34
   1.820000      1.4722717E-34
   1.830000      1.4981610E-34
   1.840000      1.4852362E-34
   1.850000      1.4524749E-34
   1.860000      1.4121890E-34
   1.870000      1.3342515E-34
   1.880000      1.2729030E-34
   1.890000      1.2274132E-34
   1.900000      1.1473013E-34
   1.910000      1.0302156E-34
   1.920000      8.2774518E-35
   1.930000      5.5535800E-35
   1.940000      2.6886087E-35
   1.950000     -3.3271706E-36
   1.960000     -3.4791728E-35
   1.970000     -7.4070143E-35
   1.980000     -1.2295615E-34
   1.990000     -1.7806735E-34
   2.000000     -2.3864923E-34
   2.010000     -3.1048645E-34
   2.020000     -3.9384736E-34
   2.030000     -4.8177641E-34
   2.040000     -5.7399729E-34
   2.050000     -6.6775150E-34
   2.060000     -7.6204291E-34
   2.070000     -8.5708213E-34
   2.080000     -9.5316594E-34
   2.090000     -1.0522755E-33
   2.100000     -1.1527742E-33
   2.110000     -1.2490610E-33
   2.120000     -1.3433913E-33
   2.130000     -1.4350066E-33
   2.140000     -1.5224011E-33
   2.150000     -1.6052690E-33
   2.160000     -1.6805809E-33
   2.170000     -1.7477616E-33
   2.180000     -1.8056186E-33
   2.190000     -1.8495786E-33
   2.200000     -1.8781073E-33
   2.210000     -1.8961095E-33
   2.220000     -1.8951954E-33
   2.230000     -1.8704405E-33
   2.240000     -1.8229486E-33
   2.250000     -1.7502710E-33
   2.260000     -1.6544789E-33
   2.270000     -1.5328175E-33
   2.280000     -1.3792560E-33
   2.290000     -1.1913819E-33
   2.300000     -9.6802942E-34
   2.310000     -7.0713203E-34
   2.320000     -4.0664546E-34
   2.330000     -6.4837668E-35
   2.340000      3.1836853E-34
   2.350000      7.4516405E-34
   2.360000      1.2175915E-33
   2.370000      1.7342724E-33
   2.380000      2.2950897E-33
   2.390000      2.9002381E-33
   2.400000      3.5491124E-33
   2.410000      4.2430435E-33
   2.420000      4.9797464E-33
   2.430000      5.7544162E-33
   2.440000      6.5649368E-33
   2.450000      7.4078052E-33
   2.460000      8.2779414E-33
   2.470000      9.1698147E-33
   2.480000      1.0077716E-32
   2.490000      1.0994842E-32
   2.500000      1.1913496E-32
   2.510000      1.2821853E-32
   2.520000      1.3714257E-32
   2.530000      1.4584148E-32
   2.540000      1.5417070E-32
   2.550000      1.6200250E-32
   2.560000      1.6922071E-32
   2.570000      1.7570427E-32
   2.580000      1.8130505E-32
   2.590000      1.8587419E-32
   2.600000      1.8925906E-32
   2.610000      1.9130160E-32
   2.620000      1.9183899E-32
   2.630000      1.9070556E-32
   2.640000      1.8773181E-32
   2.650000      1.8274889E-32
   2.660000      1.7558851E-32
   2.670000      1.6608144E-32
   2.680000      1.5406177E-32
   2.690000      1.3936852E-32
   2.700000      1.2184523E-32
   2.710000      1.0134738E-32
   2.720000      7.7741973E-33
   2.730000      5.0901091E-33
   2.740000      2.0712567E-33
   2.750000     -1.2916525E-33
   2.760000     -5.0061340E-33
   2.770000     -9.0775303E-33
   2.780000     -1.3508874E-32
   2.790000     -1.8300593E-32
   2.800000     -2.3450125E-32
   2.810000     -2.8953043E-32
   2.820000     -3.4796857E-32
   2.830000     -4.0969763E-32
   2.840000     -4.7458692E-32
   2.850000     -5.4240924E-32
   2.860000     -6.1291780E-32
   2.870000     -6.8581532E-32
   2.880000     -7.6075755E-32
   2.890000     -8.3735705E-32
   2.900000     -9.1517366E-32
   2.910000     -9.9371614E-32
   2.920000     -1.0724412E-31
   2.930000     -1.1507530E-31
   2.940000     -1.2280027E-31
   2.950000     -1.3034892E-31
   2.960000     -1.3764595E-31
   2.970000     -1.4461097E-31
   2.980000     -1.5115868E-31
   2.990000     -1.5719912E-31
   3.000000     -1.6263797E-31
   3.010000     -1.6737671E-31
   3.020000     -1.7131304E-31
   3.030000     -1.7434143E-31
   3.040000     -1.7635361E-31
   3.050000     -1.7723904E-31
   3.060000     -1.7688560E-31
   3.070000     -1.7518022E-31
   3.080000     -1.7200961E-31
   3.090000     -1.6726103E-31
   3.100000     -1.6082326E-31
   3.110000     -1.5258741E-31
   3.120000     -1.4244789E-31
   3.130000     -1.3030356E-31
   3.140000     -1.1605864E-31
   3.150000     -9.9624016E-32
   3.160000     -8.0918357E-32
   3.170000     -5.9869379E-32
   3.180000     -3.6415111E-32
   3.190000     -1.0505234E-32
   3.200000      1.7897574E-32
   3.210000      4.8816273E-32
   3.220000      8.2258097E-32
   3.230000      1.1821307E-31
   3.240000      1.5665267E-31
   3.250000      1.9752845E-31
   3.260000      2.4077070E-31
   3.270000      2.8628709E-31
   3.280000      3.3396138E-31
   3.290000      3.8365225E-31
   3.300000      4.3519208E-31
   3.310000      4.8838593E-31
   3.320000      5.4301063E-31
   3.330000      5.9881375E-31
   3.340000      6.5551316E-31
   3.350000      7.1279622E-31
   3.360000      7.7031950E-31
   3.370000      8.2770855E-31
   3.380000      8.8455790E-31
   3.390000      9.4043122E-31
   3.400000      9.9486168E-31
   3.410000      1.0473529E-30
   3.420000      1.0973794E-30
   3.430000      1.1443880E-30
   3.440000      1.1877997E-30
   3.450000      1.2270107E-30
   3.460000      1.2613949E-30
   3.470000      1.2903060E-30
   3.480000      1.3130807E-30
   3.490000      1.3290408E-30
   3.500000      1.3374973E-30
   3.510000      1.3377538E-30
   3.520000      1.3291098E-30
   3.530000      1.3108664E-30
   3.540000      1.2823295E-30
   3.550000      1.2428156E-30
   3.560000      1.1916567E-30
   3.570000      1.1282066E-30
   3.580000      1.0518455E-30
   3.590000      9.6198781E-31
   3.600000      8.5808765E-31
   3.610000      7.3964630E-31
   3.620000      6.0621875E-31
   3.630000      4.5742186E-31
   3.640000      2.9294090E-31
   3.650000      1.1253816E-31
   3.660000     -8.3939424E-32
   3.670000     -2.9655237E-31
   3.680000     -5.2526034E-31
   3.690000     -7.6991391E-31
   3.700000     -1.0302465E-30
   3.710000     -1.3058664E-30
   3.720000     -1.5962484E-30
   3.730000     -1.9007268E-30
   3.740000     -2.2184870E-30
   3.750000     -2.5485590E-30
   3.760000     -2.8898101E-30
   3.770000     -3.2409387E-30
   3.780000     -3.6004685E-30
   3.790000     -3.9667431E-30
   3.800000     -4.3379217E-30
   3.810000     -4.7119753E-30
   3.820000     -5.0866830E-30
   3.830000     -5.4596315E-30
   3.840000     -5.8282131E-30
   3.850000     -6.1896255E-30
   3.860000     -6.5408749E-30
   3.870000     -6.8787748E-30
   3.880000     -7.1999544E-30
   3.890000     -7.5008607E-30
   3.900000     -7.7777650E-30
   3.910000     -8.0267735E-30
   3.920000     -8.2438340E-30
   3.930000     -8.4247503E-30
   3.940000     -8.5651935E-30
   3.950000     -8.6607181E-30
   3.960000     -8.7067779E-30
   3.970000     -8.6987440E-30
   3.980000     -8.6319285E-30
   3.990000     -8.5016070E-30
   4.000000     -8.3030398E-30
   4.010000     -8.0315033E-30
   4.020000     -7.6823171E-30
   4.030000     -7.2508765E-30
   4.040000     -6.7326855E-30
   4.050000     -6.1233927E-30
   4.060000     -5.4188296E-30
   4.070000     -4.6150503E-30
   4.080000     -3.7083736E-30
   4.090000     -2.6954270E-30
   4.100000     -1.5731926E-30
   4.110000     -3.3905578E-31
   4.120000      1.0091463E-30
   4.130000      2.4730725E-30
   4.140000      4.0538260E-30
   4.150000      5.7519007E-30
   4.160000      7.5671277E-30
   4.170000      9.4986188E-30
   4.180000      1.1544708E-29
   4.190000      1.3702900E-29
   4.200000      1.5969814E-29
   4.210000      1.8341123E-29
   4.220000      2.0811501E-29
   4.230000      2.3374572E-29
   4.240000      2.6022849E-29
   4.250000      2.8747694E-29
   4.260000      3.1539254E-29
   4.270000      3.4386426E-29
   4.280000      3.7276801E-29
   4.290000      4.0196638E-29
   4.300000      4.3130804E-29
   4.310000      4.6062767E-29
   4.320000      4.8974545E-29
   4.330000      5.1846690E-29
   4.340000      5.4658277E-29
   4.350000      5.7386874E-29
   4.360000      6.0008547E-29
   4.370000      6.2497871E-29
   4.380000      6.4827909E-29
   4.390000      6.6970266E-29
   4.400000      6.8895094E-29
   4.410000      7.0571123E-29
   4.420000      7.1965725E-29
   4.430000      7.3044968E-29
   4.440000      7.3773673E-29
   4.450000      7.4115508E-29
   4.460000      7.4033060E-29
   4.470000      7.3487980E-29
   4.480000      7.2441074E-29
   4.490000      7.0852435E-29
   4.500000      6.8681611E-29
   4.510000      6.5887755E-29
   4.520000      6.2429820E-29
   4.530000      5.8266723E-29
   4.540000      5.3357600E-29
   4.550000      4.7662008E-29
   4.560000      4.1140169E-29
   4.570000      3.3753240E-29
   4.580000      2.5463577E-29
   4.590000      1.6235052E-29
   4.600000      6.0333344E-30
   4.610000     -5.1737531E-30
   4.620000     -1.7415891E-29
   4.630000     -3.0719940E-29
   4.640000     -4.5109522E-29
   4.650000     -6.0604652E-29
   4.660000     -7.7221329E-29
   4.670000     -9.4971102E-29
   4.680000     -1.1386068E-28
   4.690000     -1.3389142E-28
   4.700000     -1.5505896E-28
   4.710000     -1.7735264E-28
   4.720000     -2.0075512E-28
   4.730000     -2.2524189E-28
   4.740000     -2.5078071E-28
   4.750000     -2.7733117E-28
   4.760000     -3.0484421E-28
   4.770000     -3.3326159E-28
   4.780000     -3.6251541E-28
   4.790000     -3.9252761E-28
   4.800000     -4.2320953E-28
   4.810000     -4.5446135E-28
   4.820000     -4.8617174E-28
   4.830000     -5.1821734E-28
   4.840000     -5.5046236E-28
   4.850000     -5.8275823E-28
   4.860000     -6.1494312E-28
   4.870000     -6.4684172E-28
   4.880000     -6.7826476E-28
   4.890000     -7.0900906E-28
   4.900000     -7.3885697E-28
   4.910000     -7.6757625E-28
   4.920000     -7.9492022E-28
   4.930000     -8.2062729E-28
   4.940000     -8.4442138E-28
   4.950000     -8.6601144E-28
   4.960000     -8.8509221E-28
   4.970000     -9.0134398E-28
   4.980000     -9.1443289E-28
   4.990000     -9.2401169E-28
   5.000000     -9.2971967E-28
   5.010000     -9.3118385E-28
   5.020000     -9.2801888E-28
   5.030000     -9.1982857E-28
   5.040000     -9.0620618E-28
   5.050000     -8.8673580E-28
   5.060000     -8.6099334E-28
   5.070000     -8.2854787E-28
   5.080000     -7.8896288E-28
   5.090000     -7.4179787E-28
   5.100000     -6.8661001E-28
   5.110000     -6.2295591E-28
   5.120000     -5.5039380E-28
   5.130000     -4.6848554E-28
   5.140000     -3.7679897E-28
   5.150000     -2.7491023E-28
   5.160000     -1.6240619E-28
   5.170000     -3.8887712E-29
   5.180000      9.6027746E-29
   5.190000      2.4270278E-28
   5.200000      4.0147695E-28
   5.210000      5.7266328E-28
   5.220000      7.5654452E-28
   5.230000      9.5336960E-28
   5.240000      1.1633496E-27
   5.250000      1.3866534E-27
   5.260000      1.6234039E-27
   5.270000      1.8736735E-27
   5.280000      2.1374791E-27
   5.290000      2.4147781E-27
   5.300000      2.7054636E-27
   5.310000      3.0093582E-27
   5.320000      3.3262112E-27
   5.330000      3.6556920E-27
   5.340000      3.9973859E-27
   5.350000      4.3507882E-27
   5.360000      4.7152990E-27
   5.370000      5.0902190E-27
   5.380000      5.4747428E-27
   5.390000      5.8679549E-27
   5.400000      6.2688242E-27
   5.410000      6.6761992E-27
   5.420000      7.0888019E-27
   5.430000      7.5052242E-27
   5.440000      7.9239244E-27
   5.450000      8.3432202E-27
   5.460000      8.7612849E-27
   5.470000      9.1761448E-27
   5.480000      9.5856769E-27
   5.490000      9.9876008E-27
   5.500000      1.0379481E-26
   5.510000      1.0758722E-26
   5.520000      1.1122566E-26
   5.530000      1.1468093E-26
   5.540000      1.1792219E-26
   5.550000      1.2091695E-26
   5.560000      1.2363110E-26
   5.570000      1.2602890E-26
   5.580000      1.2807302E-26
   5.590000      1.2972454E-26
   5.600000      1.3094299E-26
   5.610000      1.3168645E-26
   5.620000      1.3191153E-26
   5.630000      1.3157351E-26
   5.640000      1.3062634E-26
   5.650000      1.2902282E-26
   5.660000      1.2671464E-26
   5.670000      1.2365249E-26
   5.680000      1.1978625E-26
   5.690000      1.1506503E-26
   5.700000      1.0943744E-26
   5.710000      1.0285169E-26
   5.720000      9.5255817E-27
   5.730000      8.6597807E-27
   5.740000      7.6825946E-27
   5.750000      6.5888921E-27
   5.760000      5.3736149E-27
   5.770000      4.0318026E-27
   5.780000      2.5586203E-27
   5.790000      9.4938909E-28
   5.800000     -8.0038018E-28
   5.810000     -2.6949570E-27
   5.820000     -4.7383539E-27
   5.830000     -6.9342846E-27
   5.840000     -9.2861324E-27
   5.850000     -1.1796906E-26
   5.860000     -1.4469200E-26
   5.870000     -1.7305151E-26
   5.880000     -2.0306381E-26
   5.890000     -2.3473972E-26
   5.900000     -2.6808399E-26
   5.910000     -3.0309490E-26
   5.920000     -3.3976372E-26
   5.930000     -3.7807416E-26
   5.940000     -4.1800192E-26
   5.950000     -4.5951413E-26
   5.960000     -5.0256874E-26
   5.970000     -5.4711411E-26
   5.980000     -5.9308831E-26
   5.990000     -6.4041855E-26
   6.000000     -6.8902082E-26
   6.010000     -7.3879924E-26
   6.020000     -7.8964533E-26
   6.030000     -8.4143787E-26
   6.040000     -8.9404201E-26
   6.050000     -9.4730892E-26
   6.060000     -1.0010752E-25
   6.070000     -1.0551627E-25
   6.080000     -1.1093778E-25
   6.090000     -1.1635109E-25
   6.100000     -1.2173363E-25
   6.110000     -1.2706116E-25
   6.120000     -1.3230776E-25
   6.130000     -1.3744580E-25
   6.140000     -1.4244587E-25
   6.150000     -1.4727687E-25
   6.160000     -1.5190587E-25
   6.170000     -1.5629818E-25
   6.180000     -1.6041734E-25
   6.190000     -1.6422514E-25
   6.200000     -1.6768159E-25
   6.210000     -1.7074497E-25
   6.220000     -1.7337192E-25
   6.230000     -1.7551734E-25
   6.240000     -1.7713459E-25
   6.250000     -1.7817546E-25
   6.260000     -1.7859031E-25
   6.270000     -1.7832808E-25
   6.280000     -1.7733641E-25
   6.290000     -1.7556176E-25
   6.300000     -1.7294954E-25
   6.310000     -1.6944422E-25
   6.320000     -1.6498947E-25
   6.330000     -1.5952833E-25
   6.340000     -1.5300344E-25
   6.350000     -1.4535711E-25
   6.360000     -1.3653163E-25
   6.370000     -1.2646944E-25
   6.380000     -1.1511337E-25
   6.390000     -1.0240693E-25
   6.400000     -8.8294514E-26
   6.410000     -7.2721734E-26
   6.420000     -5.5635716E-26
   6.430000     -3.6985337E-26
   6.440000     -1.6721665E-26
   6.450000      5.2017280E-27
   6.460000      2.8828404E-26
   6.470000      5.4198682E-26
   6.480000      8.1349241E-26
   6.490000      1.1031273E-25
   6.500000      1.4111733E-25
   6.510000      1.7378625E-25
   6.520000      2.0833738E-25
   6.530000      2.4478275E-25
   6.540000      2.8312805E-25
   6.550000      3.2337223E-25
   6.560000      3.6550689E-25
   6.570000      4.0951582E-25
   6.580000      4.5537449E-25
   6.590000      5.0304970E-25
   6.600000      5.5249856E-25
   6.610000      6.0366851E-25
   6.620000      6.5649655E-25
   6.630000      7.1090883E-25
   6.640000      7.6681984E-25
   6.650000      8.2413226E-25
   6.660000      8.8273614E-25
   6.670000      9.4250872E-25
   6.680000      1.0033136E-24
   6.690000      1.0650007E-24
   6.700000      1.1274052E-24
   6.710000      1.1903478E-24
   6.720000      1.2536338E-24
   6.730000      1.3170531E-24
   6.740000      1.3803795E-24
   6.750000      1.4433706E-24
   6.760000      1.5057676E-24
   6.770000      1.5672950E-24
   6.780000      1.6276602E-24
   6.790000      1.6865535E-24
   6.800000      1.7436484E-24
   6.810000      1.7986013E-24
   6.820000      1.8510509E-24
   6.830000      1.9006195E-24
   6.840000      1.9469127E-24
   6.850000      1.9895188E-24
   6.860000      2.0280105E-24
   6.870000      2.0619446E-24
   6.880000      2.0908624E-24
   6.890000      2.1142904E-24
   6.900000      2.1317412E-24
   6.910000      2.1427146E-24
   6.920000      2.1466974E-24
   6.930000      2.1431651E-24
   6.940000      2.1315830E-24
   6.950000      2.1114077E-24
   6.960000      2.0820871E-24
   6.970000      2.0430642E-24
   6.980000      1.9937763E-24
   6.990000      1.9336582E-24
   7.000000      1.8621432E-24
   7.010000      1.7786658E-24
   7.020000      1.6826634E-24
   7.030000      1.5735780E-24
   7.040000      1.4508596E-24
   7.050000      1.3139680E-24
   7.060000      1.1623758E-24