  -2.600000      0.0000000E+00
  -2.590000      0.0000000E+00
  -2.580000      0.0000000E+00
  -2.570000      0.0000000E+00
  -2.560000      0.0000000E+00
  -2.550000      0.0000000E+00
  -2.540000      0.0000000E+00
  -2.530000      0.0000000E+00
  -2.520000      0.0000000E+00
  -2.510000      0.0000000E+00
  -2.500000      0.0000000E+00
  -2.490000      0.0000000E+00
  -2.480000      0.0000000E+00
  -2.470000      0.0000000E+00
  -2.460000      0.0000000E+00
  -2.450000      0.0000000E+00
  -2.440000      0.0000000E+00
  -2.430000      0.0000000E+00
  -2.420000      0.0000000E+00
  -2.410000      0.0000000E+00
  -2.400000      0.0000000E+00
  -2.390000      0.0000000E+00
  -2.380000      0.0000000E+00
  -2.370000      0.0000000E+00
  -2.360000      0.0000000E+00
  -2.350000      0.0000000E+00
  -2.340000      0.0000000E+00
  -2.330000      0.0000000E+00
  -2.320000      0.0000000E+00
  -2.310000      0.0000000E+00
  -2.300000      0.0000000E+00
  -2.290000      0.0000000E+00
  -2.280000      0.0000000E+00
  -2.270000      0.0000000E+00
  -2.260000      0.0000000E+00
  -2.250000      0.0000000E+00
  -2.240000      0.0000000E+00
  -2.230000      0.0000000E+00
  -2.220000      0.0000000E+00
  -2.210000      0.0000000E+00
  -2.200000      0.0000000E+00
  -2.190000      0.0000000E+00
  -2.180000      0.0000000E+00
  -2.170000      0.0000000E+00
  -2.160000      0.0000000E+00
  -2.150000      0.0000000E+00
  -2.140000      0.0000000E+00
  -2.130000      0.0000000E+00
  -2.120000      0.0000000E+00
  -2.110000      0.0000000E+00
  -2.100000      0.0000000E+00
  -2.090000      0.0000000E+00
  -2.080000      0.0000000E+00
  -2.070000      0.0000000E+00
  -2.060000      0.0000000E+00
  -2.050000      0.0000000E+00
  -2.040000      0.0000000E+00
  -2.030000      0.0000000E+00
  -2.020000      0.0000000E+00
  -2.010000      0.0000000E+00
  -2.000000      0.0000000E+00
  -1.990000      0.0000000E+00
  -1.980000      0.0000000E+00
  -1.970000      0.0000000E+00
  -1.960000      0.0000000E+00
  -1.950000      0.0000000E+00
  -1.940000      0.0000000E+00
  -1.930000      0.0000000E+00
  -1.920000      0.0000000E+00
  -1.910000      0.0000000E+00
  -1.900000      0.0000000E+00
  -1.890000      0.0000000E+00
  -1.880000      0.0000000E+00
  -1.870000      0.0000000E+00
  -1.860000      0.0000000E+00
  -1.850000      0.0000000E+00
  -1.840000      0.0000000E+00
  -1.830000      0.0000000E+00
  -1.820000      0.0000000E+00
  -1.810000      0.0000000E+00
  -1.800000      0.0000000E+00
  -1.790000      0.0000000E+00
  -1.780000      0.0000000E+00
  -1.770000      0.0000000E+00
  -1.760000      0.0000000E+00
  -1.750000      0.0000000E+00
  -1.740000      0.0000000E+00
  -1.730000      0.0000000E+00
  -1.720000      0.0000000E+00
  -1.710000      0.0000000E+00
  -1.700000      0.0000000E+00
  -1.690000      0.0000000E+00
  -1.680000      0.0000000E+00
  -1.670000      0.0000000E+00
  -1.660000      0.0000000E+00
  -1.650000      0.0000000E+00
  -1.640000      0.0000000E+00
  -1.630000      0.0000000E+00
  -1.620000      0.0000000E+00
  -1.610000      0.0000000E+00
  -1.600000      0.0000000E+00
  -1.590000      0.0000000E+00
  -1.580000      0.0000000E+00
  -1.570000      0.0000000E+00
  -1.560000      0.0000000E+00
  -1.550000      0.0000000E+00
  -1.540000      0.0000000E+00
  -1.530000      0.0000000E+00
  -1.520000      0.0000000E+00
  -1.510000      0.0000000E+00
  -1.500000      0.0000000E+00
  -1.490000      0.0000000E+00
  -1.480000      0.0000000E+00
  -1.470000      0.0000000E+00
  -1.460000      0.0000000E+00
  -1.450000      0.0000000E+00
  -1.440000      0.0000000E+00
  -1.430000      0.0000000E+00
  -1.420000      0.0000000E+00
  -1.410000      0.0000000E+00
  -1.400000      0.0000000E+00
  -1.390000      0.0000000E+00
  -1.380000      0.0000000E+00
  -1.370000      0.0000000E+00
  -1.360000      0.0000000E+00
  -1.350000      0.0000000E+00
  -1.340000      0.0000000E+00
  -1.330000      0.0000000E+00
  -1.320000      0.0000000E+00
  -1.310000      0.0000000E+00
  -1.300000      0.0000000E+00
  -1.290000      0.0000000E+00
  -1.280000      0.0000000E+00
  -1.270000      0.0000000E+00
  -1.260000      0.0000000E+00
  -1.250000      0.0000000E+00
  -1.240000      0.0000000E+00
  -1.230000      0.0000000E+00
  -1.220000      0.0000000E+00
  -1.210000      0.0000000E+00
  -1.200000      0.0000000E+00
  -1.190000      0.0000000E+00
  -1.180000      0.0000000E+00
  -1.170000      0.0000000E+00
  -1.160000      0.0000000E+00
  -1.150000      0.0000000E+00
  -1.140000      0.0000000E+00
  -1.130000      0.0000000E+00
  -1.120000      0.0000000E+00
  -1.110000      0.0000000E+00
  -1.100000      0.0000000E+00
  -1.090000      0.0000000E+00
  -1.080000      0.0000000E+00
  -1.070000      0.0000000E+00
  -1.060000      0.0000000E+00
  -1.050000      0.0000000E+00
  -1.040000      0.0000000E+00
  -1.030000      0.0000000E+00
  -1.020000      0.0000000E+00
  -1.010000      0.0000000E+00
  -1.000000      0.0000000E+00
 -0.9900000      0.0000000E+00
 -0.9800000      0.0000000E+00
 -0.9700000      0.0000000E+00
 -0.9600000      0.0000000E+00
 -0.9500000      0.0000000E+00
 -0.9400000      0.0000000E+00
 -0.9300000      0.0000000E+00
 -0.9200000      0.0000000E+00
 -0.9100000      0.0000000E+00
 -0.9000000      0.0000000E+00
 -0.8900000      0.0000000E+00
 -0.8800000      0.0000000E+00
 -0.8700000      0.0000000E+00
 -0.8600000      0.0000000E+00
 -0.8500000      0.0000000E+00
 -0.8400000      0.0000000E+00
 -0.8300000      0.0000000E+00
 -0.8200000      0.0000000E+00
 -0.8100000      0.0000000E+00
 -0.8000000      0.0000000E+00
 -0.7900000      0.0000000E+00
 -0.7800000      0.0000000E+00
 -0.7700000      0.0000000E+00
 -0.7600000      0.0000000E+00
 -0.7500000      0.0000000E+00
 -0.7400000      0.0000000E+00
 -0.7300000      0.0000000E+00
 -0.7200000      0.0000000E+00
 -0.7100000      0.0000000E+00
 -0.7000000      0.0000000E+00
 -0.6900000      0.0000000E+00
 -0.6800000      0.0000000E+00
 -0.6700000      0.0000000E+00
 -0.6600000      0.0000000E+00
 -0.6500000      0.0000000E+00
 -0.6400000      0.0000000E+00
 -0.6300000      0.0000000E+00
 -0.6200000      0.0000000E+00
 -0.6100000      0.0000000E+00
 -0.6000000      0.0000000E+00
 -0.5900000      0.0000000E+00
 -0.5800000      0.0000000E+00
 -0.5700000      0.0000000E+00
 -0.5600000      0.0000000E+00
 -0.5500000      0.0000000E+00
 -0.5400000      0.0000000E+00
 -0.5300000      0.0000000E+00
 -0.5200000      0.0000000E+00
 -0.5100000      0.0000000E+00
 -0.5000000      0.0000000E+00
 -0.4900000      0.0000000E+00
 -0.4800000      0.0000000E+00
 -0.4700000      0.0000000E+00
 -0.4600000      0.0000000E+00
 -0.4500000      0.0000000E+00
 -0.4400000      0.0000000E+00
 -0.4300000      0.0000000E+00
 -0.4200000      0.0000000E+00
 -0.4100000      0.0000000E+00
 -0.4000000      0.0000000E+00
 -0.3900000      0.0000000E+00
 -0.3800000      0.0000000E+00
 -0.3700000      0.0000000E+00
 -0.3600000      0.0000000E+00
 -0.3500000      0.0000000E+00
 -0.3400000      0.0000000E+00
 -0.3300000      0.0000000E+00
 -0.3200000      0.0000000E+00
 -0.3100000      0.0000000E+00
 -0.3000000      0.0000000E+00
 -0.2900000      0.0000000E+00
 -0.2800000      0.0000000E+00
 -0.2700000      0.0000000E+00
 -0.2600000      0.0000000E+00
 -0.2500000      0.0000000E+00
 -0.2400000      0.0000000E+00
 -0.2300000      0.0000000E+00
 -0.2200000      0.0000000E+00
 -0.2100000      0.0000000E+00
 -0.2000000      0.0000000E+00
 -0.1900000      0.0000000E+00
 -0.1800000      0.0000000E+00
 -0.1700000      0.0000000E+00
 -0.1600000      0.0000000E+00
 -0.1500000      0.0000000E+00
 -0.1400000      0.0000000E+00
 -0.1300000      0.0000000E+00
 -0.1200000      0.0000000E+00
 -0.1100000      0.0000000E+00
 -0.1000000      0.0000000E+00
 -9.0000004E-02  0.0000000E+00
 -7.9999998E-02  0.0000000E+00
 -7.0000000E-02  0.0000000E+00
 -5.9999999E-02  0.0000000E+00
 -5.0000001E-02  0.0000000E+00
 -3.9999999E-02  0.0000000E+00
 -2.9999999E-02  0.0000000E+00
 -2.0000000E-02  0.0000000E+00
 -9.9999998E-03  0.0000000E+00
 -3.4694470E-17  0.0000000E+00
  9.9999998E-03  0.0000000E+00
  2.0000000E-02  0.0000000E+00
  2.9999999E-02  0.0000000E+00
  3.9999999E-02  0.0000000E+00
  5.0000001E-02  0.0000000E+00
  5.9999999E-02  0.0000000E+00
  7.0000000E-02  0.0000000E+00
  7.9999998E-02  0.0000000E+00
  9.0000004E-02  0.0000000E+00
  0.1000000      0.0000000E+00
  0.1100000      0.0000000E+00
  0.1200000      0.0000000E+00
  0.1300000      0.0000000E+00
  0.1400000      0.0000000E+00
  0.1500000      0.0000000E+00
  0.1600000      0.0000000E+00
  0.1700000      0.0000000E+00
  0.1800000      0.0000000E+00
  0.1900000      0.0000000E+00
  0.2000000      0.0000000E+00
  0.2100000      0.0000000E+00
  0.2200000      0.0000000E+00
  0.2300000      0.0000000E+00
  0.2400000      0.0000000E+00
  0.2500000      0.0000000E+00
  0.2600000      0.0000000E+00
  0.2700000      0.0000000E+00
  0.2800000      0.0000000E+00
  0.2900000      0.0000000E+00
  0.3000000      0.0000000E+00
  0.3100000      0.0000000E+00
  0.3200000      0.0000000E+00
  0.3300000      0.0000000E+00
  0.3400000      0.0000000E+00
  0.3500000      0.0000000E+00
  0.3600000      0.0000000E+00
  0.3700000      0.0000000E+00
  0.3800000      0.0000000E+00
  0.3900000      0.0000000E+00
  0.4000000      0.0000000E+00
  0.4100000      0.0000000E+00
  0.4200000      0.0000000E+00
  0.4300000      0.0000000E+00
  0.4400000      0.0000000E+00
  0.4500000      0.0000000E+00
  0.4600000      0.0000000E+00
  0.4700000      0.0000000E+00
  0.4800000      0.0000000E+00
  0.4900000      0.0000000E+00
  0.5000000      0.0000000E+00
  0.5100000      0.0000000E+00
  0.5200000      0.0000000E+00
  0.5300000      0.0000000E+00
  0.5400000      0.0000000E+00
  0.5500000      0.0000000E+00
  0.5600000      0.0000000E+00
  0.5700000      0.0000000E+00
  0.5800000      0.0000000E+00
  0.5900000      0.0000000E+00
  0.6000000      0.0000000E+00
  0.6100000      0.0000000E+00
  0.6200000      0.0000000E+00
  0.6300000      0.0000000E+00
  0.6400000      0.0000000E+00
  0.6500000      0.0000000E+00
  0.6600000      0.0000000E+00
  0.6700000      0.0000000E+00
  0.6800000      0.0000000E+00
  0.6900000      0.0000000E+00
  0.7000000      0.0000000E+00
  0.7100000      0.0000000E+00
  0.7200000      0.0000000E+00
  0.7300000      0.0000000E+00
  0.7400000      0.0000000E+00
  0.7500000      0.0000000E+00
  0.7600000      0.0000000E+00
  0.7700000      1.4177528E-38
  0.7800000      1.9020719E-38
  0.7900000      2.4208751E-38
  0.8000000      2.7213575E-38
  0.8100000      2.7435199E-38
  0.8200000      2.6898846E-38
  0.8300000      2.6240351E-38
  0.8400000      2.6196546E-38
  0.8500000      2.7174703E-38
  0.8600000      3.2231796E-38
  0.8700000      4.1564261E-38
  0.8800000      5.5452060E-38
  0.8900000      7.4868664E-38
  0.9000000      9.7222592E-38
  0.9100000      1.2032311E-37
  0.9200000      1.4029039E-37
  0.9300000      1.5523889E-37
  0.9400000      1.6495353E-37
  0.9500000      1.7098843E-37
  0.9600000      1.7430882E-37
  0.9700000      1.7185584E-37
  0.9800000      1.6286048E-37
  0.9900000      1.4849915E-37
   1.000000      1.2942733E-37
   1.010000      1.0519120E-37
   1.020000      8.0875111E-38
   1.030000      6.1135468E-38
   1.040000      4.5270337E-38
   1.050000      2.4816609E-38
   1.060000      0.0000000E+00
   1.070000     -4.1627928E-38
   1.080000     -8.4822210E-38
   1.090000     -1.3609275E-37
   1.100000     -1.8027280E-37
   1.110000     -2.2760560E-37
   1.120000     -2.8490797E-37
   1.130000     -3.4970551E-37
   1.140000     -3.4179356E-37
   1.150000     -2.4724308E-37
   1.160000     -1.2153704E-37
   1.170000      4.4072846E-38
   1.180000      2.5488594E-37
   1.190000      6.2905284E-37
   1.200000      1.1989978E-36
   1.210000      1.8612148E-36
   1.220000      2.5809249E-36
   1.230000      2.8593116E-36
   1.240000      2.5533236E-36
   1.250000      2.0562913E-36
   1.260000      1.4121066E-36
   1.270000      6.8210218E-37
   1.280000     -4.0660867E-38
   1.290000     -6.2299062E-37
   1.300000     -9.7900567E-37
   1.310000     -1.0899517E-36
   1.320000     -9.1842178E-37
   1.330000     -5.3592178E-38
   1.340000      1.4114810E-36
   1.350000      3.0128765E-36
   1.360000      4.7811034E-36
   1.370000      6.0801735E-36
   1.380000      6.6945221E-36
   1.390000      6.9002882E-36
   1.400000      5.9380724E-36
   1.410000      3.8826312E-36
   1.420000      1.6108204E-36
   1.430000     -8.3141284E-37
   1.440000     -3.2828399E-36
   1.450000     -4.7728005E-36
   1.460000     -5.2380560E-36
   1.470000     -5.0644001E-36
   1.480000     -4.4728417E-36
   1.490000     -3.6910365E-36
   1.500000     -2.8861106E-36
   1.510000     -2.2940821E-36
   1.520000     -1.3528537E-36
   1.530000      1.7565919E-38
   1.540000      9.3371472E-37
   1.550000      1.1823885E-36
   1.560000      1.1900219E-36
   1.570000      3.4062998E-37
   1.580000     -1.6937604E-36
   1.590000     -5.0984685E-36
   1.600000     -9.7856418E-36
   1.610000     -1.5128522E-35
   1.620000     -2.1141224E-35
   1.630000     -2.7134568E-35
   1.640000     -3.3081488E-35
   1.650000     -3.8653540E-35
   1.660000     -4.3255052E-35
   1.670000     -4.7337060E-35
   1.680000     -5.0989920E-35
   1.690000     -5.4339786E-35
   1.700000     -5.6327617E-35
   1.710000     -5.7379943E-35
   1.720000     -5.9324961E-35
   1.730000     -6.3765994E-35
   1.740000     -7.0630961E-35
   1.750000     -7.9211422E-35
   1.760000     -8.9448020E-35
   1.770000     -1.0066644E-34
   1.780000     -1.1239636E-34
   1.790000     -1.2380455E-34
   1.800000     -1.3392556E-34
   1.810000     -1.4413273E-34
   1.820000     -1.5524100E-34
   1.830000     -1.6513485E-34
   1.840000     -1.7562400E-34
   1.850000     -1.8732882E-34
   1.860000     -1.9818594E-34
   1.870000     -2.0560092E-34
   1.880000     -2.0499148E-34
   1.890000     -1.9390165E-34
   1.900000     -1.7048237E-34
   1.910000     -1.3796799E-34
   1.920000     -1.0075576E-34
   1.930000     -6.6930410E-35
   1.940000     -3.9961998E-35
   1.950000     -1.4516200E-35
   1.960000      8.9000857E-36
   1.970000      3.3154919E-35
   1.980000      6.1613278E-35
   1.990000      9.7207127E-35
   2.000000      1.4727467E-34
   2.010000      2.0832272E-34
   2.020000      2.8101090E-34
   2.030000      3.6776581E-34
   2.040000      4.5411211E-34
   2.050000      5.3471218E-34
   2.060000      6.1788387E-34
   2.070000      7.0355022E-34
   2.080000      7.7911040E-34
   2.090000      8.5750026E-34
   2.100000      9.5165240E-34
   2.110000      1.0512606E-33
   2.120000      1.1545089E-33
   2.130000      1.2618845E-33
   2.140000      1.3769035E-33
   2.150000      1.4951426E-33
   2.160000      1.6057550E-33
   2.170000      1.7079588E-33
   2.180000      1.8089534E-33
   2.190000      1.9052328E-33
   2.200000      1.9789767E-33
   2.210000      2.0356021E-33
   2.220000      2.0861941E-33
   2.230000      2.1268105E-33
   2.240000      2.1575229E-33
   2.250000      2.1775781E-33
   2.260000      2.1863205E-33
   2.270000      2.1851476E-33
   2.280000      2.1684829E-33
   2.290000      2.1274561E-33
   2.300000      2.0629729E-33
   2.310000      1.9741989E-33
   2.320000      1.8554297E-33
   2.330000      1.7022932E-33
   2.340000      1.5115978E-33
   2.350000      1.2793000E-33
   2.360000      1.0012086E-33
   2.370000      6.7845994E-34
   2.380000      3.0957355E-34
   2.390000     -1.0801200E-34
   2.400000     -5.7300262E-34
   2.410000     -1.0837181E-33
   2.420000     -1.6386713E-33
   2.430000     -2.2367205E-33
   2.440000     -2.8769328E-33
   2.450000     -3.5583437E-33
   2.460000     -4.2804477E-33
   2.470000     -5.0426720E-33
   2.480000     -5.8456926E-33
   2.490000     -6.6878340E-33
   2.500000     -7.5669334E-33
   2.510000     -8.4823709E-33
   2.520000     -9.4294711E-33
   2.530000     -1.0403406E-32
   2.540000     -1.1399425E-32
   2.550000     -1.2409271E-32
   2.560000     -1.3419427E-32
   2.570000     -1.4426069E-32
   2.580000     -1.5424186E-32
   2.590000     -1.6396273E-32
   2.600000     -1.7328685E-32
   2.610000     -1.8208020E-32
   2.620000     -1.9019919E-32
   2.630000     -1.9750561E-32
   2.640000     -2.0385974E-32
   2.650000     -2.0912096E-32
   2.660000     -2.1314969E-32
   2.670000     -2.1580472E-32
   2.680000     -2.1694082E-32
   2.690000     -2.1640642E-32
   2.700000     -2.1403801E-32
   2.710000     -2.0966726E-32
   2.720000     -2.0313346E-32
   2.730000     -1.9424852E-32
   2.740000     -1.8281221E-32
   2.750000     -1.6863921E-32
   2.760000     -1.5154123E-32
   2.770000     -1.3133474E-32
   2.780000     -1.0785576E-32
   2.790000     -8.0956208E-33
   2.800000     -5.0504604E-33
   2.810000     -1.6396851E-33
   2.820000      2.1450327E-33
   2.830000      6.3090112E-33
   2.840000      1.0854691E-32
   2.850000      1.5782150E-32
   2.860000      2.1088712E-32
   2.870000      2.6769163E-32
   2.880000      3.2815797E-32
   2.890000      3.9218235E-32
   2.900000      4.5963313E-32
   2.910000      5.3034702E-32
   2.920000      6.0412557E-32
   2.930000      6.8073148E-32
   2.940000      7.5988287E-32
   2.950000      8.4124823E-32
   2.960000      9.2444267E-32
   2.970000      1.0090242E-31
   2.980000      1.0944008E-31
   2.990000      1.1801125E-31
   3.000000      1.2656134E-31
   3.010000      1.3501527E-31
   3.020000      1.4330108E-31
   3.030000      1.5133618E-31
   3.040000      1.5903523E-31
   3.050000      1.6630821E-31
   3.060000      1.7306084E-31
   3.070000      1.7919487E-31
   3.080000      1.8460843E-31
   3.090000      1.8919605E-31
   3.100000      1.9284902E-31
   3.110000      1.9545528E-31
   3.120000      1.9689963E-31
   3.130000      1.9706388E-31
   3.140000      1.9582719E-31
   3.150000      1.9306648E-31
   3.160000      1.8865723E-31
   3.170000      1.8247426E-31
   3.180000      1.7439291E-31
   3.190000      1.6429023E-31
   3.200000      1.5204647E-31
   3.210000      1.3754650E-31
   3.220000      1.2068126E-31
   3.230000      1.0134929E-31
   3.240000      7.9458099E-32
   3.250000      5.4925544E-32
   3.260000      2.7680926E-32
   3.270000     -2.3338428E-33
   3.280000     -3.5163133E-32
   3.290000     -7.0836600E-32
   3.300000     -1.0936818E-31
   3.310000     -1.5075488E-31
   3.320000     -1.9497563E-31
   3.330000     -2.4198978E-31
   3.340000     -2.9173565E-31
   3.350000     -3.4412889E-31
   3.360000     -3.9906077E-31
   3.370000     -4.5639650E-31
   3.380000     -5.1597337E-31
   3.390000     -5.7759894E-31
   3.400000     -6.4104978E-31
   3.410000     -7.0607004E-31
   3.420000     -7.7237032E-31
   3.430000     -8.3962674E-31
   3.440000     -9.0748023E-31
   3.450000     -9.7553646E-31
   3.460000     -1.0433656E-30
   3.470000     -1.1105021E-30
   3.480000     -1.1764452E-30
   3.490000     -1.2406593E-30
   3.500000     -1.3025745E-30
   3.510000     -1.3615868E-30
   3.520000     -1.4170592E-30
   3.530000     -1.4683232E-30
   3.540000     -1.5146788E-30
   3.550000     -1.5553972E-30
   3.560000     -1.5897216E-30
   3.570000     -1.6168705E-30
   3.580000     -1.6360399E-30
   3.590000     -1.6464066E-30
   3.600000     -1.6471320E-30
   3.610000     -1.6373660E-30
   3.620000     -1.6162517E-30
   3.630000     -1.5829310E-30
   3.640000     -1.5365489E-30
   3.650000     -1.4762606E-30
   3.660000     -1.4012368E-30
   3.670000     -1.3106706E-30
   3.680000     -1.2037834E-30
   3.690000     -1.0798323E-30
   3.700000     -9.3811681E-31
   3.710000     -7.7798603E-31
   3.720000     -5.9884695E-31
   3.730000     -4.0017208E-31
   3.740000     -1.8150760E-31
   3.750000      5.7517444E-32
   3.760000      3.1718178E-31
   3.770000      5.9766266E-31
   3.780000      8.9902598E-31
   3.790000      1.2212154E-30
   3.800000      1.5640420E-30
   3.810000      1.9271743E-30
   3.820000      2.3101272E-30
   3.830000      2.7122525E-30
   3.840000      3.1327278E-30
   3.850000      3.5705466E-30
   3.860000      4.0245086E-30
   3.870000      4.4932122E-30
   3.880000      4.9750446E-30
   3.890000      5.4681725E-30
   3.900000      5.9705374E-30
   3.910000      6.4798470E-30
   3.920000      6.9935692E-30
   3.930000      7.5089278E-30
   3.940000      8.0228960E-30
   3.950000      8.5321931E-30
   3.960000      9.0332840E-30
   3.970000      9.5223754E-30
   3.980000      9.9954147E-30
   3.990000      1.0448098E-29
   4.000000      1.0875866E-29
   4.010000      1.1273910E-29
   4.020000      1.1637183E-29
   4.030000      1.1960403E-29
   4.040000      1.2238066E-29
   4.050000      1.2464455E-29
   4.060000      1.2633661E-29
   4.070000      1.2739590E-29
   4.080000      1.2775990E-29
   4.090000      1.2736471E-29
   4.100000      1.2614527E-29
   4.110000      1.2403555E-29
   4.120000      1.2096892E-29
   4.130000      1.1687844E-29
   4.140000      1.1169719E-29
   4.150000      1.0535861E-29
   4.160000      9.7796864E-30
   4.170000      8.8947412E-30
   4.180000      7.8747326E-30
   4.190000      6.7135826E-30
   4.200000      5.4054760E-30
   4.210000      3.9449229E-30
   4.220000      2.3268132E-30
   4.230000      5.4647566E-31
   4.240000     -1.4002572E-30
   4.250000     -3.5169851E-30
   4.260000     -5.8066698E-30
   4.270000     -8.2715607E-30
   4.280000     -1.0913131E-29
   4.290000     -1.3731995E-29
   4.300000     -1.6727838E-29
   4.310000     -1.9899336E-29
   4.320000     -2.3244077E-29
   4.330000     -2.6758485E-29
   4.340000     -3.0437731E-29
   4.350000     -3.4275673E-29
   4.360000     -3.8264752E-29
   4.370000     -4.2395935E-29
   4.380000     -4.6658614E-29
   4.390000     -5.1040544E-29
   4.400000     -5.5527768E-29
   4.410000     -6.0104524E-29
   4.420000     -6.4753195E-29
   4.430000     -6.9454240E-29
   4.440000     -7.4186129E-29
   4.450000     -7.8925271E-29
   4.460000     -8.3645966E-29
   4.470000     -8.8320367E-29
   4.480000     -9.2918416E-29
   4.490000     -9.7407825E-29
   4.500000     -1.0175404E-28
   4.510000     -1.0592022E-28
   4.520000     -1.0986725E-28
   4.530000     -1.1355370E-28
   4.540000     -1.1693583E-28
   4.550000     -1.1996772E-28
   4.560000     -1.2260113E-28
   4.570000     -1.2478568E-28
   4.580000     -1.2646891E-28
   4.590000     -1.2759629E-28
   4.600000     -1.2811137E-28
   4.610000     -1.2795587E-28
   4.620000     -1.2706988E-28
   4.630000     -1.2539193E-28
   4.640000     -1.2285915E-28
   4.650000     -1.1940757E-28
   4.660000     -1.1497223E-28
   4.670000     -1.0948746E-28
   4.680000     -1.0288716E-28
   4.690000     -9.5105039E-29
   4.700000     -8.6074955E-29
   4.710000     -7.5731225E-29
   4.720000     -6.4008992E-29
   4.730000     -5.0844599E-29
   4.740000     -3.6175976E-29
   4.750000     -1.9943141E-29
   4.760000     -2.0886473E-30
   4.770000      1.7441968E-29
   4.780000      3.8699706E-29
   4.790000      6.1731574E-29
   4.800000      8.6579946E-29
   4.810000      1.1328203E-28
   4.820000      1.4186928E-28
   4.830000      1.7236670E-28
   4.840000      2.0479222E-28
   4.850000      2.3915613E-28
   4.860000      2.7546015E-28
   4.870000      3.1369689E-28
   4.880000      3.5384889E-28
   4.890000      3.9588816E-28
   4.900000      4.3977522E-28
   4.910000      4.8545823E-28
   4.920000      5.3287222E-28
   4.930000      5.8193861E-28
   4.940000      6.3256389E-28
   4.950000      6.8463925E-28
   4.960000      7.3803966E-28
   4.970000      7.9262282E-28
   4.980000      8.4822876E-28
   4.990000      9.0467863E-28
   5.000000      9.6177436E-28
   5.010000      1.0192979E-27
   5.020000      1.0770103E-27
   5.030000      1.1346512E-27
   5.040000      1.1919381E-27
   5.050000      1.2485660E-27
   5.060000      1.3042066E-27
   5.070000      1.3585080E-27
   5.080000      1.4110944E-27
   5.090000      1.4615655E-27
   5.100000      1.5094968E-27
   5.110000      1.5544391E-27
   5.120000      1.5959180E-27
   5.130000      1.6334351E-27
   5.140000      1.6664667E-27
   5.150000      1.6944659E-27
   5.160000      1.7168614E-27
   5.170000      1.7330588E-27
   5.180000      1.7424408E-27
   5.190000      1.7443685E-27
   5.200000      1.7381826E-27
   5.210000      1.7232042E-27
   5.220000      1.6987365E-27
   5.230000      1.6640657E-27
   5.240000      1.6184625E-27
   5.250000      1.5611859E-27
   5.260000      1.4914833E-27
   5.270000      1.4085940E-27
   5.280000      1.3117511E-27
   5.290000      1.2001854E-27
   5.300000      1.0731280E-27
   5.310000      9.2981288E-28
   5.320000      7.6948186E-28
   5.330000      5.9138775E-28
   5.340000      3.9479893E-28
   5.350000      1.7900343E-28
   5.360000     -5.6686239E-29
   5.370000     -3.1292832E-28
   5.380000     -5.9034592E-28
   5.390000     -8.8952185E-28
   5.400000     -1.2109935E-27
   5.410000     -1.5552460E-27
   5.420000     -1.9227056E-27
   5.430000     -2.3137337E-27
   5.440000     -2.7286200E-27
   5.450000     -3.1675760E-27
   5.460000     -3.6307265E-27
   5.470000     -4.1181028E-27
   5.480000     -4.6296336E-27
   5.490000     -5.1651392E-27
   5.500000     -5.7243226E-27
   5.510000     -6.3067600E-27
   5.520000     -6.9118937E-27
   5.530000     -7.5390235E-27
   5.540000     -8.1872969E-27
   5.550000     -8.8557024E-27
   5.560000     -9.5430584E-27
   5.570000     -1.0248006E-26
   5.580000     -1.0969001E-26
   5.590000     -1.1704302E-26
   5.600000     -1.2451966E-26
   5.610000     -1.3209838E-26
   5.620000     -1.3975546E-26
   5.630000     -1.4746490E-26
   5.640000     -1.5519829E-26
   5.650000     -1.6292489E-26
   5.660000     -1.7061143E-26
   5.670000     -1.7822204E-26
   5.680000     -1.8571836E-26
   5.690000     -1.9305927E-26
   5.700000     -2.0020100E-26
   5.710000     -2.0709703E-26
   5.720000     -2.1369807E-26
   5.730000     -2.1995209E-26
   5.740000     -2.2580427E-26
   5.750000     -2.3119700E-26
   5.760000     -2.3606992E-26
   5.770000     -2.4036002E-26
   5.780000     -2.4400141E-26
   5.790000     -2.4692564E-26
   5.800000     -2.4906171E-26
   5.810000     -2.5033615E-26
   5.820000     -2.5067308E-26
   5.830000     -2.4999440E-26
   5.840000     -2.4821984E-26
   5.850000     -2.4526713E-26
   5.860000     -2.4105223E-26
   5.870000     -2.3548956E-26
   5.880000     -2.2849214E-26
   5.890000     -2.1997185E-26
   5.900000     -2.0983971E-26
   5.910000     -1.9800614E-26
   5.920000     -1.8438123E-26
   5.930000     -1.6887531E-26
   5.940000     -1.5139911E-26
   5.950000     -1.3186403E-26
   5.960000     -1.1018285E-26
   5.970000     -8.6270044E-27
   5.980000     -6.0042156E-27
   5.990000     -3.1418498E-27
   6.000000     -3.2163957E-29
   6.010000      3.3322082E-27
   6.020000      6.9582023E-27
   6.030000      1.0852270E-26
   6.040000      1.5020300E-26
   6.050000      1.9467557E-26
   6.060000      2.4198616E-26
   6.070000      2.9217297E-26
   6.080000      3.4526584E-26
   6.090000      4.0128531E-26
   6.100000      4.6024210E-26
   6.110000      5.2213625E-26
   6.120000      5.8695615E-26
   6.130000      6.5467776E-26
   6.140000      7.2526386E-26
   6.150000      7.9866300E-26
   6.160000      8.7480909E-26
   6.170000      9.5361987E-26
   6.180000      1.0349966E-25
   6.190000      1.1188227E-25
   6.200000      1.2049632E-25
   6.210000      1.2932637E-25
   6.220000      1.3835501E-25
   6.230000      1.4756268E-25
   6.240000      1.5692763E-25
   6.250000      1.6642587E-25
   6.260000      1.7603101E-25
   6.270000      1.8571424E-25
   6.280000      1.9544428E-25
   6.290000      2.0518726E-25
   6.300000      2.1490669E-25
   6.310000      2.2456343E-25
   6.320000      2.3411550E-25
   6.330000      2.4351823E-25
   6.340000      2.5272411E-25
   6.350000      2.6168281E-25
   6.360000      2.7034110E-25
   6.370000      2.7864285E-25
   6.380000      2.8652912E-25
   6.390000      2.9393800E-25
   6.400000      3.0080487E-25
   6.410000      3.0706216E-25
   6.420000      3.1263965E-25
   6.430000      3.1746438E-25
   6.440000      3.2146074E-25
   6.450000      3.2455066E-25
   6.460000      3.2665355E-25
   6.470000      3.2768661E-25
   6.480000      3.2756485E-25
   6.490000      3.2620128E-25
   6.500000      3.2350700E-25
   6.510000      3.1939166E-25
   6.520000      3.1376336E-25
   6.530000      3.0652911E-25
   6.540000      2.9759502E-25
   6.550000      2.8686653E-25
   6.560000      2.7424880E-25
   6.570000      2.5964708E-25
   6.580000      2.4296684E-25
   6.590000      2.2411435E-25
   6.600000      2.0299705E-25
   6.610000      1.7952392E-25
   6.620000      1.5360598E-25
   6.630000      1.2515685E-25
   6.640000      9.4092962E-26
   6.650000      6.0334282E-26
   6.660000      2.3804973E-26
   6.670000     -1.5566178E-26
   6.680000     -5.7845253E-26
   6.690000     -1.0309248E-25
   6.700000     -1.5136168E-25
   6.710000     -2.0269962E-25
   6.720000     -2.5714514E-25
   6.730000     -3.1472866E-25
   6.740000     -3.7547149E-25
   6.750000     -4.3938492E-25
   6.760000     -5.0646966E-25
   6.770000     -5.7671501E-25
   6.780000     -6.5009795E-25
   6.790000     -7.2658256E-25
   6.800000     -8.0611916E-25
   6.810000     -8.8864353E-25
   6.820000     -9.7407608E-25
   6.830000     -1.0623210E-24
   6.840000     -1.1532658E-24
   6.850000     -1.2467802E-24
   6.860000     -1.3427153E-24
   6.870000     -1.4409035E-24
   6.880000     -1.5411567E-24
   6.890000     -1.6432667E-24
   6.900000     -1.7470035E-24
   6.910000     -1.8521152E-24
   6.920000     -1.9583277E-24
   6.930000     -2.0653434E-24
   6.940000     -2.1728406E-24
   6.950000     -2.2804742E-24
   6.960000     -2.3878733E-24
   6.970000     -2.4946425E-24
   6.980000     -2.6003609E-24
   6.990000     -2.7045820E-24
   7.000000     -2.8068328E-24
   7.010000     -2.9066144E-24
   7.020000     -3.0034019E-24
   7.030000     -3.0966447E-24
   7.040000     -3.1857663E-24
   7.050000     -3.2701643E-24
   7.060000     -3.3492115E-24