  -2.600000      0.0000000E+00
  -2.590000      0.0000000E+00
  -2.580000      0.0000000E+00
  -2.570000      0.0000000E+00
  -2.560000      0.0000000E+00
  -2.550000      0.0000000E+00
  -2.540000      0.0000000E+00
  -2.530000      0.0000000E+00
  -2.520000      0.0000000E+00
  -2.510000      0.0000000E+00
  -2.500000      0.0000000E+00
  -2.490000      0.0000000E+00
  -2.480000      0.0000000E+00
  -2.470000      0.0000000E+00
  -2.460000      0.0000000E+00
  -2.450000      0.0000000E+00
  -2.440000      0.0000000E+00
  -2.430000      0.0000000E+00
  -2.420000      0.0000000E+00
  -2.410000      0.0000000E+00
  -2.400000      0.0000000E+00
  -2.390000      0.0000000E+00
  -2.380000      0.0000000E+00
  -2.370000      0.0000000E+00
  -2.360000      0.0000000E+00
  -2.350000      0.0000000E+00
  -2.340000      0.0000000E+00
  -2.330000      0.0000000E+00
  -2.320000      0.0000000E+00
  -2.310000      0.0000000E+00
  -2.300000      0.0000000E+00
  -2.290000      0.0000000E+00
  -2.280000      0.0000000E+00
  -2.270000      0.0000000E+00
  -2.260000      0.0000000E+00
  -2.250000      0.0000000E+00
  -2.240000      0.0000000E+00
  -2.230000      0.0000000E+00
  -2.220000      0.0000000E+00
  -2.210000      0.0000000E+00
  -2.200000      0.0000000E+00
  -2.190000      0.0000000E+00
  -2.180000      0.0000000E+00
  -2.170000      0.0000000E+00
  -2.160000      0.0000000E+00
  -2.150000      0.0000000E+00
  -2.140000      0.0000000E+00
  -2.130000      0.0000000E+00
  -2.120000      0.0000000E+00
  -2.110000      0.0000000E+00
  -2.100000      0.0000000E+00
  -2.090000      0.0000000E+00
  -2.080000      0.0000000E+00
  -2.070000      0.0000000E+00
  -2.060000      0.0000000E+00
  -2.050000      0.0000000E+00
  -2.040000      0.0000000E+00
  -2.030000      0.0000000E+00
  -2.020000      0.0000000E+00
  -2.010000      0.0000000E+00
  -2.000000      0.0000000E+00
  -1.990000      0.0000000E+00
  -1.980000      0.0000000E+00
  -1.970000      0.0000000E+00
  -1.960000      0.0000000E+00
  -1.950000      0.0000000E+00
  -1.940000      0.0000000E+00
  -1.930000      0.0000000E+00
  -1.920000      0.0000000E+00
  -1.910000      0.0000000E+00
  -1.900000      0.0000000E+00
  -1.890000      0.0000000E+00
  -1.880000      0.0000000E+00
  -1.870000      0.0000000E+00
  -1.860000      0.0000000E+00
  -1.850000      0.0000000E+00
  -1.840000      0.0000000E+00
  -1.830000      0.0000000E+00
  -1.820000      0.0000000E+00
  -1.810000      0.0000000E+00
  -1.800000      0.0000000E+00
  -1.790000      0.0000000E+00
  -1.780000      0.0000000E+00
  -1.770000      0.0000000E+00
  -1.760000      0.0000000E+00
  -1.750000      0.0000000E+00
  -1.740000      0.0000000E+00
  -1.730000      0.0000000E+00
  -1.720000      0.0000000E+00
  -1.710000      0.0000000E+00
  -1.700000      0.0000000E+00
  -1.690000      0.0000000E+00
  -1.680000      0.0000000E+00
  -1.670000      0.0000000E+00
  -1.660000      0.0000000E+00
  -1.650000      0.0000000E+00
  -1.640000      0.0000000E+00
  -1.630000      0.0000000E+00
  -1.620000      0.0000000E+00
  -1.610000      0.0000000E+00
  -1.600000      0.0000000E+00
  -1.590000      0.0000000E+00
  -1.580000      0.0000000E+00
  -1.570000      0.0000000E+00
  -1.560000      0.0000000E+00
  -1.550000      0.0000000E+00
  -1.540000      0.0000000E+00
  -1.530000      0.0000000E+00
  -1.520000      0.0000000E+00
  -1.510000      0.0000000E+00
  -1.500000      0.0000000E+00
  -1.490000      0.0000000E+00
  -1.480000      0.0000000E+00
  -1.470000      0.0000000E+00
  -1.460000      0.0000000E+00
  -1.450000      0.0000000E+00
  -1.440000      0.0000000E+00
  -1.430000      0.0000000E+00
  -1.420000      0.0000000E+00
  -1.410000      0.0000000E+00
  -1.400000      0.0000000E+00
  -1.390000      0.0000000E+00
  -1.380000      0.0000000E+00
  -1.370000      0.0000000E+00
  -1.360000      0.0000000E+00
  -1.350000      0.0000000E+00
  -1.340000      0.0000000E+00
  -1.330000      0.0000000E+00
  -1.320000      0.0000000E+00
  -1.310000      0.0000000E+00
  -1.300000      0.0000000E+00
  -1.290000      0.0000000E+00
  -1.280000      0.0000000E+00
  -1.270000      0.0000000E+00
  -1.260000      0.0000000E+00
  -1.250000      0.0000000E+00
  -1.240000      0.0000000E+00
  -1.230000      0.0000000E+00
  -1.220000      0.0000000E+00
  -1.210000      0.0000000E+00
  -1.200000      0.0000000E+00
  -1.190000      0.0000000E+00
  -1.180000      0.0000000E+00
  -1.170000      0.0000000E+00
  -1.160000      0.0000000E+00
  -1.150000      0.0000000E+00
  -1.140000      0.0000000E+00
  -1.130000      0.0000000E+00
  -1.120000      0.0000000E+00
  -1.110000      0.0000000E+00
  -1.100000      0.0000000E+00
  -1.090000      0.0000000E+00
  -1.080000      0.0000000E+00
  -1.070000      0.0000000E+00
  -1.060000      0.0000000E+00
  -1.050000      0.0000000E+00
  -1.040000      0.0000000E+00
  -1.030000      0.0000000E+00
  -1.020000      0.0000000E+00
  -1.010000      0.0000000E+00
  -1.000000      0.0000000E+00
 -0.9900000      0.0000000E+00
 -0.9800000      0.0000000E+00
 -0.9700000      0.0000000E+00
 -0.9600000      0.0000000E+00
 -0.9500000      0.0000000E+00
 -0.9400000      0.0000000E+00
 -0.9300000      0.0000000E+00
 -0.9200000      0.0000000E+00
 -0.9100000      0.0000000E+00
 -0.9000000      0.0000000E+00
 -0.8900000      0.0000000E+00
 -0.8800000      0.0000000E+00
 -0.8700000      0.0000000E+00
 -0.8600000      0.0000000E+00
 -0.8500000      0.0000000E+00
 -0.8400000      0.0000000E+00
 -0.8300000      0.0000000E+00
 -0.8200000      0.0000000E+00
 -0.8100000      0.0000000E+00
 -0.8000000      0.0000000E+00
 -0.7900000      0.0000000E+00
 -0.7800000      0.0000000E+00
 -0.7700000      0.0000000E+00
 -0.7600000      0.0000000E+00
 -0.7500000      0.0000000E+00
 -0.7400000      0.0000000E+00
 -0.7300000      0.0000000E+00
 -0.7200000      0.0000000E+00
 -0.7100000      0.0000000E+00
 -0.7000000      0.0000000E+00
 -0.6900000      0.0000000E+00
 -0.6800000      0.0000000E+00
 -0.6700000      0.0000000E+00
 -0.6600000      0.0000000E+00
 -0.6500000      0.0000000E+00
 -0.6400000      0.0000000E+00
 -0.6300000      0.0000000E+00
 -0.6200000      0.0000000E+00
 -0.6100000      0.0000000E+00
 -0.6000000      0.0000000E+00
 -0.5900000      0.0000000E+00
 -0.5800000      0.0000000E+00
 -0.5700000      0.0000000E+00
 -0.5600000      0.0000000E+00
 -0.5500000      0.0000000E+00
 -0.5400000      0.0000000E+00
 -0.5300000      0.0000000E+00
 -0.5200000      0.0000000E+00
 -0.5100000      0.0000000E+00
 -0.5000000      0.0000000E+00
 -0.4900000      0.0000000E+00
 -0.4800000      0.0000000E+00
 -0.4700000      0.0000000E+00
 -0.4600000      0.0000000E+00
 -0.4500000      0.0000000E+00
 -0.4400000      0.0000000E+00
 -0.4300000      0.0000000E+00
 -0.4200000      0.0000000E+00
 -0.4100000      0.0000000E+00
 -0.4000000      0.0000000E+00
 -0.3900000      0.0000000E+00
 -0.3800000      0.0000000E+00
 -0.3700000      0.0000000E+00
 -0.3600000      0.0000000E+00
 -0.3500000      0.0000000E+00
 -0.3400000      0.0000000E+00
 -0.3300000      0.0000000E+00
 -0.3200000      0.0000000E+00
 -0.3100000      0.0000000E+00
 -0.3000000      0.0000000E+00
 -0.2900000      0.0000000E+00
 -0.2800000      0.0000000E+00
 -0.2700000      0.0000000E+00
 -0.2600000      0.0000000E+00
 -0.2500000      0.0000000E+00
 -0.2400000      0.0000000E+00
 -0.2300000      0.0000000E+00
 -0.2200000      0.0000000E+00
 -0.2100000      0.0000000E+00
 -0.2000000      0.0000000E+00
 -0.1900000      0.0000000E+00
 -0.1800000      0.0000000E+00
 -0.1700000      0.0000000E+00
 -0.1600000      0.0000000E+00
 -0.1500000      0.0000000E+00
 -0.1400000      0.0000000E+00
 -0.1300000      0.0000000E+00
 -0.1200000      0.0000000E+00
 -0.1100000      0.0000000E+00
 -0.1000000      0.0000000E+00
 -9.0000004E-02  0.0000000E+00
 -7.9999998E-02  0.0000000E+00
 -7.0000000E-02  0.0000000E+00
 -5.9999999E-02  0.0000000E+00
 -5.0000001E-02  0.0000000E+00
 -3.9999999E-02  0.0000000E+00
 -2.9999999E-02  0.0000000E+00
 -2.0000000E-02  0.0000000E+00
 -9.9999998E-03  0.0000000E+00
 -3.4694470E-17  0.0000000E+00
  9.9999998E-03  0.0000000E+00
  2.0000000E-02  0.0000000E+00
  2.9999999E-02  0.0000000E+00
  3.9999999E-02  0.0000000E+00
  5.0000001E-02  0.0000000E+00
  5.9999999E-02  0.0000000E+00
  7.0000000E-02  0.0000000E+00
  7.9999998E-02  0.0000000E+00
  9.0000004E-02  0.0000000E+00
  0.1000000      0.0000000E+00
  0.1100000      0.0000000E+00
  0.1200000      0.0000000E+00
  0.1300000      0.0000000E+00
  0.1400000      0.0000000E+00
  0.1500000      0.0000000E+00
  0.1600000      0.0000000E+00
  0.1700000      0.0000000E+00
  0.1800000      0.0000000E+00
  0.1900000      0.0000000E+00
  0.2000000      0.0000000E+00
  0.2100000      0.0000000E+00
  0.2200000      0.0000000E+00
  0.2300000      0.0000000E+00
  0.2400000      0.0000000E+00
  0.2500000      0.0000000E+00
  0.2600000      0.0000000E+00
  0.2700000      0.0000000E+00
  0.2800000      0.0000000E+00
  0.2900000      0.0000000E+00
  0.3000000      0.0000000E+00
  0.3100000      0.0000000E+00
  0.3200000      0.0000000E+00
  0.3300000      0.0000000E+00
  0.3400000      0.0000000E+00
  0.3500000      0.0000000E+00
  0.3600000      0.0000000E+00
  0.3700000      0.0000000E+00
  0.3800000      0.0000000E+00
  0.3900000      0.0000000E+00
  0.4000000      0.0000000E+00
  0.4100000      0.0000000E+00
  0.4200000      0.0000000E+00
  0.4300000      0.0000000E+00
  0.4400000      0.0000000E+00
  0.4500000      0.0000000E+00
  0.4600000      0.0000000E+00
  0.4700000      0.0000000E+00
  0.4800000      0.0000000E+00
  0.4900000      0.0000000E+00
  0.5000000      0.0000000E+00
  0.5100000      0.0000000E+00
  0.5200000      0.0000000E+00
  0.5300000      0.0000000E+00
  0.5400000      0.0000000E+00
  0.5500000      0.0000000E+00
  0.5600000      0.0000000E+00
  0.5700000      0.0000000E+00
  0.5800000      0.0000000E+00
  0.5900000      0.0000000E+00
  0.6000000      0.0000000E+00
  0.6100000      0.0000000E+00
  0.6200000      0.0000000E+00
  0.6300000      0.0000000E+00
  0.6400000      0.0000000E+00
  0.6500000      0.0000000E+00
  0.6600000      0.0000000E+00
  0.6700000      0.0000000E+00
  0.6800000      0.0000000E+00
  0.6900000      0.0000000E+00
  0.7000000      0.0000000E+00
  0.7100000      0.0000000E+00
  0.7200000      0.0000000E+00
  0.7300000      0.0000000E+00
  0.7400000      0.0000000E+00
  0.7500000      0.0000000E+00
  0.7600000      0.0000000E+00
  0.7700000      0.0000000E+00
  0.7800000      0.0000000E+00
  0.7900000      0.0000000E+00
  0.8000000      0.0000000E+00
  0.8100000      0.0000000E+00
  0.8200000      0.0000000E+00
  0.8300000      0.0000000E+00
  0.8400000      0.0000000E+00
  0.8500000      0.0000000E+00
  0.8600000      0.0000000E+00
  0.8700000      0.0000000E+00
  0.8800000      0.0000000E+00
  0.8900000      0.0000000E+00
  0.9000000      0.0000000E+00
  0.9100000      0.0000000E+00
  0.9200000      0.0000000E+00
  0.9300000      0.0000000E+00
  0.9400000      0.0000000E+00
  0.9500000      0.0000000E+00
  0.9600000      0.0000000E+00
  0.9700000      0.0000000E+00
  0.9800000      0.0000000E+00
  0.9900000      0.0000000E+00
   1.000000      0.0000000E+00
   1.010000      0.0000000E+00
   1.020000      0.0000000E+00
   1.030000      0.0000000E+00
   1.040000      0.0000000E+00
   1.050000      0.0000000E+00
   1.060000      0.0000000E+00
   1.070000      0.0000000E+00
   1.080000      0.0000000E+00
   1.090000      0.0000000E+00
   1.100000      0.0000000E+00
   1.110000      0.0000000E+00
   1.120000      0.0000000E+00
   1.130000      0.0000000E+00
   1.140000      0.0000000E+00
   1.150000      0.0000000E+00
   1.160000      0.0000000E+00
   1.170000      0.0000000E+00
   1.180000      0.0000000E+00
   1.190000      0.0000000E+00
   1.200000      0.0000000E+00
   1.210000      0.0000000E+00
   1.220000      0.0000000E+00
   1.230000      0.0000000E+00
   1.240000      0.0000000E+00
   1.250000      0.0000000E+00
   1.260000      0.0000000E+00
   1.270000      0.0000000E+00
   1.280000      0.0000000E+00
   1.290000      0.0000000E+00
   1.300000      0.0000000E+00
   1.310000      0.0000000E+00
   1.320000      0.0000000E+00
   1.330000      0.0000000E+00
   1.340000      0.0000000E+00
   1.350000      0.0000000E+00
   1.360000      0.0000000E+00
   1.370000      0.0000000E+00
   1.380000      0.0000000E+00
   1.390000      0.0000000E+00
   1.400000      0.0000000E+00
   1.410000      0.0000000E+00
   1.420000      0.0000000E+00
   1.430000      0.0000000E+00
   1.440000      0.0000000E+00
   1.450000      0.0000000E+00
   1.460000      0.0000000E+00
   1.470000      0.0000000E+00
   1.480000      0.0000000E+00
   1.490000      0.0000000E+00
   1.500000      0.0000000E+00
   1.510000      0.0000000E+00
   1.520000      0.0000000E+00
   1.530000      0.0000000E+00
   1.540000      0.0000000E+00
   1.550000      0.0000000E+00
   1.560000      0.0000000E+00
   1.570000      0.0000000E+00
   1.580000      0.0000000E+00
   1.590000      0.0000000E+00
   1.600000      0.0000000E+00
   1.610000      0.0000000E+00
   1.620000      0.0000000E+00
   1.630000      0.0000000E+00
   1.640000      0.0000000E+00
   1.650000      0.0000000E+00
   1.660000      0.0000000E+00
   1.670000      0.0000000E+00
   1.680000      0.0000000E+00
   1.690000      0.0000000E+00
   1.700000      0.0000000E+00
   1.710000      0.0000000E+00
   1.720000      0.0000000E+00
   1.730000      0.0000000E+00
   1.740000      0.0000000E+00
   1.750000      0.0000000E+00
   1.760000      0.0000000E+00
   1.770000      0.0000000E+00
   1.780000      0.0000000E+00
   1.790000      0.0000000E+00
   1.800000      0.0000000E+00
   1.810000      0.0000000E+00
   1.820000      0.0000000E+00
   1.830000      0.0000000E+00
   1.840000      0.0000000E+00
   1.850000      0.0000000E+00
   1.860000      0.0000000E+00
   1.870000      0.0000000E+00
   1.880000      0.0000000E+00
   1.890000      0.0000000E+00
   1.900000      0.0000000E+00
   1.910000      0.0000000E+00
   1.920000      0.0000000E+00
   1.930000      0.0000000E+00
   1.940000      0.0000000E+00
   1.950000      0.0000000E+00
   1.960000      0.0000000E+00
   1.970000      0.0000000E+00
   1.980000      0.0000000E+00
   1.990000      0.0000000E+00
   2.000000      0.0000000E+00
   2.010000      0.0000000E+00
   2.020000      0.0000000E+00
   2.030000      0.0000000E+00
   2.040000      0.0000000E+00
   2.050000      0.0000000E+00
   2.060000      0.0000000E+00
   2.070000      0.0000000E+00
   2.080000      0.0000000E+00
   2.090000      0.0000000E+00
   2.100000      0.0000000E+00
   2.110000      0.0000000E+00
   2.120000      0.0000000E+00
   2.130000      0.0000000E+00
   2.140000      0.0000000E+00
   2.150000      0.0000000E+00
   2.160000      0.0000000E+00
   2.170000      0.0000000E+00
   2.180000      0.0000000E+00
   2.190000      0.0000000E+00
   2.200000      0.0000000E+00
   2.210000      0.0000000E+00
   2.220000      0.0000000E+00
   2.230000      0.0000000E+00
   2.240000      0.0000000E+00
   2.250000      0.0000000E+00
   2.260000      0.0000000E+00
   2.270000      0.0000000E+00
   2.280000      0.0000000E+00
   2.290000      0.0000000E+00
   2.300000      0.0000000E+00
   2.310000      0.0000000E+00
   2.320000      0.0000000E+00
   2.330000      0.0000000E+00
   2.340000      0.0000000E+00
   2.350000      0.0000000E+00
   2.360000      0.0000000E+00
   2.370000      0.0000000E+00
   2.380000      0.0000000E+00
   2.390000      0.0000000E+00
   2.400000      0.0000000E+00
   2.410000      0.0000000E+00
   2.420000      0.0000000E+00
   2.430000      0.0000000E+00
   2.440000      0.0000000E+00
   2.450000      0.0000000E+00
   2.460000      0.0000000E+00
   2.470000      0.0000000E+00
   2.480000      0.0000000E+00
   2.490000      0.0000000E+00
   2.500000      0.0000000E+00
   2.510000      0.0000000E+00
   2.520000      0.0000000E+00
   2.530000      0.0000000E+00
   2.540000      0.0000000E+00
   2.550000      0.0000000E+00
   2.560000      0.0000000E+00
   2.570000      0.0000000E+00
   2.580000      0.0000000E+00
   2.590000      1.2990739E-38
   2.600000      1.6478188E-38
   2.610000      2.0072237E-38
   2.620000      2.3937751E-38
   2.630000      2.8104484E-38
   2.640000      3.2683515E-38
   2.650000      3.7807728E-38
   2.660000      4.4886376E-38
   2.670000      5.4628589E-38
   2.680000      6.5574832E-38
   2.690000      7.6636615E-38
   2.700000      8.8478461E-38
   2.710000      1.0099015E-37
   2.720000      1.1319004E-37
   2.730000      1.2597234E-37
   2.740000      1.3899731E-37
   2.750000      1.5155066E-37
   2.760000      1.6224775E-37
   2.770000      1.6951123E-37
   2.780000      1.7464820E-37
   2.790000      1.7838274E-37
   2.800000      1.8174183E-37
   2.810000      1.8563287E-37
   2.820000      1.9055574E-37
   2.830000      1.9701943E-37
   2.840000      2.0330027E-37
   2.850000      2.5889247E-37
   2.860000      3.6071512E-37
   2.870000      4.6931077E-37
   2.880000      5.9458421E-37
   2.890000      7.3126579E-37
   2.900000      9.2816674E-37
   2.910000      1.1850528E-36
   2.920000      1.4560666E-36
   2.930000      1.4787094E-36
   2.940000      1.1699716E-36
   2.950000      7.4683150E-37
   2.960000      2.6531447E-37
   2.970000     -2.3271247E-37
   2.980000     -7.0428265E-37
   2.990000     -1.0781109E-36
   3.000000     -1.0790225E-36
   3.010000     -7.7654383E-37
   3.020000     -4.7374977E-37
   3.030000     -1.7649114E-37
   3.040000      1.1862317E-37
   3.050000      6.9681584E-38
   3.060000     -3.6269333E-37
   3.070000     -1.2301318E-36
   3.080000     -2.4712681E-36
   3.090000     -3.6398012E-36
   3.100000     -4.4800354E-36
   3.110000     -4.9534739E-36
   3.120000     -4.9724003E-36
   3.130000     -4.6774329E-36
   3.140000     -4.4984319E-36
   3.150000     -4.3747033E-36
   3.160000     -4.2694796E-36
   3.170000     -4.2677117E-36
   3.180000     -4.4106487E-36
   3.190000     -4.6872321E-36
   3.200000     -5.1003584E-36
   3.210000     -5.6653623E-36
   3.220000     -6.5244987E-36
   3.230000     -7.6714746E-36
   3.240000     -8.9757158E-36
   3.250000     -1.0046348E-35
   3.260000     -1.0269166E-35
   3.270000     -9.7331549E-36
   3.280000     -8.7474056E-36
   3.290000     -7.3649980E-36
   3.300000     -5.5758427E-36
   3.310000     -3.4920881E-36
   3.320000     -1.4078048E-36
   3.330000      5.8041773E-37
   3.340000      2.5482987E-36
   3.350000      4.4349506E-36
   3.360000      6.1384510E-36
   3.370000      7.6381146E-36
   3.380000      8.9261089E-36
   3.390000      9.9644620E-36
   3.400000      1.0798795E-35
   3.410000      1.1578862E-35
   3.420000      1.2506597E-35
   3.430000      1.3791840E-35
   3.440000      1.5553248E-35
   3.450000      1.7876817E-35
   3.460000      2.0742535E-35
   3.470000      2.4215330E-35
   3.480000      2.8076011E-35
   3.490000      3.1865442E-35
   3.500000      3.5527164E-35
   3.510000      3.8993989E-35
   3.520000      4.1999162E-35
   3.530000      4.4006847E-35
   3.540000      4.5189289E-35
   3.550000      4.6412873E-35
   3.560000      4.7129718E-35
   3.570000      4.6510325E-35
   3.580000      4.5278427E-35
   3.590000      4.4311118E-35
   3.600000      4.3505092E-35
   3.610000      4.2673057E-35
   3.620000      4.1318919E-35
   3.630000      3.8584905E-35
   3.640000      3.4736664E-35
   3.650000      3.0710370E-35
   3.660000      2.9555231E-35
   3.670000      3.0228669E-35
   3.680000      3.0238820E-35
   3.690000      3.2722813E-35
   3.700000      3.7088640E-35
   3.710000      4.0632001E-35
   3.720000      4.1160032E-35
   3.730000      3.5800091E-35
   3.740000      2.7082124E-35
   3.750000      1.8940243E-35
   3.760000      2.9226804E-36
   3.770000     -2.2527339E-35
   3.780000     -4.9955428E-35
   3.790000     -7.8850336E-35
   3.800000     -1.0849845E-34
   3.810000     -1.3051562E-34
   3.820000     -1.3585146E-34
   3.830000     -1.3401865E-34
   3.840000     -1.3447259E-34
   3.850000     -1.3703626E-34
   3.860000     -1.4387662E-34
   3.870000     -1.5685195E-34
   3.880000     -1.7255922E-34
   3.890000     -1.8769331E-34
   3.900000     -2.0158454E-34
   3.910000     -2.0546725E-34
   3.920000     -1.9993111E-34
   3.930000     -2.0328221E-34
   3.940000     -2.1636413E-34
   3.950000     -2.3249510E-34
   3.960000     -2.5214218E-34
   3.970000     -2.7081592E-34
   3.980000     -2.9478499E-34
   3.990000     -3.2910800E-34
   4.000000     -3.6907967E-34
   4.010000     -4.1339845E-34
   4.020000     -4.5928975E-34
   4.030000     -5.0531513E-34
   4.040000     -5.3847031E-34
   4.050000     -5.3718622E-34
   4.060000     -5.0331573E-34
   4.070000     -4.4963224E-34
   4.080000     -3.8385171E-34
   4.090000     -3.1018910E-34
   4.100000     -2.3817892E-34
   4.110000     -1.7651398E-34
   4.120000     -1.2689551E-34
   4.130000     -8.9797058E-35
   4.140000     -5.9352196E-35
   4.150000     -3.8887531E-35
   4.160000     -2.6913250E-35
   4.170000     -1.2926031E-35
   4.180000      3.3140927E-36
   4.190000      2.3618989E-35
   4.200000      6.2232255E-35
   4.210000      1.2618038E-34
   4.220000      2.1102332E-34
   4.230000      3.1673991E-34
   4.240000      4.4634489E-34
   4.250000      5.9357855E-34
   4.260000      7.4501349E-34
   4.270000      8.9575324E-34
   4.280000      1.0397565E-33
   4.290000      1.1661315E-33
   4.300000      1.2716600E-33
   4.310000      1.3528033E-33
   4.320000      1.4248449E-33
   4.330000      1.5034783E-33
   4.340000      1.5835973E-33
   4.350000      1.6641222E-33
   4.360000      1.7398813E-33
   4.370000      1.8134045E-33
   4.380000      1.8925973E-33
   4.390000      1.9799641E-33
   4.400000      2.0708262E-33
   4.410000      2.1634698E-33
   4.420000      2.2586507E-33
   4.430000      2.3497511E-33
   4.440000      2.4321072E-33
   4.450000      2.5006117E-33
   4.460000      2.5518443E-33
   4.470000      2.5845670E-33
   4.480000      2.5895696E-33
   4.490000      2.5617710E-33
   4.500000      2.5059126E-33
   4.510000      2.4251056E-33
   4.520000      2.3218791E-33
   4.530000      2.1989628E-33
   4.540000      2.0592931E-33
   4.550000      1.9049483E-33
   4.560000      1.7375557E-33
   4.570000      1.5596382E-33
   4.580000      1.3707157E-33
   4.590000      1.1689139E-33
   4.600000      9.5161851E-34
   4.610000      7.1124314E-34
   4.620000      4.4306701E-34
   4.630000      1.4364528E-34
   4.640000     -1.9275024E-34
   4.650000     -5.6969236E-34
   4.660000     -9.8947990E-34
   4.670000     -1.4526633E-33
   4.680000     -1.9582333E-33
   4.690000     -2.5043738E-33
   4.700000     -3.0843212E-33
   4.710000     -3.6884412E-33
   4.720000     -4.3140106E-33
   4.730000     -4.9574582E-33
   4.740000     -5.6117865E-33
   4.750000     -6.2732343E-33
   4.760000     -6.9405102E-33
   4.770000     -7.6115610E-33
   4.780000     -8.2916521E-33
   4.790000     -8.9765576E-33
   4.800000     -9.6614814E-33
   4.810000     -1.0353441E-32
   4.820000     -1.1052625E-32
   4.830000     -1.1758342E-32
   4.840000     -1.2472762E-32
   4.850000     -1.3185473E-32
   4.860000     -1.3883477E-32
   4.870000     -1.4563085E-32
   4.880000     -1.5214923E-32
   4.890000     -1.5828178E-32
   4.900000     -1.6392676E-32
   4.910000     -1.6898462E-32
   4.920000     -1.7338246E-32
   4.930000     -1.7701359E-32
   4.940000     -1.7978619E-32
   4.950000     -1.8167045E-32
   4.960000     -1.8262363E-32
   4.970000     -1.8261177E-32
   4.980000     -1.8160199E-32
   4.990000     -1.7956041E-32
   5.000000     -1.7643872E-32
   5.010000     -1.7217886E-32
   5.020000     -1.6671147E-32
   5.030000     -1.5994603E-32
   5.040000     -1.5177774E-32
   5.050000     -1.4209079E-32
   5.060000     -1.3076217E-32
   5.070000     -1.1766983E-32
   5.080000     -1.0269867E-32
   5.090000     -8.5744621E-33
   5.100000     -6.6723741E-33
   5.110000     -4.5580135E-33
   5.120000     -2.2261725E-33
   5.130000      3.2588696E-34
   5.140000      3.0970783E-33
   5.150000      6.0853954E-33
   5.160000      9.2875823E-33
   5.170000      1.2699506E-32
   5.180000      1.6319025E-32
   5.190000      2.0139771E-32
   5.200000      2.4156687E-32
   5.210000      2.8368843E-32
   5.220000      3.2772353E-32
   5.230000      3.7363802E-32
   5.240000      4.2138848E-32
   5.250000      4.7091670E-32
   5.260000      5.2214307E-32
   5.270000      5.7496050E-32
   5.280000      6.2922961E-32
   5.290000      6.8477554E-32
   5.300000      7.4138705E-32
   5.310000      7.9881800E-32
   5.320000      8.5679003E-32
   5.330000      9.1499740E-32
   5.340000      9.7311207E-32
   5.350000      1.0307896E-31
   5.360000      1.0876733E-31
   5.370000      1.1433988E-31
   5.380000      1.1975886E-31
   5.390000      1.2498716E-31
   5.400000      1.2998686E-31
   5.410000      1.3471735E-31
   5.420000      1.3913692E-31
   5.430000      1.4320148E-31
   5.440000      1.4686410E-31
   5.450000      1.5007459E-31
   5.460000      1.5277924E-31
   5.470000      1.5492077E-31
   5.480000      1.5643854E-31
   5.490000      1.5726895E-31
   5.500000      1.5734614E-31
   5.510000      1.5660265E-31
   5.520000      1.5497031E-31
   5.530000      1.5238103E-31
   5.540000      1.4876760E-31
   5.550000      1.4406433E-31
   5.560000      1.3820740E-31
   5.570000      1.3113505E-31
   5.580000      1.2278771E-31
   5.590000      1.1310792E-31
   5.600000      1.0204004E-31
   5.610000      8.9530005E-32
   5.620000      7.5525124E-32
   5.630000      5.9974627E-32
   5.640000      4.2828111E-32
   5.650000      2.4036998E-32
   5.660000      3.5563865E-33
   5.670000     -1.8655777E-32
   5.680000     -4.2637146E-32
   5.690000     -6.8419907E-32
   5.700000     -9.6029584E-32
   5.710000     -1.2548379E-31
   5.720000     -1.5679123E-31
   5.730000     -1.8995086E-31
   5.740000     -2.2495118E-31
   5.750000     -2.6176971E-31
   5.760000     -3.0037273E-31
   5.770000     -3.4071523E-31
   5.780000     -3.8274077E-31
   5.790000     -4.2638152E-31
   5.800000     -4.7155802E-31
   5.810000     -5.1817912E-31
   5.820000     -5.6614145E-31
   5.830000     -6.1532893E-31
   5.840000     -6.6561183E-31
   5.850000     -7.1684584E-31
   5.860000     -7.6887082E-31
   5.870000     -8.2150984E-31
   5.880000     -8.7456789E-31
   5.890000     -9.2783067E-31
   5.900000     -9.8106448E-31
   5.910000     -1.0340151E-30
   5.920000     -1.0864076E-30
   5.930000     -1.1379463E-30
   5.940000     -1.1883156E-30
   5.950000     -1.2371800E-30
   5.960000     -1.2841845E-30
   5.970000     -1.3289563E-30
   5.980000     -1.3711038E-30
   5.990000     -1.4102188E-30
   6.000000     -1.4458763E-30
   6.010000     -1.4776347E-30
   6.020000     -1.5050357E-30
   6.030000     -1.5276054E-30
   6.040000     -1.5448535E-30
   6.050000     -1.5562739E-30
   6.060000     -1.5613453E-30
   6.070000     -1.5595316E-30
   6.080000     -1.5502825E-30
   6.090000     -1.5330354E-30
   6.100000     -1.5072173E-30
   6.110000     -1.4722466E-30
   6.120000     -1.4275360E-30
   6.130000     -1.3724955E-30
   6.140000     -1.3065348E-30
   6.150000     -1.2290669E-30
   6.160000     -1.1395113E-30
   6.170000     -1.0372972E-30
   6.180000     -9.2186687E-31
   6.190000     -7.9267825E-31
   6.200000     -6.4920837E-31
   6.210000     -4.9095674E-31
   6.220000     -3.1744796E-31
   6.230000     -1.2823553E-31
   6.240000      7.7095138E-32
   6.250000      2.9892194E-31
   6.260000      5.3758187E-31
   6.270000      7.9336662E-31
   6.280000      1.0665165E-30
   6.290000      1.3572153E-30
   6.300000      1.6655841E-30
   6.310000      1.9916751E-30
   6.320000      2.3354650E-30
   6.330000      2.6968494E-30
   6.340000      3.0756364E-30
   6.350000      3.4715399E-30
   6.360000      3.8841741E-30
   6.370000      4.3130483E-30
   6.380000      4.7575600E-30
   6.390000      5.2169925E-30
   6.400000      5.6905065E-30
   6.410000      6.1771374E-30
   6.420000      6.6757870E-30
   6.430000      7.1852226E-30
   6.440000      7.7040666E-30
   6.450000      8.2307964E-30
   6.460000      8.7637336E-30
   6.470000      9.3010402E-30
   6.480000      9.8407158E-30
   6.490000      1.0380589E-29
   6.500000      1.0918318E-29
   6.510000      1.1451379E-29
   6.520000      1.1977072E-29
   6.530000      1.2492514E-29
   6.540000      1.2994639E-29
   6.550000      1.3480190E-29
   6.560000      1.3945735E-29
   6.570000      1.4387657E-29
   6.580000      1.4802157E-29
   6.590000      1.5185265E-29
   6.600000      1.5532830E-29
   6.610000      1.5840538E-29
   6.620000      1.6103907E-29
   6.630000      1.6318302E-29
   6.640000      1.6478935E-29
   6.650000      1.6580874E-29
   6.660000      1.6619056E-29
   6.670000      1.6588292E-29
   6.680000      1.6483287E-29
   6.690000      1.6298643E-29
   6.700000      1.6028886E-29
   6.710000      1.5668477E-29
   6.720000      1.5211828E-29
   6.730000      1.4653333E-29
   6.740000      1.3987382E-29
   6.750000      1.3208387E-29
   6.760000      1.2310811E-29
   6.770000      1.1289193E-29
   6.780000      1.0138182E-29
   6.790000      8.8525596E-30
   6.800000      7.4272774E-30
   6.810000      5.8574914E-30
   6.820000      4.1385917E-30
   6.830000      2.2662446E-30
   6.840000      2.3642772E-31
   6.850000     -1.9545296E-30
   6.860000     -4.3099066E-30
   6.870000     -6.8325434E-30
   6.880000     -9.5247994E-30
   6.890000     -1.2388508E-29
   6.900000     -1.5424923E-29
   6.910000     -1.8634672E-29
   6.920000     -2.2017714E-29
   6.930000     -2.5573271E-29
   6.940000     -2.9299798E-29
   6.950000     -3.3194913E-29
   6.960000     -3.7255360E-29
   6.970000     -4.1476945E-29
   6.980000     -4.5854490E-29
   6.990000     -5.0381771E-29
   7.000000     -5.5051480E-29
   7.010000     -5.9855182E-29
   7.020000     -6.4783234E-29
   7.030000     -6.9824765E-29
   7.040000     -7.4967636E-29
   7.050000     -8.0198353E-29
   7.060000     -8.5502063E-29