  -2.600000      0.0000000E+00
  -2.590000      0.0000000E+00
  -2.580000      0.0000000E+00
  -2.570000      0.0000000E+00
  -2.560000      0.0000000E+00
  -2.550000      0.0000000E+00
  -2.540000      0.0000000E+00
  -2.530000      0.0000000E+00
  -2.520000      0.0000000E+00
  -2.510000      0.0000000E+00
  -2.500000      0.0000000E+00
  -2.490000      0.0000000E+00
  -2.480000      0.0000000E+00
  -2.470000      0.0000000E+00
  -2.460000      0.0000000E+00
  -2.450000      0.0000000E+00
  -2.440000      0.0000000E+00
  -2.430000      0.0000000E+00
  -2.420000      0.0000000E+00
  -2.410000      0.0000000E+00
  -2.400000      0.0000000E+00
  -2.390000      0.0000000E+00
  -2.380000      0.0000000E+00
  -2.370000      0.0000000E+00
  -2.360000      0.0000000E+00
  -2.350000      0.0000000E+00
  -2.340000      0.0000000E+00
  -2.330000      0.0000000E+00
  -2.320000      0.0000000E+00
  -2.310000      0.0000000E+00
  -2.300000      0.0000000E+00
  -2.290000      0.0000000E+00
  -2.280000      0.0000000E+00
  -2.270000      0.0000000E+00
  -2.260000      0.0000000E+00
  -2.250000      0.0000000E+00
  -2.240000      0.0000000E+00
  -2.230000      0.0000000E+00
  -2.220000      0.0000000E+00
  -2.210000      0.0000000E+00
  -2.200000      0.0000000E+00
  -2.190000      0.0000000E+00
  -2.180000      0.0000000E+00
  -2.170000      0.0000000E+00
  -2.160000      0.0000000E+00
  -2.150000      0.0000000E+00
  -2.140000      0.0000000E+00
  -2.130000      0.0000000E+00
  -2.120000      0.0000000E+00
  -2.110000      0.0000000E+00
  -2.100000      0.0000000E+00
  -2.090000      0.0000000E+00
  -2.080000      0.0000000E+00
  -2.070000      0.0000000E+00
  -2.060000      0.0000000E+00
  -2.050000      0.0000000E+00
  -2.040000      0.0000000E+00
  -2.030000      0.0000000E+00
  -2.020000      0.0000000E+00
  -2.010000      0.0000000E+00
  -2.000000      0.0000000E+00
  -1.990000      0.0000000E+00
  -1.980000      0.0000000E+00
  -1.970000      0.0000000E+00
  -1.960000      0.0000000E+00
  -1.950000      0.0000000E+00
  -1.940000      0.0000000E+00
  -1.930000      0.0000000E+00
  -1.920000      0.0000000E+00
  -1.910000      0.0000000E+00
  -1.900000      0.0000000E+00
  -1.890000      0.0000000E+00
  -1.880000      0.0000000E+00
  -1.870000      0.0000000E+00
  -1.860000      0.0000000E+00
  -1.850000      0.0000000E+00
  -1.840000      0.0000000E+00
  -1.830000      0.0000000E+00
  -1.820000      0.0000000E+00
  -1.810000      0.0000000E+00
  -1.800000      0.0000000E+00
  -1.790000      0.0000000E+00
  -1.780000      0.0000000E+00
  -1.770000      0.0000000E+00
  -1.760000      0.0000000E+00
  -1.750000      0.0000000E+00
  -1.740000      0.0000000E+00
  -1.730000      0.0000000E+00
  -1.720000      0.0000000E+00
  -1.710000      0.0000000E+00
  -1.700000      0.0000000E+00
  -1.690000      0.0000000E+00
  -1.680000      0.0000000E+00
  -1.670000      0.0000000E+00
  -1.660000      0.0000000E+00
  -1.650000      0.0000000E+00
  -1.640000      0.0000000E+00
  -1.630000      0.0000000E+00
  -1.620000      0.0000000E+00
  -1.610000      0.0000000E+00
  -1.600000      0.0000000E+00
  -1.590000      0.0000000E+00
  -1.580000      0.0000000E+00
  -1.570000      0.0000000E+00
  -1.560000      0.0000000E+00
  -1.550000      0.0000000E+00
  -1.540000      0.0000000E+00
  -1.530000      0.0000000E+00
  -1.520000      0.0000000E+00
  -1.510000      0.0000000E+00
  -1.500000      0.0000000E+00
  -1.490000      0.0000000E+00
  -1.480000      0.0000000E+00
  -1.470000      0.0000000E+00
  -1.460000      0.0000000E+00
  -1.450000      0.0000000E+00
  -1.440000      0.0000000E+00
  -1.430000      0.0000000E+00
  -1.420000      0.0000000E+00
  -1.410000      0.0000000E+00
  -1.400000      0.0000000E+00
  -1.390000      0.0000000E+00
  -1.380000      0.0000000E+00
  -1.370000      0.0000000E+00
  -1.360000      0.0000000E+00
  -1.350000      0.0000000E+00
  -1.340000      0.0000000E+00
  -1.330000      0.0000000E+00
  -1.320000      0.0000000E+00
  -1.310000      0.0000000E+00
  -1.300000      0.0000000E+00
  -1.290000      0.0000000E+00
  -1.280000      0.0000000E+00
  -1.270000      0.0000000E+00
  -1.260000      0.0000000E+00
  -1.250000      0.0000000E+00
  -1.240000      0.0000000E+00
  -1.230000      0.0000000E+00
  -1.220000      0.0000000E+00
  -1.210000      0.0000000E+00
  -1.200000      0.0000000E+00
  -1.190000      0.0000000E+00
  -1.180000      0.0000000E+00
  -1.170000      0.0000000E+00
  -1.160000      0.0000000E+00
  -1.150000      0.0000000E+00
  -1.140000      0.0000000E+00
  -1.130000      0.0000000E+00
  -1.120000      0.0000000E+00
  -1.110000      0.0000000E+00
  -1.100000      0.0000000E+00
  -1.090000      0.0000000E+00
  -1.080000      0.0000000E+00
  -1.070000      0.0000000E+00
  -1.060000      0.0000000E+00
  -1.050000      0.0000000E+00
  -1.040000      0.0000000E+00
  -1.030000      0.0000000E+00
  -1.020000      0.0000000E+00
  -1.010000      0.0000000E+00
  -1.000000      0.0000000E+00
 -0.9900000      0.0000000E+00
 -0.9800000      0.0000000E+00
 -0.9700000      0.0000000E+00
 -0.9600000      0.0000000E+00
 -0.9500000      0.0000000E+00
 -0.9400000      0.0000000E+00
 -0.9300000      0.0000000E+00
 -0.9200000      0.0000000E+00
 -0.9100000      0.0000000E+00
 -0.9000000      0.0000000E+00
 -0.8900000      0.0000000E+00
 -0.8800000      0.0000000E+00
 -0.8700000      0.0000000E+00
 -0.8600000      0.0000000E+00
 -0.8500000      0.0000000E+00
 -0.8400000      0.0000000E+00
 -0.8300000      0.0000000E+00
 -0.8200000      0.0000000E+00
 -0.8100000      0.0000000E+00
 -0.8000000      0.0000000E+00
 -0.7900000      0.0000000E+00
 -0.7800000      0.0000000E+00
 -0.7700000      0.0000000E+00
 -0.7600000      0.0000000E+00
 -0.7500000      0.0000000E+00
 -0.7400000      0.0000000E+00
 -0.7300000      0.0000000E+00
 -0.7200000      0.0000000E+00
 -0.7100000      0.0000000E+00
 -0.7000000      0.0000000E+00
 -0.6900000      0.0000000E+00
 -0.6800000      0.0000000E+00
 -0.6700000      0.0000000E+00
 -0.6600000      0.0000000E+00
 -0.6500000      0.0000000E+00
 -0.6400000      0.0000000E+00
 -0.6300000      0.0000000E+00
 -0.6200000      0.0000000E+00
 -0.6100000      0.0000000E+00
 -0.6000000      0.0000000E+00
 -0.5900000      0.0000000E+00
 -0.5800000      0.0000000E+00
 -0.5700000      0.0000000E+00
 -0.5600000      0.0000000E+00
 -0.5500000      0.0000000E+00
 -0.5400000      0.0000000E+00
 -0.5300000      0.0000000E+00
 -0.5200000      0.0000000E+00
 -0.5100000      0.0000000E+00
 -0.5000000      0.0000000E+00
 -0.4900000      0.0000000E+00
 -0.4800000      0.0000000E+00
 -0.4700000      0.0000000E+00
 -0.4600000      0.0000000E+00
 -0.4500000      0.0000000E+00
 -0.4400000      0.0000000E+00
 -0.4300000      0.0000000E+00
 -0.4200000      0.0000000E+00
 -0.4100000      0.0000000E+00
 -0.4000000      0.0000000E+00
 -0.3900000      0.0000000E+00
 -0.3800000      0.0000000E+00
 -0.3700000      0.0000000E+00
 -0.3600000      0.0000000E+00
 -0.3500000      0.0000000E+00
 -0.3400000      0.0000000E+00
 -0.3300000      0.0000000E+00
 -0.3200000      0.0000000E+00
 -0.3100000      0.0000000E+00
 -0.3000000      0.0000000E+00
 -0.2900000      0.0000000E+00
 -0.2800000      0.0000000E+00
 -0.2700000      0.0000000E+00
 -0.2600000      0.0000000E+00
 -0.2500000      0.0000000E+00
 -0.2400000      0.0000000E+00
 -0.2300000      0.0000000E+00
 -0.2200000      0.0000000E+00
 -0.2100000      0.0000000E+00
 -0.2000000      0.0000000E+00
 -0.1900000      0.0000000E+00
 -0.1800000      0.0000000E+00
 -0.1700000      0.0000000E+00
 -0.1600000      0.0000000E+00
 -0.1500000      0.0000000E+00
 -0.1400000      0.0000000E+00
 -0.1300000      0.0000000E+00
 -0.1200000      0.0000000E+00
 -0.1100000      0.0000000E+00
 -0.1000000      0.0000000E+00
 -9.0000004E-02  0.0000000E+00
 -7.9999998E-02  0.0000000E+00
 -7.0000000E-02  0.0000000E+00
 -5.9999999E-02  0.0000000E+00
 -5.0000001E-02  0.0000000E+00
 -3.9999999E-02  0.0000000E+00
 -2.9999999E-02  0.0000000E+00
 -2.0000000E-02  0.0000000E+00
 -9.9999998E-03  0.0000000E+00
 -3.4694470E-17  0.0000000E+00
  9.9999998E-03  0.0000000E+00
  2.0000000E-02  0.0000000E+00
  2.9999999E-02  0.0000000E+00
  3.9999999E-02  0.0000000E+00
  5.0000001E-02  0.0000000E+00
  5.9999999E-02  0.0000000E+00
  7.0000000E-02  0.0000000E+00
  7.9999998E-02  0.0000000E+00
  9.0000004E-02  0.0000000E+00
  0.1000000      0.0000000E+00
  0.1100000      0.0000000E+00
  0.1200000      0.0000000E+00
  0.1300000      0.0000000E+00
  0.1400000      0.0000000E+00
  0.1500000      0.0000000E+00
  0.1600000      0.0000000E+00
  0.1700000      0.0000000E+00
  0.1800000      0.0000000E+00
  0.1900000      0.0000000E+00
  0.2000000      0.0000000E+00
  0.2100000      0.0000000E+00
  0.2200000      0.0000000E+00
  0.2300000      0.0000000E+00
  0.2400000      0.0000000E+00
  0.2500000      0.0000000E+00
  0.2600000      0.0000000E+00
  0.2700000      0.0000000E+00
  0.2800000      0.0000000E+00
  0.2900000      0.0000000E+00
  0.3000000      0.0000000E+00
  0.3100000      0.0000000E+00
  0.3200000      0.0000000E+00
  0.3300000      0.0000000E+00
  0.3400000      0.0000000E+00
  0.3500000      0.0000000E+00
  0.3600000      0.0000000E+00
  0.3700000      0.0000000E+00
  0.3800000      0.0000000E+00
  0.3900000      0.0000000E+00
  0.4000000      0.0000000E+00
  0.4100000      0.0000000E+00
  0.4200000      0.0000000E+00
  0.4300000      0.0000000E+00
  0.4400000      0.0000000E+00
  0.4500000      0.0000000E+00
  0.4600000      0.0000000E+00
  0.4700000      0.0000000E+00
  0.4800000      0.0000000E+00
  0.4900000      0.0000000E+00
  0.5000000      0.0000000E+00
  0.5100000      0.0000000E+00
  0.5200000      0.0000000E+00
  0.5300000      0.0000000E+00
  0.5400000      0.0000000E+00
  0.5500000      0.0000000E+00
  0.5600000      0.0000000E+00
  0.5700000      0.0000000E+00
  0.5800000      0.0000000E+00
  0.5900000      0.0000000E+00
  0.6000000      0.0000000E+00
  0.6100000      0.0000000E+00
  0.6200000      0.0000000E+00
  0.6300000      0.0000000E+00
  0.6400000      0.0000000E+00
  0.6500000      0.0000000E+00
  0.6600000      0.0000000E+00
  0.6700000      0.0000000E+00
  0.6800000      0.0000000E+00
  0.6900000      0.0000000E+00
  0.7000000      0.0000000E+00
  0.7100000      0.0000000E+00
  0.7200000      0.0000000E+00
  0.7300000      0.0000000E+00
  0.7400000      0.0000000E+00
  0.7500000      0.0000000E+00
  0.7600000      0.0000000E+00
  0.7700000      0.0000000E+00
  0.7800000      0.0000000E+00
  0.7900000      0.0000000E+00
  0.8000000      0.0000000E+00
  0.8100000      0.0000000E+00
  0.8200000      0.0000000E+00
  0.8300000      0.0000000E+00
  0.8400000      0.0000000E+00
  0.8500000      0.0000000E+00
  0.8600000      0.0000000E+00
  0.8700000      0.0000000E+00
  0.8800000      0.0000000E+00
  0.8900000     -1.8520376E-38
  0.9000000     -2.7272881E-38
  0.9100000     -3.7139390E-38
  0.9200000     -4.7909094E-38
  0.9300000     -5.8988096E-38
  0.9400000     -7.0298705E-38
  0.9500000     -8.2519541E-38
  0.9600000     -9.5542962E-38
  0.9700000     -1.0901411E-37
  0.9800000     -1.2245513E-37
  0.9900000     -1.3541645E-37
   1.000000     -1.4728138E-37
   1.010000     -1.5684879E-37
   1.020000     -1.6374444E-37
   1.030000     -1.6935928E-37
   1.040000     -1.7499244E-37
   1.050000     -1.7949531E-37
   1.060000     -1.8262676E-37
   1.070000     -1.8505963E-37
   1.080000     -1.8628517E-37
   1.090000     -1.8813748E-37
   1.100000     -1.9048496E-37
   1.110000     -1.9161378E-37
   1.120000     -1.9252005E-37
   1.130000     -1.8914135E-37
   1.140000     -1.7971664E-37
   1.150000     -1.6418883E-37
   1.160000     -1.4108281E-37
   1.170000     -1.1242527E-37
   1.180000     -7.8164327E-38
   1.190000     -3.5935741E-38
   1.200000      1.2744746E-38
   1.210000      6.6563824E-38
   1.220000      1.3100051E-37
   1.230000      2.0940101E-37
   1.240000      2.9558140E-37
   1.250000      4.2649010E-37
   1.260000      6.0910543E-37
   1.270000      8.0439348E-37
   1.280000      1.0186523E-36
   1.290000      1.2331161E-36
   1.300000      1.3671649E-36
   1.310000      1.4417533E-36
   1.320000      1.5366611E-36
   1.330000      1.6365598E-36
   1.340000      1.7078836E-36
   1.350000      1.7108765E-36
   1.360000      1.6630578E-36
   1.370000      1.4828885E-36
   1.380000      1.1115114E-36
   1.390000      6.6802355E-37
   1.400000      1.5776579E-37
   1.410000     -4.3171320E-37
   1.420000     -1.0324932E-36
   1.430000     -1.5719523E-36
   1.440000     -1.9523809E-36
   1.450000     -2.2379335E-36
   1.460000     -2.5431123E-36
   1.470000     -2.8977277E-36
   1.480000     -3.3154293E-36
   1.490000     -3.5837113E-36
   1.500000     -3.6213362E-36
   1.510000     -3.5017201E-36
   1.520000     -3.2229789E-36
   1.530000     -2.8491932E-36
   1.540000     -2.4084078E-36
   1.550000     -1.8836067E-36
   1.560000     -1.3168205E-36
   1.570000     -6.6945305E-37
   1.580000      1.9679712E-37
   1.590000      1.2566532E-36
   1.600000      2.3839377E-36
   1.610000      3.5374151E-36
   1.620000      4.8018245E-36
   1.630000      6.0966910E-36
   1.640000      7.4030064E-36
   1.650000      8.4604247E-36
   1.660000      9.1636098E-36
   1.670000      9.8475195E-36
   1.680000      1.0519824E-35
   1.690000      1.0775866E-35
   1.700000      1.0446054E-35
   1.710000      9.4197125E-36
   1.720000      7.6427100E-36
   1.730000      5.8563284E-36
   1.740000      4.1210673E-36
   1.750000      2.0249257E-36
   1.760000     -3.6722044E-37
   1.770000     -2.4541754E-36
   1.780000     -3.9918605E-36
   1.790000     -5.2131994E-36
   1.800000     -6.8132460E-36
   1.810000     -8.9095225E-36
   1.820000     -1.1026928E-35
   1.830000     -1.3313421E-35
   1.840000     -1.5920589E-35
   1.850000     -1.9179377E-35
   1.860000     -2.3372952E-35
   1.870000     -2.8444759E-35
   1.880000     -3.4193039E-35
   1.890000     -4.0664344E-35
   1.900000     -4.6683455E-35
   1.910000     -5.2527298E-35
   1.920000     -5.9786888E-35
   1.930000     -6.7725522E-35
   1.940000     -7.4796671E-35
   1.950000     -8.1857581E-35
   1.960000     -9.0132160E-35
   1.970000     -9.8442521E-35
   1.980000     -1.0932132E-34
   1.990000     -1.2712744E-34
   2.000000     -1.5176940E-34
   2.010000     -1.8474720E-34
   2.020000     -2.2543497E-34
   2.030000     -2.7054058E-34
   2.040000     -3.1812670E-34
   2.050000     -3.6635400E-34
   2.060000     -4.1502679E-34
   2.070000     -4.6469836E-34
   2.080000     -5.1006647E-34
   2.090000     -5.4487198E-34
   2.100000     -5.7299647E-34
   2.110000     -5.9422511E-34
   2.120000     -6.0418858E-34
   2.130000     -6.0520193E-34
   2.140000     -5.9838783E-34
   2.150000     -5.8331166E-34
   2.160000     -5.6158214E-34
   2.170000     -5.3151593E-34
   2.180000     -4.8695101E-34
   2.190000     -4.2647335E-34
   2.200000     -3.5059468E-34
   2.210000     -2.6526148E-34
   2.220000     -1.7206900E-34
   2.230000     -6.6317213E-35
   2.240000      5.3499687E-35
   2.250000      1.8446144E-34
   2.260000      3.2039814E-34
   2.270000      4.6504508E-34
   2.280000      6.2292063E-34
   2.290000      7.9211587E-34
   2.300000      9.7233467E-34
   2.310000      1.1640854E-33
   2.320000      1.3677153E-33
   2.330000      1.5847719E-33
   2.340000      1.8145331E-33
   2.350000      2.0575287E-33
   2.360000      2.3134170E-33
   2.370000      2.5799006E-33
   2.380000      2.8584617E-33
   2.390000      3.1510169E-33
   2.400000      3.4566175E-33
   2.410000      3.7704547E-33
   2.420000      4.0890251E-33
   2.430000      4.4118232E-33
   2.440000      4.7357339E-33
   2.450000      5.0575398E-33
   2.460000      5.3733371E-33
   2.470000      5.6787588E-33
   2.480000      5.9684892E-33
   2.490000      6.2366999E-33
   2.500000      6.4777064E-33
   2.510000      6.6852054E-33
   2.520000      6.8524811E-33
   2.530000      6.9722515E-33
   2.540000      7.0382335E-33
   2.550000      7.0436341E-33
   2.560000      6.9806938E-33
   2.570000      6.8417746E-33
   2.580000      6.6206957E-33
   2.590000      6.3115649E-33
   2.600000      5.9073627E-33
   2.610000      5.4019847E-33
   2.620000      4.7897233E-33
   2.630000      4.0655475E-33
   2.640000      3.2244376E-33
   2.650000      2.2619760E-33
   2.660000      1.1734771E-33
   2.670000     -4.2938452E-35
   2.680000     -1.3882305E-33
   2.690000     -2.8654860E-33
   2.700000     -4.4757880E-33
   2.710000     -6.2191086E-33
   2.720000     -8.0946172E-33
   2.730000     -1.0100299E-32
   2.740000     -1.2233412E-32
   2.750000     -1.4489943E-32
   2.760000     -1.6864324E-32
   2.770000     -1.9349714E-32
   2.780000     -2.1937665E-32
   2.790000     -2.4618155E-32
   2.800000     -2.7379456E-32
   2.810000     -3.0206070E-32
   2.820000     -3.3084403E-32
   2.830000     -3.5998842E-32
   2.840000     -3.8927756E-32
   2.850000     -4.1849162E-32
   2.860000     -4.4738824E-32
   2.870000     -4.7570196E-32
   2.880000     -5.0314414E-32
   2.890000     -5.2940287E-32
   2.900000     -5.5414326E-32
   2.910000     -5.7700833E-32
   2.920000     -5.9761962E-32
   2.930000     -6.1557853E-32
   2.940000     -6.3046899E-32
   2.950000     -6.4185900E-32
   2.960000     -6.4930300E-32
   2.970000     -6.5234200E-32
   2.980000     -6.5050964E-32
   2.990000     -6.4333660E-32
   3.000000     -6.3035056E-32
   3.010000     -6.1108421E-32
   3.020000     -5.8507633E-32
   3.030000     -5.5187555E-32
   3.040000     -5.1104576E-32
   3.050000     -4.6217082E-32
   3.060000     -4.0485892E-32
   3.070000     -3.3874697E-32
   3.080000     -2.6350595E-32
   3.090000     -1.7884590E-32
   3.100000     -8.4521012E-33
   3.110000      1.9664676E-33
   3.120000      1.3385175E-32
   3.130000      2.5811972E-32
   3.140000      3.9248125E-32
   3.150000      5.3687542E-32
   3.160000      6.9116235E-32
   3.170000      8.5511736E-32
   3.180000      1.0284241E-31
   3.190000      1.2106690E-31
   3.200000      1.4013353E-31
   3.210000      1.5997969E-31
   3.220000      1.8053140E-31
   3.230000      2.0170270E-31
   3.240000      2.2339520E-31
   3.250000      2.4549765E-31
   3.260000      2.6788557E-31
   3.270000      2.9042090E-31
   3.280000      3.1295174E-31
   3.290000      3.3531216E-31
   3.300000      3.5732216E-31
   3.310000      3.7878756E-31
   3.320000      3.9950027E-31
   3.330000      4.1923823E-31
   3.340000      4.3776613E-31
   3.350000      4.5483558E-31
   3.360000      4.7018589E-31
   3.370000      4.8354482E-31
   3.380000      4.9462936E-31
   3.390000      5.0314713E-31
   3.400000      5.0879726E-31
   3.410000      5.1127205E-31
   3.420000      5.1025845E-31
   3.430000      5.0543995E-31
   3.440000      4.9649816E-31
   3.450000      4.8311515E-31
   3.460000      4.6497558E-31
   3.470000      4.4176902E-31
   3.480000      4.1319247E-31
   3.490000      3.7895317E-31
   3.500000      3.3877129E-31
   3.510000      2.9238311E-31
   3.520000      2.3954400E-31
   3.530000      1.8003161E-31
   3.540000      1.1364954E-31
   3.550000      4.0230633E-32
   3.560000     -4.0359303E-32
   3.570000     -1.2821776E-31
   3.580000     -2.2340171E-31
   3.590000     -3.2592370E-31
   3.600000     -4.3574800E-31
   3.610000     -5.5278647E-31
   3.620000     -6.7689497E-31
   3.630000     -8.0786903E-31
   3.640000     -9.4544023E-31
   3.650000     -1.0892722E-30
   3.660000     -1.2389572E-30
   3.670000     -1.3940123E-30
   3.680000     -1.5538761E-30
   3.690000     -1.7179054E-30
   3.700000     -1.8853726E-30
   3.710000     -2.0554623E-30
   3.720000     -2.2272701E-30
   3.730000     -2.3997992E-30
   3.740000     -2.5719596E-30
   3.750000     -2.7425673E-30
   3.760000     -2.9103421E-30
   3.770000     -3.0739093E-30
   3.780000     -3.2317985E-30
   3.790000     -3.3824457E-30
   3.800000     -3.5241945E-30
   3.810000     -3.6552984E-30
   3.820000     -3.7739237E-30
   3.830000     -3.8781549E-30
   3.840000     -3.9659976E-30
   3.850000     -4.0353841E-30
   3.860000     -4.0841820E-30
   3.870000     -4.1101997E-30
   3.880000     -4.1111950E-30
   3.890000     -4.0848850E-30
   3.900000     -4.0289563E-30
   3.910000     -3.9410756E-30
   3.920000     -3.8189043E-30
   3.930000     -3.6601099E-30
   3.940000     -3.4623812E-30
   3.950000     -3.2234440E-30
   3.960000     -2.9410795E-30
   3.970000     -2.6131388E-30
   3.980000     -2.2375652E-30
   3.990000     -1.8124125E-30
   4.000000     -1.3358663E-30
   4.010000     -8.0626546E-31
   4.020000     -2.2212588E-31
   4.030000      4.1783624E-31
   4.040000      1.1146795E-30
   4.050000      1.8692124E-30
   4.060000      2.6819669E-30
   4.070000      3.5531715E-30
   4.080000      4.4827253E-30
   4.090000      5.4701692E-30
   4.100000      6.5146589E-30
   4.110000      7.6149382E-30
   4.120000      8.7693082E-30
   4.130000      9.9756009E-30
   4.140000      1.1231154E-29
   4.150000      1.2532778E-29
   4.160000      1.3876738E-29
   4.170000      1.5258717E-29
   4.180000      1.6673805E-29
   4.190000      1.8116463E-29
   4.200000      1.9580507E-29
   4.210000      2.1059087E-29
   4.220000      2.2544667E-29
   4.230000      2.4029009E-29
   4.240000      2.5503164E-29
   4.250000      2.6957449E-29
   4.260000      2.8381455E-29
   4.270000      2.9764023E-29
   4.280000      3.1093260E-29
   4.290000      3.2356529E-29
   4.300000      3.3540461E-29
   4.310000      3.4630965E-29
   4.320000      3.5613243E-29
   4.330000      3.6471805E-29
   4.340000      3.7190502E-29
   4.350000      3.7752557E-29
   4.360000      3.8140596E-29
   4.370000      3.8336695E-29
   4.380000      3.8322431E-29
   4.390000      3.8078933E-29
   4.400000      3.7586951E-29
   4.410000      3.6826922E-29
   4.420000      3.5779045E-29
   4.430000      3.4423377E-29
   4.440000      3.2739912E-29
   4.450000      3.0708688E-29
   4.460000      2.8309894E-29
   4.470000      2.5523991E-29
   4.480000      2.2331832E-29
   4.490000      1.8714795E-29
   4.500000      1.4654925E-29
   4.510000      1.0135079E-29
   4.520000      5.1390913E-30
   4.530000     -3.4806698E-31
   4.540000     -6.3401147E-30
   4.550000     -1.2849279E-29
   4.560000     -1.9886104E-29
   4.570000     -2.7459256E-29
   4.580000     -3.5575321E-29
   4.590000     -4.4238602E-29
   4.600000     -5.3450912E-29
   4.610000     -6.3211314E-29
   4.620000     -7.3515948E-29
   4.630000     -8.4357760E-29
   4.640000     -9.5726296E-29
   4.650000     -1.0760746E-28
   4.660000     -1.1998327E-28
   4.670000     -1.3283162E-28
   4.680000     -1.4612605E-28
   4.690000     -1.5983553E-28
   4.700000     -1.7392417E-28
   4.710000     -1.8835107E-28
   4.720000     -2.0307003E-28
   4.730000     -2.1802933E-28
   4.740000     -2.3317162E-28
   4.750000     -2.4843360E-28
   4.760000     -2.6374590E-28
   4.770000     -2.7903294E-28
   4.780000     -2.9421271E-28
   4.790000     -3.0919662E-28
   4.800000     -3.2388944E-28
   4.810000     -3.3818918E-28
   4.820000     -3.5198703E-28
   4.830000     -3.6516725E-28
   4.840000     -3.7760726E-28
   4.850000     -3.8917760E-28
   4.860000     -3.9974188E-28
   4.870000     -4.0915698E-28
   4.880000     -4.1727323E-28
   4.890000     -4.2393425E-28
   4.900000     -4.2897764E-28
   4.910000     -4.3223472E-28
   4.920000     -4.3353126E-28
   4.930000     -4.3268746E-28
   4.940000     -4.2951859E-28
   4.950000     -4.2383541E-28
   4.960000     -4.1544456E-28
   4.970000     -4.0414927E-28
   4.980000     -3.8974991E-28
   4.990000     -3.7204469E-28
   5.000000     -3.5083048E-28
   5.010000     -3.2590363E-28
   5.020000     -2.9706078E-28
   5.030000     -2.6410005E-28
   5.040000     -2.2682187E-28
   5.050000     -1.8503017E-28
   5.060000     -1.3853372E-28
   5.070000     -8.7147259E-29
   5.080000     -3.0692890E-29
   5.090000      3.0998429E-29
   5.100000      9.8085433E-29
   5.110000      1.7071495E-28
   5.120000      2.4902019E-28
   5.130000      3.3311903E-28
   5.140000      4.2311222E-28
   5.150000      5.1908145E-28
   5.160000      6.2108761E-28
   5.170000      7.2916825E-28
   5.180000      8.4333612E-28
   5.190000      9.6357655E-28
   5.200000      1.0898454E-27
   5.210000      1.2220672E-27
   5.220000      1.3601321E-27
   5.230000      1.5038941E-27
   5.240000      1.6531686E-27
   5.250000      1.8077300E-27
   5.260000      1.9673091E-27
   5.270000      2.1315915E-27
   5.280000      2.3002142E-27
   5.290000      2.4727635E-27
   5.300000      2.6487731E-27
   5.310000      2.8277216E-27
   5.320000      3.0090304E-27
   5.330000      3.1920609E-27
   5.340000      3.3761132E-27
   5.350000      3.5604235E-27
   5.360000      3.7441627E-27
   5.370000      3.9264346E-27
   5.380000      4.1062741E-27
   5.390000      4.2826457E-27
   5.400000      4.4544433E-27
   5.410000      4.6204874E-27
   5.420000      4.7795249E-27
   5.430000      4.9302308E-27
   5.440000      5.0712047E-27
   5.450000      5.2009727E-27
   5.460000      5.3179875E-27
   5.470000      5.4206288E-27
   5.480000      5.5072048E-27
   5.490000      5.5759539E-27
   5.500000      5.6250443E-27
   5.510000      5.6525809E-27
   5.520000      5.6566042E-27
   5.530000      5.6350946E-27
   5.540000      5.5859772E-27
   5.550000      5.5071258E-27
   5.560000      5.3963679E-27
   5.570000      5.2514890E-27
   5.580000      5.0702405E-27
   5.590000      4.8503463E-27
   5.600000      4.5895095E-27
   5.610000      4.2854210E-27
   5.620000      3.9357692E-27
   5.630000      3.5382476E-27
   5.640000      3.0905671E-27
   5.650000      2.5904665E-27
   5.660000      2.0357245E-27
   5.670000      1.4241719E-27
   5.680000      7.5370638E-28
   5.690000      2.2304250E-29
   5.700000     -7.7196212E-28
   5.710000     -1.6309079E-27
   5.720000     -2.5562217E-27
   5.730000     -3.5494469E-27
   5.740000     -4.6119636E-27
   5.750000     -5.7449681E-27
   5.760000     -6.9494555E-27
   5.770000     -8.2261976E-27
   5.780000     -9.5757229E-27
   5.790000     -1.0998293E-26
   5.800000     -1.2493884E-26
   5.810000     -1.4062159E-26
   5.820000     -1.5702447E-26
   5.830000     -1.7413716E-26
   5.840000     -1.9194554E-26
   5.850000     -2.1043139E-26
   5.860000     -2.2957217E-26
   5.870000     -2.4934080E-26
   5.880000     -2.6970532E-26
   5.890000     -2.9062868E-26
   5.900000     -3.1206857E-26
   5.910000     -3.3397696E-26
   5.920000     -3.5630012E-26
   5.930000     -3.7897821E-26
   5.940000     -4.0194506E-26
   5.950000     -4.2512802E-26
   5.960000     -4.4844767E-26
   5.970000     -4.7181758E-26
   5.980000     -4.9514426E-26
   5.990000     -5.1832679E-26
   6.000000     -5.4125682E-26
   6.010000     -5.6381843E-26
   6.020000     -5.8588767E-26
   6.030000     -6.0733298E-26
   6.040000     -6.2801469E-26
   6.050000     -6.4778527E-26
   6.060000     -6.6648892E-26
   6.070000     -6.8396194E-26
   6.080000     -7.0003258E-26
   6.090000     -7.1452124E-26
   6.100000     -7.2724021E-26
   6.110000     -7.3799454E-26
   6.120000     -7.4658129E-26
   6.130000     -7.5279061E-26
   6.140000     -7.5640557E-26
   6.150000     -7.5720256E-26
   6.160000     -7.5495184E-26
   6.170000     -7.4941768E-26
   6.180000     -7.4035890E-26
   6.190000     -7.2752974E-26
   6.200000     -7.1068023E-26
   6.210000     -6.8955700E-26
   6.220000     -6.6390380E-26
   6.230000     -6.3346227E-26
   6.240000     -5.9797339E-26
   6.250000     -5.5717776E-26
   6.260000     -5.1081702E-26
   6.270000     -4.5863479E-26
   6.280000     -4.0037772E-26
   6.290000     -3.3579713E-26
   6.300000     -2.6464992E-26
   6.310000     -1.8670027E-26
   6.320000     -1.0172089E-26
   6.330000     -9.4946748E-28
   6.340000      9.0183657E-27
   6.350000      1.9750596E-26
   6.360000      3.1264866E-26
   6.370000      4.3577086E-26
   6.380000      5.6701276E-26
   6.390000      7.0649353E-26
   6.400000      8.5430912E-26
   6.410000      1.0105301E-25
   6.420000      1.1751996E-25
   6.430000      1.3483312E-25
   6.440000      1.5299061E-25
   6.450000      1.7198717E-25
   6.460000      1.9181382E-25
   6.470000      2.1245770E-25
   6.480000      2.3390179E-25
   6.490000      2.5612462E-25
   6.500000      2.7910012E-25
   6.510000      3.0279728E-25
   6.520000      3.2718001E-25
   6.530000      3.5220675E-25
   6.540000      3.7783035E-25
   6.550000      4.0399781E-25
   6.560000      4.3064997E-25
   6.570000      4.5772135E-25
   6.580000      4.8513999E-25
   6.590000      5.1282709E-25
   6.600000      5.4069685E-25
   6.610000      5.6865645E-25
   6.620000      5.9660569E-25
   6.630000      6.2443680E-25
   6.640000      6.5203451E-25
   6.650000      6.7927575E-25
   6.660000      7.0602962E-25
   6.670000      7.3215729E-25
   6.680000      7.5751187E-25
   6.690000      7.8193850E-25
   6.700000      8.0527429E-25
   6.710000      8.2734834E-25
   6.720000      8.4798199E-25
   6.730000      8.6698831E-25
   6.740000      8.8417315E-25
   6.750000      8.9933456E-25
   6.760000      9.1226330E-25
   6.770000      9.2274293E-25
   6.780000      9.3055028E-25
   6.790000      9.3545591E-25
   6.800000      9.3722415E-25
   6.810000      9.3561369E-25
   6.820000      9.3037821E-25
   6.830000      9.2126677E-25
   6.840000      9.0802456E-25
   6.850000      8.9039302E-25
   6.860000      8.6811145E-25
   6.870000      8.4091705E-25
   6.880000      8.0854639E-25
   6.890000      7.7073564E-25
   6.900000      7.2722198E-25
   6.910000      6.7774447E-25
   6.920000      6.2204507E-25
   6.930000      5.5987026E-25
   6.940000      4.9097174E-25
   6.950000      4.1510778E-25
   6.960000      3.3204482E-25
   6.970000      2.4155890E-25
   6.980000      1.4343691E-25
   6.990000      3.7478523E-26
   7.000000     -7.6502800E-26
   7.010000     -1.9867764E-25
   7.020000     -3.2919903E-25
   7.030000     -4.6820048E-25
   7.040000     -6.1579449E-25
   7.050000     -7.7207054E-25
   7.060000     -9.3709290E-25