  -2.600000      0.0000000E+00
  -2.590000      0.0000000E+00
  -2.580000      0.0000000E+00
  -2.570000      0.0000000E+00
  -2.560000      0.0000000E+00
  -2.550000      0.0000000E+00
  -2.540000      0.0000000E+00
  -2.530000      0.0000000E+00
  -2.520000      0.0000000E+00
  -2.510000      0.0000000E+00
  -2.500000      0.0000000E+00
  -2.490000      0.0000000E+00
  -2.480000      0.0000000E+00
  -2.470000      0.0000000E+00
  -2.460000      0.0000000E+00
  -2.450000      0.0000000E+00
  -2.440000      0.0000000E+00
  -2.430000      0.0000000E+00
  -2.420000      0.0000000E+00
  -2.410000      0.0000000E+00
  -2.400000      0.0000000E+00
  -2.390000      0.0000000E+00
  -2.380000      0.0000000E+00
  -2.370000      0.0000000E+00
  -2.360000      0.0000000E+00
  -2.350000      0.0000000E+00
  -2.340000      0.0000000E+00
  -2.330000      0.0000000E+00
  -2.320000      0.0000000E+00
  -2.310000      0.0000000E+00
  -2.300000      0.0000000E+00
  -2.290000      0.0000000E+00
  -2.280000      0.0000000E+00
  -2.270000      0.0000000E+00
  -2.260000      0.0000000E+00
  -2.250000      0.0000000E+00
  -2.240000      0.0000000E+00
  -2.230000      0.0000000E+00
  -2.220000      0.0000000E+00
  -2.210000      0.0000000E+00
  -2.200000      0.0000000E+00
  -2.190000      0.0000000E+00
  -2.180000      0.0000000E+00
  -2.170000      0.0000000E+00
  -2.160000      0.0000000E+00
  -2.150000      0.0000000E+00
  -2.140000      0.0000000E+00
  -2.130000      0.0000000E+00
  -2.120000      0.0000000E+00
  -2.110000      0.0000000E+00
  -2.100000      0.0000000E+00
  -2.090000      0.0000000E+00
  -2.080000      0.0000000E+00
  -2.070000      0.0000000E+00
  -2.060000      0.0000000E+00
  -2.050000      0.0000000E+00
  -2.040000      0.0000000E+00
  -2.030000      0.0000000E+00
  -2.020000      0.0000000E+00
  -2.010000      0.0000000E+00
  -2.000000      0.0000000E+00
  -1.990000      0.0000000E+00
  -1.980000      0.0000000E+00
  -1.970000      0.0000000E+00
  -1.960000      0.0000000E+00
  -1.950000      0.0000000E+00
  -1.940000      0.0000000E+00
  -1.930000      0.0000000E+00
  -1.920000      0.0000000E+00
  -1.910000      0.0000000E+00
  -1.900000      0.0000000E+00
  -1.890000      0.0000000E+00
  -1.880000      0.0000000E+00
  -1.870000      0.0000000E+00
  -1.860000      0.0000000E+00
  -1.850000      0.0000000E+00
  -1.840000      0.0000000E+00
  -1.830000      0.0000000E+00
  -1.820000      0.0000000E+00
  -1.810000      0.0000000E+00
  -1.800000      0.0000000E+00
  -1.790000      0.0000000E+00
  -1.780000      0.0000000E+00
  -1.770000      0.0000000E+00
  -1.760000      0.0000000E+00
  -1.750000      0.0000000E+00
  -1.740000      0.0000000E+00
  -1.730000      0.0000000E+00
  -1.720000      0.0000000E+00
  -1.710000      0.0000000E+00
  -1.700000      0.0000000E+00
  -1.690000      0.0000000E+00
  -1.680000      0.0000000E+00
  -1.670000      0.0000000E+00
  -1.660000      0.0000000E+00
  -1.650000      0.0000000E+00
  -1.640000      0.0000000E+00
  -1.630000      0.0000000E+00
  -1.620000      0.0000000E+00
  -1.610000      0.0000000E+00
  -1.600000      0.0000000E+00
  -1.590000      0.0000000E+00
  -1.580000      0.0000000E+00
  -1.570000      0.0000000E+00
  -1.560000      0.0000000E+00
  -1.550000      0.0000000E+00
  -1.540000      0.0000000E+00
  -1.530000      0.0000000E+00
  -1.520000      0.0000000E+00
  -1.510000      0.0000000E+00
  -1.500000      0.0000000E+00
  -1.490000      0.0000000E+00
  -1.480000      0.0000000E+00
  -1.470000      0.0000000E+00
  -1.460000      0.0000000E+00
  -1.450000      0.0000000E+00
  -1.440000      0.0000000E+00
  -1.430000      0.0000000E+00
  -1.420000      0.0000000E+00
  -1.410000      0.0000000E+00
  -1.400000      0.0000000E+00
  -1.390000      0.0000000E+00
  -1.380000      0.0000000E+00
  -1.370000      0.0000000E+00
  -1.360000      0.0000000E+00
  -1.350000      0.0000000E+00
  -1.340000      0.0000000E+00
  -1.330000      0.0000000E+00
  -1.320000      0.0000000E+00
  -1.310000      0.0000000E+00
  -1.300000      0.0000000E+00
  -1.290000      0.0000000E+00
  -1.280000      0.0000000E+00
  -1.270000      0.0000000E+00
  -1.260000      0.0000000E+00
  -1.250000      0.0000000E+00
  -1.240000      0.0000000E+00
  -1.230000      0.0000000E+00
  -1.220000      0.0000000E+00
  -1.210000      0.0000000E+00
  -1.200000      0.0000000E+00
  -1.190000      0.0000000E+00
  -1.180000      0.0000000E+00
  -1.170000      0.0000000E+00
  -1.160000      0.0000000E+00
  -1.150000      0.0000000E+00
  -1.140000      0.0000000E+00
  -1.130000      0.0000000E+00
  -1.120000      0.0000000E+00
  -1.110000      0.0000000E+00
  -1.100000      0.0000000E+00
  -1.090000      0.0000000E+00
  -1.080000      0.0000000E+00
  -1.070000      0.0000000E+00
  -1.060000      0.0000000E+00
  -1.050000      0.0000000E+00
  -1.040000      0.0000000E+00
  -1.030000      0.0000000E+00
  -1.020000      0.0000000E+00
  -1.010000      0.0000000E+00
  -1.000000      0.0000000E+00
 -0.9900000      0.0000000E+00
 -0.9800000      0.0000000E+00
 -0.9700000      0.0000000E+00
 -0.9600000      0.0000000E+00
 -0.9500000      0.0000000E+00
 -0.9400000      0.0000000E+00
 -0.9300000      0.0000000E+00
 -0.9200000      0.0000000E+00
 -0.9100000      0.0000000E+00
 -0.9000000      0.0000000E+00
 -0.8900000      0.0000000E+00
 -0.8800000      0.0000000E+00
 -0.8700000      0.0000000E+00
 -0.8600000      0.0000000E+00
 -0.8500000      0.0000000E+00
 -0.8400000      0.0000000E+00
 -0.8300000      0.0000000E+00
 -0.8200000      0.0000000E+00
 -0.8100000      0.0000000E+00
 -0.8000000      0.0000000E+00
 -0.7900000      0.0000000E+00
 -0.7800000      0.0000000E+00
 -0.7700000      0.0000000E+00
 -0.7600000      0.0000000E+00
 -0.7500000      0.0000000E+00
 -0.7400000      0.0000000E+00
 -0.7300000      0.0000000E+00
 -0.7200000      0.0000000E+00
 -0.7100000      0.0000000E+00
 -0.7000000      0.0000000E+00
 -0.6900000      0.0000000E+00
 -0.6800000      0.0000000E+00
 -0.6700000      0.0000000E+00
 -0.6600000      0.0000000E+00
 -0.6500000      0.0000000E+00
 -0.6400000      0.0000000E+00
 -0.6300000      0.0000000E+00
 -0.6200000      0.0000000E+00
 -0.6100000      0.0000000E+00
 -0.6000000      0.0000000E+00
 -0.5900000      0.0000000E+00
 -0.5800000      0.0000000E+00
 -0.5700000      0.0000000E+00
 -0.5600000      0.0000000E+00
 -0.5500000      0.0000000E+00
 -0.5400000      0.0000000E+00
 -0.5300000      0.0000000E+00
 -0.5200000      0.0000000E+00
 -0.5100000      0.0000000E+00
 -0.5000000      0.0000000E+00
 -0.4900000      0.0000000E+00
 -0.4800000      0.0000000E+00
 -0.4700000      0.0000000E+00
 -0.4600000      0.0000000E+00
 -0.4500000      0.0000000E+00
 -0.4400000      0.0000000E+00
 -0.4300000      0.0000000E+00
 -0.4200000      0.0000000E+00
 -0.4100000      0.0000000E+00
 -0.4000000      0.0000000E+00
 -0.3900000      0.0000000E+00
 -0.3800000      0.0000000E+00
 -0.3700000      0.0000000E+00
 -0.3600000      0.0000000E+00
 -0.3500000      0.0000000E+00
 -0.3400000      0.0000000E+00
 -0.3300000      0.0000000E+00
 -0.3200000      0.0000000E+00
 -0.3100000      0.0000000E+00
 -0.3000000      0.0000000E+00
 -0.2900000      0.0000000E+00
 -0.2800000      0.0000000E+00
 -0.2700000      0.0000000E+00
 -0.2600000      0.0000000E+00
 -0.2500000      0.0000000E+00
 -0.2400000      0.0000000E+00
 -0.2300000      0.0000000E+00
 -0.2200000      0.0000000E+00
 -0.2100000      0.0000000E+00
 -0.2000000      0.0000000E+00
 -0.1900000      0.0000000E+00
 -0.1800000      0.0000000E+00
 -0.1700000      0.0000000E+00
 -0.1600000      0.0000000E+00
 -0.1500000      0.0000000E+00
 -0.1400000      0.0000000E+00
 -0.1300000      0.0000000E+00
 -0.1200000      0.0000000E+00
 -0.1100000      0.0000000E+00
 -0.1000000      0.0000000E+00
 -9.0000004E-02  0.0000000E+00
 -7.9999998E-02  0.0000000E+00
 -7.0000000E-02  0.0000000E+00
 -5.9999999E-02  0.0000000E+00
 -5.0000001E-02  0.0000000E+00
 -3.9999999E-02  0.0000000E+00
 -2.9999999E-02  0.0000000E+00
 -2.0000000E-02  0.0000000E+00
 -9.9999998E-03  0.0000000E+00
 -3.4694470E-17  0.0000000E+00
  9.9999998E-03  0.0000000E+00
  2.0000000E-02  0.0000000E+00
  2.9999999E-02  0.0000000E+00
  3.9999999E-02  0.0000000E+00
  5.0000001E-02  0.0000000E+00
  5.9999999E-02  0.0000000E+00
  7.0000000E-02  0.0000000E+00
  7.9999998E-02  0.0000000E+00
  9.0000004E-02  0.0000000E+00
  0.1000000      0.0000000E+00
  0.1100000      0.0000000E+00
  0.1200000      0.0000000E+00
  0.1300000      0.0000000E+00
  0.1400000      0.0000000E+00
  0.1500000      0.0000000E+00
  0.1600000      0.0000000E+00
  0.1700000      0.0000000E+00
  0.1800000      0.0000000E+00
  0.1900000      0.0000000E+00
  0.2000000      0.0000000E+00
  0.2100000      0.0000000E+00
  0.2200000      0.0000000E+00
  0.2300000      0.0000000E+00
  0.2400000      0.0000000E+00
  0.2500000      0.0000000E+00
  0.2600000      0.0000000E+00
  0.2700000      0.0000000E+00
  0.2800000      0.0000000E+00
  0.2900000      0.0000000E+00
  0.3000000      0.0000000E+00
  0.3100000      0.0000000E+00
  0.3200000      0.0000000E+00
  0.3300000      0.0000000E+00
  0.3400000      0.0000000E+00
  0.3500000      0.0000000E+00
  0.3600000      0.0000000E+00
  0.3700000      0.0000000E+00
  0.3800000      0.0000000E+00
  0.3900000      0.0000000E+00
  0.4000000      0.0000000E+00
  0.4100000      0.0000000E+00
  0.4200000      0.0000000E+00
  0.4300000      0.0000000E+00
  0.4400000      0.0000000E+00
  0.4500000      0.0000000E+00
  0.4600000      0.0000000E+00
  0.4700000      0.0000000E+00
  0.4800000      0.0000000E+00
  0.4900000      0.0000000E+00
  0.5000000      0.0000000E+00
  0.5100000      0.0000000E+00
  0.5200000      0.0000000E+00
  0.5300000      0.0000000E+00
  0.5400000      0.0000000E+00
  0.5500000      0.0000000E+00
  0.5600000      0.0000000E+00
  0.5700000      0.0000000E+00
  0.5800000      0.0000000E+00
  0.5900000      0.0000000E+00
  0.6000000      0.0000000E+00
  0.6100000      0.0000000E+00
  0.6200000      0.0000000E+00
  0.6300000      0.0000000E+00
  0.6400000      0.0000000E+00
  0.6500000      0.0000000E+00
  0.6600000      0.0000000E+00
  0.6700000      0.0000000E+00
  0.6800000      0.0000000E+00
  0.6900000      0.0000000E+00
  0.7000000      0.0000000E+00
  0.7100000      0.0000000E+00
  0.7200000      0.0000000E+00
  0.7300000      0.0000000E+00
  0.7400000      0.0000000E+00
  0.7500000      0.0000000E+00
  0.7600000      0.0000000E+00
  0.7700000      0.0000000E+00
  0.7800000      0.0000000E+00
  0.7900000     -1.5463074E-38
  0.8000000     -1.9693975E-38
  0.8100000     -2.3894653E-38
  0.8200000     -2.8964979E-38
  0.8300000     -3.4617669E-38
  0.8400000     -4.1522884E-38
  0.8500000     -5.0146732E-38
  0.8600000     -6.0414377E-38
  0.8700000     -7.2430494E-38
  0.8800000     -8.6954359E-38
  0.8900000     -1.0347817E-37
  0.9000000     -1.2074446E-37
  0.9100000     -1.3769220E-37
  0.9200000     -1.5359159E-37
  0.9300000     -1.6775304E-37
  0.9400000     -1.7970101E-37
  0.9500000     -1.9016759E-37
  0.9600000     -1.9808094E-37
  0.9700000     -2.0305871E-37
  0.9800000     -2.0504100E-37
  0.9900000     -2.0367651E-37
   1.000000     -1.9854218E-37
   1.010000     -1.8674637E-37
   1.020000     -1.7176238E-37
   1.030000     -1.5732264E-37
   1.040000     -1.4104414E-37
   1.050000     -1.1850651E-37
   1.060000     -8.8087791E-38
   1.070000     -5.0974031E-38
   1.080000      0.0000000E+00
   1.090000      6.2293591E-38
   1.100000      1.3476842E-37
   1.110000      2.2067505E-37
   1.120000      3.2318868E-37
   1.130000      4.4345132E-37
   1.140000      5.8057620E-37
   1.150000      7.3197859E-37
   1.160000      8.9458338E-37
   1.170000      1.0595450E-36
   1.180000      1.2220294E-36
   1.190000      1.3911366E-36
   1.200000      1.5649784E-36
   1.210000      1.7436790E-36
   1.220000      1.9386082E-36
   1.230000      2.1653501E-36
   1.240000      2.4227271E-36
   1.250000      2.6964814E-36
   1.260000      2.9880982E-36
   1.270000      3.2978091E-36
   1.280000      3.7039684E-36
   1.290000      4.1790779E-36
   1.300000      4.4442518E-36
   1.310000      4.4897140E-36
   1.320000      4.4659150E-36
   1.330000      4.1415907E-36
   1.340000      3.4926442E-36
   1.350000      2.3490142E-36
   1.360000      7.2759869E-37
   1.370000     -9.6421630E-37
   1.380000     -2.7197497E-36
   1.390000     -4.4507994E-36
   1.400000     -6.2180444E-36
   1.410000     -8.1220346E-36
   1.420000     -9.9805949E-36
   1.430000     -1.1398742E-35
   1.440000     -1.2462503E-35
   1.450000     -1.3619683E-35
   1.460000     -1.4705865E-35
   1.470000     -1.5589404E-35
   1.480000     -1.6380865E-35
   1.490000     -1.7066406E-35
   1.500000     -1.7810658E-35
   1.510000     -1.8618447E-35
   1.520000     -1.9125038E-35
   1.530000     -1.9269552E-35
   1.540000     -1.9076676E-35
   1.550000     -1.8807219E-35
   1.560000     -1.8760896E-35
   1.570000     -1.8523788E-35
   1.580000     -1.7792093E-35
   1.590000     -1.6829325E-35
   1.600000     -1.5888241E-35
   1.610000     -1.4768279E-35
   1.620000     -1.3337784E-35
   1.630000     -1.1679656E-35
   1.640000     -9.7120945E-36
   1.650000     -7.3446729E-36
   1.660000     -4.5904062E-36
   1.670000     -1.4395533E-36
   1.680000      2.1962138E-36
   1.690000      6.3644804E-36
   1.700000      1.1522964E-35
   1.710000      1.7786753E-35
   1.720000      2.4341589E-35
   1.730000      3.2044619E-35
   1.740000      4.1309463E-35
   1.750000      5.1449895E-35
   1.760000      6.3027482E-35
   1.770000      7.5794728E-35
   1.780000      8.8457477E-35
   1.790000      1.0004226E-34
   1.800000      1.1081531E-34
   1.810000      1.2147818E-34
   1.820000      1.3142647E-34
   1.830000      1.4008038E-34
   1.840000      1.4739655E-34
   1.850000      1.5335614E-34
   1.860000      1.5754414E-34
   1.870000      1.5962280E-34
   1.880000      1.5992066E-34
   1.890000      1.5846078E-34
   1.900000      1.5445719E-34
   1.910000      1.4762610E-34
   1.920000      1.3789450E-34
   1.930000      1.2549969E-34
   1.940000      1.1096661E-34
   1.950000      9.3822334E-35
   1.960000      7.4331783E-35
   1.970000      5.1552424E-35
   1.980000      2.2795525E-35
   1.990000     -1.3487683E-35
   2.000000     -5.3256357E-35
   2.010000     -9.4714654E-35
   2.020000     -1.4065435E-34
   2.030000     -1.9097451E-34
   2.040000     -2.4259191E-34
   2.050000     -2.9429589E-34
   2.060000     -3.4887084E-34
   2.070000     -4.0796174E-34
   2.080000     -4.6895080E-34
   2.090000     -5.3320516E-34
   2.100000     -6.0574179E-34
   2.110000     -6.8528680E-34
   2.120000     -7.6929181E-34
   2.130000     -8.5681811E-34
   2.140000     -9.4746902E-34
   2.150000     -1.0409689E-33
   2.160000     -1.1355838E-33
   2.170000     -1.2294572E-33
   2.180000     -1.3204072E-33
   2.190000     -1.4107504E-33
   2.200000     -1.5020036E-33
   2.210000     -1.5902365E-33
   2.220000     -1.6684899E-33
   2.230000     -1.7367834E-33
   2.240000     -1.7973386E-33
   2.250000     -1.8448592E-33
   2.260000     -1.8764066E-33
   2.270000     -1.8908027E-33
   2.280000     -1.8874202E-33
   2.290000     -1.8610414E-33
   2.300000     -1.8060448E-33
   2.310000     -1.7247520E-33
   2.320000     -1.6167222E-33
   2.330000     -1.4778381E-33
   2.340000     -1.3066216E-33
   2.350000     -1.1008415E-33
   2.360000     -8.5600977E-34
   2.370000     -5.7237322E-34
   2.380000     -2.5128159E-34
   2.390000      1.1028300E-34
   2.400000      5.1380762E-34
   2.410000      9.6199106E-34
   2.420000      1.4564697E-33
   2.430000      1.9965184E-33
   2.440000      2.5821091E-33
   2.450000      3.2135496E-33
   2.460000      3.8906405E-33
   2.470000      4.6126149E-33
   2.480000      5.3783150E-33
   2.490000      6.1863424E-33
   2.500000      7.0344572E-33
   2.510000      7.9196970E-33
   2.520000      8.8392943E-33
   2.530000      9.7897374E-33
   2.540000      1.0766022E-32
   2.550000      1.1761276E-32
   2.560000      1.2770624E-32
   2.570000      1.3788875E-32
   2.580000      1.4806762E-32
   2.590000      1.5815267E-32
   2.600000      1.6805116E-32
   2.610000      1.7765775E-32
   2.620000      1.8685818E-32
   2.630000      1.9552936E-32
   2.640000      2.0353912E-32
   2.650000      2.1074780E-32
   2.660000      2.1699272E-32
   2.670000      2.2213531E-32
   2.680000      2.2603164E-32
   2.690000      2.2850026E-32
   2.700000      2.2937120E-32
   2.710000      2.2847152E-32
   2.720000      2.2562644E-32
   2.730000      2.2066068E-32
   2.740000      2.1339885E-32
   2.750000      2.0366896E-32
   2.760000      1.9130042E-32
   2.770000      1.7612737E-32
   2.780000      1.5799304E-32
   2.790000      1.3674411E-32
   2.800000      1.1224613E-32
   2.810000      8.4391517E-33
   2.820000      5.3042890E-33
   2.830000      1.8091108E-33
   2.840000     -2.0522366E-33
   2.850000     -6.2857753E-33
   2.860000     -1.0894930E-32
   2.870000     -1.5880564E-32
   2.880000     -2.1240792E-32
   2.890000     -2.6970754E-32
   2.900000     -3.3062407E-32
   2.910000     -3.9504219E-32
   2.920000     -4.6280911E-32
   2.930000     -5.3373315E-32
   2.940000     -6.0758082E-32
   2.950000     -6.8407494E-32
   2.960000     -7.6289266E-32
   2.970000     -8.4366299E-32
   2.980000     -9.2596541E-32
   2.990000     -1.0093285E-31
   3.000000     -1.0932276E-31
   3.010000     -1.1770861E-31
   3.020000     -1.2602731E-31
   3.030000     -1.3421059E-31
   3.040000     -1.4218422E-31
   3.050000     -1.4986879E-31
   3.060000     -1.5718027E-31
   3.070000     -1.6402936E-31
   3.080000     -1.7032210E-31
   3.090000     -1.7596011E-31
   3.100000     -1.8084100E-31
   3.110000     -1.8485878E-31
   3.120000     -1.8790439E-31
   3.130000     -1.8986620E-31
   3.140000     -1.9063054E-31
   3.150000     -1.9008273E-31
   3.160000     -1.8810759E-31
   3.170000     -1.8459003E-31
   3.180000     -1.7941622E-31
   3.190000     -1.7247442E-31
   3.200000     -1.6365599E-31
   3.210000     -1.5285641E-31
   3.220000     -1.3997637E-31
   3.230000     -1.2492293E-31
   3.240000     -1.0761097E-31
   3.250000     -8.7964282E-32
   3.260000     -6.5916669E-32
   3.270000     -4.1413674E-32
   3.280000     -1.4413866E-32
   3.290000      1.5109700E-32
   3.300000      4.7168048E-32
   3.310000      8.1754727E-32
   3.320000      1.1884428E-31
   3.330000      1.5839079E-31
   3.340000      2.0032634E-31
   3.350000      2.4455946E-31
   3.360000      2.9097381E-31
   3.370000      3.3942658E-31
   3.380000      3.8974714E-31
   3.390000      4.4173592E-31
   3.400000      4.9516298E-31
   3.410000      5.4976705E-31
   3.420000      6.0525457E-31
   3.430000      6.6129884E-31
   3.440000      7.1753934E-31
   3.450000      7.7358122E-31
   3.460000      8.2899539E-31
   3.470000      8.8331789E-31
   3.480000      9.3605057E-31
   3.490000      9.8666143E-31
   3.500000      1.0345852E-30
   3.510000      1.0792246E-30
   3.520000      1.1199516E-30
   3.530000      1.1561089E-30
   3.540000      1.1870120E-30
   3.550000      1.2119517E-30
   3.560000      1.2301962E-30
   3.570000      1.2409949E-30
   3.580000      1.2435811E-30
   3.590000      1.2371761E-30
   3.600000      1.2209932E-30
   3.610000      1.1942425E-30
   3.620000      1.1561357E-30
   3.630000      1.1058909E-30
   3.640000      1.0427395E-30
   3.650000      9.6593164E-31
   3.660000      8.7474299E-31
   3.670000      7.6848174E-31
   3.680000      6.4649599E-31
   3.690000      5.0818205E-31
   3.700000      3.5299211E-31
   3.710000      1.8044340E-31
   3.720000     -9.8733055E-33
   3.730000     -2.1828420E-31
   3.740000     -4.4502251E-31
   3.750000     -6.9021906E-31
   3.760000     -9.5389222E-31
   3.770000     -1.2359371E-30
   3.780000     -1.5361158E-30
   3.790000     -1.8540465E-30
   3.800000     -2.1891933E-30
   3.810000     -2.5408557E-30
   3.820000     -2.9081582E-30
   3.830000     -3.2900409E-30
   3.840000     -3.6852496E-30
   3.850000     -4.0923254E-30
   3.860000     -4.5095969E-30
   3.870000     -4.9351725E-30
   3.880000     -5.3669314E-30
   3.890000     -5.8025166E-30
   3.900000     -6.2393299E-30
   3.910000     -6.6745269E-30
   3.920000     -7.1050114E-30
   3.930000     -7.5274332E-30
   3.940000     -7.9381867E-30
   3.950000     -8.3334078E-30
   3.960000     -8.7089785E-30
   3.970000     -9.0605276E-30
   3.980000     -9.3834346E-30
   3.990000     -9.6728349E-30
   4.000000     -9.9236271E-30
   4.010000     -1.0130486E-29
   4.020000     -1.0287868E-29
   4.030000     -1.0390032E-29
   4.040000     -1.0431049E-29
   4.050000     -1.0404824E-29
   4.060000     -1.0305119E-29
   4.070000     -1.0125571E-29
   4.080000     -9.8597254E-30
   4.090000     -9.5010578E-30
   4.100000     -9.0430100E-30
   4.110000     -8.4790285E-30
   4.120000     -7.8025975E-30
   4.130000     -7.0072802E-30
   4.140000     -6.0867688E-30
   4.150000     -5.0349271E-30
   4.160000     -3.8458417E-30
   4.170000     -2.5138786E-30
   4.180000     -1.0337371E-30
   4.190000      5.9949098E-31
   4.200000      2.3902532E-30
   4.210000      4.3424755E-30
   4.220000      6.4594946E-30
   4.230000      8.7439853E-30
   4.240000      1.1197887E-29
   4.250000      1.3822332E-29
   4.260000      1.6617566E-29
   4.270000      1.9582868E-29
   4.280000      2.2716478E-29
   4.290000      2.6015510E-29
   4.300000      2.9475870E-29
   4.310000      3.3092180E-29
   4.320000      3.6857677E-29
   4.330000      4.0764164E-29
   4.340000      4.4801903E-29
   4.350000      4.8959535E-29
   4.360000      5.3224013E-29
   4.370000      5.7580521E-29
   4.380000      6.2012392E-29
   4.390000      6.6501061E-29
   4.400000      7.1025949E-29
   4.410000      7.5564457E-29
   4.420000      8.0091867E-29
   4.430000      8.4581300E-29
   4.440000      8.9003681E-29
   4.450000      9.3327694E-29
   4.460000      9.7519740E-29
   4.470000      1.0154392E-28
   4.480000      1.0536204E-28
   4.490000      1.0893359E-28
   4.500000      1.1221576E-28
   4.510000      1.1516345E-28
   4.520000      1.1772932E-28
   4.530000      1.1986385E-28
   4.540000      1.2151538E-28
   4.550000      1.2263022E-28
   4.560000      1.2315274E-28
   4.570000      1.2302547E-28
   4.580000      1.2218922E-28
   4.590000      1.2058332E-28
   4.600000      1.1814569E-28
   4.610000      1.1481310E-28
   4.620000      1.1052138E-28
   4.630000      1.0520566E-28
   4.640000      9.8800585E-29
   4.650000      9.1240696E-29
   4.660000      8.2460683E-29
   4.670000      7.2395713E-29
   4.680000      6.0981803E-29
   4.690000      4.8156220E-29
   4.700000      3.3857885E-29
   4.710000      1.8027804E-29
   4.720000      6.0954267E-31
   4.730000     -1.8450278E-29
   4.740000     -3.9201470E-29
   4.750000     -6.1689769E-29
   4.760000     -8.5956221E-29
   4.770000     -1.1203659E-28
   4.780000     -1.3996076E-28
   4.790000     -1.6975207E-28
   4.800000     -2.0142668E-28
   4.810000     -2.3499282E-28
   4.820000     -2.7045021E-28
   4.830000     -3.0778908E-28
   4.840000     -3.4698974E-28
   4.850000     -3.8802161E-28
   4.860000     -4.3084252E-28
   4.870000     -4.7539780E-28
   4.880000     -5.2161973E-28
   4.890000     -5.6942656E-28
   4.900000     -6.1872175E-28
   4.910000     -6.6939316E-28
   4.920000     -7.2131233E-28
   4.930000     -7.7433362E-28
   4.940000     -8.2829345E-28
   4.950000     -8.8300980E-28
   4.960000     -9.3828100E-28
   4.970000     -9.9388549E-28
   4.980000     -1.0495810E-27
   4.990000     -1.1051040E-27
   5.000000     -1.1601686E-27
   5.010000     -1.2144673E-27
   5.020000     -1.2676690E-27
   5.030000     -1.3194197E-27
   5.040000     -1.3693419E-27
   5.050000     -1.4170337E-27
   5.060000     -1.4620698E-27
   5.070000     -1.5040007E-27
   5.080000     -1.5423526E-27
   5.090000     -1.5766281E-27
   5.100000     -1.6063058E-27
   5.110000     -1.6308413E-27
   5.120000     -1.6496674E-27
   5.130000     -1.6621948E-27
   5.140000     -1.6678128E-27
   5.150000     -1.6658903E-27
   5.160000     -1.6557774E-27
   5.170000     -1.6368059E-27
   5.180000     -1.6082910E-27
   5.190000     -1.5695333E-27
   5.200000     -1.5198210E-27
   5.210000     -1.4584314E-27
   5.220000     -1.3846329E-27
   5.230000     -1.2976885E-27
   5.240000     -1.1968584E-27
   5.250000     -1.0814018E-27
   5.260000     -9.5058201E-28
   5.270000     -8.0366885E-28
   5.280000     -6.3994246E-28
   5.290000     -4.5869777E-28
   5.300000     -2.5924837E-28
   5.310000     -4.0931175E-29
   5.320000      1.9688820E-28
   5.330000      4.5481105E-28
   5.340000      7.3339990E-28
   5.350000      1.0331727E-27
   5.360000      1.3545974E-27
   5.370000      1.6980855E-27
   5.380000      2.0639856E-27
   5.390000      2.4525768E-27
   5.400000      2.8640620E-27
   5.410000      3.2985602E-27
   5.420000      3.7560996E-27
   5.430000      4.2366102E-27
   5.440000      4.7399154E-27
   5.450000      5.2657255E-27
   5.460000      5.8136279E-27
   5.470000      6.3830796E-27
   5.480000      6.9733994E-27
   5.490000      7.5837590E-27
   5.500000      8.2131745E-27
   5.510000      8.8604972E-27
   5.520000      9.5244084E-27
   5.530000      1.0203405E-26
   5.540000      1.0895798E-26
   5.550000      1.1599698E-26
   5.560000      1.2313014E-26
   5.570000      1.3033438E-26
   5.580000      1.3758443E-26
   5.590000      1.4485275E-26
   5.600000      1.5210942E-26
   5.610000      1.5932214E-26
   5.620000      1.6645614E-26
   5.630000      1.7347407E-26
   5.640000      1.8033607E-26
   5.650000      1.8699965E-26
   5.660000      1.9341967E-26
   5.670000      1.9954831E-26
   5.680000      2.0533512E-26
   5.690000      2.1072683E-26
   5.700000      2.1566762E-26
   5.710000      2.2009896E-26
   5.720000      2.2395971E-26
   5.730000      2.2718607E-26
   5.740000      2.2971177E-26
   5.750000      2.3146803E-26
   5.760000      2.3238374E-26
   5.770000      2.3238543E-26
   5.780000      2.3139760E-26
   5.790000      2.2934267E-26
   5.800000      2.2614115E-26
   5.810000      2.2171199E-26
   5.820000      2.1597257E-26
   5.830000      2.0883908E-26
   5.840000      2.0022666E-26
   5.850000      1.9004970E-26
   5.860000      1.7822214E-26
   5.870000      1.6465778E-26
   5.880000      1.4927063E-26
   5.890000      1.3197527E-26
   5.900000      1.1268723E-26
   5.910000      9.1323376E-27
   5.920000      6.7802456E-27
   5.930000      4.2045500E-27
   5.940000      1.3976297E-27
   5.950000     -1.6478012E-27
   5.960000     -4.9386406E-27
   5.970000     -8.4813425E-27
   5.980000     -1.2281849E-26
   5.990000     -1.6345537E-26
   6.000000     -2.0677146E-26
   6.010000     -2.5280713E-26
   6.020000     -3.0159493E-26
   6.030000     -3.5315888E-26
   6.040000     -4.0751386E-26
   6.050000     -4.6466459E-26
   6.060000     -5.2460501E-26
   6.070000     -5.8731748E-26
   6.080000     -6.5277180E-26
   6.090000     -7.2092439E-26
   6.100000     -7.9171751E-26
   6.110000     -8.6507837E-26
   6.120000     -9.4091841E-26
   6.130000     -1.0191321E-25
   6.140000     -1.0995962E-25
   6.150000     -1.1821688E-25
   6.160000     -1.2666892E-25
   6.170000     -1.3529757E-25
   6.180000     -1.4408255E-25
   6.190000     -1.5300143E-25
   6.200000     -1.6202952E-25
   6.210000     -1.7113970E-25
   6.220000     -1.8030249E-25
   6.230000     -1.8948591E-25
   6.240000     -1.9865539E-25
   6.250000     -2.0777376E-25
   6.260000     -2.1680121E-25
   6.270000     -2.2569515E-25
   6.280000     -2.3441024E-25
   6.290000     -2.4289836E-25
   6.300000     -2.5110863E-25
   6.310000     -2.5898723E-25
   6.320000     -2.6647753E-25
   6.330000     -2.7352011E-25
   6.340000     -2.8005270E-25
   6.350000     -2.8601017E-25
   6.360000     -2.9132475E-25
   6.370000     -2.9592593E-25
   6.380000     -2.9974054E-25
   6.390000     -3.0269291E-25
   6.400000     -3.0470487E-25
   6.410000     -3.0569598E-25
   6.420000     -3.0558361E-25
   6.430000     -3.0428305E-25
   6.440000     -3.0170772E-25
   6.450000     -2.9776935E-25
   6.460000     -2.9237828E-25
   6.470000     -2.8544355E-25
   6.480000     -2.7687324E-25
   6.490000     -2.6657471E-25
   6.500000     -2.5445490E-25
   6.510000     -2.4042079E-25
   6.520000     -2.2437945E-25
   6.530000     -2.0623871E-25
   6.540000     -1.8590736E-25
   6.550000     -1.6329570E-25
   6.560000     -1.3831589E-25
   6.570000     -1.1088246E-25
   6.580000     -8.0912779E-26
   6.590000     -4.8327634E-26
   6.600000     -1.3051713E-26
   6.610000      2.4985832E-26
   6.620000      6.5850743E-26
   6.630000      1.0960304E-25
   6.640000      1.5629643E-25
   6.650000      2.0597767E-25
   6.660000      2.5868581E-25
   6.670000      3.1445149E-25
   6.680000      3.7329625E-25
   6.690000      4.3523177E-25
   6.700000      5.0025905E-25
   6.710000      5.6836797E-25
   6.720000      6.3953609E-25
   6.730000      7.1372797E-25
   6.740000      7.9089454E-25
   6.750000      8.7097215E-25
   6.760000      9.5388183E-25
   6.770000      1.0395283E-24
   6.780000      1.1277995E-24
   6.790000      1.2185658E-24
   6.800000      1.3116783E-24
   6.810000      1.4069692E-24
   6.820000      1.5042507E-24
   6.830000      1.6033138E-24
   6.840000      1.7039283E-24
   6.850000      1.8058416E-24
   6.860000      1.9087781E-24
   6.870000      2.0124384E-24
   6.880000      2.1164996E-24
   6.890000      2.2206137E-24
   6.900000      2.3244076E-24
   6.910000      2.4274828E-24
   6.920000      2.5294148E-24
   6.930000      2.6297528E-24
   6.940000      2.7280198E-24
   6.950000      2.8237120E-24
   6.960000      2.9162991E-24
   6.970000      3.0052242E-24
   6.980000      3.0899043E-24
   6.990000      3.1697299E-24
   7.000000      3.2440658E-24
   7.010000      3.3122510E-24
   7.020000      3.3736007E-24
   7.030000      3.4274058E-24
   7.040000      3.4729333E-24
   7.050000      3.5094292E-24
   7.060000      3.5361179E-24