  -2.600000      0.0000000E+00
  -2.590000      0.0000000E+00
  -2.580000      0.0000000E+00
  -2.570000      0.0000000E+00
  -2.560000      0.0000000E+00
  -2.550000      0.0000000E+00
  -2.540000      0.0000000E+00
  -2.530000      0.0000000E+00
  -2.520000      0.0000000E+00
  -2.510000      0.0000000E+00
  -2.500000      0.0000000E+00
  -2.490000      0.0000000E+00
  -2.480000      0.0000000E+00
  -2.470000      0.0000000E+00
  -2.460000      0.0000000E+00
  -2.450000      0.0000000E+00
  -2.440000      0.0000000E+00
  -2.430000      0.0000000E+00
  -2.420000      0.0000000E+00
  -2.410000      0.0000000E+00
  -2.400000      0.0000000E+00
  -2.390000      0.0000000E+00
  -2.380000      0.0000000E+00
  -2.370000      0.0000000E+00
  -2.360000      0.0000000E+00
  -2.350000      0.0000000E+00
  -2.340000      0.0000000E+00
  -2.330000      0.0000000E+00
  -2.320000      0.0000000E+00
  -2.310000      0.0000000E+00
  -2.300000      0.0000000E+00
  -2.290000      0.0000000E+00
  -2.280000      0.0000000E+00
  -2.270000      0.0000000E+00
  -2.260000      0.0000000E+00
  -2.250000      0.0000000E+00
  -2.240000      0.0000000E+00
  -2.230000      0.0000000E+00
  -2.220000      0.0000000E+00
  -2.210000      0.0000000E+00
  -2.200000      0.0000000E+00
  -2.190000      0.0000000E+00
  -2.180000      0.0000000E+00
  -2.170000      0.0000000E+00
  -2.160000      0.0000000E+00
  -2.150000      0.0000000E+00
  -2.140000      0.0000000E+00
  -2.130000      0.0000000E+00
  -2.120000      0.0000000E+00
  -2.110000      0.0000000E+00
  -2.100000      0.0000000E+00
  -2.090000      0.0000000E+00
  -2.080000      0.0000000E+00
  -2.070000      0.0000000E+00
  -2.060000      0.0000000E+00
  -2.050000      0.0000000E+00
  -2.040000      0.0000000E+00
  -2.030000      0.0000000E+00
  -2.020000      0.0000000E+00
  -2.010000      0.0000000E+00
  -2.000000      0.0000000E+00
  -1.990000      0.0000000E+00
  -1.980000      0.0000000E+00
  -1.970000      0.0000000E+00
  -1.960000      0.0000000E+00
  -1.950000      0.0000000E+00
  -1.940000      0.0000000E+00
  -1.930000      0.0000000E+00
  -1.920000      0.0000000E+00
  -1.910000      0.0000000E+00
  -1.900000      0.0000000E+00
  -1.890000      0.0000000E+00
  -1.880000      0.0000000E+00
  -1.870000      0.0000000E+00
  -1.860000      0.0000000E+00
  -1.850000      0.0000000E+00
  -1.840000      0.0000000E+00
  -1.830000      0.0000000E+00
  -1.820000      0.0000000E+00
  -1.810000      0.0000000E+00
  -1.800000      0.0000000E+00
  -1.790000      0.0000000E+00
  -1.780000      0.0000000E+00
  -1.770000      0.0000000E+00
  -1.760000      0.0000000E+00
  -1.750000      0.0000000E+00
  -1.740000      0.0000000E+00
  -1.730000      0.0000000E+00
  -1.720000      0.0000000E+00
  -1.710000      0.0000000E+00
  -1.700000      0.0000000E+00
  -1.690000      0.0000000E+00
  -1.680000      0.0000000E+00
  -1.670000      0.0000000E+00
  -1.660000      0.0000000E+00
  -1.650000      0.0000000E+00
  -1.640000      0.0000000E+00
  -1.630000      0.0000000E+00
  -1.620000      0.0000000E+00
  -1.610000      0.0000000E+00
  -1.600000      0.0000000E+00
  -1.590000      0.0000000E+00
  -1.580000      0.0000000E+00
  -1.570000      0.0000000E+00
  -1.560000      0.0000000E+00
  -1.550000      0.0000000E+00
  -1.540000      0.0000000E+00
  -1.530000      0.0000000E+00
  -1.520000      0.0000000E+00
  -1.510000      0.0000000E+00
  -1.500000      0.0000000E+00
  -1.490000      0.0000000E+00
  -1.480000      0.0000000E+00
  -1.470000      0.0000000E+00
  -1.460000      0.0000000E+00
  -1.450000      0.0000000E+00
  -1.440000      0.0000000E+00
  -1.430000      0.0000000E+00
  -1.420000      0.0000000E+00
  -1.410000      0.0000000E+00
  -1.400000      0.0000000E+00
  -1.390000      0.0000000E+00
  -1.380000      0.0000000E+00
  -1.370000      0.0000000E+00
  -1.360000      0.0000000E+00
  -1.350000      0.0000000E+00
  -1.340000      0.0000000E+00
  -1.330000      0.0000000E+00
  -1.320000      0.0000000E+00
  -1.310000      0.0000000E+00
  -1.300000      0.0000000E+00
  -1.290000      0.0000000E+00
  -1.280000      0.0000000E+00
  -1.270000      0.0000000E+00
  -1.260000      0.0000000E+00
  -1.250000      0.0000000E+00
  -1.240000      0.0000000E+00
  -1.230000      0.0000000E+00
  -1.220000      0.0000000E+00
  -1.210000      0.0000000E+00
  -1.200000      0.0000000E+00
  -1.190000      0.0000000E+00
  -1.180000      0.0000000E+00
  -1.170000      0.0000000E+00
  -1.160000      0.0000000E+00
  -1.150000      0.0000000E+00
  -1.140000      0.0000000E+00
  -1.130000      0.0000000E+00
  -1.120000      0.0000000E+00
  -1.110000      0.0000000E+00
  -1.100000      0.0000000E+00
  -1.090000      0.0000000E+00
  -1.080000      0.0000000E+00
  -1.070000      0.0000000E+00
  -1.060000      0.0000000E+00
  -1.050000      0.0000000E+00
  -1.040000      0.0000000E+00
  -1.030000      0.0000000E+00
  -1.020000      0.0000000E+00
  -1.010000      0.0000000E+00
  -1.000000      0.0000000E+00
 -0.9900000      0.0000000E+00
 -0.9800000      0.0000000E+00
 -0.9700000      0.0000000E+00
 -0.9600000      0.0000000E+00
 -0.9500000      0.0000000E+00
 -0.9400000      0.0000000E+00
 -0.9300000      0.0000000E+00
 -0.9200000      0.0000000E+00
 -0.9100000      0.0000000E+00
 -0.9000000      0.0000000E+00
 -0.8900000      0.0000000E+00
 -0.8800000      0.0000000E+00
 -0.8700000      0.0000000E+00
 -0.8600000      0.0000000E+00
 -0.8500000      0.0000000E+00
 -0.8400000      0.0000000E+00
 -0.8300000      0.0000000E+00
 -0.8200000      0.0000000E+00
 -0.8100000      0.0000000E+00
 -0.8000000      0.0000000E+00
 -0.7900000      0.0000000E+00
 -0.7800000      0.0000000E+00
 -0.7700000      0.0000000E+00
 -0.7600000      0.0000000E+00
 -0.7500000      0.0000000E+00
 -0.7400000      0.0000000E+00
 -0.7300000      0.0000000E+00
 -0.7200000      0.0000000E+00
 -0.7100000      0.0000000E+00
 -0.7000000      0.0000000E+00
 -0.6900000      0.0000000E+00
 -0.6800000      0.0000000E+00
 -0.6700000      0.0000000E+00
 -0.6600000      0.0000000E+00
 -0.6500000      0.0000000E+00
 -0.6400000      0.0000000E+00
 -0.6300000      0.0000000E+00
 -0.6200000      0.0000000E+00
 -0.6100000      0.0000000E+00
 -0.6000000      0.0000000E+00
 -0.5900000      0.0000000E+00
 -0.5800000      0.0000000E+00
 -0.5700000      0.0000000E+00
 -0.5600000      0.0000000E+00
 -0.5500000      0.0000000E+00
 -0.5400000      0.0000000E+00
 -0.5300000      0.0000000E+00
 -0.5200000      0.0000000E+00
 -0.5100000      0.0000000E+00
 -0.5000000      0.0000000E+00
 -0.4900000      0.0000000E+00
 -0.4800000      0.0000000E+00
 -0.4700000      0.0000000E+00
 -0.4600000      0.0000000E+00
 -0.4500000      0.0000000E+00
 -0.4400000      0.0000000E+00
 -0.4300000      0.0000000E+00
 -0.4200000      0.0000000E+00
 -0.4100000      0.0000000E+00
 -0.4000000      0.0000000E+00
 -0.3900000      0.0000000E+00
 -0.3800000      0.0000000E+00
 -0.3700000      0.0000000E+00
 -0.3600000      0.0000000E+00
 -0.3500000      0.0000000E+00
 -0.3400000      0.0000000E+00
 -0.3300000      0.0000000E+00
 -0.3200000      0.0000000E+00
 -0.3100000      0.0000000E+00
 -0.3000000      0.0000000E+00
 -0.2900000      0.0000000E+00
 -0.2800000      0.0000000E+00
 -0.2700000      0.0000000E+00
 -0.2600000      0.0000000E+00
 -0.2500000      0.0000000E+00
 -0.2400000      0.0000000E+00
 -0.2300000      0.0000000E+00
 -0.2200000      0.0000000E+00
 -0.2100000      0.0000000E+00
 -0.2000000      0.0000000E+00
 -0.1900000      0.0000000E+00
 -0.1800000      0.0000000E+00
 -0.1700000      0.0000000E+00
 -0.1600000      0.0000000E+00
 -0.1500000      0.0000000E+00
 -0.1400000      0.0000000E+00
 -0.1300000      0.0000000E+00
 -0.1200000      0.0000000E+00
 -0.1100000      0.0000000E+00
 -0.1000000      0.0000000E+00
 -9.0000004E-02  0.0000000E+00
 -7.9999998E-02  0.0000000E+00
 -7.0000000E-02  0.0000000E+00
 -5.9999999E-02  0.0000000E+00
 -5.0000001E-02  0.0000000E+00
 -3.9999999E-02  0.0000000E+00
 -2.9999999E-02  0.0000000E+00
 -2.0000000E-02  0.0000000E+00
 -9.9999998E-03  0.0000000E+00
 -3.4694470E-17  0.0000000E+00
  9.9999998E-03  0.0000000E+00
  2.0000000E-02  0.0000000E+00
  2.9999999E-02  0.0000000E+00
  3.9999999E-02  0.0000000E+00
  5.0000001E-02  0.0000000E+00
  5.9999999E-02  0.0000000E+00
  7.0000000E-02  0.0000000E+00
  7.9999998E-02  0.0000000E+00
  9.0000004E-02  0.0000000E+00
  0.1000000      0.0000000E+00
  0.1100000      0.0000000E+00
  0.1200000      0.0000000E+00
  0.1300000      0.0000000E+00
  0.1400000      0.0000000E+00
  0.1500000      0.0000000E+00
  0.1600000      0.0000000E+00
  0.1700000      0.0000000E+00
  0.1800000      0.0000000E+00
  0.1900000      0.0000000E+00
  0.2000000      0.0000000E+00
  0.2100000      0.0000000E+00
  0.2200000      0.0000000E+00
  0.2300000      0.0000000E+00
  0.2400000      0.0000000E+00
  0.2500000      0.0000000E+00
  0.2600000      0.0000000E+00
  0.2700000      0.0000000E+00
  0.2800000      0.0000000E+00
  0.2900000      0.0000000E+00
  0.3000000      0.0000000E+00
  0.3100000      0.0000000E+00
  0.3200000      0.0000000E+00
  0.3300000      0.0000000E+00
  0.3400000      0.0000000E+00
  0.3500000      0.0000000E+00
  0.3600000      0.0000000E+00
  0.3700000      0.0000000E+00
  0.3800000      0.0000000E+00
  0.3900000      0.0000000E+00
  0.4000000      0.0000000E+00
  0.4100000      0.0000000E+00
  0.4200000      0.0000000E+00
  0.4300000      0.0000000E+00
  0.4400000      0.0000000E+00
  0.4500000      0.0000000E+00
  0.4600000      0.0000000E+00
  0.4700000      0.0000000E+00
  0.4800000      0.0000000E+00
  0.4900000      0.0000000E+00
  0.5000000      0.0000000E+00
  0.5100000      0.0000000E+00
  0.5200000      0.0000000E+00
  0.5300000      0.0000000E+00
  0.5400000      0.0000000E+00
  0.5500000      0.0000000E+00
  0.5600000      0.0000000E+00
  0.5700000      0.0000000E+00
  0.5800000      0.0000000E+00
  0.5900000      0.0000000E+00
  0.6000000      0.0000000E+00
  0.6100000      0.0000000E+00
  0.6200000      0.0000000E+00
  0.6300000      0.0000000E+00
  0.6400000      0.0000000E+00
  0.6500000      0.0000000E+00
  0.6600000      0.0000000E+00
  0.6700000      0.0000000E+00
  0.6800000      0.0000000E+00
  0.6900000      0.0000000E+00
  0.7000000      0.0000000E+00
  0.7100000      0.0000000E+00
  0.7200000      0.0000000E+00
  0.7300000      0.0000000E+00
  0.7400000      0.0000000E+00
  0.7500000      0.0000000E+00
  0.7600000      0.0000000E+00
  0.7700000      0.0000000E+00
  0.7800000      0.0000000E+00
  0.7900000      0.0000000E+00
  0.8000000      0.0000000E+00
  0.8100000      0.0000000E+00
  0.8200000      0.0000000E+00
  0.8300000      0.0000000E+00
  0.8400000      0.0000000E+00
  0.8500000      0.0000000E+00
  0.8600000      0.0000000E+00
  0.8700000      0.0000000E+00
  0.8800000      0.0000000E+00
  0.8900000      0.0000000E+00
  0.9000000      0.0000000E+00
  0.9100000      0.0000000E+00
  0.9200000      0.0000000E+00
  0.9300000      0.0000000E+00
  0.9400000      0.0000000E+00
  0.9500000      0.0000000E+00
  0.9600000      0.0000000E+00
  0.9700000      0.0000000E+00
  0.9800000      0.0000000E+00
  0.9900000      0.0000000E+00
   1.000000      0.0000000E+00
   1.010000      0.0000000E+00
   1.020000      0.0000000E+00
   1.030000      0.0000000E+00
   1.040000      0.0000000E+00
   1.050000      0.0000000E+00
   1.060000      0.0000000E+00
   1.070000      0.0000000E+00
   1.080000      0.0000000E+00
   1.090000      0.0000000E+00
   1.100000      0.0000000E+00
   1.110000      0.0000000E+00
   1.120000      0.0000000E+00
   1.130000      0.0000000E+00
   1.140000      0.0000000E+00
   1.150000      0.0000000E+00
   1.160000      0.0000000E+00
   1.170000      0.0000000E+00
   1.180000      0.0000000E+00
   1.190000      0.0000000E+00
   1.200000      0.0000000E+00
   1.210000      0.0000000E+00
   1.220000      0.0000000E+00
   1.230000      0.0000000E+00
   1.240000      0.0000000E+00
   1.250000      0.0000000E+00
   1.260000      0.0000000E+00
   1.270000      0.0000000E+00
   1.280000      0.0000000E+00
   1.290000      0.0000000E+00
   1.300000      0.0000000E+00
   1.310000      0.0000000E+00
   1.320000      0.0000000E+00
   1.330000      0.0000000E+00
   1.340000      0.0000000E+00
   1.350000      0.0000000E+00
   1.360000      0.0000000E+00
   1.370000      0.0000000E+00
   1.380000      0.0000000E+00
   1.390000      0.0000000E+00
   1.400000      0.0000000E+00
   1.410000      0.0000000E+00
   1.420000      0.0000000E+00
   1.430000      0.0000000E+00
   1.440000      0.0000000E+00
   1.450000      0.0000000E+00
   1.460000      0.0000000E+00
   1.470000      0.0000000E+00
   1.480000      0.0000000E+00
   1.490000      0.0000000E+00
   1.500000      0.0000000E+00
   1.510000      0.0000000E+00
   1.520000      0.0000000E+00
   1.530000      0.0000000E+00
   1.540000      0.0000000E+00
   1.550000      0.0000000E+00
   1.560000      0.0000000E+00
   1.570000      0.0000000E+00
   1.580000      0.0000000E+00
   1.590000      0.0000000E+00
   1.600000      0.0000000E+00
   1.610000      0.0000000E+00
   1.620000      0.0000000E+00
   1.630000      0.0000000E+00
   1.640000      0.0000000E+00
   1.650000      0.0000000E+00
   1.660000      0.0000000E+00
   1.670000      0.0000000E+00
   1.680000      0.0000000E+00
   1.690000      0.0000000E+00
   1.700000      0.0000000E+00
   1.710000      0.0000000E+00
   1.720000      0.0000000E+00
   1.730000      0.0000000E+00
   1.740000      0.0000000E+00
   1.750000      0.0000000E+00
   1.760000      0.0000000E+00
   1.770000      0.0000000E+00
   1.780000      0.0000000E+00
   1.790000      0.0000000E+00
   1.800000      0.0000000E+00
   1.810000      0.0000000E+00
   1.820000      0.0000000E+00
   1.830000      0.0000000E+00
   1.840000      0.0000000E+00
   1.850000      0.0000000E+00
   1.860000      0.0000000E+00
   1.870000      0.0000000E+00
   1.880000      0.0000000E+00
   1.890000      0.0000000E+00
   1.900000      0.0000000E+00
   1.910000      0.0000000E+00
   1.920000      0.0000000E+00
   1.930000      0.0000000E+00
   1.940000      0.0000000E+00
   1.950000      0.0000000E+00
   1.960000      0.0000000E+00
   1.970000      0.0000000E+00
   1.980000      0.0000000E+00
   1.990000      0.0000000E+00
   2.000000      0.0000000E+00
   2.010000      0.0000000E+00
   2.020000      0.0000000E+00
   2.030000      0.0000000E+00
   2.040000      0.0000000E+00
   2.050000      0.0000000E+00
   2.060000      0.0000000E+00
   2.070000      0.0000000E+00
   2.080000      0.0000000E+00
   2.090000      0.0000000E+00
   2.100000      0.0000000E+00
   2.110000      0.0000000E+00
   2.120000      0.0000000E+00
   2.130000      0.0000000E+00
   2.140000      0.0000000E+00
   2.150000      0.0000000E+00
   2.160000      0.0000000E+00
   2.170000      0.0000000E+00
   2.180000      0.0000000E+00
   2.190000      0.0000000E+00
   2.200000      0.0000000E+00
   2.210000      0.0000000E+00
   2.220000      0.0000000E+00
   2.230000      0.0000000E+00
   2.240000      0.0000000E+00
   2.250000      0.0000000E+00
   2.260000      0.0000000E+00
   2.270000      0.0000000E+00
   2.280000      0.0000000E+00
   2.290000      0.0000000E+00
   2.300000      0.0000000E+00
   2.310000      0.0000000E+00
   2.320000      0.0000000E+00
   2.330000      0.0000000E+00
   2.340000      0.0000000E+00
   2.350000      0.0000000E+00
   2.360000      0.0000000E+00
   2.370000      0.0000000E+00
   2.380000      0.0000000E+00
   2.390000      0.0000000E+00
   2.400000     -1.2097665E-38
   2.410000     -1.4601293E-38
   2.420000     -1.6631849E-38
   2.430000     -1.8803060E-38
   2.440000     -2.1233532E-38
   2.450000     -2.4158851E-38
   2.460000     -2.7654087E-38
   2.470000     -3.1630622E-38
   2.480000     -3.6103796E-38
   2.490000     -4.1047701E-38
   2.500000     -4.6460771E-38
   2.510000     -5.2346474E-38
   2.520000     -5.8678129E-38
   2.530000     -6.5865265E-38
   2.540000     -7.3535295E-38
   2.550000     -8.0956409E-38
   2.560000     -8.8121220E-38
   2.570000     -9.4166169E-38
   2.580000     -9.8901056E-38
   2.590000     -1.0288970E-37
   2.600000     -1.0476465E-37
   2.610000     -1.0436838E-37
   2.620000     -1.0286870E-37
   2.630000     -1.0033235E-37
   2.640000     -9.6624092E-38
   2.650000     -9.1013130E-38
   2.660000     -8.4083334E-38
   2.670000     -7.6990336E-38
   2.680000     -6.8914653E-38
   2.690000     -5.9496465E-38
   2.700000     -4.8878339E-38
   2.710000     -3.5205407E-38
   2.720000     -1.8430969E-38
   2.730000      0.0000000E+00
   2.740000      2.0502262E-38
   2.750000      4.3226549E-38
   2.760000      6.7685345E-38
   2.770000      9.5407563E-38
   2.780000      1.2701749E-37
   2.790000      1.6105651E-37
   2.800000      1.9725213E-37
   2.810000      2.3194368E-37
   2.820000      2.6526885E-37
   2.830000      3.0053144E-37
   2.840000      3.3589582E-37
   2.850000      3.7060984E-37
   2.860000      4.0611975E-37
   2.870000      4.4157242E-37
   2.880000      4.7545644E-37
   2.890000      5.0760093E-37
   2.900000      5.3783001E-37
   2.910000      5.7016238E-37
   2.920000      6.0176585E-37
   2.930000      6.2215916E-37
   2.940000      6.3239595E-37
   2.950000      6.3797106E-37
   2.960000      6.3456436E-37
   2.970000      6.1877695E-37
   2.980000      5.9830875E-37
   2.990000      5.7309251E-37
   3.000000      5.3696085E-37
   3.010000      4.7856217E-37
   3.020000      3.9563620E-37
   3.030000      2.9653449E-37
   3.040000      1.8539101E-37
   3.050000      5.8151285E-38
   3.060000     -1.0988527E-37
   3.070000     -3.1590308E-37
   3.080000     -6.3434970E-37
   3.090000     -1.0720939E-36
   3.100000     -1.5359811E-36
   3.110000     -2.0226994E-36
   3.120000     -2.5369402E-36
   3.130000     -3.0689131E-36
   3.140000     -3.6121049E-36
   3.150000     -4.1633185E-36
   3.160000     -4.5069794E-36
   3.170000     -4.5901390E-36
   3.180000     -4.6064857E-36
   3.190000     -4.5851157E-36
   3.200000     -4.5223888E-36
   3.210000     -4.4321493E-36
   3.220000     -4.3262974E-36
   3.230000     -4.2652444E-36
   3.240000     -4.2782262E-36
   3.250000     -4.3196903E-36
   3.260000     -4.3689435E-36
   3.270000     -4.2727308E-36
   3.280000     -3.9988235E-36
   3.290000     -3.6405359E-36
   3.300000     -3.1528891E-36
   3.310000     -2.5159043E-36
   3.320000     -1.7246251E-36
   3.330000     -9.5964138E-37
   3.340000     -2.2746103E-37
   3.350000      6.7006981E-37
   3.360000      1.7027795E-36
   3.370000      2.7478120E-36
   3.380000      3.8294548E-36
   3.390000      4.9889988E-36
   3.400000      6.1684791E-36
   3.410000      7.3798187E-36
   3.420000      8.6152995E-36
   3.430000      9.9035256E-36
   3.440000      1.1258667E-35
   3.450000      1.2500610E-35
   3.460000      1.3685539E-35
   3.470000      1.5033060E-35
   3.480000      1.6516516E-35
   3.490000      1.8102917E-35
   3.500000      1.9695970E-35
   3.510000      2.1294690E-35
   3.520000      2.2958208E-35
   3.530000      2.4586541E-35
   3.540000      2.6159439E-35
   3.550000      2.7731748E-35
   3.560000      2.9259044E-35
   3.570000      3.0686375E-35
   3.580000      3.2022357E-35
   3.590000      3.3186166E-35
   3.600000      3.4089345E-35
   3.610000      3.4855373E-35
   3.620000      3.5315452E-35
   3.630000      3.5171520E-35
   3.640000      3.4664221E-35
   3.650000      3.3835064E-35
   3.660000      3.2405036E-35
   3.670000      3.0396625E-35
   3.680000      2.7630092E-35
   3.690000      2.3337119E-35
   3.700000      1.7728200E-35
   3.710000      1.1604639E-35
   3.720000      5.0204830E-36
   3.730000     -2.2449440E-36
   3.740000     -1.0321749E-35
   3.750000     -1.8726624E-35
   3.760000     -2.7019805E-35
   3.770000     -3.5615427E-35
   3.780000     -4.4904857E-35
   3.790000     -5.4492457E-35
   3.800000     -6.4147548E-35
   3.810000     -7.4110448E-35
   3.820000     -8.4342833E-35
   3.830000     -9.4710022E-35
   3.840000     -1.0510149E-34
   3.850000     -1.1550434E-34
   3.860000     -1.2588545E-34
   3.870000     -1.3610417E-34
   3.880000     -1.4588644E-34
   3.890000     -1.5521070E-34
   3.900000     -1.6484140E-34
   3.910000     -1.7440717E-34
   3.920000     -1.8357584E-34
   3.930000     -1.9270843E-34
   3.940000     -2.0193234E-34
   3.950000     -2.1129086E-34
   3.960000     -2.2063827E-34
   3.970000     -2.2970753E-34
   3.980000     -2.3783084E-34
   3.990000     -2.4491023E-34
   4.000000     -2.4803923E-34
   4.010000     -2.4701443E-34
   4.020000     -2.4405859E-34
   4.030000     -2.3999159E-34
   4.040000     -2.3160898E-34
   4.050000     -2.1248344E-34
   4.060000     -1.8508514E-34
   4.070000     -1.5614111E-34
   4.080000     -1.2539220E-34
   4.090000     -9.0159510E-35
   4.100000     -4.8865668E-35
   4.110000     -7.2511084E-36
   4.120000      3.2880101E-35
   4.130000      7.8260207E-35
   4.140000      1.3021835E-34
   4.150000      1.8061867E-34
   4.160000      2.2550475E-34
   4.170000      2.6983243E-34
   4.180000      3.1477245E-34
   4.190000      3.6086228E-34
   4.200000      4.0836444E-34
   4.210000      4.5803463E-34
   4.220000      5.1003864E-34
   4.230000      5.6567773E-34
   4.240000      6.2469159E-34
   4.250000      6.8584576E-34
   4.260000      7.4620588E-34
   4.270000      8.0554341E-34
   4.280000      8.6630618E-34
   4.290000      9.2556644E-34
   4.300000      9.8564926E-34
   4.310000      1.0493254E-33
   4.320000      1.1156618E-33
   4.330000      1.1848404E-33
   4.340000      1.2545532E-33
   4.350000      1.3206536E-33
   4.360000      1.3781576E-33
   4.370000      1.4279422E-33
   4.380000      1.4798933E-33
   4.390000      1.5321584E-33
   4.400000      1.5692850E-33
   4.410000      1.5924407E-33
   4.420000      1.6112233E-33
   4.430000      1.6184715E-33
   4.440000      1.6095543E-33
   4.450000      1.5862751E-33
   4.460000      1.5477297E-33
   4.470000      1.4911780E-33
   4.480000      1.4140306E-33
   4.490000      1.3175648E-33
   4.500000      1.2020517E-33
   4.510000      1.0672130E-33
   4.520000      9.1306358E-34
   4.530000      7.3838756E-34
   4.540000      5.4295409E-34
   4.550000      3.3101377E-34
   4.560000      1.0055523E-34
   4.570000     -1.5287977E-34
   4.580000     -4.2434735E-34
   4.590000     -7.1139003E-34
   4.600000     -1.0159443E-33
   4.610000     -1.3375807E-33
   4.620000     -1.6759956E-33
   4.630000     -2.0307458E-33
   4.640000     -2.4007479E-33
   4.650000     -2.7864836E-33
   4.660000     -3.1880968E-33
   4.670000     -3.6042269E-33
   4.680000     -4.0341853E-33
   4.690000     -4.4771465E-33
   4.700000     -4.9320367E-33
   4.710000     -5.3971350E-33
   4.720000     -5.8709040E-33
   4.730000     -6.3523215E-33
   4.740000     -6.8410127E-33
   4.750000     -7.3317735E-33
   4.760000     -7.8206425E-33
   4.770000     -8.3067873E-33
   4.780000     -8.7860261E-33
   4.790000     -9.2544613E-33
   4.800000     -9.7077496E-33
   4.810000     -1.0141248E-32
   4.820000     -1.0550500E-32
   4.830000     -1.0929928E-32
   4.840000     -1.1273717E-32
   4.850000     -1.1576581E-32
   4.860000     -1.1832757E-32
   4.870000     -1.2035631E-32
   4.880000     -1.2180364E-32
   4.890000     -1.2261418E-32
   4.900000     -1.2271382E-32
   4.910000     -1.2204653E-32
   4.920000     -1.2055456E-32
   4.930000     -1.1817924E-32
   4.940000     -1.1486487E-32
   4.950000     -1.1055496E-32
   4.960000     -1.0519403E-32
   4.970000     -9.8732224E-33
   4.980000     -9.1130986E-33
   4.990000     -8.2351240E-33
   5.000000     -7.2316552E-33
   5.010000     -6.0973395E-33
   5.020000     -4.8303028E-33
   5.030000     -3.4275127E-33
   5.040000     -1.8852016E-33
   5.050000     -2.0001734E-34
   5.060000      1.6298771E-33
   5.070000      3.6063292E-33
   5.080000      5.7306268E-33
   5.090000      8.0035678E-33
   5.100000      1.0425193E-32
   5.110000      1.2994755E-32
   5.120000      1.5710767E-32
   5.130000      1.8570815E-32
   5.140000      2.1572161E-32
   5.150000      2.4709670E-32
   5.160000      2.7977065E-32
   5.170000      3.1368173E-32
   5.180000      3.4874878E-32
   5.190000      3.8487660E-32
   5.200000      4.2195622E-32
   5.210000      4.5986379E-32
   5.220000      4.9845892E-32
   5.230000      5.3758554E-32
   5.240000      5.7707134E-32
   5.250000      6.1672728E-32
   5.260000      6.5634809E-32
   5.270000      6.9571034E-32
   5.280000      7.3457377E-32
   5.290000      7.7268218E-32
   5.300000      8.0976291E-32
   5.310000      8.4552697E-32
   5.320000      8.7966856E-32
   5.330000      9.1186729E-32
   5.340000      9.4178756E-32
   5.350000      9.6907954E-32
   5.360000      9.9337713E-32
   5.370000      1.0143070E-31
   5.380000      1.0314837E-31
   5.390000      1.0445050E-31
   5.400000      1.0529616E-31
   5.410000      1.0564349E-31
   5.420000      1.0544984E-31
   5.430000      1.0467172E-31
   5.440000      1.0326556E-31
   5.450000      1.0118745E-31
   5.460000      9.8392839E-32
   5.470000      9.4837397E-32
   5.480000      9.0476966E-32
   5.490000      8.5267874E-32
   5.500000      7.9167088E-32
   5.510000      7.2133541E-32
   5.520000      6.4125262E-32
   5.530000      5.5101750E-32
   5.540000      4.5026485E-32
   5.550000      3.3863353E-32
   5.560000      2.1580157E-32
   5.570000      8.1475563E-33
   5.580000     -6.4619180E-33
   5.590000     -2.2271427E-32
   5.600000     -3.9300082E-32
   5.610000     -5.7562507E-32
   5.620000     -7.7068401E-32
   5.630000     -9.7822130E-32
   5.640000     -1.1982222E-31
   5.650000     -1.4306098E-31
   5.660000     -1.6752397E-31
   5.670000     -1.9318959E-31
   5.680000     -2.2002863E-31
   5.690000     -2.4800375E-31
   5.700000     -2.7706912E-31
   5.710000     -3.0716993E-31
   5.720000     -3.3824201E-31
   5.730000     -3.7021125E-31
   5.740000     -4.0299332E-31
   5.750000     -4.3649340E-31
   5.760000     -4.7060554E-31
   5.770000     -5.0521252E-31
   5.780000     -5.4018531E-31
   5.790000     -5.7538300E-31
   5.800000     -6.1065248E-31
   5.810000     -6.4582798E-31
   5.820000     -6.8073104E-31
   5.830000     -7.1517029E-31
   5.840000     -7.4894131E-31
   5.850000     -7.8182656E-31
   5.860000     -8.1359538E-31
   5.870000     -8.4400391E-31
   5.880000     -8.7279534E-31
   5.890000     -8.9969987E-31
   5.900000     -9.2443490E-31
   5.910000     -9.4670572E-31
   5.920000     -9.6620520E-31
   5.930000     -9.8261491E-31
   5.940000     -9.9560544E-31
   5.950000     -1.0048366E-30
   5.960000     -1.0099591E-30
   5.970000     -1.0106142E-30
   5.980000     -1.0064356E-30
   5.990000     -9.9705017E-31
   6.000000     -9.8207889E-31
   6.010000     -9.6113863E-31
   6.020000     -9.3384318E-31
   6.030000     -8.9980453E-31
   6.040000     -8.5863533E-31
   6.050000     -8.0994984E-31
   6.060000     -7.5336624E-31
   6.070000     -6.8850848E-31
   6.080000     -6.1500863E-31
   6.090000     -5.3250910E-31
   6.100000     -4.4066490E-31
   6.110000     -3.3914641E-31
   6.120000     -2.2764200E-31
   6.130000     -1.0586060E-31
   6.140000      2.6465230E-32
   6.150000      1.6957617E-31
   6.160000      3.2368323E-31
   6.170000      4.8896423E-31
   6.180000      6.6556053E-31
   6.190000      8.5357384E-31
   6.200000      1.0530624E-30
   6.210000      1.2640372E-30
   6.220000      1.4864590E-30
   6.230000      1.7202335E-30
   6.240000      1.9652088E-30
   6.250000      2.2211699E-30
   6.260000      2.4878364E-30
   6.270000      2.7648577E-30
   6.280000      3.0518096E-30
   6.290000      3.3481897E-30
   6.300000      3.6534142E-30
   6.310000      3.9668138E-30
   6.320000      4.2876301E-30
   6.330000      4.6150126E-30
   6.340000      4.9480131E-30
   6.350000      5.2855850E-30
   6.360000      5.6265784E-30
   6.370000      5.9697381E-30
   6.380000      6.3137009E-30
   6.390000      6.6569911E-30
   6.400000      6.9980207E-30
   6.410000      7.3350878E-30
   6.420000      7.6663725E-30
   6.430000      7.9899385E-30
   6.440000      8.3037312E-30
   6.450000      8.6055756E-30
   6.460000      8.8931809E-30
   6.470000      9.1641382E-30
   6.480000      9.4159219E-30
   6.490000      9.6458922E-30
   6.500000      9.8512987E-30
   6.510000      1.0029281E-29
   6.520000      1.0176877E-29
   6.530000      1.0291022E-29
   6.540000      1.0368558E-29
   6.550000      1.0406238E-29
   6.560000      1.0400738E-29
   6.570000      1.0348657E-29
   6.580000      1.0246529E-29
   6.590000      1.0090838E-29
   6.600000      9.8780232E-30
   6.610000      9.6044900E-30
   6.620000      9.2666277E-30
   6.630000      8.8608207E-30
   6.640000      8.3834625E-30
   6.650000      7.8309733E-30
   6.660000      7.1998190E-30
   6.670000      6.4865253E-30
   6.680000      5.6876999E-30
   6.690000      4.8000539E-30
   6.700000      3.8204217E-30
   6.710000      2.7457842E-30
   6.720000      1.5732961E-30
   6.730000      3.0030650E-31
   6.740000     -1.0756123E-30
   6.750000     -2.5566380E-30
   6.760000     -4.1446693E-30
   6.770000     -5.8412989E-30
   6.780000     -7.6477790E-30
   6.790000     -9.5649896E-30
   6.800000     -1.1593412E-29
   6.810000     -1.3733093E-29
   6.820000     -1.5983615E-29
   6.830000     -1.8344052E-29
   6.840000     -2.0812947E-29
   6.850000     -2.3388274E-29
   6.860000     -2.6067393E-29
   6.870000     -2.8847033E-29
   6.880000     -3.1723244E-29
   6.890000     -3.4691358E-29
   6.900000     -3.7745973E-29
   6.910000     -4.0880899E-29
   6.920000     -4.4089144E-29
   6.930000     -4.7362854E-29
   6.940000     -5.0693317E-29
   6.950000     -5.4070898E-29
   6.960000     -5.7485037E-29
   6.970000     -6.0924206E-29
   6.980000     -6.4375906E-29
   6.990000     -6.7826600E-29
   7.000000     -7.1261749E-29
   7.010000     -7.4665752E-29
   7.020000     -7.8021938E-29
   7.030000     -8.1312582E-29
   7.040000     -8.4518858E-29
   7.050000     -8.7620875E-29
   7.060000     -9.0597646E-29