  -2.600000      0.0000000E+00
  -2.590000      0.0000000E+00
  -2.580000      0.0000000E+00
  -2.570000      0.0000000E+00
  -2.560000      0.0000000E+00
  -2.550000      0.0000000E+00
  -2.540000      0.0000000E+00
  -2.530000      0.0000000E+00
  -2.520000      0.0000000E+00
  -2.510000      0.0000000E+00
  -2.500000      0.0000000E+00
  -2.490000      0.0000000E+00
  -2.480000      0.0000000E+00
  -2.470000      0.0000000E+00
  -2.460000      0.0000000E+00
  -2.450000      0.0000000E+00
  -2.440000      0.0000000E+00
  -2.430000      0.0000000E+00
  -2.420000      0.0000000E+00
  -2.410000      0.0000000E+00
  -2.400000      0.0000000E+00
  -2.390000      0.0000000E+00
  -2.380000      0.0000000E+00
  -2.370000      0.0000000E+00
  -2.360000      0.0000000E+00
  -2.350000      0.0000000E+00
  -2.340000      0.0000000E+00
  -2.330000      0.0000000E+00
  -2.320000      0.0000000E+00
  -2.310000      0.0000000E+00
  -2.300000      0.0000000E+00
  -2.290000      0.0000000E+00
  -2.280000      0.0000000E+00
  -2.270000      0.0000000E+00
  -2.260000      0.0000000E+00
  -2.250000      0.0000000E+00
  -2.240000      0.0000000E+00
  -2.230000      0.0000000E+00
  -2.220000      0.0000000E+00
  -2.210000      0.0000000E+00
  -2.200000      0.0000000E+00
  -2.190000      0.0000000E+00
  -2.180000      0.0000000E+00
  -2.170000      0.0000000E+00
  -2.160000      0.0000000E+00
  -2.150000      0.0000000E+00
  -2.140000      0.0000000E+00
  -2.130000      0.0000000E+00
  -2.120000      0.0000000E+00
  -2.110000      0.0000000E+00
  -2.100000      0.0000000E+00
  -2.090000      0.0000000E+00
  -2.080000      0.0000000E+00
  -2.070000      0.0000000E+00
  -2.060000      0.0000000E+00
  -2.050000      0.0000000E+00
  -2.040000      0.0000000E+00
  -2.030000      0.0000000E+00
  -2.020000      0.0000000E+00
  -2.010000      0.0000000E+00
  -2.000000      0.0000000E+00
  -1.990000      0.0000000E+00
  -1.980000      0.0000000E+00
  -1.970000      0.0000000E+00
  -1.960000      0.0000000E+00
  -1.950000      0.0000000E+00
  -1.940000      0.0000000E+00
  -1.930000      0.0000000E+00
  -1.920000      0.0000000E+00
  -1.910000      0.0000000E+00
  -1.900000      0.0000000E+00
  -1.890000      0.0000000E+00
  -1.880000      0.0000000E+00
  -1.870000      0.0000000E+00
  -1.860000      0.0000000E+00
  -1.850000      0.0000000E+00
  -1.840000      0.0000000E+00
  -1.830000      0.0000000E+00
  -1.820000      0.0000000E+00
  -1.810000      0.0000000E+00
  -1.800000      0.0000000E+00
  -1.790000      0.0000000E+00
  -1.780000      0.0000000E+00
  -1.770000      0.0000000E+00
  -1.760000      0.0000000E+00
  -1.750000      0.0000000E+00
  -1.740000      0.0000000E+00
  -1.730000      0.0000000E+00
  -1.720000      0.0000000E+00
  -1.710000      0.0000000E+00
  -1.700000      0.0000000E+00
  -1.690000      0.0000000E+00
  -1.680000      0.0000000E+00
  -1.670000      0.0000000E+00
  -1.660000      0.0000000E+00
  -1.650000      0.0000000E+00
  -1.640000      0.0000000E+00
  -1.630000      0.0000000E+00
  -1.620000      0.0000000E+00
  -1.610000      0.0000000E+00
  -1.600000      0.0000000E+00
  -1.590000      0.0000000E+00
  -1.580000      0.0000000E+00
  -1.570000      0.0000000E+00
  -1.560000      0.0000000E+00
  -1.550000      0.0000000E+00
  -1.540000      0.0000000E+00
  -1.530000      0.0000000E+00
  -1.520000      0.0000000E+00
  -1.510000      0.0000000E+00
  -1.500000      0.0000000E+00
  -1.490000      0.0000000E+00
  -1.480000      0.0000000E+00
  -1.470000      0.0000000E+00
  -1.460000      0.0000000E+00
  -1.450000      0.0000000E+00
  -1.440000      0.0000000E+00
  -1.430000      0.0000000E+00
  -1.420000      0.0000000E+00
  -1.410000      0.0000000E+00
  -1.400000      0.0000000E+00
  -1.390000      0.0000000E+00
  -1.380000      0.0000000E+00
  -1.370000      0.0000000E+00
  -1.360000      0.0000000E+00
  -1.350000      0.0000000E+00
  -1.340000      0.0000000E+00
  -1.330000      0.0000000E+00
  -1.320000      0.0000000E+00
  -1.310000      0.0000000E+00
  -1.300000      0.0000000E+00
  -1.290000      0.0000000E+00
  -1.280000      0.0000000E+00
  -1.270000      0.0000000E+00
  -1.260000      0.0000000E+00
  -1.250000      0.0000000E+00
  -1.240000      0.0000000E+00
  -1.230000      0.0000000E+00
  -1.220000      0.0000000E+00
  -1.210000      0.0000000E+00
  -1.200000      0.0000000E+00
  -1.190000      0.0000000E+00
  -1.180000      0.0000000E+00
  -1.170000      0.0000000E+00
  -1.160000      0.0000000E+00
  -1.150000      0.0000000E+00
  -1.140000      0.0000000E+00
  -1.130000      0.0000000E+00
  -1.120000      0.0000000E+00
  -1.110000      0.0000000E+00
  -1.100000      0.0000000E+00
  -1.090000      0.0000000E+00
  -1.080000      0.0000000E+00
  -1.070000      0.0000000E+00
  -1.060000      0.0000000E+00
  -1.050000      0.0000000E+00
  -1.040000      0.0000000E+00
  -1.030000      0.0000000E+00
  -1.020000      0.0000000E+00
  -1.010000      0.0000000E+00
  -1.000000      0.0000000E+00
 -0.9900000      0.0000000E+00
 -0.9800000      0.0000000E+00
 -0.9700000      0.0000000E+00
 -0.9600000      0.0000000E+00
 -0.9500000      0.0000000E+00
 -0.9400000      0.0000000E+00
 -0.9300000      0.0000000E+00
 -0.9200000      0.0000000E+00
 -0.9100000      0.0000000E+00
 -0.9000000      0.0000000E+00
 -0.8900000      0.0000000E+00
 -0.8800000      0.0000000E+00
 -0.8700000      0.0000000E+00
 -0.8600000      0.0000000E+00
 -0.8500000      0.0000000E+00
 -0.8400000      0.0000000E+00
 -0.8300000      0.0000000E+00
 -0.8200000      0.0000000E+00
 -0.8100000      0.0000000E+00
 -0.8000000      0.0000000E+00
 -0.7900000      0.0000000E+00
 -0.7800000      0.0000000E+00
 -0.7700000      0.0000000E+00
 -0.7600000      0.0000000E+00
 -0.7500000      0.0000000E+00
 -0.7400000      0.0000000E+00
 -0.7300000      0.0000000E+00
 -0.7200000      0.0000000E+00
 -0.7100000      0.0000000E+00
 -0.7000000      0.0000000E+00
 -0.6900000      0.0000000E+00
 -0.6800000      0.0000000E+00
 -0.6700000      0.0000000E+00
 -0.6600000      0.0000000E+00
 -0.6500000      0.0000000E+00
 -0.6400000      0.0000000E+00
 -0.6300000      0.0000000E+00
 -0.6200000      0.0000000E+00
 -0.6100000      0.0000000E+00
 -0.6000000      0.0000000E+00
 -0.5900000      0.0000000E+00
 -0.5800000      0.0000000E+00
 -0.5700000      0.0000000E+00
 -0.5600000      0.0000000E+00
 -0.5500000      0.0000000E+00
 -0.5400000      0.0000000E+00
 -0.5300000      0.0000000E+00
 -0.5200000      0.0000000E+00
 -0.5100000      0.0000000E+00
 -0.5000000      0.0000000E+00
 -0.4900000      0.0000000E+00
 -0.4800000      0.0000000E+00
 -0.4700000      0.0000000E+00
 -0.4600000      0.0000000E+00
 -0.4500000      0.0000000E+00
 -0.4400000      0.0000000E+00
 -0.4300000      0.0000000E+00
 -0.4200000      0.0000000E+00
 -0.4100000      0.0000000E+00
 -0.4000000      0.0000000E+00
 -0.3900000      0.0000000E+00
 -0.3800000      0.0000000E+00
 -0.3700000      0.0000000E+00
 -0.3600000      0.0000000E+00
 -0.3500000      0.0000000E+00
 -0.3400000      0.0000000E+00
 -0.3300000      0.0000000E+00
 -0.3200000      0.0000000E+00
 -0.3100000      0.0000000E+00
 -0.3000000      0.0000000E+00
 -0.2900000      0.0000000E+00
 -0.2800000      0.0000000E+00
 -0.2700000      0.0000000E+00
 -0.2600000      0.0000000E+00
 -0.2500000      0.0000000E+00
 -0.2400000      0.0000000E+00
 -0.2300000      0.0000000E+00
 -0.2200000      0.0000000E+00
 -0.2100000      0.0000000E+00
 -0.2000000      0.0000000E+00
 -0.1900000      0.0000000E+00
 -0.1800000      0.0000000E+00
 -0.1700000      0.0000000E+00
 -0.1600000      0.0000000E+00
 -0.1500000      0.0000000E+00
 -0.1400000      0.0000000E+00
 -0.1300000      0.0000000E+00
 -0.1200000      0.0000000E+00
 -0.1100000      0.0000000E+00
 -0.1000000      0.0000000E+00
 -9.0000004E-02  0.0000000E+00
 -7.9999998E-02  0.0000000E+00
 -7.0000000E-02  0.0000000E+00
 -5.9999999E-02  0.0000000E+00
 -5.0000001E-02  0.0000000E+00
 -3.9999999E-02  0.0000000E+00
 -2.9999999E-02  0.0000000E+00
 -2.0000000E-02  0.0000000E+00
 -9.9999998E-03  0.0000000E+00
 -3.4694470E-17  0.0000000E+00
  9.9999998E-03  0.0000000E+00
  2.0000000E-02  0.0000000E+00
  2.9999999E-02  0.0000000E+00
  3.9999999E-02  0.0000000E+00
  5.0000001E-02  0.0000000E+00
  5.9999999E-02  0.0000000E+00
  7.0000000E-02  0.0000000E+00
  7.9999998E-02  0.0000000E+00
  9.0000004E-02  0.0000000E+00
  0.1000000      0.0000000E+00
  0.1100000      0.0000000E+00
  0.1200000      0.0000000E+00
  0.1300000      0.0000000E+00
  0.1400000      0.0000000E+00
  0.1500000      0.0000000E+00
  0.1600000      0.0000000E+00
  0.1700000      0.0000000E+00
  0.1800000      0.0000000E+00
  0.1900000      0.0000000E+00
  0.2000000      0.0000000E+00
  0.2100000      0.0000000E+00
  0.2200000      0.0000000E+00
  0.2300000      0.0000000E+00
  0.2400000      0.0000000E+00
  0.2500000      0.0000000E+00
  0.2600000      0.0000000E+00
  0.2700000      0.0000000E+00
  0.2800000      0.0000000E+00
  0.2900000      0.0000000E+00
  0.3000000      0.0000000E+00
  0.3100000      0.0000000E+00
  0.3200000      0.0000000E+00
  0.3300000      0.0000000E+00
  0.3400000      0.0000000E+00
  0.3500000      0.0000000E+00
  0.3600000      0.0000000E+00
  0.3700000      0.0000000E+00
  0.3800000      0.0000000E+00
  0.3900000      0.0000000E+00
  0.4000000      0.0000000E+00
  0.4100000      0.0000000E+00
  0.4200000      0.0000000E+00
  0.4300000      0.0000000E+00
  0.4400000      0.0000000E+00
  0.4500000      0.0000000E+00
  0.4600000      0.0000000E+00
  0.4700000      0.0000000E+00
  0.4800000      0.0000000E+00
  0.4900000      0.0000000E+00
  0.5000000      0.0000000E+00
  0.5100000      0.0000000E+00
  0.5200000      0.0000000E+00
  0.5300000      0.0000000E+00
  0.5400000      0.0000000E+00
  0.5500000      0.0000000E+00
  0.5600000      0.0000000E+00
  0.5700000      0.0000000E+00
  0.5800000      0.0000000E+00
  0.5900000      0.0000000E+00
  0.6000000      0.0000000E+00
  0.6100000      0.0000000E+00
  0.6200000      0.0000000E+00
  0.6300000      0.0000000E+00
  0.6400000      0.0000000E+00
  0.6500000      0.0000000E+00
  0.6600000      0.0000000E+00
  0.6700000      0.0000000E+00
  0.6800000      0.0000000E+00
  0.6900000      0.0000000E+00
  0.7000000      0.0000000E+00
  0.7100000      0.0000000E+00
  0.7200000      0.0000000E+00
  0.7300000      0.0000000E+00
  0.7400000      0.0000000E+00
  0.7500000      0.0000000E+00
  0.7600000      0.0000000E+00
  0.7700000      0.0000000E+00
  0.7800000      0.0000000E+00
  0.7900000      0.0000000E+00
  0.8000000      0.0000000E+00
  0.8100000      0.0000000E+00
  0.8200000      0.0000000E+00
  0.8300000      0.0000000E+00
  0.8400000      0.0000000E+00
  0.8500000      0.0000000E+00
  0.8600000      0.0000000E+00
  0.8700000      0.0000000E+00
  0.8800000      0.0000000E+00
  0.8900000      0.0000000E+00
  0.9000000      0.0000000E+00
  0.9100000      0.0000000E+00
  0.9200000      0.0000000E+00
  0.9300000      0.0000000E+00
  0.9400000      0.0000000E+00
  0.9500000      0.0000000E+00
  0.9600000      0.0000000E+00
  0.9700000      0.0000000E+00
  0.9800000      0.0000000E+00
  0.9900000      0.0000000E+00
   1.000000      0.0000000E+00
   1.010000      0.0000000E+00
   1.020000      0.0000000E+00
   1.030000      0.0000000E+00
   1.040000      0.0000000E+00
   1.050000      0.0000000E+00
   1.060000      0.0000000E+00
   1.070000      0.0000000E+00
   1.080000      0.0000000E+00
   1.090000      0.0000000E+00
   1.100000      0.0000000E+00
   1.110000      0.0000000E+00
   1.120000      0.0000000E+00
   1.130000      0.0000000E+00
   1.140000      0.0000000E+00
   1.150000      0.0000000E+00
   1.160000      0.0000000E+00
   1.170000      0.0000000E+00
   1.180000      0.0000000E+00
   1.190000      0.0000000E+00
   1.200000      0.0000000E+00
   1.210000      0.0000000E+00
   1.220000      0.0000000E+00
   1.230000      0.0000000E+00
   1.240000      0.0000000E+00
   1.250000      0.0000000E+00
   1.260000      0.0000000E+00
   1.270000      0.0000000E+00
   1.280000      0.0000000E+00
   1.290000      0.0000000E+00
   1.300000      0.0000000E+00
   1.310000      0.0000000E+00
   1.320000      0.0000000E+00
   1.330000      0.0000000E+00
   1.340000      0.0000000E+00
   1.350000      0.0000000E+00
   1.360000      0.0000000E+00
   1.370000      0.0000000E+00
   1.380000      0.0000000E+00
   1.390000      0.0000000E+00
   1.400000      0.0000000E+00
   1.410000      0.0000000E+00
   1.420000      0.0000000E+00
   1.430000      0.0000000E+00
   1.440000      0.0000000E+00
   1.450000      0.0000000E+00
   1.460000      0.0000000E+00
   1.470000      0.0000000E+00
   1.480000      0.0000000E+00
   1.490000      0.0000000E+00
   1.500000      0.0000000E+00
   1.510000      0.0000000E+00
   1.520000      0.0000000E+00
   1.530000      0.0000000E+00
   1.540000      0.0000000E+00
   1.550000      0.0000000E+00
   1.560000      0.0000000E+00
   1.570000      0.0000000E+00
   1.580000      0.0000000E+00
   1.590000      0.0000000E+00
   1.600000      0.0000000E+00
   1.610000      0.0000000E+00
   1.620000      0.0000000E+00
   1.630000      0.0000000E+00
   1.640000      0.0000000E+00
   1.650000      0.0000000E+00
   1.660000      0.0000000E+00
   1.670000      0.0000000E+00
   1.680000      0.0000000E+00
   1.690000      0.0000000E+00
   1.700000      0.0000000E+00
   1.710000      0.0000000E+00
   1.720000      0.0000000E+00
   1.730000      0.0000000E+00
   1.740000      0.0000000E+00
   1.750000      0.0000000E+00
   1.760000      0.0000000E+00
   1.770000      0.0000000E+00
   1.780000      0.0000000E+00
   1.790000      0.0000000E+00
   1.800000      0.0000000E+00
   1.810000      0.0000000E+00
   1.820000      0.0000000E+00
   1.830000      0.0000000E+00
   1.840000      0.0000000E+00
   1.850000      0.0000000E+00
   1.860000      0.0000000E+00
   1.870000      0.0000000E+00
   1.880000      0.0000000E+00
   1.890000      0.0000000E+00
   1.900000      0.0000000E+00
   1.910000      0.0000000E+00
   1.920000      0.0000000E+00
   1.930000      0.0000000E+00
   1.940000      0.0000000E+00
   1.950000      0.0000000E+00
   1.960000      0.0000000E+00
   1.970000      0.0000000E+00
   1.980000      0.0000000E+00
   1.990000      0.0000000E+00
   2.000000      0.0000000E+00
   2.010000      0.0000000E+00
   2.020000      0.0000000E+00
   2.030000      0.0000000E+00
   2.040000      0.0000000E+00
   2.050000      0.0000000E+00
   2.060000      0.0000000E+00
   2.070000      0.0000000E+00
   2.080000      0.0000000E+00
   2.090000      0.0000000E+00
   2.100000      0.0000000E+00
   2.110000      0.0000000E+00
   2.120000      0.0000000E+00
   2.130000      0.0000000E+00
   2.140000      0.0000000E+00
   2.150000      0.0000000E+00
   2.160000      0.0000000E+00
   2.170000      0.0000000E+00
   2.180000      0.0000000E+00
   2.190000      0.0000000E+00
   2.200000      0.0000000E+00
   2.210000      0.0000000E+00
   2.220000      0.0000000E+00
   2.230000      0.0000000E+00
   2.240000      0.0000000E+00
   2.250000      0.0000000E+00
   2.260000      0.0000000E+00
   2.270000      0.0000000E+00
   2.280000      0.0000000E+00
   2.290000      0.0000000E+00
   2.300000      0.0000000E+00
   2.310000      0.0000000E+00
   2.320000      0.0000000E+00
   2.330000      0.0000000E+00
   2.340000      0.0000000E+00
   2.350000      0.0000000E+00
   2.360000      0.0000000E+00
   2.370000      0.0000000E+00
   2.380000      0.0000000E+00
   2.390000      0.0000000E+00
   2.400000      0.0000000E+00
   2.410000      0.0000000E+00
   2.420000      0.0000000E+00
   2.430000      0.0000000E+00
   2.440000      0.0000000E+00
   2.450000      0.0000000E+00
   2.460000      0.0000000E+00
   2.470000      0.0000000E+00
   2.480000      0.0000000E+00
   2.490000      0.0000000E+00
   2.500000      0.0000000E+00
   2.510000      0.0000000E+00
   2.520000      0.0000000E+00
   2.530000      0.0000000E+00
   2.540000      0.0000000E+00
   2.550000      0.0000000E+00
   2.560000      0.0000000E+00
   2.570000      0.0000000E+00
   2.580000      0.0000000E+00
   2.590000      0.0000000E+00
   2.600000      0.0000000E+00
   2.610000      0.0000000E+00
   2.620000      0.0000000E+00
   2.630000      0.0000000E+00
   2.640000      0.0000000E+00
   2.650000      0.0000000E+00
   2.660000      0.0000000E+00
   2.670000      0.0000000E+00
   2.680000      0.0000000E+00
   2.690000      0.0000000E+00
   2.700000      0.0000000E+00
   2.710000      0.0000000E+00
   2.720000      0.0000000E+00
   2.730000      0.0000000E+00
   2.740000      0.0000000E+00
   2.750000      0.0000000E+00
   2.760000      0.0000000E+00
   2.770000      0.0000000E+00
   2.780000      0.0000000E+00
   2.790000      0.0000000E+00
   2.800000      0.0000000E+00
   2.810000      0.0000000E+00
   2.820000      0.0000000E+00
   2.830000      0.0000000E+00
   2.840000      0.0000000E+00
   2.850000      0.0000000E+00
   2.860000      0.0000000E+00
   2.870000      0.0000000E+00
   2.880000      0.0000000E+00
   2.890000      0.0000000E+00
   2.900000      0.0000000E+00
   2.910000      0.0000000E+00
   2.920000      0.0000000E+00
   2.930000      0.0000000E+00
   2.940000      0.0000000E+00
   2.950000      0.0000000E+00
   2.960000      0.0000000E+00
   2.970000      0.0000000E+00
   2.980000      0.0000000E+00
   2.990000      0.0000000E+00
   3.000000      0.0000000E+00
   3.010000      0.0000000E+00
   3.020000      0.0000000E+00
   3.030000      0.0000000E+00
   3.040000      0.0000000E+00
   3.050000      0.0000000E+00
   3.060000      0.0000000E+00
   3.070000      0.0000000E+00
   3.080000      0.0000000E+00
   3.090000      0.0000000E+00
   3.100000      0.0000000E+00
   3.110000      0.0000000E+00
   3.120000      0.0000000E+00
   3.130000      0.0000000E+00
   3.140000      0.0000000E+00
   3.150000      0.0000000E+00
   3.160000      0.0000000E+00
   3.170000      0.0000000E+00
   3.180000      0.0000000E+00
   3.190000      0.0000000E+00
   3.200000      0.0000000E+00
   3.210000      0.0000000E+00
   3.220000      0.0000000E+00
   3.230000      0.0000000E+00
   3.240000      0.0000000E+00
   3.250000      0.0000000E+00
   3.260000      0.0000000E+00
   3.270000      0.0000000E+00
   3.280000      0.0000000E+00
   3.290000      0.0000000E+00
   3.300000      0.0000000E+00
   3.310000      0.0000000E+00
   3.320000      0.0000000E+00
   3.330000      0.0000000E+00
   3.340000      0.0000000E+00
   3.350000      0.0000000E+00
   3.360000      0.0000000E+00
   3.370000      0.0000000E+00
   3.380000      0.0000000E+00
   3.390000      0.0000000E+00
   3.400000      0.0000000E+00
   3.410000      0.0000000E+00
   3.420000      0.0000000E+00
   3.430000      0.0000000E+00
   3.440000      0.0000000E+00
   3.450000      0.0000000E+00
   3.460000      0.0000000E+00
   3.470000      0.0000000E+00
   3.480000      0.0000000E+00
   3.490000      0.0000000E+00
   3.500000      0.0000000E+00
   3.510000      0.0000000E+00
   3.520000      0.0000000E+00
   3.530000      0.0000000E+00
   3.540000     -1.1783899E-38
   3.550000     -1.2854702E-38
   3.560000     -1.2854702E-38
   3.570000     -1.3429191E-38
   3.580000     -1.4626962E-38
   3.590000     -1.6450512E-38
   3.600000     -1.8911270E-38
   3.610000     -2.1486378E-38
   3.620000     -2.2994767E-38
   3.630000     -2.3339995E-38
   3.640000     -2.2925474E-38
   3.650000     -2.1962355E-38
   3.660000     -2.1484777E-38
   3.670000     -2.2454450E-38
   3.680000     -2.4590627E-38
   3.690000     -2.6793376E-38
   3.700000     -2.9051411E-38
   3.710000     -3.1351873E-38
   3.720000     -3.4762709E-38
   3.730000     -3.9335367E-38
   3.740000     -4.3868189E-38
   3.750000     -4.7211758E-38
   3.760000     -4.9437518E-38
   3.770000     -5.1574078E-38
   3.780000     -5.3025156E-38
   3.790000     -5.2545139E-38
   3.800000     -4.9923674E-38
   3.810000     -4.5651625E-38
   3.820000     -3.9368219E-38
   3.830000     -3.1493566E-38
   3.840000     -2.3039771E-38
   3.850000     -1.4393255E-38
   3.860000      0.0000000E+00
   3.870000      0.0000000E+00
   3.880000      0.0000000E+00
   3.890000      2.2931976E-38
   3.900000      3.4967551E-38
   3.910000      4.6126642E-38
   3.920000      5.7010875E-38
   3.930000      6.5139275E-38
   3.940000      7.1208988E-38
   3.950000      8.0074516E-38
   3.960000      9.2582719E-38
   3.970000      1.0701807E-37
   3.980000      1.2435120E-37
   3.990000      1.4606924E-37
   4.000000      1.7065929E-37
   4.010000      1.9669518E-37
   4.020000      2.2314050E-37
   4.030000      2.4892072E-37
   4.040000      2.7256520E-37
   4.050000      2.9353082E-37
   4.060000      3.0785334E-37
   4.070000      3.1460247E-37
   4.080000      3.1745872E-37
   4.090000      3.1892658E-37
   4.100000      3.2106833E-37
   4.110000      3.2251844E-37
   4.120000      3.2203251E-37
   4.130000      3.2067922E-37
   4.140000      3.1631432E-37
   4.150000      3.0820149E-37
   4.160000      2.9930172E-37
   4.170000      2.9438418E-37
   4.180000      2.9196482E-37
   4.190000      2.8448123E-37
   4.200000      2.6737707E-37
   4.210000      2.3992461E-37
   4.220000      2.0687275E-37
   4.230000      1.6302235E-37
   4.240000      1.0521898E-37
   4.250000      3.8009725E-38
   4.260000     -3.9505025E-38
   4.270000     -1.2842157E-37
   4.280000     -2.2685318E-37
   4.290000     -3.3639492E-37
   4.300000     -4.5847275E-37
   4.310000     -6.0127583E-37
   4.320000     -7.6096112E-37
   4.330000     -9.4154782E-37
   4.340000     -1.1539871E-36
   4.350000     -1.3938003E-36
   4.360000     -1.6473166E-36
   4.370000     -1.9041658E-36
   4.380000     -2.1894771E-36
   4.390000     -2.4979684E-36
   4.400000     -2.7764672E-36
   4.410000     -3.0288825E-36
   4.420000     -3.2538461E-36
   4.430000     -3.4198190E-36
   4.440000     -3.5759128E-36
   4.450000     -3.8608034E-36
   4.460000     -4.2663604E-36
   4.470000     -4.7849328E-36
   4.480000     -5.4297221E-36
   4.490000     -6.1163725E-36
   4.500000     -6.8456518E-36
   4.510000     -7.2650652E-36
   4.520000     -7.3384116E-36
   4.530000     -7.3712019E-36
   4.540000     -7.3320807E-36
   4.550000     -7.3075434E-36
   4.560000     -7.3328994E-36
   4.570000     -7.4978424E-36
   4.580000     -7.8361098E-36
   4.590000     -8.2236240E-36
   4.600000     -8.3917741E-36
   4.610000     -8.3123608E-36
   4.620000     -8.1407368E-36
   4.630000     -7.8371580E-36
   4.640000     -7.5320726E-36
   4.650000     -7.1173607E-36
   4.660000     -6.5244758E-36
   4.670000     -5.7883587E-36
   4.680000     -4.8522558E-36
   4.690000     -3.7405591E-36
   4.700000     -2.4191606E-36
   4.710000     -8.6228500E-37
   4.720000      9.5932184E-37
   4.730000      2.9323255E-36
   4.740000      4.9338911E-36
   4.750000      7.0274366E-36
   4.760000      9.2775569E-36
   4.770000      1.1731464E-35
   4.780000      1.4487698E-35
   4.790000      1.7582540E-35
   4.800000      2.1027660E-35
   4.810000      2.4849600E-35
   4.820000      2.8711188E-35
   4.830000      3.2173226E-35
   4.840000      3.5593848E-35
   4.850000      3.9154489E-35
   4.860000      4.2569598E-35
   4.870000      4.5958047E-35
   4.880000      4.9176714E-35
   4.890000      5.2029819E-35
   4.900000      5.4498093E-35
   4.910000      5.6911857E-35
   4.920000      5.9689290E-35
   4.930000      6.2829461E-35
   4.940000      6.6080151E-35
   4.950000      6.9060540E-35
   4.960000      7.1751946E-35
   4.970000      7.4083930E-35
   4.980000      7.5933101E-35
   4.990000      7.7365149E-35
   5.000000      7.8340792E-35
   5.010000      7.8612338E-35
   5.020000      7.9372771E-35
   5.030000      8.0829620E-35
   5.040000      8.1465788E-35
   5.050000      8.1039344E-35
   5.060000      7.8481754E-35
   5.070000      7.3960228E-35
   5.080000      6.8804807E-35
   5.090000      6.3060542E-35
   5.100000      5.6455332E-35
   5.110000      4.8692121E-35
   5.120000      3.9313352E-35
   5.130000      2.8342274E-35
   5.140000      1.6420553E-35
   5.150000      3.4039006E-36
   5.160000     -1.0801505E-35
   5.170000     -2.5640666E-35
   5.180000     -4.1142899E-35
   5.190000     -5.7853504E-35
   5.200000     -7.7451165E-35
   5.210000     -9.9056085E-35
   5.220000     -1.1948892E-34
   5.230000     -1.3948396E-34
   5.240000     -1.6027948E-34
   5.250000     -1.8136716E-34
   5.260000     -2.0316898E-34
   5.270000     -2.2596105E-34
   5.280000     -2.5095007E-34
   5.290000     -2.7851082E-34
   5.300000     -3.0892924E-34
   5.310000     -3.4062022E-34
   5.320000     -3.7267425E-34
   5.330000     -4.0667894E-34
   5.340000     -4.4082191E-34
   5.350000     -4.7260365E-34
   5.360000     -5.0220439E-34
   5.370000     -5.3082928E-34
   5.380000     -5.5885150E-34
   5.390000     -5.8593724E-34
   5.400000     -6.1328608E-34
   5.410000     -6.4112720E-34
   5.420000     -6.6717537E-34
   5.430000     -6.9077866E-34
   5.440000     -7.1160874E-34
   5.450000     -7.2822656E-34
   5.460000     -7.3976178E-34
   5.470000     -7.4694107E-34
   5.480000     -7.5032535E-34
   5.490000     -7.5003818E-34
   5.500000     -7.4573013E-34
   5.510000     -7.3716330E-34
   5.520000     -7.2437011E-34
   5.530000     -7.0501252E-34
   5.540000     -6.7884046E-34
   5.550000     -6.4561203E-34
   5.560000     -6.0332188E-34
   5.570000     -5.5393335E-34
   5.580000     -4.9745989E-34
   5.590000     -4.3247608E-34
   5.600000     -3.6003438E-34
   5.610000     -2.8203875E-34
   5.620000     -1.9691558E-34
   5.630000     -9.8732273E-35
   5.640000      1.3686997E-35
   5.650000      1.3794671E-34
   5.660000      2.7574060E-34
   5.670000      4.2805439E-34
   5.680000      5.9666321E-34
   5.690000      7.7984435E-34
   5.700000      9.7617000E-34
   5.710000      1.1890281E-33
   5.720000      1.4157624E-33
   5.730000      1.6572342E-33
   5.740000      1.9113072E-33
   5.750000      2.1756948E-33
   5.760000      2.4534180E-33
   5.770000      2.7439219E-33
   5.780000      3.0467186E-33
   5.790000      3.3615197E-33
   5.800000      3.6863058E-33
   5.810000      4.0196893E-33
   5.820000      4.3606337E-33
   5.830000      4.7068344E-33
   5.840000      5.0568709E-33
   5.850000      5.4082732E-33
   5.860000      5.7596064E-33
   5.870000      6.1097873E-33
   5.880000      6.4565438E-33
   5.890000      6.7997771E-33
   5.900000      7.1394200E-33
   5.910000      7.4725647E-33
   5.920000      7.7958227E-33
   5.930000      8.1048095E-33
   5.940000      8.3960867E-33
   5.950000      8.6685002E-33
   5.960000      8.9201147E-33
   5.970000      9.1450103E-33
   5.980000      9.3390021E-33
   5.990000      9.4991801E-33
   6.000000      9.6235254E-33
   6.010000      9.7086811E-33
   6.020000      9.7483137E-33
   6.030000      9.7371017E-33
   6.040000      9.6651636E-33
   6.050000      9.5283537E-33
   6.060000      9.3254516E-33
   6.070000      9.0480100E-33
   6.080000      8.6887701E-33
   6.090000      8.2424723E-33
   6.100000      7.7048519E-33
   6.110000      7.0696052E-33
   6.120000      6.3296844E-33
   6.130000      5.4780252E-33
   6.140000      4.5077361E-33
   6.150000      3.4137568E-33
   6.160000      2.1904634E-33
   6.170000      8.3239584E-34
   6.180000     -6.6610113E-34
   6.190000     -2.3100082E-33
   6.200000     -4.1035439E-33
   6.210000     -6.0513307E-33
   6.220000     -8.1561396E-33
   6.230000     -1.0419633E-32
   6.240000     -1.2844857E-32
   6.250000     -1.5433500E-32
   6.260000     -1.8187598E-32
   6.270000     -2.1107218E-32
   6.280000     -2.4191593E-32
   6.290000     -2.7441854E-32
   6.300000     -3.0856797E-32
   6.310000     -3.4432566E-32
   6.320000     -3.8165857E-32
   6.330000     -4.2052470E-32
   6.340000     -4.6086346E-32
   6.350000     -5.0261652E-32
   6.360000     -5.4570591E-32
   6.370000     -5.9003234E-32
   6.380000     -6.3550528E-32
   6.390000     -6.8200066E-32
   6.400000     -7.2936051E-32
   6.410000     -7.7743499E-32
   6.420000     -8.2605185E-32
   6.430000     -8.7501813E-32
   6.440000     -9.2412064E-32
   6.450000     -9.7312559E-32
   6.460000     -1.0217752E-31
   6.470000     -1.0697760E-31
   6.480000     -1.1168255E-31
   6.490000     -1.1626093E-31
   6.500000     -1.2067777E-31
   6.510000     -1.2489501E-31
   6.520000     -1.2887235E-31
   6.530000     -1.3256699E-31
   6.540000     -1.3593407E-31
   6.550000     -1.3892587E-31
   6.560000     -1.4149177E-31
   6.570000     -1.4357981E-31
   6.580000     -1.4513498E-31
   6.590000     -1.4609940E-31
   6.600000     -1.4641529E-31
   6.610000     -1.4602252E-31
   6.620000     -1.4485709E-31
   6.630000     -1.4285383E-31
   6.640000     -1.3994756E-31
   6.650000     -1.3607145E-31
   6.660000     -1.3115589E-31
   6.670000     -1.2513081E-31
   6.680000     -1.1792548E-31
   6.690000     -1.0946798E-31
   6.700000     -9.9686893E-32
   6.710000     -8.8510922E-32
   6.720000     -7.5868092E-32
   6.730000     -6.1687410E-32
   6.740000     -4.5898670E-32
   6.750000     -2.8433034E-32
   6.760000     -9.2237060E-33
   6.770000      1.1794152E-32
   6.780000      3.4682658E-32
   6.790000      5.9500838E-32
   6.800000      8.6303872E-32
   6.810000      1.1514267E-31
   6.820000      1.4606273E-31
   6.830000      1.7910388E-31
   6.840000      2.1430038E-31
   6.850000      2.5167922E-31
   6.860000      2.9125976E-31
   6.870000      3.3305251E-31
   6.880000      3.7705890E-31
   6.890000      4.2327041E-31
   6.900000      4.7166725E-31
   6.910000      5.2221826E-31
   6.920000      5.7487970E-31
   6.930000      6.2959365E-31
   6.940000      6.8628774E-31
   6.950000      7.4487456E-31
   6.960000      8.0525012E-31
   6.970000      8.6729337E-31
   6.980000      9.3086523E-31
   6.990000      9.9580725E-31
   7.000000      1.0619415E-30
   7.010000      1.1290700E-30
   7.020000      1.1969722E-30
   7.030000      1.2654056E-30
   7.040000      1.3341048E-30
   7.050000      1.4027805E-30
   7.060000      1.4711186E-30