  -2.600000      0.0000000E+00
  -2.590000      0.0000000E+00
  -2.580000      0.0000000E+00
  -2.570000      0.0000000E+00
  -2.560000      0.0000000E+00
  -2.550000      0.0000000E+00
  -2.540000      0.0000000E+00
  -2.530000      0.0000000E+00
  -2.520000      0.0000000E+00
  -2.510000      0.0000000E+00
  -2.500000      0.0000000E+00
  -2.490000      0.0000000E+00
  -2.480000      0.0000000E+00
  -2.470000      0.0000000E+00
  -2.460000      0.0000000E+00
  -2.450000      0.0000000E+00
  -2.440000      0.0000000E+00
  -2.430000      0.0000000E+00
  -2.420000      0.0000000E+00
  -2.410000      0.0000000E+00
  -2.400000      0.0000000E+00
  -2.390000      0.0000000E+00
  -2.380000      0.0000000E+00
  -2.370000      0.0000000E+00
  -2.360000      0.0000000E+00
  -2.350000      0.0000000E+00
  -2.340000      0.0000000E+00
  -2.330000      0.0000000E+00
  -2.320000      0.0000000E+00
  -2.310000      0.0000000E+00
  -2.300000      0.0000000E+00
  -2.290000      0.0000000E+00
  -2.280000      0.0000000E+00
  -2.270000      0.0000000E+00
  -2.260000      0.0000000E+00
  -2.250000      0.0000000E+00
  -2.240000      0.0000000E+00
  -2.230000      0.0000000E+00
  -2.220000      0.0000000E+00
  -2.210000      0.0000000E+00
  -2.200000      0.0000000E+00
  -2.190000      0.0000000E+00
  -2.180000      0.0000000E+00
  -2.170000      0.0000000E+00
  -2.160000      0.0000000E+00
  -2.150000      0.0000000E+00
  -2.140000      0.0000000E+00
  -2.130000      0.0000000E+00
  -2.120000      0.0000000E+00
  -2.110000      0.0000000E+00
  -2.100000      0.0000000E+00
  -2.090000      0.0000000E+00
  -2.080000      0.0000000E+00
  -2.070000      0.0000000E+00
  -2.060000      0.0000000E+00
  -2.050000      0.0000000E+00
  -2.040000      0.0000000E+00
  -2.030000      0.0000000E+00
  -2.020000      0.0000000E+00
  -2.010000      0.0000000E+00
  -2.000000      0.0000000E+00
  -1.990000      0.0000000E+00
  -1.980000      0.0000000E+00
  -1.970000      0.0000000E+00
  -1.960000      0.0000000E+00
  -1.950000      0.0000000E+00
  -1.940000      0.0000000E+00
  -1.930000      0.0000000E+00
  -1.920000      0.0000000E+00
  -1.910000      0.0000000E+00
  -1.900000      0.0000000E+00
  -1.890000      0.0000000E+00
  -1.880000      0.0000000E+00
  -1.870000      0.0000000E+00
  -1.860000      0.0000000E+00
  -1.850000      0.0000000E+00
  -1.840000      0.0000000E+00
  -1.830000      0.0000000E+00
  -1.820000      0.0000000E+00
  -1.810000      0.0000000E+00
  -1.800000      0.0000000E+00
  -1.790000      0.0000000E+00
  -1.780000      0.0000000E+00
  -1.770000      0.0000000E+00
  -1.760000      0.0000000E+00
  -1.750000      0.0000000E+00
  -1.740000      0.0000000E+00
  -1.730000      0.0000000E+00
  -1.720000      0.0000000E+00
  -1.710000      0.0000000E+00
  -1.700000      0.0000000E+00
  -1.690000      0.0000000E+00
  -1.680000      0.0000000E+00
  -1.670000      0.0000000E+00
  -1.660000      0.0000000E+00
  -1.650000      0.0000000E+00
  -1.640000      0.0000000E+00
  -1.630000      0.0000000E+00
  -1.620000      0.0000000E+00
  -1.610000      0.0000000E+00
  -1.600000      0.0000000E+00
  -1.590000      0.0000000E+00
  -1.580000      0.0000000E+00
  -1.570000      0.0000000E+00
  -1.560000      0.0000000E+00
  -1.550000      0.0000000E+00
  -1.540000      0.0000000E+00
  -1.530000      0.0000000E+00
  -1.520000      0.0000000E+00
  -1.510000      0.0000000E+00
  -1.500000      0.0000000E+00
  -1.490000      0.0000000E+00
  -1.480000      0.0000000E+00
  -1.470000      0.0000000E+00
  -1.460000      0.0000000E+00
  -1.450000      0.0000000E+00
  -1.440000      0.0000000E+00
  -1.430000      0.0000000E+00
  -1.420000      0.0000000E+00
  -1.410000      0.0000000E+00
  -1.400000      0.0000000E+00
  -1.390000      0.0000000E+00
  -1.380000      0.0000000E+00
  -1.370000      0.0000000E+00
  -1.360000      0.0000000E+00
  -1.350000      0.0000000E+00
  -1.340000      0.0000000E+00
  -1.330000      0.0000000E+00
  -1.320000      0.0000000E+00
  -1.310000      0.0000000E+00
  -1.300000      0.0000000E+00
  -1.290000      0.0000000E+00
  -1.280000      0.0000000E+00
  -1.270000      0.0000000E+00
  -1.260000      0.0000000E+00
  -1.250000      0.0000000E+00
  -1.240000      0.0000000E+00
  -1.230000      0.0000000E+00
  -1.220000      0.0000000E+00
  -1.210000      0.0000000E+00
  -1.200000      0.0000000E+00
  -1.190000      0.0000000E+00
  -1.180000      0.0000000E+00
  -1.170000      0.0000000E+00
  -1.160000      0.0000000E+00
  -1.150000      0.0000000E+00
  -1.140000      0.0000000E+00
  -1.130000      0.0000000E+00
  -1.120000      0.0000000E+00
  -1.110000      0.0000000E+00
  -1.100000      0.0000000E+00
  -1.090000      0.0000000E+00
  -1.080000      0.0000000E+00
  -1.070000      0.0000000E+00
  -1.060000      0.0000000E+00
  -1.050000      0.0000000E+00
  -1.040000      0.0000000E+00
  -1.030000      0.0000000E+00
  -1.020000      0.0000000E+00
  -1.010000      0.0000000E+00
  -1.000000      0.0000000E+00
 -0.9900000      0.0000000E+00
 -0.9800000      0.0000000E+00
 -0.9700000      0.0000000E+00
 -0.9600000      0.0000000E+00
 -0.9500000      0.0000000E+00
 -0.9400000      0.0000000E+00
 -0.9300000      0.0000000E+00
 -0.9200000      0.0000000E+00
 -0.9100000      0.0000000E+00
 -0.9000000      0.0000000E+00
 -0.8900000      0.0000000E+00
 -0.8800000      0.0000000E+00
 -0.8700000      0.0000000E+00
 -0.8600000      0.0000000E+00
 -0.8500000      0.0000000E+00
 -0.8400000      0.0000000E+00
 -0.8300000      0.0000000E+00
 -0.8200000      0.0000000E+00
 -0.8100000      0.0000000E+00
 -0.8000000      0.0000000E+00
 -0.7900000      0.0000000E+00
 -0.7800000      0.0000000E+00
 -0.7700000      0.0000000E+00
 -0.7600000      0.0000000E+00
 -0.7500000      0.0000000E+00
 -0.7400000      0.0000000E+00
 -0.7300000      0.0000000E+00
 -0.7200000      0.0000000E+00
 -0.7100000      0.0000000E+00
 -0.7000000      0.0000000E+00
 -0.6900000      0.0000000E+00
 -0.6800000      0.0000000E+00
 -0.6700000      0.0000000E+00
 -0.6600000      0.0000000E+00
 -0.6500000      0.0000000E+00
 -0.6400000      0.0000000E+00
 -0.6300000      0.0000000E+00
 -0.6200000      0.0000000E+00
 -0.6100000      0.0000000E+00
 -0.6000000      0.0000000E+00
 -0.5900000      0.0000000E+00
 -0.5800000      0.0000000E+00
 -0.5700000      0.0000000E+00
 -0.5600000      0.0000000E+00
 -0.5500000      0.0000000E+00
 -0.5400000      0.0000000E+00
 -0.5300000      0.0000000E+00
 -0.5200000      0.0000000E+00
 -0.5100000      0.0000000E+00
 -0.5000000      0.0000000E+00
 -0.4900000      0.0000000E+00
 -0.4800000      0.0000000E+00
 -0.4700000      0.0000000E+00
 -0.4600000      0.0000000E+00
 -0.4500000      0.0000000E+00
 -0.4400000      0.0000000E+00
 -0.4300000      0.0000000E+00
 -0.4200000      0.0000000E+00
 -0.4100000      0.0000000E+00
 -0.4000000      0.0000000E+00
 -0.3900000      0.0000000E+00
 -0.3800000      0.0000000E+00
 -0.3700000      0.0000000E+00
 -0.3600000      0.0000000E+00
 -0.3500000      0.0000000E+00
 -0.3400000      0.0000000E+00
 -0.3300000      0.0000000E+00
 -0.3200000      0.0000000E+00
 -0.3100000      0.0000000E+00
 -0.3000000      0.0000000E+00
 -0.2900000      0.0000000E+00
 -0.2800000      0.0000000E+00
 -0.2700000      0.0000000E+00
 -0.2600000      0.0000000E+00
 -0.2500000      0.0000000E+00
 -0.2400000      0.0000000E+00
 -0.2300000      0.0000000E+00
 -0.2200000      0.0000000E+00
 -0.2100000      0.0000000E+00
 -0.2000000      0.0000000E+00
 -0.1900000      0.0000000E+00
 -0.1800000      0.0000000E+00
 -0.1700000      0.0000000E+00
 -0.1600000      0.0000000E+00
 -0.1500000      0.0000000E+00
 -0.1400000      0.0000000E+00
 -0.1300000      0.0000000E+00
 -0.1200000      0.0000000E+00
 -0.1100000      0.0000000E+00
 -0.1000000      0.0000000E+00
 -9.0000004E-02  0.0000000E+00
 -7.9999998E-02  0.0000000E+00
 -7.0000000E-02  0.0000000E+00
 -5.9999999E-02  0.0000000E+00
 -5.0000001E-02  0.0000000E+00
 -3.9999999E-02  0.0000000E+00
 -2.9999999E-02  0.0000000E+00
 -2.0000000E-02  0.0000000E+00
 -9.9999998E-03  0.0000000E+00
 -3.4694470E-17  0.0000000E+00
  9.9999998E-03  0.0000000E+00
  2.0000000E-02  0.0000000E+00
  2.9999999E-02  0.0000000E+00
  3.9999999E-02  0.0000000E+00
  5.0000001E-02  0.0000000E+00
  5.9999999E-02  0.0000000E+00
  7.0000000E-02  0.0000000E+00
  7.9999998E-02  0.0000000E+00
  9.0000004E-02  0.0000000E+00
  0.1000000      0.0000000E+00
  0.1100000      0.0000000E+00
  0.1200000      0.0000000E+00
  0.1300000      0.0000000E+00
  0.1400000      0.0000000E+00
  0.1500000      0.0000000E+00
  0.1600000      0.0000000E+00
  0.1700000      0.0000000E+00
  0.1800000      0.0000000E+00
  0.1900000      0.0000000E+00
  0.2000000      0.0000000E+00
  0.2100000      0.0000000E+00
  0.2200000      0.0000000E+00
  0.2300000      0.0000000E+00
  0.2400000      0.0000000E+00
  0.2500000      0.0000000E+00
  0.2600000      0.0000000E+00
  0.2700000      0.0000000E+00
  0.2800000      0.0000000E+00
  0.2900000      0.0000000E+00
  0.3000000      0.0000000E+00
  0.3100000      0.0000000E+00
  0.3200000      0.0000000E+00
  0.3300000      0.0000000E+00
  0.3400000      0.0000000E+00
  0.3500000      0.0000000E+00
  0.3600000      0.0000000E+00
  0.3700000      0.0000000E+00
  0.3800000      0.0000000E+00
  0.3900000      0.0000000E+00
  0.4000000      0.0000000E+00
  0.4100000      0.0000000E+00
  0.4200000      0.0000000E+00
  0.4300000      0.0000000E+00
  0.4400000      0.0000000E+00
  0.4500000      0.0000000E+00
  0.4600000      0.0000000E+00
  0.4700000      0.0000000E+00
  0.4800000      0.0000000E+00
  0.4900000      0.0000000E+00
  0.5000000      0.0000000E+00
  0.5100000      0.0000000E+00
  0.5200000      0.0000000E+00
  0.5300000      0.0000000E+00
  0.5400000      0.0000000E+00
  0.5500000      0.0000000E+00
  0.5600000      0.0000000E+00
  0.5700000      0.0000000E+00
  0.5800000      0.0000000E+00
  0.5900000      0.0000000E+00
  0.6000000      0.0000000E+00
  0.6100000      0.0000000E+00
  0.6200000      0.0000000E+00
  0.6300000      0.0000000E+00
  0.6400000      0.0000000E+00
  0.6500000      0.0000000E+00
  0.6600000      0.0000000E+00
  0.6700000      0.0000000E+00
  0.6800000      0.0000000E+00
  0.6900000      0.0000000E+00
  0.7000000      0.0000000E+00
  0.7100000      0.0000000E+00
  0.7200000      0.0000000E+00
  0.7300000      0.0000000E+00
  0.7400000      0.0000000E+00
  0.7500000      0.0000000E+00
  0.7600000      0.0000000E+00
  0.7700000      0.0000000E+00
  0.7800000      0.0000000E+00
  0.7900000      0.0000000E+00
  0.8000000      0.0000000E+00
  0.8100000      0.0000000E+00
  0.8200000      0.0000000E+00
  0.8300000      0.0000000E+00
  0.8400000      0.0000000E+00
  0.8500000      0.0000000E+00
  0.8600000      0.0000000E+00
  0.8700000      0.0000000E+00
  0.8800000      0.0000000E+00
  0.8900000      0.0000000E+00
  0.9000000      0.0000000E+00
  0.9100000      0.0000000E+00
  0.9200000      0.0000000E+00
  0.9300000      0.0000000E+00
  0.9400000      0.0000000E+00
  0.9500000      0.0000000E+00
  0.9600000      0.0000000E+00
  0.9700000      0.0000000E+00
  0.9800000      0.0000000E+00
  0.9900000      0.0000000E+00
   1.000000      0.0000000E+00
   1.010000      0.0000000E+00
   1.020000      0.0000000E+00
   1.030000      0.0000000E+00
   1.040000      0.0000000E+00
   1.050000      0.0000000E+00
   1.060000      0.0000000E+00
   1.070000      0.0000000E+00
   1.080000      0.0000000E+00
   1.090000      0.0000000E+00
   1.100000      0.0000000E+00
   1.110000      0.0000000E+00
   1.120000      0.0000000E+00
   1.130000      0.0000000E+00
   1.140000      0.0000000E+00
   1.150000      0.0000000E+00
   1.160000      0.0000000E+00
   1.170000      0.0000000E+00
   1.180000      0.0000000E+00
   1.190000      0.0000000E+00
   1.200000      0.0000000E+00
   1.210000      0.0000000E+00
   1.220000      0.0000000E+00
   1.230000      0.0000000E+00
   1.240000      0.0000000E+00
   1.250000      0.0000000E+00
   1.260000      0.0000000E+00
   1.270000      0.0000000E+00
   1.280000      0.0000000E+00
   1.290000      0.0000000E+00
   1.300000      0.0000000E+00
   1.310000      0.0000000E+00
   1.320000      0.0000000E+00
   1.330000      0.0000000E+00
   1.340000      0.0000000E+00
   1.350000      0.0000000E+00
   1.360000      0.0000000E+00
   1.370000      0.0000000E+00
   1.380000      0.0000000E+00
   1.390000      0.0000000E+00
   1.400000      0.0000000E+00
   1.410000      0.0000000E+00
   1.420000      0.0000000E+00
   1.430000      0.0000000E+00
   1.440000      0.0000000E+00
   1.450000      0.0000000E+00
   1.460000      0.0000000E+00
   1.470000      0.0000000E+00
   1.480000      0.0000000E+00
   1.490000      0.0000000E+00
   1.500000      0.0000000E+00
   1.510000      0.0000000E+00
   1.520000      0.0000000E+00
   1.530000      0.0000000E+00
   1.540000      0.0000000E+00
   1.550000      0.0000000E+00
   1.560000      0.0000000E+00
   1.570000      0.0000000E+00
   1.580000      0.0000000E+00
   1.590000      0.0000000E+00
   1.600000      0.0000000E+00
   1.610000      0.0000000E+00
   1.620000      0.0000000E+00
   1.630000      0.0000000E+00
   1.640000      0.0000000E+00
   1.650000      0.0000000E+00
   1.660000      0.0000000E+00
   1.670000      0.0000000E+00
   1.680000      0.0000000E+00
   1.690000      0.0000000E+00
   1.700000      0.0000000E+00
   1.710000      0.0000000E+00
   1.720000      0.0000000E+00
   1.730000      0.0000000E+00
   1.740000      0.0000000E+00
   1.750000      0.0000000E+00
   1.760000      0.0000000E+00
   1.770000      0.0000000E+00
   1.780000      0.0000000E+00
   1.790000      0.0000000E+00
   1.800000      0.0000000E+00
   1.810000      0.0000000E+00
   1.820000      0.0000000E+00
   1.830000      0.0000000E+00
   1.840000      0.0000000E+00
   1.850000      0.0000000E+00
   1.860000      0.0000000E+00
   1.870000      0.0000000E+00
   1.880000      0.0000000E+00
   1.890000      0.0000000E+00
   1.900000      0.0000000E+00
   1.910000      0.0000000E+00
   1.920000      0.0000000E+00
   1.930000      0.0000000E+00
   1.940000      0.0000000E+00
   1.950000      0.0000000E+00
   1.960000      0.0000000E+00
   1.970000      0.0000000E+00
   1.980000      0.0000000E+00
   1.990000      0.0000000E+00
   2.000000      0.0000000E+00
   2.010000      0.0000000E+00
   2.020000      0.0000000E+00
   2.030000      0.0000000E+00
   2.040000      0.0000000E+00
   2.050000      0.0000000E+00
   2.060000      0.0000000E+00
   2.070000      0.0000000E+00
   2.080000      0.0000000E+00
   2.090000      0.0000000E+00
   2.100000      0.0000000E+00
   2.110000      0.0000000E+00
   2.120000      0.0000000E+00
   2.130000      0.0000000E+00
   2.140000      0.0000000E+00
   2.150000      0.0000000E+00
   2.160000      0.0000000E+00
   2.170000      0.0000000E+00
   2.180000      0.0000000E+00
   2.190000      0.0000000E+00
   2.200000      0.0000000E+00
   2.210000      0.0000000E+00
   2.220000      0.0000000E+00
   2.230000      0.0000000E+00
   2.240000      0.0000000E+00
   2.250000      0.0000000E+00
   2.260000      0.0000000E+00
   2.270000      0.0000000E+00
   2.280000      0.0000000E+00
   2.290000      0.0000000E+00
   2.300000      0.0000000E+00
   2.310000      0.0000000E+00
   2.320000      0.0000000E+00
   2.330000      0.0000000E+00
   2.340000      0.0000000E+00
   2.350000      0.0000000E+00
   2.360000      0.0000000E+00
   2.370000      0.0000000E+00
   2.380000      0.0000000E+00
   2.390000      0.0000000E+00
   2.400000      0.0000000E+00
   2.410000      0.0000000E+00
   2.420000      0.0000000E+00
   2.430000      0.0000000E+00
   2.440000      0.0000000E+00
   2.450000      0.0000000E+00
   2.460000      0.0000000E+00
   2.470000      0.0000000E+00
   2.480000      0.0000000E+00
   2.490000      0.0000000E+00
   2.500000      0.0000000E+00
   2.510000      0.0000000E+00
   2.520000      0.0000000E+00
   2.530000      0.0000000E+00
   2.540000      0.0000000E+00
   2.550000      0.0000000E+00
   2.560000      0.0000000E+00
   2.570000      0.0000000E+00
   2.580000      0.0000000E+00
   2.590000      0.0000000E+00
   2.600000      0.0000000E+00
   2.610000      0.0000000E+00
   2.620000      0.0000000E+00
   2.630000      0.0000000E+00
   2.640000      0.0000000E+00
   2.650000      0.0000000E+00
   2.660000      0.0000000E+00
   2.670000      0.0000000E+00
   2.680000      0.0000000E+00
   2.690000      0.0000000E+00
   2.700000      0.0000000E+00
   2.710000      0.0000000E+00
   2.720000      0.0000000E+00
   2.730000      0.0000000E+00
   2.740000      0.0000000E+00
   2.750000      0.0000000E+00
   2.760000      0.0000000E+00
   2.770000      0.0000000E+00
   2.780000      0.0000000E+00
   2.790000      0.0000000E+00
   2.800000      0.0000000E+00
   2.810000      0.0000000E+00
   2.820000      0.0000000E+00
   2.830000      0.0000000E+00
   2.840000      0.0000000E+00
   2.850000      0.0000000E+00
   2.860000      0.0000000E+00
   2.870000      0.0000000E+00
   2.880000      0.0000000E+00
   2.890000      0.0000000E+00
   2.900000      0.0000000E+00
   2.910000      0.0000000E+00
   2.920000      0.0000000E+00
   2.930000      0.0000000E+00
   2.940000      0.0000000E+00
   2.950000      0.0000000E+00
   2.960000      0.0000000E+00
   2.970000      0.0000000E+00
   2.980000      0.0000000E+00
   2.990000      0.0000000E+00
   3.000000      0.0000000E+00
   3.010000      0.0000000E+00
   3.020000      0.0000000E+00
   3.030000      0.0000000E+00
   3.040000      0.0000000E+00
   3.050000      0.0000000E+00
   3.060000      0.0000000E+00
   3.070000      0.0000000E+00
   3.080000      0.0000000E+00
   3.090000      0.0000000E+00
   3.100000      0.0000000E+00
   3.110000      0.0000000E+00
   3.120000      0.0000000E+00
   3.130000      0.0000000E+00
   3.140000      0.0000000E+00
   3.150000      0.0000000E+00
   3.160000      0.0000000E+00
   3.170000      0.0000000E+00
   3.180000      0.0000000E+00
   3.190000      0.0000000E+00
   3.200000      0.0000000E+00
   3.210000      0.0000000E+00
   3.220000      0.0000000E+00
   3.230000      0.0000000E+00
   3.240000      0.0000000E+00
   3.250000      0.0000000E+00
   3.260000      0.0000000E+00
   3.270000      0.0000000E+00
   3.280000      0.0000000E+00
   3.290000      0.0000000E+00
   3.300000      0.0000000E+00
   3.310000      0.0000000E+00
   3.320000      0.0000000E+00
   3.330000      0.0000000E+00
   3.340000      0.0000000E+00
   3.350000      0.0000000E+00
   3.360000      0.0000000E+00
   3.370000      0.0000000E+00
   3.380000      0.0000000E+00
   3.390000      0.0000000E+00
   3.400000      0.0000000E+00
   3.410000      0.0000000E+00
   3.420000      0.0000000E+00
   3.430000      0.0000000E+00
   3.440000      0.0000000E+00
   3.450000      0.0000000E+00
   3.460000      0.0000000E+00
   3.470000      0.0000000E+00
   3.480000      0.0000000E+00
   3.490000      0.0000000E+00
   3.500000      0.0000000E+00
   3.510000      0.0000000E+00
   3.520000      0.0000000E+00
   3.530000      0.0000000E+00
   3.540000      0.0000000E+00
   3.550000      0.0000000E+00
   3.560000      0.0000000E+00
   3.570000      0.0000000E+00
   3.580000      0.0000000E+00
   3.590000      0.0000000E+00
   3.600000      0.0000000E+00
   3.610000      0.0000000E+00
   3.620000      0.0000000E+00
   3.630000      0.0000000E+00
   3.640000      0.0000000E+00
   3.650000      0.0000000E+00
   3.660000      0.0000000E+00
   3.670000      0.0000000E+00
   3.680000      0.0000000E+00
   3.690000      0.0000000E+00
   3.700000      0.0000000E+00
   3.710000     -1.2039863E-38
   3.720000      0.0000000E+00
   3.730000      0.0000000E+00
   3.740000      0.0000000E+00
   3.750000      0.0000000E+00
   3.760000     -1.3369765E-38
   3.770000     -1.5119527E-38
   3.780000     -1.6248726E-38
   3.790000     -1.6551304E-38
   3.800000     -1.5712799E-38
   3.810000     -1.3782210E-38
   3.820000      0.0000000E+00
   3.830000      0.0000000E+00
   3.840000      0.0000000E+00
   3.850000      0.0000000E+00
   3.860000      0.0000000E+00
   3.870000      0.0000000E+00
   3.880000      0.0000000E+00
   3.890000      0.0000000E+00
   3.900000      0.0000000E+00
   3.910000      1.8081429E-38
   3.920000      3.2287366E-38
   3.930000      4.9738590E-38
   3.940000      6.7330127E-38
   3.950000      8.8427191E-38
   3.960000      1.1440395E-37
   3.970000      1.4118639E-37
   3.980000      1.6873457E-37
   3.990000      1.9675212E-37
   4.000000      2.2123911E-37
   4.010000      2.4305798E-37
   4.020000      2.6637433E-37
   4.030000      2.9246689E-37
   4.040000      3.2520741E-37
   4.050000      3.6332797E-37
   4.060000      4.0259287E-37
   4.070000      4.4089006E-37
   4.080000      4.7796371E-37
   4.090000      5.1532865E-37
   4.100000      5.5268377E-37
   4.110000      5.8978818E-37
   4.120000      6.2645969E-37
   4.130000      6.6542427E-37
   4.140000      7.0673943E-37
   4.150000      7.5291062E-37
   4.160000      8.0404075E-37
   4.170000      8.5107739E-37
   4.180000      8.9005528E-37
   4.190000      9.2250998E-37
   4.200000      9.4978889E-37
   4.210000      9.6962921E-37
   4.220000      9.7371437E-37
   4.230000      9.6445539E-37
   4.240000      9.4944343E-37
   4.250000      9.2366824E-37
   4.260000      8.9781269E-37
   4.270000      8.6656781E-37
   4.280000      8.2529332E-37
   4.290000      7.7451851E-37
   4.300000      7.0604206E-37
   4.310000      5.8740970E-37
   4.320000      4.1361761E-37
   4.330000      2.0559273E-37
   4.340000     -4.3047227E-38
   4.350000     -3.0446850E-37
   4.360000     -5.6963258E-37
   4.370000     -9.3995810E-37
   4.380000     -1.4315022E-36
   4.390000     -1.9749164E-36
   4.400000     -2.5558097E-36
   4.410000     -3.1479407E-36
   4.420000     -3.7643287E-36
   4.430000     -4.3978064E-36
   4.440000     -5.0379823E-36
   4.450000     -5.4719312E-36
   4.460000     -5.6429304E-36
   4.470000     -5.7328804E-36
   4.480000     -5.7369695E-36
   4.490000     -5.6724174E-36
   4.500000     -5.4903371E-36
   4.510000     -5.1869786E-36
   4.520000     -4.8779367E-36
   4.530000     -4.6249425E-36
   4.540000     -4.3264717E-36
   4.550000     -3.9613227E-36
   4.560000     -3.6748063E-36
   4.570000     -3.4825523E-36
   4.580000     -3.3775090E-36
   4.590000     -3.2734648E-36
   4.600000     -3.3870739E-36
   4.610000     -3.7600756E-36
   4.620000     -4.2217811E-36
   4.630000     -4.7488910E-36
   4.640000     -5.0982619E-36
   4.650000     -5.1336229E-36
   4.660000     -5.1901118E-36
   4.670000     -5.4047152E-36
   4.680000     -5.3476279E-36
   4.690000     -4.8358036E-36
   4.700000     -3.9660928E-36
   4.710000     -2.8246936E-36
   4.720000     -1.4180135E-36
   4.730000      2.6948992E-37
   4.740000      2.1883041E-36
   4.750000      4.2995403E-36
   4.760000      6.6443713E-36
   4.770000      9.2420825E-36
   4.780000      1.2006570E-35
   4.790000      1.4832093E-35
   4.800000      1.7716122E-35
   4.810000      2.0593989E-35
   4.820000      2.3373701E-35
   4.830000      2.5787729E-35
   4.840000      2.7803750E-35
   4.850000      2.9729251E-35
   4.860000      3.1730969E-35
   4.870000      3.3771712E-35
   4.880000      3.5556744E-35
   4.890000      3.7084803E-35
   4.900000      3.8644977E-35
   4.910000      4.0222598E-35
   4.920000      4.1537215E-35
   4.930000      4.2484467E-35
   4.940000      4.3303938E-35
   4.950000      4.4025116E-35
   4.960000      4.4643671E-35
   4.970000      4.5137984E-35
   4.980000      4.5601220E-35
   4.990000      4.6295499E-35
   5.000000      4.6994545E-35
   5.010000      4.7571083E-35
   5.020000      4.7869706E-35
   5.030000      4.7878660E-35
   5.040000      4.7743045E-35
   5.050000      4.7064274E-35
   5.060000      4.5730214E-35
   5.070000      4.3009232E-35
   5.080000      3.8803077E-35
   5.090000      3.3804775E-35
   5.100000      2.7046277E-35
   5.110000      1.8324506E-35
   5.120000      8.3634572E-36
   5.130000     -2.8635169E-36
   5.140000     -1.5671786E-35
   5.150000     -3.0162324E-35
   5.160000     -4.6164329E-35
   5.170000     -6.3090900E-35
   5.180000     -7.9972032E-35
   5.190000     -9.6990429E-35
   5.200000     -1.1438457E-34
   5.210000     -1.3160691E-34
   5.220000     -1.4808453E-34
   5.230000     -1.6365080E-34
   5.240000     -1.7895479E-34
   5.250000     -1.9390750E-34
   5.260000     -2.0829275E-34
   5.270000     -2.2282203E-34
   5.280000     -2.3759829E-34
   5.290000     -2.5244099E-34
   5.300000     -2.6685115E-34
   5.310000     -2.7882919E-34
   5.320000     -2.8838114E-34
   5.330000     -2.9737688E-34
   5.340000     -3.0647406E-34
   5.350000     -3.1592391E-34
   5.360000     -3.2618019E-34
   5.370000     -3.3674977E-34
   5.380000     -3.4807313E-34
   5.390000     -3.6031414E-34
   5.400000     -3.7256708E-34
   5.410000     -3.8340704E-34
   5.420000     -3.9277197E-34
   5.430000     -4.0016390E-34
   5.440000     -4.0323901E-34
   5.450000     -4.0220246E-34
   5.460000     -3.9730855E-34
   5.470000     -3.9093250E-34
   5.480000     -3.8397904E-34
   5.490000     -3.7360544E-34
   5.500000     -3.5829630E-34
   5.510000     -3.3807332E-34
   5.520000     -3.1348552E-34
   5.530000     -2.8395653E-34
   5.540000     -2.4892780E-34
   5.550000     -2.0844931E-34
   5.560000     -1.6219262E-34
   5.570000     -1.0960448E-34
   5.580000     -5.0559430E-35
   5.590000      1.4984742E-35
   5.600000      8.6797728E-35
   5.610000      1.6561860E-34
   5.620000      2.5146859E-34
   5.630000      3.4433662E-34
   5.640000      4.4452848E-34
   5.650000      5.5028279E-34
   5.660000      6.6223697E-34
   5.670000      7.8273744E-34
   5.680000      9.0933920E-34
   5.690000      1.0395673E-33
   5.700000      1.1767436E-33
   5.710000      1.3258806E-33
   5.720000      1.4856006E-33
   5.730000      1.6511602E-33
   5.740000      1.8222135E-33
   5.750000      2.0000304E-33
   5.760000      2.1841188E-33
   5.770000      2.3746687E-33
   5.780000      2.5703304E-33
   5.790000      2.7659219E-33
   5.800000      2.9594468E-33
   5.810000      3.1532129E-33
   5.820000      3.3461119E-33
   5.830000      3.5357437E-33
   5.840000      3.7227050E-33
   5.850000      3.9044166E-33
   5.860000      4.0800902E-33
   5.870000      4.2504270E-33
   5.880000      4.4120494E-33
   5.890000      4.5623584E-33
   5.900000      4.7009716E-33
   5.910000      4.8247615E-33
   5.920000      4.9323512E-33
   5.930000      5.0227944E-33
   5.940000      5.0967249E-33
   5.950000      5.1519423E-33
   5.960000      5.1834298E-33
   5.970000      5.1874176E-33
   5.980000      5.1598508E-33
   5.990000      5.0998400E-33
   6.000000      5.0065024E-33
   6.010000      4.8788011E-33
   6.020000      4.7105963E-33
   6.030000      4.4961796E-33
   6.040000      4.2355379E-33
   6.050000      3.9241374E-33
   6.060000      3.5579209E-33
   6.070000      3.1349916E-33
   6.080000      2.6510053E-33
   6.090000      2.1033332E-33
   6.100000      1.4886123E-33
   6.110000      8.0005670E-34
   6.120000      3.6503829E-35
   6.130000     -7.9854206E-34
   6.140000     -1.7108799E-33
   6.150000     -2.7047216E-33
   6.160000     -3.7778085E-33
   6.170000     -4.9306827E-33
   6.180000     -6.1671789E-33
   6.190000     -7.4902067E-33
   6.200000     -8.9003091E-33
   6.210000     -1.0397311E-32
   6.220000     -1.1981472E-32
   6.230000     -1.3653264E-32
   6.240000     -1.5412441E-32
   6.250000     -1.7257878E-32
   6.260000     -1.9187079E-32
   6.270000     -2.1196967E-32
   6.280000     -2.3286174E-32
   6.290000     -2.5452959E-32
   6.300000     -2.7693424E-32
   6.310000     -3.0001181E-32
   6.320000     -3.2369720E-32
   6.330000     -3.4793372E-32
   6.340000     -3.7263441E-32
   6.350000     -3.9771902E-32
   6.360000     -4.2310844E-32
   6.370000     -4.4869119E-32
   6.380000     -4.7434368E-32
   6.390000     -4.9994321E-32
   6.400000     -5.2535775E-32
   6.410000     -5.5042952E-32
   6.420000     -5.7500082E-32
   6.430000     -5.9890808E-32
   6.440000     -6.2196088E-32
   6.450000     -6.4396560E-32
   6.460000     -6.6470708E-32
   6.470000     -6.8395610E-32
   6.480000     -7.0148407E-32
   6.490000     -7.1704609E-32
   6.500000     -7.3038548E-32
   6.510000     -7.4123118E-32
   6.520000     -7.4928461E-32
   6.530000     -7.5425413E-32
   6.540000     -7.5584534E-32
   6.550000     -7.5373333E-32
   6.560000     -7.4758831E-32
   6.570000     -7.3707769E-32
   6.580000     -7.2184516E-32
   6.590000     -7.0153491E-32
   6.600000     -6.7579652E-32
   6.610000     -6.4425830E-32
   6.620000     -6.0654891E-32
   6.630000     -5.6228362E-32
   6.640000     -5.1108032E-32
   6.650000     -4.5256103E-32
   6.660000     -3.8634635E-32
   6.670000     -3.1206186E-32
   6.680000     -2.2933516E-32
   6.690000     -1.3780257E-32
   6.700000     -3.7098782E-33
   6.710000      7.3108945E-33
   6.720000      1.9313928E-32
   6.730000      3.2331282E-32
   6.740000      4.6391913E-32
   6.750000      6.1522283E-32
   6.760000      7.7746291E-32
   6.770000      9.5084804E-32
   6.780000      1.1355505E-31
   6.790000      1.3317049E-31
   6.800000      1.5394035E-31
   6.810000      1.7586932E-31
   6.820000      1.9895672E-31
   6.830000      2.2319633E-31
   6.840000      2.4857681E-31
   6.850000      2.7508014E-31
   6.860000      3.0268140E-31
   6.870000      3.3134830E-31
   6.880000      3.6104058E-31
   6.890000      3.9171055E-31
   6.900000      4.2330102E-31
   6.910000      4.5574555E-31
   6.920000      4.8896907E-31
   6.930000      5.2288570E-31
   6.940000      5.5739911E-31
   6.950000      5.9240199E-31
   6.960000      6.2777553E-31
   6.970000      6.6338906E-31
   6.980000      6.9909945E-31
   6.990000      7.3475083E-31
   7.000000      7.7017445E-31
   7.010000      8.0518786E-31
   7.020000      8.3959487E-31
   7.030000      8.7318513E-31
   7.040000      9.0573410E-31
   7.050000      9.3700244E-31
   7.060000      9.6673633E-31