  -2.600000      0.0000000E+00
  -2.590000      0.0000000E+00
  -2.580000      0.0000000E+00
  -2.570000      0.0000000E+00
  -2.560000      0.0000000E+00
  -2.550000      0.0000000E+00
  -2.540000      0.0000000E+00
  -2.530000      0.0000000E+00
  -2.520000      0.0000000E+00
  -2.510000      0.0000000E+00
  -2.500000      0.0000000E+00
  -2.490000      0.0000000E+00
  -2.480000      0.0000000E+00
  -2.470000      0.0000000E+00
  -2.460000      0.0000000E+00
  -2.450000      0.0000000E+00
  -2.440000      0.0000000E+00
  -2.430000      0.0000000E+00
  -2.420000      0.0000000E+00
  -2.410000      0.0000000E+00
  -2.400000      0.0000000E+00
  -2.390000      0.0000000E+00
  -2.380000      0.0000000E+00
  -2.370000      0.0000000E+00
  -2.360000      0.0000000E+00
  -2.350000      0.0000000E+00
  -2.340000      0.0000000E+00
  -2.330000      0.0000000E+00
  -2.320000      0.0000000E+00
  -2.310000      0.0000000E+00
  -2.300000      0.0000000E+00
  -2.290000      0.0000000E+00
  -2.280000      0.0000000E+00
  -2.270000      0.0000000E+00
  -2.260000      0.0000000E+00
  -2.250000      0.0000000E+00
  -2.240000      0.0000000E+00
  -2.230000      0.0000000E+00
  -2.220000      0.0000000E+00
  -2.210000      0.0000000E+00
  -2.200000      0.0000000E+00
  -2.190000      0.0000000E+00
  -2.180000      0.0000000E+00
  -2.170000      0.0000000E+00
  -2.160000      0.0000000E+00
  -2.150000      0.0000000E+00
  -2.140000      0.0000000E+00
  -2.130000      0.0000000E+00
  -2.120000      0.0000000E+00
  -2.110000      0.0000000E+00
  -2.100000      0.0000000E+00
  -2.090000      0.0000000E+00
  -2.080000      0.0000000E+00
  -2.070000      0.0000000E+00
  -2.060000      0.0000000E+00
  -2.050000      0.0000000E+00
  -2.040000      0.0000000E+00
  -2.030000      0.0000000E+00
  -2.020000      0.0000000E+00
  -2.010000      0.0000000E+00
  -2.000000      0.0000000E+00
  -1.990000      0.0000000E+00
  -1.980000      0.0000000E+00
  -1.970000      0.0000000E+00
  -1.960000      0.0000000E+00
  -1.950000      0.0000000E+00
  -1.940000      0.0000000E+00
  -1.930000      0.0000000E+00
  -1.920000      0.0000000E+00
  -1.910000      0.0000000E+00
  -1.900000      0.0000000E+00
  -1.890000      0.0000000E+00
  -1.880000      0.0000000E+00
  -1.870000      0.0000000E+00
  -1.860000      0.0000000E+00
  -1.850000      0.0000000E+00
  -1.840000      0.0000000E+00
  -1.830000      0.0000000E+00
  -1.820000      0.0000000E+00
  -1.810000      0.0000000E+00
  -1.800000      0.0000000E+00
  -1.790000      0.0000000E+00
  -1.780000      0.0000000E+00
  -1.770000      0.0000000E+00
  -1.760000      0.0000000E+00
  -1.750000      0.0000000E+00
  -1.740000      0.0000000E+00
  -1.730000      0.0000000E+00
  -1.720000      0.0000000E+00
  -1.710000      0.0000000E+00
  -1.700000      0.0000000E+00
  -1.690000      0.0000000E+00
  -1.680000      0.0000000E+00
  -1.670000      0.0000000E+00
  -1.660000      0.0000000E+00
  -1.650000      0.0000000E+00
  -1.640000      0.0000000E+00
  -1.630000      0.0000000E+00
  -1.620000      0.0000000E+00
  -1.610000      0.0000000E+00
  -1.600000      0.0000000E+00
  -1.590000      0.0000000E+00
  -1.580000      0.0000000E+00
  -1.570000      0.0000000E+00
  -1.560000      0.0000000E+00
  -1.550000      0.0000000E+00
  -1.540000      0.0000000E+00
  -1.530000      0.0000000E+00
  -1.520000      0.0000000E+00
  -1.510000      0.0000000E+00
  -1.500000      0.0000000E+00
  -1.490000      0.0000000E+00
  -1.480000      0.0000000E+00
  -1.470000      0.0000000E+00
  -1.460000      0.0000000E+00
  -1.450000      0.0000000E+00
  -1.440000      0.0000000E+00
  -1.430000      0.0000000E+00
  -1.420000      0.0000000E+00
  -1.410000      0.0000000E+00
  -1.400000      0.0000000E+00
  -1.390000      0.0000000E+00
  -1.380000      0.0000000E+00
  -1.370000      0.0000000E+00
  -1.360000      0.0000000E+00
  -1.350000      0.0000000E+00
  -1.340000      0.0000000E+00
  -1.330000      0.0000000E+00
  -1.320000      0.0000000E+00
  -1.310000      0.0000000E+00
  -1.300000      0.0000000E+00
  -1.290000      0.0000000E+00
  -1.280000      0.0000000E+00
  -1.270000      0.0000000E+00
  -1.260000      0.0000000E+00
  -1.250000      0.0000000E+00
  -1.240000      0.0000000E+00
  -1.230000      0.0000000E+00
  -1.220000      0.0000000E+00
  -1.210000      0.0000000E+00
  -1.200000      0.0000000E+00
  -1.190000      0.0000000E+00
  -1.180000      0.0000000E+00
  -1.170000      0.0000000E+00
  -1.160000      0.0000000E+00
  -1.150000      0.0000000E+00
  -1.140000      0.0000000E+00
  -1.130000      0.0000000E+00
  -1.120000      0.0000000E+00
  -1.110000      0.0000000E+00
  -1.100000      0.0000000E+00
  -1.090000      0.0000000E+00
  -1.080000      0.0000000E+00
  -1.070000      0.0000000E+00
  -1.060000      0.0000000E+00
  -1.050000      0.0000000E+00
  -1.040000      0.0000000E+00
  -1.030000      0.0000000E+00
  -1.020000      0.0000000E+00
  -1.010000      0.0000000E+00
  -1.000000      0.0000000E+00
 -0.9900000      0.0000000E+00
 -0.9800000      0.0000000E+00
 -0.9700000      0.0000000E+00
 -0.9600000      0.0000000E+00
 -0.9500000      0.0000000E+00
 -0.9400000      0.0000000E+00
 -0.9300000      0.0000000E+00
 -0.9200000      0.0000000E+00
 -0.9100000      0.0000000E+00
 -0.9000000      0.0000000E+00
 -0.8900000      0.0000000E+00
 -0.8800000      0.0000000E+00
 -0.8700000      0.0000000E+00
 -0.8600000      0.0000000E+00
 -0.8500000      0.0000000E+00
 -0.8400000      0.0000000E+00
 -0.8300000      0.0000000E+00
 -0.8200000      0.0000000E+00
 -0.8100000      0.0000000E+00
 -0.8000000      0.0000000E+00
 -0.7900000      0.0000000E+00
 -0.7800000      0.0000000E+00
 -0.7700000      0.0000000E+00
 -0.7600000      0.0000000E+00
 -0.7500000      0.0000000E+00
 -0.7400000      0.0000000E+00
 -0.7300000      0.0000000E+00
 -0.7200000      0.0000000E+00
 -0.7100000      0.0000000E+00
 -0.7000000      0.0000000E+00
 -0.6900000      0.0000000E+00
 -0.6800000      0.0000000E+00
 -0.6700000      0.0000000E+00
 -0.6600000      0.0000000E+00
 -0.6500000      0.0000000E+00
 -0.6400000      0.0000000E+00
 -0.6300000      0.0000000E+00
 -0.6200000      0.0000000E+00
 -0.6100000      0.0000000E+00
 -0.6000000      0.0000000E+00
 -0.5900000      0.0000000E+00
 -0.5800000      0.0000000E+00
 -0.5700000      0.0000000E+00
 -0.5600000      0.0000000E+00
 -0.5500000      0.0000000E+00
 -0.5400000      0.0000000E+00
 -0.5300000      0.0000000E+00
 -0.5200000      0.0000000E+00
 -0.5100000      0.0000000E+00
 -0.5000000      0.0000000E+00
 -0.4900000      0.0000000E+00
 -0.4800000      0.0000000E+00
 -0.4700000      0.0000000E+00
 -0.4600000      0.0000000E+00
 -0.4500000      0.0000000E+00
 -0.4400000      0.0000000E+00
 -0.4300000      0.0000000E+00
 -0.4200000      0.0000000E+00
 -0.4100000      0.0000000E+00
 -0.4000000      0.0000000E+00
 -0.3900000      0.0000000E+00
 -0.3800000      0.0000000E+00
 -0.3700000      0.0000000E+00
 -0.3600000      0.0000000E+00
 -0.3500000      0.0000000E+00
 -0.3400000      0.0000000E+00
 -0.3300000      0.0000000E+00
 -0.3200000      0.0000000E+00
 -0.3100000      0.0000000E+00
 -0.3000000      0.0000000E+00
 -0.2900000      0.0000000E+00
 -0.2800000      0.0000000E+00
 -0.2700000      0.0000000E+00
 -0.2600000      0.0000000E+00
 -0.2500000      0.0000000E+00
 -0.2400000      0.0000000E+00
 -0.2300000      0.0000000E+00
 -0.2200000      0.0000000E+00
 -0.2100000      0.0000000E+00
 -0.2000000      0.0000000E+00
 -0.1900000      0.0000000E+00
 -0.1800000      0.0000000E+00
 -0.1700000      0.0000000E+00
 -0.1600000      0.0000000E+00
 -0.1500000      0.0000000E+00
 -0.1400000      0.0000000E+00
 -0.1300000      0.0000000E+00
 -0.1200000      0.0000000E+00
 -0.1100000      0.0000000E+00
 -0.1000000      0.0000000E+00
 -9.0000004E-02  0.0000000E+00
 -7.9999998E-02  0.0000000E+00
 -7.0000000E-02  0.0000000E+00
 -5.9999999E-02  0.0000000E+00
 -5.0000001E-02  0.0000000E+00
 -3.9999999E-02  0.0000000E+00
 -2.9999999E-02  0.0000000E+00
 -2.0000000E-02  0.0000000E+00
 -9.9999998E-03  0.0000000E+00
 -3.4694470E-17  0.0000000E+00
  9.9999998E-03  0.0000000E+00
  2.0000000E-02  0.0000000E+00
  2.9999999E-02  0.0000000E+00
  3.9999999E-02  0.0000000E+00
  5.0000001E-02  0.0000000E+00
  5.9999999E-02  0.0000000E+00
  7.0000000E-02  0.0000000E+00
  7.9999998E-02  0.0000000E+00
  9.0000004E-02  0.0000000E+00
  0.1000000      0.0000000E+00
  0.1100000      0.0000000E+00
  0.1200000      0.0000000E+00
  0.1300000      0.0000000E+00
  0.1400000      0.0000000E+00
  0.1500000      0.0000000E+00
  0.1600000      0.0000000E+00
  0.1700000      0.0000000E+00
  0.1800000      0.0000000E+00
  0.1900000      0.0000000E+00
  0.2000000      0.0000000E+00
  0.2100000      0.0000000E+00
  0.2200000      0.0000000E+00
  0.2300000      0.0000000E+00
  0.2400000      0.0000000E+00
  0.2500000      0.0000000E+00
  0.2600000      0.0000000E+00
  0.2700000      0.0000000E+00
  0.2800000      0.0000000E+00
  0.2900000      0.0000000E+00
  0.3000000      0.0000000E+00
  0.3100000      0.0000000E+00
  0.3200000      0.0000000E+00
  0.3300000      0.0000000E+00
  0.3400000      0.0000000E+00
  0.3500000      0.0000000E+00
  0.3600000      0.0000000E+00
  0.3700000      0.0000000E+00
  0.3800000      0.0000000E+00
  0.3900000      0.0000000E+00
  0.4000000      0.0000000E+00
  0.4100000      0.0000000E+00
  0.4200000      0.0000000E+00
  0.4300000      0.0000000E+00
  0.4400000      0.0000000E+00
  0.4500000      0.0000000E+00
  0.4600000      0.0000000E+00
  0.4700000      0.0000000E+00
  0.4800000      0.0000000E+00
  0.4900000      0.0000000E+00
  0.5000000      0.0000000E+00
  0.5100000      0.0000000E+00
  0.5200000      0.0000000E+00
  0.5300000      0.0000000E+00
  0.5400000      0.0000000E+00
  0.5500000      0.0000000E+00
  0.5600000      0.0000000E+00
  0.5700000      0.0000000E+00
  0.5800000      0.0000000E+00
  0.5900000      0.0000000E+00
  0.6000000      0.0000000E+00
  0.6100000      0.0000000E+00
  0.6200000      0.0000000E+00
  0.6300000      0.0000000E+00
  0.6400000      0.0000000E+00
  0.6500000      0.0000000E+00
  0.6600000      0.0000000E+00
  0.6700000      0.0000000E+00
  0.6800000      0.0000000E+00
  0.6900000      0.0000000E+00
  0.7000000      0.0000000E+00
  0.7100000      0.0000000E+00
  0.7200000      0.0000000E+00
  0.7300000      0.0000000E+00
  0.7400000      0.0000000E+00
  0.7500000      0.0000000E+00
  0.7600000      0.0000000E+00
  0.7700000      0.0000000E+00
  0.7800000      0.0000000E+00
  0.7900000      0.0000000E+00
  0.8000000      0.0000000E+00
  0.8100000      0.0000000E+00
  0.8200000      0.0000000E+00
  0.8300000      0.0000000E+00
  0.8400000      0.0000000E+00
  0.8500000     -1.7269719E-38
  0.8600000     -2.2251606E-38
  0.8700000     -2.5987086E-38
  0.8800000     -2.7930275E-38
  0.8900000     -2.7360958E-38
  0.9000000     -2.5686516E-38
  0.9100000     -2.4034682E-38
  0.9200000     -2.4576847E-38
  0.9300000     -2.7473437E-38
  0.9400000     -3.1289610E-38
  0.9500000     -3.5602779E-38
  0.9600000     -4.0938380E-38
  0.9700000     -4.7885821E-38
  0.9800000     -5.5983168E-38
  0.9900000     -6.4576525E-38
   1.000000     -7.2887559E-38
   1.010000     -8.0359887E-38
   1.020000     -8.2743502E-38
   1.030000     -7.7169865E-38
   1.040000     -6.3684425E-38
   1.050000     -4.6794936E-38
   1.060000     -3.0847021E-38
   1.070000      0.0000000E+00
   1.080000      0.0000000E+00
   1.090000      2.7046963E-38
   1.100000      5.2122485E-38
   1.110000      8.2669020E-38
   1.120000      1.1493822E-37
   1.130000      1.4959849E-37
   1.140000      1.9289288E-37
   1.150000      2.4901009E-37
   1.160000      3.2251400E-37
   1.170000      4.1517935E-37
   1.180000      5.2940872E-37
   1.190000      7.0275248E-37
   1.200000      9.2942051E-37
   1.210000      1.1709291E-36
   1.220000      1.4231985E-36
   1.230000      1.6230076E-36
   1.240000      1.7438660E-36
   1.250000      1.8207259E-36
   1.260000      1.5167954E-36
   1.270000      8.2013259E-37
   1.280000      9.1988927E-38
   1.290000     -3.1532435E-37
   1.300000     -4.0008726E-37
   1.310000     -4.7196553E-37
   1.320000     -5.4183382E-37
   1.330000     -6.6764473E-37
   1.340000     -7.9284911E-37
   1.350000     -8.7154702E-37
   1.360000     -6.6569659E-37
   1.370000      4.7567594E-37
   1.380000      2.3840938E-36
   1.390000      4.5543956E-36
   1.400000      6.6279730E-36
   1.410000      7.7938260E-36
   1.420000      8.3305528E-36
   1.430000      8.6417231E-36
   1.440000      8.5035465E-36
   1.450000      8.1129465E-36
   1.460000      7.4911204E-36
   1.470000      6.3018070E-36
   1.480000      4.5147890E-36
   1.490000      2.4514634E-36
   1.500000      2.1628918E-37
   1.510000     -1.9188317E-36
   1.520000     -3.7189523E-36
   1.530000     -5.1070584E-36
   1.540000     -6.1426898E-36
   1.550000     -7.0196786E-36
   1.560000     -7.8256994E-36
   1.570000     -8.7964795E-36
   1.580000     -1.0175013E-35
   1.590000     -1.2213051E-35
   1.600000     -1.5249184E-35
   1.610000     -1.9391085E-35
   1.620000     -2.4348649E-35
   1.630000     -2.9749437E-35
   1.640000     -3.5583833E-35
   1.650000     -4.1674730E-35
   1.660000     -4.7567613E-35
   1.670000     -5.3360338E-35
   1.680000     -5.8989590E-35
   1.690000     -6.3801999E-35
   1.700000     -6.7886917E-35
   1.710000     -7.1460299E-35
   1.720000     -7.3839665E-35
   1.730000     -7.5870687E-35
   1.740000     -7.7762527E-35
   1.750000     -7.8940185E-35
   1.760000     -7.8915384E-35
   1.770000     -7.8187163E-35
   1.780000     -7.6080279E-35
   1.790000     -7.1743434E-35
   1.800000     -6.6476094E-35
   1.810000     -6.0994927E-35
   1.820000     -5.6039357E-35
   1.830000     -4.9894925E-35
   1.840000     -4.4173792E-35
   1.850000     -4.2628252E-35
   1.860000     -4.2014326E-35
   1.870000     -3.8699409E-35
   1.880000     -3.0473141E-35
   1.890000     -9.3257576E-36
   1.900000      2.4455078E-35
   1.910000      6.4339472E-35
   1.920000      1.1035296E-34
   1.930000      1.6225337E-34
   1.940000      2.1458479E-34
   1.950000      2.6216128E-34
   1.960000      2.9794016E-34
   1.970000      3.1769181E-34
   1.980000      3.2856642E-34
   1.990000      3.3417442E-34
   2.000000      3.4912251E-34
   2.010000      3.7849708E-34
   2.020000      4.1066221E-34
   2.030000      4.4611163E-34
   2.040000      4.8929365E-34
   2.050000      5.3903758E-34
   2.060000      5.9120083E-34
   2.070000      6.4476655E-34
   2.080000      6.9674847E-34
   2.090000      7.5709491E-34
   2.100000      8.2626995E-34
   2.110000      8.8729730E-34
   2.120000      9.3103818E-34
   2.130000      9.5719183E-34
   2.140000      9.8267122E-34
   2.150000      1.0067187E-33
   2.160000      1.0067315E-33
   2.170000      9.6750752E-34
   2.180000      9.0600988E-34
   2.190000      8.4291036E-34
   2.200000      7.5895559E-34
   2.210000      6.4758209E-34
   2.220000      5.2115969E-34
   2.230000      3.8199581E-34
   2.240000      2.3009035E-34
   2.250000      6.6305056E-35
   2.260000     -1.1227539E-34
   2.270000     -3.0427485E-34
   2.280000     -5.1024385E-34
   2.290000     -7.3575394E-34
   2.300000     -9.8039673E-34
   2.310000     -1.2442430E-33
   2.320000     -1.5374058E-33
   2.330000     -1.8643910E-33
   2.340000     -2.2213486E-33
   2.350000     -2.6055277E-33
   2.360000     -3.0122754E-33
   2.370000     -3.4347721E-33
   2.380000     -3.8700804E-33
   2.390000     -4.3148283E-33
   2.400000     -4.7597735E-33
   2.410000     -5.1989951E-33
   2.420000     -5.6254572E-33
   2.430000     -6.0347125E-33
   2.440000     -6.4242970E-33
   2.450000     -6.7904944E-33
   2.460000     -7.1310586E-33
   2.470000     -7.4445468E-33
   2.480000     -7.7290877E-33
   2.490000     -7.9809667E-33
   2.500000     -8.1935064E-33
   2.510000     -8.3706460E-33
   2.520000     -8.5052710E-33
   2.530000     -8.5816855E-33
   2.540000     -8.5940267E-33
   2.550000     -8.5310569E-33
   2.560000     -8.3747133E-33
   2.570000     -8.1258134E-33
   2.580000     -7.7743721E-33
   2.590000     -7.2975586E-33
   2.600000     -6.6915045E-33
   2.610000     -5.9471011E-33
   2.620000     -5.0603607E-33
   2.630000     -4.0291366E-33
   2.640000     -2.8494677E-33
   2.650000     -1.5200434E-33
   2.660000     -4.0622855E-35
   2.670000      1.5885542E-33
   2.680000      3.3673733E-33
   2.690000      5.2957758E-33
   2.700000      7.3741472E-33
   2.710000      9.6035302E-33
   2.720000      1.1984041E-32
   2.730000      1.4513121E-32
   2.740000      1.7188994E-32
   2.750000      2.0009476E-32
   2.760000      2.2968709E-32
   2.770000      2.6058732E-32
   2.780000      2.9266850E-32
   2.790000      3.2576936E-32
   2.800000      3.5970674E-32
   2.810000      3.9425778E-32
   2.820000      4.2916805E-32
   2.830000      4.6415593E-32
   2.840000      4.9892006E-32
   2.850000      5.3314117E-32
   2.860000      5.6648695E-32
   2.870000      5.9861550E-32
   2.880000      6.2917647E-32
   2.890000      6.5781105E-32
   2.900000      6.8415017E-32
   2.910000      7.0781123E-32
   2.920000      7.2839596E-32
   2.930000      7.4548659E-32
   2.940000      7.5864172E-32
   2.950000      7.6739545E-32
   2.960000      7.7125795E-32
   2.970000      7.6971752E-32
   2.980000      7.6216779E-32
   2.990000      7.4815655E-32
   3.000000      7.2722510E-32
   3.010000      6.9875616E-32
   3.020000      6.6222432E-32
   3.030000      6.1712501E-32
   3.040000      5.6298797E-32
   3.050000      4.9938356E-32
   3.060000      4.2592953E-32
   3.070000      3.4229487E-32
   3.080000      2.4820252E-32
   3.090000      1.4343060E-32
   3.100000      2.7812707E-33
   3.110000     -9.8762295E-33
   3.120000     -2.3634954E-32
   3.130000     -3.8494704E-32
   3.140000     -5.4449016E-32
   3.150000     -7.1484744E-32
   3.160000     -8.9581439E-32
   3.170000     -1.0871023E-31
   3.180000     -1.2883284E-31
   3.190000     -1.4990039E-31
   3.200000     -1.7185231E-31
   3.210000     -1.9461534E-31
   3.220000     -2.1810261E-31
   3.230000     -2.4221315E-31
   3.240000     -2.6683141E-31
   3.250000     -2.9182717E-31
   3.260000     -3.1705572E-31
   3.270000     -3.4235826E-31
   3.280000     -3.6756232E-31
   3.290000     -3.9248238E-31
   3.300000     -4.1692053E-31
   3.310000     -4.4066688E-31
   3.320000     -4.6350010E-31
   3.330000     -4.8518779E-31
   3.340000     -5.0548660E-31
   3.350000     -5.2414259E-31
   3.360000     -5.4089136E-31
   3.370000     -5.5545837E-31
   3.380000     -5.6755956E-31
   3.390000     -5.7690188E-31
   3.400000     -5.8318452E-31
   3.410000     -5.8610035E-31
   3.420000     -5.8533769E-31
   3.430000     -5.8058235E-31
   3.440000     -5.7152032E-31
   3.450000     -5.5784044E-31
   3.460000     -5.3923711E-31
   3.470000     -5.1541351E-31
   3.480000     -4.8608436E-31
   3.490000     -4.5097902E-31
   3.500000     -4.0984405E-31
   3.510000     -3.6244633E-31
   3.520000     -3.0857531E-31
   3.530000     -2.4804588E-31
   3.540000     -1.8070086E-31
   3.550000     -1.0641368E-31
   3.560000     -2.5091247E-32
   3.570000      6.3322923E-32
   3.580000      1.5884550E-31
   3.590000      2.6144964E-31
   3.600000      3.7106130E-31
   3.610000      4.8755504E-31
   3.620000      6.1075005E-31
   3.630000      7.4040623E-31
   3.640000      8.7621979E-31
   3.650000      1.0178200E-30
   3.660000      1.1647654E-30
   3.670000      1.3165405E-30
   3.680000      1.4725540E-30
   3.690000      1.6321359E-30
   3.700000      1.7945362E-30
   3.710000      1.9589237E-30
   3.720000      2.1243842E-30
   3.730000      2.2899213E-30
   3.740000      2.4544553E-30
   3.750000      2.6168235E-30
   3.760000      2.7757802E-30
   3.770000      2.9299977E-30
   3.780000      3.0780669E-30
   3.790000      3.2184983E-30
   3.800000      3.3497241E-30
   3.810000      3.4701007E-30
   3.820000      3.5779129E-30
   3.830000      3.6713766E-30
   3.840000      3.7486451E-30
   3.850000      3.8078140E-30
   3.860000      3.8469296E-30
   3.870000      3.8639970E-30
   3.880000      3.8569884E-30
   3.890000      3.8238542E-30
   3.900000      3.7625329E-30
   3.910000      3.6709654E-30
   3.920000      3.5471052E-30
   3.930000      3.3889337E-30
   3.940000      3.1944712E-30
   3.950000      2.9617934E-30
   3.960000      2.6890471E-30
   3.970000      2.3744661E-30
   3.980000      2.0163868E-30
   3.990000      1.6132686E-30
   4.000000      1.1637114E-30
   4.010000      6.6647520E-31
   4.020000      1.2050288E-31
   4.030000     -4.7506015E-31
   4.040000     -1.1208431E-30
   4.050000     -1.8172246E-30
   4.060000     -2.5643108E-30
   4.070000     -3.3619093E-30
   4.080000     -4.2095070E-30
   4.090000     -5.1062418E-30
   4.100000     -6.0508799E-30
   4.110000     -7.0417919E-30
   4.120000     -8.0769296E-30
   4.130000     -9.1538028E-30
   4.140000     -1.0269458E-29
   4.150000     -1.1420452E-29
   4.160000     -1.2602835E-29
   4.170000     -1.3812130E-29
   4.180000     -1.5043314E-29
   4.190000     -1.6290797E-29
   4.200000     -1.7548413E-29
   4.210000     -1.8809395E-29
   4.220000     -2.0066366E-29
   4.230000     -2.1311330E-29
   4.240000     -2.2535658E-29
   4.250000     -2.3730084E-29
   4.260000     -2.4884699E-29
   4.270000     -2.5988953E-29
   4.280000     -2.7031655E-29
   4.290000     -2.8000984E-29
   4.300000     -2.8884507E-29
   4.310000     -2.9669170E-29
   4.320000     -3.0341347E-29
   4.330000     -3.0886843E-29
   4.340000     -3.1290930E-29
   4.350000     -3.1538385E-29
   4.360000     -3.1613523E-29
   4.370000     -3.1500239E-29
   4.380000     -3.1182076E-29
   4.390000     -3.0642253E-29
   4.400000     -2.9863741E-29
   4.410000     -2.8829333E-29
   4.420000     -2.7521716E-29
   4.430000     -2.5923553E-29
   4.440000     -2.4017565E-29
   4.450000     -2.1786637E-29
   4.460000     -1.9213914E-29
   4.470000     -1.6282912E-29
   4.480000     -1.2977628E-29
   4.490000     -9.2826882E-30
   4.500000     -5.1834561E-30
   4.510000     -6.6618387E-31
   4.520000      4.2818505E-30
   4.530000      9.6721895E-30
   4.540000      1.5515030E-29
   4.550000      2.1819060E-29
   4.560000      2.8591291E-29
   4.570000      3.5836886E-29
   4.580000      4.3558968E-29
   4.590000      5.1758434E-29
   4.600000      6.0433774E-29
   4.610000      6.9580870E-29
   4.620000      7.9192789E-29
   4.630000      8.9259583E-29
   4.640000      9.9768094E-29
   4.650000      1.1070174E-28
   4.660000      1.2204029E-28
   4.670000      1.3375970E-28
   4.680000      1.4583185E-28
   4.690000      1.5822435E-28
   4.700000      1.7090039E-28
   4.710000      1.8381846E-28
   4.720000      1.9693221E-28
   4.730000      2.1019029E-28
   4.740000      2.2353612E-28
   4.750000      2.3690770E-28
   4.760000      2.5023762E-28
   4.770000      2.6345265E-28
   4.780000      2.7647386E-28
   4.790000      2.8921637E-28
   4.800000      3.0158934E-28
   4.810000      3.1349580E-28
   4.820000      3.2483269E-28
   4.830000      3.3549083E-28
   4.840000      3.4535487E-28
   4.850000      3.5430332E-28
   4.860000      3.6220871E-28
   4.870000      3.6893752E-28
   4.880000      3.7435037E-28
   4.890000      3.7830231E-28
   4.900000      3.8064289E-28
   4.910000      3.8121631E-28
   4.920000      3.7986197E-28
   4.930000      3.7641461E-28
   4.940000      3.7070475E-28
   4.950000      3.6255913E-28
   4.960000      3.5180125E-28
   4.970000      3.3825175E-28
   4.980000      3.2172920E-28
   4.990000      3.0205055E-28
   5.000000      2.7903203E-28
   5.010000      2.5248987E-28
   5.020000      2.2224119E-28
   5.030000      1.8810487E-28
   5.040000      1.4990237E-28
   5.050000      1.0745885E-28
   5.060000      6.0604387E-29
   5.070000      9.1751461E-30
   5.080000     -4.6985480E-29
   5.090000     -1.0802542E-28
   5.100000     -1.7408264E-28
   5.110000     -2.4528360E-28
   5.120000     -3.2174169E-28
   5.130000     -4.0355592E-28
   5.140000     -4.9080885E-28
   5.150000     -5.8356510E-28
   5.160000     -6.8186938E-28
   5.170000     -7.8574480E-28
   5.180000     -8.9519092E-28
   5.190000     -1.0101818E-27
   5.200000     -1.1306640E-27
   5.210000     -1.2565542E-27
   5.220000     -1.3877379E-27
   5.230000     -1.5240664E-27
   5.240000     -1.6653555E-27
   5.250000     -1.8113826E-27
   5.260000     -1.9618849E-27
   5.270000     -2.1165569E-27
   5.280000     -2.2750492E-27
   5.290000     -2.4369649E-27
   5.300000     -2.6018582E-27
   5.310000     -2.7692325E-27
   5.320000     -2.9385385E-27
   5.330000     -3.1091710E-27
   5.340000     -3.2804688E-27
   5.350000     -3.4517121E-27
   5.360000     -3.6221199E-27
   5.370000     -3.7908495E-27
   5.380000     -3.9569949E-27
   5.390000     -4.1195850E-27
   5.400000     -4.2775832E-27
   5.410000     -4.4298858E-27
   5.420000     -4.5753220E-27
   5.430000     -4.7126520E-27
   5.440000     -4.8405695E-27
   5.450000     -4.9576988E-27
   5.460000     -5.0625965E-27
   5.470000     -5.1537523E-27
   5.480000     -5.2295893E-27
   5.490000     -5.2884661E-27
   5.500000     -5.3286784E-27
   5.510000     -5.3484604E-27
   5.520000     -5.3459886E-27
   5.530000     -5.3193838E-27
   5.540000     -5.2667158E-27
   5.550000     -5.1860059E-27
   5.560000     -5.0752302E-27
   5.570000     -4.9323297E-27
   5.580000     -4.7552116E-27
   5.590000     -4.5417561E-27
   5.600000     -4.2898252E-27
   5.610000     -3.9972680E-27
   5.620000     -3.6619301E-27
   5.630000     -3.2816610E-27
   5.640000     -2.8543264E-27
   5.650000     -2.3778171E-27
   5.660000     -1.8500570E-27
   5.670000     -1.2690182E-27
   5.680000     -6.3273044E-28
   5.690000      6.0702947E-29
   5.700000      8.1309305E-28
   5.710000      1.6261501E-27
   5.720000      2.5014691E-27
   5.730000      3.4405128E-27
   5.740000      4.4445964E-27
   5.750000      5.5148704E-27
   5.760000      6.6523007E-27
   5.770000      7.8576493E-27
   5.780000      9.1314571E-27
   5.790000      1.0474025E-26
   5.800000      1.1885394E-26
   5.810000      1.3365314E-26
   5.820000      1.4913234E-26
   5.830000      1.6528275E-26
   5.840000      1.8209208E-26
   5.850000      1.9954435E-26
   5.860000      2.1761959E-26
   5.870000      2.3629367E-26
   5.880000      2.5553807E-26
   5.890000      2.7531960E-26
   5.900000      2.9560023E-26
   5.910000      3.1633680E-26
   5.920000      3.3748080E-26
   5.930000      3.5897821E-26
   5.940000      3.8076920E-26
   5.950000      4.0278794E-26
   5.960000      4.2496239E-26
   5.970000      4.4721418E-26
   5.980000      4.6945840E-26
   5.990000      4.9160336E-26
   6.000000      5.1355045E-26
   6.010000      5.3519405E-26
   6.020000      5.5642144E-26
   6.030000      5.7711252E-26
   6.040000      5.9713985E-26
   6.050000      6.1636876E-26
   6.060000      6.3465690E-26
   6.070000      6.5185481E-26
   6.080000      6.6780533E-26
   6.090000      6.8234398E-26
   6.100000      6.9529917E-26
   6.110000      7.0649199E-26
   6.120000      7.1573646E-26
   6.130000      7.2283978E-26
   6.140000      7.2760271E-26
   6.150000      7.2981966E-26
   6.160000      7.2927917E-26
   6.170000      7.2576411E-26
   6.180000      7.1905220E-26
   6.190000      7.0891651E-26
   6.200000      6.9512605E-26
   6.210000      6.7744607E-26
   6.220000      6.5563949E-26
   6.230000      6.2946669E-26
   6.240000      5.9868688E-26
   6.250000      5.6305872E-26
   6.260000      5.2234104E-26
   6.270000      4.7629400E-26
   6.280000      4.2468043E-26
   6.290000      3.6726652E-26
   6.300000      3.0382315E-26
   6.310000      2.3412712E-26
   6.320000      1.5796220E-26
   6.330000      7.5120975E-27
   6.340000     -1.4593803E-27
   6.350000     -1.1136785E-26
   6.360000     -2.1537371E-26
   6.370000     -3.2676914E-26
   6.380000     -4.4569516E-26
   6.390000     -5.7227434E-26
   6.400000     -7.0660940E-26
   6.410000     -8.4878087E-26
   6.420000     -9.9884514E-26
   6.430000     -1.1568323E-25
   6.440000     -1.3227447E-25
   6.450000     -1.4965537E-25
   6.460000     -1.6781994E-25
   6.470000     -1.8675865E-25
   6.480000     -2.0645832E-25
   6.490000     -2.2690191E-25
   6.500000     -2.4806821E-25
   6.510000     -2.6993166E-25
   6.520000     -2.9246219E-25
   6.530000     -3.1562488E-25
   6.540000     -3.3937982E-25
   6.550000     -3.6368186E-25
   6.560000     -3.8848040E-25
   6.570000     -4.1371924E-25
   6.580000     -4.3933636E-25
   6.590000     -4.6526351E-25
   6.600000     -4.9142647E-25
   6.610000     -5.1774435E-25
   6.620000     -5.4412987E-25
   6.630000     -5.7048902E-25
   6.640000     -5.9672082E-25
   6.650000     -6.2271743E-25
   6.660000     -6.4836379E-25
   6.670000     -6.7353782E-25
   6.680000     -6.9811010E-25
   6.690000     -7.2194405E-25
   6.700000     -7.4489571E-25
   6.710000     -7.6681397E-25
   6.720000     -7.8754040E-25
   6.730000     -8.0690940E-25
   6.740000     -8.2474831E-25
   6.750000     -8.4087751E-25
   6.760000     -8.5511053E-25
   6.770000     -8.6725445E-25
   6.780000     -8.7710999E-25
   6.790000     -8.8447173E-25
   6.800000     -8.8912877E-25
   6.810000     -8.9086447E-25
   6.820000     -8.8945753E-25
   6.830000     -8.8468206E-25
   6.840000     -8.7630811E-25
   6.850000     -8.6410246E-25
   6.860000     -8.4782885E-25
   6.870000     -8.2724905E-25
   6.880000     -8.0212348E-25
   6.890000     -7.7221155E-25
   6.900000     -7.3727280E-25
   6.910000     -6.9706797E-25
   6.920000     -6.5135989E-25
   6.930000     -5.9991442E-25
   6.940000     -5.4250152E-25
   6.950000     -4.7889601E-25
   6.960000     -4.0887901E-25
   6.970000     -3.3223912E-25
   6.980000     -2.4877412E-25
   6.990000     -1.5829187E-25
   7.000000     -6.0611659E-26
   7.010000      4.4434473E-26
   7.020000      1.5699992E-25
   7.030000      2.7722180E-25
   7.040000      4.0521943E-25
   7.050000      5.4109340E-25
   7.060000      6.8492311E-25