  -2.600000      0.0000000E+00
  -2.590000      0.0000000E+00
  -2.580000      0.0000000E+00
  -2.570000      0.0000000E+00
  -2.560000      0.0000000E+00
  -2.550000      0.0000000E+00
  -2.540000      0.0000000E+00
  -2.530000      0.0000000E+00
  -2.520000      0.0000000E+00
  -2.510000      0.0000000E+00
  -2.500000      0.0000000E+00
  -2.490000      0.0000000E+00
  -2.480000      0.0000000E+00
  -2.470000      0.0000000E+00
  -2.460000      0.0000000E+00
  -2.450000      0.0000000E+00
  -2.440000      0.0000000E+00
  -2.430000      0.0000000E+00
  -2.420000      0.0000000E+00
  -2.410000      0.0000000E+00
  -2.400000      0.0000000E+00
  -2.390000      0.0000000E+00
  -2.380000      0.0000000E+00
  -2.370000      0.0000000E+00
  -2.360000      0.0000000E+00
  -2.350000      0.0000000E+00
  -2.340000      0.0000000E+00
  -2.330000      0.0000000E+00
  -2.320000      0.0000000E+00
  -2.310000      0.0000000E+00
  -2.300000      0.0000000E+00
  -2.290000      0.0000000E+00
  -2.280000      0.0000000E+00
  -2.270000      0.0000000E+00
  -2.260000      0.0000000E+00
  -2.250000      0.0000000E+00
  -2.240000      0.0000000E+00
  -2.230000      0.0000000E+00
  -2.220000      0.0000000E+00
  -2.210000      0.0000000E+00
  -2.200000      0.0000000E+00
  -2.190000      0.0000000E+00
  -2.180000      0.0000000E+00
  -2.170000      0.0000000E+00
  -2.160000      0.0000000E+00
  -2.150000      0.0000000E+00
  -2.140000      0.0000000E+00
  -2.130000      0.0000000E+00
  -2.120000      0.0000000E+00
  -2.110000      0.0000000E+00
  -2.100000      0.0000000E+00
  -2.090000      0.0000000E+00
  -2.080000      0.0000000E+00
  -2.070000      0.0000000E+00
  -2.060000      0.0000000E+00
  -2.050000      0.0000000E+00
  -2.040000      0.0000000E+00
  -2.030000      0.0000000E+00
  -2.020000      0.0000000E+00
  -2.010000      0.0000000E+00
  -2.000000      0.0000000E+00
  -1.990000      0.0000000E+00
  -1.980000      0.0000000E+00
  -1.970000      0.0000000E+00
  -1.960000      0.0000000E+00
  -1.950000      0.0000000E+00
  -1.940000      0.0000000E+00
  -1.930000      0.0000000E+00
  -1.920000      0.0000000E+00
  -1.910000      0.0000000E+00
  -1.900000      0.0000000E+00
  -1.890000      0.0000000E+00
  -1.880000      0.0000000E+00
  -1.870000      0.0000000E+00
  -1.860000      0.0000000E+00
  -1.850000      0.0000000E+00
  -1.840000      0.0000000E+00
  -1.830000      0.0000000E+00
  -1.820000      0.0000000E+00
  -1.810000      0.0000000E+00
  -1.800000      0.0000000E+00
  -1.790000      0.0000000E+00
  -1.780000      0.0000000E+00
  -1.770000      0.0000000E+00
  -1.760000      0.0000000E+00
  -1.750000      0.0000000E+00
  -1.740000      0.0000000E+00
  -1.730000      0.0000000E+00
  -1.720000      0.0000000E+00
  -1.710000      0.0000000E+00
  -1.700000      0.0000000E+00
  -1.690000      0.0000000E+00
  -1.680000      0.0000000E+00
  -1.670000      0.0000000E+00
  -1.660000      0.0000000E+00
  -1.650000      0.0000000E+00
  -1.640000      0.0000000E+00
  -1.630000      0.0000000E+00
  -1.620000      0.0000000E+00
  -1.610000      0.0000000E+00
  -1.600000      0.0000000E+00
  -1.590000      0.0000000E+00
  -1.580000      0.0000000E+00
  -1.570000      0.0000000E+00
  -1.560000      0.0000000E+00
  -1.550000      0.0000000E+00
  -1.540000      0.0000000E+00
  -1.530000      0.0000000E+00
  -1.520000      0.0000000E+00
  -1.510000      0.0000000E+00
  -1.500000      0.0000000E+00
  -1.490000      0.0000000E+00
  -1.480000      0.0000000E+00
  -1.470000      0.0000000E+00
  -1.460000      0.0000000E+00
  -1.450000      0.0000000E+00
  -1.440000      0.0000000E+00
  -1.430000      0.0000000E+00
  -1.420000      0.0000000E+00
  -1.410000      0.0000000E+00
  -1.400000      0.0000000E+00
  -1.390000      0.0000000E+00
  -1.380000      0.0000000E+00
  -1.370000      0.0000000E+00
  -1.360000      0.0000000E+00
  -1.350000      0.0000000E+00
  -1.340000      0.0000000E+00
  -1.330000      0.0000000E+00
  -1.320000      0.0000000E+00
  -1.310000      0.0000000E+00
  -1.300000      0.0000000E+00
  -1.290000      0.0000000E+00
  -1.280000      0.0000000E+00
  -1.270000      0.0000000E+00
  -1.260000      0.0000000E+00
  -1.250000      0.0000000E+00
  -1.240000      0.0000000E+00
  -1.230000      0.0000000E+00
  -1.220000      0.0000000E+00
  -1.210000      0.0000000E+00
  -1.200000      0.0000000E+00
  -1.190000      0.0000000E+00
  -1.180000      0.0000000E+00
  -1.170000      0.0000000E+00
  -1.160000      0.0000000E+00
  -1.150000      0.0000000E+00
  -1.140000      0.0000000E+00
  -1.130000      0.0000000E+00
  -1.120000      0.0000000E+00
  -1.110000      0.0000000E+00
  -1.100000      0.0000000E+00
  -1.090000      0.0000000E+00
  -1.080000      0.0000000E+00
  -1.070000      0.0000000E+00
  -1.060000      0.0000000E+00
  -1.050000      0.0000000E+00
  -1.040000      0.0000000E+00
  -1.030000      0.0000000E+00
  -1.020000      0.0000000E+00
  -1.010000      0.0000000E+00
  -1.000000      0.0000000E+00
 -0.9900000      0.0000000E+00
 -0.9800000      0.0000000E+00
 -0.9700000      0.0000000E+00
 -0.9600000      0.0000000E+00
 -0.9500000      0.0000000E+00
 -0.9400000      0.0000000E+00
 -0.9300000      0.0000000E+00
 -0.9200000      0.0000000E+00
 -0.9100000      0.0000000E+00
 -0.9000000      0.0000000E+00
 -0.8900000      0.0000000E+00
 -0.8800000      0.0000000E+00
 -0.8700000      0.0000000E+00
 -0.8600000      0.0000000E+00
 -0.8500000      0.0000000E+00
 -0.8400000      0.0000000E+00
 -0.8300000      0.0000000E+00
 -0.8200000      0.0000000E+00
 -0.8100000      0.0000000E+00
 -0.8000000      0.0000000E+00
 -0.7900000      0.0000000E+00
 -0.7800000      0.0000000E+00
 -0.7700000      0.0000000E+00
 -0.7600000      0.0000000E+00
 -0.7500000      0.0000000E+00
 -0.7400000      0.0000000E+00
 -0.7300000      0.0000000E+00
 -0.7200000      0.0000000E+00
 -0.7100000      0.0000000E+00
 -0.7000000      0.0000000E+00
 -0.6900000      0.0000000E+00
 -0.6800000      0.0000000E+00
 -0.6700000      0.0000000E+00
 -0.6600000      0.0000000E+00
 -0.6500000      0.0000000E+00
 -0.6400000      0.0000000E+00
 -0.6300000      0.0000000E+00
 -0.6200000      0.0000000E+00
 -0.6100000      0.0000000E+00
 -0.6000000      0.0000000E+00
 -0.5900000      0.0000000E+00
 -0.5800000      0.0000000E+00
 -0.5700000      0.0000000E+00
 -0.5600000      0.0000000E+00
 -0.5500000      0.0000000E+00
 -0.5400000      0.0000000E+00
 -0.5300000      0.0000000E+00
 -0.5200000      0.0000000E+00
 -0.5100000      0.0000000E+00
 -0.5000000      0.0000000E+00
 -0.4900000      0.0000000E+00
 -0.4800000      0.0000000E+00
 -0.4700000      0.0000000E+00
 -0.4600000      0.0000000E+00
 -0.4500000      0.0000000E+00
 -0.4400000      0.0000000E+00
 -0.4300000      0.0000000E+00
 -0.4200000      0.0000000E+00
 -0.4100000      0.0000000E+00
 -0.4000000      0.0000000E+00
 -0.3900000      0.0000000E+00
 -0.3800000      0.0000000E+00
 -0.3700000      0.0000000E+00
 -0.3600000      0.0000000E+00
 -0.3500000      0.0000000E+00
 -0.3400000      0.0000000E+00
 -0.3300000      0.0000000E+00
 -0.3200000      0.0000000E+00
 -0.3100000      0.0000000E+00
 -0.3000000      0.0000000E+00
 -0.2900000      0.0000000E+00
 -0.2800000      0.0000000E+00
 -0.2700000      0.0000000E+00
 -0.2600000      0.0000000E+00
 -0.2500000      0.0000000E+00
 -0.2400000      0.0000000E+00
 -0.2300000      0.0000000E+00
 -0.2200000      0.0000000E+00
 -0.2100000      0.0000000E+00
 -0.2000000      0.0000000E+00
 -0.1900000      0.0000000E+00
 -0.1800000      0.0000000E+00
 -0.1700000      0.0000000E+00
 -0.1600000      0.0000000E+00
 -0.1500000      0.0000000E+00
 -0.1400000      0.0000000E+00
 -0.1300000      0.0000000E+00
 -0.1200000      0.0000000E+00
 -0.1100000      0.0000000E+00
 -0.1000000      0.0000000E+00
 -9.0000004E-02  0.0000000E+00
 -7.9999998E-02  0.0000000E+00
 -7.0000000E-02  0.0000000E+00
 -5.9999999E-02  0.0000000E+00
 -5.0000001E-02  0.0000000E+00
 -3.9999999E-02  0.0000000E+00
 -2.9999999E-02  0.0000000E+00
 -2.0000000E-02  0.0000000E+00
 -9.9999998E-03  0.0000000E+00
 -3.4694470E-17  0.0000000E+00
  9.9999998E-03  0.0000000E+00
  2.0000000E-02  0.0000000E+00
  2.9999999E-02  0.0000000E+00
  3.9999999E-02  0.0000000E+00
  5.0000001E-02  0.0000000E+00
  5.9999999E-02  0.0000000E+00
  7.0000000E-02  0.0000000E+00
  7.9999998E-02  0.0000000E+00
  9.0000004E-02  0.0000000E+00
  0.1000000      0.0000000E+00
  0.1100000      0.0000000E+00
  0.1200000      0.0000000E+00
  0.1300000      0.0000000E+00
  0.1400000      0.0000000E+00
  0.1500000      0.0000000E+00
  0.1600000      0.0000000E+00
  0.1700000      0.0000000E+00
  0.1800000      0.0000000E+00
  0.1900000      0.0000000E+00
  0.2000000      0.0000000E+00
  0.2100000      0.0000000E+00
  0.2200000      0.0000000E+00
  0.2300000      0.0000000E+00
  0.2400000      0.0000000E+00
  0.2500000      0.0000000E+00
  0.2600000      0.0000000E+00
  0.2700000      0.0000000E+00
  0.2800000      0.0000000E+00
  0.2900000      0.0000000E+00
  0.3000000      0.0000000E+00
  0.3100000      0.0000000E+00
  0.3200000      0.0000000E+00
  0.3300000      0.0000000E+00
  0.3400000      0.0000000E+00
  0.3500000      0.0000000E+00
  0.3600000      0.0000000E+00
  0.3700000      0.0000000E+00
  0.3800000      0.0000000E+00
  0.3900000      0.0000000E+00
  0.4000000      0.0000000E+00
  0.4100000      0.0000000E+00
  0.4200000      0.0000000E+00
  0.4300000      0.0000000E+00
  0.4400000      0.0000000E+00
  0.4500000      0.0000000E+00
  0.4600000      0.0000000E+00
  0.4700000      0.0000000E+00
  0.4800000      0.0000000E+00
  0.4900000      0.0000000E+00
  0.5000000      0.0000000E+00
  0.5100000      0.0000000E+00
  0.5200000      0.0000000E+00
  0.5300000      0.0000000E+00
  0.5400000      0.0000000E+00
  0.5500000      0.0000000E+00
  0.5600000      0.0000000E+00
  0.5700000      0.0000000E+00
  0.5800000      0.0000000E+00
  0.5900000      0.0000000E+00
  0.6000000      0.0000000E+00
  0.6100000      0.0000000E+00
  0.6200000      0.0000000E+00
  0.6300000      0.0000000E+00
  0.6400000      0.0000000E+00
  0.6500000      0.0000000E+00
  0.6600000      0.0000000E+00
  0.6700000      0.0000000E+00
  0.6800000      0.0000000E+00
  0.6900000      0.0000000E+00
  0.7000000      0.0000000E+00
  0.7100000      0.0000000E+00
  0.7200000      0.0000000E+00
  0.7300000      0.0000000E+00
  0.7400000      0.0000000E+00
  0.7500000      0.0000000E+00
  0.7600000      0.0000000E+00
  0.7700000      0.0000000E+00
  0.7800000      0.0000000E+00
  0.7900000      0.0000000E+00
  0.8000000      0.0000000E+00
  0.8100000      0.0000000E+00
  0.8200000      0.0000000E+00
  0.8300000      0.0000000E+00
  0.8400000      0.0000000E+00
  0.8500000      0.0000000E+00
  0.8600000      0.0000000E+00
  0.8700000      0.0000000E+00
  0.8800000      0.0000000E+00
  0.8900000      0.0000000E+00
  0.9000000      0.0000000E+00
  0.9100000      0.0000000E+00
  0.9200000      0.0000000E+00
  0.9300000      0.0000000E+00
  0.9400000      0.0000000E+00
  0.9500000      0.0000000E+00
  0.9600000      0.0000000E+00
  0.9700000      0.0000000E+00
  0.9800000      0.0000000E+00
  0.9900000      0.0000000E+00
   1.000000      0.0000000E+00
   1.010000      0.0000000E+00
   1.020000      0.0000000E+00
   1.030000      0.0000000E+00
   1.040000      0.0000000E+00
   1.050000      0.0000000E+00
   1.060000      0.0000000E+00
   1.070000      0.0000000E+00
   1.080000      0.0000000E+00
   1.090000      0.0000000E+00
   1.100000      0.0000000E+00
   1.110000      0.0000000E+00
   1.120000      0.0000000E+00
   1.130000      0.0000000E+00
   1.140000      0.0000000E+00
   1.150000      0.0000000E+00
   1.160000      0.0000000E+00
   1.170000      0.0000000E+00
   1.180000      0.0000000E+00
   1.190000      0.0000000E+00
   1.200000      0.0000000E+00
   1.210000      0.0000000E+00
   1.220000      0.0000000E+00
   1.230000      0.0000000E+00
   1.240000      0.0000000E+00
   1.250000      0.0000000E+00
   1.260000      0.0000000E+00
   1.270000      0.0000000E+00
   1.280000      0.0000000E+00
   1.290000      0.0000000E+00
   1.300000      0.0000000E+00
   1.310000      0.0000000E+00
   1.320000      0.0000000E+00
   1.330000      0.0000000E+00
   1.340000      0.0000000E+00
   1.350000      0.0000000E+00
   1.360000      0.0000000E+00
   1.370000      0.0000000E+00
   1.380000      0.0000000E+00
   1.390000      0.0000000E+00
   1.400000      0.0000000E+00
   1.410000      0.0000000E+00
   1.420000      0.0000000E+00
   1.430000      0.0000000E+00
   1.440000      0.0000000E+00
   1.450000      0.0000000E+00
   1.460000      0.0000000E+00
   1.470000      0.0000000E+00
   1.480000      0.0000000E+00
   1.490000      0.0000000E+00
   1.500000      0.0000000E+00
   1.510000      0.0000000E+00
   1.520000      0.0000000E+00
   1.530000      0.0000000E+00
   1.540000      0.0000000E+00
   1.550000      0.0000000E+00
   1.560000      0.0000000E+00
   1.570000      0.0000000E+00
   1.580000      0.0000000E+00
   1.590000      0.0000000E+00
   1.600000      0.0000000E+00
   1.610000      0.0000000E+00
   1.620000      0.0000000E+00
   1.630000      0.0000000E+00
   1.640000      0.0000000E+00
   1.650000      0.0000000E+00
   1.660000      0.0000000E+00
   1.670000      0.0000000E+00
   1.680000      0.0000000E+00
   1.690000      0.0000000E+00
   1.700000      0.0000000E+00
   1.710000      0.0000000E+00
   1.720000      0.0000000E+00
   1.730000      0.0000000E+00
   1.740000      0.0000000E+00
   1.750000      0.0000000E+00
   1.760000      0.0000000E+00
   1.770000      0.0000000E+00
   1.780000      0.0000000E+00
   1.790000      0.0000000E+00
   1.800000      0.0000000E+00
   1.810000      0.0000000E+00
   1.820000      0.0000000E+00
   1.830000      0.0000000E+00
   1.840000      0.0000000E+00
   1.850000      0.0000000E+00
   1.860000      0.0000000E+00
   1.870000      0.0000000E+00
   1.880000      0.0000000E+00
   1.890000      0.0000000E+00
   1.900000      0.0000000E+00
   1.910000      0.0000000E+00
   1.920000      0.0000000E+00
   1.930000      0.0000000E+00
   1.940000      0.0000000E+00
   1.950000      0.0000000E+00
   1.960000      0.0000000E+00
   1.970000      0.0000000E+00
   1.980000      0.0000000E+00
   1.990000      0.0000000E+00
   2.000000      0.0000000E+00
   2.010000      0.0000000E+00
   2.020000      0.0000000E+00
   2.030000      0.0000000E+00
   2.040000      0.0000000E+00
   2.050000      0.0000000E+00
   2.060000      0.0000000E+00
   2.070000      0.0000000E+00
   2.080000      0.0000000E+00
   2.090000      0.0000000E+00
   2.100000      0.0000000E+00
   2.110000      0.0000000E+00
   2.120000      0.0000000E+00
   2.130000      0.0000000E+00
   2.140000      0.0000000E+00
   2.150000      0.0000000E+00
   2.160000      0.0000000E+00
   2.170000      0.0000000E+00
   2.180000      0.0000000E+00
   2.190000      0.0000000E+00
   2.200000      0.0000000E+00
   2.210000      0.0000000E+00
   2.220000      0.0000000E+00
   2.230000      0.0000000E+00
   2.240000      0.0000000E+00
   2.250000      0.0000000E+00
   2.260000      0.0000000E+00
   2.270000      0.0000000E+00
   2.280000      0.0000000E+00
   2.290000      0.0000000E+00
   2.300000      0.0000000E+00
   2.310000      0.0000000E+00
   2.320000      0.0000000E+00
   2.330000      0.0000000E+00
   2.340000      0.0000000E+00
   2.350000      0.0000000E+00
   2.360000      0.0000000E+00
   2.370000      0.0000000E+00
   2.380000      0.0000000E+00
   2.390000      0.0000000E+00
   2.400000      0.0000000E+00
   2.410000      0.0000000E+00
   2.420000      0.0000000E+00
   2.430000      0.0000000E+00
   2.440000     -1.2547652E-38
   2.450000     -1.3990595E-38
   2.460000     -1.5484029E-38
   2.470000     -1.7071586E-38
   2.480000     -1.8704748E-38
   2.490000     -2.0280242E-38
   2.500000     -2.1758036E-38
   2.510000     -2.3076477E-38
   2.520000     -2.3975354E-38
   2.530000     -2.4496827E-38
   2.540000     -2.3116098E-38
   2.550000     -1.9573535E-38
   2.560000     -1.4346638E-38
   2.570000      0.0000000E+00
   2.580000      0.0000000E+00
   2.590000      1.7409507E-38
   2.600000      3.2198930E-38
   2.610000      4.8221578E-38
   2.620000      6.5370573E-38
   2.630000      8.3207640E-38
   2.640000      1.0113558E-37
   2.650000      1.1972251E-37
   2.660000      1.3880775E-37
   2.670000      1.5784777E-37
   2.680000      1.7750901E-37
   2.690000      1.9795300E-37
   2.700000      2.1910642E-37
   2.710000      2.4086771E-37
   2.720000      2.6302930E-37
   2.730000      2.8649574E-37
   2.740000      3.1157916E-37
   2.750000      3.3740648E-37
   2.760000      3.6183670E-37
   2.770000      3.8484620E-37
   2.780000      4.0877742E-37
   2.790000      4.2977833E-37
   2.800000      4.4594008E-37
   2.810000      4.5922129E-37
   2.820000      4.6909338E-37
   2.830000      4.7495005E-37
   2.840000      4.8113657E-37
   2.850000      4.7095911E-37
   2.860000      4.7963442E-37
   2.870000      5.2589736E-37
   2.880000      5.7196116E-37
   2.890000      6.1626631E-37
   2.900000      7.1817506E-37
   2.910000      8.9291025E-37
   2.920000      1.0822752E-36
   2.930000      1.2480187E-36
   2.940000      1.2583705E-36
   2.950000      1.1296020E-36
   2.960000      9.7652961E-37
   2.970000      7.9143947E-37
   2.980000      5.7209936E-37
   2.990000      3.1057534E-37
   3.000000      3.7211733E-38
   3.010000     -2.9498860E-37
   3.020000     -8.3370568E-37
   3.030000     -1.5139221E-36
   3.040000     -2.1697503E-36
   3.050000     -2.8097278E-36
   3.060000     -3.4475698E-36
   3.070000     -3.9343141E-36
   3.080000     -4.1604077E-36
   3.090000     -4.2735379E-36
   3.100000     -4.3676406E-36
   3.110000     -4.4179951E-36
   3.120000     -4.5405514E-36
   3.130000     -4.7299004E-36
   3.140000     -4.9566397E-36
   3.150000     -5.1718555E-36
   3.160000     -5.3326247E-36
   3.170000     -5.5456202E-36
   3.180000     -5.8299081E-36
   3.190000     -6.2326161E-36
   3.200000     -6.7917537E-36
   3.210000     -7.4460529E-36
   3.220000     -8.0849517E-36
   3.230000     -8.7152474E-36
   3.240000     -9.2352781E-36
   3.250000     -9.5338683E-36
   3.260000     -9.6746887E-36
   3.270000     -9.6665627E-36
   3.280000     -9.4981701E-36
   3.290000     -9.1195740E-36
   3.300000     -8.4353881E-36
   3.310000     -7.4613055E-36
   3.320000     -6.2713140E-36
   3.330000     -4.8944212E-36
   3.340000     -3.3784733E-36
   3.350000     -1.6680537E-36
   3.360000      2.1987992E-37
   3.370000      2.2614376E-36
   3.380000      4.5058466E-36
   3.390000      6.9969300E-36
   3.400000      9.7219194E-36
   3.410000      1.2648725E-35
   3.420000      1.5783000E-35
   3.430000      1.9078375E-35
   3.440000      2.2540615E-35
   3.450000      2.6202363E-35
   3.460000      3.0042542E-35
   3.470000      3.3961010E-35
   3.480000      3.7909351E-35
   3.490000      4.1814604E-35
   3.500000      4.5648948E-35
   3.510000      4.9468321E-35
   3.520000      5.3182940E-35
   3.530000      5.6674669E-35
   3.540000      5.9873116E-35
   3.550000      6.2614124E-35
   3.560000      6.5498958E-35
   3.570000      6.8181479E-35
   3.580000      7.0259711E-35
   3.590000      7.2275086E-35
   3.600000      7.3564250E-35
   3.610000      7.4184014E-35
   3.620000      7.4541764E-35
   3.630000      7.3831652E-35
   3.640000      7.1948835E-35
   3.650000      6.9595585E-35
   3.660000      6.6840015E-35
   3.670000      6.3409735E-35
   3.680000      6.0881573E-35
   3.690000      5.9130310E-35
   3.700000      5.6410258E-35
   3.710000      5.2886157E-35
   3.720000      4.8433438E-35
   3.730000      4.2184974E-35
   3.740000      3.5260494E-35
   3.750000      2.7766161E-35
   3.760000      1.9325816E-35
   3.770000      1.0448482E-35
   3.780000      2.3954601E-37
   3.790000     -1.2134174E-35
   3.800000     -2.6613869E-35
   3.810000     -4.2391018E-35
   3.820000     -5.9676083E-35
   3.830000     -7.9598870E-35
   3.840000     -1.0121311E-34
   3.850000     -1.2323766E-34
   3.860000     -1.4573805E-34
   3.870000     -1.6892031E-34
   3.880000     -1.9249217E-34
   3.890000     -2.1534198E-34
   3.900000     -2.3866018E-34
   3.910000     -2.6418620E-34
   3.920000     -2.8888731E-34
   3.930000     -3.1507726E-34
   3.940000     -3.4470844E-34
   3.950000     -3.7650675E-34
   3.960000     -4.1186838E-34
   3.970000     -4.4884424E-34
   3.980000     -4.8612427E-34
   3.990000     -5.2147625E-34
   4.000000     -5.5276699E-34
   4.010000     -5.7980850E-34
   4.020000     -6.0345577E-34
   4.030000     -6.2362822E-34
   4.040000     -6.4000277E-34
   4.050000     -6.4980487E-34
   4.060000     -6.5293412E-34
   4.070000     -6.5181327E-34
   4.080000     -6.4590761E-34
   4.090000     -6.3385511E-34
   4.100000     -6.1602250E-34
   4.110000     -5.9555962E-34
   4.120000     -5.7346818E-34
   4.130000     -5.4787252E-34
   4.140000     -5.1706410E-34
   4.150000     -4.8097303E-34
   4.160000     -4.3859866E-34
   4.170000     -3.8541080E-34
   4.180000     -3.2051268E-34
   4.190000     -2.4642354E-34
   4.200000     -1.6294935E-34
   4.210000     -6.9820008E-35
   4.220000      3.3014597E-35
   4.230000      1.4235076E-34
   4.240000      2.5631014E-34
   4.250000      3.7490365E-34
   4.260000      4.9904051E-34
   4.270000      6.3083593E-34
   4.280000      7.7289553E-34
   4.290000      9.2406419E-34
   4.300000      1.0796713E-33
   4.310000      1.2393717E-33
   4.320000      1.4061676E-33
   4.330000      1.5804725E-33
   4.340000      1.7573648E-33
   4.350000      1.9322214E-33
   4.360000      2.1094483E-33
   4.370000      2.2958885E-33
   4.380000      2.4843869E-33
   4.390000      2.6697644E-33
   4.400000      2.8533570E-33
   4.410000      3.0335591E-33
   4.420000      3.2088825E-33
   4.430000      3.3789813E-33
   4.440000      3.5429580E-33
   4.450000      3.6999926E-33
   4.460000      3.8471050E-33
   4.470000      3.9800813E-33
   4.480000      4.0992636E-33
   4.490000      4.2036953E-33
   4.500000      4.2908247E-33
   4.510000      4.3615737E-33
   4.520000      4.4139357E-33
   4.530000      4.4428059E-33
   4.540000      4.4446051E-33
   4.550000      4.4196420E-33
   4.560000      4.3631202E-33
   4.570000      4.2701191E-33
   4.580000      4.1418852E-33
   4.590000      3.9760520E-33
   4.600000      3.7702001E-33
   4.610000      3.5216371E-33
   4.620000      3.2287454E-33
   4.630000      2.8890521E-33
   4.640000      2.4981858E-33
   4.650000      2.0554880E-33
   4.660000      1.5602224E-33
   4.670000      1.0105954E-33
   4.680000      4.0673505E-34
   4.690000     -2.5205306E-34
   4.700000     -9.6595651E-34
   4.710000     -1.7344072E-33
   4.720000     -2.5571151E-33
   4.730000     -3.4326929E-33
   4.740000     -4.3591584E-33
   4.750000     -5.3349870E-33
   4.760000     -6.3588631E-33
   4.770000     -7.4279811E-33
   4.780000     -8.5390929E-33
   4.790000     -9.6897858E-33
   4.800000     -1.0877087E-32
   4.810000     -1.2094596E-32
   4.820000     -1.3338348E-32
   4.830000     -1.4606339E-32
   4.840000     -1.5894269E-32
   4.850000     -1.7194207E-32
   4.860000     -1.8498158E-32
   4.870000     -1.9801436E-32
   4.880000     -2.1096881E-32
   4.890000     -2.2376663E-32
   4.900000     -2.3632479E-32
   4.910000     -2.4855458E-32
   4.920000     -2.6036083E-32
   4.930000     -2.7164073E-32
   4.940000     -2.8228004E-32
   4.950000     -2.9217068E-32
   4.960000     -3.0119803E-32
   4.970000     -3.0923098E-32
   4.980000     -3.1613804E-32
   4.990000     -3.2178353E-32
   5.000000     -3.2602818E-32
   5.010000     -3.2872873E-32
   5.020000     -3.2973913E-32
   5.030000     -3.2891187E-32
   5.040000     -3.2609738E-32
   5.050000     -3.2113803E-32
   5.060000     -3.1390425E-32
   5.070000     -3.0424315E-32
   5.080000     -2.9198751E-32
   5.090000     -2.7700736E-32
   5.100000     -2.5917126E-32
   5.110000     -2.3834200E-32
   5.120000     -2.1439276E-32
   5.130000     -1.8720472E-32
   5.140000     -1.5666345E-32
   5.150000     -1.2267283E-32
   5.160000     -8.5144083E-33
   5.170000     -4.3999988E-33
   5.180000      8.2433797E-35
   5.190000      4.9376295E-33
   5.200000      1.0169125E-32
   5.210000      1.5778871E-32
   5.220000      2.1766945E-32
   5.230000      2.8131499E-32
   5.240000      3.4868410E-32
   5.250000      4.1971951E-32
   5.260000      4.9434092E-32
   5.270000      5.7244265E-32
   5.280000      6.5389448E-32
   5.290000      7.3853959E-32
   5.300000      8.2619285E-32
   5.310000      9.1663856E-32
   5.320000      1.0096316E-31
   5.330000      1.1048945E-31
   5.340000      1.2021137E-31
   5.350000      1.3009413E-31
   5.360000      1.4009930E-31
   5.370000      1.5018466E-31
   5.380000      1.6030420E-31
   5.390000      1.7040784E-31
   5.400000      1.8044183E-31
   5.410000      1.9034835E-31
   5.420000      2.0006531E-31
   5.430000      2.0952672E-31
   5.440000      2.1866266E-31
   5.450000      2.2739922E-31
   5.460000      2.3565857E-31
   5.470000      2.4335921E-31
   5.480000      2.5041598E-31
   5.490000      2.5674026E-31
   5.500000      2.6224007E-31
   5.510000      2.6682043E-31
   5.520000      2.7038352E-31
   5.530000      2.7282895E-31
   5.540000      2.7405405E-31
   5.550000      2.7395425E-31
   5.560000      2.7242246E-31
   5.570000      2.6935226E-31
   5.580000      2.6463641E-31
   5.590000      2.5816548E-31
   5.600000      2.4983101E-31
   5.610000      2.3952510E-31
   5.620000      2.2714096E-31
   5.630000      2.1257304E-31
   5.640000      1.9571874E-31
   5.650000      1.7647833E-31
   5.660000      1.5475467E-31
   5.670000      1.3045512E-31
   5.680000      1.0349193E-31
   5.690000      7.3782947E-32
   5.700000      4.1252487E-32
   5.710000      5.8320293E-33
   5.720000     -3.2538847E-32
   5.730000     -7.3911382E-32
   5.740000     -1.1832686E-31
   5.750000     -1.6581562E-31
   5.760000     -2.1639598E-31
   5.770000     -2.7007312E-31
   5.780000     -3.2683821E-31
   5.790000     -3.8666718E-31
   5.800000     -4.4951967E-31
   5.810000     -5.1533790E-31
   5.820000     -5.8404583E-31
   5.830000     -6.5554762E-31
   5.840000     -7.2972686E-31
   5.850000     -8.0644564E-31
   5.860000     -8.8554306E-31
   5.870000     -9.6683470E-31
   5.880000     -1.0501115E-30
   5.890000     -1.1351385E-30
   5.900000     -1.2216543E-30
   5.910000     -1.3093705E-30
   5.920000     -1.3979699E-30
   5.930000     -1.4871072E-30
   5.940000     -1.5764072E-30
   5.950000     -1.6654650E-30
   5.960000     -1.7538449E-30
   5.970000     -1.8410807E-30
   5.980000     -1.9266747E-30
   5.990000     -2.0100982E-30
   6.000000     -2.0907911E-30
   6.010000     -2.1681617E-30
   6.020000     -2.2415876E-30
   6.030000     -2.3104150E-30
   6.040000     -2.3739597E-30
   6.050000     -2.4315082E-30
   6.060000     -2.4823179E-30
   6.070000     -2.5256177E-30
   6.080000     -2.5606096E-30
   6.090000     -2.5864709E-30
   6.100000     -2.6023538E-30
   6.110000     -2.6073892E-30
   6.120000     -2.6006876E-30
   6.130000     -2.5813420E-30
   6.140000     -2.5484304E-30
   6.150000     -2.5010181E-30
   6.160000     -2.4381620E-30
   6.170000     -2.3589127E-30
   6.180000     -2.2623192E-30
   6.190000     -2.1474330E-30
   6.200000     -2.0133122E-30
   6.210000     -1.8590259E-30
   6.220000     -1.6836596E-30
   6.230000     -1.4863207E-30
   6.240000     -1.2661436E-30
   6.250000     -1.0222955E-30
   6.260000     -7.5398333E-31
   6.270000     -4.6045995E-31
   6.280000     -1.4103105E-31
   6.290000      2.0493808E-31
   6.300000      5.7801502E-31
   6.310000      9.7869252E-31
   6.320000      1.4073802E-30
   6.330000      1.8643970E-30
   6.340000      2.3499631E-30
   6.350000      2.8641900E-30
   6.360000      3.4070728E-30
   6.370000      3.9784811E-30
   6.380000      4.5781499E-30
   6.390000      5.2056694E-30
   6.400000      5.8604769E-30
   6.410000      6.5418454E-30
   6.420000      7.2488768E-30
   6.430000      7.9804902E-30
   6.440000      8.7354126E-30
   6.450000      9.5121710E-30
   6.460000      1.0309082E-29
   6.470000      1.1124241E-29
   6.480000      1.1955517E-29
   6.490000      1.2800541E-29
   6.500000      1.3656699E-29
   6.510000      1.4521122E-29
   6.520000      1.5390685E-29
   6.530000      1.6261991E-29
   6.540000      1.7131373E-29
   6.550000      1.7994884E-29
   6.560000      1.8848295E-29
   6.570000      1.9687091E-29
   6.580000      2.0506465E-29
   6.590000      2.1301324E-29
   6.600000      2.2066279E-29
   6.610000      2.2795653E-29
   6.620000      2.3483479E-29
   6.630000      2.4123509E-29
   6.640000      2.4709210E-29
   6.650000      2.5233779E-29
   6.660000      2.5690148E-29
   6.670000      2.6070992E-29
   6.680000      2.6368740E-29
   6.690000      2.6575600E-29
   6.700000      2.6683558E-29
   6.710000      2.6684406E-29
   6.720000      2.6569759E-29
   6.730000      2.6331076E-29
   6.740000      2.5959697E-29
   6.750000      2.5446840E-29
   6.760000      2.4783661E-29
   6.770000      2.3961275E-29
   6.780000      2.2970786E-29
   6.790000      2.1803331E-29
   6.800000      2.0450115E-29
   6.810000      1.8902455E-29
   6.820000      1.7151827E-29
   6.830000      1.5189909E-29
   6.840000      1.3008641E-29
   6.850000      1.0600270E-29
   6.860000      7.9574129E-30
   6.870000      5.0731105E-30
   6.880000      1.9408914E-30
   6.890000     -1.4451629E-30
   6.900000     -5.0903502E-30
   6.910000     -8.9992808E-30
   6.920000     -1.3175807E-29
   6.930000     -1.7622950E-29
   6.940000     -2.2342814E-29
   6.950000     -2.7336529E-29
   6.960000     -3.2604152E-29
   6.970000     -3.8144604E-29
   6.980000     -4.3955574E-29
   6.990000     -5.0033442E-29
   7.000000     -5.6373209E-29
   7.010000     -6.2968388E-29
   7.020000     -6.9810952E-29
   7.030000     -7.6891230E-29
   7.040000     -8.4197841E-29
   7.050000     -9.1717581E-29
   7.060000     -9.9435402E-29