  -2.600000      0.0000000E+00
  -2.590000      0.0000000E+00
  -2.580000      0.0000000E+00
  -2.570000      0.0000000E+00
  -2.560000      0.0000000E+00
  -2.550000      0.0000000E+00
  -2.540000      0.0000000E+00
  -2.530000      0.0000000E+00
  -2.520000      0.0000000E+00
  -2.510000      0.0000000E+00
  -2.500000      0.0000000E+00
  -2.490000      0.0000000E+00
  -2.480000      0.0000000E+00
  -2.470000      0.0000000E+00
  -2.460000      0.0000000E+00
  -2.450000      0.0000000E+00
  -2.440000      0.0000000E+00
  -2.430000      0.0000000E+00
  -2.420000      0.0000000E+00
  -2.410000      0.0000000E+00
  -2.400000      0.0000000E+00
  -2.390000      0.0000000E+00
  -2.380000      0.0000000E+00
  -2.370000      0.0000000E+00
  -2.360000      0.0000000E+00
  -2.350000      0.0000000E+00
  -2.340000      0.0000000E+00
  -2.330000      0.0000000E+00
  -2.320000      0.0000000E+00
  -2.310000      0.0000000E+00
  -2.300000      0.0000000E+00
  -2.290000      0.0000000E+00
  -2.280000      0.0000000E+00
  -2.270000      0.0000000E+00
  -2.260000      0.0000000E+00
  -2.250000      0.0000000E+00
  -2.240000      0.0000000E+00
  -2.230000      0.0000000E+00
  -2.220000      0.0000000E+00
  -2.210000      0.0000000E+00
  -2.200000      0.0000000E+00
  -2.190000      0.0000000E+00
  -2.180000      0.0000000E+00
  -2.170000      0.0000000E+00
  -2.160000      0.0000000E+00
  -2.150000      0.0000000E+00
  -2.140000      0.0000000E+00
  -2.130000      0.0000000E+00
  -2.120000      0.0000000E+00
  -2.110000      0.0000000E+00
  -2.100000      0.0000000E+00
  -2.090000      0.0000000E+00
  -2.080000      0.0000000E+00
  -2.070000      0.0000000E+00
  -2.060000      0.0000000E+00
  -2.050000      0.0000000E+00
  -2.040000      0.0000000E+00
  -2.030000      0.0000000E+00
  -2.020000      0.0000000E+00
  -2.010000      0.0000000E+00
  -2.000000      0.0000000E+00
  -1.990000      0.0000000E+00
  -1.980000      0.0000000E+00
  -1.970000      0.0000000E+00
  -1.960000      0.0000000E+00
  -1.950000      0.0000000E+00
  -1.940000      0.0000000E+00
  -1.930000      0.0000000E+00
  -1.920000      0.0000000E+00
  -1.910000      0.0000000E+00
  -1.900000      0.0000000E+00
  -1.890000      0.0000000E+00
  -1.880000      0.0000000E+00
  -1.870000      0.0000000E+00
  -1.860000      0.0000000E+00
  -1.850000      0.0000000E+00
  -1.840000      0.0000000E+00
  -1.830000      0.0000000E+00
  -1.820000      0.0000000E+00
  -1.810000      0.0000000E+00
  -1.800000      0.0000000E+00
  -1.790000      0.0000000E+00
  -1.780000      0.0000000E+00
  -1.770000      0.0000000E+00
  -1.760000      0.0000000E+00
  -1.750000      0.0000000E+00
  -1.740000      0.0000000E+00
  -1.730000      0.0000000E+00
  -1.720000      0.0000000E+00
  -1.710000      0.0000000E+00
  -1.700000      0.0000000E+00
  -1.690000      0.0000000E+00
  -1.680000      0.0000000E+00
  -1.670000      0.0000000E+00
  -1.660000      0.0000000E+00
  -1.650000      0.0000000E+00
  -1.640000      0.0000000E+00
  -1.630000      0.0000000E+00
  -1.620000      0.0000000E+00
  -1.610000      0.0000000E+00
  -1.600000      0.0000000E+00
  -1.590000      0.0000000E+00
  -1.580000      0.0000000E+00
  -1.570000      0.0000000E+00
  -1.560000      0.0000000E+00
  -1.550000      0.0000000E+00
  -1.540000      0.0000000E+00
  -1.530000      0.0000000E+00
  -1.520000      0.0000000E+00
  -1.510000      0.0000000E+00
  -1.500000      0.0000000E+00
  -1.490000      0.0000000E+00
  -1.480000      0.0000000E+00
  -1.470000      0.0000000E+00
  -1.460000      0.0000000E+00
  -1.450000      0.0000000E+00
  -1.440000      0.0000000E+00
  -1.430000      0.0000000E+00
  -1.420000      0.0000000E+00
  -1.410000      0.0000000E+00
  -1.400000      0.0000000E+00
  -1.390000      0.0000000E+00
  -1.380000      0.0000000E+00
  -1.370000      0.0000000E+00
  -1.360000      0.0000000E+00
  -1.350000      0.0000000E+00
  -1.340000      0.0000000E+00
  -1.330000      0.0000000E+00
  -1.320000      0.0000000E+00
  -1.310000      0.0000000E+00
  -1.300000      0.0000000E+00
  -1.290000      0.0000000E+00
  -1.280000      0.0000000E+00
  -1.270000      0.0000000E+00
  -1.260000      0.0000000E+00
  -1.250000      0.0000000E+00
  -1.240000      0.0000000E+00
  -1.230000      0.0000000E+00
  -1.220000      0.0000000E+00
  -1.210000      0.0000000E+00
  -1.200000      0.0000000E+00
  -1.190000      0.0000000E+00
  -1.180000      0.0000000E+00
  -1.170000      0.0000000E+00
  -1.160000      0.0000000E+00
  -1.150000      0.0000000E+00
  -1.140000      0.0000000E+00
  -1.130000      0.0000000E+00
  -1.120000      0.0000000E+00
  -1.110000      0.0000000E+00
  -1.100000      0.0000000E+00
  -1.090000      0.0000000E+00
  -1.080000      0.0000000E+00
  -1.070000      0.0000000E+00
  -1.060000      0.0000000E+00
  -1.050000      0.0000000E+00
  -1.040000      0.0000000E+00
  -1.030000      0.0000000E+00
  -1.020000      0.0000000E+00
  -1.010000      0.0000000E+00
  -1.000000      0.0000000E+00
 -0.9900000      0.0000000E+00
 -0.9800000      0.0000000E+00
 -0.9700000      0.0000000E+00
 -0.9600000      0.0000000E+00
 -0.9500000      0.0000000E+00
 -0.9400000      0.0000000E+00
 -0.9300000      0.0000000E+00
 -0.9200000      0.0000000E+00
 -0.9100000      0.0000000E+00
 -0.9000000      0.0000000E+00
 -0.8900000      0.0000000E+00
 -0.8800000      0.0000000E+00
 -0.8700000      0.0000000E+00
 -0.8600000      0.0000000E+00
 -0.8500000      0.0000000E+00
 -0.8400000      0.0000000E+00
 -0.8300000      0.0000000E+00
 -0.8200000      0.0000000E+00
 -0.8100000      0.0000000E+00
 -0.8000000      0.0000000E+00
 -0.7900000      0.0000000E+00
 -0.7800000      0.0000000E+00
 -0.7700000      0.0000000E+00
 -0.7600000      0.0000000E+00
 -0.7500000      0.0000000E+00
 -0.7400000      0.0000000E+00
 -0.7300000      0.0000000E+00
 -0.7200000      0.0000000E+00
 -0.7100000      0.0000000E+00
 -0.7000000      0.0000000E+00
 -0.6900000      0.0000000E+00
 -0.6800000      0.0000000E+00
 -0.6700000      0.0000000E+00
 -0.6600000      0.0000000E+00
 -0.6500000      0.0000000E+00
 -0.6400000      0.0000000E+00
 -0.6300000      0.0000000E+00
 -0.6200000      0.0000000E+00
 -0.6100000      0.0000000E+00
 -0.6000000      0.0000000E+00
 -0.5900000      0.0000000E+00
 -0.5800000      0.0000000E+00
 -0.5700000      0.0000000E+00
 -0.5600000      0.0000000E+00
 -0.5500000      0.0000000E+00
 -0.5400000      0.0000000E+00
 -0.5300000      0.0000000E+00
 -0.5200000      0.0000000E+00
 -0.5100000      0.0000000E+00
 -0.5000000      0.0000000E+00
 -0.4900000      0.0000000E+00
 -0.4800000      0.0000000E+00
 -0.4700000      0.0000000E+00
 -0.4600000      0.0000000E+00
 -0.4500000      0.0000000E+00
 -0.4400000      0.0000000E+00
 -0.4300000      0.0000000E+00
 -0.4200000      0.0000000E+00
 -0.4100000      0.0000000E+00
 -0.4000000      0.0000000E+00
 -0.3900000      0.0000000E+00
 -0.3800000      0.0000000E+00
 -0.3700000      0.0000000E+00
 -0.3600000      0.0000000E+00
 -0.3500000      0.0000000E+00
 -0.3400000      0.0000000E+00
 -0.3300000      0.0000000E+00
 -0.3200000      0.0000000E+00
 -0.3100000      0.0000000E+00
 -0.3000000      0.0000000E+00
 -0.2900000      0.0000000E+00
 -0.2800000      0.0000000E+00
 -0.2700000      0.0000000E+00
 -0.2600000      0.0000000E+00
 -0.2500000      0.0000000E+00
 -0.2400000      0.0000000E+00
 -0.2300000      0.0000000E+00
 -0.2200000      0.0000000E+00
 -0.2100000      0.0000000E+00
 -0.2000000      0.0000000E+00
 -0.1900000      0.0000000E+00
 -0.1800000      0.0000000E+00
 -0.1700000      0.0000000E+00
 -0.1600000      0.0000000E+00
 -0.1500000     -1.1967578E-38
 -0.1400000      0.0000000E+00
 -0.1300000      0.0000000E+00
 -0.1200000      0.0000000E+00
 -0.1100000      0.0000000E+00
 -0.1000000      1.5725709E-38
 -9.0000004E-02  2.7317249E-38
 -7.9999998E-02  4.0119688E-38
 -7.0000000E-02  5.3922481E-38
 -5.9999999E-02  6.9181113E-38
 -5.0000001E-02  8.3095794E-38
 -3.9999999E-02  9.2858517E-38
 -2.9999999E-02  9.8891482E-38
 -2.0000000E-02  1.0013952E-37
 -9.9999998E-03  9.5949574E-38
 -3.4694470E-17  8.8767067E-38
  9.9999998E-03  7.9419431E-38
  2.0000000E-02  6.6803743E-38
  2.9999999E-02  5.2633527E-38
  3.9999999E-02  3.2124210E-38
  5.0000001E-02  0.0000000E+00
  5.9999999E-02 -3.2606548E-38
  7.0000000E-02 -6.6546526E-38
  7.9999998E-02 -1.2334764E-37
  9.0000004E-02 -1.9991706E-37
  0.1000000     -2.8278797E-37
  0.1100000     -3.6248618E-37
  0.1200000     -4.2933444E-37
  0.1300000     -4.9721926E-37
  0.1400000     -5.7255194E-37
  0.1500000     -6.3310884E-37
  0.1600000     -6.4809816E-37
  0.1700000     -5.9926397E-37
  0.1800000     -4.6957041E-37
  0.1900000     -2.7707197E-37
  0.2000000     -6.1306746E-38
  0.2100000      1.4166537E-37
  0.2200000      3.5938904E-37
  0.2300000      6.5264173E-37
  0.2400000      1.0257922E-36
  0.2500000      1.4393994E-36
  0.2600000      1.9468727E-36
  0.2700000      2.5365066E-36
  0.2800000      2.7641803E-36
  0.2900000      2.4476551E-36
  0.3000000      1.7560007E-36
  0.3100000      1.5028348E-36
  0.3200000      1.6523559E-36
  0.3300000      1.2768097E-36
  0.3400000      3.9184314E-37
  0.3500000     -1.1553409E-36
  0.3600000     -3.4454339E-36
  0.3700000     -6.7456336E-36
  0.3800000     -1.1298435E-35
  0.3900000     -1.9098675E-35
  0.4000000     -3.0910419E-35
  0.4100000     -4.5117063E-35
  0.4200000     -6.2386745E-35
  0.4300000     -8.2994855E-35
  0.4400000     -1.0661272E-34
  0.4500000     -1.3389574E-34
  0.4600000     -1.6736085E-34
  0.4700000     -2.0305207E-34
  0.4800000     -2.3677728E-34
  0.4900000     -2.7200324E-34
  0.5000000     -3.0999572E-34
  0.5100000     -3.5181065E-34
  0.5200000     -3.9472646E-34
  0.5300000     -4.3704164E-34
  0.5400000     -4.8157836E-34
  0.5500000     -5.2890882E-34
  0.5600000     -5.7853539E-34
  0.5700000     -6.3427692E-34
  0.5800000     -6.9816609E-34
  0.5900000     -7.6824810E-34
  0.6000000     -8.4502395E-34
  0.6100000     -9.2878068E-34
  0.6200000     -1.0208506E-33
  0.6300000     -1.1248512E-33
  0.6400000     -1.2386134E-33
  0.6500000     -1.3575426E-33
  0.6600000     -1.4807653E-33
  0.6700000     -1.6073770E-33
  0.6800000     -1.7369948E-33
  0.6900000     -1.8739421E-33
  0.7000000     -2.0185369E-33
  0.7100000     -2.1658136E-33
  0.7200000     -2.3151971E-33
  0.7300000     -2.4645699E-33
  0.7400000     -2.6131517E-33
  0.7500000     -2.7619939E-33
  0.7600000     -2.9082413E-33
  0.7700000     -3.0491291E-33
  0.7800000     -3.1840458E-33
  0.7900000     -3.3122404E-33
  0.8000000     -3.4328498E-33
  0.8100000     -3.5450184E-33
  0.8200000     -3.6482323E-33
  0.8300000     -3.7419141E-33
  0.8400000     -3.8256287E-33
  0.8500000     -3.8993025E-33
  0.8600000     -3.9625760E-33
  0.8700000     -4.0154916E-33
  0.8800000     -4.0583593E-33
  0.8900000     -4.0910914E-33
  0.9000000     -4.1136564E-33
  0.9100000     -4.1260087E-33
  0.9200000     -4.1282829E-33
  0.9300000     -4.1201110E-33
  0.9400000     -4.1009097E-33
  0.9500000     -4.0705198E-33
  0.9600000     -4.0287913E-33
  0.9700000     -3.9751219E-33
  0.9800000     -3.9087343E-33
  0.9900000     -3.8289998E-33
   1.000000     -3.7351568E-33
   1.010000     -3.6266568E-33
   1.020000     -3.5026973E-33
   1.030000     -3.3625056E-33
   1.040000     -3.2054780E-33
   1.050000     -3.0311003E-33
   1.060000     -2.8391192E-33
   1.070000     -2.6291869E-33
   1.080000     -2.4011643E-33
   1.090000     -2.1550209E-33
   1.100000     -1.8908253E-33
   1.110000     -1.6086354E-33
   1.120000     -1.3085278E-33
   1.130000     -9.9070388E-34
   1.140000     -6.5506801E-34
   1.150000     -3.0133063E-34
   1.160000      7.0885839E-35
   1.170000      4.6239475E-34
   1.180000      8.7448404E-34
   1.190000      1.3090369E-33
   1.200000      1.7685250E-33
   1.210000      2.2562508E-33
   1.220000      2.7763421E-33
   1.230000      3.3336913E-33
   1.240000      3.9362192E-33
   1.250000      4.5887115E-33
   1.260000      5.2968286E-33
   1.270000      6.0709783E-33
   1.280000      6.9210977E-33
   1.290000      7.8578998E-33
   1.300000      8.8922144E-33
   1.310000      1.0035808E-32
   1.320000      1.1300994E-32
   1.330000      1.2700394E-32
   1.340000      1.4247296E-32
   1.350000      1.5955268E-32
   1.360000      1.7837804E-32
   1.370000      1.9908766E-32
   1.380000      2.2182187E-32
   1.390000      2.4672342E-32
   1.400000      2.7393800E-32
   1.410000      3.0361470E-32
   1.420000      3.3590741E-32
   1.430000      3.7097611E-32
   1.440000      4.0898819E-32
   1.450000      4.5012033E-32
   1.460000      4.9455968E-32
   1.470000      5.4250510E-32
   1.480000      5.9416849E-32
   1.490000      6.4977584E-32
   1.500000      7.0956724E-32
   1.510000      7.7379719E-32
   1.520000      8.4273394E-32
   1.530000      9.1665825E-32
   1.540000      9.9586200E-32
   1.550000      1.0806456E-31
   1.560000      1.1713151E-31
   1.570000      1.2681801E-31
   1.580000      1.3715496E-31
   1.590000      1.4817290E-31
   1.600000      1.5990171E-31
   1.610000      1.7237028E-31
   1.620000      1.8560631E-31
   1.630000      1.9963613E-31
   1.640000      2.1448467E-31
   1.650000      2.3017541E-31
   1.660000      2.4673067E-31
   1.670000      2.6417174E-31
   1.680000      2.8251944E-31
   1.690000      3.0179452E-31
   1.700000      3.2201833E-31
   1.710000      3.4321365E-31
   1.720000      3.6540519E-31
   1.730000      3.8862069E-31
   1.740000      4.1289164E-31
   1.750000      4.3825410E-31
   1.760000      4.6474947E-31
   1.770000      4.9242497E-31
   1.780000      5.2133428E-31
   1.790000      5.5153781E-31
   1.800000      5.8310303E-31
   1.810000      6.1610410E-31
   1.820000      6.5062216E-31
   1.830000      6.8674458E-31
   1.840000      7.2456470E-31
   1.850000      7.6418117E-31
   1.860000      8.0569737E-31
   1.870000      8.4922057E-31
   1.880000      8.9486125E-31
   1.890000      9.4273265E-31
   1.900000      9.9295061E-31
   1.910000      1.0456328E-30
   1.920000      1.1008990E-30
   1.930000      1.1588719E-30
   1.940000      1.2196767E-30
   1.950000      1.2834428E-30
   1.960000      1.3503047E-30
   1.970000      1.4204035E-30
   1.980000      1.4938877E-30
   1.990000      1.5709161E-30
   2.000000      1.6516583E-30
   2.010000      1.7362975E-30
   2.020000      1.8250296E-30
   2.030000      1.9180665E-30
   2.040000      2.0156348E-30
   2.050000      2.1179769E-30
   2.060000      2.2253490E-30
   2.070000      2.3380208E-30
   2.080000      2.4562720E-30
   2.090000      2.5803899E-30
   2.100000      2.7106648E-30
   2.110000      2.8473872E-30
   2.120000      2.9908398E-30
   2.130000      3.1412925E-30
   2.140000      3.2989980E-30
   2.150000      3.4641811E-30
   2.160000      3.6370356E-30
   2.170000      3.8177160E-30
   2.180000      4.0063315E-30
   2.190000      4.2029396E-30
   2.200000      4.4075388E-30
   2.210000      4.6200671E-30
   2.220000      4.8403942E-30
   2.230000      5.0683194E-30
   2.240000      5.3035661E-30
   2.250000      5.5457811E-30
   2.260000      5.7945308E-30
   2.270000      6.0492971E-30
   2.280000      6.3094755E-30
   2.290000      6.5743703E-30
   2.300000      6.8431932E-30
   2.310000      7.1150540E-30
   2.320000      7.3889581E-30
   2.330000      7.6637928E-30
   2.340000      7.9383221E-30
   2.350000      8.2111730E-30
   2.360000      8.4808227E-30
   2.370000      8.7455832E-30
   2.380000      9.0035848E-30
   2.390000      9.2527640E-30
   2.400000      9.4908391E-30
   2.410000      9.7152949E-30
   2.420000      9.9233676E-30
   2.430000      1.0112027E-29
   2.440000      1.0277959E-29
   2.450000      1.0417557E-29
   2.460000      1.0526910E-29
   2.470000      1.0601797E-29
   2.480000      1.0637689E-29
   2.490000      1.0629744E-29
   2.500000      1.0572814E-29
   2.510000      1.0461455E-29
   2.520000      1.0289946E-29
   2.530000      1.0052299E-29
   2.540000      9.7422813E-30
   2.550000      9.3534518E-30
   2.560000      8.8791765E-30
   2.570000      8.3126522E-30
   2.580000      7.6469507E-30
   2.590000      6.8750403E-30
   2.600000      5.9898065E-30
   2.610000      4.9840934E-30
   2.620000      3.8507416E-30
   2.630000      2.5825980E-30
   2.640000      1.1725349E-30
   2.650000     -3.8650475E-31
   2.660000     -2.1014762E-30
   2.670000     -3.9792248E-30
   2.680000     -6.0264447E-30
   2.690000     -8.2496389E-30
   2.700000     -1.0655098E-29
   2.710000     -1.3248836E-29
   2.720000     -1.6036549E-29
   2.730000     -1.9023555E-29
   2.740000     -2.2214720E-29
   2.750000     -2.5614402E-29
   2.760000     -2.9226351E-29
   2.770000     -3.3053589E-29
   2.780000     -3.7098325E-29
   2.790000     -4.1361843E-29
   2.800000     -4.5844370E-29
   2.810000     -5.0544936E-29
   2.820000     -5.5461275E-29
   2.830000     -6.0589654E-29
   2.840000     -6.5924738E-29
   2.850000     -7.1459494E-29
   2.860000     -7.7185073E-29
   2.870000     -8.3090654E-29
   2.880000     -8.9163376E-29
   2.890000     -9.5388247E-29
   2.900000     -1.0174803E-28
   2.910000     -1.0822330E-28
   2.920000     -1.1479227E-28
   2.930000     -1.2143087E-28
   2.940000     -1.2811264E-28
   2.950000     -1.3480884E-28
   2.960000     -1.4148838E-28
   2.970000     -1.4811794E-28
   2.980000     -1.5466194E-28
   2.990000     -1.6108263E-28
   3.000000     -1.6734014E-28
   3.010000     -1.7339259E-28
   3.020000     -1.7919603E-28
   3.030000     -1.8470464E-28
   3.040000     -1.8987080E-28
   3.050000     -1.9464505E-28
   3.060000     -1.9897631E-28
   3.070000     -2.0281191E-28
   3.080000     -2.0609776E-28
   3.090000     -2.0877856E-28
   3.100000     -2.1079778E-28
   3.110000     -2.1209802E-28
   3.120000     -2.1262122E-28
   3.130000     -2.1230888E-28
   3.140000     -2.1110243E-28
   3.150000     -2.0894361E-28
   3.160000     -2.0577488E-28
   3.170000     -2.0154003E-28
   3.180000     -1.9618458E-28
   3.190000     -1.8965636E-28
   3.200000     -1.8190632E-28
   3.210000     -1.7288915E-28
   3.220000     -1.6256404E-28
   3.230000     -1.5089549E-28
   3.240000     -1.3785408E-28
   3.250000     -1.2341735E-28
   3.260000     -1.0757051E-28
   3.270000     -9.0307493E-29
   3.280000     -7.1631678E-29
   3.290000     -5.1556543E-29
   3.300000     -3.0106691E-29
   3.310000     -7.3185029E-30
   3.320000      1.6759218E-29
   3.330000      4.2064477E-29
   3.340000      6.8521650E-29
   3.350000      9.6040770E-29
   3.360000      1.2451699E-28
   3.370000      1.5383018E-28
   3.380000      1.8384446E-28
   3.390000      2.1440786E-28
   3.400000      2.4535182E-28
   3.410000      2.7649093E-28
   3.420000      3.0762282E-28
   3.430000      3.3852776E-28
   3.440000      3.6896838E-28
   3.450000      3.9868977E-28
   3.460000      4.2741908E-28
   3.470000      4.5486551E-28
   3.480000      4.8072064E-28
   3.490000      5.0465869E-28
   3.500000      5.2633691E-28
   3.510000      5.4539505E-28
   3.520000      5.6145740E-28
   3.530000      5.7413315E-28
   3.540000      5.8301746E-28
   3.550000      5.8769304E-28
   3.560000      5.8773147E-28
   3.570000      5.8269559E-28
   3.580000      5.7214188E-28
   3.590000      5.5562236E-28
   3.600000      5.3268868E-28
   3.610000      5.0289435E-28
   3.620000      4.6579863E-28
   3.630000      4.2097112E-28
   3.640000      3.6799555E-28
   3.650000      3.0647364E-28
   3.660000      2.3603061E-28
   3.670000      1.5632044E-28
   3.680000      6.7030325E-29
   3.690000     -3.2114325E-29
   3.700000     -1.4134361E-28
   3.710000     -2.6083743E-28
   3.720000     -3.9072044E-28
   3.730000     -5.3105587E-28
   3.740000     -6.8183992E-28
   3.750000     -8.4299494E-28
   3.760000     -1.0143648E-27
   3.770000     -1.1957080E-27
   3.780000     -1.3866916E-27
   3.790000     -1.5868851E-27
   3.800000     -1.7957542E-27
   3.810000     -2.0126550E-27
   3.820000     -2.2368274E-27
   3.830000     -2.4673903E-27
   3.840000     -2.7033331E-27
   3.850000     -2.9435106E-27
   3.860000     -3.1866368E-27
   3.870000     -3.4312795E-27
   3.880000     -3.6758569E-27
   3.890000     -3.9186280E-27
   3.900000     -4.1576899E-27
   3.910000     -4.3909735E-27
   3.920000     -4.6162418E-27
   3.930000     -4.8310851E-27
   3.940000     -5.0329183E-27
   3.950000     -5.2189840E-27
   3.960000     -5.3863515E-27
   3.970000     -5.5319125E-27
   3.980000     -5.6523956E-27
   3.990000     -5.7443603E-27
   4.000000     -5.8042097E-27
   4.010000     -5.8281991E-27
   4.020000     -5.8124396E-27
   4.030000     -5.7529157E-27
   4.040000     -5.6454985E-27
   4.050000     -5.4859618E-27
   4.060000     -5.2699945E-27
   4.070000     -4.9932168E-27
   4.080000     -4.6512187E-27
   4.090000     -4.2395688E-27
   4.100000     -3.7538435E-27
   4.110000     -3.1896541E-27
   4.120000     -2.5426749E-27
   4.130000     -1.8086770E-27
   4.140000     -9.8356376E-28
   4.150000     -6.3399507E-29
   4.160000      9.5554533E-28
   4.170000      2.0767509E-27
   4.180000      3.3034132E-27
   4.190000      4.6384031E-27
   4.200000      6.0842122E-27
   4.210000      7.6429058E-27
   4.220000      9.3160652E-27
   4.230000      1.1104729E-26
   4.240000      1.3009358E-26
   4.250000      1.5029760E-26
   4.260000      1.7165031E-26
   4.270000      1.9413491E-26
   4.280000      2.1772618E-26
   4.290000      2.4238989E-26
   4.300000      2.6808199E-26
   4.310000      2.9474792E-26
   4.320000      3.2232219E-26
   4.330000      3.5072728E-26
   4.340000      3.7987329E-26
   4.350000      4.0965698E-26
   4.360000      4.3996119E-26
   4.370000      4.7065438E-26
   4.380000      5.0158972E-26
   4.390000      5.3260462E-26
   4.400000      5.6352014E-26
   4.410000      5.9414051E-26
   4.420000      6.2425263E-26
   4.430000      6.5362586E-26
   4.440000      6.8201099E-26
   4.450000      7.0914072E-26
   4.460000      7.3472896E-26
   4.470000      7.5847096E-26
   4.480000      7.8004298E-26
   4.490000      7.9910266E-26
   4.500000      8.1528898E-26
   4.510000      8.2822167E-26
   4.520000      8.3750293E-26
   4.530000      8.4271706E-26
   4.540000      8.4343116E-26
   4.550000      8.3919590E-26
   4.560000      8.2954622E-26
   4.570000      8.1400246E-26
   4.580000      7.9207101E-26
   4.590000      7.6324635E-26
   4.600000      7.2701150E-26
   4.610000      6.8284170E-26
   4.620000      6.3020477E-26
   4.630000      5.6856244E-26
   4.640000      4.9737421E-26
   4.650000      4.1609969E-26
   4.660000      3.2420045E-26
   4.670000      2.2114355E-26
   4.680000      1.0640543E-26
   4.690000     -2.0524938E-27
   4.700000     -1.6014359E-26
   4.710000     -3.1292602E-26
   4.720000     -4.7932270E-26
   4.730000     -6.5975605E-26
   4.740000     -8.5461302E-26
   4.750000     -1.0642430E-25
   4.760000     -1.2889510E-25
   4.770000     -1.5289924E-25
   4.780000     -1.7845671E-25
   4.790000     -2.0558133E-25
   4.800000     -2.3428018E-25
   4.810000     -2.6455279E-25
   4.820000     -2.9639072E-25
   4.830000     -3.2977679E-25
   4.840000     -3.6468436E-25
   4.850000     -4.0107661E-25
   4.860000     -4.3890579E-25
   4.870000     -4.7811262E-25
   4.880000     -5.1862541E-25
   4.890000     -5.6035936E-25
   4.900000     -6.0321566E-25
   4.910000     -6.4708110E-25
   4.920000     -6.9182712E-25
   4.930000     -7.3730894E-25
   4.940000     -7.8336476E-25
   4.950000     -8.2981541E-25
   4.960000     -8.7646332E-25
   4.970000     -9.2309210E-25
   4.980000     -9.6946558E-25
   4.990000     -1.0153276E-24
   5.000000     -1.0604009E-24
   5.010000     -1.1043871E-24
   5.020000     -1.1469657E-24
   5.030000     -1.1877939E-24
   5.040000     -1.2265065E-24
   5.050000     -1.2627155E-24
   5.060000     -1.2960091E-24
   5.070000     -1.3259533E-24
   5.080000     -1.3520901E-24
   5.090000     -1.3739390E-24
   5.100000     -1.3909964E-24
   5.110000     -1.4027353E-24
   5.120000     -1.4086078E-24
   5.130000     -1.4080441E-24
   5.140000     -1.4004537E-24
   5.150000     -1.3852261E-24
   5.160000     -1.3617323E-24
   5.170000     -1.3293258E-24
   5.180000     -1.2873437E-24
   5.190000     -1.2351096E-24
   5.200000     -1.1719326E-24
   5.210000     -1.0971139E-24
   5.220000     -1.0099440E-24
   5.230000     -9.0970927E-25
   5.240000     -7.9569308E-25
   5.250000     -6.6717561E-25
   5.260000     -5.2344141E-25
   5.270000     -3.6378212E-25
   5.280000     -1.8749974E-25
   5.290000      6.0903864E-27
   5.300000      2.1765469E-25
   5.310000      4.4783599E-25
   5.320000      6.9725069E-25
   5.330000      9.6648300E-25
   5.340000      1.2560782E-24
   5.350000      1.5665387E-24
   5.360000      1.8983198E-24
   5.370000      2.2518192E-24
   5.380000      2.6273707E-24
   5.390000      3.0252407E-24
   5.400000      3.4456210E-24
   5.410000      3.8886212E-24
   5.420000      4.3542598E-24
   5.430000      4.8424570E-24
   5.440000      5.3530251E-24
   5.450000      5.8856660E-24
   5.460000      6.4399587E-24
   5.470000      7.0153495E-24
   5.480000      7.6111477E-24
   5.490000      8.2265113E-24
   5.500000      8.8604478E-24
   5.510000      9.5117929E-24
   5.520000      1.0179212E-23
   5.530000      1.0861187E-23
   5.540000      1.1556008E-23
   5.550000      1.2261762E-23
   5.560000      1.2976330E-23
   5.570000      1.3697374E-23
   5.580000      1.4422331E-23
   5.590000      1.5148406E-23
   5.600000      1.5872563E-23
   5.610000      1.6591510E-23
   5.620000      1.7301717E-23
   5.630000      1.7999382E-23
   5.640000      1.8680441E-23
   5.650000      1.9340555E-23
   5.660000      1.9975115E-23
   5.670000      2.0579227E-23
   5.680000      2.1147725E-23
   5.690000      2.1675145E-23
   5.700000      2.2155760E-23
   5.710000      2.2583546E-23
   5.720000      2.2952201E-23
   5.730000      2.3255151E-23
   5.740000      2.3485538E-23
   5.750000      2.3636246E-23
   5.760000      2.3699901E-23
   5.770000      2.3668871E-23
   5.780000      2.3535277E-23
   5.790000      2.3291020E-23
   5.800000      2.2927808E-23
   5.810000      2.2437135E-23
   5.820000      2.1810311E-23
   5.830000      2.1038494E-23
   5.840000      2.0112731E-23
   5.850000      1.9023933E-23
   5.860000      1.7762942E-23
   5.870000      1.6320549E-23
   5.880000      1.4687550E-23
   5.890000      1.2854742E-23
   5.900000      1.0812987E-23
   5.910000      8.5532551E-24
   5.920000      6.0666460E-24
   5.930000      3.3444578E-24
   5.940000      3.7825345E-25
   5.950000     -2.8401227E-24
   5.960000     -6.3184769E-24
   5.970000     -1.0064205E-23
   5.980000     -1.4084245E-23
   5.990000     -1.8384973E-23
   6.000000     -2.2972155E-23
   6.010000     -2.7850914E-23
   6.020000     -3.3025592E-23
   6.030000     -3.8499732E-23
   6.040000     -4.4275957E-23
   6.050000     -5.0355895E-23
   6.060000     -5.6740127E-23
   6.070000     -6.3428064E-23
   6.080000     -7.0417845E-23
   6.090000     -7.7706340E-23
   6.100000     -8.5288927E-23
   6.110000     -9.3159500E-23
   6.120000     -1.0131034E-22
   6.130000     -1.0973200E-22
   6.140000     -1.1841322E-22
   6.150000     -1.2734087E-22
   6.160000     -1.3649978E-22
   6.170000     -1.4587275E-22
   6.180000     -1.5544033E-22
   6.190000     -1.6518081E-22
   6.200000     -1.7507007E-22
   6.210000     -1.8508156E-22
   6.220000     -1.9518612E-22
   6.230000     -2.0535197E-22
   6.240000     -2.1554464E-22
   6.250000     -2.2572683E-22
   6.260000     -2.3585843E-22
   6.270000     -2.4589630E-22
   6.280000     -2.5579437E-22
   6.290000     -2.6550347E-22
   6.300000     -2.7497139E-22
   6.310000     -2.8414273E-22
   6.320000     -2.9295896E-22
   6.330000     -3.0135835E-22
   6.340000     -3.0927596E-22
   6.350000     -3.1664372E-22
   6.360000     -3.2339033E-22
   6.370000     -3.2944136E-22
   6.380000     -3.3471936E-22
   6.390000     -3.3914385E-22
   6.400000     -3.4263137E-22
   6.410000     -3.4509565E-22
   6.420000     -3.4644744E-22
   6.430000     -3.4659509E-22
   6.440000     -3.4544444E-22
   6.450000     -3.4289883E-22
   6.460000     -3.3885953E-22
   6.470000     -3.3322598E-22
   6.480000     -3.2589591E-22
   6.490000     -3.1676567E-22
   6.500000     -3.0573048E-22
   6.510000     -2.9268444E-22
   6.520000     -2.7752124E-22
   6.530000     -2.6013447E-22
   6.540000     -2.4041807E-22
   6.550000     -2.1826658E-22
   6.560000     -1.9357545E-22
   6.570000     -1.6624175E-22
   6.580000     -1.3616457E-22
   6.590000     -1.0324560E-22
   6.600000     -6.7389497E-23
   6.610000     -2.8504577E-23
   6.620000      1.3496478E-23
   6.630000      5.8696155E-23
   6.640000      1.0717139E-22
   6.650000      1.5899254E-22
   6.660000      2.1422317E-22
   6.670000      2.7291909E-22
   6.680000      3.3512752E-22
   6.690000      4.0088652E-22
   6.700000      4.7022391E-22
   6.710000      5.4315636E-22
   6.720000      6.1968909E-22
   6.730000      6.9981444E-22
   6.740000      7.8351124E-22
   6.750000      8.7074391E-22
   6.760000      9.6146115E-22
   6.770000      1.0555950E-21
   6.780000      1.1530610E-21
   6.790000      1.2537565E-21
   6.800000      1.3575591E-21
   6.810000      1.4643263E-21
   6.820000      1.5738951E-21
   6.830000      1.6860801E-21
   6.840000      1.8006732E-21
   6.850000      1.9174426E-21
   6.860000      2.0361313E-21
   6.870000      2.1564570E-21
   6.880000      2.2781118E-21
   6.890000      2.4007592E-21
   6.900000      2.5240370E-21
   6.910000      2.6475521E-21
   6.920000      2.7708836E-21
   6.930000      2.8935810E-21
   6.940000      3.0151628E-21
   6.950000      3.1351171E-21
   6.960000      3.2529017E-21
   6.970000      3.3679428E-21
   6.980000      3.4796346E-21
   6.990000      3.5873397E-21
   7.000000      3.6903892E-21
   7.010000      3.7880833E-21
   7.020000      3.8796915E-21
   7.030000      3.9644521E-21
   7.040000      4.0415726E-21
   7.050000      4.1102314E-21
   7.060000      4.1695767E-21