  -2.600000      0.0000000E+00
  -2.590000      0.0000000E+00
  -2.580000      0.0000000E+00
  -2.570000      0.0000000E+00
  -2.560000      0.0000000E+00
  -2.550000      0.0000000E+00
  -2.540000      0.0000000E+00
  -2.530000      0.0000000E+00
  -2.520000      0.0000000E+00
  -2.510000      0.0000000E+00
  -2.500000      0.0000000E+00
  -2.490000      0.0000000E+00
  -2.480000      0.0000000E+00
  -2.470000      0.0000000E+00
  -2.460000      0.0000000E+00
  -2.450000      0.0000000E+00
  -2.440000      0.0000000E+00
  -2.430000      0.0000000E+00
  -2.420000      0.0000000E+00
  -2.410000      0.0000000E+00
  -2.400000      0.0000000E+00
  -2.390000      0.0000000E+00
  -2.380000      0.0000000E+00
  -2.370000      0.0000000E+00
  -2.360000      0.0000000E+00
  -2.350000      0.0000000E+00
  -2.340000      0.0000000E+00
  -2.330000      0.0000000E+00
  -2.320000      0.0000000E+00
  -2.310000      0.0000000E+00
  -2.300000      0.0000000E+00
  -2.290000      0.0000000E+00
  -2.280000      0.0000000E+00
  -2.270000      0.0000000E+00
  -2.260000      0.0000000E+00
  -2.250000      0.0000000E+00
  -2.240000      0.0000000E+00
  -2.230000      0.0000000E+00
  -2.220000      0.0000000E+00
  -2.210000      0.0000000E+00
  -2.200000      0.0000000E+00
  -2.190000      0.0000000E+00
  -2.180000      0.0000000E+00
  -2.170000      0.0000000E+00
  -2.160000      0.0000000E+00
  -2.150000      0.0000000E+00
  -2.140000      0.0000000E+00
  -2.130000      0.0000000E+00
  -2.120000      0.0000000E+00
  -2.110000      0.0000000E+00
  -2.100000      0.0000000E+00
  -2.090000      0.0000000E+00
  -2.080000      0.0000000E+00
  -2.070000      0.0000000E+00
  -2.060000      0.0000000E+00
  -2.050000      0.0000000E+00
  -2.040000      0.0000000E+00
  -2.030000      0.0000000E+00
  -2.020000      0.0000000E+00
  -2.010000      0.0000000E+00
  -2.000000      0.0000000E+00
  -1.990000      0.0000000E+00
  -1.980000      0.0000000E+00
  -1.970000      0.0000000E+00
  -1.960000      0.0000000E+00
  -1.950000      0.0000000E+00
  -1.940000      0.0000000E+00
  -1.930000      0.0000000E+00
  -1.920000      0.0000000E+00
  -1.910000      0.0000000E+00
  -1.900000      0.0000000E+00
  -1.890000      0.0000000E+00
  -1.880000      0.0000000E+00
  -1.870000      0.0000000E+00
  -1.860000      0.0000000E+00
  -1.850000      0.0000000E+00
  -1.840000      0.0000000E+00
  -1.830000      0.0000000E+00
  -1.820000      0.0000000E+00
  -1.810000      0.0000000E+00
  -1.800000      0.0000000E+00
  -1.790000      0.0000000E+00
  -1.780000      0.0000000E+00
  -1.770000      0.0000000E+00
  -1.760000      0.0000000E+00
  -1.750000      0.0000000E+00
  -1.740000      0.0000000E+00
  -1.730000      0.0000000E+00
  -1.720000      0.0000000E+00
  -1.710000      0.0000000E+00
  -1.700000      0.0000000E+00
  -1.690000      0.0000000E+00
  -1.680000      0.0000000E+00
  -1.670000      0.0000000E+00
  -1.660000      0.0000000E+00
  -1.650000      0.0000000E+00
  -1.640000      0.0000000E+00
  -1.630000      0.0000000E+00
  -1.620000      0.0000000E+00
  -1.610000      0.0000000E+00
  -1.600000      0.0000000E+00
  -1.590000      0.0000000E+00
  -1.580000      0.0000000E+00
  -1.570000      0.0000000E+00
  -1.560000      0.0000000E+00
  -1.550000      0.0000000E+00
  -1.540000      0.0000000E+00
  -1.530000      0.0000000E+00
  -1.520000      0.0000000E+00
  -1.510000      0.0000000E+00
  -1.500000      0.0000000E+00
  -1.490000      0.0000000E+00
  -1.480000      0.0000000E+00
  -1.470000      0.0000000E+00
  -1.460000      0.0000000E+00
  -1.450000      0.0000000E+00
  -1.440000      0.0000000E+00
  -1.430000      0.0000000E+00
  -1.420000      0.0000000E+00
  -1.410000      0.0000000E+00
  -1.400000      0.0000000E+00
  -1.390000      0.0000000E+00
  -1.380000      0.0000000E+00
  -1.370000      0.0000000E+00
  -1.360000      0.0000000E+00
  -1.350000      0.0000000E+00
  -1.340000      0.0000000E+00
  -1.330000      0.0000000E+00
  -1.320000      0.0000000E+00
  -1.310000      0.0000000E+00
  -1.300000      0.0000000E+00
  -1.290000      0.0000000E+00
  -1.280000      0.0000000E+00
  -1.270000      0.0000000E+00
  -1.260000      0.0000000E+00
  -1.250000      0.0000000E+00
  -1.240000      0.0000000E+00
  -1.230000      0.0000000E+00
  -1.220000      0.0000000E+00
  -1.210000      0.0000000E+00
  -1.200000      0.0000000E+00
  -1.190000      0.0000000E+00
  -1.180000      0.0000000E+00
  -1.170000      0.0000000E+00
  -1.160000      0.0000000E+00
  -1.150000      0.0000000E+00
  -1.140000      0.0000000E+00
  -1.130000      0.0000000E+00
  -1.120000      0.0000000E+00
  -1.110000      0.0000000E+00
  -1.100000      0.0000000E+00
  -1.090000      0.0000000E+00
  -1.080000      0.0000000E+00
  -1.070000      0.0000000E+00
  -1.060000      0.0000000E+00
  -1.050000      0.0000000E+00
  -1.040000      0.0000000E+00
  -1.030000      0.0000000E+00
  -1.020000      0.0000000E+00
  -1.010000      0.0000000E+00
  -1.000000      0.0000000E+00
 -0.9900000      0.0000000E+00
 -0.9800000      0.0000000E+00
 -0.9700000      0.0000000E+00
 -0.9600000      0.0000000E+00
 -0.9500000      0.0000000E+00
 -0.9400000      0.0000000E+00
 -0.9300000      0.0000000E+00
 -0.9200000      0.0000000E+00
 -0.9100000      0.0000000E+00
 -0.9000000      0.0000000E+00
 -0.8900000      0.0000000E+00
 -0.8800000      0.0000000E+00
 -0.8700000      0.0000000E+00
 -0.8600000      0.0000000E+00
 -0.8500000      0.0000000E+00
 -0.8400000      0.0000000E+00
 -0.8300000      0.0000000E+00
 -0.8200000      0.0000000E+00
 -0.8100000      0.0000000E+00
 -0.8000000      0.0000000E+00
 -0.7900000      0.0000000E+00
 -0.7800000      0.0000000E+00
 -0.7700000      0.0000000E+00
 -0.7600000      0.0000000E+00
 -0.7500000      0.0000000E+00
 -0.7400000      0.0000000E+00
 -0.7300000      0.0000000E+00
 -0.7200000      0.0000000E+00
 -0.7100000      0.0000000E+00
 -0.7000000      0.0000000E+00
 -0.6900000      0.0000000E+00
 -0.6800000      0.0000000E+00
 -0.6700000      0.0000000E+00
 -0.6600000      0.0000000E+00
 -0.6500000      0.0000000E+00
 -0.6400000      0.0000000E+00
 -0.6300000      0.0000000E+00
 -0.6200000      0.0000000E+00
 -0.6100000      0.0000000E+00
 -0.6000000      0.0000000E+00
 -0.5900000      0.0000000E+00
 -0.5800000      0.0000000E+00
 -0.5700000      0.0000000E+00
 -0.5600000      0.0000000E+00
 -0.5500000      0.0000000E+00
 -0.5400000      0.0000000E+00
 -0.5300000      0.0000000E+00
 -0.5200000      0.0000000E+00
 -0.5100000      0.0000000E+00
 -0.5000000      0.0000000E+00
 -0.4900000      0.0000000E+00
 -0.4800000      0.0000000E+00
 -0.4700000      0.0000000E+00
 -0.4600000      0.0000000E+00
 -0.4500000      0.0000000E+00
 -0.4400000      0.0000000E+00
 -0.4300000      0.0000000E+00
 -0.4200000      0.0000000E+00
 -0.4100000      0.0000000E+00
 -0.4000000      0.0000000E+00
 -0.3900000      0.0000000E+00
 -0.3800000      0.0000000E+00
 -0.3700000      0.0000000E+00
 -0.3600000      0.0000000E+00
 -0.3500000      0.0000000E+00
 -0.3400000      0.0000000E+00
 -0.3300000      0.0000000E+00
 -0.3200000      0.0000000E+00
 -0.3100000      0.0000000E+00
 -0.3000000      0.0000000E+00
 -0.2900000      0.0000000E+00
 -0.2800000      0.0000000E+00
 -0.2700000      0.0000000E+00
 -0.2600000      0.0000000E+00
 -0.2500000      0.0000000E+00
 -0.2400000      0.0000000E+00
 -0.2300000      0.0000000E+00
 -0.2200000      0.0000000E+00
 -0.2100000      0.0000000E+00
 -0.2000000      0.0000000E+00
 -0.1900000      0.0000000E+00
 -0.1800000      0.0000000E+00
 -0.1700000      0.0000000E+00
 -0.1600000      0.0000000E+00
 -0.1500000      0.0000000E+00
 -0.1400000      0.0000000E+00
 -0.1300000      0.0000000E+00
 -0.1200000      0.0000000E+00
 -0.1100000      0.0000000E+00
 -0.1000000      0.0000000E+00
 -9.0000004E-02  0.0000000E+00
 -7.9999998E-02  0.0000000E+00
 -7.0000000E-02  0.0000000E+00
 -5.9999999E-02  0.0000000E+00
 -5.0000001E-02  0.0000000E+00
 -3.9999999E-02  0.0000000E+00
 -2.9999999E-02  0.0000000E+00
 -2.0000000E-02  0.0000000E+00
 -9.9999998E-03  0.0000000E+00
 -3.4694470E-17  0.0000000E+00
  9.9999998E-03  0.0000000E+00
  2.0000000E-02  0.0000000E+00
  2.9999999E-02  0.0000000E+00
  3.9999999E-02  0.0000000E+00
  5.0000001E-02  0.0000000E+00
  5.9999999E-02  0.0000000E+00
  7.0000000E-02  0.0000000E+00
  7.9999998E-02  0.0000000E+00
  9.0000004E-02  0.0000000E+00
  0.1000000      0.0000000E+00
  0.1100000      0.0000000E+00
  0.1200000      0.0000000E+00
  0.1300000      0.0000000E+00
  0.1400000      0.0000000E+00
  0.1500000      0.0000000E+00
  0.1600000      0.0000000E+00
  0.1700000      0.0000000E+00
  0.1800000      0.0000000E+00
  0.1900000      0.0000000E+00
  0.2000000      0.0000000E+00
  0.2100000      0.0000000E+00
  0.2200000      0.0000000E+00
  0.2300000      0.0000000E+00
  0.2400000      0.0000000E+00
  0.2500000      0.0000000E+00
  0.2600000      0.0000000E+00
  0.2700000      0.0000000E+00
  0.2800000      0.0000000E+00
  0.2900000      0.0000000E+00
  0.3000000      0.0000000E+00
  0.3100000      0.0000000E+00
  0.3200000      0.0000000E+00
  0.3300000      0.0000000E+00
  0.3400000      0.0000000E+00
  0.3500000      0.0000000E+00
  0.3600000      0.0000000E+00
  0.3700000      0.0000000E+00
  0.3800000      0.0000000E+00
  0.3900000      0.0000000E+00
  0.4000000      0.0000000E+00
  0.4100000      0.0000000E+00
  0.4200000      0.0000000E+00
  0.4300000      0.0000000E+00
  0.4400000      0.0000000E+00
  0.4500000      0.0000000E+00
  0.4600000      0.0000000E+00
  0.4700000      0.0000000E+00
  0.4800000      0.0000000E+00
  0.4900000      0.0000000E+00
  0.5000000      0.0000000E+00
  0.5100000      0.0000000E+00
  0.5200000      0.0000000E+00
  0.5300000      0.0000000E+00
  0.5400000      0.0000000E+00
  0.5500000      0.0000000E+00
  0.5600000      0.0000000E+00
  0.5700000      0.0000000E+00
  0.5800000      0.0000000E+00
  0.5900000      0.0000000E+00
  0.6000000      0.0000000E+00
  0.6100000      0.0000000E+00
  0.6200000      0.0000000E+00
  0.6300000      0.0000000E+00
  0.6400000      0.0000000E+00
  0.6500000      0.0000000E+00
  0.6600000      0.0000000E+00
  0.6700000      0.0000000E+00
  0.6800000      0.0000000E+00
  0.6900000      0.0000000E+00
  0.7000000      0.0000000E+00
  0.7100000      0.0000000E+00
  0.7200000      0.0000000E+00
  0.7300000      0.0000000E+00
  0.7400000      0.0000000E+00
  0.7500000      0.0000000E+00
  0.7600000      0.0000000E+00
  0.7700000      0.0000000E+00
  0.7800000      0.0000000E+00
  0.7900000      0.0000000E+00
  0.8000000      0.0000000E+00
  0.8100000      0.0000000E+00
  0.8200000      1.4759357E-38
  0.8300000      2.0210594E-38
  0.8400000      2.1007597E-38
  0.8500000      1.6738970E-38
  0.8600000      0.0000000E+00
  0.8700000      0.0000000E+00
  0.8800000      0.0000000E+00
  0.8900000     -1.8488970E-38
  0.9000000     -2.7353312E-38
  0.9100000     -3.7861092E-38
  0.9200000     -4.8334013E-38
  0.9300000     -5.7915542E-38
  0.9400000     -6.7647336E-38
  0.9500000     -7.6800006E-38
  0.9600000     -8.4975484E-38
  0.9700000     -9.4341466E-38
  0.9800000     -1.0646987E-37
  0.9900000     -1.2098860E-37
   1.000000     -1.3684177E-37
   1.010000     -1.5412297E-37
   1.020000     -1.7116370E-37
   1.030000     -1.8694575E-37
   1.040000     -2.0202208E-37
   1.050000     -2.1373528E-37
   1.060000     -2.2408309E-37
   1.070000     -2.3485419E-37
   1.080000     -2.4151251E-37
   1.090000     -2.4448098E-37
   1.100000     -2.3772246E-37
   1.110000     -2.2477552E-37
   1.120000     -2.1699053E-37
   1.130000     -2.1556650E-37
   1.140000     -2.6523589E-37
   1.150000     -4.7630704E-37
   1.160000     -8.1699252E-37
   1.170000     -1.1921571E-36
   1.180000     -1.5977764E-36
   1.190000     -2.0241957E-36
   1.200000     -2.3078388E-36
   1.210000     -2.4253948E-36
   1.220000     -2.5202634E-36
   1.230000     -2.5840602E-36
   1.240000     -2.6174112E-36
   1.250000     -2.6258859E-36
   1.260000     -2.6022409E-36
   1.270000     -2.5498859E-36
   1.280000     -2.4768327E-36
   1.290000     -2.3692817E-36
   1.300000     -2.2362394E-36
   1.310000     -2.0154491E-36
   1.320000     -1.5386650E-36
   1.330000     -9.1060544E-37
   1.340000     -3.2920196E-37
   1.350000      1.7370098E-37
   1.360000      4.0527381E-37
   1.370000      3.0627770E-37
   1.380000     -5.2850857E-38
   1.390000     -5.3230652E-37
   1.400000     -9.6684679E-37
   1.410000     -1.3471413E-36
   1.420000     -1.6412551E-36
   1.430000     -1.8515331E-36
   1.440000     -1.9918082E-36
   1.450000     -2.2039208E-36
   1.460000     -2.5955301E-36
   1.470000     -3.0354856E-36
   1.480000     -3.4149865E-36
   1.490000     -3.6857918E-36
   1.500000     -3.8530074E-36
   1.510000     -3.9103117E-36
   1.520000     -3.7106165E-36
   1.530000     -3.2602476E-36
   1.540000     -2.6862970E-36
   1.550000     -2.0007590E-36
   1.560000     -1.1615514E-36
   1.570000     -1.5824797E-37
   1.580000      1.2616824E-36
   1.590000      3.1271335E-36
   1.600000      5.2698282E-36
   1.610000      8.1022943E-36
   1.620000      1.1732452E-35
   1.630000      1.5985439E-35
   1.640000      2.0896860E-35
   1.650000      2.6398314E-35
   1.660000      3.2480826E-35
   1.670000      3.9022621E-35
   1.680000      4.5629654E-35
   1.690000      5.2258122E-35
   1.700000      5.9738462E-35
   1.710000      6.8382048E-35
   1.720000      7.7491974E-35
   1.730000      8.7075806E-35
   1.740000      9.7412172E-35
   1.750000      1.0834738E-34
   1.760000      1.2103584E-34
   1.770000      1.3556405E-34
   1.780000      1.5095643E-34
   1.790000      1.6756429E-34
   1.800000      1.8543981E-34
   1.810000      2.0437372E-34
   1.820000      2.2390493E-34
   1.830000      2.4347362E-34
   1.840000      2.6215030E-34
   1.850000      2.8114301E-34
   1.860000      3.0039000E-34
   1.870000      3.1723449E-34
   1.880000      3.3381245E-34
   1.890000      3.4851105E-34
   1.900000      3.5885469E-34
   1.910000      3.6649241E-34
   1.920000      3.6853936E-34
   1.930000      3.6522061E-34
   1.940000      3.5897423E-34
   1.950000      3.4871256E-34
   1.960000      3.3381519E-34
   1.970000      3.0912009E-34
   1.980000      2.7221940E-34
   1.990000      2.2595042E-34
   2.000000      1.7438314E-34
   2.010000      1.1402922E-34
   2.020000      3.9990809E-35
   2.030000     -4.1224214E-35
   2.040000     -1.2634016E-34
   2.050000     -2.1701237E-34
   2.060000     -3.1620038E-34
   2.070000     -4.2251932E-34
   2.080000     -5.3765922E-34
   2.090000     -6.6249622E-34
   2.100000     -7.9551516E-34
   2.110000     -9.3730411E-34
   2.120000     -1.0880548E-33
   2.130000     -1.2469206E-33
   2.140000     -1.4147957E-33
   2.150000     -1.5920850E-33
   2.160000     -1.7792053E-33
   2.170000     -1.9781235E-33
   2.180000     -2.1901513E-33
   2.190000     -2.4105422E-33
   2.200000     -2.6313391E-33
   2.210000     -2.8524594E-33
   2.220000     -3.0732271E-33
   2.230000     -3.2918378E-33
   2.240000     -3.5048312E-33
   2.250000     -3.7135005E-33
   2.260000     -3.9179050E-33
   2.270000     -4.1112147E-33
   2.280000     -4.2880109E-33
   2.290000     -4.4445144E-33
   2.300000     -4.5770393E-33
   2.310000     -4.6810635E-33
   2.320000     -4.7517783E-33
   2.330000     -4.7838704E-33
   2.340000     -4.7733288E-33
   2.350000     -4.7147888E-33
   2.360000     -4.5997656E-33
   2.370000     -4.4257799E-33
   2.380000     -4.1893612E-33
   2.390000     -3.8841320E-33
   2.400000     -3.5058744E-33
   2.410000     -3.0483311E-33
   2.420000     -2.5069498E-33
   2.430000     -1.8818709E-33
   2.440000     -1.1693949E-33
   2.450000     -3.6312986E-34
   2.460000      5.3918971E-34
   2.470000      1.5398396E-33
   2.480000      2.6408717E-33
   2.490000      3.8431723E-33
   2.500000      5.1449823E-33
   2.510000      6.5461326E-33
   2.520000      8.0487883E-33
   2.530000      9.6500791E-33
   2.540000      1.1345689E-32
   2.550000      1.3129290E-32
   2.560000      1.4994331E-32
   2.570000      1.6934643E-32
   2.580000      1.8940746E-32
   2.590000      2.1001573E-32
   2.600000      2.3106021E-32
   2.610000      2.5241326E-32
   2.620000      2.7391299E-32
   2.630000      2.9538865E-32
   2.640000      3.1665164E-32
   2.650000      3.3749354E-32
   2.660000      3.5768850E-32
   2.670000      3.7699341E-32
   2.680000      3.9514730E-32
   2.690000      4.1187103E-32
   2.700000      4.2686746E-32
   2.710000      4.3982305E-32
   2.720000      4.5041044E-32
   2.730000      4.5828737E-32
   2.740000      4.6309778E-32
   2.750000      4.6447529E-32
   2.760000      4.6204404E-32
   2.770000      4.5543444E-32
   2.780000      4.4424603E-32
   2.790000      4.2806135E-32
   2.800000      4.0651595E-32
   2.810000      3.7924522E-32
   2.820000      3.4588525E-32
   2.830000      3.0606514E-32
   2.840000      2.5942499E-32
   2.850000      2.0565343E-32
   2.860000      1.4445456E-32
   2.870000      7.5563451E-33
   2.880000     -1.2499068E-34
   2.890000     -8.6173485E-33
   2.900000     -1.7934942E-32
   2.910000     -2.8087062E-32
   2.920000     -3.9077291E-32
   2.930000     -5.0903096E-32
   2.940000     -6.3555189E-32
   2.950000     -7.7017144E-32
   2.960000     -9.1264852E-32
   2.970000     -1.0626603E-31
   2.980000     -1.2197952E-31
   2.990000     -1.3835477E-31
   3.000000     -1.5533172E-31
   3.010000     -1.7284018E-31
   3.020000     -1.9079930E-31
   3.030000     -2.0911781E-31
   3.040000     -2.2769201E-31
   3.050000     -2.4640654E-31
   3.060000     -2.6513529E-31
   3.070000     -2.8373963E-31
   3.080000     -3.0206871E-31
   3.090000     -3.1995945E-31
   3.100000     -3.3723670E-31
   3.110000     -3.5371330E-31
   3.120000     -3.6919036E-31
   3.130000     -3.8345764E-31
   3.140000     -3.9629394E-31
   3.150000     -4.0746791E-31
   3.160000     -4.1673851E-31
   3.170000     -4.2385627E-31
   3.180000     -4.2856399E-31
   3.190000     -4.3059811E-31
   3.200000     -4.2968997E-31
   3.210000     -4.2556728E-31
   3.220000     -4.1795572E-31
   3.230000     -4.0658102E-31
   3.240000     -3.9117055E-31
   3.250000     -3.7145556E-31
   3.260000     -3.4717342E-31
   3.270000     -3.1807003E-31
   3.280000     -2.8390217E-31
   3.290000     -2.4444024E-31
   3.300000     -1.9947095E-31
   3.310000     -1.4880021E-31
   3.320000     -9.2255912E-32
   3.330000     -2.9691089E-32
   3.340000      3.9013138E-32
   3.350000      1.1394442E-31
   3.360000      1.9515581E-31
   3.370000      2.8266273E-31
   3.380000      3.7643963E-31
   3.390000      4.7641662E-31
   3.400000      5.8247631E-31
   3.410000      6.9445032E-31
   3.420000      8.1211642E-31
   3.430000      9.3519500E-31
   3.440000      1.0633459E-30
   3.450000      1.1961660E-30
   3.460000      1.3331858E-30
   3.470000      1.4738670E-30
   3.480000      1.6175998E-30
   3.490000      1.7637014E-30
   3.500000      1.9114131E-30
   3.510000      2.0598992E-30
   3.520000      2.2082464E-30
   3.530000      2.3554616E-30
   3.540000      2.5004727E-30
   3.550000      2.6421287E-30
   3.560000      2.7792000E-30
   3.570000      2.9103801E-30
   3.580000      3.0342865E-30
   3.590000      3.1494652E-30
   3.600000      3.2543924E-30
   3.610000      3.3474795E-30
   3.620000      3.4270769E-30
   3.630000      3.4914797E-30
   3.640000      3.5389354E-30
   3.650000      3.5676498E-30
   3.660000      3.5757944E-30
   3.670000      3.5615158E-30
   3.680000      3.5229472E-30
   3.690000      3.4582149E-30
   3.700000      3.3654524E-30
   3.710000      3.2428116E-30
   3.720000      3.0884760E-30
   3.730000      2.9006734E-30
   3.740000      2.6776921E-30
   3.750000      2.4178939E-30
   3.760000      2.1197321E-30
   3.770000      1.7817673E-30
   3.780000      1.4026853E-30
   3.790000      9.8131491E-31
   3.800000      5.1664669E-31
   3.810000      7.8536063E-33
   3.820000     -5.4568992E-31
   3.830000     -1.1443866E-30
   3.840000     -1.7883960E-30
   3.850000     -2.4776113E-30
   3.860000     -3.2116394E-30
   3.870000     -3.9897783E-30
   3.880000     -4.8109941E-30
   3.890000     -5.6739010E-30
   3.900000     -6.5767378E-30
   3.910000     -7.5173477E-30
   3.920000     -8.4931562E-30
   3.930000     -9.5011526E-30
   3.940000     -1.0537870E-29
   3.950000     -1.1599371E-29
   3.960000     -1.2681224E-29
   3.970000     -1.3778496E-29
   3.980000     -1.4885732E-29
   3.990000     -1.5996953E-29
   4.000000     -1.7105640E-29
   4.010000     -1.8204728E-29
   4.020000     -1.9286604E-29
   4.030000     -2.0343107E-29
   4.040000     -2.1365528E-29
   4.050000     -2.2344617E-29
   4.060000     -2.3270586E-29
   4.070000     -2.4133127E-29
   4.080000     -2.4921425E-29
   4.090000     -2.5624176E-29
   4.100000     -2.6229616E-29
   4.110000     -2.6725543E-29
   4.120000     -2.7099348E-29
   4.130000     -2.7338058E-29
   4.140000     -2.7428381E-29
   4.150000     -2.7356739E-29
   4.160000     -2.7109327E-29
   4.170000     -2.6672171E-29
   4.180000     -2.6031194E-29
   4.190000     -2.5172275E-29
   4.200000     -2.4081327E-29
   4.210000     -2.2744384E-29
   4.220000     -2.1147674E-29
   4.230000     -1.9277731E-29
   4.240000     -1.7121475E-29
   4.250000     -1.4666328E-29
   4.260000     -1.1900319E-29
   4.270000     -8.8122008E-30
   4.280000     -5.3915811E-30
   4.290000     -1.6290471E-30
   4.300000      2.4837007E-30
   4.310000      6.9537077E-30
   4.320000      1.1786621E-29
   4.330000      1.6986543E-29
   4.340000      2.2555876E-29
   4.350000      2.8495163E-29
   4.360000      3.4802935E-29
   4.370000      4.1475545E-29
   4.380000      4.8507010E-29
   4.390000      5.5888832E-29
   4.400000      6.3609873E-29
   4.410000      7.1656125E-29
   4.420000      8.0010617E-29
   4.430000      8.8653234E-29
   4.440000      9.7560545E-29
   4.450000      1.0670566E-28
   4.460000      1.1605807E-28
   4.470000      1.2558352E-28
   4.480000      1.3524392E-28
   4.490000      1.4499710E-28
   4.500000      1.5479681E-28
   4.510000      1.6459254E-28
   4.520000      1.7432945E-28
   4.530000      1.8394833E-28
   4.540000      1.9338539E-28
   4.550000      2.0257239E-28
   4.560000      2.1143649E-28
   4.570000      2.1990023E-28
   4.580000      2.2788162E-28
   4.590000      2.3529402E-28
   4.600000      2.4204630E-28
   4.610000      2.4804290E-28
   4.620000      2.5318400E-28
   4.630000      2.5736546E-28
   4.640000      2.6047914E-28
   4.650000      2.6241311E-28
   4.660000      2.6305182E-28
   4.670000      2.6227632E-28
   4.680000      2.5996477E-28
   4.690000      2.5599251E-28
   4.700000      2.5023278E-28
   4.710000      2.4255684E-28
   4.720000      2.3283467E-28
   4.730000      2.2093544E-28
   4.740000      2.0672804E-28
   4.750000      1.9008170E-28
   4.760000      1.7086676E-28
   4.770000      1.4895524E-28
   4.780000      1.2422171E-28
   4.790000      9.6544045E-29
   4.800000      6.5804332E-29
   4.810000      3.1889744E-29
   4.820000     -5.3064185E-30
   4.830000     -4.5883818E-29
   4.840000     -8.9934007E-29
   4.850000     -1.3753928E-28
   4.860000     -1.8877150E-28
   4.870000     -2.4369107E-28
   4.880000     -3.0234541E-28
   4.890000     -3.6476793E-28
   4.900000     -4.3097647E-28
   4.910000     -5.0097217E-28
   4.920000     -5.7473799E-28
   4.930000     -6.5223702E-28
   4.940000     -7.3341155E-28
   4.950000     -8.1818097E-28
   4.960000     -9.0644066E-28
   4.970000     -9.9806033E-28
   4.980000     -1.0928827E-27
   4.990000     -1.1907215E-27
   5.000000     -1.2913601E-27
   5.010000     -1.3945506E-27
   5.020000     -1.5000113E-27
   5.030000     -1.6074259E-27
   5.040000     -1.7164419E-27
   5.050000     -1.8266692E-27
   5.060000     -1.9376793E-27
   5.070000     -2.0490026E-27
   5.080000     -2.1601286E-27
   5.090000     -2.2705042E-27
   5.100000     -2.3795331E-27
   5.110000     -2.4865745E-27
   5.120000     -2.5909426E-27
   5.130000     -2.6919056E-27
   5.140000     -2.7886859E-27
   5.150000     -2.8804599E-27
   5.160000     -2.9663564E-27
   5.170000     -3.0454586E-27
   5.180000     -3.1168035E-27
   5.190000     -3.1793822E-27
   5.200000     -3.2321407E-27
   5.210000     -3.2739815E-27
   5.220000     -3.3037645E-27
   5.230000     -3.3203086E-27
   5.240000     -3.3223929E-27
   5.250000     -3.3087607E-27
   5.260000     -3.2781196E-27
   5.270000     -3.2291461E-27
   5.280000     -3.1604882E-27
   5.290000     -3.0707686E-27
   5.300000     -2.9585899E-27
   5.310000     -2.8225385E-27
   5.320000     -2.6611891E-27
   5.330000     -2.4731101E-27
   5.340000     -2.2568692E-27
   5.350000     -2.0110403E-27
   5.360000     -1.7342100E-27
   5.370000     -1.4249847E-27
   5.380000     -1.0819980E-27
   5.390000     -7.0391897E-28
   5.400000     -2.8946181E-28
   5.410000      1.6260572E-28
   5.420000      6.5345224E-28
   5.430000      1.1841723E-27
   5.440000      1.7557758E-27
   5.450000      2.3691777E-27
   5.460000      3.0251851E-27
   5.470000      3.7244854E-27
   5.480000      4.4676336E-27
   5.490000      5.2550377E-27
   5.500000      6.0869490E-27
   5.510000      6.9634439E-27
   5.520000      7.8844113E-27
   5.530000      8.8495395E-27
   5.540000      9.8582992E-27
   5.550000      1.0909927E-26
   5.560000      1.2003415E-26
   5.570000      1.3137489E-26
   5.580000      1.4310596E-26
   5.590000      1.5520889E-26
   5.600000      1.6766211E-26
   5.610000      1.8044075E-26
   5.620000      1.9351650E-26
   5.630000      2.0685751E-26
   5.640000      2.2042815E-26
   5.650000      2.3418895E-26
   5.660000      2.4809634E-26
   5.670000      2.6210264E-26
   5.680000      2.7615586E-26
   5.690000      2.9019949E-26
   5.700000      3.0417250E-26
   5.710000      3.1800928E-26
   5.720000      3.3163931E-26
   5.730000      3.4498733E-26
   5.740000      3.5797312E-26
   5.750000      3.7051148E-26
   5.760000      3.8251215E-26
   5.770000      3.9387988E-26
   5.780000      4.0451431E-26
   5.790000      4.1431009E-26
   5.800000      4.2315679E-26
   5.810000      4.3093915E-26
   5.820000      4.3753699E-26
   5.830000      4.4282541E-26
   5.840000      4.4667492E-26
   5.850000      4.4895156E-26
   5.860000      4.4951720E-26
   5.870000      4.4822972E-26
   5.880000      4.4494319E-26
   5.890000      4.3950834E-26
   5.900000      4.3177285E-26
   5.910000      4.2158166E-26
   5.920000      4.0877740E-26
   5.930000      3.9320106E-26
   5.940000      3.7469214E-26
   5.950000      3.5308943E-26
   5.960000      3.2823159E-26
   5.970000      2.9995789E-26
   5.980000      2.6810865E-26
   5.990000      2.3252609E-26
   6.000000      1.9305522E-26
   6.010000      1.4954453E-26
   6.020000      1.0184700E-26
   6.030000      4.9820900E-27
   6.040000     -6.6690881E-28
   6.050000     -6.7750834E-27
   6.060000     -1.3354375E-26
   6.070000     -2.0415762E-26
   6.080000     -2.7969137E-26
   6.090000     -3.6023198E-26
   6.100000     -4.4585309E-26
   6.110000     -5.3661357E-26
   6.120000     -6.3255644E-26
   6.130000     -7.3370708E-26
   6.140000     -8.4007215E-26
   6.150000     -9.5163798E-26
   6.160000     -1.0683689E-25
   6.170000     -1.1902061E-25
   6.180000     -1.3170658E-25
   6.190000     -1.4488376E-25
   6.200000     -1.5853831E-25
   6.210000     -1.7265341E-25
   6.220000     -1.8720912E-25
   6.230000     -2.0218219E-25
   6.240000     -2.1754597E-25
   6.250000     -2.3327019E-25
   6.260000     -2.4932077E-25
   6.270000     -2.6565986E-25
   6.280000     -2.8224538E-25
   6.290000     -2.9903121E-25
   6.300000     -3.1596682E-25
   6.310000     -3.3299722E-25
   6.320000     -3.5006282E-25
   6.330000     -3.6709943E-25
   6.340000     -3.8403800E-25
   6.350000     -4.0080460E-25
   6.360000     -4.1732029E-25
   6.370000     -4.3350111E-25
   6.380000     -4.4925816E-25
   6.390000     -4.6449728E-25
   6.400000     -4.7911911E-25
   6.410000     -4.9301938E-25
   6.420000     -5.0608849E-25
   6.430000     -5.1821190E-25
   6.440000     -5.2926995E-25
   6.450000     -5.3913821E-25
   6.460000     -5.4768724E-25
   6.470000     -5.5478319E-25
   6.480000     -5.6028752E-25
   6.490000     -5.6405749E-25
   6.500000     -5.6594632E-25
   6.510000     -5.6580343E-25
   6.520000     -5.6347462E-25
   6.530000     -5.5880264E-25
   6.540000     -5.5162736E-25
   6.550000     -5.4178632E-25
   6.560000     -5.2911504E-25
   6.570000     -5.1344762E-25
   6.580000     -4.9461722E-25
   6.590000     -4.7245654E-25
   6.600000     -4.4679854E-25
   6.610000     -4.1747707E-25
   6.620000     -3.8432741E-25
   6.630000     -3.4718725E-25
   6.640000     -3.0589736E-25
   6.650000     -2.6030241E-25
   6.660000     -2.1025179E-25
   6.670000     -1.5560051E-25
   6.680000     -9.6210166E-26
   6.690000     -3.1950118E-26
   6.700000      3.7301738E-26
   6.710000      1.1165770E-25
   6.720000      1.9121922E-25
   6.730000      2.7607583E-25
   6.740000      3.6630369E-25
   6.750000      4.6196454E-25
   6.760000      5.6310444E-25
   6.770000      6.6975257E-25
   6.780000      7.8191967E-25
   6.790000      8.9959686E-25
   6.800000      1.0227542E-24
   6.810000      1.1513392E-24
   6.820000      1.2852758E-24
   6.830000      1.4244626E-24
   6.840000      1.5687716E-24
   6.850000      1.7180466E-24
   6.860000      1.8721016E-24
   6.870000      2.0307205E-24
   6.880000      2.1936545E-24
   6.890000      2.3606209E-24
   6.900000      2.5313024E-24
   6.910000      2.7053456E-24
   6.920000      2.8823595E-24
   6.930000      3.0619139E-24
   6.940000      3.2435395E-24
   6.950000      3.4267258E-24
   6.960000      3.6109201E-24
   6.970000      3.7955269E-24
   6.980000      3.9799078E-24
   6.990000      4.1633795E-24
   7.000000      4.3452131E-24
   7.010000      4.5246352E-24
   7.020000      4.7008265E-24
   7.030000      4.8729208E-24
   7.040000      5.0400063E-24
   7.050000      5.2011260E-24
   7.060000      5.3552757E-24