  -2.600000      0.0000000E+00
  -2.590000      0.0000000E+00
  -2.580000      0.0000000E+00
  -2.570000      0.0000000E+00
  -2.560000      0.0000000E+00
  -2.550000      0.0000000E+00
  -2.540000      0.0000000E+00
  -2.530000      0.0000000E+00
  -2.520000      0.0000000E+00
  -2.510000      0.0000000E+00
  -2.500000      0.0000000E+00
  -2.490000      0.0000000E+00
  -2.480000      0.0000000E+00
  -2.470000      0.0000000E+00
  -2.460000      0.0000000E+00
  -2.450000      0.0000000E+00
  -2.440000      0.0000000E+00
  -2.430000      0.0000000E+00
  -2.420000      0.0000000E+00
  -2.410000      0.0000000E+00
  -2.400000      0.0000000E+00
  -2.390000      0.0000000E+00
  -2.380000      0.0000000E+00
  -2.370000      0.0000000E+00
  -2.360000      0.0000000E+00
  -2.350000      0.0000000E+00
  -2.340000      0.0000000E+00
  -2.330000      0.0000000E+00
  -2.320000      0.0000000E+00
  -2.310000      0.0000000E+00
  -2.300000      0.0000000E+00
  -2.290000      0.0000000E+00
  -2.280000      0.0000000E+00
  -2.270000      0.0000000E+00
  -2.260000      0.0000000E+00
  -2.250000      0.0000000E+00
  -2.240000      0.0000000E+00
  -2.230000      0.0000000E+00
  -2.220000      0.0000000E+00
  -2.210000      0.0000000E+00
  -2.200000      0.0000000E+00
  -2.190000      0.0000000E+00
  -2.180000      0.0000000E+00
  -2.170000      0.0000000E+00
  -2.160000      0.0000000E+00
  -2.150000      0.0000000E+00
  -2.140000      0.0000000E+00
  -2.130000      0.0000000E+00
  -2.120000      0.0000000E+00
  -2.110000      0.0000000E+00
  -2.100000      0.0000000E+00
  -2.090000      0.0000000E+00
  -2.080000      0.0000000E+00
  -2.070000      0.0000000E+00
  -2.060000      0.0000000E+00
  -2.050000      0.0000000E+00
  -2.040000      0.0000000E+00
  -2.030000      0.0000000E+00
  -2.020000      0.0000000E+00
  -2.010000      0.0000000E+00
  -2.000000      0.0000000E+00
  -1.990000      0.0000000E+00
  -1.980000      0.0000000E+00
  -1.970000      0.0000000E+00
  -1.960000      0.0000000E+00
  -1.950000      0.0000000E+00
  -1.940000      0.0000000E+00
  -1.930000      0.0000000E+00
  -1.920000      0.0000000E+00
  -1.910000      0.0000000E+00
  -1.900000      0.0000000E+00
  -1.890000      0.0000000E+00
  -1.880000      0.0000000E+00
  -1.870000      0.0000000E+00
  -1.860000      0.0000000E+00
  -1.850000      0.0000000E+00
  -1.840000      0.0000000E+00
  -1.830000      0.0000000E+00
  -1.820000      0.0000000E+00
  -1.810000      0.0000000E+00
  -1.800000      0.0000000E+00
  -1.790000      0.0000000E+00
  -1.780000      0.0000000E+00
  -1.770000      0.0000000E+00
  -1.760000      0.0000000E+00
  -1.750000      0.0000000E+00
  -1.740000      0.0000000E+00
  -1.730000      0.0000000E+00
  -1.720000      0.0000000E+00
  -1.710000      0.0000000E+00
  -1.700000      0.0000000E+00
  -1.690000      0.0000000E+00
  -1.680000      0.0000000E+00
  -1.670000      0.0000000E+00
  -1.660000      0.0000000E+00
  -1.650000      0.0000000E+00
  -1.640000      0.0000000E+00
  -1.630000      0.0000000E+00
  -1.620000      0.0000000E+00
  -1.610000      0.0000000E+00
  -1.600000      0.0000000E+00
  -1.590000      0.0000000E+00
  -1.580000      0.0000000E+00
  -1.570000      0.0000000E+00
  -1.560000      0.0000000E+00
  -1.550000      0.0000000E+00
  -1.540000      0.0000000E+00
  -1.530000      0.0000000E+00
  -1.520000      0.0000000E+00
  -1.510000      0.0000000E+00
  -1.500000      0.0000000E+00
  -1.490000      0.0000000E+00
  -1.480000      0.0000000E+00
  -1.470000      0.0000000E+00
  -1.460000      0.0000000E+00
  -1.450000      0.0000000E+00
  -1.440000      0.0000000E+00
  -1.430000      0.0000000E+00
  -1.420000      0.0000000E+00
  -1.410000      0.0000000E+00
  -1.400000      0.0000000E+00
  -1.390000      0.0000000E+00
  -1.380000      0.0000000E+00
  -1.370000      0.0000000E+00
  -1.360000      0.0000000E+00
  -1.350000      0.0000000E+00
  -1.340000      0.0000000E+00
  -1.330000      0.0000000E+00
  -1.320000      0.0000000E+00
  -1.310000      0.0000000E+00
  -1.300000      0.0000000E+00
  -1.290000      0.0000000E+00
  -1.280000      0.0000000E+00
  -1.270000      0.0000000E+00
  -1.260000      0.0000000E+00
  -1.250000      0.0000000E+00
  -1.240000      0.0000000E+00
  -1.230000      0.0000000E+00
  -1.220000      0.0000000E+00
  -1.210000      0.0000000E+00
  -1.200000      0.0000000E+00
  -1.190000      0.0000000E+00
  -1.180000      0.0000000E+00
  -1.170000      0.0000000E+00
  -1.160000      0.0000000E+00
  -1.150000      0.0000000E+00
  -1.140000      0.0000000E+00
  -1.130000      0.0000000E+00
  -1.120000      0.0000000E+00
  -1.110000      0.0000000E+00
  -1.100000      0.0000000E+00
  -1.090000      0.0000000E+00
  -1.080000      0.0000000E+00
  -1.070000      0.0000000E+00
  -1.060000      0.0000000E+00
  -1.050000      0.0000000E+00
  -1.040000      0.0000000E+00
  -1.030000      0.0000000E+00
  -1.020000      0.0000000E+00
  -1.010000      0.0000000E+00
  -1.000000      0.0000000E+00
 -0.9900000      0.0000000E+00
 -0.9800000      0.0000000E+00
 -0.9700000      0.0000000E+00
 -0.9600000      0.0000000E+00
 -0.9500000      0.0000000E+00
 -0.9400000      0.0000000E+00
 -0.9300000      0.0000000E+00
 -0.9200000      0.0000000E+00
 -0.9100000      0.0000000E+00
 -0.9000000      0.0000000E+00
 -0.8900000      0.0000000E+00
 -0.8800000      0.0000000E+00
 -0.8700000      0.0000000E+00
 -0.8600000      0.0000000E+00
 -0.8500000      0.0000000E+00
 -0.8400000      0.0000000E+00
 -0.8300000      0.0000000E+00
 -0.8200000      0.0000000E+00
 -0.8100000      0.0000000E+00
 -0.8000000      0.0000000E+00
 -0.7900000      0.0000000E+00
 -0.7800000      0.0000000E+00
 -0.7700000      0.0000000E+00
 -0.7600000      0.0000000E+00
 -0.7500000      0.0000000E+00
 -0.7400000      0.0000000E+00
 -0.7300000      0.0000000E+00
 -0.7200000      0.0000000E+00
 -0.7100000      0.0000000E+00
 -0.7000000      0.0000000E+00
 -0.6900000      0.0000000E+00
 -0.6800000      0.0000000E+00
 -0.6700000      0.0000000E+00
 -0.6600000      0.0000000E+00
 -0.6500000      0.0000000E+00
 -0.6400000      0.0000000E+00
 -0.6300000      0.0000000E+00
 -0.6200000      0.0000000E+00
 -0.6100000      0.0000000E+00
 -0.6000000      0.0000000E+00
 -0.5900000      0.0000000E+00
 -0.5800000      0.0000000E+00
 -0.5700000      0.0000000E+00
 -0.5600000      0.0000000E+00
 -0.5500000      0.0000000E+00
 -0.5400000      0.0000000E+00
 -0.5300000      0.0000000E+00
 -0.5200000      0.0000000E+00
 -0.5100000      0.0000000E+00
 -0.5000000      0.0000000E+00
 -0.4900000      0.0000000E+00
 -0.4800000      0.0000000E+00
 -0.4700000      0.0000000E+00
 -0.4600000      0.0000000E+00
 -0.4500000      0.0000000E+00
 -0.4400000      0.0000000E+00
 -0.4300000      0.0000000E+00
 -0.4200000      0.0000000E+00
 -0.4100000      0.0000000E+00
 -0.4000000      0.0000000E+00
 -0.3900000      0.0000000E+00
 -0.3800000      0.0000000E+00
 -0.3700000      0.0000000E+00
 -0.3600000      0.0000000E+00
 -0.3500000      0.0000000E+00
 -0.3400000      0.0000000E+00
 -0.3300000      0.0000000E+00
 -0.3200000      0.0000000E+00
 -0.3100000      0.0000000E+00
 -0.3000000      0.0000000E+00
 -0.2900000      0.0000000E+00
 -0.2800000      0.0000000E+00
 -0.2700000      0.0000000E+00
 -0.2600000      0.0000000E+00
 -0.2500000      0.0000000E+00
 -0.2400000      0.0000000E+00
 -0.2300000      0.0000000E+00
 -0.2200000      0.0000000E+00
 -0.2100000      0.0000000E+00
 -0.2000000      0.0000000E+00
 -0.1900000      0.0000000E+00
 -0.1800000      0.0000000E+00
 -0.1700000      0.0000000E+00
 -0.1600000      0.0000000E+00
 -0.1500000      0.0000000E+00
 -0.1400000      0.0000000E+00
 -0.1300000      0.0000000E+00
 -0.1200000      0.0000000E+00
 -0.1100000      0.0000000E+00
 -0.1000000      0.0000000E+00
 -9.0000004E-02  0.0000000E+00
 -7.9999998E-02  0.0000000E+00
 -7.0000000E-02  0.0000000E+00
 -5.9999999E-02  0.0000000E+00
 -5.0000001E-02  0.0000000E+00
 -3.9999999E-02  0.0000000E+00
 -2.9999999E-02  0.0000000E+00
 -2.0000000E-02  0.0000000E+00
 -9.9999998E-03  0.0000000E+00
 -3.4694470E-17  0.0000000E+00
  9.9999998E-03  0.0000000E+00
  2.0000000E-02  0.0000000E+00
  2.9999999E-02  0.0000000E+00
  3.9999999E-02  0.0000000E+00
  5.0000001E-02  0.0000000E+00
  5.9999999E-02  0.0000000E+00
  7.0000000E-02  0.0000000E+00
  7.9999998E-02  0.0000000E+00
  9.0000004E-02  0.0000000E+00
  0.1000000      0.0000000E+00
  0.1100000      0.0000000E+00
  0.1200000      0.0000000E+00
  0.1300000      0.0000000E+00
  0.1400000      0.0000000E+00
  0.1500000      0.0000000E+00
  0.1600000      0.0000000E+00
  0.1700000      0.0000000E+00
  0.1800000      0.0000000E+00
  0.1900000      0.0000000E+00
  0.2000000      0.0000000E+00
  0.2100000      0.0000000E+00
  0.2200000      0.0000000E+00
  0.2300000      0.0000000E+00
  0.2400000      0.0000000E+00
  0.2500000      0.0000000E+00
  0.2600000      0.0000000E+00
  0.2700000      0.0000000E+00
  0.2800000      0.0000000E+00
  0.2900000      0.0000000E+00
  0.3000000      0.0000000E+00
  0.3100000      0.0000000E+00
  0.3200000      0.0000000E+00
  0.3300000      0.0000000E+00
  0.3400000      0.0000000E+00
  0.3500000      0.0000000E+00
  0.3600000      0.0000000E+00
  0.3700000      0.0000000E+00
  0.3800000      0.0000000E+00
  0.3900000      0.0000000E+00
  0.4000000      0.0000000E+00
  0.4100000      0.0000000E+00
  0.4200000      0.0000000E+00
  0.4300000      0.0000000E+00
  0.4400000      0.0000000E+00
  0.4500000      0.0000000E+00
  0.4600000      0.0000000E+00
  0.4700000      0.0000000E+00
  0.4800000      0.0000000E+00
  0.4900000      0.0000000E+00
  0.5000000      0.0000000E+00
  0.5100000      0.0000000E+00
  0.5200000      0.0000000E+00
  0.5300000      0.0000000E+00
  0.5400000      0.0000000E+00
  0.5500000      0.0000000E+00
  0.5600000      0.0000000E+00
  0.5700000      0.0000000E+00
  0.5800000      0.0000000E+00
  0.5900000      0.0000000E+00
  0.6000000      0.0000000E+00
  0.6100000      0.0000000E+00
  0.6200000      0.0000000E+00
  0.6300000      0.0000000E+00
  0.6400000      0.0000000E+00
  0.6500000      0.0000000E+00
  0.6600000      0.0000000E+00
  0.6700000      0.0000000E+00
  0.6800000      0.0000000E+00
  0.6900000      0.0000000E+00
  0.7000000      0.0000000E+00
  0.7100000      0.0000000E+00
  0.7200000      0.0000000E+00
  0.7300000      0.0000000E+00
  0.7400000      0.0000000E+00
  0.7500000      0.0000000E+00
  0.7600000      0.0000000E+00
  0.7700000      0.0000000E+00
  0.7800000      0.0000000E+00
  0.7900000      0.0000000E+00
  0.8000000      0.0000000E+00
  0.8100000      0.0000000E+00
  0.8200000      0.0000000E+00
  0.8300000      0.0000000E+00
  0.8400000      0.0000000E+00
  0.8500000      0.0000000E+00
  0.8600000      0.0000000E+00
  0.8700000      0.0000000E+00
  0.8800000      0.0000000E+00
  0.8900000      0.0000000E+00
  0.9000000      0.0000000E+00
  0.9100000      0.0000000E+00
  0.9200000      0.0000000E+00
  0.9300000      0.0000000E+00
  0.9400000      0.0000000E+00
  0.9500000      0.0000000E+00
  0.9600000      0.0000000E+00
  0.9700000      0.0000000E+00
  0.9800000      0.0000000E+00
  0.9900000      0.0000000E+00
   1.000000      0.0000000E+00
   1.010000      0.0000000E+00
   1.020000      0.0000000E+00
   1.030000      0.0000000E+00
   1.040000      0.0000000E+00
   1.050000      0.0000000E+00
   1.060000      0.0000000E+00
   1.070000      0.0000000E+00
   1.080000      0.0000000E+00
   1.090000      0.0000000E+00
   1.100000      0.0000000E+00
   1.110000      0.0000000E+00
   1.120000      0.0000000E+00
   1.130000      0.0000000E+00
   1.140000      0.0000000E+00
   1.150000      0.0000000E+00
   1.160000      0.0000000E+00
   1.170000      0.0000000E+00
   1.180000      0.0000000E+00
   1.190000      0.0000000E+00
   1.200000      0.0000000E+00
   1.210000      0.0000000E+00
   1.220000      0.0000000E+00
   1.230000      0.0000000E+00
   1.240000      0.0000000E+00
   1.250000      0.0000000E+00
   1.260000      0.0000000E+00
   1.270000      0.0000000E+00
   1.280000      0.0000000E+00
   1.290000      0.0000000E+00
   1.300000      0.0000000E+00
   1.310000      0.0000000E+00
   1.320000      0.0000000E+00
   1.330000      0.0000000E+00
   1.340000      0.0000000E+00
   1.350000      0.0000000E+00
   1.360000      0.0000000E+00
   1.370000      0.0000000E+00
   1.380000      0.0000000E+00
   1.390000      0.0000000E+00
   1.400000      0.0000000E+00
   1.410000      0.0000000E+00
   1.420000      0.0000000E+00
   1.430000      0.0000000E+00
   1.440000      0.0000000E+00
   1.450000      0.0000000E+00
   1.460000      0.0000000E+00
   1.470000      0.0000000E+00
   1.480000      0.0000000E+00
   1.490000      0.0000000E+00
   1.500000      0.0000000E+00
   1.510000      0.0000000E+00
   1.520000      0.0000000E+00
   1.530000      0.0000000E+00
   1.540000      0.0000000E+00
   1.550000      0.0000000E+00
   1.560000      0.0000000E+00
   1.570000      0.0000000E+00
   1.580000      0.0000000E+00
   1.590000      0.0000000E+00
   1.600000      0.0000000E+00
   1.610000      0.0000000E+00
   1.620000      0.0000000E+00
   1.630000      0.0000000E+00
   1.640000      0.0000000E+00
   1.650000      0.0000000E+00
   1.660000      0.0000000E+00
   1.670000      0.0000000E+00
   1.680000      0.0000000E+00
   1.690000      0.0000000E+00
   1.700000      0.0000000E+00
   1.710000      0.0000000E+00
   1.720000      0.0000000E+00
   1.730000      0.0000000E+00
   1.740000      0.0000000E+00
   1.750000      0.0000000E+00
   1.760000      0.0000000E+00
   1.770000      0.0000000E+00
   1.780000      0.0000000E+00
   1.790000      0.0000000E+00
   1.800000      0.0000000E+00
   1.810000      0.0000000E+00
   1.820000      0.0000000E+00
   1.830000      0.0000000E+00
   1.840000      0.0000000E+00
   1.850000      0.0000000E+00
   1.860000      0.0000000E+00
   1.870000      0.0000000E+00
   1.880000      0.0000000E+00
   1.890000      0.0000000E+00
   1.900000      0.0000000E+00
   1.910000      0.0000000E+00
   1.920000      0.0000000E+00
   1.930000      0.0000000E+00
   1.940000      0.0000000E+00
   1.950000      0.0000000E+00
   1.960000      0.0000000E+00
   1.970000      0.0000000E+00
   1.980000      0.0000000E+00
   1.990000      0.0000000E+00
   2.000000      0.0000000E+00
   2.010000      0.0000000E+00
   2.020000      0.0000000E+00
   2.030000      0.0000000E+00
   2.040000      0.0000000E+00
   2.050000      0.0000000E+00
   2.060000      0.0000000E+00
   2.070000      0.0000000E+00
   2.080000      0.0000000E+00
   2.090000      0.0000000E+00
   2.100000      0.0000000E+00
   2.110000      0.0000000E+00
   2.120000      0.0000000E+00
   2.130000      0.0000000E+00
   2.140000      0.0000000E+00
   2.150000      0.0000000E+00
   2.160000      0.0000000E+00
   2.170000      0.0000000E+00
   2.180000      0.0000000E+00
   2.190000      0.0000000E+00
   2.200000      0.0000000E+00
   2.210000      0.0000000E+00
   2.220000      0.0000000E+00
   2.230000      0.0000000E+00
   2.240000      0.0000000E+00
   2.250000      0.0000000E+00
   2.260000      0.0000000E+00
   2.270000      0.0000000E+00
   2.280000      0.0000000E+00
   2.290000      0.0000000E+00
   2.300000      0.0000000E+00
   2.310000      0.0000000E+00
   2.320000      0.0000000E+00
   2.330000      0.0000000E+00
   2.340000      0.0000000E+00
   2.350000      0.0000000E+00
   2.360000      0.0000000E+00
   2.370000      0.0000000E+00
   2.380000      0.0000000E+00
   2.390000      0.0000000E+00
   2.400000      0.0000000E+00
   2.410000      0.0000000E+00
   2.420000      0.0000000E+00
   2.430000      0.0000000E+00
   2.440000      0.0000000E+00
   2.450000      0.0000000E+00
   2.460000      0.0000000E+00
   2.470000      0.0000000E+00
   2.480000      0.0000000E+00
   2.490000      0.0000000E+00
   2.500000      0.0000000E+00
   2.510000      0.0000000E+00
   2.520000      0.0000000E+00
   2.530000      0.0000000E+00
   2.540000      0.0000000E+00
   2.550000      0.0000000E+00
   2.560000      0.0000000E+00
   2.570000      0.0000000E+00
   2.580000      0.0000000E+00
   2.590000      0.0000000E+00
   2.600000      0.0000000E+00
   2.610000      0.0000000E+00
   2.620000      0.0000000E+00
   2.630000      0.0000000E+00
   2.640000      0.0000000E+00
   2.650000      0.0000000E+00
   2.660000      0.0000000E+00
   2.670000      0.0000000E+00
   2.680000      0.0000000E+00
   2.690000      0.0000000E+00
   2.700000      0.0000000E+00
   2.710000      0.0000000E+00
   2.720000      0.0000000E+00
   2.730000      0.0000000E+00
   2.740000      0.0000000E+00
   2.750000      0.0000000E+00
   2.760000      0.0000000E+00
   2.770000      0.0000000E+00
   2.780000      0.0000000E+00
   2.790000      0.0000000E+00
   2.800000      0.0000000E+00
   2.810000      0.0000000E+00
   2.820000      0.0000000E+00
   2.830000      0.0000000E+00
   2.840000      0.0000000E+00
   2.850000      0.0000000E+00
   2.860000      0.0000000E+00
   2.870000      0.0000000E+00
   2.880000      0.0000000E+00
   2.890000      0.0000000E+00
   2.900000      0.0000000E+00
   2.910000      0.0000000E+00
   2.920000      0.0000000E+00
   2.930000      0.0000000E+00
   2.940000      0.0000000E+00
   2.950000      0.0000000E+00
   2.960000      0.0000000E+00
   2.970000      0.0000000E+00
   2.980000      0.0000000E+00
   2.990000      0.0000000E+00
   3.000000      0.0000000E+00
   3.010000      0.0000000E+00
   3.020000      0.0000000E+00
   3.030000      0.0000000E+00
   3.040000      0.0000000E+00
   3.050000      0.0000000E+00
   3.060000      0.0000000E+00
   3.070000      0.0000000E+00
   3.080000      0.0000000E+00
   3.090000      0.0000000E+00
   3.100000      0.0000000E+00
   3.110000      0.0000000E+00
   3.120000      0.0000000E+00
   3.130000      0.0000000E+00
   3.140000      0.0000000E+00
   3.150000      0.0000000E+00
   3.160000      0.0000000E+00
   3.170000      0.0000000E+00
   3.180000      0.0000000E+00
   3.190000      0.0000000E+00
   3.200000      0.0000000E+00
   3.210000      0.0000000E+00
   3.220000      0.0000000E+00
   3.230000      0.0000000E+00
   3.240000      0.0000000E+00
   3.250000      0.0000000E+00
   3.260000      0.0000000E+00
   3.270000      0.0000000E+00
   3.280000      0.0000000E+00
   3.290000      0.0000000E+00
   3.300000      0.0000000E+00
   3.310000      0.0000000E+00
   3.320000      0.0000000E+00
   3.330000      0.0000000E+00
   3.340000      0.0000000E+00
   3.350000      0.0000000E+00
   3.360000      0.0000000E+00
   3.370000      0.0000000E+00
   3.380000      0.0000000E+00
   3.390000      0.0000000E+00
   3.400000      0.0000000E+00
   3.410000      0.0000000E+00
   3.420000      0.0000000E+00
   3.430000      0.0000000E+00
   3.440000      0.0000000E+00
   3.450000      0.0000000E+00
   3.460000      0.0000000E+00
   3.470000      0.0000000E+00
   3.480000      0.0000000E+00
   3.490000      0.0000000E+00
   3.500000      0.0000000E+00
   3.510000      0.0000000E+00
   3.520000      0.0000000E+00
   3.530000      0.0000000E+00
   3.540000      0.0000000E+00
   3.550000      0.0000000E+00
   3.560000      1.2542176E-38
   3.570000      1.3771908E-38
   3.580000      1.1946235E-38
   3.590000      0.0000000E+00
   3.600000      0.0000000E+00
   3.610000      0.0000000E+00
   3.620000      0.0000000E+00
   3.630000     -1.2327720E-38
   3.640000     -1.3348724E-38
   3.650000     -1.1784954E-38
   3.660000      0.0000000E+00
   3.670000      0.0000000E+00
   3.680000      0.0000000E+00
   3.690000      0.0000000E+00
   3.700000      0.0000000E+00
   3.710000     -1.3949992E-38
   3.720000     -2.0456643E-38
   3.730000     -2.8083644E-38
   3.740000     -3.5851638E-38
   3.750000     -4.3015589E-38
   3.760000     -5.0395754E-38
   3.770000     -5.3226052E-38
   3.780000     -4.9236572E-38
   3.790000     -4.2216983E-38
   3.800000     -3.3081661E-38
   3.810000     -2.2946425E-38
   3.820000     -1.3434153E-38
   3.830000      0.0000000E+00
   3.840000      0.0000000E+00
   3.850000      0.0000000E+00
   3.860000      0.0000000E+00
   3.870000      0.0000000E+00
   3.880000      1.4589909E-38
   3.890000      1.9347556E-38
   3.900000      2.6078285E-38
   3.910000      3.5521467E-38
   3.920000      4.0730180E-38
   3.930000      4.1437783E-38
   3.940000      4.3188941E-38
   3.950000      4.8190520E-38
   3.960000      5.5844692E-38
   3.970000      5.8247740E-38
   3.980000      5.6385790E-38
   3.990000      6.1255621E-38
   4.000000      7.8580401E-38
   4.010000      1.0430034E-37
   4.020000      1.3242705E-37
   4.030000      1.4138505E-37
   4.040000      1.2934254E-37
   4.050000      1.1586711E-37
   4.060000      1.4636478E-37
   4.070000      2.2851135E-37
   4.080000      2.7880550E-37
   4.090000      2.9364494E-37
   4.100000      2.7599771E-37
   4.110000      2.2711337E-37
   4.120000      2.1923900E-37
   4.130000      2.5522340E-37
   4.140000      2.9766093E-37
   4.150000      3.4720714E-37
   4.160000      4.0725832E-37
   4.170000      4.6146059E-37
   4.180000      4.9886059E-37
   4.190000      5.2246294E-37
   4.200000      5.3229401E-37
   4.210000      5.1289080E-37
   4.220000      4.7012631E-37
   4.230000      4.2004484E-37
   4.240000      3.8225611E-37
   4.250000      4.2091854E-37
   4.260000      4.2468738E-37
   4.270000      3.4968760E-37
   4.280000      2.8621970E-37
   4.290000      3.3146334E-37
   4.300000      4.9493548E-37
   4.310000      7.3433577E-37
   4.320000      1.0436898E-36
   4.330000      1.3531243E-36
   4.340000      1.4103045E-36
   4.350000      1.0930085E-36
   4.360000      6.3437781E-37
   4.370000      1.2251967E-37
   4.380000     -3.7364556E-37
   4.390000     -8.0452226E-37
   4.400000     -9.7422350E-37
   4.410000     -9.2476990E-37
   4.420000     -8.7597575E-37
   4.430000     -8.3973553E-37
   4.440000     -7.2149836E-37
   4.450000     -4.0619051E-37
   4.460000      6.5817061E-38
   4.470000      6.8385392E-37
   4.480000      1.1407856E-36
   4.490000      1.2533331E-36
   4.500000      1.2447269E-36
   4.510000      1.1300065E-36
   4.520000      9.1157205E-37
   4.530000      7.6157715E-37
   4.540000      8.4916830E-37
   4.550000      1.1452904E-36
   4.560000      1.2872739E-36
   4.570000      1.0979743E-36
   4.580000      7.6837764E-37
   4.590000      3.6465490E-37
   4.600000     -1.8614474E-37
   4.610000     -9.8345063E-37
   4.620000     -1.9955834E-36
   4.630000     -2.9110057E-36
   4.640000     -3.6890082E-36
   4.650000     -4.4877184E-36
   4.660000     -5.2852225E-36
   4.670000     -6.0144552E-36
   4.680000     -6.7378211E-36
   4.690000     -7.3803661E-36
   4.700000     -7.8454139E-36
   4.710000     -8.3287183E-36
   4.720000     -8.5202477E-36
   4.730000     -8.6716134E-36
   4.740000     -9.1560277E-36
   4.750000     -9.7499673E-36
   4.760000     -1.0608979E-35
   4.770000     -1.2067717E-35
   4.780000     -1.3828799E-35
   4.790000     -1.5123767E-35
   4.800000     -1.6152077E-35
   4.810000     -1.7351839E-35
   4.820000     -1.8751342E-35
   4.830000     -2.0512821E-35
   4.840000     -2.1896014E-35
   4.850000     -2.1673288E-35
   4.860000     -2.0104337E-35
   4.870000     -1.7825804E-35
   4.880000     -1.5240293E-35
   4.890000     -1.2236404E-35
   4.900000     -9.7407349E-36
   4.910000     -9.9331282E-36
   4.920000     -1.1893121E-35
   4.930000     -1.4585662E-35
   4.940000     -1.7723411E-35
   4.950000     -1.8994178E-35
   4.960000     -1.8578091E-35
   4.970000     -1.7818220E-35
   4.980000     -1.6220724E-35
   4.990000     -1.3355170E-35
   5.000000     -1.0914637E-35
   5.010000     -8.7406909E-36
   5.020000     -4.6318657E-36
   5.030000      2.6059274E-36
   5.040000      1.1877817E-35
   5.050000      2.7874091E-35
   5.060000      5.0363688E-35
   5.070000      6.9161863E-35
   5.080000      7.5138885E-35
   5.090000      7.1568791E-35
   5.100000      6.5842297E-35
   5.110000      5.7525112E-35
   5.120000      4.8107126E-35
   5.130000      4.0410416E-35
   5.140000      3.5842909E-35
   5.150000      3.4943248E-35
   5.160000      4.2249043E-35
   5.170000      5.2126574E-35
   5.180000      5.9577595E-35
   5.190000      6.9815101E-35
   5.200000      8.9710383E-35
   5.210000      1.1847988E-34
   5.220000      1.4763314E-34
   5.230000      1.7431115E-34
   5.240000      1.9244993E-34
   5.250000      2.0398452E-34
   5.260000      2.1465340E-34
   5.270000      2.1935395E-34
   5.280000      2.1741321E-34
   5.290000      2.1662012E-34
   5.300000      2.1929752E-34
   5.310000      2.2040409E-34
   5.320000      2.1510681E-34
   5.330000      2.0203830E-34
   5.340000      1.8330743E-34
   5.350000      1.6121020E-34
   5.360000      1.3948656E-34
   5.370000      1.2453931E-34
   5.380000      1.1899675E-34
   5.390000      1.2072239E-34
   5.400000      1.2121490E-34
   5.410000      1.2423055E-34
   5.420000      1.3350116E-34
   5.430000      1.3937011E-34
   5.440000      1.3661129E-34
   5.450000      1.2777585E-34
   5.460000      9.9811375E-35
   5.470000      5.0346148E-35
   5.480000     -1.6077244E-35
   5.490000     -1.0189379E-34
   5.500000     -1.9498471E-34
   5.510000     -2.8637414E-34
   5.520000     -3.6849626E-34
   5.530000     -4.4338917E-34
   5.540000     -5.1304451E-34
   5.550000     -5.6086376E-34
   5.560000     -5.8212749E-34
   5.570000     -5.8927982E-34
   5.580000     -5.8715989E-34
   5.590000     -5.8480495E-34
   5.600000     -5.8960560E-34
   5.610000     -6.0994960E-34
   5.620000     -6.5253850E-34
   5.630000     -7.1756528E-34
   5.640000     -8.0394217E-34
   5.650000     -9.0975420E-34
   5.660000     -1.0295658E-33
   5.670000     -1.1557326E-33
   5.680000     -1.2818465E-33
   5.690000     -1.3999162E-33
   5.700000     -1.5025881E-33
   5.710000     -1.5850399E-33
   5.720000     -1.6442282E-33
   5.730000     -1.6803425E-33
   5.740000     -1.6950805E-33
   5.750000     -1.6927379E-33
   5.760000     -1.6791847E-33
   5.770000     -1.6620579E-33
   5.780000     -1.6458669E-33
   5.790000     -1.6349075E-33
   5.800000     -1.6348118E-33
   5.810000     -1.6438332E-33
   5.820000     -1.6599200E-33
   5.830000     -1.6795686E-33
   5.840000     -1.6941294E-33
   5.850000     -1.6988937E-33
   5.860000     -1.6842940E-33
   5.870000     -1.6374477E-33
   5.880000     -1.5552156E-33
   5.890000     -1.4351691E-33
   5.900000     -1.2712880E-33
   5.910000     -1.0688541E-33
   5.920000     -8.3544128E-34
   5.930000     -5.7360869E-34
   5.940000     -2.8886495E-34
   5.950000      1.4787936E-35
   5.960000      3.2904656E-34
   5.970000      6.4901541E-34
   5.980000      9.7532125E-34
   5.990000      1.3089099E-33
   6.000000      1.6519621E-33
   6.010000      2.0107167E-33
   6.020000      2.3942469E-33
   6.030000      2.8094135E-33
   6.040000      3.2629339E-33
   6.050000      3.7617465E-33
   6.060000      4.3080795E-33
   6.070000      4.9014911E-33
   6.080000      5.5411118E-33
   6.090000      6.2224580E-33
   6.100000      6.9389086E-33
   6.110000      7.6824206E-33
   6.120000      8.4421337E-33
   6.130000      9.2121215E-33
   6.140000      9.9866848E-33
   6.150000      1.0757733E-32
   6.160000      1.1522152E-32
   6.170000      1.2278595E-32
   6.180000      1.3027597E-32
   6.190000      1.3771147E-32
   6.200000      1.4511706E-32
   6.210000      1.5251385E-32
   6.220000      1.5991118E-32
   6.230000      1.6729785E-32
   6.240000      1.7463713E-32
   6.250000      1.8186470E-32
   6.260000      1.8888231E-32
   6.270000      1.9556679E-32
   6.280000      2.0178342E-32
   6.290000      2.0738490E-32
   6.300000      2.1222190E-32
   6.310000      2.1615416E-32
   6.320000      2.1905643E-32
   6.330000      2.2082193E-32
   6.340000      2.2136525E-32
   6.350000      2.2062370E-32
   6.360000      2.1855138E-32
   6.370000      2.1511247E-32
   6.380000      2.1027152E-32
   6.390000      2.0398464E-32
   6.400000      1.9619890E-32
   6.410000      1.8683019E-32
   6.420000      1.7576919E-32
   6.430000      1.6289100E-32
   6.440000      1.4804458E-32
   6.450000      1.3103573E-32
   6.460000      1.1171705E-32
   6.470000      8.9942010E-33
   6.480000      6.5517537E-33
   6.490000      3.8293352E-33
   6.500000      8.1432794E-34
   6.510000     -2.5028372E-33
   6.520000     -6.1292355E-33
   6.530000     -1.0069050E-32
   6.540000     -1.4323970E-32
   6.550000     -1.8894142E-32
   6.560000     -2.3778574E-32
   6.570000     -2.8976206E-32
   6.580000     -3.4486327E-32
   6.590000     -4.0308983E-32
   6.600000     -4.6444705E-32
   6.610000     -5.2895436E-32
   6.620000     -5.9663256E-32
   6.630000     -6.6748866E-32
   6.640000     -7.4151788E-32
   6.650000     -8.1869032E-32
   6.660000     -8.9894126E-32
   6.670000     -9.8216156E-32
   6.680000     -1.0681952E-31
   6.690000     -1.1568366E-31
   6.700000     -1.2478286E-31
   6.710000     -1.3408671E-31
   6.720000     -1.4356052E-31
   6.730000     -1.5316604E-31
   6.740000     -1.6286217E-31
   6.750000     -1.7260555E-31
   6.760000     -1.8235101E-31
   6.770000     -1.9205184E-31
   6.780000     -2.0165965E-31
   6.790000     -2.1112410E-31
   6.800000     -2.2039233E-31
   6.810000     -2.2940823E-31
   6.820000     -2.3811150E-31
   6.830000     -2.4643698E-31
   6.840000     -2.5431390E-31
   6.850000     -2.6166525E-31
   6.860000     -2.6840777E-31
   6.870000     -2.7445186E-31
   6.880000     -2.7970202E-31
   6.890000     -2.8405748E-31
   6.900000     -2.8741288E-31
   6.910000     -2.8965928E-31
   6.920000     -2.9068504E-31
   6.930000     -2.9037663E-31
   6.940000     -2.8861922E-31
   6.950000     -2.8529692E-31
   6.960000     -2.8029322E-31
   6.970000     -2.7349073E-31
   6.980000     -2.6477107E-31
   6.990000     -2.5401471E-31
   7.000000     -2.4110036E-31
   7.010000     -2.2590498E-31
   7.020000     -2.0830366E-31
   7.030000     -1.8816982E-31
   7.040000     -1.6537593E-31
   7.050000     -1.3979423E-31
   7.060000     -1.1129792E-31