  -2.600000      0.0000000E+00
  -2.590000      0.0000000E+00
  -2.580000      0.0000000E+00
  -2.570000      0.0000000E+00
  -2.560000      0.0000000E+00
  -2.550000      0.0000000E+00
  -2.540000      0.0000000E+00
  -2.530000      0.0000000E+00
  -2.520000      0.0000000E+00
  -2.510000      0.0000000E+00
  -2.500000      0.0000000E+00
  -2.490000      0.0000000E+00
  -2.480000      0.0000000E+00
  -2.470000      0.0000000E+00
  -2.460000      0.0000000E+00
  -2.450000      0.0000000E+00
  -2.440000      0.0000000E+00
  -2.430000      0.0000000E+00
  -2.420000      0.0000000E+00
  -2.410000      0.0000000E+00
  -2.400000      0.0000000E+00
  -2.390000      0.0000000E+00
  -2.380000      0.0000000E+00
  -2.370000      0.0000000E+00
  -2.360000      0.0000000E+00
  -2.350000      0.0000000E+00
  -2.340000      0.0000000E+00
  -2.330000      0.0000000E+00
  -2.320000      0.0000000E+00
  -2.310000      0.0000000E+00
  -2.300000      0.0000000E+00
  -2.290000      0.0000000E+00
  -2.280000      0.0000000E+00
  -2.270000      0.0000000E+00
  -2.260000      0.0000000E+00
  -2.250000      0.0000000E+00
  -2.240000      0.0000000E+00
  -2.230000      0.0000000E+00
  -2.220000      0.0000000E+00
  -2.210000      0.0000000E+00
  -2.200000      0.0000000E+00
  -2.190000      0.0000000E+00
  -2.180000      0.0000000E+00
  -2.170000      0.0000000E+00
  -2.160000      0.0000000E+00
  -2.150000      0.0000000E+00
  -2.140000      0.0000000E+00
  -2.130000      0.0000000E+00
  -2.120000      0.0000000E+00
  -2.110000      0.0000000E+00
  -2.100000      0.0000000E+00
  -2.090000      0.0000000E+00
  -2.080000      0.0000000E+00
  -2.070000      0.0000000E+00
  -2.060000      0.0000000E+00
  -2.050000      0.0000000E+00
  -2.040000      0.0000000E+00
  -2.030000      0.0000000E+00
  -2.020000      0.0000000E+00
  -2.010000      0.0000000E+00
  -2.000000      0.0000000E+00
  -1.990000      0.0000000E+00
  -1.980000      0.0000000E+00
  -1.970000      0.0000000E+00
  -1.960000      0.0000000E+00
  -1.950000      0.0000000E+00
  -1.940000      0.0000000E+00
  -1.930000      0.0000000E+00
  -1.920000      0.0000000E+00
  -1.910000      0.0000000E+00
  -1.900000      0.0000000E+00
  -1.890000      0.0000000E+00
  -1.880000      0.0000000E+00
  -1.870000      0.0000000E+00
  -1.860000      0.0000000E+00
  -1.850000      0.0000000E+00
  -1.840000      0.0000000E+00
  -1.830000      0.0000000E+00
  -1.820000      0.0000000E+00
  -1.810000      0.0000000E+00
  -1.800000      0.0000000E+00
  -1.790000      0.0000000E+00
  -1.780000      0.0000000E+00
  -1.770000      0.0000000E+00
  -1.760000      0.0000000E+00
  -1.750000      0.0000000E+00
  -1.740000      0.0000000E+00
  -1.730000      0.0000000E+00
  -1.720000      0.0000000E+00
  -1.710000      0.0000000E+00
  -1.700000      0.0000000E+00
  -1.690000      0.0000000E+00
  -1.680000      0.0000000E+00
  -1.670000      0.0000000E+00
  -1.660000      0.0000000E+00
  -1.650000      0.0000000E+00
  -1.640000      0.0000000E+00
  -1.630000      0.0000000E+00
  -1.620000      0.0000000E+00
  -1.610000      0.0000000E+00
  -1.600000      0.0000000E+00
  -1.590000      0.0000000E+00
  -1.580000      0.0000000E+00
  -1.570000      0.0000000E+00
  -1.560000      0.0000000E+00
  -1.550000      0.0000000E+00
  -1.540000      0.0000000E+00
  -1.530000      0.0000000E+00
  -1.520000      0.0000000E+00
  -1.510000      0.0000000E+00
  -1.500000      0.0000000E+00
  -1.490000      0.0000000E+00
  -1.480000      0.0000000E+00
  -1.470000      0.0000000E+00
  -1.460000      0.0000000E+00
  -1.450000      0.0000000E+00
  -1.440000      0.0000000E+00
  -1.430000      0.0000000E+00
  -1.420000      0.0000000E+00
  -1.410000      0.0000000E+00
  -1.400000      0.0000000E+00
  -1.390000      0.0000000E+00
  -1.380000      0.0000000E+00
  -1.370000      0.0000000E+00
  -1.360000      0.0000000E+00
  -1.350000      0.0000000E+00
  -1.340000      0.0000000E+00
  -1.330000      0.0000000E+00
  -1.320000      0.0000000E+00
  -1.310000      0.0000000E+00
  -1.300000      0.0000000E+00
  -1.290000      0.0000000E+00
  -1.280000      0.0000000E+00
  -1.270000      0.0000000E+00
  -1.260000      0.0000000E+00
  -1.250000      0.0000000E+00
  -1.240000      0.0000000E+00
  -1.230000      0.0000000E+00
  -1.220000      0.0000000E+00
  -1.210000      0.0000000E+00
  -1.200000      0.0000000E+00
  -1.190000      0.0000000E+00
  -1.180000      0.0000000E+00
  -1.170000      0.0000000E+00
  -1.160000      0.0000000E+00
  -1.150000      0.0000000E+00
  -1.140000      0.0000000E+00
  -1.130000      0.0000000E+00
  -1.120000      0.0000000E+00
  -1.110000      0.0000000E+00
  -1.100000      0.0000000E+00
  -1.090000      0.0000000E+00
  -1.080000      0.0000000E+00
  -1.070000      0.0000000E+00
  -1.060000      0.0000000E+00
  -1.050000      0.0000000E+00
  -1.040000      0.0000000E+00
  -1.030000      0.0000000E+00
  -1.020000      0.0000000E+00
  -1.010000      0.0000000E+00
  -1.000000      0.0000000E+00
 -0.9900000      0.0000000E+00
 -0.9800000      0.0000000E+00
 -0.9700000      0.0000000E+00
 -0.9600000      0.0000000E+00
 -0.9500000      0.0000000E+00
 -0.9400000      0.0000000E+00
 -0.9300000      0.0000000E+00
 -0.9200000      0.0000000E+00
 -0.9100000      0.0000000E+00
 -0.9000000      0.0000000E+00
 -0.8900000      0.0000000E+00
 -0.8800000      0.0000000E+00
 -0.8700000      0.0000000E+00
 -0.8600000      0.0000000E+00
 -0.8500000      0.0000000E+00
 -0.8400000      0.0000000E+00
 -0.8300000      0.0000000E+00
 -0.8200000      0.0000000E+00
 -0.8100000      0.0000000E+00
 -0.8000000      0.0000000E+00
 -0.7900000      0.0000000E+00
 -0.7800000      0.0000000E+00
 -0.7700000      0.0000000E+00
 -0.7600000      0.0000000E+00
 -0.7500000      0.0000000E+00
 -0.7400000      0.0000000E+00
 -0.7300000      0.0000000E+00
 -0.7200000      0.0000000E+00
 -0.7100000      0.0000000E+00
 -0.7000000      0.0000000E+00
 -0.6900000      0.0000000E+00
 -0.6800000      0.0000000E+00
 -0.6700000      0.0000000E+00
 -0.6600000      0.0000000E+00
 -0.6500000      0.0000000E+00
 -0.6400000      0.0000000E+00
 -0.6300000      0.0000000E+00
 -0.6200000      0.0000000E+00
 -0.6100000      0.0000000E+00
 -0.6000000      0.0000000E+00
 -0.5900000      0.0000000E+00
 -0.5800000      0.0000000E+00
 -0.5700000      0.0000000E+00
 -0.5600000      0.0000000E+00
 -0.5500000      0.0000000E+00
 -0.5400000      0.0000000E+00
 -0.5300000      0.0000000E+00
 -0.5200000      0.0000000E+00
 -0.5100000      0.0000000E+00
 -0.5000000      0.0000000E+00
 -0.4900000      0.0000000E+00
 -0.4800000      0.0000000E+00
 -0.4700000      0.0000000E+00
 -0.4600000      0.0000000E+00
 -0.4500000      0.0000000E+00
 -0.4400000      0.0000000E+00
 -0.4300000      0.0000000E+00
 -0.4200000      0.0000000E+00
 -0.4100000      0.0000000E+00
 -0.4000000      0.0000000E+00
 -0.3900000      0.0000000E+00
 -0.3800000      0.0000000E+00
 -0.3700000      0.0000000E+00
 -0.3600000      0.0000000E+00
 -0.3500000      0.0000000E+00
 -0.3400000      0.0000000E+00
 -0.3300000      0.0000000E+00
 -0.3200000      0.0000000E+00
 -0.3100000      0.0000000E+00
 -0.3000000      0.0000000E+00
 -0.2900000      0.0000000E+00
 -0.2800000      0.0000000E+00
 -0.2700000      0.0000000E+00
 -0.2600000      0.0000000E+00
 -0.2500000      0.0000000E+00
 -0.2400000      0.0000000E+00
 -0.2300000      0.0000000E+00
 -0.2200000      0.0000000E+00
 -0.2100000      0.0000000E+00
 -0.2000000      0.0000000E+00
 -0.1900000      0.0000000E+00
 -0.1800000      0.0000000E+00
 -0.1700000      0.0000000E+00
 -0.1600000      0.0000000E+00
 -0.1500000      0.0000000E+00
 -0.1400000      0.0000000E+00
 -0.1300000      0.0000000E+00
 -0.1200000      0.0000000E+00
 -0.1100000      0.0000000E+00
 -0.1000000      0.0000000E+00
 -9.0000004E-02  0.0000000E+00
 -7.9999998E-02  0.0000000E+00
 -7.0000000E-02  0.0000000E+00
 -5.9999999E-02  0.0000000E+00
 -5.0000001E-02  0.0000000E+00
 -3.9999999E-02  0.0000000E+00
 -2.9999999E-02  0.0000000E+00
 -2.0000000E-02  0.0000000E+00
 -9.9999998E-03  0.0000000E+00
 -3.4694470E-17  0.0000000E+00
  9.9999998E-03  0.0000000E+00
  2.0000000E-02  0.0000000E+00
  2.9999999E-02  0.0000000E+00
  3.9999999E-02  0.0000000E+00
  5.0000001E-02  0.0000000E+00
  5.9999999E-02  0.0000000E+00
  7.0000000E-02  0.0000000E+00
  7.9999998E-02  0.0000000E+00
  9.0000004E-02  0.0000000E+00
  0.1000000      0.0000000E+00
  0.1100000      0.0000000E+00
  0.1200000      0.0000000E+00
  0.1300000      0.0000000E+00
  0.1400000      0.0000000E+00
  0.1500000      0.0000000E+00
  0.1600000      0.0000000E+00
  0.1700000      0.0000000E+00
  0.1800000      0.0000000E+00
  0.1900000      0.0000000E+00
  0.2000000      0.0000000E+00
  0.2100000      0.0000000E+00
  0.2200000      0.0000000E+00
  0.2300000      0.0000000E+00
  0.2400000      0.0000000E+00
  0.2500000      0.0000000E+00
  0.2600000      0.0000000E+00
  0.2700000      0.0000000E+00
  0.2800000      0.0000000E+00
  0.2900000      0.0000000E+00
  0.3000000      0.0000000E+00
  0.3100000      0.0000000E+00
  0.3200000      0.0000000E+00
  0.3300000      0.0000000E+00
  0.3400000      0.0000000E+00
  0.3500000      0.0000000E+00
  0.3600000      0.0000000E+00
  0.3700000      0.0000000E+00
  0.3800000      0.0000000E+00
  0.3900000      0.0000000E+00
  0.4000000      0.0000000E+00
  0.4100000      0.0000000E+00
  0.4200000      0.0000000E+00
  0.4300000      0.0000000E+00
  0.4400000      0.0000000E+00
  0.4500000      0.0000000E+00
  0.4600000      0.0000000E+00
  0.4700000      0.0000000E+00
  0.4800000      0.0000000E+00
  0.4900000      0.0000000E+00
  0.5000000      0.0000000E+00
  0.5100000      0.0000000E+00
  0.5200000      0.0000000E+00
  0.5300000      0.0000000E+00
  0.5400000      0.0000000E+00
  0.5500000      0.0000000E+00
  0.5600000      0.0000000E+00
  0.5700000      0.0000000E+00
  0.5800000      0.0000000E+00
  0.5900000      0.0000000E+00
  0.6000000      0.0000000E+00
  0.6100000      0.0000000E+00
  0.6200000      0.0000000E+00
  0.6300000      0.0000000E+00
  0.6400000      0.0000000E+00
  0.6500000      0.0000000E+00
  0.6600000      0.0000000E+00
  0.6700000      0.0000000E+00
  0.6800000      0.0000000E+00
  0.6900000      0.0000000E+00
  0.7000000      0.0000000E+00
  0.7100000      0.0000000E+00
  0.7200000      0.0000000E+00
  0.7300000      0.0000000E+00
  0.7400000      0.0000000E+00
  0.7500000      0.0000000E+00
  0.7600000      0.0000000E+00
  0.7700000      0.0000000E+00
  0.7800000      0.0000000E+00
  0.7900000      0.0000000E+00
  0.8000000      0.0000000E+00
  0.8100000      0.0000000E+00
  0.8200000      0.0000000E+00
  0.8300000      0.0000000E+00
  0.8400000      0.0000000E+00
  0.8500000      0.0000000E+00
  0.8600000      0.0000000E+00
  0.8700000      0.0000000E+00
  0.8800000      0.0000000E+00
  0.8900000      0.0000000E+00
  0.9000000      0.0000000E+00
  0.9100000      0.0000000E+00
  0.9200000      0.0000000E+00
  0.9300000      0.0000000E+00
  0.9400000      0.0000000E+00
  0.9500000      0.0000000E+00
  0.9600000      0.0000000E+00
  0.9700000      0.0000000E+00
  0.9800000      0.0000000E+00
  0.9900000      0.0000000E+00
   1.000000      0.0000000E+00
   1.010000      0.0000000E+00
   1.020000      0.0000000E+00
   1.030000      0.0000000E+00
   1.040000      0.0000000E+00
   1.050000      0.0000000E+00
   1.060000      0.0000000E+00
   1.070000      0.0000000E+00
   1.080000      0.0000000E+00
   1.090000      0.0000000E+00
   1.100000      0.0000000E+00
   1.110000      0.0000000E+00
   1.120000      0.0000000E+00
   1.130000      0.0000000E+00
   1.140000      0.0000000E+00
   1.150000      0.0000000E+00
   1.160000      0.0000000E+00
   1.170000      0.0000000E+00
   1.180000      0.0000000E+00
   1.190000      0.0000000E+00
   1.200000      0.0000000E+00
   1.210000      0.0000000E+00
   1.220000      0.0000000E+00
   1.230000      0.0000000E+00
   1.240000      0.0000000E+00
   1.250000      0.0000000E+00
   1.260000      0.0000000E+00
   1.270000      0.0000000E+00
   1.280000      0.0000000E+00
   1.290000      0.0000000E+00
   1.300000      0.0000000E+00
   1.310000      0.0000000E+00
   1.320000      0.0000000E+00
   1.330000      0.0000000E+00
   1.340000      0.0000000E+00
   1.350000      0.0000000E+00
   1.360000      0.0000000E+00
   1.370000      0.0000000E+00
   1.380000      0.0000000E+00
   1.390000      0.0000000E+00
   1.400000      0.0000000E+00
   1.410000      0.0000000E+00
   1.420000      0.0000000E+00
   1.430000      0.0000000E+00
   1.440000      0.0000000E+00
   1.450000      0.0000000E+00
   1.460000      0.0000000E+00
   1.470000      0.0000000E+00
   1.480000      0.0000000E+00
   1.490000      0.0000000E+00
   1.500000      0.0000000E+00
   1.510000      0.0000000E+00
   1.520000      0.0000000E+00
   1.530000      0.0000000E+00
   1.540000      0.0000000E+00
   1.550000      0.0000000E+00
   1.560000      0.0000000E+00
   1.570000      0.0000000E+00
   1.580000      0.0000000E+00
   1.590000      0.0000000E+00
   1.600000      0.0000000E+00
   1.610000      0.0000000E+00
   1.620000      0.0000000E+00
   1.630000      0.0000000E+00
   1.640000      0.0000000E+00
   1.650000      0.0000000E+00
   1.660000      0.0000000E+00
   1.670000      0.0000000E+00
   1.680000      0.0000000E+00
   1.690000      0.0000000E+00
   1.700000      0.0000000E+00
   1.710000      0.0000000E+00
   1.720000      0.0000000E+00
   1.730000      0.0000000E+00
   1.740000      0.0000000E+00
   1.750000      0.0000000E+00
   1.760000      0.0000000E+00
   1.770000      0.0000000E+00
   1.780000      0.0000000E+00
   1.790000      0.0000000E+00
   1.800000      0.0000000E+00
   1.810000      0.0000000E+00
   1.820000      0.0000000E+00
   1.830000      0.0000000E+00
   1.840000      0.0000000E+00
   1.850000      0.0000000E+00
   1.860000      0.0000000E+00
   1.870000      0.0000000E+00
   1.880000      0.0000000E+00
   1.890000      0.0000000E+00
   1.900000      0.0000000E+00
   1.910000      0.0000000E+00
   1.920000      0.0000000E+00
   1.930000      0.0000000E+00
   1.940000      0.0000000E+00
   1.950000      0.0000000E+00
   1.960000      0.0000000E+00
   1.970000      0.0000000E+00
   1.980000      0.0000000E+00
   1.990000      0.0000000E+00
   2.000000      0.0000000E+00
   2.010000      0.0000000E+00
   2.020000      0.0000000E+00
   2.030000      0.0000000E+00
   2.040000      0.0000000E+00
   2.050000      0.0000000E+00
   2.060000      0.0000000E+00
   2.070000      0.0000000E+00
   2.080000      0.0000000E+00
   2.090000      0.0000000E+00
   2.100000      0.0000000E+00
   2.110000      0.0000000E+00
   2.120000      0.0000000E+00
   2.130000      0.0000000E+00
   2.140000      0.0000000E+00
   2.150000      0.0000000E+00
   2.160000      0.0000000E+00
   2.170000      0.0000000E+00
   2.180000      0.0000000E+00
   2.190000      0.0000000E+00
   2.200000      0.0000000E+00
   2.210000      0.0000000E+00
   2.220000      0.0000000E+00
   2.230000      0.0000000E+00
   2.240000      0.0000000E+00
   2.250000      0.0000000E+00
   2.260000      0.0000000E+00
   2.270000      0.0000000E+00
   2.280000      0.0000000E+00
   2.290000      0.0000000E+00
   2.300000      0.0000000E+00
   2.310000      0.0000000E+00
   2.320000      0.0000000E+00
   2.330000      0.0000000E+00
   2.340000      0.0000000E+00
   2.350000      0.0000000E+00
   2.360000      0.0000000E+00
   2.370000      0.0000000E+00
   2.380000      0.0000000E+00
   2.390000      0.0000000E+00
   2.400000      0.0000000E+00
   2.410000      0.0000000E+00
   2.420000      0.0000000E+00
   2.430000      0.0000000E+00
   2.440000      0.0000000E+00
   2.450000      0.0000000E+00
   2.460000      0.0000000E+00
   2.470000      0.0000000E+00
   2.480000      0.0000000E+00
   2.490000      0.0000000E+00
   2.500000      0.0000000E+00
   2.510000      0.0000000E+00
   2.520000      0.0000000E+00
   2.530000      0.0000000E+00
   2.540000      0.0000000E+00
   2.550000      0.0000000E+00
   2.560000      0.0000000E+00
   2.570000      0.0000000E+00
   2.580000      0.0000000E+00
   2.590000      0.0000000E+00
   2.600000      0.0000000E+00
   2.610000      0.0000000E+00
   2.620000      0.0000000E+00
   2.630000      0.0000000E+00
   2.640000      0.0000000E+00
   2.650000      0.0000000E+00
   2.660000      0.0000000E+00
   2.670000      0.0000000E+00
   2.680000      0.0000000E+00
   2.690000      0.0000000E+00
   2.700000      0.0000000E+00
   2.710000      0.0000000E+00
   2.720000      0.0000000E+00
   2.730000      0.0000000E+00
   2.740000      0.0000000E+00
   2.750000      0.0000000E+00
   2.760000      0.0000000E+00
   2.770000      0.0000000E+00
   2.780000      0.0000000E+00
   2.790000      0.0000000E+00
   2.800000      0.0000000E+00
   2.810000      0.0000000E+00
   2.820000      0.0000000E+00
   2.830000      0.0000000E+00
   2.840000      0.0000000E+00
   2.850000      0.0000000E+00
   2.860000      0.0000000E+00
   2.870000      0.0000000E+00
   2.880000      0.0000000E+00
   2.890000      0.0000000E+00
   2.900000      0.0000000E+00
   2.910000      0.0000000E+00
   2.920000      0.0000000E+00
   2.930000      0.0000000E+00
   2.940000      0.0000000E+00
   2.950000      0.0000000E+00
   2.960000      0.0000000E+00
   2.970000      0.0000000E+00
   2.980000      0.0000000E+00
   2.990000      0.0000000E+00
   3.000000      0.0000000E+00
   3.010000      0.0000000E+00
   3.020000      0.0000000E+00
   3.030000      0.0000000E+00
   3.040000      0.0000000E+00
   3.050000      0.0000000E+00
   3.060000      0.0000000E+00
   3.070000      0.0000000E+00
   3.080000      0.0000000E+00
   3.090000      0.0000000E+00
   3.100000      0.0000000E+00
   3.110000      0.0000000E+00
   3.120000      0.0000000E+00
   3.130000      0.0000000E+00
   3.140000      0.0000000E+00
   3.150000      0.0000000E+00
   3.160000      0.0000000E+00
   3.170000      0.0000000E+00
   3.180000      0.0000000E+00
   3.190000      0.0000000E+00
   3.200000      0.0000000E+00
   3.210000      0.0000000E+00
   3.220000      0.0000000E+00
   3.230000      0.0000000E+00
   3.240000      0.0000000E+00
   3.250000      0.0000000E+00
   3.260000      0.0000000E+00
   3.270000      0.0000000E+00
   3.280000      0.0000000E+00
   3.290000      0.0000000E+00
   3.300000      0.0000000E+00
   3.310000      0.0000000E+00
   3.320000      0.0000000E+00
   3.330000      0.0000000E+00
   3.340000      0.0000000E+00
   3.350000      0.0000000E+00
   3.360000      0.0000000E+00
   3.370000      0.0000000E+00
   3.380000      0.0000000E+00
   3.390000      0.0000000E+00
   3.400000      0.0000000E+00
   3.410000      0.0000000E+00
   3.420000      0.0000000E+00
   3.430000      0.0000000E+00
   3.440000      0.0000000E+00
   3.450000      0.0000000E+00
   3.460000      0.0000000E+00
   3.470000      0.0000000E+00
   3.480000      0.0000000E+00
   3.490000      0.0000000E+00
   3.500000      0.0000000E+00
   3.510000      0.0000000E+00
   3.520000      0.0000000E+00
   3.530000      0.0000000E+00
   3.540000     -1.2001899E-38
   3.550000     -1.3946273E-38
   3.560000     -1.6404299E-38
   3.570000     -1.8026455E-38
   3.580000     -1.8153958E-38
   3.590000     -1.7501430E-38
   3.600000     -1.6520413E-38
   3.610000     -1.4889043E-38
   3.620000     -1.2327066E-38
   3.630000      0.0000000E+00
   3.640000      0.0000000E+00
   3.650000      0.0000000E+00
   3.660000      0.0000000E+00
   3.670000      0.0000000E+00
   3.680000      0.0000000E+00
   3.690000      0.0000000E+00
   3.700000      0.0000000E+00
   3.710000      1.3712695E-38
   3.720000      1.5167088E-38
   3.730000      1.7116645E-38
   3.740000      2.0079531E-38
   3.750000      2.3577332E-38
   3.760000      2.7732994E-38
   3.770000      3.1644394E-38
   3.780000      3.4960791E-38
   3.790000      3.8074910E-38
   3.800000      4.1263428E-38
   3.810000      4.4835884E-38
   3.820000      4.8888770E-38
   3.830000      5.3498330E-38
   3.840000      5.8609202E-38
   3.850000      6.3644981E-38
   3.860000      6.8077826E-38
   3.870000      7.2659282E-38
   3.880000      7.6187717E-38
   3.890000      7.8004142E-38
   3.900000      7.7577167E-38
   3.910000      7.4562194E-38
   3.920000      7.0444451E-38
   3.930000      6.5939915E-38
   3.940000      6.1282767E-38
   3.950000      5.5570828E-38
   3.960000      4.9641127E-38
   3.970000      4.4186800E-38
   3.980000      3.8401455E-38
   3.990000      3.1397813E-38
   4.000000      2.3433840E-38
   4.010000      1.3303702E-38
   4.020000      0.0000000E+00
   4.030000     -2.0623170E-38
   4.040000     -4.2019081E-38
   4.050000     -6.4214889E-38
   4.060000     -8.8502541E-38
   4.070000     -1.1496742E-37
   4.080000     -1.4316404E-37
   4.090000     -1.7056612E-37
   4.100000     -1.9367821E-37
   4.110000     -2.1438515E-37
   4.120000     -2.3660046E-37
   4.130000     -2.6244538E-37
   4.140000     -2.9181314E-37
   4.150000     -3.2128834E-37
   4.160000     -3.4684899E-37
   4.170000     -3.6996620E-37
   4.180000     -3.9454318E-37
   4.190000     -4.1914743E-37
   4.200000     -4.4065788E-37
   4.210000     -4.6044856E-37
   4.220000     -4.7883171E-37
   4.230000     -4.8130692E-37
   4.240000     -4.6271086E-37
   4.250000     -4.3008760E-37
   4.260000     -3.3769367E-37
   4.270000     -1.8800250E-37
   4.280000     -2.5600692E-38
   4.290000      1.4493342E-37
   4.300000      3.2349872E-37
   4.310000      5.6443845E-37
   4.320000      8.7640650E-37
   4.330000      1.2207529E-36
   4.340000      1.5947838E-36
   4.350000      1.9907182E-36
   4.360000      2.2770748E-36
   4.370000      2.4270217E-36
   4.380000      2.5400253E-36
   4.390000      2.5935345E-36
   4.400000      2.5883470E-36
   4.410000      2.5077596E-36
   4.420000      2.3349760E-36
   4.430000      2.1447773E-36
   4.440000      1.9195766E-36
   4.450000      1.6018959E-36
   4.460000      1.2529619E-36
   4.470000      9.4115563E-37
   4.480000      7.1051787E-37
   4.490000      5.6156339E-37
   4.500000      3.2916124E-37
   4.510000      0.0000000E+00
   4.520000     -2.5980713E-37
   4.530000     -3.1299472E-37
   4.540000     -1.9543943E-37
   4.550000     -1.5575203E-37
   4.560000     -2.4789037E-37
   4.570000     -3.5721145E-37
   4.580000     -4.4807359E-37
   4.590000     -5.6331118E-37
   4.600000     -6.1688091E-37
   4.610000     -6.0223100E-37
   4.620000     -6.1991395E-37
   4.630000     -6.9007048E-37
   4.640000     -8.8357729E-37
   4.650000     -1.2438651E-36
   4.660000     -1.8064119E-36
   4.670000     -2.5898439E-36
   4.680000     -3.5249767E-36
   4.690000     -4.5206597E-36
   4.700000     -5.5472385E-36
   4.710000     -6.6526681E-36
   4.720000     -7.8301003E-36
   4.730000     -9.0387595E-36
   4.740000     -1.0266723E-35
   4.750000     -1.1440099E-35
   4.760000     -1.2483792E-35
   4.770000     -1.3300188E-35
   4.780000     -1.3919235E-35
   4.790000     -1.4601210E-35
   4.800000     -1.5318677E-35
   4.810000     -1.5772379E-35
   4.820000     -1.5957046E-35
   4.830000     -1.5963947E-35
   4.840000     -1.5794565E-35
   4.850000     -1.5488042E-35
   4.860000     -1.5034731E-35
   4.870000     -1.4582333E-35
   4.880000     -1.4317828E-35
   4.890000     -1.4105337E-35
   4.900000     -1.3173224E-35
   4.910000     -1.1489699E-35
   4.920000     -9.3061679E-36
   4.930000     -6.7409077E-36
   4.940000     -4.0397129E-36
   4.950000     -9.5415753E-37
   4.960000      2.4363050E-36
   4.970000      6.0293720E-36
   4.980000      9.1729082E-36
   4.990000      1.1276222E-35
   5.000000      1.3000464E-35
   5.010000      1.4853366E-35
   5.020000      1.6528558E-35
   5.030000      1.8788775E-35
   5.040000      2.2067437E-35
   5.050000      2.5623587E-35
   5.060000      2.9295216E-35
   5.070000      3.4863309E-35
   5.080000      4.2080385E-35
   5.090000      4.9438641E-35
   5.100000      5.7595871E-35
   5.110000      6.6410914E-35
   5.120000      7.5434509E-35
   5.130000      8.3996613E-35
   5.140000      9.1654787E-35
   5.150000      9.7414847E-35
   5.160000      1.0113486E-34
   5.170000      1.0169172E-34
   5.180000      9.9376005E-35
   5.190000      9.9051378E-35
   5.200000      1.0105108E-34
   5.210000      1.0416822E-34
   5.220000      1.1144545E-34
   5.230000      1.2184681E-34
   5.240000      1.3404638E-34
   5.250000      1.4651108E-34
   5.260000      1.5414548E-34
   5.270000      1.5793114E-34
   5.280000      1.6057329E-34
   5.290000      1.6050332E-34
   5.300000      1.5679723E-34
   5.310000      1.4965803E-34
   5.320000      1.4039405E-34
   5.330000      1.3122194E-34
   5.340000      1.2055652E-34
   5.350000      1.0655573E-34
   5.360000      8.7799452E-35
   5.370000      6.5030397E-35
   5.380000      4.1650408E-35
   5.390000      1.8252859E-35
   5.400000     -7.1998555E-36
   5.410000     -3.2959780E-35
   5.420000     -5.6936710E-35
   5.430000     -8.1233031E-35
   5.440000     -1.0907905E-34
   5.450000     -1.3861513E-34
   5.460000     -1.6812578E-34
   5.470000     -1.9744804E-34
   5.480000     -2.2724645E-34
   5.490000     -2.5966654E-34
   5.500000     -2.9296258E-34
   5.510000     -3.2429575E-34
   5.520000     -3.5594637E-34
   5.530000     -3.9228914E-34
   5.540000     -4.3411080E-34
   5.550000     -4.7839801E-34
   5.560000     -5.2339515E-34
   5.570000     -5.7050267E-34
   5.580000     -6.2092027E-34
   5.590000     -6.7379726E-34
   5.600000     -7.2644541E-34
   5.610000     -7.8256736E-34
   5.620000     -8.4406353E-34
   5.630000     -9.0615948E-34
   5.640000     -9.6751955E-34
   5.650000     -1.0286039E-33
   5.660000     -1.0865924E-33
   5.670000     -1.1420434E-33
   5.680000     -1.1951550E-33
   5.690000     -1.2440049E-33
   5.700000     -1.2879963E-33
   5.710000     -1.3264855E-33
   5.720000     -1.3587862E-33
   5.730000     -1.3837019E-33
   5.740000     -1.4001546E-33
   5.750000     -1.4074204E-33
   5.760000     -1.4047742E-33
   5.770000     -1.3912683E-33
   5.780000     -1.3665093E-33
   5.790000     -1.3299193E-33
   5.800000     -1.2818563E-33
   5.810000     -1.2202235E-33
   5.820000     -1.1442394E-33
   5.830000     -1.0534532E-33
   5.840000     -9.4706650E-34
   5.850000     -8.2639889E-34
   5.860000     -6.9001000E-34
   5.870000     -5.3633078E-34
   5.880000     -3.6597467E-34
   5.890000     -1.8089124E-34
   5.900000      2.0027804E-35
   5.910000      2.3978868E-34
   5.920000      4.7936412E-34
   5.930000      7.3759336E-34
   5.940000      1.0154064E-33
   5.950000      1.3140013E-33
   5.960000      1.6332199E-33
   5.970000      1.9735301E-33
   5.980000      2.3354578E-33
   5.990000      2.7189638E-33
   6.000000      3.1235357E-33
   6.010000      3.5493809E-33
   6.020000      3.9967403E-33
   6.030000      4.4647928E-33
   6.040000      4.9519397E-33
   6.050000      5.4585957E-33
   6.060000      5.9836666E-33
   6.070000      6.5243999E-33
   6.080000      7.0794801E-33
   6.090000      7.6467112E-33
   6.100000      8.2237129E-33
   6.110000      8.8077117E-33
   6.120000      9.3955904E-33
   6.130000      9.9840378E-33
   6.140000      1.0569424E-32
   6.150000      1.1147377E-32
   6.160000      1.1713895E-32
   6.170000      1.2265022E-32
   6.180000      1.2795572E-32
   6.190000      1.3300247E-32
   6.200000      1.3773601E-32
   6.210000      1.4209844E-32
   6.220000      1.4603069E-32
   6.230000      1.4947235E-32
   6.240000      1.5235861E-32
   6.250000      1.5462683E-32
   6.260000      1.5621133E-32
   6.270000      1.5703889E-32
   6.280000      1.5703943E-32
   6.290000      1.5614255E-32
   6.300000      1.5427491E-32
   6.310000      1.5135914E-32
   6.320000      1.4732550E-32
   6.330000      1.4208944E-32
   6.340000      1.3556083E-32
   6.350000      1.2766913E-32
   6.360000      1.1833636E-32
   6.370000      1.0747808E-32
   6.380000      9.5011910E-33
   6.390000      8.0854946E-33
   6.400000      6.4927571E-33
   6.410000      4.7151466E-33
   6.420000      2.7447962E-33
   6.430000      5.7423170E-34
   6.440000     -1.8036811E-33
   6.450000     -4.3956484E-33
   6.460000     -7.2078750E-33
   6.470000     -1.0245981E-32
   6.480000     -1.3514892E-32
   6.490000     -1.7018862E-32
   6.500000     -2.0760704E-32
   6.510000     -2.4742907E-32
   6.520000     -2.8967090E-32
   6.530000     -3.3432864E-32
   6.540000     -3.8138814E-32
   6.550000     -4.3082080E-32
   6.560000     -4.8258213E-32
   6.570000     -5.3661053E-32
   6.580000     -5.9282631E-32
   6.590000     -6.5113083E-32
   6.600000     -7.1140513E-32
   6.610000     -7.7350908E-32
   6.620000     -8.3728053E-32
   6.630000     -9.0253451E-32
   6.640000     -9.6906261E-32
   6.650000     -1.0366324E-31
   6.660000     -1.1049860E-31
   6.670000     -1.1738398E-31
   6.680000     -1.2428843E-31
   6.690000     -1.3117821E-31
   6.700000     -1.3801690E-31
   6.710000     -1.4476523E-31
   6.720000     -1.5138108E-31
   6.730000     -1.5781927E-31
   6.740000     -1.6403171E-31
   6.750000     -1.6996731E-31
   6.760000     -1.7557191E-31
   6.770000     -1.8078821E-31
   6.780000     -1.8555591E-31
   6.790000     -1.8981160E-31
   6.800000     -1.9348884E-31
   6.810000     -1.9651816E-31
   6.820000     -1.9882711E-31
   6.830000     -2.0034051E-31
   6.840000     -2.0098033E-31
   6.850000     -2.0066596E-31
   6.860000     -1.9931426E-31
   6.870000     -1.9683986E-31
   6.880000     -1.9315521E-31
   6.890000     -1.8817094E-31
   6.900000     -1.8179603E-31
   6.910000     -1.7393818E-31
   6.920000     -1.6450416E-31
   6.930000     -1.5340010E-31
   6.940000     -1.4053201E-31
   6.950000     -1.2580617E-31
   6.960000     -1.0912965E-31
   6.970000     -9.0410850E-32
   6.980000     -6.9560119E-32
   6.990000     -4.6490613E-32
   7.000000     -2.1117959E-32
   7.010000      6.6383766E-33
   7.020000      3.6853690E-32
   7.030000      6.9598358E-32
   7.040000      1.0493669E-31
   7.050000      1.4292617E-31
   7.060000      1.8361663E-31