  -2.600000      0.0000000E+00
  -2.590000      0.0000000E+00
  -2.580000      0.0000000E+00
  -2.570000      0.0000000E+00
  -2.560000      0.0000000E+00
  -2.550000      0.0000000E+00
  -2.540000      0.0000000E+00
  -2.530000      0.0000000E+00
  -2.520000      0.0000000E+00
  -2.510000      0.0000000E+00
  -2.500000      0.0000000E+00
  -2.490000      0.0000000E+00
  -2.480000      0.0000000E+00
  -2.470000      0.0000000E+00
  -2.460000      0.0000000E+00
  -2.450000      0.0000000E+00
  -2.440000      0.0000000E+00
  -2.430000      0.0000000E+00
  -2.420000      0.0000000E+00
  -2.410000      0.0000000E+00
  -2.400000      0.0000000E+00
  -2.390000      0.0000000E+00
  -2.380000      0.0000000E+00
  -2.370000      0.0000000E+00
  -2.360000      0.0000000E+00
  -2.350000      0.0000000E+00
  -2.340000      0.0000000E+00
  -2.330000      0.0000000E+00
  -2.320000      0.0000000E+00
  -2.310000      0.0000000E+00
  -2.300000      0.0000000E+00
  -2.290000      0.0000000E+00
  -2.280000      0.0000000E+00
  -2.270000      0.0000000E+00
  -2.260000      0.0000000E+00
  -2.250000      0.0000000E+00
  -2.240000      0.0000000E+00
  -2.230000      0.0000000E+00
  -2.220000      0.0000000E+00
  -2.210000      0.0000000E+00
  -2.200000      0.0000000E+00
  -2.190000      0.0000000E+00
  -2.180000      0.0000000E+00
  -2.170000      0.0000000E+00
  -2.160000      0.0000000E+00
  -2.150000      0.0000000E+00
  -2.140000      0.0000000E+00
  -2.130000      0.0000000E+00
  -2.120000      0.0000000E+00
  -2.110000      0.0000000E+00
  -2.100000      0.0000000E+00
  -2.090000      0.0000000E+00
  -2.080000      0.0000000E+00
  -2.070000      0.0000000E+00
  -2.060000      0.0000000E+00
  -2.050000      0.0000000E+00
  -2.040000      0.0000000E+00
  -2.030000      0.0000000E+00
  -2.020000      0.0000000E+00
  -2.010000      0.0000000E+00
  -2.000000      0.0000000E+00
  -1.990000      0.0000000E+00
  -1.980000      0.0000000E+00
  -1.970000      0.0000000E+00
  -1.960000      0.0000000E+00
  -1.950000      0.0000000E+00
  -1.940000      0.0000000E+00
  -1.930000      0.0000000E+00
  -1.920000      0.0000000E+00
  -1.910000      0.0000000E+00
  -1.900000      0.0000000E+00
  -1.890000      0.0000000E+00
  -1.880000      0.0000000E+00
  -1.870000      0.0000000E+00
  -1.860000      0.0000000E+00
  -1.850000      0.0000000E+00
  -1.840000      0.0000000E+00
  -1.830000      0.0000000E+00
  -1.820000      0.0000000E+00
  -1.810000      0.0000000E+00
  -1.800000      0.0000000E+00
  -1.790000      0.0000000E+00
  -1.780000      0.0000000E+00
  -1.770000      0.0000000E+00
  -1.760000      0.0000000E+00
  -1.750000      0.0000000E+00
  -1.740000      0.0000000E+00
  -1.730000      0.0000000E+00
  -1.720000      0.0000000E+00
  -1.710000      0.0000000E+00
  -1.700000      0.0000000E+00
  -1.690000      0.0000000E+00
  -1.680000      0.0000000E+00
  -1.670000      0.0000000E+00
  -1.660000      0.0000000E+00
  -1.650000      0.0000000E+00
  -1.640000      0.0000000E+00
  -1.630000      0.0000000E+00
  -1.620000      0.0000000E+00
  -1.610000      0.0000000E+00
  -1.600000      0.0000000E+00
  -1.590000      0.0000000E+00
  -1.580000      0.0000000E+00
  -1.570000      0.0000000E+00
  -1.560000      0.0000000E+00
  -1.550000      0.0000000E+00
  -1.540000      0.0000000E+00
  -1.530000      0.0000000E+00
  -1.520000      0.0000000E+00
  -1.510000      0.0000000E+00
  -1.500000      0.0000000E+00
  -1.490000      0.0000000E+00
  -1.480000      0.0000000E+00
  -1.470000      0.0000000E+00
  -1.460000      0.0000000E+00
  -1.450000      0.0000000E+00
  -1.440000      0.0000000E+00
  -1.430000      0.0000000E+00
  -1.420000      0.0000000E+00
  -1.410000      0.0000000E+00
  -1.400000      0.0000000E+00
  -1.390000      0.0000000E+00
  -1.380000      0.0000000E+00
  -1.370000      0.0000000E+00
  -1.360000      0.0000000E+00
  -1.350000      0.0000000E+00
  -1.340000      0.0000000E+00
  -1.330000      0.0000000E+00
  -1.320000      0.0000000E+00
  -1.310000      0.0000000E+00
  -1.300000      0.0000000E+00
  -1.290000      0.0000000E+00
  -1.280000      0.0000000E+00
  -1.270000      0.0000000E+00
  -1.260000      0.0000000E+00
  -1.250000      0.0000000E+00
  -1.240000      0.0000000E+00
  -1.230000      0.0000000E+00
  -1.220000      0.0000000E+00
  -1.210000      0.0000000E+00
  -1.200000      0.0000000E+00
  -1.190000      0.0000000E+00
  -1.180000      0.0000000E+00
  -1.170000      0.0000000E+00
  -1.160000      0.0000000E+00
  -1.150000      0.0000000E+00
  -1.140000      0.0000000E+00
  -1.130000      0.0000000E+00
  -1.120000      0.0000000E+00
  -1.110000      0.0000000E+00
  -1.100000      0.0000000E+00
  -1.090000      0.0000000E+00
  -1.080000      0.0000000E+00
  -1.070000      0.0000000E+00
  -1.060000      0.0000000E+00
  -1.050000      0.0000000E+00
  -1.040000      0.0000000E+00
  -1.030000      0.0000000E+00
  -1.020000      0.0000000E+00
  -1.010000      0.0000000E+00
  -1.000000      0.0000000E+00
 -0.9900000      0.0000000E+00
 -0.9800000      0.0000000E+00
 -0.9700000      0.0000000E+00
 -0.9600000      0.0000000E+00
 -0.9500000      0.0000000E+00
 -0.9400000      0.0000000E+00
 -0.9300000      0.0000000E+00
 -0.9200000      0.0000000E+00
 -0.9100000      0.0000000E+00
 -0.9000000      0.0000000E+00
 -0.8900000      0.0000000E+00
 -0.8800000      0.0000000E+00
 -0.8700000      0.0000000E+00
 -0.8600000      0.0000000E+00
 -0.8500000      0.0000000E+00
 -0.8400000      0.0000000E+00
 -0.8300000      0.0000000E+00
 -0.8200000      0.0000000E+00
 -0.8100000      0.0000000E+00
 -0.8000000      0.0000000E+00
 -0.7900000      0.0000000E+00
 -0.7800000      0.0000000E+00
 -0.7700000      0.0000000E+00
 -0.7600000      0.0000000E+00
 -0.7500000      0.0000000E+00
 -0.7400000      0.0000000E+00
 -0.7300000      0.0000000E+00
 -0.7200000      0.0000000E+00
 -0.7100000      0.0000000E+00
 -0.7000000      0.0000000E+00
 -0.6900000      0.0000000E+00
 -0.6800000      0.0000000E+00
 -0.6700000      0.0000000E+00
 -0.6600000      0.0000000E+00
 -0.6500000      0.0000000E+00
 -0.6400000      0.0000000E+00
 -0.6300000      0.0000000E+00
 -0.6200000      0.0000000E+00
 -0.6100000      0.0000000E+00
 -0.6000000      0.0000000E+00
 -0.5900000      0.0000000E+00
 -0.5800000      0.0000000E+00
 -0.5700000      0.0000000E+00
 -0.5600000      0.0000000E+00
 -0.5500000      0.0000000E+00
 -0.5400000      0.0000000E+00
 -0.5300000      0.0000000E+00
 -0.5200000      0.0000000E+00
 -0.5100000      0.0000000E+00
 -0.5000000      0.0000000E+00
 -0.4900000      0.0000000E+00
 -0.4800000      0.0000000E+00
 -0.4700000      0.0000000E+00
 -0.4600000      0.0000000E+00
 -0.4500000      0.0000000E+00
 -0.4400000      0.0000000E+00
 -0.4300000      0.0000000E+00
 -0.4200000      0.0000000E+00
 -0.4100000      0.0000000E+00
 -0.4000000      0.0000000E+00
 -0.3900000      0.0000000E+00
 -0.3800000      0.0000000E+00
 -0.3700000      0.0000000E+00
 -0.3600000      0.0000000E+00
 -0.3500000      0.0000000E+00
 -0.3400000      0.0000000E+00
 -0.3300000      0.0000000E+00
 -0.3200000      0.0000000E+00
 -0.3100000      0.0000000E+00
 -0.3000000      0.0000000E+00
 -0.2900000      0.0000000E+00
 -0.2800000      0.0000000E+00
 -0.2700000      0.0000000E+00
 -0.2600000      0.0000000E+00
 -0.2500000      0.0000000E+00
 -0.2400000      0.0000000E+00
 -0.2300000      0.0000000E+00
 -0.2200000      0.0000000E+00
 -0.2100000      0.0000000E+00
 -0.2000000      0.0000000E+00
 -0.1900000      0.0000000E+00
 -0.1800000      0.0000000E+00
 -0.1700000      0.0000000E+00
 -0.1600000      0.0000000E+00
 -0.1500000      0.0000000E+00
 -0.1400000      0.0000000E+00
 -0.1300000      0.0000000E+00
 -0.1200000      0.0000000E+00
 -0.1100000      0.0000000E+00
 -0.1000000      0.0000000E+00
 -9.0000004E-02  0.0000000E+00
 -7.9999998E-02  0.0000000E+00
 -7.0000000E-02  0.0000000E+00
 -5.9999999E-02  0.0000000E+00
 -5.0000001E-02  0.0000000E+00
 -3.9999999E-02  0.0000000E+00
 -2.9999999E-02  0.0000000E+00
 -2.0000000E-02  0.0000000E+00
 -9.9999998E-03  0.0000000E+00
 -3.4694470E-17  0.0000000E+00
  9.9999998E-03  0.0000000E+00
  2.0000000E-02  0.0000000E+00
  2.9999999E-02  0.0000000E+00
  3.9999999E-02  0.0000000E+00
  5.0000001E-02  0.0000000E+00
  5.9999999E-02  0.0000000E+00
  7.0000000E-02  0.0000000E+00
  7.9999998E-02  0.0000000E+00
  9.0000004E-02  0.0000000E+00
  0.1000000      0.0000000E+00
  0.1100000      0.0000000E+00
  0.1200000      0.0000000E+00
  0.1300000      0.0000000E+00
  0.1400000      0.0000000E+00
  0.1500000      0.0000000E+00
  0.1600000      0.0000000E+00
  0.1700000      0.0000000E+00
  0.1800000      0.0000000E+00
  0.1900000      0.0000000E+00
  0.2000000      0.0000000E+00
  0.2100000      0.0000000E+00
  0.2200000      0.0000000E+00
  0.2300000      0.0000000E+00
  0.2400000      0.0000000E+00
  0.2500000      0.0000000E+00
  0.2600000      0.0000000E+00
  0.2700000      0.0000000E+00
  0.2800000      0.0000000E+00
  0.2900000      0.0000000E+00
  0.3000000      0.0000000E+00
  0.3100000      0.0000000E+00
  0.3200000      0.0000000E+00
  0.3300000      0.0000000E+00
  0.3400000      0.0000000E+00
  0.3500000      0.0000000E+00
  0.3600000      0.0000000E+00
  0.3700000      0.0000000E+00
  0.3800000      0.0000000E+00
  0.3900000      0.0000000E+00
  0.4000000      0.0000000E+00
  0.4100000      0.0000000E+00
  0.4200000      0.0000000E+00
  0.4300000      0.0000000E+00
  0.4400000      0.0000000E+00
  0.4500000      0.0000000E+00
  0.4600000      0.0000000E+00
  0.4700000      0.0000000E+00
  0.4800000      0.0000000E+00
  0.4900000      0.0000000E+00
  0.5000000      0.0000000E+00
  0.5100000      0.0000000E+00
  0.5200000      0.0000000E+00
  0.5300000      0.0000000E+00
  0.5400000      0.0000000E+00
  0.5500000      0.0000000E+00
  0.5600000      0.0000000E+00
  0.5700000      0.0000000E+00
  0.5800000      0.0000000E+00
  0.5900000      0.0000000E+00
  0.6000000      0.0000000E+00
  0.6100000      0.0000000E+00
  0.6200000      0.0000000E+00
  0.6300000      0.0000000E+00
  0.6400000      0.0000000E+00
  0.6500000      0.0000000E+00
  0.6600000      0.0000000E+00
  0.6700000      0.0000000E+00
  0.6800000      0.0000000E+00
  0.6900000      0.0000000E+00
  0.7000000      0.0000000E+00
  0.7100000      0.0000000E+00
  0.7200000      0.0000000E+00
  0.7300000      0.0000000E+00
  0.7400000      0.0000000E+00
  0.7500000      0.0000000E+00
  0.7600000      0.0000000E+00
  0.7700000      0.0000000E+00
  0.7800000      0.0000000E+00
  0.7900000      0.0000000E+00
  0.8000000      0.0000000E+00
  0.8100000      0.0000000E+00
  0.8200000      0.0000000E+00
  0.8300000      0.0000000E+00
  0.8400000      0.0000000E+00
  0.8500000      0.0000000E+00
  0.8600000      0.0000000E+00
  0.8700000      0.0000000E+00
  0.8800000      0.0000000E+00
  0.8900000      0.0000000E+00
  0.9000000      0.0000000E+00
  0.9100000      0.0000000E+00
  0.9200000      0.0000000E+00
  0.9300000      0.0000000E+00
  0.9400000      0.0000000E+00
  0.9500000      0.0000000E+00
  0.9600000      0.0000000E+00
  0.9700000      0.0000000E+00
  0.9800000      0.0000000E+00
  0.9900000      0.0000000E+00
   1.000000      0.0000000E+00
   1.010000      0.0000000E+00
   1.020000      0.0000000E+00
   1.030000      0.0000000E+00
   1.040000      0.0000000E+00
   1.050000      0.0000000E+00
   1.060000      0.0000000E+00
   1.070000      0.0000000E+00
   1.080000      0.0000000E+00
   1.090000      0.0000000E+00
   1.100000      0.0000000E+00
   1.110000      0.0000000E+00
   1.120000      0.0000000E+00
   1.130000      0.0000000E+00
   1.140000      0.0000000E+00
   1.150000      0.0000000E+00
   1.160000      0.0000000E+00
   1.170000      0.0000000E+00
   1.180000      0.0000000E+00
   1.190000      0.0000000E+00
   1.200000      0.0000000E+00
   1.210000      0.0000000E+00
   1.220000      0.0000000E+00
   1.230000      0.0000000E+00
   1.240000      0.0000000E+00
   1.250000      0.0000000E+00
   1.260000      0.0000000E+00
   1.270000      0.0000000E+00
   1.280000      0.0000000E+00
   1.290000      0.0000000E+00
   1.300000      0.0000000E+00
   1.310000      0.0000000E+00
   1.320000      0.0000000E+00
   1.330000      0.0000000E+00
   1.340000      0.0000000E+00
   1.350000      0.0000000E+00
   1.360000      0.0000000E+00
   1.370000      0.0000000E+00
   1.380000      0.0000000E+00
   1.390000      0.0000000E+00
   1.400000      0.0000000E+00
   1.410000      0.0000000E+00
   1.420000      0.0000000E+00
   1.430000      0.0000000E+00
   1.440000      0.0000000E+00
   1.450000      0.0000000E+00
   1.460000      0.0000000E+00
   1.470000      0.0000000E+00
   1.480000      0.0000000E+00
   1.490000      0.0000000E+00
   1.500000      0.0000000E+00
   1.510000      0.0000000E+00
   1.520000      0.0000000E+00
   1.530000      0.0000000E+00
   1.540000      0.0000000E+00
   1.550000      0.0000000E+00
   1.560000      0.0000000E+00
   1.570000      0.0000000E+00
   1.580000      0.0000000E+00
   1.590000      0.0000000E+00
   1.600000      0.0000000E+00
   1.610000      0.0000000E+00
   1.620000      0.0000000E+00
   1.630000      0.0000000E+00
   1.640000      0.0000000E+00
   1.650000      0.0000000E+00
   1.660000      0.0000000E+00
   1.670000      0.0000000E+00
   1.680000      0.0000000E+00
   1.690000      0.0000000E+00
   1.700000      0.0000000E+00
   1.710000      0.0000000E+00
   1.720000      0.0000000E+00
   1.730000      0.0000000E+00
   1.740000      0.0000000E+00
   1.750000      0.0000000E+00
   1.760000      0.0000000E+00
   1.770000      0.0000000E+00
   1.780000      0.0000000E+00
   1.790000      0.0000000E+00
   1.800000      0.0000000E+00
   1.810000      0.0000000E+00
   1.820000      0.0000000E+00
   1.830000      0.0000000E+00
   1.840000      0.0000000E+00
   1.850000      0.0000000E+00
   1.860000      0.0000000E+00
   1.870000      0.0000000E+00
   1.880000      0.0000000E+00
   1.890000      0.0000000E+00
   1.900000      0.0000000E+00
   1.910000      0.0000000E+00
   1.920000      0.0000000E+00
   1.930000      0.0000000E+00
   1.940000      0.0000000E+00
   1.950000      0.0000000E+00
   1.960000      0.0000000E+00
   1.970000      0.0000000E+00
   1.980000      0.0000000E+00
   1.990000      0.0000000E+00
   2.000000      0.0000000E+00
   2.010000      0.0000000E+00
   2.020000      0.0000000E+00
   2.030000      0.0000000E+00
   2.040000      0.0000000E+00
   2.050000      0.0000000E+00
   2.060000      0.0000000E+00
   2.070000      0.0000000E+00
   2.080000      0.0000000E+00
   2.090000      0.0000000E+00
   2.100000      0.0000000E+00
   2.110000      0.0000000E+00
   2.120000      0.0000000E+00
   2.130000      0.0000000E+00
   2.140000      0.0000000E+00
   2.150000      0.0000000E+00
   2.160000      0.0000000E+00
   2.170000      0.0000000E+00
   2.180000      0.0000000E+00
   2.190000      0.0000000E+00
   2.200000      0.0000000E+00
   2.210000      0.0000000E+00
   2.220000      0.0000000E+00
   2.230000      0.0000000E+00
   2.240000      0.0000000E+00
   2.250000      0.0000000E+00
   2.260000      0.0000000E+00
   2.270000      0.0000000E+00
   2.280000      0.0000000E+00
   2.290000      0.0000000E+00
   2.300000      0.0000000E+00
   2.310000      0.0000000E+00
   2.320000      0.0000000E+00
   2.330000      0.0000000E+00
   2.340000      0.0000000E+00
   2.350000      0.0000000E+00
   2.360000      0.0000000E+00
   2.370000      0.0000000E+00
   2.380000      0.0000000E+00
   2.390000      0.0000000E+00
   2.400000      0.0000000E+00
   2.410000      0.0000000E+00
   2.420000      0.0000000E+00
   2.430000      0.0000000E+00
   2.440000      0.0000000E+00
   2.450000      0.0000000E+00
   2.460000      0.0000000E+00
   2.470000      0.0000000E+00
   2.480000      0.0000000E+00
   2.490000      0.0000000E+00
   2.500000      0.0000000E+00
   2.510000      0.0000000E+00
   2.520000      0.0000000E+00
   2.530000      0.0000000E+00
   2.540000      0.0000000E+00
   2.550000      0.0000000E+00
   2.560000      0.0000000E+00
   2.570000      0.0000000E+00
   2.580000      0.0000000E+00
   2.590000      0.0000000E+00
   2.600000      0.0000000E+00
   2.610000      0.0000000E+00
   2.620000      0.0000000E+00
   2.630000      0.0000000E+00
   2.640000      0.0000000E+00
   2.650000      0.0000000E+00
   2.660000      0.0000000E+00
   2.670000      0.0000000E+00
   2.680000      0.0000000E+00
   2.690000      0.0000000E+00
   2.700000      0.0000000E+00
   2.710000      0.0000000E+00
   2.720000      0.0000000E+00
   2.730000      0.0000000E+00
   2.740000      0.0000000E+00
   2.750000      0.0000000E+00
   2.760000      0.0000000E+00
   2.770000      0.0000000E+00
   2.780000      0.0000000E+00
   2.790000      0.0000000E+00
   2.800000      0.0000000E+00
   2.810000      0.0000000E+00
   2.820000      0.0000000E+00
   2.830000      0.0000000E+00
   2.840000      0.0000000E+00
   2.850000      0.0000000E+00
   2.860000      0.0000000E+00
   2.870000      0.0000000E+00
   2.880000      0.0000000E+00
   2.890000      0.0000000E+00
   2.900000      0.0000000E+00
   2.910000      0.0000000E+00
   2.920000      0.0000000E+00
   2.930000      0.0000000E+00
   2.940000      0.0000000E+00
   2.950000      0.0000000E+00
   2.960000      0.0000000E+00
   2.970000      0.0000000E+00
   2.980000      0.0000000E+00
   2.990000      0.0000000E+00
   3.000000      0.0000000E+00
   3.010000      0.0000000E+00
   3.020000      0.0000000E+00
   3.030000      0.0000000E+00
   3.040000      0.0000000E+00
   3.050000      0.0000000E+00
   3.060000      0.0000000E+00
   3.070000      0.0000000E+00
   3.080000      0.0000000E+00
   3.090000      0.0000000E+00
   3.100000      0.0000000E+00
   3.110000      0.0000000E+00
   3.120000      0.0000000E+00
   3.130000      0.0000000E+00
   3.140000      0.0000000E+00
   3.150000      0.0000000E+00
   3.160000      0.0000000E+00
   3.170000      0.0000000E+00
   3.180000      0.0000000E+00
   3.190000      0.0000000E+00
   3.200000      0.0000000E+00
   3.210000      0.0000000E+00
   3.220000      0.0000000E+00
   3.230000      0.0000000E+00
   3.240000      0.0000000E+00
   3.250000      0.0000000E+00
   3.260000      0.0000000E+00
   3.270000      0.0000000E+00
   3.280000      0.0000000E+00
   3.290000      0.0000000E+00
   3.300000      0.0000000E+00
   3.310000      0.0000000E+00
   3.320000      0.0000000E+00
   3.330000      0.0000000E+00
   3.340000      0.0000000E+00
   3.350000      0.0000000E+00
   3.360000      0.0000000E+00
   3.370000      0.0000000E+00
   3.380000      0.0000000E+00
   3.390000      0.0000000E+00
   3.400000      0.0000000E+00
   3.410000      0.0000000E+00
   3.420000      0.0000000E+00
   3.430000      0.0000000E+00
   3.440000      0.0000000E+00
   3.450000      0.0000000E+00
   3.460000      0.0000000E+00
   3.470000      0.0000000E+00
   3.480000      0.0000000E+00
   3.490000      0.0000000E+00
   3.500000      0.0000000E+00
   3.510000      0.0000000E+00
   3.520000      0.0000000E+00
   3.530000      0.0000000E+00
   3.540000      0.0000000E+00
   3.550000      0.0000000E+00
   3.560000      0.0000000E+00
   3.570000      0.0000000E+00
   3.580000      0.0000000E+00
   3.590000      0.0000000E+00
   3.600000      0.0000000E+00
   3.610000      0.0000000E+00
   3.620000      0.0000000E+00
   3.630000      0.0000000E+00
   3.640000      0.0000000E+00
   3.650000      0.0000000E+00
   3.660000      0.0000000E+00
   3.670000      0.0000000E+00
   3.680000      0.0000000E+00
   3.690000      0.0000000E+00
   3.700000      0.0000000E+00
   3.710000      0.0000000E+00
   3.720000      0.0000000E+00
   3.730000     -1.3634127E-38
   3.740000     -1.6504073E-38
   3.750000     -1.9962406E-38
   3.760000     -2.4048431E-38
   3.770000     -2.8631975E-38
   3.780000     -3.3834130E-38
   3.790000     -3.8934621E-38
   3.800000     -4.4302076E-38
   3.810000     -4.9987472E-38
   3.820000     -5.5285232E-38
   3.830000     -6.0453546E-38
   3.840000     -6.5976248E-38
   3.850000     -7.1381241E-38
   3.860000     -7.5917317E-38
   3.870000     -7.9880430E-38
   3.880000     -8.3889792E-38
   3.890000     -8.8580341E-38
   3.900000     -9.4610067E-38
   3.910000     -1.0122181E-37
   3.920000     -1.0473750E-37
   3.930000     -1.0659557E-37
   3.940000     -1.0851635E-37
   3.950000     -1.0933132E-37
   3.960000     -1.0975040E-37
   3.970000     -1.0558920E-37
   3.980000     -9.5950258E-38
   3.990000     -8.5368935E-38
   4.000000     -7.7556158E-38
   4.010000     -7.2340380E-38
   4.020000     -6.4608469E-38
   4.030000     -4.6522313E-38
   4.040000     -2.0248687E-38
   4.050000      0.0000000E+00
   4.060000      2.4964681E-38
   4.070000      2.7954497E-38
   4.080000      3.5917956E-38
   4.090000      5.8628287E-38
   4.100000      1.0029616E-37
   4.110000      1.5578411E-37
   4.120000      2.0207681E-37
   4.130000      2.3145076E-37
   4.140000      2.5590542E-37
   4.150000      2.6546673E-37
   4.160000      2.5615509E-37
   4.170000      2.5289736E-37
   4.180000      2.5413447E-37
   4.190000      2.5422776E-37
   4.200000      2.5740705E-37
   4.210000      2.6217998E-37
   4.220000      2.7147929E-37
   4.230000      3.1205800E-37
   4.240000      3.8236812E-37
   4.250000      4.2579286E-37
   4.260000      4.4624029E-37
   4.270000      4.7965594E-37
   4.280000      5.2322660E-37
   4.290000      5.6882705E-37
   4.300000      6.0081382E-37
   4.310000      6.1951876E-37
   4.320000      6.3740027E-37
   4.330000      6.4581694E-37
   4.340000      6.5044571E-37
   4.350000      6.6670176E-37
   4.360000      6.7363112E-37
   4.370000      6.6036596E-37
   4.380000      6.4656942E-37
   4.390000      6.2850043E-37
   4.400000      5.9368406E-37
   4.410000      5.4125039E-37
   4.420000      4.3861615E-37
   4.430000      2.4646241E-37
   4.440000      4.6817124E-38
   4.450000     -2.2924057E-38
   4.460000      0.0000000E+00
   4.470000      4.4023860E-38
   4.480000      8.4372612E-38
   4.490000      1.4371445E-37
   4.500000      3.7081768E-38
   4.510000     -1.4324364E-37
   4.520000     -2.0802267E-37
   4.530000     -3.6542330E-37
   4.540000     -6.6352025E-37
   4.550000     -9.8946146E-37
   4.560000     -1.3406281E-36
   4.570000     -1.8131595E-36
   4.580000     -2.3650168E-36
   4.590000     -2.8807532E-36
   4.600000     -3.3759980E-36
   4.610000     -3.8328968E-36
   4.620000     -4.2814085E-36
   4.630000     -4.7732934E-36
   4.640000     -5.2940667E-36
   4.650000     -5.8534919E-36
   4.660000     -6.4290314E-36
   4.670000     -7.1270329E-36
   4.680000     -8.0934321E-36
   4.690000     -9.2407201E-36
   4.700000     -1.0448217E-35
   4.710000     -1.1680818E-35
   4.720000     -1.2784603E-35
   4.730000     -1.3709021E-35
   4.740000     -1.4597076E-35
   4.750000     -1.5464707E-35
   4.760000     -1.6037881E-35
   4.770000     -1.6617502E-35
   4.780000     -1.7528120E-35
   4.790000     -1.8377622E-35
   4.800000     -1.9748598E-35
   4.810000     -2.1660771E-35
   4.820000     -2.3274853E-35
   4.830000     -2.4484457E-35
   4.840000     -2.5408592E-35
   4.850000     -2.5911856E-35
   4.860000     -2.5789606E-35
   4.870000     -2.5304361E-35
   4.880000     -2.4667267E-35
   4.890000     -2.4062319E-35
   4.900000     -2.3463613E-35
   4.910000     -2.2474828E-35
   4.920000     -2.1062838E-35
   4.930000     -1.9475011E-35
   4.940000     -1.7913550E-35
   4.950000     -1.6328103E-35
   4.960000     -1.4533579E-35
   4.970000     -1.2641980E-35
   4.980000     -1.0481669E-35
   4.990000     -7.9098250E-36
   5.000000     -5.2696409E-36
   5.010000     -2.4782124E-36
   5.020000      9.5488970E-37
   5.030000      5.0882102E-36
   5.040000      9.8121227E-36
   5.050000      1.5351338E-35
   5.060000      2.0084179E-35
   5.070000      2.5529837E-35
   5.080000      3.3197837E-35
   5.090000      4.1514931E-35
   5.100000      5.0205938E-35
   5.110000      5.4620304E-35
   5.120000      5.4092663E-35
   5.130000      5.4468465E-35
   5.140000      5.5959242E-35
   5.150000      5.7250059E-35
   5.160000      6.1119312E-35
   5.170000      6.9554483E-35
   5.180000      7.8963701E-35
   5.190000      9.1808818E-35
   5.200000      1.0961655E-34
   5.210000      1.2920760E-34
   5.220000      1.5092709E-34
   5.230000      1.7078057E-34
   5.240000      1.8473017E-34
   5.250000      1.9525707E-34
   5.260000      2.0599377E-34
   5.270000      2.1616232E-34
   5.280000      2.2579699E-34
   5.290000      2.3443981E-34
   5.300000      2.4165071E-34
   5.310000      2.4844312E-34
   5.320000      2.5732510E-34
   5.330000      2.6818683E-34
   5.340000      2.7873405E-34
   5.350000      2.8798493E-34
   5.360000      2.9583841E-34
   5.370000      3.0145169E-34
   5.380000      3.0387013E-34
   5.390000      3.0540806E-34
   5.400000      3.0436189E-34
   5.410000      2.9672368E-34
   5.420000      2.8404544E-34
   5.430000      2.7021947E-34
   5.440000      2.5257055E-34
   5.450000      2.3118473E-34
   5.460000      2.0555943E-34
   5.470000      1.7473608E-34
   5.480000      1.3892884E-34
   5.490000      1.0017166E-34
   5.500000      6.1510744E-35
   5.510000      2.0505792E-35
   5.520000     -2.2460720E-35
   5.530000     -6.8782778E-35
   5.540000     -1.1935664E-34
   5.550000     -1.7300187E-34
   5.560000     -2.3140667E-34
   5.570000     -2.9571693E-34
   5.580000     -3.6532617E-34
   5.590000     -4.3848901E-34
   5.600000     -5.1595381E-34
   5.610000     -5.9813423E-34
   5.620000     -6.8447103E-34
   5.630000     -7.7509140E-34
   5.640000     -8.6883506E-34
   5.650000     -9.6678120E-34
   5.660000     -1.0700494E-33
   5.670000     -1.1772794E-33
   5.680000     -1.2865886E-33
   5.690000     -1.3989207E-33
   5.700000     -1.5142785E-33
   5.710000     -1.6323034E-33
   5.720000     -1.7516155E-33
   5.730000     -1.8712502E-33
   5.740000     -1.9904481E-33
   5.750000     -2.1058223E-33
   5.760000     -2.2197260E-33
   5.770000     -2.3342109E-33
   5.780000     -2.4468264E-33
   5.790000     -2.5533205E-33
   5.800000     -2.6545904E-33
   5.810000     -2.7494741E-33
   5.820000     -2.8339521E-33
   5.830000     -2.9090010E-33
   5.840000     -2.9732023E-33
   5.850000     -3.0244529E-33
   5.860000     -3.0605876E-33
   5.870000     -3.0809207E-33
   5.880000     -3.0844127E-33
   5.890000     -3.0687871E-33
   5.900000     -3.0327549E-33
   5.910000     -2.9751259E-33
   5.920000     -2.8950953E-33
   5.930000     -2.7899108E-33
   5.940000     -2.6570852E-33
   5.950000     -2.4960917E-33
   5.960000     -2.3052701E-33
   5.970000     -2.0831731E-33
   5.980000     -1.8281369E-33
   5.990000     -1.5386911E-33
   6.000000     -1.2132570E-33
   6.010000     -8.5210098E-34
   6.020000     -4.5186145E-34
   6.030000     -9.0430607E-36
   6.040000      4.7668206E-34
   6.050000      1.0054874E-33
   6.060000      1.5788287E-33
   6.070000      2.1984217E-33
   6.080000      2.8642000E-33
   6.090000      3.5773735E-33
   6.100000      4.3383199E-33
   6.110000      5.1474523E-33
   6.120000      6.0049846E-33
   6.130000      6.9104822E-33
   6.140000      7.8629611E-33
   6.150000      8.8621437E-33
   6.160000      9.9073676E-33
   6.170000      1.0996106E-32
   6.180000      1.2126868E-32
   6.190000      1.3297793E-32
   6.200000      1.4505536E-32
   6.210000      1.5746254E-32
   6.220000      1.7016781E-32
   6.230000      1.8313729E-32
   6.240000      1.9631176E-32
   6.250000      2.0963217E-32
   6.260000      2.2304146E-32
   6.270000      2.3647388E-32
   6.280000      2.4985679E-32
   6.290000      2.6311058E-32
   6.300000      2.7615142E-32
   6.310000      2.8888112E-32
   6.320000      3.0121690E-32
   6.330000      3.1305962E-32
   6.340000      3.2428795E-32
   6.350000      3.3479340E-32
   6.360000      3.4445634E-32
   6.370000      3.5315292E-32
   6.380000      3.6074987E-32
   6.390000      3.6710815E-32
   6.400000      3.7208651E-32
   6.410000      3.7553641E-32
   6.420000      3.7730342E-32
   6.430000      3.7722824E-32
   6.440000      3.7514665E-32
   6.450000      3.7088945E-32
   6.460000      3.6428367E-32
   6.470000      3.5515087E-32
   6.480000      3.4331291E-32
   6.490000      3.2858979E-32
   6.500000      3.1079606E-32
   6.510000      2.8974722E-32
   6.520000      2.6525885E-32
   6.530000      2.3714733E-32
   6.540000      2.0523090E-32
   6.550000      1.6933083E-32
   6.560000      1.2927242E-32
   6.570000      8.4885849E-33
   6.580000      3.6007945E-33
   6.590000     -1.7516216E-33
   6.600000     -7.5832294E-33
   6.610000     -1.3907498E-32
   6.620000     -2.0737010E-32
   6.630000     -2.8082063E-32
   6.640000     -3.5951337E-32
   6.650000     -4.4352501E-32
   6.660000     -5.3290819E-32
   6.670000     -6.2769359E-32
   6.680000     -7.2788732E-32
   6.690000     -8.3346011E-32
   6.700000     -9.4437441E-32
   6.710000     -1.0605625E-31
   6.720000     -1.1819046E-31
   6.730000     -1.3082562E-31
   6.740000     -1.4394369E-31
   6.750000     -1.5752279E-31
   6.760000     -1.7153700E-31
   6.770000     -1.8595613E-31
   6.780000     -2.0074556E-31
   6.790000     -2.1586600E-31
   6.800000     -2.3127325E-31
   6.810000     -2.4691802E-31
   6.820000     -2.6274577E-31
   6.830000     -2.7869643E-31
   6.840000     -2.9470424E-31
   6.850000     -3.1069762E-31
   6.860000     -3.2659900E-31
   6.870000     -3.4232467E-31
   6.880000     -3.5778465E-31
   6.890000     -3.7288251E-31
   6.900000     -3.8751544E-31
   6.910000     -4.0157407E-31
   6.920000     -4.1494236E-31
   6.930000     -4.2749786E-31
   6.940000     -4.3911137E-31
   6.950000     -4.4964718E-31
   6.960000     -4.5896326E-31
   6.970000     -4.6691106E-31
   6.980000     -4.7333584E-31
   6.990000     -4.7807694E-31
   7.000000     -4.8096771E-31
   7.010000     -4.8183617E-31
   7.020000     -4.8050499E-31
   7.030000     -4.7679226E-31
   7.040000     -4.7051146E-31
   7.050000     -4.6147233E-31
   7.060000     -4.4948125E-31