  -2.600000      0.0000000E+00
  -2.590000      0.0000000E+00
  -2.580000      0.0000000E+00
  -2.570000      0.0000000E+00
  -2.560000      0.0000000E+00
  -2.550000      0.0000000E+00
  -2.540000      0.0000000E+00
  -2.530000      0.0000000E+00
  -2.520000      0.0000000E+00
  -2.510000      0.0000000E+00
  -2.500000      0.0000000E+00
  -2.490000      0.0000000E+00
  -2.480000      0.0000000E+00
  -2.470000      0.0000000E+00
  -2.460000      0.0000000E+00
  -2.450000      0.0000000E+00
  -2.440000      0.0000000E+00
  -2.430000      0.0000000E+00
  -2.420000      0.0000000E+00
  -2.410000      0.0000000E+00
  -2.400000      0.0000000E+00
  -2.390000      0.0000000E+00
  -2.380000      0.0000000E+00
  -2.370000      0.0000000E+00
  -2.360000      0.0000000E+00
  -2.350000      0.0000000E+00
  -2.340000      0.0000000E+00
  -2.330000      0.0000000E+00
  -2.320000      0.0000000E+00
  -2.310000      0.0000000E+00
  -2.300000      0.0000000E+00
  -2.290000      0.0000000E+00
  -2.280000      0.0000000E+00
  -2.270000      0.0000000E+00
  -2.260000      0.0000000E+00
  -2.250000      0.0000000E+00
  -2.240000      0.0000000E+00
  -2.230000      0.0000000E+00
  -2.220000      0.0000000E+00
  -2.210000      0.0000000E+00
  -2.200000      0.0000000E+00
  -2.190000      0.0000000E+00
  -2.180000      0.0000000E+00
  -2.170000      0.0000000E+00
  -2.160000      0.0000000E+00
  -2.150000      0.0000000E+00
  -2.140000      0.0000000E+00
  -2.130000      0.0000000E+00
  -2.120000      0.0000000E+00
  -2.110000      0.0000000E+00
  -2.100000      0.0000000E+00
  -2.090000      0.0000000E+00
  -2.080000      0.0000000E+00
  -2.070000      0.0000000E+00
  -2.060000      0.0000000E+00
  -2.050000      0.0000000E+00
  -2.040000      0.0000000E+00
  -2.030000      0.0000000E+00
  -2.020000      0.0000000E+00
  -2.010000      0.0000000E+00
  -2.000000      0.0000000E+00
  -1.990000      0.0000000E+00
  -1.980000      0.0000000E+00
  -1.970000      0.0000000E+00
  -1.960000      0.0000000E+00
  -1.950000      0.0000000E+00
  -1.940000      0.0000000E+00
  -1.930000      0.0000000E+00
  -1.920000      0.0000000E+00
  -1.910000      0.0000000E+00
  -1.900000      0.0000000E+00
  -1.890000      0.0000000E+00
  -1.880000      0.0000000E+00
  -1.870000      0.0000000E+00
  -1.860000      0.0000000E+00
  -1.850000      0.0000000E+00
  -1.840000      0.0000000E+00
  -1.830000      0.0000000E+00
  -1.820000      0.0000000E+00
  -1.810000      0.0000000E+00
  -1.800000      0.0000000E+00
  -1.790000      0.0000000E+00
  -1.780000      0.0000000E+00
  -1.770000      0.0000000E+00
  -1.760000      0.0000000E+00
  -1.750000      0.0000000E+00
  -1.740000      0.0000000E+00
  -1.730000      0.0000000E+00
  -1.720000      0.0000000E+00
  -1.710000      0.0000000E+00
  -1.700000      0.0000000E+00
  -1.690000      0.0000000E+00
  -1.680000      0.0000000E+00
  -1.670000      0.0000000E+00
  -1.660000      0.0000000E+00
  -1.650000      0.0000000E+00
  -1.640000      0.0000000E+00
  -1.630000      0.0000000E+00
  -1.620000      0.0000000E+00
  -1.610000      0.0000000E+00
  -1.600000      0.0000000E+00
  -1.590000      0.0000000E+00
  -1.580000      0.0000000E+00
  -1.570000      0.0000000E+00
  -1.560000      0.0000000E+00
  -1.550000      0.0000000E+00
  -1.540000      0.0000000E+00
  -1.530000      0.0000000E+00
  -1.520000      0.0000000E+00
  -1.510000      0.0000000E+00
  -1.500000      0.0000000E+00
  -1.490000      0.0000000E+00
  -1.480000      0.0000000E+00
  -1.470000      0.0000000E+00
  -1.460000      0.0000000E+00
  -1.450000      0.0000000E+00
  -1.440000      0.0000000E+00
  -1.430000      0.0000000E+00
  -1.420000      0.0000000E+00
  -1.410000      0.0000000E+00
  -1.400000      0.0000000E+00
  -1.390000      0.0000000E+00
  -1.380000      0.0000000E+00
  -1.370000      0.0000000E+00
  -1.360000      0.0000000E+00
  -1.350000      0.0000000E+00
  -1.340000      0.0000000E+00
  -1.330000      0.0000000E+00
  -1.320000      0.0000000E+00
  -1.310000      0.0000000E+00
  -1.300000      0.0000000E+00
  -1.290000      0.0000000E+00
  -1.280000      0.0000000E+00
  -1.270000      0.0000000E+00
  -1.260000      0.0000000E+00
  -1.250000      0.0000000E+00
  -1.240000      0.0000000E+00
  -1.230000      0.0000000E+00
  -1.220000      0.0000000E+00
  -1.210000      0.0000000E+00
  -1.200000      0.0000000E+00
  -1.190000      0.0000000E+00
  -1.180000      0.0000000E+00
  -1.170000      0.0000000E+00
  -1.160000      0.0000000E+00
  -1.150000      0.0000000E+00
  -1.140000      0.0000000E+00
  -1.130000      0.0000000E+00
  -1.120000      0.0000000E+00
  -1.110000      0.0000000E+00
  -1.100000      0.0000000E+00
  -1.090000      0.0000000E+00
  -1.080000      0.0000000E+00
  -1.070000      0.0000000E+00
  -1.060000      0.0000000E+00
  -1.050000      0.0000000E+00
  -1.040000      0.0000000E+00
  -1.030000      0.0000000E+00
  -1.020000      0.0000000E+00
  -1.010000      0.0000000E+00
  -1.000000      0.0000000E+00
 -0.9900000      0.0000000E+00
 -0.9800000      0.0000000E+00
 -0.9700000      0.0000000E+00
 -0.9600000      0.0000000E+00
 -0.9500000      0.0000000E+00
 -0.9400000      0.0000000E+00
 -0.9300000      0.0000000E+00
 -0.9200000      0.0000000E+00
 -0.9100000      0.0000000E+00
 -0.9000000      0.0000000E+00
 -0.8900000      0.0000000E+00
 -0.8800000      0.0000000E+00
 -0.8700000      0.0000000E+00
 -0.8600000      0.0000000E+00
 -0.8500000      0.0000000E+00
 -0.8400000      0.0000000E+00
 -0.8300000      0.0000000E+00
 -0.8200000      0.0000000E+00
 -0.8100000      0.0000000E+00
 -0.8000000      0.0000000E+00
 -0.7900000      0.0000000E+00
 -0.7800000      0.0000000E+00
 -0.7700000      0.0000000E+00
 -0.7600000      0.0000000E+00
 -0.7500000      0.0000000E+00
 -0.7400000      0.0000000E+00
 -0.7300000      0.0000000E+00
 -0.7200000      0.0000000E+00
 -0.7100000      0.0000000E+00
 -0.7000000      0.0000000E+00
 -0.6900000      0.0000000E+00
 -0.6800000      0.0000000E+00
 -0.6700000      0.0000000E+00
 -0.6600000      0.0000000E+00
 -0.6500000      0.0000000E+00
 -0.6400000      0.0000000E+00
 -0.6300000      0.0000000E+00
 -0.6200000      0.0000000E+00
 -0.6100000      0.0000000E+00
 -0.6000000      0.0000000E+00
 -0.5900000      0.0000000E+00
 -0.5800000      0.0000000E+00
 -0.5700000      0.0000000E+00
 -0.5600000      0.0000000E+00
 -0.5500000      0.0000000E+00
 -0.5400000      0.0000000E+00
 -0.5300000      0.0000000E+00
 -0.5200000      0.0000000E+00
 -0.5100000      0.0000000E+00
 -0.5000000      0.0000000E+00
 -0.4900000      0.0000000E+00
 -0.4800000      0.0000000E+00
 -0.4700000      0.0000000E+00
 -0.4600000      0.0000000E+00
 -0.4500000      0.0000000E+00
 -0.4400000      0.0000000E+00
 -0.4300000      0.0000000E+00
 -0.4200000      0.0000000E+00
 -0.4100000      0.0000000E+00
 -0.4000000      0.0000000E+00
 -0.3900000      0.0000000E+00
 -0.3800000      0.0000000E+00
 -0.3700000      0.0000000E+00
 -0.3600000      0.0000000E+00
 -0.3500000      0.0000000E+00
 -0.3400000      0.0000000E+00
 -0.3300000      0.0000000E+00
 -0.3200000      0.0000000E+00
 -0.3100000      0.0000000E+00
 -0.3000000      0.0000000E+00
 -0.2900000      0.0000000E+00
 -0.2800000      0.0000000E+00
 -0.2700000      0.0000000E+00
 -0.2600000      0.0000000E+00
 -0.2500000      0.0000000E+00
 -0.2400000      0.0000000E+00
 -0.2300000      0.0000000E+00
 -0.2200000      0.0000000E+00
 -0.2100000      0.0000000E+00
 -0.2000000      0.0000000E+00
 -0.1900000      0.0000000E+00
 -0.1800000      0.0000000E+00
 -0.1700000      0.0000000E+00
 -0.1600000      0.0000000E+00
 -0.1500000      0.0000000E+00
 -0.1400000      0.0000000E+00
 -0.1300000      0.0000000E+00
 -0.1200000      0.0000000E+00
 -0.1100000      0.0000000E+00
 -0.1000000      0.0000000E+00
 -9.0000004E-02  0.0000000E+00
 -7.9999998E-02  0.0000000E+00
 -7.0000000E-02  0.0000000E+00
 -5.9999999E-02  0.0000000E+00
 -5.0000001E-02  0.0000000E+00
 -3.9999999E-02  0.0000000E+00
 -2.9999999E-02  0.0000000E+00
 -2.0000000E-02  0.0000000E+00
 -9.9999998E-03  0.0000000E+00
 -3.4694470E-17  0.0000000E+00
  9.9999998E-03  0.0000000E+00
  2.0000000E-02  0.0000000E+00
  2.9999999E-02  0.0000000E+00
  3.9999999E-02  0.0000000E+00
  5.0000001E-02  0.0000000E+00
  5.9999999E-02  0.0000000E+00
  7.0000000E-02  0.0000000E+00
  7.9999998E-02  0.0000000E+00
  9.0000004E-02  0.0000000E+00
  0.1000000      0.0000000E+00
  0.1100000      0.0000000E+00
  0.1200000      0.0000000E+00
  0.1300000      0.0000000E+00
  0.1400000      0.0000000E+00
  0.1500000      0.0000000E+00
  0.1600000      0.0000000E+00
  0.1700000      0.0000000E+00
  0.1800000      0.0000000E+00
  0.1900000      0.0000000E+00
  0.2000000      0.0000000E+00
  0.2100000      0.0000000E+00
  0.2200000      0.0000000E+00
  0.2300000      0.0000000E+00
  0.2400000      0.0000000E+00
  0.2500000      0.0000000E+00
  0.2600000      0.0000000E+00
  0.2700000      0.0000000E+00
  0.2800000      0.0000000E+00
  0.2900000      0.0000000E+00
  0.3000000      0.0000000E+00
  0.3100000      0.0000000E+00
  0.3200000      0.0000000E+00
  0.3300000      0.0000000E+00
  0.3400000      0.0000000E+00
  0.3500000      0.0000000E+00
  0.3600000      0.0000000E+00
  0.3700000      0.0000000E+00
  0.3800000      0.0000000E+00
  0.3900000      0.0000000E+00
  0.4000000      0.0000000E+00
  0.4100000      0.0000000E+00
  0.4200000      0.0000000E+00
  0.4300000      0.0000000E+00
  0.4400000      0.0000000E+00
  0.4500000      0.0000000E+00
  0.4600000      0.0000000E+00
  0.4700000      0.0000000E+00
  0.4800000      0.0000000E+00
  0.4900000      0.0000000E+00
  0.5000000      0.0000000E+00
  0.5100000      0.0000000E+00
  0.5200000      0.0000000E+00
  0.5300000      0.0000000E+00
  0.5400000      0.0000000E+00
  0.5500000      0.0000000E+00
  0.5600000      0.0000000E+00
  0.5700000      0.0000000E+00
  0.5800000      0.0000000E+00
  0.5900000      0.0000000E+00
  0.6000000      0.0000000E+00
  0.6100000      0.0000000E+00
  0.6200000      0.0000000E+00
  0.6300000      0.0000000E+00
  0.6400000      0.0000000E+00
  0.6500000      0.0000000E+00
  0.6600000      0.0000000E+00
  0.6700000      0.0000000E+00
  0.6800000      0.0000000E+00
  0.6900000      0.0000000E+00
  0.7000000      0.0000000E+00
  0.7100000      0.0000000E+00
  0.7200000      0.0000000E+00
  0.7300000      0.0000000E+00
  0.7400000      0.0000000E+00
  0.7500000      0.0000000E+00
  0.7600000      0.0000000E+00
  0.7700000      0.0000000E+00
  0.7800000      0.0000000E+00
  0.7900000      0.0000000E+00
  0.8000000      0.0000000E+00
  0.8100000      0.0000000E+00
  0.8200000      0.0000000E+00
  0.8300000      0.0000000E+00
  0.8400000      0.0000000E+00
  0.8500000      0.0000000E+00
  0.8600000      0.0000000E+00
  0.8700000      0.0000000E+00
  0.8800000      0.0000000E+00
  0.8900000      0.0000000E+00
  0.9000000      0.0000000E+00
  0.9100000      0.0000000E+00
  0.9200000      0.0000000E+00
  0.9300000      0.0000000E+00
  0.9400000      0.0000000E+00
  0.9500000      0.0000000E+00
  0.9600000      0.0000000E+00
  0.9700000      0.0000000E+00
  0.9800000      0.0000000E+00
  0.9900000      0.0000000E+00
   1.000000      0.0000000E+00
   1.010000      0.0000000E+00
   1.020000      0.0000000E+00
   1.030000      0.0000000E+00
   1.040000      0.0000000E+00
   1.050000      0.0000000E+00
   1.060000      0.0000000E+00
   1.070000      0.0000000E+00
   1.080000      0.0000000E+00
   1.090000      0.0000000E+00
   1.100000      0.0000000E+00
   1.110000      0.0000000E+00
   1.120000      0.0000000E+00
   1.130000      0.0000000E+00
   1.140000      0.0000000E+00
   1.150000      0.0000000E+00
   1.160000      0.0000000E+00
   1.170000      0.0000000E+00
   1.180000      0.0000000E+00
   1.190000      0.0000000E+00
   1.200000      0.0000000E+00
   1.210000      0.0000000E+00
   1.220000      0.0000000E+00
   1.230000      0.0000000E+00
   1.240000      0.0000000E+00
   1.250000      0.0000000E+00
   1.260000      0.0000000E+00
   1.270000      0.0000000E+00
   1.280000      0.0000000E+00
   1.290000      0.0000000E+00
   1.300000      0.0000000E+00
   1.310000      0.0000000E+00
   1.320000      0.0000000E+00
   1.330000      0.0000000E+00
   1.340000      0.0000000E+00
   1.350000      0.0000000E+00
   1.360000      0.0000000E+00
   1.370000      0.0000000E+00
   1.380000      0.0000000E+00
   1.390000      0.0000000E+00
   1.400000      0.0000000E+00
   1.410000      0.0000000E+00
   1.420000      0.0000000E+00
   1.430000      0.0000000E+00
   1.440000      0.0000000E+00
   1.450000      0.0000000E+00
   1.460000      0.0000000E+00
   1.470000      0.0000000E+00
   1.480000      0.0000000E+00
   1.490000      0.0000000E+00
   1.500000      0.0000000E+00
   1.510000      0.0000000E+00
   1.520000      0.0000000E+00
   1.530000      0.0000000E+00
   1.540000      0.0000000E+00
   1.550000      0.0000000E+00
   1.560000      0.0000000E+00
   1.570000      0.0000000E+00
   1.580000      0.0000000E+00
   1.590000      0.0000000E+00
   1.600000      0.0000000E+00
   1.610000      0.0000000E+00
   1.620000      0.0000000E+00
   1.630000      0.0000000E+00
   1.640000      0.0000000E+00
   1.650000      0.0000000E+00
   1.660000      0.0000000E+00
   1.670000      0.0000000E+00
   1.680000      0.0000000E+00
   1.690000      0.0000000E+00
   1.700000      0.0000000E+00
   1.710000      0.0000000E+00
   1.720000      0.0000000E+00
   1.730000      0.0000000E+00
   1.740000      0.0000000E+00
   1.750000      0.0000000E+00
   1.760000      0.0000000E+00
   1.770000      0.0000000E+00
   1.780000      0.0000000E+00
   1.790000      0.0000000E+00
   1.800000      0.0000000E+00
   1.810000      0.0000000E+00
   1.820000      0.0000000E+00
   1.830000      0.0000000E+00
   1.840000      0.0000000E+00
   1.850000      0.0000000E+00
   1.860000      0.0000000E+00
   1.870000      0.0000000E+00
   1.880000      0.0000000E+00
   1.890000      0.0000000E+00
   1.900000      0.0000000E+00
   1.910000      0.0000000E+00
   1.920000      0.0000000E+00
   1.930000      0.0000000E+00
   1.940000      0.0000000E+00
   1.950000      0.0000000E+00
   1.960000      0.0000000E+00
   1.970000      0.0000000E+00
   1.980000      0.0000000E+00
   1.990000      0.0000000E+00
   2.000000      0.0000000E+00
   2.010000      0.0000000E+00
   2.020000      0.0000000E+00
   2.030000      0.0000000E+00
   2.040000      0.0000000E+00
   2.050000      0.0000000E+00
   2.060000      0.0000000E+00
   2.070000      0.0000000E+00
   2.080000      0.0000000E+00
   2.090000      0.0000000E+00
   2.100000      0.0000000E+00
   2.110000      0.0000000E+00
   2.120000      0.0000000E+00
   2.130000      0.0000000E+00
   2.140000      0.0000000E+00
   2.150000      0.0000000E+00
   2.160000      0.0000000E+00
   2.170000      0.0000000E+00
   2.180000      0.0000000E+00
   2.190000      0.0000000E+00
   2.200000      0.0000000E+00
   2.210000      0.0000000E+00
   2.220000      0.0000000E+00
   2.230000      0.0000000E+00
   2.240000      0.0000000E+00
   2.250000      0.0000000E+00
   2.260000      0.0000000E+00
   2.270000      0.0000000E+00
   2.280000      0.0000000E+00
   2.290000      0.0000000E+00
   2.300000      0.0000000E+00
   2.310000      0.0000000E+00
   2.320000      0.0000000E+00
   2.330000      0.0000000E+00
   2.340000      0.0000000E+00
   2.350000      0.0000000E+00
   2.360000      0.0000000E+00
   2.370000      0.0000000E+00
   2.380000      0.0000000E+00
   2.390000      0.0000000E+00
   2.400000      0.0000000E+00
   2.410000      0.0000000E+00
   2.420000      0.0000000E+00
   2.430000      0.0000000E+00
   2.440000      0.0000000E+00
   2.450000      0.0000000E+00
   2.460000      0.0000000E+00
   2.470000      0.0000000E+00
   2.480000      0.0000000E+00
   2.490000      0.0000000E+00
   2.500000      0.0000000E+00
   2.510000      0.0000000E+00
   2.520000      0.0000000E+00
   2.530000      0.0000000E+00
   2.540000      0.0000000E+00
   2.550000      0.0000000E+00
   2.560000      0.0000000E+00
   2.570000      0.0000000E+00
   2.580000      0.0000000E+00
   2.590000      0.0000000E+00
   2.600000      0.0000000E+00
   2.610000      0.0000000E+00
   2.620000      0.0000000E+00
   2.630000      0.0000000E+00
   2.640000      0.0000000E+00
   2.650000      0.0000000E+00
   2.660000      0.0000000E+00
   2.670000      0.0000000E+00
   2.680000      0.0000000E+00
   2.690000      0.0000000E+00
   2.700000      0.0000000E+00
   2.710000      0.0000000E+00
   2.720000      0.0000000E+00
   2.730000      0.0000000E+00
   2.740000      0.0000000E+00
   2.750000      0.0000000E+00
   2.760000      0.0000000E+00
   2.770000      0.0000000E+00
   2.780000      0.0000000E+00
   2.790000      0.0000000E+00
   2.800000      0.0000000E+00
   2.810000      0.0000000E+00
   2.820000      0.0000000E+00
   2.830000      0.0000000E+00
   2.840000      0.0000000E+00
   2.850000      0.0000000E+00
   2.860000      0.0000000E+00
   2.870000      0.0000000E+00
   2.880000      0.0000000E+00
   2.890000      0.0000000E+00
   2.900000      0.0000000E+00
   2.910000      0.0000000E+00
   2.920000      0.0000000E+00
   2.930000      0.0000000E+00
   2.940000      0.0000000E+00
   2.950000      0.0000000E+00
   2.960000      0.0000000E+00
   2.970000      0.0000000E+00
   2.980000      0.0000000E+00
   2.990000      0.0000000E+00
   3.000000      0.0000000E+00
   3.010000      0.0000000E+00
   3.020000      0.0000000E+00
   3.030000      0.0000000E+00
   3.040000      0.0000000E+00
   3.050000      0.0000000E+00
   3.060000      0.0000000E+00
   3.070000      0.0000000E+00
   3.080000      0.0000000E+00
   3.090000      0.0000000E+00
   3.100000      0.0000000E+00
   3.110000      0.0000000E+00
   3.120000      0.0000000E+00
   3.130000      0.0000000E+00
   3.140000      0.0000000E+00
   3.150000      0.0000000E+00
   3.160000      0.0000000E+00
   3.170000      0.0000000E+00
   3.180000      0.0000000E+00
   3.190000      0.0000000E+00
   3.200000      0.0000000E+00
   3.210000      0.0000000E+00
   3.220000      0.0000000E+00
   3.230000      0.0000000E+00
   3.240000      0.0000000E+00
   3.250000      0.0000000E+00
   3.260000      0.0000000E+00
   3.270000      0.0000000E+00
   3.280000      0.0000000E+00
   3.290000      0.0000000E+00
   3.300000      0.0000000E+00
   3.310000      0.0000000E+00
   3.320000      0.0000000E+00
   3.330000      1.1922424E-38
   3.340000      1.4280060E-38
   3.350000      1.6431333E-38
   3.360000      1.8322415E-38
   3.370000      0.0000000E+00
   3.380000      0.0000000E+00
   3.390000     -2.8056703E-38
   3.400000     -4.6874782E-38
   3.410000     -5.5641369E-38
   3.420000     -5.4778657E-38
   3.430000     -5.2907856E-38
   3.440000     -5.0071696E-38
   3.450000     -4.6277809E-38
   3.460000     -4.1964172E-38
   3.470000     -3.6956257E-38
   3.480000     -3.1233222E-38
   3.490000     -2.5056405E-38
   3.500000     -2.1693587E-38
   3.510000     -2.1959588E-38
   3.520000     -1.3901888E-38
   3.530000      0.0000000E+00
   3.540000      1.8182866E-38
   3.550000      2.9852865E-38
   3.560000      2.9664878E-38
   3.570000      1.8422324E-38
   3.580000      0.0000000E+00
   3.590000      0.0000000E+00
   3.600000      0.0000000E+00
   3.610000      0.0000000E+00
   3.620000      1.2579001E-38
   3.630000      1.8601804E-38
   3.640000      3.5113280E-38
   3.650000      6.3438104E-38
   3.660000      9.4460577E-38
   3.670000      1.2649349E-37
   3.680000      1.5648014E-37
   3.690000      1.8322907E-37
   3.700000      2.0546291E-37
   3.710000      2.1496304E-37
   3.720000      2.1607977E-37
   3.730000      2.1826282E-37
   3.740000      2.2073233E-37
   3.750000      2.1488818E-37
   3.760000      2.0404271E-37
   3.770000      2.0919684E-37
   3.780000      2.4114082E-37
   3.790000      2.9291808E-37
   3.800000      3.5303410E-37
   3.810000      4.1744381E-37
   3.820000      4.8268952E-37
   3.830000      5.2400603E-37
   3.840000      5.1493297E-37
   3.850000      4.7663770E-37
   3.860000      4.3601440E-37
   3.870000      3.9981718E-37
   3.880000      3.6901422E-37
   3.890000      3.4226688E-37
   3.900000      3.1570122E-37
   3.910000      2.9174586E-37
   3.920000      2.8155893E-37
   3.930000      2.7819286E-37
   3.940000      2.3740178E-37
   3.950000      1.5640244E-37
   3.960000      6.6850855E-38
   3.970000     -2.6910062E-38
   3.980000     -1.1496157E-37
   3.990000     -1.9678210E-37
   4.000000     -2.7789623E-37
   4.010000     -3.5112607E-37
   4.020000     -4.1876735E-37
   4.030000     -4.9183841E-37
   4.040000     -5.3085343E-37
   4.050000     -5.3616437E-37
   4.060000     -6.0224436E-37
   4.070000     -7.2298037E-37
   4.080000     -8.5028925E-37
   4.090000     -9.9374554E-37
   4.100000     -1.2128796E-36
   4.110000     -1.5696853E-36
   4.120000     -2.0348411E-36
   4.130000     -2.5624019E-36
   4.140000     -3.1394897E-36
   4.150000     -3.7602309E-36
   4.160000     -4.4244283E-36
   4.170000     -4.7771286E-36
   4.180000     -4.6324647E-36
   4.190000     -4.2276650E-36
   4.200000     -3.6605596E-36
   4.210000     -2.9681261E-36
   4.220000     -2.2317952E-36
   4.230000     -1.5911458E-36
   4.240000     -1.0622942E-36
   4.250000     -6.6262171E-37
   4.260000     -7.7827166E-37
   4.270000     -1.3789733E-36
   4.280000     -1.7890941E-36
   4.290000     -1.8950100E-36
   4.300000     -1.6719379E-36
   4.310000     -1.0915987E-36
   4.320000     -6.6730819E-37
   4.330000     -3.4590396E-37
   4.340000      1.2544515E-37
   4.350000      6.1215353E-37
   4.360000      8.0901440E-37
   4.370000      7.6051459E-37
   4.380000      8.1952095E-37
   4.390000      1.3251917E-36
   4.400000      2.5400369E-36
   4.410000      4.0544313E-36
   4.420000      5.1643967E-36
   4.430000      5.6576585E-36
   4.440000      5.9170525E-36
   4.450000      6.3615266E-36
   4.460000      6.9414154E-36
   4.470000      7.3906746E-36
   4.480000      7.9315879E-36
   4.490000      8.7367671E-36
   4.500000      9.5466700E-36
   4.510000      1.0329739E-35
   4.520000      1.1253713E-35
   4.530000      1.2741506E-35
   4.540000      1.4769204E-35
   4.550000      1.6873148E-35
   4.560000      1.9115467E-35
   4.570000      2.0944980E-35
   4.580000      2.1957949E-35
   4.590000      2.2177822E-35
   4.600000      2.1513182E-35
   4.610000      2.0091171E-35
   4.620000      1.8173715E-35
   4.630000      1.6539500E-35
   4.640000      1.5252143E-35
   4.650000      1.4156199E-35
   4.660000      1.3125433E-35
   4.670000      1.2508108E-35
   4.680000      1.2618408E-35
   4.690000      1.2731060E-35
   4.700000      1.2691440E-35
   4.710000      1.2717115E-35
   4.720000      1.2991920E-35
   4.730000      1.2789792E-35
   4.740000      1.1070353E-35
   4.750000      7.6349398E-36
   4.760000      2.8397044E-36
   4.770000     -2.7551293E-36
   4.780000     -8.4786942E-36
   4.790000     -1.3218032E-35
   4.800000     -1.7226108E-35
   4.810000     -2.2049972E-35
   4.820000     -2.7779067E-35
   4.830000     -3.2820818E-35
   4.840000     -3.7117833E-35
   4.850000     -4.1179763E-35
   4.860000     -4.4716365E-35
   4.870000     -4.7796059E-35
   4.880000     -5.0365198E-35
   4.890000     -5.2902744E-35
   4.900000     -5.5445675E-35
   4.910000     -5.8037497E-35
   4.920000     -6.0744331E-35
   4.930000     -6.2810899E-35
   4.940000     -6.4635946E-35
   4.950000     -6.7231596E-35
   4.960000     -6.9302503E-35
   4.970000     -7.0833792E-35
   4.980000     -7.6948279E-35
   4.990000     -8.7967144E-35
   5.000000     -1.0143503E-34
   5.010000     -1.1690817E-34
   5.020000     -1.3139475E-34
   5.030000     -1.4572186E-34
   5.040000     -1.6054755E-34
   5.050000     -1.7353712E-34
   5.060000     -1.7888300E-34
   5.070000     -1.7562416E-34
   5.080000     -1.6698387E-34
   5.090000     -1.4773866E-34
   5.100000     -1.2400158E-34
   5.110000     -1.0796360E-34
   5.120000     -9.5083276E-35
   5.130000     -8.3780071E-35
   5.140000     -7.7327273E-35
   5.150000     -7.0812744E-35
   5.160000     -6.5304881E-35
   5.170000     -6.3297926E-35
   5.180000     -6.1414030E-35
   5.190000     -5.5004526E-35
   5.200000     -4.1475384E-35
   5.210000     -2.4114061E-35
   5.220000     -9.7137288E-36
   5.230000      3.5264874E-36
   5.240000      2.0251001E-35
   5.250000      3.5989923E-35
   5.260000      5.1080958E-35
   5.270000      6.7583377E-35
   5.280000      9.3550639E-35
   5.290000      1.2832540E-34
   5.300000      1.5893491E-34
   5.310000      1.8484403E-34
   5.320000      2.0681937E-34
   5.330000      2.2561392E-34
   5.340000      2.4485641E-34
   5.350000      2.6639813E-34
   5.360000      2.9335499E-34
   5.370000      3.3012480E-34
   5.380000      3.8371958E-34
   5.390000      4.4458055E-34
   5.400000      5.0312485E-34
   5.410000      5.6799455E-34
   5.420000      6.4345844E-34
   5.430000      7.2982661E-34
   5.440000      8.1485810E-34
   5.450000      8.8597294E-34
   5.460000      9.3543398E-34
   5.470000      9.6536335E-34
   5.480000      9.8140839E-34
   5.490000      9.8362759E-34
   5.500000      9.7439463E-34
   5.510000      9.6023535E-34
   5.520000      9.4962026E-34
   5.530000      9.4500507E-34
   5.540000      9.4473553E-34
   5.550000      9.4916458E-34
   5.560000      9.6664372E-34
   5.570000      9.9367669E-34
   5.580000      1.0224087E-33
   5.590000      1.0528434E-33
   5.600000      1.0750777E-33
   5.610000      1.0811786E-33
   5.620000      1.0705682E-33
   5.630000      1.0393308E-33
   5.640000      9.8804580E-34
   5.650000      9.2029251E-34
   5.660000      8.3980439E-34
   5.670000      7.5098560E-34
   5.680000      6.5751653E-34
   5.690000      5.6095288E-34
   5.700000      4.6394315E-34
   5.710000      3.6866189E-34
   5.720000      2.7304378E-34
   5.730000      1.7173812E-34
   5.740000      7.1668817E-35
   5.750000     -2.5278995E-35
   5.760000     -1.2771849E-34
   5.770000     -2.3994443E-34
   5.780000     -3.6968558E-34
   5.790000     -5.2271897E-34
   5.800000     -7.0678347E-34
   5.810000     -9.2074425E-34
   5.820000     -1.1659721E-33
   5.830000     -1.4454963E-33
   5.840000     -1.7400898E-33
   5.850000     -2.0392166E-33
   5.860000     -2.3497706E-33
   5.870000     -2.6623581E-33
   5.880000     -2.9685936E-33
   5.890000     -3.2709982E-33
   5.900000     -3.5664150E-33
   5.910000     -3.8554073E-33
   5.920000     -4.1428138E-33
   5.930000     -4.4270043E-33
   5.940000     -4.7134194E-33
   5.950000     -5.0125294E-33
   5.960000     -5.3264849E-33
   5.970000     -5.6516446E-33
   5.980000     -5.9868544E-33
   5.990000     -6.3336319E-33
   6.000000     -6.6886745E-33
   6.010000     -7.0463517E-33
   6.020000     -7.4006325E-33
   6.030000     -7.7460060E-33
   6.040000     -8.0760348E-33
   6.050000     -8.3848504E-33
   6.060000     -8.6667237E-33
   6.070000     -8.9190935E-33
   6.080000     -9.1426571E-33
   6.090000     -9.3359774E-33
   6.100000     -9.4985527E-33
   6.110000     -9.6329573E-33
   6.120000     -9.7423458E-33
   6.130000     -9.8286330E-33
   6.140000     -9.8909386E-33
   6.150000     -9.9263291E-33
   6.160000     -9.9324086E-33
   6.170000     -9.9052840E-33
   6.180000     -9.8354428E-33
   6.190000     -9.7135815E-33
   6.200000     -9.5320925E-33
   6.210000     -9.2814955E-33
   6.220000     -8.9524004E-33
   6.230000     -8.5378969E-33
   6.240000     -8.0320927E-33
   6.250000     -7.4293403E-33
   6.260000     -6.7294590E-33
   6.270000     -5.9352488E-33
   6.280000     -5.0466919E-33
   6.290000     -4.0655126E-33
   6.300000     -2.9949049E-33
   6.310000     -1.8365995E-33
   6.320000     -5.9141669E-34
   6.330000      7.4127326E-34
   6.340000      2.1639345E-33
   6.350000      3.6807215E-33
   6.360000      5.2980699E-33
   6.370000      7.0222475E-33
   6.380000      8.8591205E-33
   6.390000      1.0812274E-32
   6.400000      1.2885819E-32
   6.410000      1.5085544E-32
   6.420000      1.7411067E-32
   6.430000      1.9856362E-32
   6.440000      2.2418320E-32
   6.450000      2.5091788E-32
   6.460000      2.7866137E-32
   6.470000      3.0732383E-32
   6.480000      3.3680255E-32
   6.490000      3.6700071E-32
   6.500000      3.9784527E-32
   6.510000      4.2927258E-32
   6.520000      4.6122228E-32
   6.530000      4.9364462E-32
   6.540000      5.2649992E-32
   6.550000      5.5974073E-32
   6.560000      5.9330897E-32
   6.570000      6.2712377E-32
   6.580000      6.6107586E-32
   6.590000      6.9502790E-32
   6.600000      7.2880291E-32
   6.610000      7.6219095E-32
   6.620000      7.9495921E-32
   6.630000      8.2684725E-32
   6.640000      8.5757832E-32
   6.650000      8.8687134E-32
   6.660000      9.1444262E-32
   6.670000      9.4001397E-32
   6.680000      9.6332567E-32
   6.690000      9.8412646E-32
   6.700000      1.0021676E-31
   6.710000      1.0172103E-31
   6.720000      1.0290194E-31
   6.730000      1.0373507E-31
   6.740000      1.0419346E-31
   6.750000      1.0424993E-31
   6.760000      1.0387578E-31
   6.770000      1.0303745E-31
   6.780000      1.0169858E-31
   6.790000      9.9820853E-32
   6.800000      9.7364410E-32
   6.810000      9.4288477E-32
   6.820000      9.0552344E-32
   6.830000      8.6116375E-32
   6.840000      8.0942507E-32
   6.850000      7.4995229E-32
   6.860000      6.8242031E-32
   6.870000      6.0653075E-32
   6.880000      5.2201147E-32
   6.890000      4.2861498E-32
   6.900000      3.2611193E-32
   6.910000      2.1428327E-32
   6.920000      9.2918861E-33
   6.930000     -3.8192921E-33
   6.940000     -1.7926264E-32
   6.950000     -3.3049382E-32
   6.960000     -4.9208459E-32
   6.970000     -6.6421826E-32
   6.980000     -8.4705347E-32
   6.990000     -1.0407126E-31
   7.000000     -1.2452709E-31
   7.010000     -1.4607451E-31
   7.020000     -1.6870856E-31
   7.030000     -1.9241687E-31
   7.040000     -2.1717933E-31
   7.050000     -2.4296812E-31
   7.060000     -2.6974791E-31