  -2.600000      0.0000000E+00
  -2.590000      0.0000000E+00
  -2.580000      0.0000000E+00
  -2.570000      0.0000000E+00
  -2.560000      0.0000000E+00
  -2.550000      0.0000000E+00
  -2.540000      0.0000000E+00
  -2.530000      0.0000000E+00
  -2.520000      0.0000000E+00
  -2.510000      0.0000000E+00
  -2.500000      0.0000000E+00
  -2.490000      0.0000000E+00
  -2.480000      0.0000000E+00
  -2.470000      0.0000000E+00
  -2.460000      0.0000000E+00
  -2.450000      0.0000000E+00
  -2.440000      0.0000000E+00
  -2.430000      0.0000000E+00
  -2.420000      0.0000000E+00
  -2.410000      0.0000000E+00
  -2.400000      0.0000000E+00
  -2.390000      0.0000000E+00
  -2.380000      0.0000000E+00
  -2.370000      0.0000000E+00
  -2.360000      0.0000000E+00
  -2.350000      0.0000000E+00
  -2.340000      0.0000000E+00
  -2.330000      0.0000000E+00
  -2.320000      0.0000000E+00
  -2.310000      0.0000000E+00
  -2.300000      0.0000000E+00
  -2.290000      0.0000000E+00
  -2.280000      0.0000000E+00
  -2.270000      0.0000000E+00
  -2.260000      0.0000000E+00
  -2.250000      0.0000000E+00
  -2.240000      0.0000000E+00
  -2.230000      0.0000000E+00
  -2.220000      0.0000000E+00
  -2.210000      0.0000000E+00
  -2.200000      0.0000000E+00
  -2.190000      0.0000000E+00
  -2.180000      0.0000000E+00
  -2.170000      0.0000000E+00
  -2.160000      0.0000000E+00
  -2.150000      0.0000000E+00
  -2.140000      0.0000000E+00
  -2.130000      0.0000000E+00
  -2.120000      0.0000000E+00
  -2.110000      0.0000000E+00
  -2.100000      0.0000000E+00
  -2.090000      0.0000000E+00
  -2.080000      0.0000000E+00
  -2.070000      0.0000000E+00
  -2.060000      0.0000000E+00
  -2.050000      0.0000000E+00
  -2.040000      0.0000000E+00
  -2.030000      0.0000000E+00
  -2.020000      0.0000000E+00
  -2.010000      0.0000000E+00
  -2.000000      0.0000000E+00
  -1.990000      0.0000000E+00
  -1.980000      0.0000000E+00
  -1.970000      0.0000000E+00
  -1.960000      0.0000000E+00
  -1.950000      0.0000000E+00
  -1.940000      0.0000000E+00
  -1.930000      0.0000000E+00
  -1.920000      0.0000000E+00
  -1.910000      0.0000000E+00
  -1.900000      0.0000000E+00
  -1.890000      0.0000000E+00
  -1.880000      0.0000000E+00
  -1.870000      0.0000000E+00
  -1.860000      0.0000000E+00
  -1.850000      0.0000000E+00
  -1.840000      0.0000000E+00
  -1.830000      0.0000000E+00
  -1.820000      0.0000000E+00
  -1.810000      0.0000000E+00
  -1.800000      0.0000000E+00
  -1.790000      0.0000000E+00
  -1.780000      0.0000000E+00
  -1.770000      0.0000000E+00
  -1.760000      0.0000000E+00
  -1.750000      0.0000000E+00
  -1.740000      0.0000000E+00
  -1.730000      0.0000000E+00
  -1.720000      0.0000000E+00
  -1.710000      0.0000000E+00
  -1.700000      0.0000000E+00
  -1.690000      0.0000000E+00
  -1.680000      0.0000000E+00
  -1.670000      0.0000000E+00
  -1.660000      0.0000000E+00
  -1.650000      0.0000000E+00
  -1.640000      0.0000000E+00
  -1.630000      0.0000000E+00
  -1.620000      0.0000000E+00
  -1.610000      0.0000000E+00
  -1.600000      0.0000000E+00
  -1.590000      0.0000000E+00
  -1.580000      0.0000000E+00
  -1.570000      0.0000000E+00
  -1.560000      0.0000000E+00
  -1.550000      0.0000000E+00
  -1.540000      0.0000000E+00
  -1.530000      0.0000000E+00
  -1.520000      0.0000000E+00
  -1.510000      0.0000000E+00
  -1.500000      0.0000000E+00
  -1.490000      0.0000000E+00
  -1.480000      0.0000000E+00
  -1.470000      0.0000000E+00
  -1.460000      0.0000000E+00
  -1.450000      0.0000000E+00
  -1.440000      0.0000000E+00
  -1.430000      0.0000000E+00
  -1.420000      0.0000000E+00
  -1.410000      0.0000000E+00
  -1.400000      0.0000000E+00
  -1.390000      0.0000000E+00
  -1.380000      0.0000000E+00
  -1.370000      0.0000000E+00
  -1.360000      0.0000000E+00
  -1.350000      0.0000000E+00
  -1.340000      0.0000000E+00
  -1.330000      0.0000000E+00
  -1.320000      0.0000000E+00
  -1.310000      0.0000000E+00
  -1.300000      0.0000000E+00
  -1.290000      0.0000000E+00
  -1.280000      0.0000000E+00
  -1.270000      0.0000000E+00
  -1.260000      0.0000000E+00
  -1.250000      0.0000000E+00
  -1.240000      0.0000000E+00
  -1.230000      0.0000000E+00
  -1.220000      0.0000000E+00
  -1.210000      0.0000000E+00
  -1.200000      0.0000000E+00
  -1.190000      0.0000000E+00
  -1.180000      0.0000000E+00
  -1.170000      0.0000000E+00
  -1.160000      0.0000000E+00
  -1.150000      0.0000000E+00
  -1.140000      0.0000000E+00
  -1.130000      0.0000000E+00
  -1.120000      0.0000000E+00
  -1.110000      0.0000000E+00
  -1.100000      0.0000000E+00
  -1.090000      0.0000000E+00
  -1.080000      0.0000000E+00
  -1.070000      0.0000000E+00
  -1.060000      0.0000000E+00
  -1.050000      0.0000000E+00
  -1.040000      0.0000000E+00
  -1.030000      0.0000000E+00
  -1.020000      0.0000000E+00
  -1.010000      0.0000000E+00
  -1.000000      0.0000000E+00
 -0.9900000      0.0000000E+00
 -0.9800000      0.0000000E+00
 -0.9700000      0.0000000E+00
 -0.9600000      0.0000000E+00
 -0.9500000      0.0000000E+00
 -0.9400000      0.0000000E+00
 -0.9300000      0.0000000E+00
 -0.9200000      0.0000000E+00
 -0.9100000      0.0000000E+00
 -0.9000000      0.0000000E+00
 -0.8900000      0.0000000E+00
 -0.8800000      0.0000000E+00
 -0.8700000      0.0000000E+00
 -0.8600000      0.0000000E+00
 -0.8500000      0.0000000E+00
 -0.8400000      0.0000000E+00
 -0.8300000      0.0000000E+00
 -0.8200000      0.0000000E+00
 -0.8100000      0.0000000E+00
 -0.8000000      0.0000000E+00
 -0.7900000      0.0000000E+00
 -0.7800000      0.0000000E+00
 -0.7700000      0.0000000E+00
 -0.7600000      0.0000000E+00
 -0.7500000      0.0000000E+00
 -0.7400000      0.0000000E+00
 -0.7300000      0.0000000E+00
 -0.7200000      0.0000000E+00
 -0.7100000      0.0000000E+00
 -0.7000000      0.0000000E+00
 -0.6900000      0.0000000E+00
 -0.6800000      0.0000000E+00
 -0.6700000      0.0000000E+00
 -0.6600000      0.0000000E+00
 -0.6500000      0.0000000E+00
 -0.6400000      0.0000000E+00
 -0.6300000      0.0000000E+00
 -0.6200000      0.0000000E+00
 -0.6100000      0.0000000E+00
 -0.6000000      0.0000000E+00
 -0.5900000      0.0000000E+00
 -0.5800000      0.0000000E+00
 -0.5700000      0.0000000E+00
 -0.5600000      0.0000000E+00
 -0.5500000      0.0000000E+00
 -0.5400000      0.0000000E+00
 -0.5300000      0.0000000E+00
 -0.5200000      0.0000000E+00
 -0.5100000      0.0000000E+00
 -0.5000000      0.0000000E+00
 -0.4900000      0.0000000E+00
 -0.4800000      0.0000000E+00
 -0.4700000      0.0000000E+00
 -0.4600000      0.0000000E+00
 -0.4500000      0.0000000E+00
 -0.4400000      0.0000000E+00
 -0.4300000      0.0000000E+00
 -0.4200000      0.0000000E+00
 -0.4100000      0.0000000E+00
 -0.4000000      0.0000000E+00
 -0.3900000      0.0000000E+00
 -0.3800000      0.0000000E+00
 -0.3700000      0.0000000E+00
 -0.3600000      0.0000000E+00
 -0.3500000      0.0000000E+00
 -0.3400000      0.0000000E+00
 -0.3300000      0.0000000E+00
 -0.3200000      0.0000000E+00
 -0.3100000      0.0000000E+00
 -0.3000000      0.0000000E+00
 -0.2900000      0.0000000E+00
 -0.2800000      0.0000000E+00
 -0.2700000      0.0000000E+00
 -0.2600000      0.0000000E+00
 -0.2500000      0.0000000E+00
 -0.2400000      0.0000000E+00
 -0.2300000      0.0000000E+00
 -0.2200000      0.0000000E+00
 -0.2100000      0.0000000E+00
 -0.2000000      0.0000000E+00
 -0.1900000      0.0000000E+00
 -0.1800000      0.0000000E+00
 -0.1700000      0.0000000E+00
 -0.1600000      0.0000000E+00
 -0.1500000      0.0000000E+00
 -0.1400000      0.0000000E+00
 -0.1300000      0.0000000E+00
 -0.1200000      0.0000000E+00
 -0.1100000      0.0000000E+00
 -0.1000000      0.0000000E+00
 -9.0000004E-02  0.0000000E+00
 -7.9999998E-02  0.0000000E+00
 -7.0000000E-02  0.0000000E+00
 -5.9999999E-02  0.0000000E+00
 -5.0000001E-02  0.0000000E+00
 -3.9999999E-02  0.0000000E+00
 -2.9999999E-02  0.0000000E+00
 -2.0000000E-02  0.0000000E+00
 -9.9999998E-03  0.0000000E+00
 -3.4694470E-17  0.0000000E+00
  9.9999998E-03  0.0000000E+00
  2.0000000E-02  0.0000000E+00
  2.9999999E-02  0.0000000E+00
  3.9999999E-02  0.0000000E+00
  5.0000001E-02  0.0000000E+00
  5.9999999E-02  0.0000000E+00
  7.0000000E-02  0.0000000E+00
  7.9999998E-02  0.0000000E+00
  9.0000004E-02  0.0000000E+00
  0.1000000      0.0000000E+00
  0.1100000      0.0000000E+00
  0.1200000      0.0000000E+00
  0.1300000      0.0000000E+00
  0.1400000      0.0000000E+00
  0.1500000      0.0000000E+00
  0.1600000      0.0000000E+00
  0.1700000      0.0000000E+00
  0.1800000      0.0000000E+00
  0.1900000      0.0000000E+00
  0.2000000      0.0000000E+00
  0.2100000      0.0000000E+00
  0.2200000      0.0000000E+00
  0.2300000      0.0000000E+00
  0.2400000      0.0000000E+00
  0.2500000      0.0000000E+00
  0.2600000      0.0000000E+00
  0.2700000      0.0000000E+00
  0.2800000      0.0000000E+00
  0.2900000      0.0000000E+00
  0.3000000      0.0000000E+00
  0.3100000      0.0000000E+00
  0.3200000      0.0000000E+00
  0.3300000      0.0000000E+00
  0.3400000      0.0000000E+00
  0.3500000      0.0000000E+00
  0.3600000      0.0000000E+00
  0.3700000      0.0000000E+00
  0.3800000      0.0000000E+00
  0.3900000      0.0000000E+00
  0.4000000      0.0000000E+00
  0.4100000      0.0000000E+00
  0.4200000      0.0000000E+00
  0.4300000      0.0000000E+00
  0.4400000      0.0000000E+00
  0.4500000      0.0000000E+00
  0.4600000      0.0000000E+00
  0.4700000      0.0000000E+00
  0.4800000      0.0000000E+00
  0.4900000      0.0000000E+00
  0.5000000      0.0000000E+00
  0.5100000      0.0000000E+00
  0.5200000      0.0000000E+00
  0.5300000      0.0000000E+00
  0.5400000      0.0000000E+00
  0.5500000      0.0000000E+00
  0.5600000      0.0000000E+00
  0.5700000      0.0000000E+00
  0.5800000      0.0000000E+00
  0.5900000      0.0000000E+00
  0.6000000      0.0000000E+00
  0.6100000      0.0000000E+00
  0.6200000      0.0000000E+00
  0.6300000      0.0000000E+00
  0.6400000      0.0000000E+00
  0.6500000      0.0000000E+00
  0.6600000      0.0000000E+00
  0.6700000      0.0000000E+00
  0.6800000      0.0000000E+00
  0.6900000      0.0000000E+00
  0.7000000      0.0000000E+00
  0.7100000      0.0000000E+00
  0.7200000      0.0000000E+00
  0.7300000      0.0000000E+00
  0.7400000      0.0000000E+00
  0.7500000      0.0000000E+00
  0.7600000      0.0000000E+00
  0.7700000      0.0000000E+00
  0.7800000      0.0000000E+00
  0.7900000      0.0000000E+00
  0.8000000      0.0000000E+00
  0.8100000      0.0000000E+00
  0.8200000      0.0000000E+00
  0.8300000      0.0000000E+00
  0.8400000      0.0000000E+00
  0.8500000      0.0000000E+00
  0.8600000      0.0000000E+00
  0.8700000      0.0000000E+00
  0.8800000      0.0000000E+00
  0.8900000      0.0000000E+00
  0.9000000      0.0000000E+00
  0.9100000      0.0000000E+00
  0.9200000      0.0000000E+00
  0.9300000      0.0000000E+00
  0.9400000      0.0000000E+00
  0.9500000      0.0000000E+00
  0.9600000      0.0000000E+00
  0.9700000      0.0000000E+00
  0.9800000      0.0000000E+00
  0.9900000      0.0000000E+00
   1.000000      0.0000000E+00
   1.010000      0.0000000E+00
   1.020000      0.0000000E+00
   1.030000      0.0000000E+00
   1.040000      0.0000000E+00
   1.050000      0.0000000E+00
   1.060000      0.0000000E+00
   1.070000      0.0000000E+00
   1.080000      0.0000000E+00
   1.090000      0.0000000E+00
   1.100000      0.0000000E+00
   1.110000      0.0000000E+00
   1.120000      0.0000000E+00
   1.130000      0.0000000E+00
   1.140000      0.0000000E+00
   1.150000      0.0000000E+00
   1.160000      0.0000000E+00
   1.170000      0.0000000E+00
   1.180000      0.0000000E+00
   1.190000      0.0000000E+00
   1.200000      0.0000000E+00
   1.210000      0.0000000E+00
   1.220000      0.0000000E+00
   1.230000      0.0000000E+00
   1.240000      0.0000000E+00
   1.250000      0.0000000E+00
   1.260000      0.0000000E+00
   1.270000      0.0000000E+00
   1.280000      0.0000000E+00
   1.290000      0.0000000E+00
   1.300000      0.0000000E+00
   1.310000      0.0000000E+00
   1.320000      0.0000000E+00
   1.330000      0.0000000E+00
   1.340000      0.0000000E+00
   1.350000      0.0000000E+00
   1.360000      0.0000000E+00
   1.370000      0.0000000E+00
   1.380000      0.0000000E+00
   1.390000      0.0000000E+00
   1.400000      0.0000000E+00
   1.410000      0.0000000E+00
   1.420000      0.0000000E+00
   1.430000      0.0000000E+00
   1.440000      0.0000000E+00
   1.450000      0.0000000E+00
   1.460000      0.0000000E+00
   1.470000      0.0000000E+00
   1.480000      0.0000000E+00
   1.490000      0.0000000E+00
   1.500000      0.0000000E+00
   1.510000      0.0000000E+00
   1.520000      0.0000000E+00
   1.530000      0.0000000E+00
   1.540000      0.0000000E+00
   1.550000      0.0000000E+00
   1.560000      0.0000000E+00
   1.570000      0.0000000E+00
   1.580000      0.0000000E+00
   1.590000      0.0000000E+00
   1.600000      0.0000000E+00
   1.610000      0.0000000E+00
   1.620000      0.0000000E+00
   1.630000      0.0000000E+00
   1.640000      0.0000000E+00
   1.650000      0.0000000E+00
   1.660000      0.0000000E+00
   1.670000      0.0000000E+00
   1.680000      0.0000000E+00
   1.690000      0.0000000E+00
   1.700000      0.0000000E+00
   1.710000      0.0000000E+00
   1.720000      0.0000000E+00
   1.730000      0.0000000E+00
   1.740000      0.0000000E+00
   1.750000      0.0000000E+00
   1.760000      0.0000000E+00
   1.770000      0.0000000E+00
   1.780000      0.0000000E+00
   1.790000      0.0000000E+00
   1.800000      0.0000000E+00
   1.810000      0.0000000E+00
   1.820000      0.0000000E+00
   1.830000      0.0000000E+00
   1.840000      0.0000000E+00
   1.850000      0.0000000E+00
   1.860000      0.0000000E+00
   1.870000      0.0000000E+00
   1.880000      0.0000000E+00
   1.890000      0.0000000E+00
   1.900000      0.0000000E+00
   1.910000      0.0000000E+00
   1.920000      0.0000000E+00
   1.930000      0.0000000E+00
   1.940000      0.0000000E+00
   1.950000      0.0000000E+00
   1.960000      0.0000000E+00
   1.970000      0.0000000E+00
   1.980000      0.0000000E+00
   1.990000      0.0000000E+00
   2.000000      0.0000000E+00
   2.010000      0.0000000E+00
   2.020000      0.0000000E+00
   2.030000      0.0000000E+00
   2.040000      0.0000000E+00
   2.050000      0.0000000E+00
   2.060000      0.0000000E+00
   2.070000      0.0000000E+00
   2.080000      0.0000000E+00
   2.090000      0.0000000E+00
   2.100000      0.0000000E+00
   2.110000      0.0000000E+00
   2.120000      0.0000000E+00
   2.130000      0.0000000E+00
   2.140000      0.0000000E+00
   2.150000      0.0000000E+00
   2.160000      0.0000000E+00
   2.170000      0.0000000E+00
   2.180000      0.0000000E+00
   2.190000      0.0000000E+00
   2.200000      0.0000000E+00
   2.210000      0.0000000E+00
   2.220000      0.0000000E+00
   2.230000      0.0000000E+00
   2.240000      0.0000000E+00
   2.250000      0.0000000E+00
   2.260000      0.0000000E+00
   2.270000      0.0000000E+00
   2.280000      0.0000000E+00
   2.290000      0.0000000E+00
   2.300000      0.0000000E+00
   2.310000      0.0000000E+00
   2.320000      0.0000000E+00
   2.330000      0.0000000E+00
   2.340000      0.0000000E+00
   2.350000      0.0000000E+00
   2.360000      0.0000000E+00
   2.370000      0.0000000E+00
   2.380000      0.0000000E+00
   2.390000      0.0000000E+00
   2.400000      0.0000000E+00
   2.410000      0.0000000E+00
   2.420000      0.0000000E+00
   2.430000      0.0000000E+00
   2.440000      0.0000000E+00
   2.450000      0.0000000E+00
   2.460000      0.0000000E+00
   2.470000      0.0000000E+00
   2.480000      0.0000000E+00
   2.490000      0.0000000E+00
   2.500000      0.0000000E+00
   2.510000      0.0000000E+00
   2.520000      0.0000000E+00
   2.530000      0.0000000E+00
   2.540000      0.0000000E+00
   2.550000      0.0000000E+00
   2.560000      0.0000000E+00
   2.570000      0.0000000E+00
   2.580000      0.0000000E+00
   2.590000      0.0000000E+00
   2.600000      0.0000000E+00
   2.610000      0.0000000E+00
   2.620000      0.0000000E+00
   2.630000      0.0000000E+00
   2.640000      0.0000000E+00
   2.650000      0.0000000E+00
   2.660000      0.0000000E+00
   2.670000      0.0000000E+00
   2.680000      0.0000000E+00
   2.690000      0.0000000E+00
   2.700000      0.0000000E+00
   2.710000      0.0000000E+00
   2.720000      0.0000000E+00
   2.730000      0.0000000E+00
   2.740000      0.0000000E+00
   2.750000      0.0000000E+00
   2.760000      0.0000000E+00
   2.770000      0.0000000E+00
   2.780000      0.0000000E+00
   2.790000      0.0000000E+00
   2.800000      0.0000000E+00
   2.810000      0.0000000E+00
   2.820000      0.0000000E+00
   2.830000      0.0000000E+00
   2.840000      0.0000000E+00
   2.850000      0.0000000E+00
   2.860000      0.0000000E+00
   2.870000      0.0000000E+00
   2.880000      0.0000000E+00
   2.890000      0.0000000E+00
   2.900000      0.0000000E+00
   2.910000      0.0000000E+00
   2.920000      0.0000000E+00
   2.930000      0.0000000E+00
   2.940000      0.0000000E+00
   2.950000      0.0000000E+00
   2.960000      0.0000000E+00
   2.970000      0.0000000E+00
   2.980000      0.0000000E+00
   2.990000      0.0000000E+00
   3.000000      0.0000000E+00
   3.010000      0.0000000E+00
   3.020000      0.0000000E+00
   3.030000      0.0000000E+00
   3.040000      0.0000000E+00
   3.050000      0.0000000E+00
   3.060000      0.0000000E+00
   3.070000      0.0000000E+00
   3.080000      0.0000000E+00
   3.090000      0.0000000E+00
   3.100000      0.0000000E+00
   3.110000      0.0000000E+00
   3.120000      0.0000000E+00
   3.130000      0.0000000E+00
   3.140000      0.0000000E+00
   3.150000      0.0000000E+00
   3.160000      0.0000000E+00
   3.170000      0.0000000E+00
   3.180000      0.0000000E+00
   3.190000      0.0000000E+00
   3.200000      0.0000000E+00
   3.210000      0.0000000E+00
   3.220000      0.0000000E+00
   3.230000      0.0000000E+00
   3.240000      0.0000000E+00
   3.250000      0.0000000E+00
   3.260000      0.0000000E+00
   3.270000      0.0000000E+00
   3.280000      0.0000000E+00
   3.290000      0.0000000E+00
   3.300000      0.0000000E+00
   3.310000      0.0000000E+00
   3.320000      0.0000000E+00
   3.330000      0.0000000E+00
   3.340000      0.0000000E+00
   3.350000      0.0000000E+00
   3.360000      0.0000000E+00
   3.370000      0.0000000E+00
   3.380000      0.0000000E+00
   3.390000      0.0000000E+00
   3.400000      0.0000000E+00
   3.410000      0.0000000E+00
   3.420000      0.0000000E+00
   3.430000      0.0000000E+00
   3.440000      0.0000000E+00
   3.450000      0.0000000E+00
   3.460000      0.0000000E+00
   3.470000      0.0000000E+00
   3.480000      0.0000000E+00
   3.490000      0.0000000E+00
   3.500000      0.0000000E+00
   3.510000      0.0000000E+00
   3.520000      0.0000000E+00
   3.530000      0.0000000E+00
   3.540000      0.0000000E+00
   3.550000      0.0000000E+00
   3.560000      0.0000000E+00
   3.570000      0.0000000E+00
   3.580000      0.0000000E+00
   3.590000      0.0000000E+00
   3.600000      0.0000000E+00
   3.610000      0.0000000E+00
   3.620000      0.0000000E+00
   3.630000      0.0000000E+00
   3.640000      0.0000000E+00
   3.650000      0.0000000E+00
   3.660000      0.0000000E+00
   3.670000      0.0000000E+00
   3.680000      0.0000000E+00
   3.690000      0.0000000E+00
   3.700000      0.0000000E+00
   3.710000      0.0000000E+00
   3.720000      0.0000000E+00
   3.730000      0.0000000E+00
   3.740000      0.0000000E+00
   3.750000      0.0000000E+00
   3.760000      0.0000000E+00
   3.770000      0.0000000E+00
   3.780000      0.0000000E+00
   3.790000      0.0000000E+00
   3.800000      0.0000000E+00
   3.810000      0.0000000E+00
   3.820000      0.0000000E+00
   3.830000      0.0000000E+00
   3.840000      0.0000000E+00
   3.850000      0.0000000E+00
   3.860000      0.0000000E+00
   3.870000      0.0000000E+00
   3.880000      0.0000000E+00
   3.890000      0.0000000E+00
   3.900000      0.0000000E+00
   3.910000      0.0000000E+00
   3.920000      0.0000000E+00
   3.930000      0.0000000E+00
   3.940000      0.0000000E+00
   3.950000      0.0000000E+00
   3.960000      0.0000000E+00
   3.970000      0.0000000E+00
   3.980000      0.0000000E+00
   3.990000      0.0000000E+00
   4.000000      0.0000000E+00
   4.010000      0.0000000E+00
   4.020000      0.0000000E+00
   4.030000      0.0000000E+00
   4.040000      0.0000000E+00
   4.050000      0.0000000E+00
   4.060000      0.0000000E+00
   4.070000      0.0000000E+00
   4.080000      0.0000000E+00
   4.090000      0.0000000E+00
   4.100000      0.0000000E+00
   4.110000      0.0000000E+00
   4.120000      0.0000000E+00
   4.130000      0.0000000E+00
   4.140000      0.0000000E+00
   4.150000      0.0000000E+00
   4.160000      0.0000000E+00
   4.170000      0.0000000E+00
   4.180000      0.0000000E+00
   4.190000      0.0000000E+00
   4.200000      0.0000000E+00
   4.210000      0.0000000E+00
   4.220000      0.0000000E+00
   4.230000      0.0000000E+00
   4.240000      0.0000000E+00
   4.250000      0.0000000E+00
   4.260000      0.0000000E+00
   4.270000      0.0000000E+00
   4.280000      0.0000000E+00
   4.290000      0.0000000E+00
   4.300000      0.0000000E+00
   4.310000      0.0000000E+00
   4.320000      0.0000000E+00
   4.330000      0.0000000E+00
   4.340000      0.0000000E+00
   4.350000      0.0000000E+00
   4.360000      0.0000000E+00
   4.370000      0.0000000E+00
   4.380000      0.0000000E+00
   4.390000      0.0000000E+00
   4.400000      0.0000000E+00
   4.410000      0.0000000E+00
   4.420000      0.0000000E+00
   4.430000      0.0000000E+00
   4.440000      0.0000000E+00
   4.450000      0.0000000E+00
   4.460000      0.0000000E+00
   4.470000      0.0000000E+00
   4.480000      0.0000000E+00
   4.490000      0.0000000E+00
   4.500000      0.0000000E+00
   4.510000      0.0000000E+00
   4.520000      0.0000000E+00
   4.530000      0.0000000E+00
   4.540000      0.0000000E+00
   4.550000      0.0000000E+00
   4.560000      0.0000000E+00
   4.570000      0.0000000E+00
   4.580000      0.0000000E+00
   4.590000      0.0000000E+00
   4.600000      0.0000000E+00
   4.610000      0.0000000E+00
   4.620000      0.0000000E+00
   4.630000      0.0000000E+00
   4.640000      0.0000000E+00
   4.650000      0.0000000E+00
   4.660000      0.0000000E+00
   4.670000      0.0000000E+00
   4.680000      0.0000000E+00
   4.690000      0.0000000E+00
   4.700000      0.0000000E+00
   4.710000      0.0000000E+00
   4.720000      0.0000000E+00
   4.730000      0.0000000E+00
   4.740000      0.0000000E+00
   4.750000      0.0000000E+00
   4.760000      0.0000000E+00
   4.770000      0.0000000E+00
   4.780000      0.0000000E+00
   4.790000      0.0000000E+00
   4.800000      0.0000000E+00
   4.810000      0.0000000E+00
   4.820000      0.0000000E+00
   4.830000      0.0000000E+00
   4.840000      0.0000000E+00
   4.850000      0.0000000E+00
   4.860000      0.0000000E+00
   4.870000      0.0000000E+00
   4.880000      0.0000000E+00
   4.890000      0.0000000E+00
   4.900000      0.0000000E+00
   4.910000      0.0000000E+00
   4.920000      0.0000000E+00
   4.930000      0.0000000E+00
   4.940000      0.0000000E+00
   4.950000      0.0000000E+00
   4.960000      0.0000000E+00
   4.970000      0.0000000E+00
   4.980000      0.0000000E+00
   4.990000      0.0000000E+00
   5.000000      0.0000000E+00
   5.010000      0.0000000E+00
   5.020000      0.0000000E+00
   5.030000      0.0000000E+00
   5.040000      0.0000000E+00
   5.050000      0.0000000E+00
   5.060000      0.0000000E+00
   5.070000      0.0000000E+00
   5.080000      0.0000000E+00
   5.090000      0.0000000E+00
   5.100000      0.0000000E+00
   5.110000      0.0000000E+00
   5.120000      0.0000000E+00
   5.130000      0.0000000E+00
   5.140000      1.3177666E-38
   5.150000      1.4786389E-38
   5.160000      1.6661968E-38
   5.170000      1.8798098E-38
   5.180000      2.0908130E-38
   5.190000      2.2972450E-38
   5.200000      2.4975970E-38
   5.210000      2.6913394E-38
   5.220000      2.8795686E-38
   5.230000      3.0377967E-38
   5.240000      3.1700678E-38
   5.250000      3.3069214E-38
   5.260000      3.4504822E-38
   5.270000      3.6029872E-38
   5.280000      3.7665908E-38
   5.290000      3.9629844E-38
   5.300000      4.1834314E-38
   5.310000      4.3983886E-38
   5.320000      4.6074963E-38
   5.330000      4.8098499E-38
   5.340000      5.0521725E-38
   5.350000      5.3417228E-38
   5.360000      5.5563031E-38
   5.370000      5.6588894E-38
   5.380000      5.6923686E-38
   5.390000      5.6964890E-38
   5.400000      5.7408306E-38
   5.410000      6.0423704E-38
   5.420000      6.6220736E-38
   5.430000      7.2780180E-38
   5.440000      7.9794783E-38
   5.450000      8.7230572E-38
   5.460000      9.4952343E-38
   5.470000      1.0260137E-37
   5.480000      1.1004737E-37
   5.490000      1.1813277E-37
   5.500000      1.2678694E-37
   5.510000      1.5930156E-37
   5.520000      2.1708575E-37
   5.530000      2.7744524E-37
   5.540000      3.4025984E-37
   5.550000      4.0565541E-37
   5.560000      4.7350341E-37
   5.570000      5.3943193E-37
   5.580000      6.0301734E-37
   5.590000      6.6750908E-37
   5.600000      5.8893835E-37
   5.610000      3.5300237E-37
   5.620000      9.8660930E-38
   5.630000     -1.6028950E-37
   5.640000     -3.9943387E-37
   5.650000     -4.8322470E-37
   5.660000     -4.3264357E-37
   5.670000     -3.8570097E-37
   5.680000     -3.3980183E-37
   5.690000     -2.9368496E-37
   5.700000     -2.5070712E-37
   5.710000     -2.1157158E-37
   5.720000     -1.6903910E-37
   5.730000     -1.2392911E-37
   5.740000     -8.0905766E-38
   5.750000     -3.9076525E-38
   5.760000      0.0000000E+00
   5.770000      0.0000000E+00
   5.780000     -5.4209713E-38
   5.790000     -1.0033530E-37
   5.800000     -1.4631713E-37
   5.810000     -1.7550860E-37
   5.820000     -1.9135950E-37
   5.830000     -2.4255207E-37
   5.840000     -3.3520086E-37
   5.850000     -4.7353606E-37
   5.860000     -6.5174867E-37
   5.870000     -8.4770557E-37
   5.880000     -1.0745777E-36
   5.890000     -1.2891428E-36
   5.900000     -1.4865440E-36
   5.910000     -1.7133662E-36
   5.920000     -1.8236404E-36
   5.930000     -1.8011463E-36
   5.940000     -1.7923392E-36
   5.950000     -1.7941574E-36
   5.960000     -1.8649362E-36
   5.970000     -2.0213486E-36
   5.980000     -2.2739748E-36
   5.990000     -2.6395609E-36
   6.000000     -2.8633805E-36
   6.010000     -2.8607464E-36
   6.020000     -2.7580625E-36
   6.030000     -2.5772522E-36
   6.040000     -2.3512486E-36
   6.050000     -2.1029459E-36
   6.060000     -1.8883663E-36
   6.070000     -1.6356140E-36
   6.080000     -1.2922425E-36
   6.090000     -9.3068827E-37
   6.100000     -5.5269888E-37
   6.110000     -1.5870610E-37
   6.120000      0.0000000E+00
   6.130000     -9.2154880E-38
   6.140000     -2.1169763E-37
   6.150000     -5.2738314E-37
   6.160000     -1.1004928E-36
   6.170000     -1.7575684E-36
   6.180000     -2.4978001E-36
   6.190000     -3.3331453E-36
   6.200000     -3.3598199E-36
   6.210000     -2.5271362E-36
   6.220000     -1.5735515E-36
   6.230000     -4.4365881E-37
   6.240000      6.5570791E-37
   6.250000      1.5054362E-36
   6.260000      1.9024659E-36
   6.270000      1.6220850E-36
   6.280000     -1.2264256E-37
   6.290000     -1.5646171E-36
   6.300000     -1.4618677E-36
   6.310000     -1.5828153E-37
   6.320000      2.2771270E-36
   6.330000      4.6749620E-36
   6.340000      5.6131290E-36
   6.350000      5.1105690E-36
   6.360000      5.6714273E-36
   6.370000      7.4459022E-36
   6.380000      9.1471548E-36
   6.390000      1.0816146E-35
   6.400000      1.3169580E-35
   6.410000      1.6255473E-35
   6.420000      1.9404153E-35
   6.430000      2.2990177E-35
   6.440000      2.6476971E-35
   6.450000      2.9081317E-35
   6.460000      3.1730823E-35
   6.470000      3.4535068E-35
   6.480000      3.6151938E-35
   6.490000      3.4133506E-35
   6.500000      2.9533647E-35
   6.510000      2.5899289E-35
   6.520000      2.4334102E-35
   6.530000      2.4228385E-35
   6.540000      2.5463096E-35
   6.550000      2.7928239E-35
   6.560000      3.0779083E-35
   6.570000      3.3429312E-35
   6.580000      3.6311643E-35
   6.590000      3.9102584E-35
   6.600000      4.1190372E-35
   6.610000      4.1090447E-35
   6.620000      3.8875659E-35
   6.630000      3.4936499E-35
   6.640000      2.9773019E-35
   6.650000      2.6201562E-35
   6.660000      2.4236822E-35
   6.670000      2.3176675E-35
   6.680000      2.2707804E-35
   6.690000      2.2599071E-35
   6.700000      2.2592608E-35
   6.710000      2.1973770E-35
   6.720000      2.1719563E-35
   6.730000      2.2223005E-35
   6.740000      2.2352658E-35
   6.750000      2.3754682E-35
   6.760000      2.6448904E-35
   6.770000      2.4141971E-35
   6.780000      1.5639487E-35
   6.790000      6.0784394E-36
   6.800000     -3.6681605E-36
   6.810000     -1.9830254E-35
   6.820000     -4.1143462E-35
   6.830000     -6.0258819E-35
   6.840000     -6.9742545E-35
   6.850000     -6.5897565E-35
   6.860000     -5.6960123E-35
   6.870000     -4.8611369E-35
   6.880000     -4.2266768E-35
   6.890000     -4.5782288E-35
   6.900000     -5.9677776E-35
   6.910000     -8.1481446E-35
   6.920000     -1.1040788E-34
   6.930000     -1.4093282E-34
   6.940000     -1.6518576E-34
   6.950000     -1.8220965E-34
   6.960000     -1.9730429E-34
   6.970000     -2.1228781E-34
   6.980000     -2.2322920E-34
   6.990000     -2.2811721E-34
   7.000000     -2.3164774E-34
   7.010000     -2.3356924E-34
   7.020000     -2.3342595E-34
   7.030000     -2.3249935E-34
   7.040000     -2.3783169E-34
   7.050000     -2.5037619E-34
   7.060000     -2.6617827E-34