  -2.600000      0.0000000E+00
  -2.590000      0.0000000E+00
  -2.580000      0.0000000E+00
  -2.570000      0.0000000E+00
  -2.560000      0.0000000E+00
  -2.550000      0.0000000E+00
  -2.540000      0.0000000E+00
  -2.530000      0.0000000E+00
  -2.520000      0.0000000E+00
  -2.510000      0.0000000E+00
  -2.500000      0.0000000E+00
  -2.490000      0.0000000E+00
  -2.480000      0.0000000E+00
  -2.470000      0.0000000E+00
  -2.460000      0.0000000E+00
  -2.450000      0.0000000E+00
  -2.440000      0.0000000E+00
  -2.430000      0.0000000E+00
  -2.420000      0.0000000E+00
  -2.410000      0.0000000E+00
  -2.400000      0.0000000E+00
  -2.390000      0.0000000E+00
  -2.380000      0.0000000E+00
  -2.370000      0.0000000E+00
  -2.360000      0.0000000E+00
  -2.350000      0.0000000E+00
  -2.340000      0.0000000E+00
  -2.330000      0.0000000E+00
  -2.320000      0.0000000E+00
  -2.310000      0.0000000E+00
  -2.300000      0.0000000E+00
  -2.290000      0.0000000E+00
  -2.280000      0.0000000E+00
  -2.270000      0.0000000E+00
  -2.260000      0.0000000E+00
  -2.250000      0.0000000E+00
  -2.240000      0.0000000E+00
  -2.230000      0.0000000E+00
  -2.220000      0.0000000E+00
  -2.210000      0.0000000E+00
  -2.200000      0.0000000E+00
  -2.190000      0.0000000E+00
  -2.180000      0.0000000E+00
  -2.170000      0.0000000E+00
  -2.160000      0.0000000E+00
  -2.150000      0.0000000E+00
  -2.140000      0.0000000E+00
  -2.130000      0.0000000E+00
  -2.120000      0.0000000E+00
  -2.110000      0.0000000E+00
  -2.100000      0.0000000E+00
  -2.090000      0.0000000E+00
  -2.080000      0.0000000E+00
  -2.070000      0.0000000E+00
  -2.060000      0.0000000E+00
  -2.050000      0.0000000E+00
  -2.040000      0.0000000E+00
  -2.030000      0.0000000E+00
  -2.020000      0.0000000E+00
  -2.010000      0.0000000E+00
  -2.000000      0.0000000E+00
  -1.990000      0.0000000E+00
  -1.980000      0.0000000E+00
  -1.970000      0.0000000E+00
  -1.960000      0.0000000E+00
  -1.950000      0.0000000E+00
  -1.940000      0.0000000E+00
  -1.930000      0.0000000E+00
  -1.920000      0.0000000E+00
  -1.910000      0.0000000E+00
  -1.900000      0.0000000E+00
  -1.890000      0.0000000E+00
  -1.880000      0.0000000E+00
  -1.870000      0.0000000E+00
  -1.860000      0.0000000E+00
  -1.850000      0.0000000E+00
  -1.840000      0.0000000E+00
  -1.830000      0.0000000E+00
  -1.820000      0.0000000E+00
  -1.810000      0.0000000E+00
  -1.800000      0.0000000E+00
  -1.790000      0.0000000E+00
  -1.780000      0.0000000E+00
  -1.770000      0.0000000E+00
  -1.760000      0.0000000E+00
  -1.750000      0.0000000E+00
  -1.740000      0.0000000E+00
  -1.730000      0.0000000E+00
  -1.720000      0.0000000E+00
  -1.710000      0.0000000E+00
  -1.700000      0.0000000E+00
  -1.690000      0.0000000E+00
  -1.680000      0.0000000E+00
  -1.670000      0.0000000E+00
  -1.660000      0.0000000E+00
  -1.650000      0.0000000E+00
  -1.640000      0.0000000E+00
  -1.630000      0.0000000E+00
  -1.620000      0.0000000E+00
  -1.610000      0.0000000E+00
  -1.600000      0.0000000E+00
  -1.590000      0.0000000E+00
  -1.580000      0.0000000E+00
  -1.570000      0.0000000E+00
  -1.560000      0.0000000E+00
  -1.550000      0.0000000E+00
  -1.540000      0.0000000E+00
  -1.530000      0.0000000E+00
  -1.520000      0.0000000E+00
  -1.510000      0.0000000E+00
  -1.500000      0.0000000E+00
  -1.490000      0.0000000E+00
  -1.480000      0.0000000E+00
  -1.470000      0.0000000E+00
  -1.460000      0.0000000E+00
  -1.450000      0.0000000E+00
  -1.440000      0.0000000E+00
  -1.430000      0.0000000E+00
  -1.420000      0.0000000E+00
  -1.410000      0.0000000E+00
  -1.400000      0.0000000E+00
  -1.390000      0.0000000E+00
  -1.380000      0.0000000E+00
  -1.370000      0.0000000E+00
  -1.360000      0.0000000E+00
  -1.350000      0.0000000E+00
  -1.340000      0.0000000E+00
  -1.330000      0.0000000E+00
  -1.320000      0.0000000E+00
  -1.310000      0.0000000E+00
  -1.300000      0.0000000E+00
  -1.290000      0.0000000E+00
  -1.280000      0.0000000E+00
  -1.270000      0.0000000E+00
  -1.260000      0.0000000E+00
  -1.250000      0.0000000E+00
  -1.240000      0.0000000E+00
  -1.230000      0.0000000E+00
  -1.220000      0.0000000E+00
  -1.210000      0.0000000E+00
  -1.200000      0.0000000E+00
  -1.190000      0.0000000E+00
  -1.180000      0.0000000E+00
  -1.170000      0.0000000E+00
  -1.160000      0.0000000E+00
  -1.150000      0.0000000E+00
  -1.140000      0.0000000E+00
  -1.130000      0.0000000E+00
  -1.120000      0.0000000E+00
  -1.110000      0.0000000E+00
  -1.100000      0.0000000E+00
  -1.090000      0.0000000E+00
  -1.080000      0.0000000E+00
  -1.070000      0.0000000E+00
  -1.060000      0.0000000E+00
  -1.050000      0.0000000E+00
  -1.040000      0.0000000E+00
  -1.030000      0.0000000E+00
  -1.020000      0.0000000E+00
  -1.010000      0.0000000E+00
  -1.000000      0.0000000E+00
 -0.9900000      0.0000000E+00
 -0.9800000      0.0000000E+00
 -0.9700000      0.0000000E+00
 -0.9600000      0.0000000E+00
 -0.9500000      0.0000000E+00
 -0.9400000      0.0000000E+00
 -0.9300000      0.0000000E+00
 -0.9200000      0.0000000E+00
 -0.9100000      0.0000000E+00
 -0.9000000      0.0000000E+00
 -0.8900000      0.0000000E+00
 -0.8800000      0.0000000E+00
 -0.8700000      0.0000000E+00
 -0.8600000      0.0000000E+00
 -0.8500000      0.0000000E+00
 -0.8400000      0.0000000E+00
 -0.8300000      0.0000000E+00
 -0.8200000      0.0000000E+00
 -0.8100000      0.0000000E+00
 -0.8000000      0.0000000E+00
 -0.7900000      0.0000000E+00
 -0.7800000      0.0000000E+00
 -0.7700000      0.0000000E+00
 -0.7600000      0.0000000E+00
 -0.7500000      0.0000000E+00
 -0.7400000      0.0000000E+00
 -0.7300000      0.0000000E+00
 -0.7200000      0.0000000E+00
 -0.7100000      0.0000000E+00
 -0.7000000      0.0000000E+00
 -0.6900000      0.0000000E+00
 -0.6800000      0.0000000E+00
 -0.6700000      0.0000000E+00
 -0.6600000      0.0000000E+00
 -0.6500000      0.0000000E+00
 -0.6400000      0.0000000E+00
 -0.6300000      0.0000000E+00
 -0.6200000      0.0000000E+00
 -0.6100000      0.0000000E+00
 -0.6000000      0.0000000E+00
 -0.5900000      0.0000000E+00
 -0.5800000      0.0000000E+00
 -0.5700000      0.0000000E+00
 -0.5600000      0.0000000E+00
 -0.5500000      0.0000000E+00
 -0.5400000      0.0000000E+00
 -0.5300000      0.0000000E+00
 -0.5200000      0.0000000E+00
 -0.5100000      0.0000000E+00
 -0.5000000      0.0000000E+00
 -0.4900000      0.0000000E+00
 -0.4800000      0.0000000E+00
 -0.4700000      0.0000000E+00
 -0.4600000      0.0000000E+00
 -0.4500000      0.0000000E+00
 -0.4400000      0.0000000E+00
 -0.4300000      0.0000000E+00
 -0.4200000      0.0000000E+00
 -0.4100000      0.0000000E+00
 -0.4000000      0.0000000E+00
 -0.3900000      0.0000000E+00
 -0.3800000      0.0000000E+00
 -0.3700000      0.0000000E+00
 -0.3600000      0.0000000E+00
 -0.3500000      0.0000000E+00
 -0.3400000      0.0000000E+00
 -0.3300000      0.0000000E+00
 -0.3200000      0.0000000E+00
 -0.3100000      0.0000000E+00
 -0.3000000      0.0000000E+00
 -0.2900000      0.0000000E+00
 -0.2800000      0.0000000E+00
 -0.2700000      0.0000000E+00
 -0.2600000      0.0000000E+00
 -0.2500000      0.0000000E+00
 -0.2400000      0.0000000E+00
 -0.2300000      0.0000000E+00
 -0.2200000      0.0000000E+00
 -0.2100000      0.0000000E+00
 -0.2000000      0.0000000E+00
 -0.1900000      0.0000000E+00
 -0.1800000      0.0000000E+00
 -0.1700000      0.0000000E+00
 -0.1600000      0.0000000E+00
 -0.1500000      0.0000000E+00
 -0.1400000      0.0000000E+00
 -0.1300000      0.0000000E+00
 -0.1200000      0.0000000E+00
 -0.1100000      0.0000000E+00
 -0.1000000      0.0000000E+00
 -9.0000004E-02  0.0000000E+00
 -7.9999998E-02  0.0000000E+00
 -7.0000000E-02  0.0000000E+00
 -5.9999999E-02  0.0000000E+00
 -5.0000001E-02  0.0000000E+00
 -3.9999999E-02  0.0000000E+00
 -2.9999999E-02  0.0000000E+00
 -2.0000000E-02  0.0000000E+00
 -9.9999998E-03  0.0000000E+00
 -3.4694470E-17  0.0000000E+00
  9.9999998E-03  0.0000000E+00
  2.0000000E-02  0.0000000E+00
  2.9999999E-02  0.0000000E+00
  3.9999999E-02  0.0000000E+00
  5.0000001E-02  0.0000000E+00
  5.9999999E-02  0.0000000E+00
  7.0000000E-02  0.0000000E+00
  7.9999998E-02  0.0000000E+00
  9.0000004E-02  0.0000000E+00
  0.1000000      0.0000000E+00
  0.1100000      0.0000000E+00
  0.1200000      0.0000000E+00
  0.1300000      0.0000000E+00
  0.1400000      0.0000000E+00
  0.1500000      0.0000000E+00
  0.1600000      0.0000000E+00
  0.1700000      0.0000000E+00
  0.1800000      0.0000000E+00
  0.1900000      0.0000000E+00
  0.2000000      0.0000000E+00
  0.2100000      0.0000000E+00
  0.2200000      0.0000000E+00
  0.2300000      0.0000000E+00
  0.2400000      0.0000000E+00
  0.2500000      0.0000000E+00
  0.2600000      0.0000000E+00
  0.2700000      0.0000000E+00
  0.2800000      0.0000000E+00
  0.2900000      0.0000000E+00
  0.3000000      0.0000000E+00
  0.3100000      0.0000000E+00
  0.3200000      0.0000000E+00
  0.3300000      0.0000000E+00
  0.3400000      0.0000000E+00
  0.3500000      0.0000000E+00
  0.3600000      0.0000000E+00
  0.3700000      0.0000000E+00
  0.3800000      0.0000000E+00
  0.3900000      0.0000000E+00
  0.4000000      0.0000000E+00
  0.4100000      0.0000000E+00
  0.4200000      0.0000000E+00
  0.4300000      0.0000000E+00
  0.4400000      0.0000000E+00
  0.4500000      0.0000000E+00
  0.4600000      0.0000000E+00
  0.4700000      0.0000000E+00
  0.4800000      0.0000000E+00
  0.4900000      0.0000000E+00
  0.5000000      0.0000000E+00
  0.5100000      0.0000000E+00
  0.5200000      0.0000000E+00
  0.5300000      0.0000000E+00
  0.5400000      0.0000000E+00
  0.5500000      0.0000000E+00
  0.5600000      0.0000000E+00
  0.5700000      0.0000000E+00
  0.5800000      0.0000000E+00
  0.5900000      0.0000000E+00
  0.6000000      0.0000000E+00
  0.6100000      0.0000000E+00
  0.6200000      0.0000000E+00
  0.6300000      0.0000000E+00
  0.6400000      0.0000000E+00
  0.6500000      0.0000000E+00
  0.6600000      0.0000000E+00
  0.6700000      0.0000000E+00
  0.6800000      0.0000000E+00
  0.6900000      0.0000000E+00
  0.7000000      0.0000000E+00
  0.7100000      0.0000000E+00
  0.7200000      0.0000000E+00
  0.7300000      0.0000000E+00
  0.7400000      0.0000000E+00
  0.7500000      0.0000000E+00
  0.7600000      0.0000000E+00
  0.7700000      0.0000000E+00
  0.7800000      0.0000000E+00
  0.7900000      0.0000000E+00
  0.8000000      0.0000000E+00
  0.8100000      0.0000000E+00
  0.8200000      0.0000000E+00
  0.8300000      0.0000000E+00
  0.8400000      0.0000000E+00
  0.8500000      0.0000000E+00
  0.8600000      0.0000000E+00
  0.8700000      0.0000000E+00
  0.8800000      0.0000000E+00
  0.8900000      0.0000000E+00
  0.9000000      0.0000000E+00
  0.9100000      0.0000000E+00
  0.9200000      0.0000000E+00
  0.9300000      0.0000000E+00
  0.9400000      0.0000000E+00
  0.9500000      0.0000000E+00
  0.9600000      0.0000000E+00
  0.9700000      0.0000000E+00
  0.9800000      0.0000000E+00
  0.9900000      0.0000000E+00
   1.000000      0.0000000E+00
   1.010000      0.0000000E+00
   1.020000      0.0000000E+00
   1.030000      0.0000000E+00
   1.040000      0.0000000E+00
   1.050000      0.0000000E+00
   1.060000      0.0000000E+00
   1.070000      0.0000000E+00
   1.080000      0.0000000E+00
   1.090000      0.0000000E+00
   1.100000      0.0000000E+00
   1.110000      0.0000000E+00
   1.120000      0.0000000E+00
   1.130000      0.0000000E+00
   1.140000      0.0000000E+00
   1.150000      0.0000000E+00
   1.160000      0.0000000E+00
   1.170000      0.0000000E+00
   1.180000      0.0000000E+00
   1.190000      0.0000000E+00
   1.200000      0.0000000E+00
   1.210000      0.0000000E+00
   1.220000      0.0000000E+00
   1.230000      0.0000000E+00
   1.240000      0.0000000E+00
   1.250000      0.0000000E+00
   1.260000      0.0000000E+00
   1.270000      0.0000000E+00
   1.280000      0.0000000E+00
   1.290000      0.0000000E+00
   1.300000      0.0000000E+00
   1.310000      0.0000000E+00
   1.320000      0.0000000E+00
   1.330000      0.0000000E+00
   1.340000      0.0000000E+00
   1.350000      0.0000000E+00
   1.360000      0.0000000E+00
   1.370000      0.0000000E+00
   1.380000      0.0000000E+00
   1.390000      0.0000000E+00
   1.400000      0.0000000E+00
   1.410000      0.0000000E+00
   1.420000      0.0000000E+00
   1.430000      0.0000000E+00
   1.440000      0.0000000E+00
   1.450000      0.0000000E+00
   1.460000      0.0000000E+00
   1.470000      0.0000000E+00
   1.480000      0.0000000E+00
   1.490000      0.0000000E+00
   1.500000      0.0000000E+00
   1.510000      0.0000000E+00
   1.520000      0.0000000E+00
   1.530000      0.0000000E+00
   1.540000      0.0000000E+00
   1.550000      0.0000000E+00
   1.560000      0.0000000E+00
   1.570000      0.0000000E+00
   1.580000      0.0000000E+00
   1.590000      0.0000000E+00
   1.600000      0.0000000E+00
   1.610000      0.0000000E+00
   1.620000      0.0000000E+00
   1.630000      0.0000000E+00
   1.640000      0.0000000E+00
   1.650000      0.0000000E+00
   1.660000      0.0000000E+00
   1.670000      0.0000000E+00
   1.680000      0.0000000E+00
   1.690000      0.0000000E+00
   1.700000      0.0000000E+00
   1.710000      0.0000000E+00
   1.720000      0.0000000E+00
   1.730000      0.0000000E+00
   1.740000      0.0000000E+00
   1.750000      0.0000000E+00
   1.760000      0.0000000E+00
   1.770000      0.0000000E+00
   1.780000      0.0000000E+00
   1.790000      0.0000000E+00
   1.800000      0.0000000E+00
   1.810000      0.0000000E+00
   1.820000      0.0000000E+00
   1.830000      0.0000000E+00
   1.840000      0.0000000E+00
   1.850000      0.0000000E+00
   1.860000      0.0000000E+00
   1.870000      0.0000000E+00
   1.880000      0.0000000E+00
   1.890000      0.0000000E+00
   1.900000      0.0000000E+00
   1.910000      0.0000000E+00
   1.920000      0.0000000E+00
   1.930000      0.0000000E+00
   1.940000      0.0000000E+00
   1.950000      0.0000000E+00
   1.960000      0.0000000E+00
   1.970000      0.0000000E+00
   1.980000      0.0000000E+00
   1.990000      0.0000000E+00
   2.000000      0.0000000E+00
   2.010000      0.0000000E+00
   2.020000      0.0000000E+00
   2.030000      0.0000000E+00
   2.040000      0.0000000E+00
   2.050000      0.0000000E+00
   2.060000      0.0000000E+00
   2.070000      0.0000000E+00
   2.080000      0.0000000E+00
   2.090000      0.0000000E+00
   2.100000      0.0000000E+00
   2.110000      0.0000000E+00
   2.120000      0.0000000E+00
   2.130000      0.0000000E+00
   2.140000      0.0000000E+00
   2.150000      0.0000000E+00
   2.160000      0.0000000E+00
   2.170000      0.0000000E+00
   2.180000      0.0000000E+00
   2.190000      0.0000000E+00
   2.200000      0.0000000E+00
   2.210000      0.0000000E+00
   2.220000      0.0000000E+00
   2.230000      0.0000000E+00
   2.240000      0.0000000E+00
   2.250000      0.0000000E+00
   2.260000      0.0000000E+00
   2.270000      0.0000000E+00
   2.280000      0.0000000E+00
   2.290000      0.0000000E+00
   2.300000      0.0000000E+00
   2.310000      0.0000000E+00
   2.320000      0.0000000E+00
   2.330000      0.0000000E+00
   2.340000      0.0000000E+00
   2.350000      0.0000000E+00
   2.360000      0.0000000E+00
   2.370000      0.0000000E+00
   2.380000      0.0000000E+00
   2.390000      0.0000000E+00
   2.400000      0.0000000E+00
   2.410000      0.0000000E+00
   2.420000      0.0000000E+00
   2.430000      0.0000000E+00
   2.440000      0.0000000E+00
   2.450000      0.0000000E+00
   2.460000      0.0000000E+00
   2.470000      0.0000000E+00
   2.480000      0.0000000E+00
   2.490000      0.0000000E+00
   2.500000      0.0000000E+00
   2.510000      0.0000000E+00
   2.520000      0.0000000E+00
   2.530000      0.0000000E+00
   2.540000      0.0000000E+00
   2.550000      0.0000000E+00
   2.560000      0.0000000E+00
   2.570000      0.0000000E+00
   2.580000      0.0000000E+00
   2.590000      0.0000000E+00
   2.600000      0.0000000E+00
   2.610000      0.0000000E+00
   2.620000      0.0000000E+00
   2.630000      0.0000000E+00
   2.640000      0.0000000E+00
   2.650000      0.0000000E+00
   2.660000      0.0000000E+00
   2.670000      0.0000000E+00
   2.680000      0.0000000E+00
   2.690000      0.0000000E+00
   2.700000      0.0000000E+00
   2.710000      0.0000000E+00
   2.720000      0.0000000E+00
   2.730000      0.0000000E+00
   2.740000      0.0000000E+00
   2.750000      0.0000000E+00
   2.760000      0.0000000E+00
   2.770000      0.0000000E+00
   2.780000      0.0000000E+00
   2.790000      0.0000000E+00
   2.800000      0.0000000E+00
   2.810000      0.0000000E+00
   2.820000      0.0000000E+00
   2.830000      0.0000000E+00
   2.840000      0.0000000E+00
   2.850000      0.0000000E+00
   2.860000      0.0000000E+00
   2.870000      0.0000000E+00
   2.880000      0.0000000E+00
   2.890000      0.0000000E+00
   2.900000      0.0000000E+00
   2.910000      0.0000000E+00
   2.920000      0.0000000E+00
   2.930000      0.0000000E+00
   2.940000      0.0000000E+00
   2.950000      0.0000000E+00
   2.960000      0.0000000E+00
   2.970000      0.0000000E+00
   2.980000      0.0000000E+00
   2.990000      0.0000000E+00
   3.000000      0.0000000E+00
   3.010000      0.0000000E+00
   3.020000      0.0000000E+00
   3.030000      0.0000000E+00
   3.040000      0.0000000E+00
   3.050000      0.0000000E+00
   3.060000      0.0000000E+00
   3.070000      0.0000000E+00
   3.080000      0.0000000E+00
   3.090000      0.0000000E+00
   3.100000      0.0000000E+00
   3.110000      0.0000000E+00
   3.120000      0.0000000E+00
   3.130000      0.0000000E+00
   3.140000      0.0000000E+00
   3.150000      0.0000000E+00
   3.160000      0.0000000E+00
   3.170000      0.0000000E+00
   3.180000      0.0000000E+00
   3.190000      0.0000000E+00
   3.200000      0.0000000E+00
   3.210000      0.0000000E+00
   3.220000      0.0000000E+00
   3.230000      0.0000000E+00
   3.240000      0.0000000E+00
   3.250000      0.0000000E+00
   3.260000      0.0000000E+00
   3.270000      0.0000000E+00
   3.280000      0.0000000E+00
   3.290000      0.0000000E+00
   3.300000      0.0000000E+00
   3.310000      0.0000000E+00
   3.320000      1.2431750E-38
   3.330000      1.4752654E-38
   3.340000      1.7217108E-38
   3.350000      1.9765320E-38
   3.360000      2.2499964E-38
   3.370000      2.6056419E-38
   3.380000      2.9894682E-38
   3.390000      3.3252112E-38
   3.400000      3.5770032E-38
   3.410000      3.6708829E-38
   3.420000      3.6500952E-38
   3.430000      3.5706635E-38
   3.440000      3.4423777E-38
   3.450000      3.2814097E-38
   3.460000      3.2266567E-38
   3.470000      3.4525334E-38
   3.480000      3.8791742E-38
   3.490000      4.4132376E-38
   3.500000      4.6224386E-38
   3.510000      4.5001349E-38
   3.520000      4.3641812E-38
   3.530000      4.2079115E-38
   3.540000      4.2191799E-38
   3.550000      4.3961883E-38
   3.560000      4.2920118E-38
   3.570000      3.8285038E-38
   3.580000      3.2293949E-38
   3.590000      2.3671574E-38
   3.600000      1.2627316E-38
   3.610000      0.0000000E+00
   3.620000     -1.6504423E-38
   3.630000     -3.2263877E-38
   3.640000     -4.7903702E-38
   3.650000     -6.3349256E-38
   3.660000     -7.9925250E-38
   3.670000     -9.7165710E-38
   3.680000     -1.1575269E-37
   3.690000     -1.3603994E-37
   3.700000     -1.5637569E-37
   3.710000     -1.7632097E-37
   3.720000     -1.9242727E-37
   3.730000     -2.0431160E-37
   3.740000     -2.1502941E-37
   3.750000     -2.2507239E-37
   3.760000     -2.3843533E-37
   3.770000     -2.6283987E-37
   3.780000     -2.9444469E-37
   3.790000     -3.2684838E-37
   3.800000     -3.6097960E-37
   3.810000     -3.9579538E-37
   3.820000     -4.3220757E-37
   3.830000     -4.6622200E-37
   3.840000     -4.8491303E-37
   3.850000     -4.8877349E-37
   3.860000     -4.8710722E-37
   3.870000     -4.7060042E-37
   3.880000     -4.3866637E-37
   3.890000     -4.0482360E-37
   3.900000     -3.6438347E-37
   3.910000     -3.1383447E-37
   3.920000     -2.5816931E-37
   3.930000     -1.9639880E-37
   3.940000     -1.2527803E-37
   3.950000     -4.4378413E-38
   3.960000      4.3754569E-38
   3.970000      1.3735633E-37
   3.980000      2.3348496E-37
   3.990000      3.2796758E-37
   4.000000      4.0323258E-37
   4.010000      4.6607963E-37
   4.020000      5.4103717E-37
   4.030000      6.2593514E-37
   4.040000      7.2111317E-37
   4.050000      8.2710133E-37
   4.060000      9.2061695E-37
   4.070000      1.0008240E-36
   4.080000      1.0889378E-36
   4.090000      1.1838518E-36
   4.100000      1.2627001E-36
   4.110000      1.3296139E-36
   4.120000      1.4520162E-36
   4.130000      1.7200600E-36
   4.140000      2.0874486E-36
   4.150000      2.4644611E-36
   4.160000      2.8544121E-36
   4.170000      3.2713967E-36
   4.180000      3.7146769E-36
   4.190000      4.0228650E-36
   4.200000      4.1978195E-36
   4.210000      4.3302908E-36
   4.220000      4.3918891E-36
   4.230000      4.4251476E-36
   4.240000      4.2936395E-36
   4.250000      3.9475172E-36
   4.260000      3.5345829E-36
   4.270000      3.0703778E-36
   4.280000      2.5100266E-36
   4.290000      1.8531797E-36
   4.300000      1.1274321E-36
   4.310000      3.6349680E-37
   4.320000     -3.8591231E-37
   4.330000     -1.0340266E-36
   4.340000     -1.5702937E-36
   4.350000     -1.8472954E-36
   4.360000     -1.9772193E-36
   4.370000     -2.0893693E-36
   4.380000     -2.0914196E-36
   4.390000     -2.1239640E-36
   4.400000     -2.2550572E-36
   4.410000     -2.4721473E-36
   4.420000     -2.7121451E-36
   4.430000     -2.9298219E-36
   4.440000     -3.2459177E-36
   4.450000     -3.7562512E-36
   4.460000     -4.4890557E-36
   4.470000     -5.5081836E-36
   4.480000     -6.7569229E-36
   4.490000     -8.0239930E-36
   4.500000     -9.3644189E-36
   4.510000     -1.0973606E-35
   4.520000     -1.2692862E-35
   4.530000     -1.4429012E-35
   4.540000     -1.6149879E-35
   4.550000     -1.7778221E-35
   4.560000     -1.9285626E-35
   4.570000     -2.0616403E-35
   4.580000     -2.1670848E-35
   4.590000     -2.2418630E-35
   4.600000     -2.2905051E-35
   4.610000     -2.3119945E-35
   4.620000     -2.3080492E-35
   4.630000     -2.2770329E-35
   4.640000     -2.2418570E-35
   4.650000     -2.2088596E-35
   4.660000     -2.1708967E-35
   4.670000     -2.1112229E-35
   4.680000     -2.0141605E-35
   4.690000     -1.9181636E-35
   4.700000     -1.8228792E-35
   4.710000     -1.7087284E-35
   4.720000     -1.5755247E-35
   4.730000     -1.4207432E-35
   4.740000     -1.2371293E-35
   4.750000     -1.0141117E-35
   4.760000     -7.6175779E-36
   4.770000     -4.8012932E-36
   4.780000     -1.5991041E-36
   4.790000      2.0000566E-36
   4.800000      6.1286232E-36
   4.810000      1.0690326E-35
   4.820000      1.5681128E-35
   4.830000      2.1235947E-35
   4.840000      2.7025106E-35
   4.850000      3.2613101E-35
   4.860000      3.7751176E-35
   4.870000      4.2630890E-35
   4.880000      4.7176408E-35
   4.890000      5.1682836E-35
   4.900000      5.7150997E-35
   4.910000      6.4213302E-35
   4.920000      7.2110913E-35
   4.930000      8.0277270E-35
   4.940000      8.8483403E-35
   4.950000      9.5803656E-35
   4.960000      1.0178404E-34
   4.970000      1.0700369E-34
   4.980000      1.1216512E-34
   4.990000      1.1722869E-34
   5.000000      1.2358494E-34
   5.010000      1.3164156E-34
   5.020000      1.4067372E-34
   5.030000      1.4976628E-34
   5.040000      1.5891545E-34
   5.050000      1.6812771E-34
   5.060000      1.7701212E-34
   5.070000      1.8634881E-34
   5.080000      1.9707835E-34
   5.090000      2.0776576E-34
   5.100000      2.1695355E-34
   5.110000      2.2524010E-34
   5.120000      2.3235115E-34
   5.130000      2.3558744E-34
   5.140000      2.3394473E-34
   5.150000      2.2666598E-34
   5.160000      2.1413094E-34
   5.170000      1.9867801E-34
   5.180000      1.7798414E-34
   5.190000      1.5412517E-34
   5.200000      1.2912195E-34
   5.210000      1.0175218E-34
   5.220000      7.3235353E-35
   5.230000      4.4389591E-35
   5.240000      1.5495971E-35
   5.250000     -1.1495242E-35
   5.260000     -3.6560816E-35
   5.270000     -6.2484717E-35
   5.280000     -8.7551445E-35
   5.290000     -1.1120144E-34
   5.300000     -1.3400793E-34
   5.310000     -1.5470422E-34
   5.320000     -1.7258335E-34
   5.330000     -1.9253267E-34
   5.340000     -2.1759183E-34
   5.350000     -2.4807800E-34
   5.360000     -2.8425228E-34
   5.370000     -3.2290286E-34
   5.380000     -3.6533393E-34
   5.390000     -4.1118186E-34
   5.400000     -4.6266291E-34
   5.410000     -5.2094278E-34
   5.420000     -5.8300107E-34
   5.430000     -6.4919747E-34
   5.440000     -7.1979303E-34
   5.450000     -7.9392539E-34
   5.460000     -8.7125575E-34
   5.470000     -9.5135348E-34
   5.480000     -1.0327279E-33
   5.490000     -1.1128404E-33
   5.500000     -1.1903305E-33
   5.510000     -1.2633012E-33
   5.520000     -1.3314732E-33
   5.530000     -1.3958529E-33
   5.540000     -1.4554368E-33
   5.550000     -1.5102353E-33
   5.560000     -1.5608278E-33
   5.570000     -1.6068615E-33
   5.580000     -1.6477005E-33
   5.590000     -1.6820604E-33
   5.600000     -1.7097703E-33
   5.610000     -1.7310734E-33
   5.620000     -1.7449518E-33
   5.630000     -1.7506186E-33
   5.640000     -1.7469102E-33
   5.650000     -1.7338667E-33
   5.660000     -1.7119597E-33
   5.670000     -1.6799767E-33
   5.680000     -1.6351227E-33
   5.690000     -1.5774392E-33
   5.700000     -1.5070349E-33
   5.710000     -1.4256829E-33
   5.720000     -1.3337217E-33
   5.730000     -1.2283468E-33
   5.740000     -1.1098210E-33
   5.750000     -9.7745992E-34
   5.760000     -8.3150154E-34
   5.770000     -6.7347442E-34
   5.780000     -4.9871519E-34
   5.790000     -3.0697530E-34
   5.800000     -9.9235118E-35
   5.810000      1.2764775E-34
   5.820000      3.7160928E-34
   5.830000      6.3274758E-34
   5.840000      9.1344847E-34
   5.850000      1.2183649E-33
   5.860000      1.5464446E-33
   5.870000      1.8936707E-33
   5.880000      2.2616644E-33
   5.890000      2.6508755E-33
   5.900000      3.0604756E-33
   5.910000      3.4890818E-33
   5.920000      3.9368187E-33
   5.930000      4.4035528E-33
   5.940000      4.8880901E-33
   5.950000      5.3885528E-33
   5.960000      5.9056447E-33
   5.970000      6.4389613E-33
   5.980000      6.9859027E-33
   5.990000      7.5450978E-33
   6.000000      8.1138204E-33
   6.010000      8.6898199E-33
   6.020000      9.2707566E-33
   6.030000      9.8530363E-33
   6.040000      1.0434580E-32
   6.050000      1.1012168E-32
   6.060000      1.1582925E-32
   6.070000      1.2144541E-32
   6.080000      1.2693398E-32
   6.090000      1.3226335E-32
   6.100000      1.3739028E-32
   6.110000      1.4226707E-32
   6.120000      1.4687919E-32
   6.130000      1.5116586E-32
   6.140000      1.5505535E-32
   6.150000      1.5852805E-32
   6.160000      1.6153949E-32
   6.170000      1.6404936E-32
   6.180000      1.6600731E-32
   6.190000      1.6734264E-32
   6.200000      1.6799971E-32
   6.210000      1.6794163E-32
   6.220000      1.6711709E-32
   6.230000      1.6546864E-32
   6.240000      1.6293925E-32
   6.250000      1.5948163E-32
   6.260000      1.5503194E-32
   6.270000      1.4950759E-32
   6.280000      1.4284862E-32
   6.290000      1.3499553E-32
   6.300000      1.2586875E-32
   6.310000      1.1541023E-32
   6.320000      1.0357444E-32
   6.330000      9.0294401E-33
   6.340000      7.5515491E-33
   6.350000      5.9190060E-33
   6.360000      4.1268121E-33
   6.370000      2.1702263E-33
   6.380000      4.5252015E-35
   6.390000     -2.2523473E-33
   6.400000     -4.7270147E-33
   6.410000     -7.3816916E-33
   6.420000     -1.0218060E-32
   6.430000     -1.3237145E-32
   6.440000     -1.6440169E-32
   6.450000     -1.9827394E-32
   6.460000     -2.3398020E-32
   6.470000     -2.7150317E-32
   6.480000     -3.1081261E-32
   6.490000     -3.5187180E-32
   6.500000     -3.9463444E-32
   6.510000     -4.3904432E-32
   6.520000     -4.8502745E-32
   6.530000     -5.3250217E-32
   6.540000     -5.8137917E-32
   6.550000     -6.3155667E-32
   6.560000     -6.8291872E-32
   6.570000     -7.3533261E-32
   6.580000     -7.8865374E-32
   6.590000     -8.4272413E-32
   6.600000     -8.9736557E-32
   6.610000     -9.5238029E-32
   6.620000     -1.0075589E-31
   6.630000     -1.0626822E-31
   6.640000     -1.1175103E-31
   6.650000     -1.1717794E-31
   6.660000     -1.2252111E-31
   6.670000     -1.2775083E-31
   6.680000     -1.3283565E-31
   6.690000     -1.3774207E-31
   6.700000     -1.4243491E-31
   6.710000     -1.4687761E-31
   6.720000     -1.5102931E-31
   6.730000     -1.5485015E-31
   6.740000     -1.5830124E-31
   6.750000     -1.6133653E-31
   6.760000     -1.6390896E-31
   6.770000     -1.6597219E-31
   6.780000     -1.6747755E-31
   6.790000     -1.6837495E-31
   6.800000     -1.6861334E-31
   6.810000     -1.6814071E-31
   6.820000     -1.6690361E-31
   6.830000     -1.6484797E-31
   6.840000     -1.6191930E-31
   6.850000     -1.5806260E-31
   6.860000     -1.5322280E-31
   6.870000     -1.4734426E-31
   6.880000     -1.4037234E-31
   6.890000     -1.3225349E-31
   6.900000     -1.2293346E-31
   6.910000     -1.1235905E-31
   6.920000     -1.0047919E-31
   6.930000     -8.7243833E-32
   6.940000     -7.2604808E-32
   6.950000     -5.6516446E-32
   6.960000     -3.8935450E-32
   6.970000     -1.9821468E-32
   6.980000      8.6253468E-34
   6.990000      2.3149895E-32
   7.000000      4.7069818E-32
   7.010000      7.2647032E-32
   7.020000      9.9900951E-32
   7.030000      1.2884544E-31
   7.040000      1.5948878E-31
   7.050000      1.9183260E-31
   7.060000      2.2587136E-31