  -2.600000      0.0000000E+00
  -2.590000      0.0000000E+00
  -2.580000      0.0000000E+00
  -2.570000      0.0000000E+00
  -2.560000      0.0000000E+00
  -2.550000      0.0000000E+00
  -2.540000      0.0000000E+00
  -2.530000      0.0000000E+00
  -2.520000      0.0000000E+00
  -2.510000      0.0000000E+00
  -2.500000      0.0000000E+00
  -2.490000      0.0000000E+00
  -2.480000      0.0000000E+00
  -2.470000      0.0000000E+00
  -2.460000      0.0000000E+00
  -2.450000      0.0000000E+00
  -2.440000      0.0000000E+00
  -2.430000      0.0000000E+00
  -2.420000      0.0000000E+00
  -2.410000      0.0000000E+00
  -2.400000      0.0000000E+00
  -2.390000      0.0000000E+00
  -2.380000      0.0000000E+00
  -2.370000      0.0000000E+00
  -2.360000      0.0000000E+00
  -2.350000      0.0000000E+00
  -2.340000      0.0000000E+00
  -2.330000      0.0000000E+00
  -2.320000      0.0000000E+00
  -2.310000      0.0000000E+00
  -2.300000      0.0000000E+00
  -2.290000      0.0000000E+00
  -2.280000      0.0000000E+00
  -2.270000      0.0000000E+00
  -2.260000      0.0000000E+00
  -2.250000      0.0000000E+00
  -2.240000      0.0000000E+00
  -2.230000      0.0000000E+00
  -2.220000      0.0000000E+00
  -2.210000      0.0000000E+00
  -2.200000      0.0000000E+00
  -2.190000      0.0000000E+00
  -2.180000      0.0000000E+00
  -2.170000      0.0000000E+00
  -2.160000      0.0000000E+00
  -2.150000      0.0000000E+00
  -2.140000      0.0000000E+00
  -2.130000      0.0000000E+00
  -2.120000      0.0000000E+00
  -2.110000      0.0000000E+00
  -2.100000      0.0000000E+00
  -2.090000      0.0000000E+00
  -2.080000      0.0000000E+00
  -2.070000      0.0000000E+00
  -2.060000      0.0000000E+00
  -2.050000      0.0000000E+00
  -2.040000      0.0000000E+00
  -2.030000      0.0000000E+00
  -2.020000      0.0000000E+00
  -2.010000      0.0000000E+00
  -2.000000      0.0000000E+00
  -1.990000      0.0000000E+00
  -1.980000      0.0000000E+00
  -1.970000      0.0000000E+00
  -1.960000      0.0000000E+00
  -1.950000      0.0000000E+00
  -1.940000      0.0000000E+00
  -1.930000      0.0000000E+00
  -1.920000      0.0000000E+00
  -1.910000      0.0000000E+00
  -1.900000      0.0000000E+00
  -1.890000      0.0000000E+00
  -1.880000      0.0000000E+00
  -1.870000      0.0000000E+00
  -1.860000      0.0000000E+00
  -1.850000      0.0000000E+00
  -1.840000      0.0000000E+00
  -1.830000      0.0000000E+00
  -1.820000      0.0000000E+00
  -1.810000      0.0000000E+00
  -1.800000      0.0000000E+00
  -1.790000      0.0000000E+00
  -1.780000      0.0000000E+00
  -1.770000      0.0000000E+00
  -1.760000      0.0000000E+00
  -1.750000      0.0000000E+00
  -1.740000      0.0000000E+00
  -1.730000      0.0000000E+00
  -1.720000      0.0000000E+00
  -1.710000      0.0000000E+00
  -1.700000      0.0000000E+00
  -1.690000      0.0000000E+00
  -1.680000      0.0000000E+00
  -1.670000      0.0000000E+00
  -1.660000      0.0000000E+00
  -1.650000      0.0000000E+00
  -1.640000      0.0000000E+00
  -1.630000      0.0000000E+00
  -1.620000      0.0000000E+00
  -1.610000      0.0000000E+00
  -1.600000      0.0000000E+00
  -1.590000      0.0000000E+00
  -1.580000      0.0000000E+00
  -1.570000      0.0000000E+00
  -1.560000      0.0000000E+00
  -1.550000      0.0000000E+00
  -1.540000      0.0000000E+00
  -1.530000      0.0000000E+00
  -1.520000      0.0000000E+00
  -1.510000      0.0000000E+00
  -1.500000      0.0000000E+00
  -1.490000      0.0000000E+00
  -1.480000      0.0000000E+00
  -1.470000      0.0000000E+00
  -1.460000      0.0000000E+00
  -1.450000      0.0000000E+00
  -1.440000      0.0000000E+00
  -1.430000      0.0000000E+00
  -1.420000      0.0000000E+00
  -1.410000      0.0000000E+00
  -1.400000      0.0000000E+00
  -1.390000      0.0000000E+00
  -1.380000      0.0000000E+00
  -1.370000      0.0000000E+00
  -1.360000      0.0000000E+00
  -1.350000      0.0000000E+00
  -1.340000      0.0000000E+00
  -1.330000      0.0000000E+00
  -1.320000      0.0000000E+00
  -1.310000      0.0000000E+00
  -1.300000      0.0000000E+00
  -1.290000      0.0000000E+00
  -1.280000      0.0000000E+00
  -1.270000      0.0000000E+00
  -1.260000      0.0000000E+00
  -1.250000      0.0000000E+00
  -1.240000      0.0000000E+00
  -1.230000      0.0000000E+00
  -1.220000      0.0000000E+00
  -1.210000      0.0000000E+00
  -1.200000      0.0000000E+00
  -1.190000      0.0000000E+00
  -1.180000      0.0000000E+00
  -1.170000      0.0000000E+00
  -1.160000      0.0000000E+00
  -1.150000      0.0000000E+00
  -1.140000      0.0000000E+00
  -1.130000      0.0000000E+00
  -1.120000      0.0000000E+00
  -1.110000      0.0000000E+00
  -1.100000      0.0000000E+00
  -1.090000      0.0000000E+00
  -1.080000      0.0000000E+00
  -1.070000      0.0000000E+00
  -1.060000      0.0000000E+00
  -1.050000      0.0000000E+00
  -1.040000      0.0000000E+00
  -1.030000      0.0000000E+00
  -1.020000      0.0000000E+00
  -1.010000      0.0000000E+00
  -1.000000      0.0000000E+00
 -0.9900000      0.0000000E+00
 -0.9800000      0.0000000E+00
 -0.9700000      0.0000000E+00
 -0.9600000      0.0000000E+00
 -0.9500000      0.0000000E+00
 -0.9400000      0.0000000E+00
 -0.9300000      0.0000000E+00
 -0.9200000      0.0000000E+00
 -0.9100000      0.0000000E+00
 -0.9000000      0.0000000E+00
 -0.8900000      0.0000000E+00
 -0.8800000      0.0000000E+00
 -0.8700000      0.0000000E+00
 -0.8600000      0.0000000E+00
 -0.8500000      0.0000000E+00
 -0.8400000      0.0000000E+00
 -0.8300000      0.0000000E+00
 -0.8200000      0.0000000E+00
 -0.8100000      0.0000000E+00
 -0.8000000      0.0000000E+00
 -0.7900000      0.0000000E+00
 -0.7800000      0.0000000E+00
 -0.7700000      0.0000000E+00
 -0.7600000      0.0000000E+00
 -0.7500000      0.0000000E+00
 -0.7400000      0.0000000E+00
 -0.7300000      0.0000000E+00
 -0.7200000      0.0000000E+00
 -0.7100000      0.0000000E+00
 -0.7000000      0.0000000E+00
 -0.6900000      0.0000000E+00
 -0.6800000      0.0000000E+00
 -0.6700000      0.0000000E+00
 -0.6600000      0.0000000E+00
 -0.6500000      0.0000000E+00
 -0.6400000      0.0000000E+00
 -0.6300000      0.0000000E+00
 -0.6200000      0.0000000E+00
 -0.6100000      0.0000000E+00
 -0.6000000      0.0000000E+00
 -0.5900000      0.0000000E+00
 -0.5800000      0.0000000E+00
 -0.5700000      0.0000000E+00
 -0.5600000      0.0000000E+00
 -0.5500000      0.0000000E+00
 -0.5400000      0.0000000E+00
 -0.5300000      0.0000000E+00
 -0.5200000      0.0000000E+00
 -0.5100000      0.0000000E+00
 -0.5000000      0.0000000E+00
 -0.4900000      0.0000000E+00
 -0.4800000      0.0000000E+00
 -0.4700000      0.0000000E+00
 -0.4600000      0.0000000E+00
 -0.4500000      0.0000000E+00
 -0.4400000      0.0000000E+00
 -0.4300000      0.0000000E+00
 -0.4200000      0.0000000E+00
 -0.4100000      0.0000000E+00
 -0.4000000      0.0000000E+00
 -0.3900000      0.0000000E+00
 -0.3800000      0.0000000E+00
 -0.3700000      0.0000000E+00
 -0.3600000      0.0000000E+00
 -0.3500000      0.0000000E+00
 -0.3400000      0.0000000E+00
 -0.3300000      0.0000000E+00
 -0.3200000      0.0000000E+00
 -0.3100000      0.0000000E+00
 -0.3000000      0.0000000E+00
 -0.2900000      0.0000000E+00
 -0.2800000      0.0000000E+00
 -0.2700000      0.0000000E+00
 -0.2600000      0.0000000E+00
 -0.2500000      0.0000000E+00
 -0.2400000      0.0000000E+00
 -0.2300000      0.0000000E+00
 -0.2200000      0.0000000E+00
 -0.2100000      0.0000000E+00
 -0.2000000      0.0000000E+00
 -0.1900000      0.0000000E+00
 -0.1800000      0.0000000E+00
 -0.1700000      0.0000000E+00
 -0.1600000      0.0000000E+00
 -0.1500000      0.0000000E+00
 -0.1400000      0.0000000E+00
 -0.1300000      0.0000000E+00
 -0.1200000      0.0000000E+00
 -0.1100000      0.0000000E+00
 -0.1000000      0.0000000E+00
 -9.0000004E-02  0.0000000E+00
 -7.9999998E-02  0.0000000E+00
 -7.0000000E-02  0.0000000E+00
 -5.9999999E-02  0.0000000E+00
 -5.0000001E-02  0.0000000E+00
 -3.9999999E-02  0.0000000E+00
 -2.9999999E-02  0.0000000E+00
 -2.0000000E-02  0.0000000E+00
 -9.9999998E-03  0.0000000E+00
 -3.4694470E-17  0.0000000E+00
  9.9999998E-03  0.0000000E+00
  2.0000000E-02  0.0000000E+00
  2.9999999E-02  0.0000000E+00
  3.9999999E-02  0.0000000E+00
  5.0000001E-02  0.0000000E+00
  5.9999999E-02  0.0000000E+00
  7.0000000E-02  0.0000000E+00
  7.9999998E-02  0.0000000E+00
  9.0000004E-02  0.0000000E+00
  0.1000000      0.0000000E+00
  0.1100000      0.0000000E+00
  0.1200000      0.0000000E+00
  0.1300000      0.0000000E+00
  0.1400000      0.0000000E+00
  0.1500000      0.0000000E+00
  0.1600000      0.0000000E+00
  0.1700000      0.0000000E+00
  0.1800000      0.0000000E+00
  0.1900000      0.0000000E+00
  0.2000000      0.0000000E+00
  0.2100000      0.0000000E+00
  0.2200000      0.0000000E+00
  0.2300000      0.0000000E+00
  0.2400000      0.0000000E+00
  0.2500000      0.0000000E+00
  0.2600000      0.0000000E+00
  0.2700000      0.0000000E+00
  0.2800000      0.0000000E+00
  0.2900000      0.0000000E+00
  0.3000000      0.0000000E+00
  0.3100000      0.0000000E+00
  0.3200000      0.0000000E+00
  0.3300000      0.0000000E+00
  0.3400000      0.0000000E+00
  0.3500000      0.0000000E+00
  0.3600000      0.0000000E+00
  0.3700000      0.0000000E+00
  0.3800000      0.0000000E+00
  0.3900000      0.0000000E+00
  0.4000000      0.0000000E+00
  0.4100000      0.0000000E+00
  0.4200000      0.0000000E+00
  0.4300000      0.0000000E+00
  0.4400000      0.0000000E+00
  0.4500000      0.0000000E+00
  0.4600000      0.0000000E+00
  0.4700000      0.0000000E+00
  0.4800000      0.0000000E+00
  0.4900000      0.0000000E+00
  0.5000000      0.0000000E+00
  0.5100000      0.0000000E+00
  0.5200000      0.0000000E+00
  0.5300000      0.0000000E+00
  0.5400000      0.0000000E+00
  0.5500000      0.0000000E+00
  0.5600000      0.0000000E+00
  0.5700000      0.0000000E+00
  0.5800000      0.0000000E+00
  0.5900000      0.0000000E+00
  0.6000000      0.0000000E+00
  0.6100000      0.0000000E+00
  0.6200000      0.0000000E+00
  0.6300000      0.0000000E+00
  0.6400000      0.0000000E+00
  0.6500000      0.0000000E+00
  0.6600000      0.0000000E+00
  0.6700000      0.0000000E+00
  0.6800000      0.0000000E+00
  0.6900000      0.0000000E+00
  0.7000000      0.0000000E+00
  0.7100000      0.0000000E+00
  0.7200000      0.0000000E+00
  0.7300000      0.0000000E+00
  0.7400000      0.0000000E+00
  0.7500000      0.0000000E+00
  0.7600000      0.0000000E+00
  0.7700000      0.0000000E+00
  0.7800000      0.0000000E+00
  0.7900000      0.0000000E+00
  0.8000000      0.0000000E+00
  0.8100000      0.0000000E+00
  0.8200000      0.0000000E+00
  0.8300000      0.0000000E+00
  0.8400000      0.0000000E+00
  0.8500000      0.0000000E+00
  0.8600000      0.0000000E+00
  0.8700000      0.0000000E+00
  0.8800000      0.0000000E+00
  0.8900000      0.0000000E+00
  0.9000000      0.0000000E+00
  0.9100000      0.0000000E+00
  0.9200000      0.0000000E+00
  0.9300000      0.0000000E+00
  0.9400000      0.0000000E+00
  0.9500000      0.0000000E+00
  0.9600000      0.0000000E+00
  0.9700000      0.0000000E+00
  0.9800000      0.0000000E+00
  0.9900000      0.0000000E+00
   1.000000      0.0000000E+00
   1.010000      0.0000000E+00
   1.020000      0.0000000E+00
   1.030000      0.0000000E+00
   1.040000      0.0000000E+00
   1.050000      0.0000000E+00
   1.060000      0.0000000E+00
   1.070000      0.0000000E+00
   1.080000      0.0000000E+00
   1.090000      0.0000000E+00
   1.100000      0.0000000E+00
   1.110000      0.0000000E+00
   1.120000      0.0000000E+00
   1.130000      0.0000000E+00
   1.140000      0.0000000E+00
   1.150000      0.0000000E+00
   1.160000      0.0000000E+00
   1.170000      0.0000000E+00
   1.180000      0.0000000E+00
   1.190000      0.0000000E+00
   1.200000      0.0000000E+00
   1.210000      0.0000000E+00
   1.220000      0.0000000E+00
   1.230000      0.0000000E+00
   1.240000      0.0000000E+00
   1.250000      0.0000000E+00
   1.260000      0.0000000E+00
   1.270000      0.0000000E+00
   1.280000      0.0000000E+00
   1.290000      0.0000000E+00
   1.300000      0.0000000E+00
   1.310000      0.0000000E+00
   1.320000      0.0000000E+00
   1.330000      0.0000000E+00
   1.340000      0.0000000E+00
   1.350000      0.0000000E+00
   1.360000      0.0000000E+00
   1.370000      0.0000000E+00
   1.380000      0.0000000E+00
   1.390000      0.0000000E+00
   1.400000      0.0000000E+00
   1.410000      0.0000000E+00
   1.420000      0.0000000E+00
   1.430000      0.0000000E+00
   1.440000      0.0000000E+00
   1.450000      0.0000000E+00
   1.460000      0.0000000E+00
   1.470000      0.0000000E+00
   1.480000      0.0000000E+00
   1.490000      0.0000000E+00
   1.500000      0.0000000E+00
   1.510000      0.0000000E+00
   1.520000      0.0000000E+00
   1.530000      0.0000000E+00
   1.540000      0.0000000E+00
   1.550000      0.0000000E+00
   1.560000      0.0000000E+00
   1.570000      0.0000000E+00
   1.580000      0.0000000E+00
   1.590000      0.0000000E+00
   1.600000      0.0000000E+00
   1.610000      0.0000000E+00
   1.620000      0.0000000E+00
   1.630000      0.0000000E+00
   1.640000      0.0000000E+00
   1.650000      0.0000000E+00
   1.660000      0.0000000E+00
   1.670000      0.0000000E+00
   1.680000      0.0000000E+00
   1.690000      0.0000000E+00
   1.700000      0.0000000E+00
   1.710000      0.0000000E+00
   1.720000      0.0000000E+00
   1.730000      0.0000000E+00
   1.740000      0.0000000E+00
   1.750000      0.0000000E+00
   1.760000      0.0000000E+00
   1.770000      0.0000000E+00
   1.780000      0.0000000E+00
   1.790000      0.0000000E+00
   1.800000      0.0000000E+00
   1.810000      0.0000000E+00
   1.820000      0.0000000E+00
   1.830000      0.0000000E+00
   1.840000      0.0000000E+00
   1.850000      0.0000000E+00
   1.860000      0.0000000E+00
   1.870000      0.0000000E+00
   1.880000      0.0000000E+00
   1.890000      0.0000000E+00
   1.900000      0.0000000E+00
   1.910000      0.0000000E+00
   1.920000      0.0000000E+00
   1.930000      0.0000000E+00
   1.940000      0.0000000E+00
   1.950000      0.0000000E+00
   1.960000      0.0000000E+00
   1.970000      0.0000000E+00
   1.980000      0.0000000E+00
   1.990000      0.0000000E+00
   2.000000      0.0000000E+00
   2.010000      0.0000000E+00
   2.020000      0.0000000E+00
   2.030000      0.0000000E+00
   2.040000      0.0000000E+00
   2.050000      0.0000000E+00
   2.060000      0.0000000E+00
   2.070000      0.0000000E+00
   2.080000      0.0000000E+00
   2.090000      0.0000000E+00
   2.100000      0.0000000E+00
   2.110000      0.0000000E+00
   2.120000      0.0000000E+00
   2.130000      0.0000000E+00
   2.140000      0.0000000E+00
   2.150000      0.0000000E+00
   2.160000      0.0000000E+00
   2.170000      0.0000000E+00
   2.180000      0.0000000E+00
   2.190000      0.0000000E+00
   2.200000      0.0000000E+00
   2.210000      0.0000000E+00
   2.220000      0.0000000E+00
   2.230000      0.0000000E+00
   2.240000      0.0000000E+00
   2.250000      0.0000000E+00
   2.260000      0.0000000E+00
   2.270000      0.0000000E+00
   2.280000      0.0000000E+00
   2.290000      0.0000000E+00
   2.300000      0.0000000E+00
   2.310000      0.0000000E+00
   2.320000      0.0000000E+00
   2.330000      0.0000000E+00
   2.340000      0.0000000E+00
   2.350000      0.0000000E+00
   2.360000      0.0000000E+00
   2.370000      0.0000000E+00
   2.380000      0.0000000E+00
   2.390000      0.0000000E+00
   2.400000      0.0000000E+00
   2.410000      0.0000000E+00
   2.420000      0.0000000E+00
   2.430000      0.0000000E+00
   2.440000      0.0000000E+00
   2.450000      0.0000000E+00
   2.460000      0.0000000E+00
   2.470000      0.0000000E+00
   2.480000      0.0000000E+00
   2.490000      0.0000000E+00
   2.500000      0.0000000E+00
   2.510000      0.0000000E+00
   2.520000      0.0000000E+00
   2.530000      0.0000000E+00
   2.540000      0.0000000E+00
   2.550000      0.0000000E+00
   2.560000      0.0000000E+00
   2.570000      0.0000000E+00
   2.580000      0.0000000E+00
   2.590000      0.0000000E+00
   2.600000      0.0000000E+00
   2.610000      0.0000000E+00
   2.620000      0.0000000E+00
   2.630000      0.0000000E+00
   2.640000      0.0000000E+00
   2.650000      0.0000000E+00
   2.660000      0.0000000E+00
   2.670000      0.0000000E+00
   2.680000      0.0000000E+00
   2.690000      0.0000000E+00
   2.700000      0.0000000E+00
   2.710000      0.0000000E+00
   2.720000      0.0000000E+00
   2.730000      0.0000000E+00
   2.740000      0.0000000E+00
   2.750000      0.0000000E+00
   2.760000      0.0000000E+00
   2.770000      0.0000000E+00
   2.780000      0.0000000E+00
   2.790000      0.0000000E+00
   2.800000      0.0000000E+00
   2.810000      0.0000000E+00
   2.820000      0.0000000E+00
   2.830000      0.0000000E+00
   2.840000      0.0000000E+00
   2.850000      0.0000000E+00
   2.860000      0.0000000E+00
   2.870000      0.0000000E+00
   2.880000      0.0000000E+00
   2.890000      0.0000000E+00
   2.900000      0.0000000E+00
   2.910000      0.0000000E+00
   2.920000      0.0000000E+00
   2.930000      0.0000000E+00
   2.940000      0.0000000E+00
   2.950000      0.0000000E+00
   2.960000      0.0000000E+00
   2.970000      0.0000000E+00
   2.980000      0.0000000E+00
   2.990000      0.0000000E+00
   3.000000      0.0000000E+00
   3.010000      0.0000000E+00
   3.020000      0.0000000E+00
   3.030000      0.0000000E+00
   3.040000      0.0000000E+00
   3.050000      0.0000000E+00
   3.060000      0.0000000E+00
   3.070000      0.0000000E+00
   3.080000      0.0000000E+00
   3.090000      0.0000000E+00
   3.100000      0.0000000E+00
   3.110000      0.0000000E+00
   3.120000      0.0000000E+00
   3.130000      0.0000000E+00
   3.140000      0.0000000E+00
   3.150000      0.0000000E+00
   3.160000      0.0000000E+00
   3.170000      0.0000000E+00
   3.180000      0.0000000E+00
   3.190000      0.0000000E+00
   3.200000      0.0000000E+00
   3.210000      0.0000000E+00
   3.220000      0.0000000E+00
   3.230000      0.0000000E+00
   3.240000      0.0000000E+00
   3.250000      0.0000000E+00
   3.260000      0.0000000E+00
   3.270000      0.0000000E+00
   3.280000      0.0000000E+00
   3.290000      0.0000000E+00
   3.300000      0.0000000E+00
   3.310000      0.0000000E+00
   3.320000      0.0000000E+00
   3.330000      0.0000000E+00
   3.340000      0.0000000E+00
   3.350000      0.0000000E+00
   3.360000      0.0000000E+00
   3.370000      0.0000000E+00
   3.380000      0.0000000E+00
   3.390000      0.0000000E+00
   3.400000      0.0000000E+00
   3.410000      0.0000000E+00
   3.420000      0.0000000E+00
   3.430000      0.0000000E+00
   3.440000      1.4222225E-38
   3.450000      1.6979140E-38
   3.460000      1.9756872E-38
   3.470000      2.2481286E-38
   3.480000      2.5027687E-38
   3.490000      2.7456409E-38
   3.500000      2.9215411E-38
   3.510000      3.0062174E-38
   3.520000      3.0936407E-38
   3.530000      3.1686040E-38
   3.540000      3.1678311E-38
   3.550000      3.1108854E-38
   3.560000      2.9468572E-38
   3.570000      2.6561223E-38
   3.580000      2.3020789E-38
   3.590000      1.9758024E-38
   3.600000      1.6737224E-38
   3.610000      0.0000000E+00
   3.620000      0.0000000E+00
   3.630000     -1.5153842E-38
   3.640000     -3.1400363E-38
   3.650000     -4.9966727E-38
   3.660000     -7.1308245E-38
   3.670000     -9.4846629E-38
   3.680000     -1.2039331E-37
   3.690000     -1.4895853E-37
   3.700000     -1.7806777E-37
   3.710000     -2.0540204E-37
   3.720000     -2.3081695E-37
   3.730000     -2.5413175E-37
   3.740000     -2.7383199E-37
   3.750000     -2.9013306E-37
   3.760000     -3.0454715E-37
   3.770000     -3.1711745E-37
   3.780000     -3.2647351E-37
   3.790000     -3.3296834E-37
   3.800000     -3.3715705E-37
   3.810000     -3.3887829E-37
   3.820000     -3.4013231E-37
   3.830000     -3.4261218E-37
   3.840000     -3.4798115E-37
   3.850000     -3.5230870E-37
   3.860000     -3.5028099E-37
   3.870000     -3.4555856E-37
   3.880000     -3.4402799E-37
   3.890000     -3.4107889E-37
   3.900000     -3.3440916E-37
   3.910000     -3.2601061E-37
   3.920000     -3.1181099E-37
   3.930000     -2.9433550E-37
   3.940000     -2.7476423E-37
   3.950000     -2.4915199E-37
   3.960000     -2.1948892E-37
   3.970000     -1.8507371E-37
   3.980000     -1.4069951E-37
   3.990000     -8.6343084E-38
   4.000000     -2.2098405E-38
   4.010000      5.5144917E-38
   4.020000      1.4357203E-37
   4.030000      2.4191696E-37
   4.040000      3.5141180E-37
   4.050000      4.7121188E-37
   4.060000      5.9914581E-37
   4.070000      7.3350109E-37
   4.080000      8.7368166E-37
   4.090000      1.0203546E-36
   4.100000      1.1741829E-36
   4.110000      1.3360202E-36
   4.120000      1.4997311E-36
   4.130000      1.6634727E-36
   4.140000      1.8294495E-36
   4.150000      1.9880354E-36
   4.160000      2.1379696E-36
   4.170000      2.2829404E-36
   4.180000      2.4181126E-36
   4.190000      2.5520966E-36
   4.200000      2.6813316E-36
   4.210000      2.7875662E-36
   4.220000      2.8623600E-36
   4.230000      2.9055867E-36
   4.240000      2.9179276E-36
   4.250000      2.9145970E-36
   4.260000      2.8983720E-36
   4.270000      2.8659500E-36
   4.280000      2.8214218E-36
   4.290000      2.7528296E-36
   4.300000      2.6103655E-36
   4.310000      2.3697992E-36
   4.320000      2.0787533E-36
   4.330000      1.7636514E-36
   4.340000      1.4130212E-36
   4.350000      9.0718951E-37
   4.360000      2.5717349E-37
   4.370000     -4.1792500E-37
   4.380000     -1.1022643E-36
   4.390000     -1.8090660E-36
   4.400000     -2.5596384E-36
   4.410000     -3.3162720E-36
   4.420000     -4.0773755E-36
   4.430000     -4.7194789E-36
   4.440000     -5.2800341E-36
   4.450000     -5.7496640E-36
   4.460000     -6.0872341E-36
   4.470000     -6.4094891E-36
   4.480000     -6.7224444E-36
   4.490000     -7.0792411E-36
   4.500000     -7.4727842E-36
   4.510000     -7.9224868E-36
   4.520000     -8.4411192E-36
   4.530000     -8.9917627E-36
   4.540000     -9.6129107E-36
   4.550000     -1.0258789E-35
   4.560000     -1.0948062E-35
   4.570000     -1.1775152E-35
   4.580000     -1.2679164E-35
   4.590000     -1.3441309E-35
   4.600000     -1.3893296E-35
   4.610000     -1.4158237E-35
   4.620000     -1.4364085E-35
   4.630000     -1.4583196E-35
   4.640000     -1.4771141E-35
   4.650000     -1.4820956E-35
   4.660000     -1.4683275E-35
   4.670000     -1.4159439E-35
   4.680000     -1.3271816E-35
   4.690000     -1.2250110E-35
   4.700000     -1.1060665E-35
   4.710000     -9.5956736E-36
   4.720000     -8.0268672E-36
   4.730000     -6.4955347E-36
   4.740000     -4.9239894E-36
   4.750000     -3.3764156E-36
   4.760000     -1.7317906E-36
   4.770000      1.0185726E-37
   4.780000      2.1125613E-36
   4.790000      4.3679394E-36
   4.800000      6.7521317E-36
   4.810000      9.1862207E-36
   4.820000      1.1724831E-35
   4.830000      1.4491597E-35
   4.840000      1.7447671E-35
   4.850000      2.0470045E-35
   4.860000      2.3575945E-35
   4.870000      2.6742075E-35
   4.880000      3.0013654E-35
   4.890000      3.3349512E-35
   4.900000      3.6758779E-35
   4.910000      4.0327363E-35
   4.920000      4.4083500E-35
   4.930000      4.8032685E-35
   4.940000      5.2096917E-35
   4.950000      5.6133322E-35
   4.960000      6.0151607E-35
   4.970000      6.4419570E-35
   4.980000      6.8655672E-35
   4.990000      7.2623441E-35
   5.000000      7.6579525E-35
   5.010000      8.0439974E-35
   5.020000      8.4035339E-35
   5.030000      8.6978173E-35
   5.040000      8.8554220E-35
   5.050000      8.9023832E-35
   5.060000      8.8611204E-35
   5.070000      8.7474297E-35
   5.080000      8.5638540E-35
   5.090000      8.2991365E-35
   5.100000      7.9879823E-35
   5.110000      7.6451696E-35
   5.120000      7.2746702E-35
   5.130000      6.8405081E-35
   5.140000      6.2813964E-35
   5.150000      5.6195632E-35
   5.160000      4.8702241E-35
   5.170000      4.0356076E-35
   5.180000      3.1894608E-35
   5.190000      2.1749851E-35
   5.200000      9.9137666E-36
   5.210000     -2.0623933E-36
   5.220000     -1.3773163E-35
   5.230000     -2.5360194E-35
   5.240000     -3.7823350E-35
   5.250000     -5.0750097E-35
   5.260000     -6.4291540E-35
   5.270000     -7.9068152E-35
   5.280000     -9.5213045E-35
   5.290000     -1.1304810E-34
   5.300000     -1.3075013E-34
   5.310000     -1.4720344E-34
   5.320000     -1.6335354E-34
   5.330000     -1.8035303E-34
   5.340000     -1.9872421E-34
   5.350000     -2.1904215E-34
   5.360000     -2.4209765E-34
   5.370000     -2.6713952E-34
   5.380000     -2.9294497E-34
   5.390000     -3.1923566E-34
   5.400000     -3.4649473E-34
   5.410000     -3.7286150E-34
   5.420000     -3.9626746E-34
   5.430000     -4.1894256E-34
   5.440000     -4.3929643E-34
   5.450000     -4.5395287E-34
   5.460000     -4.6551431E-34
   5.470000     -4.7681880E-34
   5.480000     -4.8743412E-34
   5.490000     -4.9400201E-34
   5.500000     -4.9558208E-34
   5.510000     -4.9382366E-34
   5.520000     -4.9018808E-34
   5.530000     -4.8509989E-34
   5.540000     -4.8010518E-34
   5.550000     -4.7204891E-34
   5.560000     -4.5845721E-34
   5.570000     -4.4523864E-34
   5.580000     -4.3464436E-34
   5.590000     -4.2234332E-34
   5.600000     -4.0656718E-34
   5.610000     -3.8783168E-34
   5.620000     -3.6564340E-34
   5.630000     -3.3968713E-34
   5.640000     -3.0780340E-34
   5.650000     -2.7362712E-34
   5.660000     -2.3806199E-34
   5.670000     -1.9699600E-34
   5.680000     -1.4992124E-34
   5.690000     -9.7643357E-35
   5.700000     -4.0892616E-35
   5.710000      2.3975639E-35
   5.720000      9.8041372E-35
   5.730000      1.7700185E-34
   5.740000      2.6082316E-34
   5.750000      3.5326004E-34
   5.760000      4.5721514E-34
   5.770000      5.6716496E-34
   5.780000      6.7979357E-34
   5.790000      7.9801905E-34
   5.800000      9.2452052E-34
   5.810000      1.0584356E-33
   5.820000      1.1961354E-33
   5.830000      1.3373731E-33
   5.840000      1.4797709E-33
   5.850000      1.6255325E-33
   5.860000      1.7770573E-33
   5.870000      1.9298001E-33
   5.880000      2.0810041E-33
   5.890000      2.2356406E-33
   5.900000      2.3921490E-33
   5.910000      2.5455448E-33
   5.920000      2.6974008E-33
   5.930000      2.8472123E-33
   5.940000      2.9941700E-33
   5.950000      3.1384465E-33
   5.960000      3.2790521E-33
   5.970000      3.4147031E-33
   5.980000      3.5440398E-33
   5.990000      3.6671736E-33
   6.000000      3.7845452E-33
   6.010000      3.8956357E-33
   6.020000      3.9962330E-33
   6.030000      4.0842118E-33
   6.040000      4.1604712E-33
   6.050000      4.2242727E-33
   6.060000      4.2751800E-33
   6.070000      4.3110862E-33
   6.080000      4.3293108E-33
   6.090000      4.3274355E-33
   6.100000      4.3044825E-33
   6.110000      4.2589898E-33
   6.120000      4.1883477E-33
   6.130000      4.0900128E-33
   6.140000      3.9614622E-33
   6.150000      3.8015961E-33
   6.160000      3.6090215E-33
   6.170000      3.3807434E-33
   6.180000      3.1149307E-33
   6.190000      2.8098830E-33
   6.200000      2.4637199E-33
   6.210000      2.0752949E-33
   6.220000      1.6431749E-33
   6.230000      1.1663150E-33
   6.240000      6.4355712E-34
   6.250000      7.2984969E-35
   6.260000     -5.4598902E-34
   6.270000     -1.2126172E-33
   6.280000     -1.9269769E-33
   6.290000     -2.6920503E-33
   6.300000     -3.5056019E-33
   6.310000     -4.3654815E-33
   6.320000     -5.2732181E-33
   6.330000     -6.2270954E-33
   6.340000     -7.2277988E-33
   6.350000     -8.2754641E-33
   6.360000     -9.3680207E-33
   6.370000     -1.0504120E-32
   6.380000     -1.1682465E-32
   6.390000     -1.2901327E-32
   6.400000     -1.4158613E-32
   6.410000     -1.5452452E-32
   6.420000     -1.6780912E-32
   6.430000     -1.8139994E-32
   6.440000     -1.9525890E-32
   6.450000     -2.0935939E-32
   6.460000     -2.2366084E-32
   6.470000     -2.3812074E-32
   6.480000     -2.5268726E-32
   6.490000     -2.6730265E-32
   6.500000     -2.8190635E-32
   6.510000     -2.9642976E-32
   6.520000     -3.1080144E-32
   6.530000     -3.2494155E-32
   6.540000     -3.3876178E-32
   6.550000     -3.5216961E-32
   6.560000     -3.6506543E-32
   6.570000     -3.7734212E-32
   6.580000     -3.8888780E-32
   6.590000     -3.9958674E-32
   6.600000     -4.0931010E-32
   6.610000     -4.1795069E-32
   6.620000     -4.2536777E-32
   6.630000     -4.3141316E-32
   6.640000     -4.3596564E-32
   6.650000     -4.3887710E-32
   6.660000     -4.4000385E-32
   6.670000     -4.3919963E-32
   6.680000     -4.3631347E-32
   6.690000     -4.3119742E-32
   6.700000     -4.2370359E-32
   6.710000     -4.1367736E-32
   6.720000     -4.0096615E-32
   6.730000     -3.8541915E-32
   6.740000     -3.6688554E-32
   6.750000     -3.4521560E-32
   6.760000     -3.2026214E-32
   6.770000     -2.9188030E-32
   6.780000     -2.5992631E-32
   6.790000     -2.2426290E-32
   6.800000     -1.8475678E-32
   6.810000     -1.4127716E-32
   6.820000     -9.3700315E-33
   6.830000     -4.1909055E-33
   6.840000      1.4206165E-33
   6.850000      7.4746086E-33
   6.860000      1.3980140E-32
   6.870000      2.0945113E-32
   6.880000      2.8376143E-32
   6.890000      3.6278395E-32
   6.900000      4.4655452E-32
   6.910000      5.3508967E-32
   6.920000      6.2838631E-32
   6.930000      7.2642048E-32
   6.940000      8.2914423E-32
   6.950000      9.3648449E-32
   6.960000      1.0483407E-31
   6.970000      1.1645831E-31
   6.980000      1.2850521E-31
   6.990000      1.4095556E-31
   7.000000      1.5378683E-31
   7.010000      1.6697295E-31
   7.020000      1.8048425E-31
   7.030000      1.9428726E-31
   7.040000      2.0834467E-31
   7.050000      2.2261514E-31
   7.060000      2.3705332E-31