  -2.600000      0.0000000E+00
  -2.590000      0.0000000E+00
  -2.580000      0.0000000E+00
  -2.570000      0.0000000E+00
  -2.560000      0.0000000E+00
  -2.550000      0.0000000E+00
  -2.540000      0.0000000E+00
  -2.530000      0.0000000E+00
  -2.520000      0.0000000E+00
  -2.510000      0.0000000E+00
  -2.500000      0.0000000E+00
  -2.490000      0.0000000E+00
  -2.480000      0.0000000E+00
  -2.470000      0.0000000E+00
  -2.460000      0.0000000E+00
  -2.450000      0.0000000E+00
  -2.440000      0.0000000E+00
  -2.430000      0.0000000E+00
  -2.420000      0.0000000E+00
  -2.410000      0.0000000E+00
  -2.400000      0.0000000E+00
  -2.390000      0.0000000E+00
  -2.380000      0.0000000E+00
  -2.370000      0.0000000E+00
  -2.360000      0.0000000E+00
  -2.350000      0.0000000E+00
  -2.340000      0.0000000E+00
  -2.330000      0.0000000E+00
  -2.320000      0.0000000E+00
  -2.310000      0.0000000E+00
  -2.300000      0.0000000E+00
  -2.290000      0.0000000E+00
  -2.280000      0.0000000E+00
  -2.270000      0.0000000E+00
  -2.260000      0.0000000E+00
  -2.250000      0.0000000E+00
  -2.240000      0.0000000E+00
  -2.230000      0.0000000E+00
  -2.220000      0.0000000E+00
  -2.210000      0.0000000E+00
  -2.200000      0.0000000E+00
  -2.190000      0.0000000E+00
  -2.180000      0.0000000E+00
  -2.170000      0.0000000E+00
  -2.160000      0.0000000E+00
  -2.150000      0.0000000E+00
  -2.140000      0.0000000E+00
  -2.130000      0.0000000E+00
  -2.120000      0.0000000E+00
  -2.110000      0.0000000E+00
  -2.100000      0.0000000E+00
  -2.090000      0.0000000E+00
  -2.080000      0.0000000E+00
  -2.070000      0.0000000E+00
  -2.060000      0.0000000E+00
  -2.050000      0.0000000E+00
  -2.040000      0.0000000E+00
  -2.030000      0.0000000E+00
  -2.020000      0.0000000E+00
  -2.010000      0.0000000E+00
  -2.000000      0.0000000E+00
  -1.990000      0.0000000E+00
  -1.980000      0.0000000E+00
  -1.970000      0.0000000E+00
  -1.960000      0.0000000E+00
  -1.950000      0.0000000E+00
  -1.940000      0.0000000E+00
  -1.930000      0.0000000E+00
  -1.920000      0.0000000E+00
  -1.910000      0.0000000E+00
  -1.900000      0.0000000E+00
  -1.890000      0.0000000E+00
  -1.880000      0.0000000E+00
  -1.870000      0.0000000E+00
  -1.860000      0.0000000E+00
  -1.850000      0.0000000E+00
  -1.840000      0.0000000E+00
  -1.830000      0.0000000E+00
  -1.820000      0.0000000E+00
  -1.810000      0.0000000E+00
  -1.800000      0.0000000E+00
  -1.790000      0.0000000E+00
  -1.780000      0.0000000E+00
  -1.770000      0.0000000E+00
  -1.760000      0.0000000E+00
  -1.750000      0.0000000E+00
  -1.740000      0.0000000E+00
  -1.730000      0.0000000E+00
  -1.720000      0.0000000E+00
  -1.710000      0.0000000E+00
  -1.700000      0.0000000E+00
  -1.690000      0.0000000E+00
  -1.680000      0.0000000E+00
  -1.670000      0.0000000E+00
  -1.660000      0.0000000E+00
  -1.650000      0.0000000E+00
  -1.640000      0.0000000E+00
  -1.630000      0.0000000E+00
  -1.620000      0.0000000E+00
  -1.610000      0.0000000E+00
  -1.600000      0.0000000E+00
  -1.590000      0.0000000E+00
  -1.580000      0.0000000E+00
  -1.570000      0.0000000E+00
  -1.560000      0.0000000E+00
  -1.550000      0.0000000E+00
  -1.540000      0.0000000E+00
  -1.530000      0.0000000E+00
  -1.520000      0.0000000E+00
  -1.510000      0.0000000E+00
  -1.500000      0.0000000E+00
  -1.490000      0.0000000E+00
  -1.480000      0.0000000E+00
  -1.470000      0.0000000E+00
  -1.460000      0.0000000E+00
  -1.450000      0.0000000E+00
  -1.440000      0.0000000E+00
  -1.430000      0.0000000E+00
  -1.420000      0.0000000E+00
  -1.410000      0.0000000E+00
  -1.400000      0.0000000E+00
  -1.390000      0.0000000E+00
  -1.380000      0.0000000E+00
  -1.370000      0.0000000E+00
  -1.360000      0.0000000E+00
  -1.350000      0.0000000E+00
  -1.340000      0.0000000E+00
  -1.330000      0.0000000E+00
  -1.320000      0.0000000E+00
  -1.310000      0.0000000E+00
  -1.300000      0.0000000E+00
  -1.290000      0.0000000E+00
  -1.280000      0.0000000E+00
  -1.270000      0.0000000E+00
  -1.260000      0.0000000E+00
  -1.250000      0.0000000E+00
  -1.240000      0.0000000E+00
  -1.230000      0.0000000E+00
  -1.220000      0.0000000E+00
  -1.210000      0.0000000E+00
  -1.200000      0.0000000E+00
  -1.190000      0.0000000E+00
  -1.180000      0.0000000E+00
  -1.170000      0.0000000E+00
  -1.160000      0.0000000E+00
  -1.150000      0.0000000E+00
  -1.140000      0.0000000E+00
  -1.130000      0.0000000E+00
  -1.120000      0.0000000E+00
  -1.110000      0.0000000E+00
  -1.100000      0.0000000E+00
  -1.090000      0.0000000E+00
  -1.080000      0.0000000E+00
  -1.070000      0.0000000E+00
  -1.060000      0.0000000E+00
  -1.050000      0.0000000E+00
  -1.040000      0.0000000E+00
  -1.030000      0.0000000E+00
  -1.020000      0.0000000E+00
  -1.010000      0.0000000E+00
  -1.000000      0.0000000E+00
 -0.9900000      0.0000000E+00
 -0.9800000      0.0000000E+00
 -0.9700000      0.0000000E+00
 -0.9600000      0.0000000E+00
 -0.9500000      0.0000000E+00
 -0.9400000      0.0000000E+00
 -0.9300000      0.0000000E+00
 -0.9200000      0.0000000E+00
 -0.9100000      0.0000000E+00
 -0.9000000      0.0000000E+00
 -0.8900000      0.0000000E+00
 -0.8800000      0.0000000E+00
 -0.8700000      0.0000000E+00
 -0.8600000      0.0000000E+00
 -0.8500000      0.0000000E+00
 -0.8400000      0.0000000E+00
 -0.8300000      0.0000000E+00
 -0.8200000      0.0000000E+00
 -0.8100000      0.0000000E+00
 -0.8000000      0.0000000E+00
 -0.7900000      0.0000000E+00
 -0.7800000      0.0000000E+00
 -0.7700000      0.0000000E+00
 -0.7600000      0.0000000E+00
 -0.7500000      0.0000000E+00
 -0.7400000      0.0000000E+00
 -0.7300000      0.0000000E+00
 -0.7200000      0.0000000E+00
 -0.7100000      0.0000000E+00
 -0.7000000      0.0000000E+00
 -0.6900000      0.0000000E+00
 -0.6800000      0.0000000E+00
 -0.6700000      0.0000000E+00
 -0.6600000      0.0000000E+00
 -0.6500000      0.0000000E+00
 -0.6400000      0.0000000E+00
 -0.6300000      0.0000000E+00
 -0.6200000      0.0000000E+00
 -0.6100000      0.0000000E+00
 -0.6000000      0.0000000E+00
 -0.5900000      0.0000000E+00
 -0.5800000      0.0000000E+00
 -0.5700000      0.0000000E+00
 -0.5600000      0.0000000E+00
 -0.5500000      0.0000000E+00
 -0.5400000      0.0000000E+00
 -0.5300000      0.0000000E+00
 -0.5200000      0.0000000E+00
 -0.5100000      0.0000000E+00
 -0.5000000      0.0000000E+00
 -0.4900000      0.0000000E+00
 -0.4800000      0.0000000E+00
 -0.4700000      0.0000000E+00
 -0.4600000      0.0000000E+00
 -0.4500000      0.0000000E+00
 -0.4400000      0.0000000E+00
 -0.4300000      0.0000000E+00
 -0.4200000      0.0000000E+00
 -0.4100000      0.0000000E+00
 -0.4000000      0.0000000E+00
 -0.3900000      0.0000000E+00
 -0.3800000      0.0000000E+00
 -0.3700000      0.0000000E+00
 -0.3600000      0.0000000E+00
 -0.3500000      0.0000000E+00
 -0.3400000      0.0000000E+00
 -0.3300000      0.0000000E+00
 -0.3200000      0.0000000E+00
 -0.3100000      0.0000000E+00
 -0.3000000      0.0000000E+00
 -0.2900000      0.0000000E+00
 -0.2800000      0.0000000E+00
 -0.2700000      0.0000000E+00
 -0.2600000      0.0000000E+00
 -0.2500000      0.0000000E+00
 -0.2400000      0.0000000E+00
 -0.2300000      0.0000000E+00
 -0.2200000      0.0000000E+00
 -0.2100000      0.0000000E+00
 -0.2000000      0.0000000E+00
 -0.1900000      0.0000000E+00
 -0.1800000      0.0000000E+00
 -0.1700000      0.0000000E+00
 -0.1600000      0.0000000E+00
 -0.1500000      0.0000000E+00
 -0.1400000      0.0000000E+00
 -0.1300000      0.0000000E+00
 -0.1200000      0.0000000E+00
 -0.1100000      0.0000000E+00
 -0.1000000      0.0000000E+00
 -9.0000004E-02  0.0000000E+00
 -7.9999998E-02  0.0000000E+00
 -7.0000000E-02  0.0000000E+00
 -5.9999999E-02  0.0000000E+00
 -5.0000001E-02  0.0000000E+00
 -3.9999999E-02  0.0000000E+00
 -2.9999999E-02  0.0000000E+00
 -2.0000000E-02  0.0000000E+00
 -9.9999998E-03  0.0000000E+00
 -3.4694470E-17  0.0000000E+00
  9.9999998E-03  0.0000000E+00
  2.0000000E-02  0.0000000E+00
  2.9999999E-02  0.0000000E+00
  3.9999999E-02  0.0000000E+00
  5.0000001E-02  0.0000000E+00
  5.9999999E-02  0.0000000E+00
  7.0000000E-02  0.0000000E+00
  7.9999998E-02  0.0000000E+00
  9.0000004E-02  0.0000000E+00
  0.1000000      0.0000000E+00
  0.1100000      0.0000000E+00
  0.1200000      0.0000000E+00
  0.1300000      0.0000000E+00
  0.1400000      0.0000000E+00
  0.1500000      0.0000000E+00
  0.1600000      0.0000000E+00
  0.1700000      0.0000000E+00
  0.1800000      0.0000000E+00
  0.1900000      0.0000000E+00
  0.2000000      0.0000000E+00
  0.2100000      0.0000000E+00
  0.2200000      0.0000000E+00
  0.2300000      0.0000000E+00
  0.2400000      0.0000000E+00
  0.2500000      0.0000000E+00
  0.2600000      0.0000000E+00
  0.2700000      0.0000000E+00
  0.2800000      0.0000000E+00
  0.2900000      0.0000000E+00
  0.3000000      0.0000000E+00
  0.3100000      0.0000000E+00
  0.3200000      0.0000000E+00
  0.3300000      0.0000000E+00
  0.3400000      0.0000000E+00
  0.3500000      0.0000000E+00
  0.3600000      0.0000000E+00
  0.3700000      0.0000000E+00
  0.3800000      0.0000000E+00
  0.3900000      0.0000000E+00
  0.4000000      0.0000000E+00
  0.4100000      0.0000000E+00
  0.4200000      0.0000000E+00
  0.4300000      0.0000000E+00
  0.4400000      0.0000000E+00
  0.4500000      0.0000000E+00
  0.4600000      0.0000000E+00
  0.4700000      0.0000000E+00
  0.4800000      0.0000000E+00
  0.4900000      0.0000000E+00
  0.5000000      0.0000000E+00
  0.5100000      0.0000000E+00
  0.5200000      0.0000000E+00
  0.5300000      0.0000000E+00
  0.5400000      0.0000000E+00
  0.5500000      0.0000000E+00
  0.5600000      0.0000000E+00
  0.5700000      0.0000000E+00
  0.5800000      0.0000000E+00
  0.5900000      0.0000000E+00
  0.6000000      0.0000000E+00
  0.6100000      0.0000000E+00
  0.6200000      0.0000000E+00
  0.6300000      0.0000000E+00
  0.6400000      0.0000000E+00
  0.6500000      0.0000000E+00
  0.6600000      0.0000000E+00
  0.6700000      0.0000000E+00
  0.6800000      0.0000000E+00
  0.6900000      0.0000000E+00
  0.7000000      0.0000000E+00
  0.7100000      0.0000000E+00
  0.7200000      0.0000000E+00
  0.7300000      0.0000000E+00
  0.7400000      0.0000000E+00
  0.7500000      0.0000000E+00
  0.7600000      0.0000000E+00
  0.7700000      0.0000000E+00
  0.7800000      0.0000000E+00
  0.7900000      0.0000000E+00
  0.8000000      0.0000000E+00
  0.8100000      0.0000000E+00
  0.8200000      0.0000000E+00
  0.8300000      0.0000000E+00
  0.8400000      0.0000000E+00
  0.8500000      0.0000000E+00
  0.8600000      0.0000000E+00
  0.8700000      0.0000000E+00
  0.8800000      0.0000000E+00
  0.8900000      0.0000000E+00
  0.9000000      0.0000000E+00
  0.9100000      0.0000000E+00
  0.9200000      0.0000000E+00
  0.9300000      0.0000000E+00
  0.9400000      0.0000000E+00
  0.9500000      0.0000000E+00
  0.9600000      0.0000000E+00
  0.9700000      0.0000000E+00
  0.9800000      0.0000000E+00
  0.9900000      0.0000000E+00
   1.000000      0.0000000E+00
   1.010000      0.0000000E+00
   1.020000      0.0000000E+00
   1.030000      0.0000000E+00
   1.040000      0.0000000E+00
   1.050000      0.0000000E+00
   1.060000      0.0000000E+00
   1.070000      0.0000000E+00
   1.080000      0.0000000E+00
   1.090000      0.0000000E+00
   1.100000      0.0000000E+00
   1.110000      0.0000000E+00
   1.120000      0.0000000E+00
   1.130000      0.0000000E+00
   1.140000      0.0000000E+00
   1.150000      0.0000000E+00
   1.160000      0.0000000E+00
   1.170000      0.0000000E+00
   1.180000      0.0000000E+00
   1.190000      0.0000000E+00
   1.200000      0.0000000E+00
   1.210000      0.0000000E+00
   1.220000      0.0000000E+00
   1.230000      0.0000000E+00
   1.240000      0.0000000E+00
   1.250000      0.0000000E+00
   1.260000      0.0000000E+00
   1.270000      0.0000000E+00
   1.280000      0.0000000E+00
   1.290000      0.0000000E+00
   1.300000      0.0000000E+00
   1.310000      0.0000000E+00
   1.320000      0.0000000E+00
   1.330000      0.0000000E+00
   1.340000      0.0000000E+00
   1.350000      0.0000000E+00
   1.360000      0.0000000E+00
   1.370000      0.0000000E+00
   1.380000      0.0000000E+00
   1.390000      0.0000000E+00
   1.400000      0.0000000E+00
   1.410000      0.0000000E+00
   1.420000      0.0000000E+00
   1.430000      0.0000000E+00
   1.440000      0.0000000E+00
   1.450000      0.0000000E+00
   1.460000      0.0000000E+00
   1.470000      0.0000000E+00
   1.480000      0.0000000E+00
   1.490000      0.0000000E+00
   1.500000      0.0000000E+00
   1.510000      0.0000000E+00
   1.520000      0.0000000E+00
   1.530000      0.0000000E+00
   1.540000      0.0000000E+00
   1.550000      0.0000000E+00
   1.560000      0.0000000E+00
   1.570000      0.0000000E+00
   1.580000      0.0000000E+00
   1.590000      0.0000000E+00
   1.600000      0.0000000E+00
   1.610000      0.0000000E+00
   1.620000      0.0000000E+00
   1.630000      0.0000000E+00
   1.640000      0.0000000E+00
   1.650000      0.0000000E+00
   1.660000      0.0000000E+00
   1.670000      0.0000000E+00
   1.680000      0.0000000E+00
   1.690000      0.0000000E+00
   1.700000      0.0000000E+00
   1.710000      0.0000000E+00
   1.720000      0.0000000E+00
   1.730000      0.0000000E+00
   1.740000      0.0000000E+00
   1.750000      0.0000000E+00
   1.760000      0.0000000E+00
   1.770000      0.0000000E+00
   1.780000      0.0000000E+00
   1.790000      0.0000000E+00
   1.800000      0.0000000E+00
   1.810000      0.0000000E+00
   1.820000      0.0000000E+00
   1.830000      0.0000000E+00
   1.840000      0.0000000E+00
   1.850000      0.0000000E+00
   1.860000      0.0000000E+00
   1.870000      0.0000000E+00
   1.880000      0.0000000E+00
   1.890000      0.0000000E+00
   1.900000      0.0000000E+00
   1.910000      0.0000000E+00
   1.920000      0.0000000E+00
   1.930000      0.0000000E+00
   1.940000      0.0000000E+00
   1.950000      0.0000000E+00
   1.960000      0.0000000E+00
   1.970000      0.0000000E+00
   1.980000      0.0000000E+00
   1.990000      0.0000000E+00
   2.000000      0.0000000E+00
   2.010000      0.0000000E+00
   2.020000      0.0000000E+00
   2.030000      0.0000000E+00
   2.040000      0.0000000E+00
   2.050000      0.0000000E+00
   2.060000      0.0000000E+00
   2.070000      0.0000000E+00
   2.080000      0.0000000E+00
   2.090000      0.0000000E+00
   2.100000      0.0000000E+00
   2.110000      0.0000000E+00
   2.120000      0.0000000E+00
   2.130000      0.0000000E+00
   2.140000      0.0000000E+00
   2.150000      0.0000000E+00
   2.160000      0.0000000E+00
   2.170000      0.0000000E+00
   2.180000      0.0000000E+00
   2.190000      0.0000000E+00
   2.200000      0.0000000E+00
   2.210000      0.0000000E+00
   2.220000      0.0000000E+00
   2.230000      0.0000000E+00
   2.240000      0.0000000E+00
   2.250000      0.0000000E+00
   2.260000      0.0000000E+00
   2.270000      0.0000000E+00
   2.280000      0.0000000E+00
   2.290000      0.0000000E+00
   2.300000      0.0000000E+00
   2.310000      0.0000000E+00
   2.320000      0.0000000E+00
   2.330000      0.0000000E+00
   2.340000      0.0000000E+00
   2.350000      0.0000000E+00
   2.360000     -1.3122084E-38
   2.370000     -1.6237190E-38
   2.380000     -2.0104087E-38
   2.390000     -2.4741399E-38
   2.400000     -2.9671598E-38
   2.410000     -3.6993618E-38
   2.420000     -4.7286110E-38
   2.430000     -5.8046878E-38
   2.440000     -6.7877732E-38
   2.450000     -7.6224723E-38
   2.460000     -8.4115266E-38
   2.470000     -9.2474858E-38
   2.480000     -9.9269900E-38
   2.490000     -1.0600437E-37
   2.500000     -1.0988939E-37
   2.510000     -1.0914402E-37
   2.520000     -1.0938498E-37
   2.530000     -1.1058426E-37
   2.540000     -1.0726600E-37
   2.550000     -9.9096801E-38
   2.560000     -9.0085073E-38
   2.570000     -8.0836301E-38
   2.580000     -7.3712795E-38
   2.590000     -6.9495161E-38
   2.600000     -6.5841174E-38
   2.610000     -6.1938070E-38
   2.620000     -6.1688286E-38
   2.630000     -5.7386227E-38
   2.640000     -4.3990341E-38
   2.650000     -2.4743030E-38
   2.660000      0.0000000E+00
   2.670000      2.9791768E-38
   2.680000      6.4304051E-38
   2.690000      9.6507392E-38
   2.700000      1.2538687E-37
   2.710000      1.4952236E-37
   2.720000      1.6468764E-37
   2.730000      1.7269282E-37
   2.740000      1.7892144E-37
   2.750000      1.8608645E-37
   2.760000      1.9317018E-37
   2.770000      1.9852263E-37
   2.780000      2.0398585E-37
   2.790000      2.1039248E-37
   2.800000      2.0746982E-37
   2.810000      1.9816885E-37
   2.820000      1.8970655E-37
   2.830000      1.7517761E-37
   2.840000      1.5147092E-37
   2.850000      1.1258377E-37
   2.860000      3.4912323E-38
   2.870000     -8.2741226E-38
   2.880000     -2.1543942E-37
   2.890000     -3.5963370E-37
   2.900000     -5.1955098E-37
   2.910000     -7.1085324E-37
   2.920000     -9.4038050E-37
   2.930000     -1.1993147E-36
   2.940000     -1.4878972E-36
   2.950000     -1.7837808E-36
   2.960000     -2.0872181E-36
   2.970000     -2.4187574E-36
   2.980000     -2.7520121E-36
   2.990000     -3.0925320E-36
   3.000000     -3.4579756E-36
   3.010000     -3.8192367E-36
   3.020000     -4.1808106E-36
   3.030000     -4.5683937E-36
   3.040000     -4.9920796E-36
   3.050000     -5.4601121E-36
   3.060000     -5.9513688E-36
   3.070000     -6.4483743E-36
   3.080000     -6.9221572E-36
   3.090000     -7.3750303E-36
   3.100000     -7.7943742E-36
   3.110000     -7.9868291E-36
   3.120000     -7.9951818E-36
   3.130000     -8.1008773E-36
   3.140000     -8.2977819E-36
   3.150000     -8.4807519E-36
   3.160000     -8.6821709E-36
   3.170000     -8.8653690E-36
   3.180000     -8.7770592E-36
   3.190000     -8.2844249E-36
   3.200000     -7.4867482E-36
   3.210000     -6.5090704E-36
   3.220000     -5.3776563E-36
   3.230000     -4.0324170E-36
   3.240000     -2.3918508E-36
   3.250000     -6.9298267E-37
   3.260000      7.7702157E-37
   3.270000      2.2469272E-36
   3.280000      3.8935470E-36
   3.290000      5.6980525E-36
   3.300000      7.7283975E-36
   3.310000      9.9107590E-36
   3.320000      1.2093769E-35
   3.330000      1.4180963E-35
   3.340000      1.6273675E-35
   3.350000      1.8630016E-35
   3.360000      2.1202371E-35
   3.370000      2.4055190E-35
   3.380000      2.7336044E-35
   3.390000      3.1058776E-35
   3.400000      3.5247620E-35
   3.410000      3.9825338E-35
   3.420000      4.4806378E-35
   3.430000      4.9965960E-35
   3.440000      5.5124859E-35
   3.450000      6.0440590E-35
   3.460000      6.5869543E-35
   3.470000      7.1122109E-35
   3.480000      7.6393977E-35
   3.490000      8.1923605E-35
   3.500000      8.7302433E-35
   3.510000      9.2442954E-35
   3.520000      9.7341711E-35
   3.530000      1.0190299E-34
   3.540000      1.0606344E-34
   3.550000      1.0954625E-34
   3.560000      1.1245440E-34
   3.570000      1.1493171E-34
   3.580000      1.1684546E-34
   3.590000      1.1811682E-34
   3.600000      1.1881980E-34
   3.610000      1.1900200E-34
   3.620000      1.1826198E-34
   3.630000      1.1648608E-34
   3.640000      1.1344435E-34
   3.650000      1.0904561E-34
   3.660000      1.0334092E-34
   3.670000      9.5754966E-35
   3.680000      8.5644670E-35
   3.690000      7.3410799E-35
   3.700000      5.9688894E-35
   3.710000      4.5397265E-35
   3.720000      3.0616700E-35
   3.730000      1.4339576E-35
   3.740000     -2.2948632E-36
   3.750000     -1.9259588E-35
   3.760000     -3.6856589E-35
   3.770000     -5.4371315E-35
   3.780000     -7.2493879E-35
   3.790000     -9.1507529E-35
   3.800000     -1.1117896E-34
   3.810000     -1.3160341E-34
   3.820000     -1.5312393E-34
   3.830000     -1.7577193E-34
   3.840000     -1.9960755E-34
   3.850000     -2.2488433E-34
   3.860000     -2.5092669E-34
   3.870000     -2.7719192E-34
   3.880000     -3.0398422E-34
   3.890000     -3.3179857E-34
   3.900000     -3.6078651E-34
   3.910000     -3.9157237E-34
   3.920000     -4.2422581E-34
   3.930000     -4.5748454E-34
   3.940000     -4.9021379E-34
   3.950000     -5.2249048E-34
   3.960000     -5.5394111E-34
   3.970000     -5.8371895E-34
   3.980000     -6.1188963E-34
   3.990000     -6.3856931E-34
   4.000000     -6.6286677E-34
   4.010000     -6.8482441E-34
   4.020000     -6.9504318E-34
   4.030000     -6.9385666E-34
   4.040000     -6.9125515E-34
   4.050000     -6.8142595E-34
   4.060000     -6.6172227E-34
   4.070000     -6.3537123E-34
   4.080000     -6.0268945E-34
   4.090000     -5.6003595E-34
   4.100000     -5.1035162E-34
   4.110000     -4.5624857E-34
   4.120000     -3.9706900E-34
   4.130000     -3.3190012E-34
   4.140000     -2.6059906E-34
   4.150000     -1.8379614E-34
   4.160000     -9.8675450E-35
   4.170000     -5.6099352E-36
   4.180000      9.4043772E-35
   4.190000      2.0098843E-34
   4.200000      3.1633563E-34
   4.210000      4.3903043E-34
   4.220000      5.6623489E-34
   4.230000      6.9785105E-34
   4.240000      8.3802838E-34
   4.250000      9.8387619E-34
   4.260000      1.1339964E-33
   4.270000      1.2938721E-33
   4.280000      1.4641241E-33
   4.290000      1.6387877E-33
   4.300000      1.8180782E-33
   4.310000      2.0021742E-33
   4.320000      2.1895072E-33
   4.330000      2.3830801E-33
   4.340000      2.5799680E-33
   4.350000      2.7751851E-33
   4.360000      2.9688048E-33
   4.370000      3.1596201E-33
   4.380000      3.3437954E-33
   4.390000      3.5190741E-33
   4.400000      3.6828308E-33
   4.410000      3.8325976E-33
   4.420000      3.9660132E-33
   4.430000      4.0793430E-33
   4.440000      4.1692154E-33
   4.450000      4.2303812E-33
   4.460000      4.2586996E-33
   4.470000      4.2545710E-33
   4.480000      4.2151093E-33
   4.490000      4.1361076E-33
   4.500000      4.0142655E-33
   4.510000      3.8467795E-33
   4.520000      3.6301525E-33
   4.530000      3.3624123E-33
   4.540000      3.0414601E-33
   4.550000      2.6647239E-33
   4.560000      2.2292330E-33
   4.570000      1.7316933E-33
   4.580000      1.1711507E-33
   4.590000      5.4504858E-34
   4.600000     -1.4894720E-34
   4.610000     -9.1216883E-34
   4.620000     -1.7460815E-33
   4.630000     -2.6523348E-33
   4.640000     -3.6315781E-33
   4.650000     -4.6847740E-33
   4.660000     -5.8130440E-33
   4.670000     -7.0166962E-33
   4.680000     -8.2952925E-33
   4.690000     -9.6472946E-33
   4.700000     -1.1071721E-32
   4.710000     -1.2567473E-32
   4.720000     -1.4131498E-32
   4.730000     -1.5760537E-32
   4.740000     -1.7450402E-32
   4.750000     -1.9195473E-32
   4.760000     -2.0990162E-32
   4.770000     -2.2827452E-32
   4.780000     -2.4699132E-32
   4.790000     -2.6595710E-32
   4.800000     -2.8506487E-32
   4.810000     -3.0421958E-32
   4.820000     -3.2326550E-32
   4.830000     -3.4203518E-32
   4.840000     -3.6039314E-32
   4.850000     -3.7817005E-32
   4.860000     -3.9517378E-32
   4.870000     -4.1121775E-32
   4.880000     -4.2610562E-32
   4.890000     -4.3960573E-32
   4.900000     -4.5148616E-32
   4.910000     -4.6150437E-32
   4.920000     -4.6940587E-32
   4.930000     -4.7492581E-32
   4.940000     -4.7779140E-32
   4.950000     -4.7772070E-32
   4.960000     -4.7442311E-32
   4.970000     -4.6759860E-32
   4.980000     -4.5694783E-32
   4.990000     -4.4216311E-32
   5.000000     -4.2292741E-32
   5.010000     -3.9892622E-32
   5.020000     -3.6984229E-32
   5.030000     -3.3535811E-32
   5.040000     -2.9515761E-32
   5.050000     -2.4892844E-32
   5.060000     -1.9636352E-32
   5.070000     -1.3716285E-32
   5.080000     -7.1036079E-33
   5.090000      2.2947048E-34
   5.100000      8.3091699E-33
   5.110000      1.7159896E-32
   5.120000      2.6804007E-32
   5.130000      3.7261358E-32
   5.140000      4.8548904E-32
   5.150000      6.0680376E-32
   5.160000      7.3665851E-32
   5.170000      8.7511334E-32
   5.180000      1.0221829E-31
   5.190000      1.1778321E-31
   5.200000      1.3419708E-31
   5.210000      1.5144504E-31
   5.220000      1.6950576E-31
   5.230000      1.8834816E-31
   5.240000      2.0793961E-31
   5.250000      2.2823965E-31
   5.260000      2.4919361E-31
   5.270000      2.7074092E-31
   5.280000      2.9281176E-31
   5.290000      3.1532664E-31
   5.300000      3.3819600E-31
   5.310000      3.6131974E-31
   5.320000      3.8458693E-31
   5.330000      4.0787538E-31
   5.340000      4.3105143E-31
   5.350000      4.5396948E-31
   5.360000      4.7647187E-31
   5.370000      4.9838859E-31
   5.380000      5.1953714E-31
   5.390000      5.3972240E-31
   5.400000      5.5873630E-31
   5.410000      5.7635823E-31
   5.420000      5.9235460E-31
   5.430000      6.0647920E-31
   5.440000      6.1847323E-31
   5.450000      6.2806560E-31
   5.460000      6.3497313E-31
   5.470000      6.3890107E-31
   5.480000      6.3954350E-31
   5.490000      6.3658393E-31
   5.500000      6.2969587E-31
   5.510000      6.1854405E-31
   5.520000      6.0278504E-31
   5.530000      5.8206803E-31
   5.540000      5.5603662E-31
   5.550000      5.2432968E-31
   5.560000      4.8658314E-31
   5.570000      4.4243134E-31
   5.580000      3.9150900E-31
   5.590000      3.3345326E-31
   5.600000      2.6790560E-31
   5.610000      1.9451419E-31
   5.620000      1.1293634E-31
   5.630000      2.2841137E-32
   5.640000     -7.6087857E-32
   5.650000     -1.8414951E-31
   5.660000     -3.0162205E-31
   5.670000     -4.2875982E-31
   5.680000     -5.6579012E-31
   5.690000     -7.1290902E-31
   5.700000     -8.7027799E-31
   5.710000     -1.0380202E-30
   5.720000     -1.2162159E-30
   5.730000     -1.4048990E-30
   5.740000     -1.6040523E-30
   5.750000     -1.8136029E-30
   5.760000     -2.0334187E-30
   5.770000     -2.2633028E-30
   5.780000     -2.5029893E-30
   5.790000     -2.7521385E-30
   5.800000     -3.0103319E-30
   5.810000     -3.2770680E-30
   5.820000     -3.5517571E-30
   5.830000     -3.8337170E-30
   5.840000     -4.1221664E-30
   5.850000     -4.4162236E-30
   5.860000     -4.7148977E-30
   5.870000     -5.0170885E-30
   5.880000     -5.3215788E-30
   5.890000     -5.6270313E-30
   5.900000     -5.9319854E-30
   5.910000     -6.2348521E-30
   5.920000     -6.5339122E-30
   5.930000     -6.8273126E-30
   5.940000     -7.1130611E-30
   5.950000     -7.3890296E-30
   5.960000     -7.6529467E-30
   5.970000     -7.9023983E-30
   5.980000     -8.1348309E-30
   5.990000     -8.3475431E-30
   6.000000     -8.5376948E-30
   6.010000     -8.7023032E-30
   6.020000     -8.8382445E-30
   6.030000     -8.9422605E-30
   6.040000     -9.0109598E-30
   6.050000     -9.0408230E-30
   6.060000     -9.0282089E-30
   6.070000     -8.9693612E-30
   6.080000     -8.8604160E-30
   6.090000     -8.6974094E-30
   6.100000     -8.4762900E-30
   6.110000     -8.1929323E-30
   6.120000     -7.8431436E-30
   6.130000     -7.4226837E-30
   6.140000     -6.9272774E-30
   6.150000     -6.3526325E-30
   6.160000     -5.6944606E-30
   6.170000     -4.9484919E-30
   6.180000     -4.1105029E-30
   6.190000     -3.1763358E-30
   6.200000     -2.1419243E-30
   6.210000     -1.0033204E-30
   6.220000      2.4327777E-31
   6.230000      1.6014958E-30
   6.240000      3.0747505E-30
   6.250000      4.6662183E-30
   6.260000      6.3788003E-30
   6.270000      8.2150820E-30
   6.280000      1.0177304E-29
   6.290000      1.2267312E-29
   6.300000      1.4486519E-29
   6.310000      1.6835866E-29
   6.320000      1.9315776E-29
   6.330000      2.1926106E-29
   6.340000      2.4666103E-29
   6.350000      2.7534352E-29
   6.360000      3.0528737E-29
   6.370000      3.3646372E-29
   6.380000      3.6883575E-29
   6.390000      4.0235800E-29
   6.400000      4.3697593E-29
   6.410000      4.7262534E-29
   6.420000      5.0923195E-29
   6.430000      5.4671072E-29
   6.440000      5.8496559E-29
   6.450000      6.2388870E-29
   6.460000      6.6336021E-29
   6.470000      7.0324748E-29
   6.480000      7.4340493E-29
   6.490000      7.8367341E-29
   6.500000      8.2387985E-29
   6.510000      8.6383676E-29
   6.520000      9.0334221E-29
   6.530000      9.4217895E-29
   6.540000      9.8011484E-29
   6.550000      1.0169018E-28
   6.560000      1.0522766E-28
   6.570000      1.0859594E-28
   6.580000      1.1176552E-28
   6.590000      1.1470526E-28
   6.600000      1.1738243E-28
   6.610000      1.1976276E-28
   6.620000      1.2181040E-28
   6.630000      1.2348797E-28
   6.640000      1.2475659E-28
   6.650000      1.2557598E-28
   6.660000      1.2590444E-28
   6.670000      1.2569896E-28
   6.680000      1.2491526E-28
   6.690000      1.2350795E-28
   6.700000      1.2143058E-28
   6.710000      1.1863576E-28
   6.720000      1.1507528E-28
   6.730000      1.1070027E-28
   6.740000      1.0546140E-28
   6.750000      9.9308935E-29
   6.760000      9.2193027E-29
   6.770000      8.4063863E-29
   6.780000      7.4871893E-29
   6.790000      6.4568071E-29
   6.800000      5.3104094E-29
   6.810000      4.0432669E-29
   6.820000      2.6507811E-29
   6.830000      1.1285119E-29
   6.840000     -5.2778846E-30
   6.850000     -2.3221420E-29
   6.860000     -4.2583127E-29
   6.870000     -6.3397672E-29
   6.880000     -8.5696377E-29
   6.890000     -1.0950679E-28
   6.900000     -1.3485229E-28
   6.910000     -1.6175168E-28
   6.920000     -1.9021870E-28
   6.930000     -2.2026155E-28
   6.940000     -2.5188251E-28
   6.950000     -2.8507733E-28
   6.960000     -3.1983480E-28
   6.970000     -3.5613627E-28
   6.980000     -3.9395506E-28
   6.990000     -4.3325595E-28
   7.000000     -4.7399476E-28
   7.010000     -5.1611754E-28
   7.020000     -5.5956036E-28
   7.030000     -6.0424863E-28
   7.040000     -6.5009655E-28
   7.050000     -6.9700657E-28
   7.060000     -7.4486881E-28