  -2.600000      0.0000000E+00
  -2.590000      0.0000000E+00
  -2.580000      0.0000000E+00
  -2.570000      0.0000000E+00
  -2.560000      0.0000000E+00
  -2.550000      0.0000000E+00
  -2.540000      0.0000000E+00
  -2.530000      0.0000000E+00
  -2.520000      0.0000000E+00
  -2.510000      0.0000000E+00
  -2.500000      0.0000000E+00
  -2.490000      0.0000000E+00
  -2.480000      0.0000000E+00
  -2.470000      0.0000000E+00
  -2.460000      0.0000000E+00
  -2.450000      0.0000000E+00
  -2.440000      0.0000000E+00
  -2.430000      0.0000000E+00
  -2.420000      0.0000000E+00
  -2.410000      0.0000000E+00
  -2.400000      0.0000000E+00
  -2.390000      0.0000000E+00
  -2.380000      0.0000000E+00
  -2.370000      0.0000000E+00
  -2.360000      0.0000000E+00
  -2.350000      0.0000000E+00
  -2.340000      0.0000000E+00
  -2.330000      0.0000000E+00
  -2.320000      0.0000000E+00
  -2.310000      0.0000000E+00
  -2.300000      0.0000000E+00
  -2.290000      0.0000000E+00
  -2.280000      0.0000000E+00
  -2.270000      0.0000000E+00
  -2.260000      0.0000000E+00
  -2.250000      0.0000000E+00
  -2.240000      0.0000000E+00
  -2.230000      0.0000000E+00
  -2.220000      0.0000000E+00
  -2.210000      0.0000000E+00
  -2.200000      0.0000000E+00
  -2.190000      0.0000000E+00
  -2.180000      0.0000000E+00
  -2.170000      0.0000000E+00
  -2.160000      0.0000000E+00
  -2.150000      0.0000000E+00
  -2.140000      0.0000000E+00
  -2.130000      0.0000000E+00
  -2.120000      0.0000000E+00
  -2.110000      0.0000000E+00
  -2.100000      0.0000000E+00
  -2.090000      0.0000000E+00
  -2.080000      0.0000000E+00
  -2.070000      0.0000000E+00
  -2.060000      0.0000000E+00
  -2.050000      0.0000000E+00
  -2.040000      0.0000000E+00
  -2.030000      0.0000000E+00
  -2.020000      0.0000000E+00
  -2.010000      0.0000000E+00
  -2.000000      0.0000000E+00
  -1.990000      0.0000000E+00
  -1.980000      0.0000000E+00
  -1.970000      0.0000000E+00
  -1.960000      0.0000000E+00
  -1.950000      0.0000000E+00
  -1.940000      0.0000000E+00
  -1.930000      0.0000000E+00
  -1.920000      0.0000000E+00
  -1.910000      0.0000000E+00
  -1.900000      0.0000000E+00
  -1.890000      0.0000000E+00
  -1.880000      0.0000000E+00
  -1.870000      0.0000000E+00
  -1.860000      0.0000000E+00
  -1.850000      0.0000000E+00
  -1.840000      0.0000000E+00
  -1.830000      0.0000000E+00
  -1.820000      0.0000000E+00
  -1.810000      0.0000000E+00
  -1.800000      0.0000000E+00
  -1.790000      0.0000000E+00
  -1.780000      0.0000000E+00
  -1.770000      0.0000000E+00
  -1.760000      0.0000000E+00
  -1.750000      0.0000000E+00
  -1.740000      0.0000000E+00
  -1.730000      0.0000000E+00
  -1.720000      0.0000000E+00
  -1.710000      0.0000000E+00
  -1.700000      0.0000000E+00
  -1.690000      0.0000000E+00
  -1.680000      0.0000000E+00
  -1.670000      0.0000000E+00
  -1.660000      0.0000000E+00
  -1.650000      0.0000000E+00
  -1.640000      0.0000000E+00
  -1.630000      0.0000000E+00
  -1.620000      0.0000000E+00
  -1.610000      0.0000000E+00
  -1.600000      0.0000000E+00
  -1.590000      0.0000000E+00
  -1.580000      0.0000000E+00
  -1.570000      0.0000000E+00
  -1.560000      0.0000000E+00
  -1.550000      0.0000000E+00
  -1.540000      0.0000000E+00
  -1.530000      0.0000000E+00
  -1.520000      0.0000000E+00
  -1.510000      0.0000000E+00
  -1.500000      0.0000000E+00
  -1.490000      0.0000000E+00
  -1.480000      0.0000000E+00
  -1.470000      0.0000000E+00
  -1.460000      0.0000000E+00
  -1.450000      0.0000000E+00
  -1.440000      0.0000000E+00
  -1.430000      0.0000000E+00
  -1.420000      0.0000000E+00
  -1.410000      0.0000000E+00
  -1.400000      0.0000000E+00
  -1.390000      0.0000000E+00
  -1.380000      0.0000000E+00
  -1.370000      0.0000000E+00
  -1.360000      0.0000000E+00
  -1.350000      0.0000000E+00
  -1.340000      0.0000000E+00
  -1.330000      0.0000000E+00
  -1.320000      0.0000000E+00
  -1.310000      0.0000000E+00
  -1.300000      0.0000000E+00
  -1.290000      0.0000000E+00
  -1.280000      0.0000000E+00
  -1.270000      0.0000000E+00
  -1.260000      0.0000000E+00
  -1.250000      0.0000000E+00
  -1.240000      0.0000000E+00
  -1.230000      0.0000000E+00
  -1.220000      0.0000000E+00
  -1.210000      0.0000000E+00
  -1.200000      0.0000000E+00
  -1.190000      0.0000000E+00
  -1.180000      0.0000000E+00
  -1.170000      0.0000000E+00
  -1.160000      0.0000000E+00
  -1.150000      0.0000000E+00
  -1.140000      0.0000000E+00
  -1.130000      0.0000000E+00
  -1.120000      0.0000000E+00
  -1.110000      0.0000000E+00
  -1.100000      0.0000000E+00
  -1.090000      0.0000000E+00
  -1.080000      0.0000000E+00
  -1.070000      0.0000000E+00
  -1.060000      0.0000000E+00
  -1.050000      0.0000000E+00
  -1.040000      0.0000000E+00
  -1.030000      0.0000000E+00
  -1.020000      0.0000000E+00
  -1.010000      0.0000000E+00
  -1.000000      0.0000000E+00
 -0.9900000      0.0000000E+00
 -0.9800000      0.0000000E+00
 -0.9700000      0.0000000E+00
 -0.9600000      0.0000000E+00
 -0.9500000      0.0000000E+00
 -0.9400000      0.0000000E+00
 -0.9300000      0.0000000E+00
 -0.9200000      0.0000000E+00
 -0.9100000      0.0000000E+00
 -0.9000000      0.0000000E+00
 -0.8900000      0.0000000E+00
 -0.8800000      0.0000000E+00
 -0.8700000      0.0000000E+00
 -0.8600000      0.0000000E+00
 -0.8500000      0.0000000E+00
 -0.8400000      0.0000000E+00
 -0.8300000      0.0000000E+00
 -0.8200000      0.0000000E+00
 -0.8100000      0.0000000E+00
 -0.8000000      0.0000000E+00
 -0.7900000      0.0000000E+00
 -0.7800000      0.0000000E+00
 -0.7700000      0.0000000E+00
 -0.7600000      0.0000000E+00
 -0.7500000      0.0000000E+00
 -0.7400000      0.0000000E+00
 -0.7300000      0.0000000E+00
 -0.7200000      0.0000000E+00
 -0.7100000      0.0000000E+00
 -0.7000000      0.0000000E+00
 -0.6900000      0.0000000E+00
 -0.6800000      0.0000000E+00
 -0.6700000      0.0000000E+00
 -0.6600000      0.0000000E+00
 -0.6500000      0.0000000E+00
 -0.6400000      0.0000000E+00
 -0.6300000      0.0000000E+00
 -0.6200000      0.0000000E+00
 -0.6100000      0.0000000E+00
 -0.6000000      0.0000000E+00
 -0.5900000      0.0000000E+00
 -0.5800000      0.0000000E+00
 -0.5700000      0.0000000E+00
 -0.5600000      0.0000000E+00
 -0.5500000      0.0000000E+00
 -0.5400000      0.0000000E+00
 -0.5300000      0.0000000E+00
 -0.5200000      0.0000000E+00
 -0.5100000      0.0000000E+00
 -0.5000000      0.0000000E+00
 -0.4900000      0.0000000E+00
 -0.4800000      0.0000000E+00
 -0.4700000      0.0000000E+00
 -0.4600000      0.0000000E+00
 -0.4500000      0.0000000E+00
 -0.4400000      0.0000000E+00
 -0.4300000      0.0000000E+00
 -0.4200000      0.0000000E+00
 -0.4100000      0.0000000E+00
 -0.4000000      0.0000000E+00
 -0.3900000      0.0000000E+00
 -0.3800000      0.0000000E+00
 -0.3700000      0.0000000E+00
 -0.3600000      0.0000000E+00
 -0.3500000      0.0000000E+00
 -0.3400000      0.0000000E+00
 -0.3300000      0.0000000E+00
 -0.3200000      0.0000000E+00
 -0.3100000      0.0000000E+00
 -0.3000000      0.0000000E+00
 -0.2900000      0.0000000E+00
 -0.2800000      0.0000000E+00
 -0.2700000      0.0000000E+00
 -0.2600000      0.0000000E+00
 -0.2500000      0.0000000E+00
 -0.2400000      0.0000000E+00
 -0.2300000      0.0000000E+00
 -0.2200000      0.0000000E+00
 -0.2100000      0.0000000E+00
 -0.2000000      0.0000000E+00
 -0.1900000      0.0000000E+00
 -0.1800000      0.0000000E+00
 -0.1700000      0.0000000E+00
 -0.1600000      0.0000000E+00
 -0.1500000      0.0000000E+00
 -0.1400000      0.0000000E+00
 -0.1300000      0.0000000E+00
 -0.1200000      0.0000000E+00
 -0.1100000      0.0000000E+00
 -0.1000000      0.0000000E+00
 -9.0000004E-02  0.0000000E+00
 -7.9999998E-02  0.0000000E+00
 -7.0000000E-02  0.0000000E+00
 -5.9999999E-02  0.0000000E+00
 -5.0000001E-02  0.0000000E+00
 -3.9999999E-02  0.0000000E+00
 -2.9999999E-02  0.0000000E+00
 -2.0000000E-02  0.0000000E+00
 -9.9999998E-03  0.0000000E+00
 -3.4694470E-17  0.0000000E+00
  9.9999998E-03  0.0000000E+00
  2.0000000E-02  0.0000000E+00
  2.9999999E-02  0.0000000E+00
  3.9999999E-02  0.0000000E+00
  5.0000001E-02  0.0000000E+00
  5.9999999E-02  0.0000000E+00
  7.0000000E-02  0.0000000E+00
  7.9999998E-02  0.0000000E+00
  9.0000004E-02  0.0000000E+00
  0.1000000      0.0000000E+00
  0.1100000      0.0000000E+00
  0.1200000      0.0000000E+00
  0.1300000      0.0000000E+00
  0.1400000      0.0000000E+00
  0.1500000      0.0000000E+00
  0.1600000      0.0000000E+00
  0.1700000      0.0000000E+00
  0.1800000      0.0000000E+00
  0.1900000      0.0000000E+00
  0.2000000      0.0000000E+00
  0.2100000      0.0000000E+00
  0.2200000      0.0000000E+00
  0.2300000      0.0000000E+00
  0.2400000      0.0000000E+00
  0.2500000      0.0000000E+00
  0.2600000      0.0000000E+00
  0.2700000      0.0000000E+00
  0.2800000      0.0000000E+00
  0.2900000      0.0000000E+00
  0.3000000      0.0000000E+00
  0.3100000      0.0000000E+00
  0.3200000      0.0000000E+00
  0.3300000      0.0000000E+00
  0.3400000      0.0000000E+00
  0.3500000      0.0000000E+00
  0.3600000      0.0000000E+00
  0.3700000      0.0000000E+00
  0.3800000      0.0000000E+00
  0.3900000      0.0000000E+00
  0.4000000      0.0000000E+00
  0.4100000      0.0000000E+00
  0.4200000      0.0000000E+00
  0.4300000      0.0000000E+00
  0.4400000      0.0000000E+00
  0.4500000      0.0000000E+00
  0.4600000      0.0000000E+00
  0.4700000      0.0000000E+00
  0.4800000      0.0000000E+00
  0.4900000      0.0000000E+00
  0.5000000      0.0000000E+00
  0.5100000      0.0000000E+00
  0.5200000      0.0000000E+00
  0.5300000      0.0000000E+00
  0.5400000      0.0000000E+00
  0.5500000      0.0000000E+00
  0.5600000      0.0000000E+00
  0.5700000      0.0000000E+00
  0.5800000      0.0000000E+00
  0.5900000      0.0000000E+00
  0.6000000      0.0000000E+00
  0.6100000      0.0000000E+00
  0.6200000      0.0000000E+00
  0.6300000      0.0000000E+00
  0.6400000      0.0000000E+00
  0.6500000      0.0000000E+00
  0.6600000      0.0000000E+00
  0.6700000      0.0000000E+00
  0.6800000      0.0000000E+00
  0.6900000      0.0000000E+00
  0.7000000      0.0000000E+00
  0.7100000      0.0000000E+00
  0.7200000      0.0000000E+00
  0.7300000      0.0000000E+00
  0.7400000      0.0000000E+00
  0.7500000      0.0000000E+00
  0.7600000      0.0000000E+00
  0.7700000      0.0000000E+00
  0.7800000      0.0000000E+00
  0.7900000      0.0000000E+00
  0.8000000      0.0000000E+00
  0.8100000      0.0000000E+00
  0.8200000      0.0000000E+00
  0.8300000      0.0000000E+00
  0.8400000      0.0000000E+00
  0.8500000      0.0000000E+00
  0.8600000      0.0000000E+00
  0.8700000      0.0000000E+00
  0.8800000      0.0000000E+00
  0.8900000      0.0000000E+00
  0.9000000      0.0000000E+00
  0.9100000      0.0000000E+00
  0.9200000      0.0000000E+00
  0.9300000      0.0000000E+00
  0.9400000      0.0000000E+00
  0.9500000      0.0000000E+00
  0.9600000      0.0000000E+00
  0.9700000      0.0000000E+00
  0.9800000      0.0000000E+00
  0.9900000      0.0000000E+00
   1.000000      0.0000000E+00
   1.010000      0.0000000E+00
   1.020000      0.0000000E+00
   1.030000      0.0000000E+00
   1.040000      0.0000000E+00
   1.050000      0.0000000E+00
   1.060000      0.0000000E+00
   1.070000      0.0000000E+00
   1.080000      0.0000000E+00
   1.090000      0.0000000E+00
   1.100000      0.0000000E+00
   1.110000      0.0000000E+00
   1.120000      0.0000000E+00
   1.130000      0.0000000E+00
   1.140000      0.0000000E+00
   1.150000      0.0000000E+00
   1.160000      0.0000000E+00
   1.170000      0.0000000E+00
   1.180000      0.0000000E+00
   1.190000      0.0000000E+00
   1.200000      0.0000000E+00
   1.210000      0.0000000E+00
   1.220000      0.0000000E+00
   1.230000      0.0000000E+00
   1.240000      0.0000000E+00
   1.250000      0.0000000E+00
   1.260000      0.0000000E+00
   1.270000      0.0000000E+00
   1.280000      0.0000000E+00
   1.290000      0.0000000E+00
   1.300000      0.0000000E+00
   1.310000      0.0000000E+00
   1.320000      0.0000000E+00
   1.330000      0.0000000E+00
   1.340000      0.0000000E+00
   1.350000      0.0000000E+00
   1.360000      0.0000000E+00
   1.370000      0.0000000E+00
   1.380000      0.0000000E+00
   1.390000      0.0000000E+00
   1.400000      0.0000000E+00
   1.410000      0.0000000E+00
   1.420000      0.0000000E+00
   1.430000      0.0000000E+00
   1.440000      0.0000000E+00
   1.450000      0.0000000E+00
   1.460000      0.0000000E+00
   1.470000      0.0000000E+00
   1.480000      0.0000000E+00
   1.490000      0.0000000E+00
   1.500000      0.0000000E+00
   1.510000      0.0000000E+00
   1.520000      0.0000000E+00
   1.530000      0.0000000E+00
   1.540000      0.0000000E+00
   1.550000      0.0000000E+00
   1.560000      0.0000000E+00
   1.570000      0.0000000E+00
   1.580000      0.0000000E+00
   1.590000      0.0000000E+00
   1.600000      0.0000000E+00
   1.610000      0.0000000E+00
   1.620000      0.0000000E+00
   1.630000      0.0000000E+00
   1.640000      0.0000000E+00
   1.650000      0.0000000E+00
   1.660000      0.0000000E+00
   1.670000      0.0000000E+00
   1.680000      0.0000000E+00
   1.690000      0.0000000E+00
   1.700000      0.0000000E+00
   1.710000      0.0000000E+00
   1.720000      0.0000000E+00
   1.730000      0.0000000E+00
   1.740000      0.0000000E+00
   1.750000      0.0000000E+00
   1.760000      0.0000000E+00
   1.770000      0.0000000E+00
   1.780000      0.0000000E+00
   1.790000      0.0000000E+00
   1.800000      0.0000000E+00
   1.810000      0.0000000E+00
   1.820000      0.0000000E+00
   1.830000      0.0000000E+00
   1.840000      0.0000000E+00
   1.850000      0.0000000E+00
   1.860000      0.0000000E+00
   1.870000      0.0000000E+00
   1.880000      0.0000000E+00
   1.890000      0.0000000E+00
   1.900000      0.0000000E+00
   1.910000      0.0000000E+00
   1.920000      0.0000000E+00
   1.930000      0.0000000E+00
   1.940000      0.0000000E+00
   1.950000      0.0000000E+00
   1.960000      0.0000000E+00
   1.970000      0.0000000E+00
   1.980000      0.0000000E+00
   1.990000      0.0000000E+00
   2.000000      0.0000000E+00
   2.010000      0.0000000E+00
   2.020000      0.0000000E+00
   2.030000      0.0000000E+00
   2.040000      0.0000000E+00
   2.050000      0.0000000E+00
   2.060000      0.0000000E+00
   2.070000      0.0000000E+00
   2.080000      0.0000000E+00
   2.090000      0.0000000E+00
   2.100000      0.0000000E+00
   2.110000      0.0000000E+00
   2.120000      0.0000000E+00
   2.130000      0.0000000E+00
   2.140000      0.0000000E+00
   2.150000      0.0000000E+00
   2.160000      0.0000000E+00
   2.170000      0.0000000E+00
   2.180000      0.0000000E+00
   2.190000      0.0000000E+00
   2.200000      0.0000000E+00
   2.210000      0.0000000E+00
   2.220000      0.0000000E+00
   2.230000      0.0000000E+00
   2.240000      0.0000000E+00
   2.250000      0.0000000E+00
   2.260000      1.2146608E-38
   2.270000      1.5100460E-38
   2.280000      1.8363788E-38
   2.290000      2.1812500E-38
   2.300000      2.5414725E-38
   2.310000      2.9246974E-38
   2.320000      3.3296718E-38
   2.330000      3.7550093E-38
   2.340000      4.1989334E-38
   2.350000      4.6621343E-38
   2.360000      5.1433388E-38
   2.370000      5.6470495E-38
   2.380000      6.1814857E-38
   2.390000      6.7161943E-38
   2.400000      7.2380272E-38
   2.410000      7.8043771E-38
   2.420000      8.4138948E-38
   2.430000      9.0114847E-38
   2.440000      9.5866337E-38
   2.450000      1.0107122E-37
   2.460000      1.0587332E-37
   2.470000      1.1073369E-37
   2.480000      1.0252465E-37
   2.490000      9.4559889E-38
   2.500000      9.8391051E-38
   2.510000      1.0028629E-37
   2.520000      1.0159861E-37
   2.530000      1.0274647E-37
   2.540000      1.0488212E-37
   2.550000      1.0836521E-37
   2.560000      1.1207539E-37
   2.570000      1.1774383E-37
   2.580000      1.2647607E-37
   2.590000      1.4141191E-37
   2.600000      1.6388312E-37
   2.610000      1.9019129E-37
   2.620000      2.1773454E-37
   2.630000      2.4659687E-37
   2.640000      2.7989363E-37
   2.650000      3.0372750E-37
   2.660000      3.0548703E-37
   2.670000      2.9802172E-37
   2.680000      2.9247778E-37
   2.690000      2.9723962E-37
   2.700000      3.1842555E-37
   2.710000      3.6052623E-37
   2.720000      4.1752183E-37
   2.730000      4.8836211E-37
   2.740000      5.7750501E-37
   2.750000      6.7175921E-37
   2.760000      7.6598830E-37
   2.770000      8.5900968E-37
   2.780000      9.0056426E-37
   2.790000      8.8302708E-37
   2.800000      8.5031750E-37
   2.810000      8.0974899E-37
   2.820000      7.6874794E-37
   2.830000      7.2278652E-37
   2.840000      6.7824577E-37
   2.850000      6.8900684E-37
   2.860000      7.6791263E-37
   2.870000      8.7294383E-37
   2.880000      9.4187642E-37
   2.890000      9.6426491E-37
   2.900000      9.0964664E-37
   2.910000      7.8220991E-37
   2.920000      6.5205171E-37
   2.930000      5.4942285E-37
   2.940000      5.1310411E-37
   2.950000      4.4592106E-37
   2.960000      2.7590399E-37
   2.970000      2.8036403E-38
   2.980000     -2.8757819E-37
   2.990000     -6.2248767E-37
   3.000000     -8.8699269E-37
   3.010000     -1.0974655E-36
   3.020000     -1.3466305E-36
   3.030000     -1.6130652E-36
   3.040000     -1.8454766E-36
   3.050000     -2.0918689E-36
   3.060000     -2.4957727E-36
   3.070000     -3.0384473E-36
   3.080000     -3.6285632E-36
   3.090000     -4.2830741E-36
   3.100000     -4.9169747E-36
   3.110000     -5.5455334E-36
   3.120000     -6.1810476E-36
   3.130000     -6.5460564E-36
   3.140000     -6.6644259E-36
   3.150000     -6.7851200E-36
   3.160000     -6.9839381E-36
   3.170000     -7.3362155E-36
   3.180000     -8.0064266E-36
   3.190000     -8.8502162E-36
   3.200000     -9.4794486E-36
   3.210000     -9.8952453E-36
   3.220000     -1.0051973E-35
   3.230000     -9.9776605E-36
   3.240000     -9.8675877E-36
   3.250000     -9.4789048E-36
   3.260000     -9.4222078E-36
   3.270000     -9.8540542E-36
   3.280000     -1.0166142E-35
   3.290000     -1.0327356E-35
   3.300000     -1.0306180E-35
   3.310000     -1.0086506E-35
   3.320000     -9.1485452E-36
   3.330000     -7.5899347E-36
   3.340000     -6.0334974E-36
   3.350000     -4.3752902E-36
   3.360000     -1.7221172E-36
   3.370000      2.4212852E-36
   3.380000      6.8004178E-36
   3.390000      1.0579186E-35
   3.400000      1.3930503E-35
   3.410000      1.6119880E-35
   3.420000      1.7136197E-35
   3.430000      1.7209092E-35
   3.440000      1.6562968E-35
   3.450000      1.5998914E-35
   3.460000      1.5869403E-35
   3.470000      1.6818103E-35
   3.480000      1.9043475E-35
   3.490000      2.2627490E-35
   3.500000      2.7056935E-35
   3.510000      3.2387998E-35
   3.520000      3.8854161E-35
   3.530000      4.5547875E-35
   3.540000      5.2107461E-35
   3.550000      5.8256662E-35
   3.560000      6.3905532E-35
   3.570000      6.8847545E-35
   3.580000      7.2614419E-35
   3.590000      7.3933349E-35
   3.600000      7.2355718E-35
   3.610000      6.7727456E-35
   3.620000      5.9986728E-35
   3.630000      5.0542113E-35
   3.640000      4.0528063E-35
   3.650000      3.1454914E-35
   3.660000      2.4923014E-35
   3.670000      1.9397692E-35
   3.680000      1.2925896E-35
   3.690000      6.2788194E-36
   3.700000      2.3883720E-36
   3.710000      8.1684930E-37
   3.720000     -1.4462736E-36
   3.730000     -4.8463478E-36
   3.740000     -1.0731354E-35
   3.750000     -1.9274455E-35
   3.760000     -2.9242353E-35
   3.770000     -4.2555564E-35
   3.780000     -6.0776835E-35
   3.790000     -8.3250662E-35
   3.800000     -1.0943594E-34
   3.810000     -1.3947577E-34
   3.820000     -1.7196680E-34
   3.830000     -2.0878348E-34
   3.840000     -2.4587276E-34
   3.850000     -2.8194542E-34
   3.860000     -3.2140601E-34
   3.870000     -3.5200357E-34
   3.880000     -3.7078800E-34
   3.890000     -3.8686226E-34
   3.900000     -4.0204515E-34
   3.910000     -4.1757366E-34
   3.920000     -4.3532927E-34
   3.930000     -4.5363489E-34
   3.940000     -4.7432800E-34
   3.950000     -5.0147562E-34
   3.960000     -5.3468173E-34
   3.970000     -5.6852890E-34
   3.980000     -6.1524291E-34
   3.990000     -6.7370313E-34
   4.000000     -7.1356474E-34
   4.010000     -7.3437283E-34
   4.020000     -7.4995672E-34
   4.030000     -7.5595674E-34
   4.040000     -7.4686103E-34
   4.050000     -7.2544151E-34
   4.060000     -6.9616669E-34
   4.070000     -6.5972444E-34
   4.080000     -6.1403577E-34
   4.090000     -5.6157112E-34
   4.100000     -5.0192139E-34
   4.110000     -4.3472463E-34
   4.120000     -3.7526824E-34
   4.130000     -3.2515326E-34
   4.140000     -2.7320335E-34
   4.150000     -2.1751722E-34
   4.160000     -1.5800958E-34
   4.170000     -9.0841784E-35
   4.180000     -1.1253035E-35
   4.190000      7.8425201E-35
   4.200000      1.8662218E-34
   4.210000      3.2010139E-34
   4.220000      4.7614822E-34
   4.230000      6.5311890E-34
   4.240000      8.3965699E-34
   4.250000      1.0231264E-33
   4.260000      1.2063839E-33
   4.270000      1.3987385E-33
   4.280000      1.6068473E-33
   4.290000      1.8222087E-33
   4.300000      2.0243901E-33
   4.310000      2.2133514E-33
   4.320000      2.4039813E-33
   4.330000      2.6007291E-33
   4.340000      2.8041252E-33
   4.350000      3.0171285E-33
   4.360000      3.2411366E-33
   4.370000      3.4773096E-33
   4.380000      3.7232715E-33
   4.390000      3.9775004E-33
   4.400000      4.2334547E-33
   4.410000      4.4884323E-33
   4.420000      4.7377712E-33
   4.430000      4.9719653E-33
   4.440000      5.1873482E-33
   4.450000      5.3776464E-33
   4.460000      5.5384989E-33
   4.470000      5.6673863E-33
   4.480000      5.7632886E-33
   4.490000      5.8257772E-33
   4.500000      5.8551429E-33
   4.510000      5.8529362E-33
   4.520000      5.8189670E-33
   4.530000      5.7532242E-33
   4.540000      5.6558698E-33
   4.550000      5.5243797E-33
   4.560000      5.3564534E-33
   4.570000      5.1471048E-33
   4.580000      4.8888957E-33
   4.590000      4.5753407E-33
   4.600000      4.2004851E-33
   4.610000      3.7575518E-33
   4.620000      3.2404206E-33
   4.630000      2.6441280E-33
   4.640000      1.9668491E-33
   4.650000      1.2051999E-33
   4.660000      3.5613264E-34
   4.670000     -5.7445578E-34
   4.680000     -1.5851214E-33
   4.690000     -2.6771414E-33
   4.700000     -3.8466275E-33
   4.710000     -5.0946039E-33
   4.720000     -6.4132606E-33
   4.730000     -7.7979606E-33
   4.740000     -9.2483605E-33
   4.750000     -1.0771141E-32
   4.760000     -1.2374798E-32
   4.770000     -1.4054901E-32
   4.780000     -1.5811639E-32
   4.790000     -1.7643835E-32
   4.800000     -1.9548543E-32
   4.810000     -2.1520201E-32
   4.820000     -2.3550572E-32
   4.830000     -2.5629033E-32
   4.840000     -2.7742281E-32
   4.850000     -2.9875818E-32
   4.860000     -3.2013822E-32
   4.870000     -3.4138995E-32
   4.880000     -3.6234064E-32
   4.890000     -3.8281843E-32
   4.900000     -4.0265554E-32
   4.910000     -4.2169414E-32
   4.920000     -4.3976625E-32
   4.930000     -4.5670359E-32
   4.940000     -4.7234499E-32
   4.950000     -4.8651216E-32
   4.960000     -4.9901058E-32
   4.970000     -5.0962429E-32
   4.980000     -5.1811071E-32
   4.990000     -5.2419930E-32
   5.000000     -5.2759736E-32
   5.010000     -5.2798416E-32
   5.020000     -5.2502785E-32
   5.030000     -5.1838455E-32
   5.040000     -5.0769401E-32
   5.050000     -4.9260243E-32
   5.060000     -4.7276349E-32
   5.070000     -4.4784184E-32
   5.080000     -4.1751673E-32
   5.090000     -3.8148527E-32
   5.100000     -3.3945303E-32
   5.110000     -2.9114071E-32
   5.120000     -2.3628234E-32
   5.130000     -1.7461213E-32
   5.140000     -1.0586861E-32
   5.150000     -2.9791262E-33
   5.160000      5.3879728E-33
   5.170000      1.4540042E-32
   5.180000      2.4501841E-32
   5.190000      3.5296616E-32
   5.200000      4.6945254E-32
   5.210000      5.9465326E-32
   5.220000      7.2870176E-32
   5.230000      8.7166203E-32
   5.240000      1.0235772E-31
   5.250000      1.1844252E-31
   5.260000      1.3540765E-31
   5.270000      1.5323485E-31
   5.280000      1.7189871E-31
   5.290000      1.9136677E-31
   5.300000      2.1159949E-31
   5.310000      2.3255082E-31
   5.320000      2.5416795E-31
   5.330000      2.7639086E-31
   5.340000      2.9915238E-31
   5.350000      3.2237761E-31
   5.360000      3.4598309E-31
   5.370000      3.6987595E-31
   5.380000      3.9395301E-31
   5.390000      4.1809969E-31
   5.400000      4.4218928E-31
   5.410000      4.6608201E-31
   5.420000      4.8962467E-31
   5.430000      5.1265011E-31
   5.440000      5.3497731E-31
   5.450000      5.5641165E-31
   5.460000      5.7674492E-31
   5.470000      5.9575638E-31
   5.480000      6.1321261E-31
   5.490000      6.2886869E-31
   5.500000      6.4246837E-31
   5.510000      6.5374460E-31
   5.520000      6.6241961E-31
   5.530000      6.6820520E-31
   5.540000      6.7080276E-31
   5.550000      6.6990327E-31
   5.560000      6.6518743E-31
   5.570000      6.5632584E-31
   5.580000      6.4297952E-31
   5.590000      6.2480050E-31
   5.600000      6.0143270E-31
   5.610000      5.7251357E-31
   5.620000      5.3767539E-31
   5.630000      4.9654748E-31
   5.640000      4.4875823E-31
   5.650000      3.9393757E-31
   5.660000      3.3171922E-31
   5.670000      2.6174338E-31
   5.680000      1.8365906E-31
   5.690000      9.7126590E-32
   5.700000      1.8201489E-33
   5.710000     -1.0257018E-31
   5.720000     -2.1633598E-31
   5.730000     -3.3974772E-31
   5.740000     -4.7305245E-31
   5.750000     -6.1647076E-31
   5.760000     -7.7019358E-31
   5.770000     -9.3437855E-31
   5.780000     -1.1091467E-30
   5.790000     -1.2945780E-30
   5.800000     -1.4907071E-30
   5.810000     -1.6975177E-30
   5.820000     -1.9149390E-30
   5.830000     -2.1428404E-30
   5.840000     -2.3810255E-30
   5.850000     -2.6292290E-30
   5.860000     -2.8871102E-30
   5.870000     -3.1542501E-30
   5.880000     -3.4301448E-30
   5.890000     -3.7142044E-30
   5.900000     -4.0057447E-30
   5.910000     -4.3039874E-30
   5.920000     -4.6080518E-30
   5.930000     -4.9169548E-30
   5.940000     -5.2296043E-30
   5.950000     -5.5447952E-30
   5.960000     -5.8612055E-30
   5.970000     -6.1773921E-30
   5.980000     -6.4917862E-30
   5.990000     -6.8026915E-30
   6.000000     -7.1082772E-30
   6.010000     -7.4065774E-30
   6.020000     -7.6954894E-30
   6.030000     -7.9727669E-30
   6.040000     -8.2360250E-30
   6.050000     -8.4827344E-30
   6.060000     -8.7102228E-30
   6.070000     -8.9156797E-30
   6.080000     -9.0961528E-30
   6.090000     -9.2485533E-30
   6.100000     -9.3696590E-30
   6.110000     -9.4561152E-30
   6.120000     -9.5044440E-30
   6.130000     -9.5110433E-30
   6.140000     -9.4721959E-30
   6.150000     -9.3840786E-30
   6.160000     -9.2427665E-30
   6.170000     -9.0442423E-30
   6.180000     -8.7844095E-30
   6.190000     -8.4591034E-30
   6.200000     -8.0641026E-30
   6.210000     -7.5951417E-30
   6.220000     -7.0479339E-30
   6.230000     -6.4181811E-30
   6.240000     -5.7016016E-30
   6.250000     -4.8939433E-30
   6.260000     -3.9910113E-30
   6.270000     -2.9886895E-30
   6.280000     -1.8829699E-30
   6.290000     -6.6997399E-31
   6.300000      6.5401783E-31
   6.310000      2.0925340E-30
   6.320000      3.6488842E-30
   6.330000      5.3261209E-30
   6.340000      7.1270083E-30
   6.350000      9.0539885E-30
   6.360000      1.1109139E-29
   6.370000      1.3294138E-29
   6.380000      1.5610226E-29
   6.390000      1.8058157E-29
   6.400000      2.0638151E-29
   6.410000      2.3349862E-29
   6.420000      2.6192319E-29
   6.430000      2.9163894E-29
   6.440000      3.2262231E-29
   6.450000      3.5484218E-29
   6.460000      3.8825926E-29
   6.470000      4.2282564E-29
   6.480000      4.5848426E-29
   6.490000      4.9516842E-29
   6.500000      5.3280136E-29
   6.510000      5.7129558E-29
   6.520000      6.1055259E-29
   6.530000      6.5046220E-29
   6.540000      6.9090227E-29
   6.550000      7.3173806E-29
   6.560000      7.7282188E-29
   6.570000      8.1399285E-29
   6.580000      8.5507630E-29
   6.590000      8.9588327E-29
   6.600000      9.3621043E-29
   6.610000      9.7583951E-29
   6.620000      1.0145374E-28
   6.630000      1.0520557E-28
   6.640000      1.0881306E-28
   6.650000      1.1224823E-28
   6.660000      1.1548159E-28
   6.670000      1.1848205E-28
   6.680000      1.2121703E-28
   6.690000      1.2365235E-28
   6.700000      1.2575231E-28
   6.710000      1.2747978E-28
   6.720000      1.2879614E-28
   6.730000      1.2966137E-28
   6.740000      1.3003408E-28
   6.750000      1.2987164E-28
   6.760000      1.2913021E-28
   6.770000      1.2776481E-28
   6.780000      1.2572949E-28
   6.790000      1.2297734E-28
   6.800000      1.1946074E-28
   6.810000      1.1513142E-28
   6.820000      1.0994060E-28
   6.830000      1.0383923E-28
   6.840000      9.6778088E-29
   6.850000      8.8708026E-29
   6.860000      7.9580178E-29
   6.870000      6.9346189E-29
   6.880000      5.7958454E-29
   6.890000      4.5370359E-29
   6.900000      3.1536579E-29
   6.910000      1.6413395E-29
   6.920000     -4.1105924E-32
   6.930000     -1.7866602E-29
   6.940000     -3.7100218E-29
   6.950000     -5.7776201E-29
   6.960000     -7.9925527E-29
   6.970000     -1.0357554E-28
   6.980000     -1.2874949E-28
   6.990000     -1.5546616E-28
   7.000000     -1.8373946E-28
   7.010000     -2.1357790E-28
   7.020000     -2.4498424E-28
   7.030000     -2.7795493E-28
   7.040000     -3.1247968E-28
   7.050000     -3.4854098E-28
   7.060000     -3.8611352E-28