  -2.600000      0.0000000E+00
  -2.590000      0.0000000E+00
  -2.580000      0.0000000E+00
  -2.570000      0.0000000E+00
  -2.560000      0.0000000E+00
  -2.550000      0.0000000E+00
  -2.540000      0.0000000E+00
  -2.530000      0.0000000E+00
  -2.520000      0.0000000E+00
  -2.510000      0.0000000E+00
  -2.500000      0.0000000E+00
  -2.490000      0.0000000E+00
  -2.480000      0.0000000E+00
  -2.470000      0.0000000E+00
  -2.460000      0.0000000E+00
  -2.450000      0.0000000E+00
  -2.440000      0.0000000E+00
  -2.430000      0.0000000E+00
  -2.420000      0.0000000E+00
  -2.410000      0.0000000E+00
  -2.400000      0.0000000E+00
  -2.390000      0.0000000E+00
  -2.380000      0.0000000E+00
  -2.370000      0.0000000E+00
  -2.360000      0.0000000E+00
  -2.350000      0.0000000E+00
  -2.340000      0.0000000E+00
  -2.330000      0.0000000E+00
  -2.320000      0.0000000E+00
  -2.310000      0.0000000E+00
  -2.300000      0.0000000E+00
  -2.290000      0.0000000E+00
  -2.280000      0.0000000E+00
  -2.270000      0.0000000E+00
  -2.260000      0.0000000E+00
  -2.250000      0.0000000E+00
  -2.240000      0.0000000E+00
  -2.230000      0.0000000E+00
  -2.220000      0.0000000E+00
  -2.210000      0.0000000E+00
  -2.200000      0.0000000E+00
  -2.190000      0.0000000E+00
  -2.180000      0.0000000E+00
  -2.170000      0.0000000E+00
  -2.160000      0.0000000E+00
  -2.150000      0.0000000E+00
  -2.140000      0.0000000E+00
  -2.130000      0.0000000E+00
  -2.120000      0.0000000E+00
  -2.110000      0.0000000E+00
  -2.100000      0.0000000E+00
  -2.090000      0.0000000E+00
  -2.080000      0.0000000E+00
  -2.070000      0.0000000E+00
  -2.060000      0.0000000E+00
  -2.050000      0.0000000E+00
  -2.040000      0.0000000E+00
  -2.030000      0.0000000E+00
  -2.020000      0.0000000E+00
  -2.010000      0.0000000E+00
  -2.000000      0.0000000E+00
  -1.990000      0.0000000E+00
  -1.980000      0.0000000E+00
  -1.970000      0.0000000E+00
  -1.960000      0.0000000E+00
  -1.950000      0.0000000E+00
  -1.940000      0.0000000E+00
  -1.930000      0.0000000E+00
  -1.920000      0.0000000E+00
  -1.910000      0.0000000E+00
  -1.900000      0.0000000E+00
  -1.890000      0.0000000E+00
  -1.880000      0.0000000E+00
  -1.870000      0.0000000E+00
  -1.860000      0.0000000E+00
  -1.850000      0.0000000E+00
  -1.840000      0.0000000E+00
  -1.830000      0.0000000E+00
  -1.820000      0.0000000E+00
  -1.810000      0.0000000E+00
  -1.800000      0.0000000E+00
  -1.790000      0.0000000E+00
  -1.780000      0.0000000E+00
  -1.770000      0.0000000E+00
  -1.760000      0.0000000E+00
  -1.750000      0.0000000E+00
  -1.740000      0.0000000E+00
  -1.730000      0.0000000E+00
  -1.720000      0.0000000E+00
  -1.710000      0.0000000E+00
  -1.700000      0.0000000E+00
  -1.690000      0.0000000E+00
  -1.680000      0.0000000E+00
  -1.670000      0.0000000E+00
  -1.660000      0.0000000E+00
  -1.650000      0.0000000E+00
  -1.640000      0.0000000E+00
  -1.630000      0.0000000E+00
  -1.620000      0.0000000E+00
  -1.610000      0.0000000E+00
  -1.600000      0.0000000E+00
  -1.590000      0.0000000E+00
  -1.580000      0.0000000E+00
  -1.570000      0.0000000E+00
  -1.560000      0.0000000E+00
  -1.550000      0.0000000E+00
  -1.540000      0.0000000E+00
  -1.530000      0.0000000E+00
  -1.520000      0.0000000E+00
  -1.510000      0.0000000E+00
  -1.500000      0.0000000E+00
  -1.490000      0.0000000E+00
  -1.480000      0.0000000E+00
  -1.470000      0.0000000E+00
  -1.460000      0.0000000E+00
  -1.450000      0.0000000E+00
  -1.440000      0.0000000E+00
  -1.430000      0.0000000E+00
  -1.420000      0.0000000E+00
  -1.410000      0.0000000E+00
  -1.400000      0.0000000E+00
  -1.390000      0.0000000E+00
  -1.380000      0.0000000E+00
  -1.370000      0.0000000E+00
  -1.360000      0.0000000E+00
  -1.350000      0.0000000E+00
  -1.340000      0.0000000E+00
  -1.330000      0.0000000E+00
  -1.320000      0.0000000E+00
  -1.310000      0.0000000E+00
  -1.300000      0.0000000E+00
  -1.290000      0.0000000E+00
  -1.280000      0.0000000E+00
  -1.270000      0.0000000E+00
  -1.260000      0.0000000E+00
  -1.250000      0.0000000E+00
  -1.240000      0.0000000E+00
  -1.230000      0.0000000E+00
  -1.220000      0.0000000E+00
  -1.210000      0.0000000E+00
  -1.200000      0.0000000E+00
  -1.190000      0.0000000E+00
  -1.180000      0.0000000E+00
  -1.170000      0.0000000E+00
  -1.160000      0.0000000E+00
  -1.150000      0.0000000E+00
  -1.140000      0.0000000E+00
  -1.130000      0.0000000E+00
  -1.120000      0.0000000E+00
  -1.110000      0.0000000E+00
  -1.100000      0.0000000E+00
  -1.090000      0.0000000E+00
  -1.080000      0.0000000E+00
  -1.070000      0.0000000E+00
  -1.060000      0.0000000E+00
  -1.050000      0.0000000E+00
  -1.040000      0.0000000E+00
  -1.030000      0.0000000E+00
  -1.020000      0.0000000E+00
  -1.010000      0.0000000E+00
  -1.000000      0.0000000E+00
 -0.9900000      0.0000000E+00
 -0.9800000      0.0000000E+00
 -0.9700000      0.0000000E+00
 -0.9600000      0.0000000E+00
 -0.9500000      0.0000000E+00
 -0.9400000      0.0000000E+00
 -0.9300000      0.0000000E+00
 -0.9200000      0.0000000E+00
 -0.9100000      0.0000000E+00
 -0.9000000      0.0000000E+00
 -0.8900000      0.0000000E+00
 -0.8800000      0.0000000E+00
 -0.8700000      0.0000000E+00
 -0.8600000      0.0000000E+00
 -0.8500000      0.0000000E+00
 -0.8400000      0.0000000E+00
 -0.8300000      0.0000000E+00
 -0.8200000      0.0000000E+00
 -0.8100000      0.0000000E+00
 -0.8000000      0.0000000E+00
 -0.7900000      0.0000000E+00
 -0.7800000      0.0000000E+00
 -0.7700000      0.0000000E+00
 -0.7600000      0.0000000E+00
 -0.7500000      0.0000000E+00
 -0.7400000      0.0000000E+00
 -0.7300000      0.0000000E+00
 -0.7200000      0.0000000E+00
 -0.7100000      0.0000000E+00
 -0.7000000      0.0000000E+00
 -0.6900000      0.0000000E+00
 -0.6800000      0.0000000E+00
 -0.6700000      0.0000000E+00
 -0.6600000      0.0000000E+00
 -0.6500000      0.0000000E+00
 -0.6400000      0.0000000E+00
 -0.6300000      0.0000000E+00
 -0.6200000      0.0000000E+00
 -0.6100000      0.0000000E+00
 -0.6000000      0.0000000E+00
 -0.5900000      0.0000000E+00
 -0.5800000      0.0000000E+00
 -0.5700000      0.0000000E+00
 -0.5600000      0.0000000E+00
 -0.5500000      0.0000000E+00
 -0.5400000      0.0000000E+00
 -0.5300000      0.0000000E+00
 -0.5200000      0.0000000E+00
 -0.5100000      0.0000000E+00
 -0.5000000      0.0000000E+00
 -0.4900000      0.0000000E+00
 -0.4800000      0.0000000E+00
 -0.4700000      0.0000000E+00
 -0.4600000      0.0000000E+00
 -0.4500000      0.0000000E+00
 -0.4400000      0.0000000E+00
 -0.4300000      0.0000000E+00
 -0.4200000      0.0000000E+00
 -0.4100000      0.0000000E+00
 -0.4000000      0.0000000E+00
 -0.3900000      0.0000000E+00
 -0.3800000      0.0000000E+00
 -0.3700000      0.0000000E+00
 -0.3600000      0.0000000E+00
 -0.3500000      0.0000000E+00
 -0.3400000      0.0000000E+00
 -0.3300000      0.0000000E+00
 -0.3200000      0.0000000E+00
 -0.3100000      0.0000000E+00
 -0.3000000      0.0000000E+00
 -0.2900000      0.0000000E+00
 -0.2800000      0.0000000E+00
 -0.2700000      0.0000000E+00
 -0.2600000      0.0000000E+00
 -0.2500000      0.0000000E+00
 -0.2400000      0.0000000E+00
 -0.2300000      0.0000000E+00
 -0.2200000      0.0000000E+00
 -0.2100000      0.0000000E+00
 -0.2000000      0.0000000E+00
 -0.1900000      0.0000000E+00
 -0.1800000      0.0000000E+00
 -0.1700000      0.0000000E+00
 -0.1600000      0.0000000E+00
 -0.1500000      0.0000000E+00
 -0.1400000      0.0000000E+00
 -0.1300000      0.0000000E+00
 -0.1200000      0.0000000E+00
 -0.1100000      0.0000000E+00
 -0.1000000      0.0000000E+00
 -9.0000004E-02  0.0000000E+00
 -7.9999998E-02  0.0000000E+00
 -7.0000000E-02  0.0000000E+00
 -5.9999999E-02  0.0000000E+00
 -5.0000001E-02  0.0000000E+00
 -3.9999999E-02  0.0000000E+00
 -2.9999999E-02  0.0000000E+00
 -2.0000000E-02  0.0000000E+00
 -9.9999998E-03  0.0000000E+00
 -3.4694470E-17  0.0000000E+00
  9.9999998E-03  0.0000000E+00
  2.0000000E-02  0.0000000E+00
  2.9999999E-02  0.0000000E+00
  3.9999999E-02  0.0000000E+00
  5.0000001E-02  0.0000000E+00
  5.9999999E-02  0.0000000E+00
  7.0000000E-02  0.0000000E+00
  7.9999998E-02  0.0000000E+00
  9.0000004E-02  0.0000000E+00
  0.1000000      0.0000000E+00
  0.1100000      0.0000000E+00
  0.1200000      0.0000000E+00
  0.1300000      0.0000000E+00
  0.1400000      0.0000000E+00
  0.1500000      0.0000000E+00
  0.1600000      0.0000000E+00
  0.1700000      0.0000000E+00
  0.1800000      0.0000000E+00
  0.1900000      0.0000000E+00
  0.2000000      0.0000000E+00
  0.2100000      0.0000000E+00
  0.2200000      0.0000000E+00
  0.2300000      0.0000000E+00
  0.2400000      0.0000000E+00
  0.2500000      0.0000000E+00
  0.2600000      0.0000000E+00
  0.2700000      0.0000000E+00
  0.2800000      0.0000000E+00
  0.2900000      0.0000000E+00
  0.3000000      0.0000000E+00
  0.3100000      0.0000000E+00
  0.3200000      0.0000000E+00
  0.3300000      0.0000000E+00
  0.3400000      0.0000000E+00
  0.3500000      0.0000000E+00
  0.3600000      0.0000000E+00
  0.3700000      0.0000000E+00
  0.3800000      0.0000000E+00
  0.3900000      0.0000000E+00
  0.4000000      0.0000000E+00
  0.4100000      0.0000000E+00
  0.4200000      0.0000000E+00
  0.4300000      0.0000000E+00
  0.4400000      0.0000000E+00
  0.4500000      0.0000000E+00
  0.4600000      0.0000000E+00
  0.4700000      0.0000000E+00
  0.4800000      0.0000000E+00
  0.4900000      0.0000000E+00
  0.5000000      0.0000000E+00
  0.5100000      0.0000000E+00
  0.5200000      0.0000000E+00
  0.5300000      0.0000000E+00
  0.5400000      0.0000000E+00
  0.5500000      0.0000000E+00
  0.5600000      0.0000000E+00
  0.5700000      0.0000000E+00
  0.5800000      0.0000000E+00
  0.5900000      0.0000000E+00
  0.6000000      0.0000000E+00
  0.6100000      0.0000000E+00
  0.6200000      0.0000000E+00
  0.6300000      0.0000000E+00
  0.6400000      0.0000000E+00
  0.6500000      0.0000000E+00
  0.6600000      0.0000000E+00
  0.6700000      0.0000000E+00
  0.6800000      0.0000000E+00
  0.6900000      0.0000000E+00
  0.7000000      0.0000000E+00
  0.7100000      0.0000000E+00
  0.7200000      0.0000000E+00
  0.7300000      0.0000000E+00
  0.7400000      0.0000000E+00
  0.7500000      0.0000000E+00
  0.7600000      0.0000000E+00
  0.7700000      0.0000000E+00
  0.7800000      0.0000000E+00
  0.7900000      0.0000000E+00
  0.8000000      0.0000000E+00
  0.8100000      0.0000000E+00
  0.8200000      0.0000000E+00
  0.8300000      0.0000000E+00
  0.8400000      0.0000000E+00
  0.8500000      0.0000000E+00
  0.8600000      0.0000000E+00
  0.8700000      0.0000000E+00
  0.8800000      0.0000000E+00
  0.8900000      0.0000000E+00
  0.9000000      0.0000000E+00
  0.9100000      0.0000000E+00
  0.9200000      0.0000000E+00
  0.9300000      0.0000000E+00
  0.9400000      0.0000000E+00
  0.9500000      0.0000000E+00
  0.9600000      0.0000000E+00
  0.9700000      0.0000000E+00
  0.9800000      0.0000000E+00
  0.9900000      0.0000000E+00
   1.000000      0.0000000E+00
   1.010000      0.0000000E+00
   1.020000      0.0000000E+00
   1.030000      0.0000000E+00
   1.040000      0.0000000E+00
   1.050000      0.0000000E+00
   1.060000      0.0000000E+00
   1.070000      0.0000000E+00
   1.080000      0.0000000E+00
   1.090000      0.0000000E+00
   1.100000      0.0000000E+00
   1.110000      0.0000000E+00
   1.120000      0.0000000E+00
   1.130000      0.0000000E+00
   1.140000      0.0000000E+00
   1.150000      0.0000000E+00
   1.160000      0.0000000E+00
   1.170000      0.0000000E+00
   1.180000      0.0000000E+00
   1.190000      0.0000000E+00
   1.200000      0.0000000E+00
   1.210000      0.0000000E+00
   1.220000      0.0000000E+00
   1.230000      0.0000000E+00
   1.240000      0.0000000E+00
   1.250000      0.0000000E+00
   1.260000      0.0000000E+00
   1.270000      0.0000000E+00
   1.280000      0.0000000E+00
   1.290000      0.0000000E+00
   1.300000      0.0000000E+00
   1.310000      0.0000000E+00
   1.320000      0.0000000E+00
   1.330000      0.0000000E+00
   1.340000      0.0000000E+00
   1.350000      0.0000000E+00
   1.360000      0.0000000E+00
   1.370000      0.0000000E+00
   1.380000      0.0000000E+00
   1.390000      0.0000000E+00
   1.400000      0.0000000E+00
   1.410000      0.0000000E+00
   1.420000      0.0000000E+00
   1.430000      0.0000000E+00
   1.440000      0.0000000E+00
   1.450000      0.0000000E+00
   1.460000      0.0000000E+00
   1.470000      0.0000000E+00
   1.480000      0.0000000E+00
   1.490000      0.0000000E+00
   1.500000      0.0000000E+00
   1.510000      0.0000000E+00
   1.520000      0.0000000E+00
   1.530000      0.0000000E+00
   1.540000      0.0000000E+00
   1.550000      0.0000000E+00
   1.560000      0.0000000E+00
   1.570000      0.0000000E+00
   1.580000      0.0000000E+00
   1.590000      0.0000000E+00
   1.600000      0.0000000E+00
   1.610000      0.0000000E+00
   1.620000      0.0000000E+00
   1.630000      0.0000000E+00
   1.640000      0.0000000E+00
   1.650000      0.0000000E+00
   1.660000      0.0000000E+00
   1.670000      0.0000000E+00
   1.680000      0.0000000E+00
   1.690000      0.0000000E+00
   1.700000      0.0000000E+00
   1.710000      0.0000000E+00
   1.720000      0.0000000E+00
   1.730000      0.0000000E+00
   1.740000      0.0000000E+00
   1.750000      0.0000000E+00
   1.760000      0.0000000E+00
   1.770000      0.0000000E+00
   1.780000      0.0000000E+00
   1.790000      0.0000000E+00
   1.800000      0.0000000E+00
   1.810000      0.0000000E+00
   1.820000      0.0000000E+00
   1.830000      0.0000000E+00
   1.840000      0.0000000E+00
   1.850000      0.0000000E+00
   1.860000      0.0000000E+00
   1.870000      0.0000000E+00
   1.880000      0.0000000E+00
   1.890000      0.0000000E+00
   1.900000      0.0000000E+00
   1.910000      0.0000000E+00
   1.920000      0.0000000E+00
   1.930000      0.0000000E+00
   1.940000      0.0000000E+00
   1.950000      0.0000000E+00
   1.960000      0.0000000E+00
   1.970000      0.0000000E+00
   1.980000      0.0000000E+00
   1.990000      0.0000000E+00
   2.000000      0.0000000E+00
   2.010000      0.0000000E+00
   2.020000      0.0000000E+00
   2.030000      0.0000000E+00
   2.040000      0.0000000E+00
   2.050000      0.0000000E+00
   2.060000      0.0000000E+00
   2.070000      0.0000000E+00
   2.080000      0.0000000E+00
   2.090000      0.0000000E+00
   2.100000      0.0000000E+00
   2.110000      0.0000000E+00
   2.120000      0.0000000E+00
   2.130000      0.0000000E+00
   2.140000      0.0000000E+00
   2.150000      0.0000000E+00
   2.160000      0.0000000E+00
   2.170000      0.0000000E+00
   2.180000      0.0000000E+00
   2.190000      0.0000000E+00
   2.200000      0.0000000E+00
   2.210000     -1.2039322E-38
   2.220000     -1.2424370E-38
   2.230000     -1.3571180E-38
   2.240000     -1.5647842E-38
   2.250000     -1.7927020E-38
   2.260000     -2.0164756E-38
   2.270000     -2.2168879E-38
   2.280000     -2.4004820E-38
   2.290000     -2.4880220E-38
   2.300000     -2.4916438E-38
   2.310000     -2.5241068E-38
   2.320000     -2.6023617E-38
   2.330000     -2.8019237E-38
   2.340000     -3.1272797E-38
   2.350000     -3.5029471E-38
   2.360000     -3.9249347E-38
   2.370000     -4.3560344E-38
   2.380000     -4.7862907E-38
   2.390000     -5.2380228E-38
   2.400000     -5.6571585E-38
   2.410000     -6.0219652E-38
   2.420000     -6.3540113E-38
   2.430000     -6.7621524E-38
   2.440000     -7.3283644E-38
   2.450000     -8.0033340E-38
   2.460000     -8.7578105E-38
   2.470000     -9.5440813E-38
   2.480000     -1.0385229E-37
   2.490000     -1.1450382E-37
   2.500000     -1.2772531E-37
   2.510000     -1.4514420E-37
   2.520000     -1.6693376E-37
   2.530000     -1.9077865E-37
   2.540000     -2.1585122E-37
   2.550000     -2.4225930E-37
   2.560000     -2.6572121E-37
   2.570000     -2.8520666E-37
   2.580000     -3.0287791E-37
   2.590000     -3.1866047E-37
   2.600000     -3.3890390E-37
   2.610000     -3.6377044E-37
   2.620000     -3.9174884E-37
   2.630000     -4.2418695E-37
   2.640000     -4.5958236E-37
   2.650000     -4.9821097E-37
   2.660000     -5.4051611E-37
   2.670000     -5.8716293E-37
   2.680000     -6.4467949E-37
   2.690000     -7.1320011E-37
   2.700000     -7.8770094E-37
   2.710000     -8.6353814E-37
   2.720000     -9.3965048E-37
   2.730000     -1.0290102E-36
   2.740000     -1.1303688E-36
   2.750000     -1.2344617E-36
   2.760000     -1.3355566E-36
   2.770000     -1.4331528E-36
   2.780000     -1.5069480E-36
   2.790000     -1.5482591E-36
   2.800000     -1.5774377E-36
   2.810000     -1.5960862E-36
   2.820000     -1.5967527E-36
   2.830000     -1.5762311E-36
   2.840000     -1.5412753E-36
   2.850000     -1.4762433E-36
   2.860000     -1.3833879E-36
   2.870000     -1.2826500E-36
   2.880000     -1.1694730E-36
   2.890000     -1.0511633E-36
   2.900000     -9.3372135E-37
   2.910000     -8.1209806E-37
   2.920000     -6.9291160E-37
   2.930000     -6.0762920E-37
   2.940000     -5.5670642E-37
   2.950000     -5.0505814E-37
   2.960000     -4.3579947E-37
   2.970000     -3.4571029E-37
   2.980000     -2.4040724E-37
   2.990000     -1.2023290E-37
   3.000000      1.9172781E-38
   3.010000      1.8243655E-37
   3.020000      3.6292047E-37
   3.030000      5.7309022E-37
   3.040000      8.2976734E-37
   3.050000      1.1193169E-36
   3.060000      1.4506694E-36
   3.070000      1.8651287E-36
   3.080000      2.3630891E-36
   3.090000      2.9222898E-36
   3.100000      3.5095972E-36
   3.110000      4.1116915E-36
   3.120000      4.7437339E-36
   3.130000      5.4304822E-36
   3.140000      6.1758116E-36
   3.150000      7.0875178E-36
   3.160000      8.1130885E-36
   3.170000      9.0761466E-36
   3.180000      9.9928456E-36
   3.190000      1.0759307E-35
   3.200000      1.1536415E-35
   3.210000      1.2382249E-35
   3.220000      1.3156847E-35
   3.230000      1.3787828E-35
   3.240000      1.4168944E-35
   3.250000      1.4383159E-35
   3.260000      1.4597354E-35
   3.270000      1.4803436E-35
   3.280000      1.4888329E-35
   3.290000      1.4795521E-35
   3.300000      1.4456125E-35
   3.310000      1.3825335E-35
   3.320000      1.2838031E-35
   3.330000      1.1486749E-35
   3.340000      9.7507077E-36
   3.350000      7.6220097E-36
   3.360000      5.0373294E-36
   3.370000      1.9722692E-36
   3.380000     -1.5482756E-36
   3.390000     -5.3226071E-36
   3.400000     -9.0062949E-36
   3.410000     -1.2347882E-35
   3.420000     -1.5378934E-35
   3.430000     -1.8288721E-35
   3.440000     -2.1116716E-35
   3.450000     -2.4027301E-35
   3.460000     -2.6731525E-35
   3.470000     -2.9208822E-35
   3.480000     -3.1851693E-35
   3.490000     -3.4681397E-35
   3.500000     -3.7658876E-35
   3.510000     -4.0786359E-35
   3.520000     -4.3951679E-35
   3.530000     -4.7053696E-35
   3.540000     -5.0018777E-35
   3.550000     -5.2828363E-35
   3.560000     -5.5522691E-35
   3.570000     -5.7988152E-35
   3.580000     -6.0973931E-35
   3.590000     -6.4424678E-35
   3.600000     -6.7411944E-35
   3.610000     -6.9956240E-35
   3.620000     -7.2659493E-35
   3.630000     -7.5497261E-35
   3.640000     -7.7593544E-35
   3.650000     -7.7864912E-35
   3.660000     -7.6470006E-35
   3.670000     -7.3600697E-35
   3.680000     -6.9088676E-35
   3.690000     -6.3232648E-35
   3.700000     -5.6120500E-35
   3.710000     -4.7193380E-35
   3.720000     -3.6105507E-35
   3.730000     -2.3229073E-35
   3.740000     -8.0464676E-36
   3.750000      9.6681038E-36
   3.760000      2.9467505E-35
   3.770000      5.1641263E-35
   3.780000      7.6596113E-35
   3.790000      1.0452774E-34
   3.800000      1.3563404E-34
   3.810000      1.6895097E-34
   3.820000      2.0400147E-34
   3.830000      2.4086214E-34
   3.840000      2.7787545E-34
   3.850000      3.2076217E-34
   3.860000      3.6798366E-34
   3.870000      4.1189345E-34
   3.880000      4.5556453E-34
   3.890000      4.9921808E-34
   3.900000      5.4307499E-34
   3.910000      5.8750501E-34
   3.920000      6.3301170E-34
   3.930000      6.8002693E-34
   3.940000      7.2737662E-34
   3.950000      7.7307635E-34
   3.960000      8.1737862E-34
   3.970000      8.6096769E-34
   3.980000      9.0121515E-34
   3.990000      9.3641928E-34
   4.000000      9.6646583E-34
   4.010000      9.9374483E-34
   4.020000      1.0205488E-33
   4.030000      1.0457018E-33
   4.040000      1.0669123E-33
   4.050000      1.0840788E-33
   4.060000      1.0956112E-33
   4.070000      1.1018264E-33
   4.080000      1.1034192E-33
   4.090000      1.0997067E-33
   4.100000      1.0898584E-33
   4.110000      1.0719834E-33
   4.120000      1.0458949E-33
   4.130000      1.0065008E-33
   4.140000      9.5124043E-34
   4.150000      8.8403640E-34
   4.160000      8.0446288E-34
   4.170000      7.1032263E-34
   4.180000      5.9984306E-34
   4.190000      4.7466503E-34
   4.200000      3.3381489E-34
   4.210000      1.7503631E-34
   4.220000     -1.0925164E-36
   4.230000     -1.9593422E-34
   4.240000     -4.0924115E-34
   4.250000     -6.4414179E-34
   4.260000     -9.0326051E-34
   4.270000     -1.1821519E-33
   4.280000     -1.4789978E-33
   4.290000     -1.7961262E-33
   4.300000     -2.1303681E-33
   4.310000     -2.4831675E-33
   4.320000     -2.8557823E-33
   4.330000     -3.2443420E-33
   4.340000     -3.6442253E-33
   4.350000     -4.0554224E-33
   4.360000     -4.4778628E-33
   4.370000     -4.9080114E-33
   4.380000     -5.3462589E-33
   4.390000     -5.7903662E-33
   4.400000     -6.2368512E-33
   4.410000     -6.6837654E-33
   4.420000     -7.1311615E-33
   4.430000     -7.5745050E-33
   4.440000     -8.0096290E-33
   4.450000     -8.4345246E-33
   4.460000     -8.8427848E-33
   4.470000     -9.2347086E-33
   4.480000     -9.6111416E-33
   4.490000     -9.9606410E-33
   4.500000     -1.0277404E-32
   4.510000     -1.0559871E-32
   4.520000     -1.0802283E-32
   4.530000     -1.0999560E-32
   4.540000     -1.1146296E-32
   4.550000     -1.1236602E-32
   4.560000     -1.1261706E-32
   4.570000     -1.1215563E-32
   4.580000     -1.1095516E-32
   4.590000     -1.0892779E-32
   4.600000     -1.0600521E-32
   4.610000     -1.0214231E-32
   4.620000     -9.7264524E-33
   4.630000     -9.1298016E-33
   4.640000     -8.4182918E-33
   4.650000     -7.5861740E-33
   4.660000     -6.6265239E-33
   4.670000     -5.5337840E-33
   4.680000     -4.3023450E-33
   4.690000     -2.9266608E-33
   4.700000     -1.4020346E-33
   4.710000      2.7559070E-34
   4.720000      2.1081611E-33
   4.730000      4.1002749E-33
   4.740000      6.2542170E-33
   4.750000      8.5698240E-33
   4.760000      1.1048355E-32
   4.770000      1.3688266E-32
   4.780000      1.6487731E-32
   4.790000      1.9443720E-32
   4.800000      2.2551392E-32
   4.810000      2.5805113E-32
   4.820000      2.9197928E-32
   4.830000      3.2720843E-32
   4.840000      3.6363465E-32
   4.850000      4.0113833E-32
   4.860000      4.3958325E-32
   4.870000      4.7881626E-32
   4.880000      5.1866602E-32
   4.890000      5.5893969E-32
   4.900000      5.9942700E-32
   4.910000      6.3989716E-32
   4.920000      6.8009401E-32
   4.930000      7.1973956E-32
   4.940000      7.5854069E-32
   4.950000      7.9618166E-32
   4.960000      8.3232147E-32
   4.970000      8.6658666E-32
   4.980000      8.9858902E-32
   4.990000      9.2792513E-32
   5.000000      9.5415617E-32
   5.010000      9.7682370E-32
   5.020000      9.9544811E-32
   5.030000      1.0095288E-31
   5.040000      1.0185452E-31
   5.050000      1.0219584E-31
   5.060000      1.0192127E-31
   5.070000      1.0097386E-31
   5.080000      9.9294960E-32
   5.090000      9.6825023E-32
   5.100000      9.3503922E-32
   5.110000      8.9270938E-32
   5.120000      8.4064773E-32
   5.130000      7.7824203E-32
   5.140000      7.0489065E-32
   5.150000      6.1999792E-32
   5.160000      5.2298120E-32
   5.170000      4.1327543E-32
   5.180000      2.9033802E-32
   5.190000      1.5365416E-32
   5.200000      2.7421960E-34
   5.210000     -1.6284113E-32
   5.220000     -3.4349479E-32
   5.230000     -5.3956719E-32
   5.240000     -7.5135042E-32
   5.250000     -9.7907312E-32
   5.260000     -1.2228947E-31
   5.270000     -1.4828980E-31
   5.280000     -1.7590822E-31
   5.290000     -2.0513559E-31
   5.300000     -2.3595298E-31
   5.310000     -2.6833082E-31
   5.320000     -3.0222830E-31
   5.330000     -3.3759234E-31
   5.340000     -3.7435701E-31
   5.350000     -4.1244260E-31
   5.360000     -4.5175475E-31
   5.370000     -4.9218376E-31
   5.380000     -5.3360367E-31
   5.390000     -5.7587167E-31
   5.400000     -6.1882706E-31
   5.410000     -6.6229063E-31
   5.420000     -7.0606402E-31
   5.430000     -7.4992891E-31
   5.440000     -7.9364658E-31
   5.450000     -8.3695724E-31
   5.460000     -8.7957963E-31
   5.470000     -9.2121047E-31
   5.480000     -9.6152419E-31
   5.490000     -1.0001730E-30
   5.500000     -1.0367862E-30
   5.510000     -1.0709705E-30
   5.520000     -1.1023100E-30
   5.530000     -1.1303665E-30
   5.540000     -1.1546795E-30
   5.550000     -1.1747673E-30
   5.560000     -1.1901272E-30
   5.570000     -1.2002362E-30
   5.580000     -1.2045522E-30
   5.590000     -1.2025154E-30
   5.600000     -1.1935488E-30
   5.610000     -1.1770610E-30
   5.620000     -1.1524465E-30
   5.630000     -1.1190887E-30
   5.640000     -1.0763619E-30
   5.650000     -1.0236330E-30
   5.660000     -9.6026481E-31
   5.670000     -8.8561885E-31
   5.680000     -7.9905780E-31
   5.690000     -6.9994938E-31
   5.700000     -5.8766973E-31
   5.710000     -4.6160723E-31
   5.720000     -3.2116697E-31
   5.730000     -1.6577456E-31
   5.740000      5.1190968E-33
   5.750000      1.9203233E-31
   5.760000      3.9544810E-31
   5.770000      6.1580853E-31
   5.780000      8.5350867E-31
   5.790000      1.1088907E-30
   5.800000      1.3822377E-30
   5.810000      1.6737672E-30
   5.820000      1.9836238E-30
   5.830000      2.3118733E-30
   5.840000      2.6584945E-30
   5.850000      3.0233718E-30
   5.860000      3.4062885E-30
   5.870000      3.8069188E-30
   5.880000      4.2248185E-30
   5.890000      4.6594200E-30
   5.900000      5.1100218E-30
   5.910000      5.5757816E-30
   5.920000      6.0557083E-30
   5.930000      6.5486531E-30
   5.940000      7.0533039E-30
   5.950000      7.5681742E-30
   5.960000      8.0915991E-30
   5.970000      8.6217256E-30
   5.980000      9.1565082E-30
   5.990000      9.6936974E-30
   6.000000      1.0230838E-29
   6.010000      1.0765262E-29
   6.020000      1.1294081E-29
   6.030000      1.1814185E-29
   6.040000      1.2322239E-29
   6.050000      1.2814671E-29
   6.060000      1.3287681E-29
   6.070000      1.3737231E-29
   6.080000      1.4159047E-29
   6.090000      1.4548621E-29
   6.100000      1.4901207E-29
   6.110000      1.5211830E-29
   6.120000      1.5475285E-29
   6.130000      1.5686143E-29
   6.140000      1.5838756E-29
   6.150000      1.5927272E-29
   6.160000      1.5945636E-29
   6.170000      1.5887604E-29
   6.180000      1.5746761E-29
   6.190000      1.5516530E-29
   6.200000      1.5190189E-29
   6.210000      1.4760896E-29
   6.220000      1.4221705E-29
   6.230000      1.3565593E-29
   6.240000      1.2785482E-29
   6.250000      1.1874270E-29
   6.260000      1.0824863E-29
   6.270000      9.6302027E-30
   6.280000      8.2833058E-30
   6.290000      6.7773046E-30
   6.300000      5.1054812E-30
   6.310000      3.2613164E-30
   6.320000      1.2385336E-30
   6.330000     -9.6885034E-31
   6.340000     -3.3664770E-30
   6.350000     -5.9595927E-30
   6.360000     -8.7529897E-30
   6.370000     -1.1750944E-29
   6.380000     -1.4957160E-29
   6.390000     -1.8374700E-29
   6.400000     -2.2005925E-29
   6.410000     -2.5852423E-29
   6.420000     -2.9914934E-29
   6.430000     -3.4193279E-29
   6.440000     -3.8686284E-29
   6.450000     -4.3391713E-29
   6.460000     -4.8306181E-29
   6.470000     -5.3425068E-29
   6.480000     -5.8742464E-29
   6.490000     -6.4251051E-29
   6.500000     -6.9942060E-29
   6.510000     -7.5805156E-29
   6.520000     -8.1828376E-29
   6.530000     -8.7998056E-29
   6.540000     -9.4298724E-29
   6.550000     -1.0071303E-28
   6.560000     -1.0722170E-28
   6.570000     -1.1380343E-28
   6.580000     -1.2043479E-28
   6.590000     -1.2709024E-28
   6.600000     -1.3374197E-28
   6.610000     -1.4035993E-28
   6.620000     -1.4691169E-28
   6.630000     -1.5336245E-28
   6.640000     -1.5967499E-28
   6.650000     -1.6580958E-28
   6.660000     -1.7172405E-28
   6.670000     -1.7737369E-28
   6.680000     -1.8271130E-28
   6.690000     -1.8768713E-28
   6.700000     -1.9224895E-28
   6.710000     -1.9634203E-28
   6.720000     -1.9990921E-28
   6.730000     -2.0289092E-28
   6.740000     -2.0522522E-28
   6.750000     -2.0684801E-28
   6.760000     -2.0769296E-28
   6.770000     -2.0769168E-28
   6.780000     -2.0677395E-28
   6.790000     -2.0486767E-28
   6.800000     -2.0189917E-28
   6.810000     -1.9779340E-28
   6.820000     -1.9247406E-28
   6.830000     -1.8586387E-28
   6.840000     -1.7788481E-28
   6.850000     -1.6845842E-28
   6.860000     -1.5750608E-28
   6.870000     -1.4494929E-28
   6.880000     -1.3071011E-28
   6.890000     -1.1471142E-28
   6.900000     -9.6877376E-29
   6.910000     -7.7133885E-29
   6.920000     -5.5408962E-29
   6.930000     -3.1633231E-29
   6.940000     -5.7404238E-30
   6.950000      2.2332039E-29
   6.960000      5.2642551E-29
   6.970000      8.5244771E-29
   6.980000      1.2018694E-28
   6.990000      1.5751129E-28
   7.000000      1.9725342E-28
   7.010000      2.3944155E-28
   7.020000      2.8409592E-28
   7.030000      3.3122796E-28
   7.040000      3.8083965E-28
   7.050000      4.3292276E-28
   7.060000      4.8745807E-28