  -2.600000      0.0000000E+00
  -2.590000      0.0000000E+00
  -2.580000      0.0000000E+00
  -2.570000      0.0000000E+00
  -2.560000      0.0000000E+00
  -2.550000      0.0000000E+00
  -2.540000      0.0000000E+00
  -2.530000      0.0000000E+00
  -2.520000      0.0000000E+00
  -2.510000      0.0000000E+00
  -2.500000      0.0000000E+00
  -2.490000      0.0000000E+00
  -2.480000      0.0000000E+00
  -2.470000      0.0000000E+00
  -2.460000      0.0000000E+00
  -2.450000      0.0000000E+00
  -2.440000      0.0000000E+00
  -2.430000      0.0000000E+00
  -2.420000      0.0000000E+00
  -2.410000      0.0000000E+00
  -2.400000      0.0000000E+00
  -2.390000      0.0000000E+00
  -2.380000      0.0000000E+00
  -2.370000      0.0000000E+00
  -2.360000      0.0000000E+00
  -2.350000      0.0000000E+00
  -2.340000      0.0000000E+00
  -2.330000      0.0000000E+00
  -2.320000      0.0000000E+00
  -2.310000      0.0000000E+00
  -2.300000      0.0000000E+00
  -2.290000      0.0000000E+00
  -2.280000      0.0000000E+00
  -2.270000      0.0000000E+00
  -2.260000      0.0000000E+00
  -2.250000      0.0000000E+00
  -2.240000      0.0000000E+00
  -2.230000      0.0000000E+00
  -2.220000      0.0000000E+00
  -2.210000      0.0000000E+00
  -2.200000      0.0000000E+00
  -2.190000      0.0000000E+00
  -2.180000      0.0000000E+00
  -2.170000      0.0000000E+00
  -2.160000      0.0000000E+00
  -2.150000      0.0000000E+00
  -2.140000      0.0000000E+00
  -2.130000      0.0000000E+00
  -2.120000      0.0000000E+00
  -2.110000      0.0000000E+00
  -2.100000      0.0000000E+00
  -2.090000      0.0000000E+00
  -2.080000      0.0000000E+00
  -2.070000      0.0000000E+00
  -2.060000      0.0000000E+00
  -2.050000      0.0000000E+00
  -2.040000      0.0000000E+00
  -2.030000      0.0000000E+00
  -2.020000      0.0000000E+00
  -2.010000      0.0000000E+00
  -2.000000      0.0000000E+00
  -1.990000      0.0000000E+00
  -1.980000      0.0000000E+00
  -1.970000      0.0000000E+00
  -1.960000      0.0000000E+00
  -1.950000      0.0000000E+00
  -1.940000      0.0000000E+00
  -1.930000      0.0000000E+00
  -1.920000      0.0000000E+00
  -1.910000      0.0000000E+00
  -1.900000      0.0000000E+00
  -1.890000      0.0000000E+00
  -1.880000      0.0000000E+00
  -1.870000      0.0000000E+00
  -1.860000      0.0000000E+00
  -1.850000      0.0000000E+00
  -1.840000      0.0000000E+00
  -1.830000      0.0000000E+00
  -1.820000      0.0000000E+00
  -1.810000      0.0000000E+00
  -1.800000      0.0000000E+00
  -1.790000      0.0000000E+00
  -1.780000      0.0000000E+00
  -1.770000      0.0000000E+00
  -1.760000      0.0000000E+00
  -1.750000      0.0000000E+00
  -1.740000      0.0000000E+00
  -1.730000      0.0000000E+00
  -1.720000      0.0000000E+00
  -1.710000      0.0000000E+00
  -1.700000      0.0000000E+00
  -1.690000      0.0000000E+00
  -1.680000      0.0000000E+00
  -1.670000      0.0000000E+00
  -1.660000      0.0000000E+00
  -1.650000      0.0000000E+00
  -1.640000      0.0000000E+00
  -1.630000      0.0000000E+00
  -1.620000      0.0000000E+00
  -1.610000      0.0000000E+00
  -1.600000      0.0000000E+00
  -1.590000      0.0000000E+00
  -1.580000      0.0000000E+00
  -1.570000      0.0000000E+00
  -1.560000      0.0000000E+00
  -1.550000      0.0000000E+00
  -1.540000      0.0000000E+00
  -1.530000      0.0000000E+00
  -1.520000      0.0000000E+00
  -1.510000      0.0000000E+00
  -1.500000      0.0000000E+00
  -1.490000      0.0000000E+00
  -1.480000      0.0000000E+00
  -1.470000      0.0000000E+00
  -1.460000      0.0000000E+00
  -1.450000      0.0000000E+00
  -1.440000      0.0000000E+00
  -1.430000      0.0000000E+00
  -1.420000      0.0000000E+00
  -1.410000      0.0000000E+00
  -1.400000      0.0000000E+00
  -1.390000      0.0000000E+00
  -1.380000      0.0000000E+00
  -1.370000      0.0000000E+00
  -1.360000      0.0000000E+00
  -1.350000      0.0000000E+00
  -1.340000      0.0000000E+00
  -1.330000      0.0000000E+00
  -1.320000      0.0000000E+00
  -1.310000      0.0000000E+00
  -1.300000      0.0000000E+00
  -1.290000      0.0000000E+00
  -1.280000      0.0000000E+00
  -1.270000      0.0000000E+00
  -1.260000      0.0000000E+00
  -1.250000      0.0000000E+00
  -1.240000      0.0000000E+00
  -1.230000      0.0000000E+00
  -1.220000      0.0000000E+00
  -1.210000      0.0000000E+00
  -1.200000      0.0000000E+00
  -1.190000      0.0000000E+00
  -1.180000      0.0000000E+00
  -1.170000      0.0000000E+00
  -1.160000      0.0000000E+00
  -1.150000      0.0000000E+00
  -1.140000      0.0000000E+00
  -1.130000      0.0000000E+00
  -1.120000      0.0000000E+00
  -1.110000      0.0000000E+00
  -1.100000      0.0000000E+00
  -1.090000      0.0000000E+00
  -1.080000      0.0000000E+00
  -1.070000      0.0000000E+00
  -1.060000      0.0000000E+00
  -1.050000      0.0000000E+00
  -1.040000      0.0000000E+00
  -1.030000      0.0000000E+00
  -1.020000      0.0000000E+00
  -1.010000      0.0000000E+00
  -1.000000      0.0000000E+00
 -0.9900000      0.0000000E+00
 -0.9800000      0.0000000E+00
 -0.9700000      0.0000000E+00
 -0.9600000      0.0000000E+00
 -0.9500000      0.0000000E+00
 -0.9400000      0.0000000E+00
 -0.9300000      0.0000000E+00
 -0.9200000      0.0000000E+00
 -0.9100000      0.0000000E+00
 -0.9000000      0.0000000E+00
 -0.8900000      0.0000000E+00
 -0.8800000      0.0000000E+00
 -0.8700000      0.0000000E+00
 -0.8600000      0.0000000E+00
 -0.8500000      0.0000000E+00
 -0.8400000      0.0000000E+00
 -0.8300000      0.0000000E+00
 -0.8200000      0.0000000E+00
 -0.8100000      0.0000000E+00
 -0.8000000      0.0000000E+00
 -0.7900000      0.0000000E+00
 -0.7800000      0.0000000E+00
 -0.7700000      0.0000000E+00
 -0.7600000      0.0000000E+00
 -0.7500000      0.0000000E+00
 -0.7400000      0.0000000E+00
 -0.7300000      0.0000000E+00
 -0.7200000      0.0000000E+00
 -0.7100000      0.0000000E+00
 -0.7000000      0.0000000E+00
 -0.6900000      0.0000000E+00
 -0.6800000      0.0000000E+00
 -0.6700000      0.0000000E+00
 -0.6600000      0.0000000E+00
 -0.6500000      0.0000000E+00
 -0.6400000      0.0000000E+00
 -0.6300000      0.0000000E+00
 -0.6200000      0.0000000E+00
 -0.6100000      0.0000000E+00
 -0.6000000      0.0000000E+00
 -0.5900000      0.0000000E+00
 -0.5800000      0.0000000E+00
 -0.5700000      0.0000000E+00
 -0.5600000      0.0000000E+00
 -0.5500000      0.0000000E+00
 -0.5400000      0.0000000E+00
 -0.5300000     -1.1979254E-38
 -0.5200000     -1.8437105E-38
 -0.5100000     -2.5003158E-38
 -0.5000000     -3.1156577E-38
 -0.4900000     -3.6183432E-38
 -0.4800000     -4.0567686E-38
 -0.4700000     -4.3414592E-38
 -0.4600000     -4.3530967E-38
 -0.4500000     -4.1030622E-38
 -0.4400000     -3.5181190E-38
 -0.4300000     -2.6007786E-38
 -0.4200000     -1.3178277E-38
 -0.4100000      0.0000000E+00
 -0.4000000      1.9607531E-38
 -0.3900000      3.3996302E-38
 -0.3800000      4.9805953E-38
 -0.3700000      7.8499412E-38
 -0.3600000      1.1790172E-37
 -0.3500000      1.6404775E-37
 -0.3400000      2.2137184E-37
 -0.3300000      2.6926389E-37
 -0.3200000      3.1225844E-37
 -0.3100000      3.5621837E-37
 -0.3000000      3.9637918E-37
 -0.2900000      4.1978472E-37
 -0.2800000      3.5046643E-37
 -0.2700000      1.8140458E-37
 -0.2600000     -1.0376476E-37
 -0.2500000     -5.0875273E-37
 -0.2400000     -9.5570089E-37
 -0.2300000     -1.5570488E-36
 -0.2200000     -2.3754568E-36
 -0.2100000     -3.2765664E-36
 -0.2000000     -4.2772476E-36
 -0.1900000     -5.2662018E-36
 -0.1800000     -5.9543621E-36
 -0.1700000     -6.3192349E-36
 -0.1600000     -6.3192686E-36
 -0.1500000     -5.8640699E-36
 -0.1400000     -4.9754029E-36
 -0.1300000     -3.5445294E-36
 -0.1200000     -1.4122977E-36
 -0.1100000      1.3505194E-36
 -0.1000000      4.5651665E-36
 -9.0000004E-02  8.3653334E-36
 -7.9999998E-02  1.2740135E-35
 -7.0000000E-02  1.7434801E-35
 -5.9999999E-02  2.2292457E-35
 -5.0000001E-02  2.7625595E-35
 -3.9999999E-02  3.3413246E-35
 -2.9999999E-02  3.9711373E-35
 -2.0000000E-02  4.6743843E-35
 -9.9999998E-03  5.4385842E-35
 -3.4694470E-17  6.1696762E-35
  9.9999998E-03  6.7001244E-35
  2.0000000E-02  6.9952280E-35
  2.9999999E-02  6.7527656E-35
  3.9999999E-02  5.8174894E-35
  5.0000001E-02  4.3296921E-35
  5.9999999E-02  2.0655437E-35
  7.0000000E-02 -1.7612494E-35
  7.9999998E-02 -7.5593424E-35
  9.0000004E-02 -1.4448791E-34
  0.1000000     -2.1227963E-34
  0.1100000     -2.7908394E-34
  0.1200000     -3.4918076E-34
  0.1300000     -4.1156757E-34
  0.1400000     -4.6150372E-34
  0.1500000     -4.9833862E-34
  0.1600000     -5.1355741E-34
  0.1700000     -5.0392309E-34
  0.1800000     -4.6741095E-34
  0.1900000     -3.9983830E-34
  0.2000000     -2.9698768E-34
  0.2100000     -1.5820325E-34
  0.2200000      1.3067642E-35
  0.2300000      2.1148989E-34
  0.2400000      4.2661757E-34
  0.2500000      6.5132021E-34
  0.2600000      8.6985333E-34
  0.2700000      1.0574681E-33
  0.2800000      1.1923836E-33
  0.2900000      1.2438482E-33
  0.3000000      1.1742149E-33
  0.3100000      9.3976806E-34
  0.3200000      4.9038966E-34
  0.3300000     -2.3167492E-34
  0.3400000     -1.2924002E-33
  0.3500000     -2.7658745E-33
  0.3600000     -4.7361736E-33
  0.3700000     -7.2967291E-33
  0.3800000     -1.0550232E-32
  0.3900000     -1.4610607E-32
  0.4000000     -1.9602791E-32
  0.4100000     -2.5663410E-32
  0.4200000     -3.2941046E-32
  0.4300000     -4.1596813E-32
  0.4400000     -5.1804894E-32
  0.4500000     -6.3752625E-32
  0.4600000     -7.7640773E-32
  0.4700000     -9.3683614E-32
  0.4800000     -1.1210887E-31
  0.4900000     -1.3315748E-31
  0.5000000     -1.5708319E-31
  0.5100000     -1.8415184E-31
  0.5200000     -2.1464057E-31
  0.5300000     -2.4883659E-31
  0.5400000     -2.8703595E-31
  0.5500000     -3.2954166E-31
  0.5600000     -3.7666196E-31
  0.5700000     -4.2870815E-31
  0.5800000     -4.8599229E-31
  0.5900000     -5.4882472E-31
  0.6000000     -6.1751126E-31
  0.6100000     -6.9235089E-31
  0.6200000     -7.7363313E-31
  0.6300000     -8.6163529E-31
  0.6400000     -9.5662050E-31
  0.6500000     -1.0588358E-30
  0.6600000     -1.1685102E-30
  0.6700000     -1.2858544E-30
  0.6800000     -1.4110595E-30
  0.6900000     -1.5442979E-30
  0.7000000     -1.6857244E-30
  0.7100000     -1.8354765E-30
  0.7200000     -1.9936789E-30
  0.7300000     -2.1604446E-30
  0.7400000     -2.3358805E-30
  0.7500000     -2.5200901E-30
  0.7600000     -2.7131798E-30
  0.7700000     -2.9152634E-30
  0.7800000     -3.1264678E-30
  0.7900000     -3.3469382E-30
  0.8000000     -3.5768442E-30
  0.8100000     -3.8163840E-30
  0.8200000     -4.0657905E-30
  0.8300000     -4.3253340E-30
  0.8400000     -4.5953260E-30
  0.8500000     -4.8761217E-30
  0.8600000     -5.1681232E-30
  0.8700000     -5.4717787E-30
  0.8800000     -5.7875835E-30
  0.8900000     -6.1160794E-30
  0.9000000     -6.4578538E-30
  0.9100000     -6.8135384E-30
  0.9200000     -7.1838075E-30
  0.9300000     -7.5693771E-30
  0.9400000     -7.9710027E-30
  0.9500000     -8.3894795E-30
  0.9600000     -8.8256424E-30
  0.9700000     -9.2803680E-30
  0.9800000     -9.7545734E-30
  0.9900000     -1.0249225E-29
   1.000000     -1.0765339E-29
   1.010000     -1.1303986E-29
   1.020000     -1.1866300E-29
   1.030000     -1.2453484E-29
   1.040000     -1.3066818E-29
   1.050000     -1.3707660E-29
   1.060000     -1.4377461E-29
   1.070000     -1.5077761E-29
   1.080000     -1.5810197E-29
   1.090000     -1.6576499E-29
   1.100000     -1.7378490E-29
   1.110000     -1.8218082E-29
   1.120000     -1.9097261E-29
   1.130000     -2.0018084E-29
   1.140000     -2.0982653E-29
   1.150000     -2.1993104E-29
   1.160000     -2.3051585E-29
   1.170000     -2.4160225E-29
   1.180000     -2.5321125E-29
   1.190000     -2.6536314E-29
   1.200000     -2.7807732E-29
   1.210000     -2.9137220E-29
   1.220000     -3.0526480E-29
   1.230000     -3.1977079E-29
   1.240000     -3.3490411E-29
   1.250000     -3.5067724E-29
   1.260000     -3.6710081E-29
   1.270000     -3.8418405E-29
   1.280000     -4.0193454E-29
   1.290000     -4.2035859E-29
   1.300000     -4.3946131E-29
   1.310000     -4.5924681E-29
   1.320000     -4.7971851E-29
   1.330000     -5.0087934E-29
   1.340000     -5.2273181E-29
   1.350000     -5.4527825E-29
   1.360000     -5.6852074E-29
   1.370000     -5.9246119E-29
   1.380000     -6.1710118E-29
   1.390000     -6.4244166E-29
   1.400000     -6.6848240E-29
   1.410000     -6.9522201E-29
   1.420000     -7.2265646E-29
   1.430000     -7.5077907E-29
   1.440000     -7.7957907E-29
   1.450000     -8.0904110E-29
   1.460000     -8.3914387E-29
   1.470000     -8.6985914E-29
   1.480000     -9.0115111E-29
   1.490000     -9.3297487E-29
   1.500000     -9.6527597E-29
   1.510000     -9.9798927E-29
   1.520000     -1.0310389E-28
   1.530000     -1.0643370E-28
   1.540000     -1.0977843E-28
   1.550000     -1.1312691E-28
   1.560000     -1.1646680E-28
   1.570000     -1.1978454E-28
   1.580000     -1.2306538E-28
   1.590000     -1.2629347E-28
   1.600000     -1.2945178E-28
   1.610000     -1.3252214E-28
   1.620000     -1.3548528E-28
   1.630000     -1.3832071E-28
   1.640000     -1.4100677E-28
   1.650000     -1.4352044E-28
   1.660000     -1.4583724E-28
   1.670000     -1.4793105E-28
   1.680000     -1.4977390E-28
   1.690000     -1.5133569E-28
   1.700000     -1.5258387E-28
   1.710000     -1.5348315E-28
   1.720000     -1.5399508E-28
   1.730000     -1.5407772E-28
   1.740000     -1.5368519E-28
   1.750000     -1.5276736E-28
   1.760000     -1.5126939E-28
   1.770000     -1.4913154E-28
   1.780000     -1.4628875E-28
   1.790000     -1.4267047E-28
   1.800000     -1.3820048E-28
   1.810000     -1.3279683E-28
   1.820000     -1.2637175E-28
   1.830000     -1.1883168E-28
   1.840000     -1.1007748E-28
   1.850000     -1.0000451E-28
   1.860000     -8.8502879E-29
   1.870000     -7.5457694E-29
   1.880000     -6.0749301E-29
   1.890000     -4.4253528E-29
   1.900000     -2.5841950E-29
   1.910000     -5.3820413E-30
   1.920000      1.7262659E-29
   1.930000      4.2232529E-29
   1.940000      6.9671876E-29
   1.950000      9.9729064E-29
   1.960000      1.3255671E-28
   1.970000      1.6831200E-28
   1.980000      2.0715697E-28
   1.990000      2.4925898E-28
   2.000000      2.9479117E-28
   2.010000      3.4393274E-28
   2.020000      3.9686938E-28
   2.030000      4.5379349E-28
   2.040000      5.1490450E-28
   2.050000      5.8040855E-28
   2.060000      6.5051866E-28
   2.070000      7.2545390E-28
   2.080000      8.0543907E-28
   2.090000      8.9070360E-28
   2.100000      9.8148028E-28
   2.110000      1.0780041E-27
   2.120000      1.1805103E-27
   2.130000      1.2892326E-27
   2.140000      1.4044013E-27
   2.150000      1.5262409E-27
   2.160000      1.6549682E-27
   2.170000      1.7907896E-27
   2.180000      1.9338994E-27
   2.190000      2.0844783E-27
   2.200000      2.2426896E-27
   2.210000      2.4086795E-27
   2.220000      2.5825746E-27
   2.230000      2.7644804E-27
   2.240000      2.9544811E-27
   2.250000      3.1526375E-27
   2.260000      3.3589871E-27
   2.270000      3.5735434E-27
   2.280000      3.7962941E-27
   2.290000      4.0272019E-27
   2.300000      4.2662021E-27
   2.310000      4.5132034E-27
   2.320000      4.7680829E-27
   2.330000      5.0306881E-27
   2.340000      5.3008321E-27
   2.350000      5.5782912E-27
   2.360000      5.8628012E-27
   2.370000      6.1540530E-27
   2.380000      6.4516893E-27
   2.390000      6.7552987E-27
   2.400000      7.0644089E-27
   2.410000      7.3784849E-27
   2.420000      7.6969182E-27
   2.430000      8.0190253E-27
   2.440000      8.3440399E-27
   2.450000      8.6711098E-27
   2.460000      8.9992890E-27
   2.470000      9.3275399E-27
   2.480000      9.6547230E-27
   2.490000      9.9796012E-27
   2.500000      1.0300836E-26
   2.510000      1.0616987E-26
   2.520000      1.0926515E-26
   2.530000      1.1227785E-26
   2.540000      1.1519064E-26
   2.550000      1.1798530E-26
   2.560000      1.2064274E-26
   2.570000      1.2314304E-26
   2.580000      1.2546554E-26
   2.590000      1.2758881E-26
   2.600000      1.2949075E-26
   2.610000      1.3114860E-26
   2.620000      1.3253902E-26
   2.630000      1.3363800E-26
   2.640000      1.3442102E-26
   2.650000      1.3486295E-26
   2.660000      1.3493814E-26
   2.670000      1.3462038E-26
   2.680000      1.3388292E-26
   2.690000      1.3269844E-26
   2.700000      1.3103913E-26
   2.710000      1.2887667E-26
   2.720000      1.2618227E-26
   2.730000      1.2292676E-26
   2.740000      1.1908062E-26
   2.750000      1.1461411E-26
   2.760000      1.0949740E-26
   2.770000      1.0370070E-26
   2.780000      9.7194489E-27
   2.790000      8.9949672E-27
   2.800000      8.1937842E-27
   2.810000      7.3131527E-27
   2.820000      6.3504435E-27
   2.830000      5.3031802E-27
   2.840000      4.1690617E-27
   2.850000      2.9459914E-27
   2.860000      1.6321080E-27
   2.870000      2.2581136E-28
   2.880000     -1.2742146E-27
   2.890000     -2.8689793E-27
   2.900000     -4.5591642E-27
   2.910000     -6.3451076E-27
   2.920000     -8.2267893E-27
   2.930000     -1.0203823E-26
   2.940000     -1.2275444E-26
   2.950000     -1.4440509E-26
   2.960000     -1.6697486E-26
   2.970000     -1.9044460E-26
   2.980000     -2.1479125E-26
   2.990000     -2.3998787E-26
   3.000000     -2.6600350E-26
   3.010000     -2.9280332E-26
   3.020000     -3.2034843E-26
   3.030000     -3.4859579E-26
   3.040000     -3.7749817E-26
   3.050000     -4.0700403E-26
   3.060000     -4.3705729E-26
   3.070000     -4.6759721E-26
   3.080000     -4.9855834E-26
   3.090000     -5.2987010E-26
   3.100000     -5.6145683E-26
   3.110000     -5.9323770E-26
   3.120000     -6.2512648E-26
   3.130000     -6.5703165E-26
   3.140000     -6.8885633E-26
   3.150000     -7.2049853E-26
   3.160000     -7.5185156E-26
   3.170000     -7.8280399E-26
   3.180000     -8.1324016E-26
   3.190000     -8.4304110E-26
   3.200000     -8.7208481E-26
   3.210000     -9.0024726E-26
   3.220000     -9.2740318E-26
   3.230000     -9.5342703E-26
   3.240000     -9.7819406E-26
   3.250000     -1.0015809E-25
   3.260000     -1.0234676E-25
   3.270000     -1.0437377E-25
   3.280000     -1.0622798E-25
   3.290000     -1.0789889E-25
   3.300000     -1.0937667E-25
   3.310000     -1.1065230E-25
   3.320000     -1.1171767E-25
   3.330000     -1.1256563E-25
   3.340000     -1.1319006E-25
   3.350000     -1.1358600E-25
   3.360000     -1.1374965E-25
   3.370000     -1.1367849E-25
   3.380000     -1.1337131E-25
   3.390000     -1.1282827E-25
   3.400000     -1.1205102E-25
   3.410000     -1.1104271E-25
   3.420000     -1.0980812E-25
   3.430000     -1.0835371E-25
   3.440000     -1.0668773E-25
   3.450000     -1.0482040E-25
   3.460000     -1.0276389E-25
   3.470000     -1.0053256E-25
   3.480000     -9.8143036E-26
   3.490000     -9.5614324E-26
   3.500000     -9.2967936E-26
   3.510000     -9.0228049E-26
   3.520000     -8.7421566E-26
   3.530000     -8.4578209E-26
   3.540000     -8.1730600E-26
   3.550000     -7.8914268E-26
   3.560000     -7.6167676E-26
   3.570000     -7.3532196E-26
   3.580000     -7.1052030E-26
   3.590000     -6.8774071E-26
   3.600000     -6.6747777E-26
   3.610000     -6.5024942E-26
   3.620000     -6.3659485E-26
   3.630000     -6.2707133E-26
   3.640000     -6.2225071E-26
   3.650000     -6.2271620E-26
   3.660000     -6.2905827E-26
   3.670000     -6.4187011E-26
   3.680000     -6.6174337E-26
   3.690000     -6.8926333E-26
   3.700000     -7.2500403E-26
   3.710000     -7.6952303E-26
   3.720000     -8.2335638E-26
   3.730000     -8.8701301E-26
   3.740000     -9.6096940E-26
   3.750000     -1.0456637E-25
   3.760000     -1.1414900E-25
   3.770000     -1.2487917E-25
   3.780000     -1.3678558E-25
   3.790000     -1.4989050E-25
   3.800000     -1.6420901E-25
   3.810000     -1.7974834E-25
   3.820000     -1.9650689E-25
   3.830000     -2.1447333E-25
   3.840000     -2.3362564E-25
   3.850000     -2.5393004E-25
   3.860000     -2.7533979E-25
   3.870000     -2.9779408E-25
   3.880000     -3.2121669E-25
   3.890000     -3.4551474E-25
   3.900000     -3.7057722E-25
   3.910000     -3.9627365E-25
   3.920000     -4.2245252E-25
   3.930000     -4.4894005E-25
   3.940000     -4.7553862E-25
   3.950000     -5.0202531E-25
   3.960000     -5.2815076E-25
   3.970000     -5.5363752E-25
   3.980000     -5.7817908E-25
   3.990000     -6.0143845E-25
   4.000000     -6.2304752E-25
   4.010000     -6.4260565E-25
   4.020000     -6.5967902E-25
   4.030000     -6.7379997E-25
   4.040000     -6.8446631E-25
   4.050000     -6.9114091E-25
   4.060000     -6.9325116E-25
   4.070000     -6.9018890E-25
   4.080000     -6.8131042E-25
   4.090000     -6.6593616E-25
   4.100000     -6.4335122E-25
   4.110000     -6.1280534E-25
   4.120000     -5.7351351E-25
   4.130000     -5.2465655E-25
   4.140000     -4.6538188E-25
   4.150000     -3.9480422E-25
   4.160000     -3.1200718E-25
   4.170000     -2.1604433E-25
   4.180000     -1.0594115E-25
   4.190000      1.9303235E-26
   4.200000      1.6071337E-25
   4.210000      3.1933484E-25
   4.220000      4.9623103E-25
   4.230000      6.9247970E-25
   4.240000      9.0916860E-25
   4.250000      1.1473904E-24
   4.260000      1.4082380E-24
   4.270000      1.6927985E-24
   4.280000      2.0021465E-24
   4.290000      2.3373371E-24
   4.300000      2.6993982E-24
   4.310000      3.0893221E-24
   4.320000      3.5080562E-24
   4.330000      3.9564928E-24
   4.340000      4.4354608E-24
   4.350000      4.9457130E-24
   4.360000      5.4879140E-24
   4.370000      6.0626300E-24
   4.380000      6.6703167E-24
   4.390000      7.3113025E-24
   4.400000      7.9857778E-24
   4.410000      8.6937804E-24
   4.420000      9.4351795E-24
   4.430000      1.0209662E-23
   4.440000      1.1016715E-23
   4.450000      1.1855608E-23
   4.460000      1.2725382E-23
   4.470000      1.3624825E-23
   4.480000      1.4552458E-23
   4.490000      1.5506514E-23
   4.500000      1.6484924E-23
   4.510000      1.7485291E-23
   4.520000      1.8504870E-23
   4.530000      1.9540555E-23
   4.540000      2.0588850E-23
   4.550000      2.1645853E-23
   4.560000      2.2707230E-23
   4.570000      2.3768201E-23
   4.580000      2.4823507E-23
   4.590000      2.5867401E-23
   4.600000      2.6893622E-23
   4.610000      2.7895365E-23
   4.620000      2.8865282E-23
   4.630000      2.9795444E-23
   4.640000      3.0677330E-23
   4.650000      3.1501816E-23
   4.660000      3.2259148E-23
   4.670000      3.2938931E-23
   4.680000      3.3530132E-23
   4.690000      3.4021043E-23
   4.700000      3.4399302E-23
   4.710000      3.4651861E-23
   4.720000      3.4765005E-23
   4.730000      3.4724338E-23
   4.740000      3.4514795E-23
   4.750000      3.4120632E-23
   4.760000      3.3525459E-23
   4.770000      3.2712238E-23
   4.780000      3.1663299E-23
   4.790000      3.0360366E-23
   4.800000      2.8784578E-23
   4.810000      2.6916527E-23
   4.820000      2.4736285E-23
   4.830000      2.2223442E-23
   4.840000      1.9357164E-23
   4.850000      1.6116222E-23
   4.860000      1.2479072E-23
   4.870000      8.4239088E-24
   4.880000      3.9287312E-24
   4.890000     -1.0285681E-24
   4.900000     -6.4701200E-24
   4.910000     -1.2417988E-23
   4.920000     -1.8894069E-23
   4.930000     -2.5919975E-23
   4.940000     -3.3516917E-23
   4.950000     -4.1705577E-23
   4.960000     -5.0505967E-23
   4.970000     -5.9937292E-23
   4.980000     -7.0017786E-23
   4.990000     -8.0764532E-23
   5.000000     -9.2193316E-23
   5.010000     -1.0431841E-22
   5.020000     -1.1715241E-22
   5.030000     -1.3070596E-22
   5.040000     -1.4498762E-22
   5.050000     -1.6000361E-22
   5.060000     -1.7575758E-22
   5.070000     -1.9225035E-22
   5.080000     -2.0947965E-22
   5.090000     -2.2743996E-22
   5.100000     -2.4612203E-22
   5.110000     -2.6551286E-22
   5.120000     -2.8559524E-22
   5.130000     -3.0634748E-22
   5.140000     -3.2774323E-22
   5.150000     -3.4975106E-22
   5.160000     -3.7233417E-22
   5.170000     -3.9545006E-22
   5.180000     -4.1905036E-22
   5.190000     -4.4308027E-22
   5.200000     -4.6747852E-22
   5.210000     -4.9217671E-22
   5.220000     -5.1709936E-22
   5.230000     -5.4216338E-22
   5.240000     -5.6727783E-22
   5.250000     -5.9234341E-22
   5.260000     -6.1725258E-22
   5.270000     -6.4188897E-22
   5.280000     -6.6612697E-22
   5.290000     -6.8983193E-22
   5.300000     -7.1285940E-22
   5.310000     -7.3505534E-22
   5.320000     -7.5625553E-22
   5.330000     -7.7628573E-22
   5.340000     -7.9496126E-22
   5.350000     -8.1208704E-22
   5.360000     -8.2745718E-22
   5.370000     -8.4085545E-22
   5.380000     -8.5205470E-22
   5.390000     -8.6081744E-22
   5.400000     -8.6689528E-22
   5.410000     -8.7002952E-22
   5.420000     -8.6995106E-22
   5.430000     -8.6638061E-22
   5.440000     -8.5902909E-22
   5.450000     -8.4759780E-22
   5.460000     -8.3177898E-22
   5.470000     -8.1125597E-22
   5.480000     -7.8570415E-22
   5.490000     -7.5479115E-22
   5.500000     -7.1817771E-22
   5.510000     -6.7551838E-22
   5.520000     -6.2646244E-22
   5.530000     -5.7065466E-22
   5.540000     -5.0773648E-22
   5.550000     -4.3734696E-22
   5.560000     -3.5912432E-22
   5.570000     -2.7270677E-22
   5.580000     -1.7773429E-22
   5.590000     -7.3849939E-23
   5.600000      3.9298324E-23
   5.610000      1.6205595E-22
   5.620000      2.9476009E-22
   5.630000      4.3773753E-22
   5.640000      5.9130252E-22
   5.650000      7.5575470E-22
   5.660000      9.3137669E-22
   5.670000      1.1184319E-21
   5.680000      1.3171614E-21
   5.690000      1.5277818E-21
   5.700000      1.7504822E-21
   5.710000      1.9854213E-21
   5.720000      2.2327243E-21
   5.730000      2.4924798E-21
   5.740000      2.7647371E-21
   5.750000      3.0495019E-21
   5.760000      3.3467340E-21
   5.770000      3.6563427E-21
   5.780000      3.9781826E-21
   5.790000      4.3120530E-21
   5.800000      4.6576909E-21
   5.810000      5.0147683E-21
   5.820000      5.3828900E-21
   5.830000      5.7615852E-21
   5.840000      6.1503092E-21
   5.850000      6.5484351E-21
   5.860000      6.9552521E-21
   5.870000      7.3699612E-21
   5.880000      7.7916690E-21
   5.890000      8.2193876E-21
   5.900000      8.6520281E-21
   5.910000      9.0883966E-21
   5.920000      9.5271957E-21
   5.930000      9.9670110E-21
   5.940000      1.0406317E-20
   5.950000      1.0843469E-20
   5.960000      1.1276700E-20
   5.970000      1.1704123E-20
   5.980000      1.2123721E-20
   5.990000      1.2533349E-20
   6.000000      1.2930730E-20
   6.010000      1.3313457E-20
   6.020000      1.3678987E-20
   6.030000      1.4024644E-20
   6.040000      1.4347611E-20
   6.050000      1.4644940E-20
   6.060000      1.4913546E-20
   6.070000      1.5150207E-20
   6.080000      1.5351572E-20
   6.090000      1.5514155E-20
   6.100000      1.5634342E-20
   6.110000      1.5708392E-20
   6.120000      1.5732445E-20
   6.130000      1.5702523E-20
   6.140000      1.5614533E-20
   6.150000      1.5464279E-20
   6.160000      1.5247465E-20
   6.170000      1.4959708E-20
   6.180000      1.4596539E-20
   6.190000      1.4153419E-20
   6.200000      1.3625746E-20
   6.210000      1.3008866E-20
   6.220000      1.2298092E-20
   6.230000      1.1488710E-20
   6.240000      1.0576000E-20
   6.250000      9.5552495E-21
   6.260000      8.4217690E-21
   6.270000      7.1709119E-21
   6.280000      5.7980934E-21
   6.290000      4.2988108E-21
   6.300000      2.6686686E-21
   6.310000      9.0339927E-22
   6.320000     -1.0011145E-21
   6.330000     -3.0488141E-21
   6.340000     -5.2434357E-21
   6.350000     -7.5884830E-21
   6.360000     -1.0087200E-20
   6.370000     -1.2742537E-20
   6.380000     -1.5557122E-20
   6.390000     -1.8533229E-20
   6.400000     -2.1672741E-20
   6.410000     -2.4977122E-20
   6.420000     -2.8447371E-20
   6.430000     -3.2083993E-20
   6.440000     -3.5886959E-20
   6.450000     -3.9855665E-20
   6.460000     -4.3988903E-20
   6.470000     -4.8284807E-20
   6.480000     -5.2740826E-20
   6.490000     -5.7353660E-20
   6.500000     -6.2119261E-20
   6.510000     -6.7032733E-20
   6.520000     -7.2088364E-20
   6.530000     -7.7279510E-20
   6.540000     -8.2598605E-20
   6.550000     -8.8037098E-20
   6.560000     -9.3585405E-20
   6.570000     -9.9232884E-20
   6.580000     -1.0496781E-19
   6.590000     -1.1077728E-19
   6.600000     -1.1664727E-19
   6.610000     -1.2256245E-19
   6.620000     -1.2850635E-19
   6.630000     -1.3446116E-19
   6.640000     -1.4040778E-19
   6.650000     -1.4632578E-19
   6.660000     -1.5219331E-19
   6.670000     -1.5798721E-19
   6.680000     -1.6368285E-19
   6.690000     -1.6925423E-19
   6.700000     -1.7467389E-19
   6.710000     -1.7991296E-19
   6.720000     -1.8494107E-19
   6.730000     -1.8972646E-19
   6.740000     -1.9423591E-19
   6.750000     -1.9843477E-19
   6.760000     -2.0228701E-19
   6.770000     -2.0575514E-19
   6.780000     -2.0880038E-19
   6.790000     -2.1138261E-19
   6.800000     -2.1346037E-19
   6.810000     -2.1499100E-19
   6.820000     -2.1593070E-19
   6.830000     -2.1623451E-19
   6.840000     -2.1585644E-19
   6.850000     -2.1474952E-19
   6.860000     -2.1286592E-19
   6.870000     -2.1015702E-19
   6.880000     -2.0657352E-19
   6.890000     -2.0206561E-19
   6.900000     -1.9658304E-19
   6.910000     -1.9007527E-19
   6.920000     -1.8249159E-19
   6.930000     -1.7378130E-19
   6.940000     -1.6389391E-19
   6.950000     -1.5277924E-19
   6.960000     -1.4038768E-19
   6.970000     -1.2667041E-19
   6.980000     -1.1157949E-19
   6.990000     -9.5068197E-20
   7.000000     -7.7091217E-20
   7.010000     -5.7604871E-20
   7.020000     -3.6567393E-20
   7.030000     -1.3939197E-20
   7.040000      1.0316878E-20
   7.050000      3.6235254E-20
   7.060000      6.3847364E-20