  -2.600000      0.0000000E+00
  -2.590000      0.0000000E+00
  -2.580000      0.0000000E+00
  -2.570000      0.0000000E+00
  -2.560000      0.0000000E+00
  -2.550000      0.0000000E+00
  -2.540000      0.0000000E+00
  -2.530000      0.0000000E+00
  -2.520000      0.0000000E+00
  -2.510000      0.0000000E+00
  -2.500000      0.0000000E+00
  -2.490000      0.0000000E+00
  -2.480000      0.0000000E+00
  -2.470000      0.0000000E+00
  -2.460000      0.0000000E+00
  -2.450000      0.0000000E+00
  -2.440000      0.0000000E+00
  -2.430000      0.0000000E+00
  -2.420000      0.0000000E+00
  -2.410000      0.0000000E+00
  -2.400000      0.0000000E+00
  -2.390000      0.0000000E+00
  -2.380000      0.0000000E+00
  -2.370000      0.0000000E+00
  -2.360000      0.0000000E+00
  -2.350000      0.0000000E+00
  -2.340000      0.0000000E+00
  -2.330000      0.0000000E+00
  -2.320000      0.0000000E+00
  -2.310000      0.0000000E+00
  -2.300000      0.0000000E+00
  -2.290000      0.0000000E+00
  -2.280000      0.0000000E+00
  -2.270000      0.0000000E+00
  -2.260000      0.0000000E+00
  -2.250000      0.0000000E+00
  -2.240000      0.0000000E+00
  -2.230000      0.0000000E+00
  -2.220000      0.0000000E+00
  -2.210000      0.0000000E+00
  -2.200000      0.0000000E+00
  -2.190000      0.0000000E+00
  -2.180000      0.0000000E+00
  -2.170000      0.0000000E+00
  -2.160000      0.0000000E+00
  -2.150000      0.0000000E+00
  -2.140000      0.0000000E+00
  -2.130000      0.0000000E+00
  -2.120000      0.0000000E+00
  -2.110000      0.0000000E+00
  -2.100000      0.0000000E+00
  -2.090000      0.0000000E+00
  -2.080000      0.0000000E+00
  -2.070000      0.0000000E+00
  -2.060000      0.0000000E+00
  -2.050000      0.0000000E+00
  -2.040000      0.0000000E+00
  -2.030000      0.0000000E+00
  -2.020000      0.0000000E+00
  -2.010000      0.0000000E+00
  -2.000000      0.0000000E+00
  -1.990000      0.0000000E+00
  -1.980000      0.0000000E+00
  -1.970000      0.0000000E+00
  -1.960000      0.0000000E+00
  -1.950000      0.0000000E+00
  -1.940000      0.0000000E+00
  -1.930000      0.0000000E+00
  -1.920000      0.0000000E+00
  -1.910000      0.0000000E+00
  -1.900000      0.0000000E+00
  -1.890000      0.0000000E+00
  -1.880000      0.0000000E+00
  -1.870000      0.0000000E+00
  -1.860000      0.0000000E+00
  -1.850000      0.0000000E+00
  -1.840000      0.0000000E+00
  -1.830000      0.0000000E+00
  -1.820000      0.0000000E+00
  -1.810000      0.0000000E+00
  -1.800000      0.0000000E+00
  -1.790000      0.0000000E+00
  -1.780000      0.0000000E+00
  -1.770000      0.0000000E+00
  -1.760000      0.0000000E+00
  -1.750000      0.0000000E+00
  -1.740000      0.0000000E+00
  -1.730000      0.0000000E+00
  -1.720000      0.0000000E+00
  -1.710000      0.0000000E+00
  -1.700000      0.0000000E+00
  -1.690000      0.0000000E+00
  -1.680000      0.0000000E+00
  -1.670000      0.0000000E+00
  -1.660000      0.0000000E+00
  -1.650000      0.0000000E+00
  -1.640000      0.0000000E+00
  -1.630000      0.0000000E+00
  -1.620000      0.0000000E+00
  -1.610000      0.0000000E+00
  -1.600000      0.0000000E+00
  -1.590000      0.0000000E+00
  -1.580000      0.0000000E+00
  -1.570000      0.0000000E+00
  -1.560000      0.0000000E+00
  -1.550000      0.0000000E+00
  -1.540000      0.0000000E+00
  -1.530000      0.0000000E+00
  -1.520000      0.0000000E+00
  -1.510000      0.0000000E+00
  -1.500000      0.0000000E+00
  -1.490000      0.0000000E+00
  -1.480000      0.0000000E+00
  -1.470000      0.0000000E+00
  -1.460000      0.0000000E+00
  -1.450000      0.0000000E+00
  -1.440000      0.0000000E+00
  -1.430000      0.0000000E+00
  -1.420000      0.0000000E+00
  -1.410000      0.0000000E+00
  -1.400000      0.0000000E+00
  -1.390000      0.0000000E+00
  -1.380000      0.0000000E+00
  -1.370000      0.0000000E+00
  -1.360000      0.0000000E+00
  -1.350000      0.0000000E+00
  -1.340000      0.0000000E+00
  -1.330000      0.0000000E+00
  -1.320000      0.0000000E+00
  -1.310000      0.0000000E+00
  -1.300000      0.0000000E+00
  -1.290000      0.0000000E+00
  -1.280000      0.0000000E+00
  -1.270000      0.0000000E+00
  -1.260000      0.0000000E+00
  -1.250000      0.0000000E+00
  -1.240000      0.0000000E+00
  -1.230000      0.0000000E+00
  -1.220000      0.0000000E+00
  -1.210000      0.0000000E+00
  -1.200000      0.0000000E+00
  -1.190000      0.0000000E+00
  -1.180000      0.0000000E+00
  -1.170000      0.0000000E+00
  -1.160000      0.0000000E+00
  -1.150000      0.0000000E+00
  -1.140000      0.0000000E+00
  -1.130000      0.0000000E+00
  -1.120000      0.0000000E+00
  -1.110000      0.0000000E+00
  -1.100000      0.0000000E+00
  -1.090000      0.0000000E+00
  -1.080000      0.0000000E+00
  -1.070000      0.0000000E+00
  -1.060000      0.0000000E+00
  -1.050000      0.0000000E+00
  -1.040000      0.0000000E+00
  -1.030000      0.0000000E+00
  -1.020000      0.0000000E+00
  -1.010000      0.0000000E+00
  -1.000000      0.0000000E+00
 -0.9900000      0.0000000E+00
 -0.9800000      0.0000000E+00
 -0.9700000      0.0000000E+00
 -0.9600000      0.0000000E+00
 -0.9500000      0.0000000E+00
 -0.9400000      0.0000000E+00
 -0.9300000      0.0000000E+00
 -0.9200000      0.0000000E+00
 -0.9100000      0.0000000E+00
 -0.9000000      0.0000000E+00
 -0.8900000      0.0000000E+00
 -0.8800000      0.0000000E+00
 -0.8700000      0.0000000E+00
 -0.8600000      0.0000000E+00
 -0.8500000      0.0000000E+00
 -0.8400000      0.0000000E+00
 -0.8300000      0.0000000E+00
 -0.8200000      0.0000000E+00
 -0.8100000      0.0000000E+00
 -0.8000000      0.0000000E+00
 -0.7900000      0.0000000E+00
 -0.7800000      0.0000000E+00
 -0.7700000      0.0000000E+00
 -0.7600000      0.0000000E+00
 -0.7500000      0.0000000E+00
 -0.7400000      0.0000000E+00
 -0.7300000      0.0000000E+00
 -0.7200000      0.0000000E+00
 -0.7100000      0.0000000E+00
 -0.7000000      0.0000000E+00
 -0.6900000      0.0000000E+00
 -0.6800000      0.0000000E+00
 -0.6700000      0.0000000E+00
 -0.6600000      0.0000000E+00
 -0.6500000      0.0000000E+00
 -0.6400000      0.0000000E+00
 -0.6300000      0.0000000E+00
 -0.6200000      0.0000000E+00
 -0.6100000      0.0000000E+00
 -0.6000000      0.0000000E+00
 -0.5900000      0.0000000E+00
 -0.5800000      0.0000000E+00
 -0.5700000      0.0000000E+00
 -0.5600000      0.0000000E+00
 -0.5500000      0.0000000E+00
 -0.5400000      0.0000000E+00
 -0.5300000     -1.2496041E-38
 -0.5200000     -1.6173504E-38
 -0.5100000     -1.9874751E-38
 -0.5000000     -2.3560805E-38
 -0.4900000     -2.6998097E-38
 -0.4800000     -2.9873102E-38
 -0.4700000     -3.2016542E-38
 -0.4600000     -3.3081843E-38
 -0.4500000     -3.2710392E-38
 -0.4400000     -3.0484584E-38
 -0.4300000     -2.6016336E-38
 -0.4200000     -1.8618527E-38
 -0.4100000      0.0000000E+00
 -0.4000000      0.0000000E+00
 -0.3900000      2.9931343E-38
 -0.3800000      5.5067145E-38
 -0.3700000      8.5160792E-38
 -0.3600000      1.2046497E-37
 -0.3500000      1.6439332E-37
 -0.3400000      2.4999727E-37
 -0.3300000      3.8103449E-37
 -0.3200000      5.2421060E-37
 -0.3100000      6.2129758E-37
 -0.3000000      6.5851315E-37
 -0.2900000      6.4304959E-37
 -0.2800000      5.2517088E-37
 -0.2700000      2.3736631E-37
 -0.2600000     -2.2069191E-37
 -0.2500000     -7.9474609E-37
 -0.2400000     -1.4356153E-36
 -0.2300000     -2.1822421E-36
 -0.2200000     -3.0333892E-36
 -0.2100000     -3.8666891E-36
 -0.2000000     -4.7134816E-36
 -0.1900000     -5.4773248E-36
 -0.1800000     -5.9465783E-36
 -0.1700000     -6.1125269E-36
 -0.1600000     -5.9313135E-36
 -0.1500000     -5.3197598E-36
 -0.1400000     -4.2469383E-36
 -0.1300000     -2.7556489E-36
 -0.1200000     -8.3673787E-37
 -0.1100000      1.6252458E-36
 -0.1000000      4.4970949E-36
 -9.0000004E-02  7.8076752E-36
 -7.9999998E-02  1.1638823E-35
 -7.0000000E-02  1.5663296E-35
 -5.9999999E-02  1.9904243E-35
 -5.0000001E-02  2.4795458E-35
 -3.9999999E-02  3.0426239E-35
 -2.9999999E-02  3.6994170E-35
 -2.0000000E-02  4.4510521E-35
 -9.9999998E-03  5.2796410E-35
 -3.4694470E-17  6.0827499E-35
  9.9999998E-03  6.6752639E-35
  2.0000000E-02  7.0065668E-35
  2.9999999E-02  6.7683725E-35
  3.9999999E-02  5.8198926E-35
  5.0000001E-02  4.3368627E-35
  5.9999999E-02  2.1041017E-35
  7.0000000E-02 -1.8181676E-35
  7.9999998E-02 -7.6568901E-35
  9.0000004E-02 -1.4367510E-34
  0.1000000     -2.0931807E-34
  0.1100000     -2.7365979E-34
  0.1200000     -3.4042268E-34
  0.1300000     -3.9710119E-34
  0.1400000     -4.4231433E-34
  0.1500000     -4.7771654E-34
  0.1600000     -4.9161612E-34
  0.1700000     -4.8084556E-34
  0.1800000     -4.4421592E-34
  0.1900000     -3.7805446E-34
  0.2000000     -2.7835135E-34
  0.2100000     -1.4380991E-34
  0.2200000      2.2090684E-35
  0.2300000      2.1322349E-34
  0.2400000      4.1609107E-34
  0.2500000      6.2636166E-34
  0.2600000      8.3284390E-34
  0.2700000      1.0087482E-33
  0.2800000      1.1317044E-33
  0.2900000      1.1720570E-33
  0.3000000      1.0933880E-33
  0.3100000      8.5340385E-34
  0.3200000      4.0331005E-34
  0.3300000     -3.1282453E-34
  0.3400000     -1.3589310E-33
  0.3500000     -2.8067729E-33
  0.3600000     -4.7377018E-33
  0.3700000     -7.2425116E-33
  0.3800000     -1.0421085E-32
  0.3900000     -1.4384194E-32
  0.4000000     -1.9253695E-32
  0.4100000     -2.5163214E-32
  0.4200000     -3.2258454E-32
  0.4300000     -4.0697948E-32
  0.4400000     -5.0653774E-32
  0.4500000     -6.2311757E-32
  0.4600000     -7.5871960E-32
  0.4700000     -9.1548946E-32
  0.4800000     -1.0957197E-31
  0.4900000     -1.3018493E-31
  0.5000000     -1.5364632E-31
  0.5100000     -1.8022877E-31
  0.5200000     -2.1021850E-31
  0.5300000     -2.4391454E-31
  0.5400000     -2.8162759E-31
  0.5500000     -3.2367898E-31
  0.5600000     -3.7039881E-31
  0.5700000     -4.2212454E-31
  0.5800000     -4.7919883E-31
  0.5900000     -5.4196764E-31
  0.6000000     -6.1077793E-31
  0.6100000     -6.8597539E-31
  0.6200000     -7.6790264E-31
  0.6300000     -8.5689683E-31
  0.6400000     -9.5328755E-31
  0.6500000     -1.0573956E-30
  0.6600000     -1.1695318E-30
  0.6700000     -1.2899954E-30
  0.6800000     -1.4190746E-30
  0.6900000     -1.5570470E-30
  0.7000000     -1.7041792E-30
  0.7100000     -1.8607293E-30
  0.7200000     -2.0269487E-30
  0.7300000     -2.2030850E-30
  0.7400000     -2.3893843E-30
  0.7500000     -2.5860964E-30
  0.7600000     -2.7934769E-30
  0.7700000     -3.0117929E-30
  0.7800000     -3.2413266E-30
  0.7900000     -3.4823789E-30
  0.8000000     -3.7352749E-30
  0.8100000     -4.0003660E-30
  0.8200000     -4.2780332E-30
  0.8300000     -4.5686906E-30
  0.8400000     -4.8727859E-30
  0.8500000     -5.1908017E-30
  0.8600000     -5.5232560E-30
  0.8700000     -5.8707020E-30
  0.8800000     -6.2337259E-30
  0.8900000     -6.6129468E-30
  0.9000000     -7.0090150E-30
  0.9100000     -7.4226092E-30
  0.9200000     -7.8544328E-30
  0.9300000     -8.3052170E-30
  0.9400000     -8.7757172E-30
  0.9500000     -9.2667150E-30
  0.9600000     -9.7790161E-30
  0.9700000     -1.0313456E-29
  0.9800000     -1.0870906E-29
  0.9900000     -1.1452274E-29
   1.000000     -1.2058513E-29
   1.010000     -1.2690629E-29
   1.020000     -1.3349696E-29
   1.030000     -1.4036858E-29
   1.040000     -1.4753338E-29
   1.050000     -1.5500460E-29
   1.060000     -1.6279651E-29
   1.070000     -1.7092445E-29
   1.080000     -1.7940498E-29
   1.090000     -1.8825586E-29
   1.100000     -1.9749614E-29
   1.110000     -2.0714610E-29
   1.120000     -2.1722719E-29
   1.130000     -2.2776202E-29
   1.140000     -2.3877419E-29
   1.150000     -2.5028820E-29
   1.160000     -2.6232926E-29
   1.170000     -2.7492310E-29
   1.180000     -2.8809586E-29
   1.190000     -3.0187375E-29
   1.200000     -3.1628299E-29
   1.210000     -3.3134960E-29
   1.220000     -3.4709913E-29
   1.230000     -3.6355674E-29
   1.240000     -3.8074696E-29
   1.250000     -3.9869371E-29
   1.260000     -4.1742025E-29
   1.270000     -4.3694927E-29
   1.280000     -4.5730295E-29
   1.290000     -4.7850298E-29
   1.300000     -5.0057080E-29
   1.310000     -5.2352752E-29
   1.320000     -5.4739431E-29
   1.330000     -5.7219204E-29
   1.340000     -5.9794172E-29
   1.350000     -6.2466424E-29
   1.360000     -6.5237994E-29
   1.370000     -6.8110868E-29
   1.380000     -7.1086917E-29
   1.390000     -7.4167857E-29
   1.400000     -7.7355157E-29
   1.410000     -8.0649959E-29
   1.420000     -8.4052975E-29
   1.430000     -8.7564379E-29
   1.440000     -9.1183659E-29
   1.450000     -9.4909515E-29
   1.460000     -9.8739684E-29
   1.470000     -1.0267083E-28
   1.480000     -1.0669838E-28
   1.490000     -1.1081640E-28
   1.500000     -1.1501748E-28
   1.510000     -1.1929257E-28
   1.520000     -1.2363096E-28
   1.530000     -1.2802010E-28
   1.540000     -1.3244562E-28
   1.550000     -1.3689120E-28
   1.560000     -1.4133857E-28
   1.570000     -1.4576745E-28
   1.580000     -1.5015551E-28
   1.590000     -1.5447840E-28
   1.600000     -1.5870964E-28
   1.610000     -1.6282066E-28
   1.620000     -1.6678063E-28
   1.630000     -1.7055647E-28
   1.640000     -1.7411270E-28
   1.650000     -1.7741125E-28
   1.660000     -1.8041137E-28
   1.670000     -1.8306931E-28
   1.680000     -1.8533809E-28
   1.690000     -1.8716724E-28
   1.700000     -1.8850242E-28
   1.710000     -1.8928505E-28
   1.720000     -1.8945202E-28
   1.730000     -1.8893529E-28
   1.740000     -1.8766155E-28
   1.750000     -1.8555183E-28
   1.760000     -1.8252124E-28
   1.770000     -1.7847871E-28
   1.780000     -1.7332686E-28
   1.790000     -1.6696178E-28
   1.800000     -1.5927302E-28
   1.810000     -1.5014368E-28
   1.820000     -1.3945053E-28
   1.830000     -1.2706414E-28
   1.840000     -1.1284919E-28
   1.850000     -9.6664849E-29
   1.860000     -7.8365114E-29
   1.870000     -5.7799252E-29
   1.880000     -3.4812183E-29
   1.890000     -9.2449625E-30
   1.900000      1.9064883E-29
   1.910000      5.0283004E-29
   1.920000      8.4577936E-29
   1.930000      1.2212091E-28
   1.940000      1.6308573E-28
   1.950000      2.0764871E-28
   1.960000      2.5598873E-28
   1.970000      3.0828746E-28
   1.980000      3.6472934E-28
   1.990000      4.2550201E-28
   2.000000      4.9079638E-28
   2.010000      5.6080692E-28
   2.020000      6.3573171E-28
   2.030000      7.1577244E-28
   2.040000      8.0113457E-28
   2.050000      8.9202671E-28
   2.060000      9.8866044E-28
   2.070000      1.0912494E-27
   2.080000      1.2000086E-27
   2.090000      1.3151530E-27
   2.100000      1.4368967E-27
   2.110000      1.5654505E-27
   2.120000      1.7010210E-27
   2.130000      1.8438087E-27
   2.140000      1.9940052E-27
   2.150000      2.1517920E-27
   2.160000      2.3173388E-27
   2.170000      2.4908002E-27
   2.180000      2.6723160E-27
   2.190000      2.8620082E-27
   2.200000      3.0599805E-27
   2.210000      3.2663167E-27
   2.220000      3.4810806E-27
   2.230000      3.7043159E-27
   2.240000      3.9360438E-27
   2.250000      4.1762670E-27
   2.260000      4.4249662E-27
   2.270000      4.6821029E-27
   2.280000      4.9476181E-27
   2.290000      5.2214341E-27
   2.300000      5.5034550E-27
   2.310000      5.7935636E-27
   2.320000      6.0916244E-27
   2.330000      6.3974813E-27
   2.340000      6.7109553E-27
   2.350000      7.0318437E-27
   2.360000      7.3599182E-27
   2.370000      7.6949198E-27
   2.380000      8.0365574E-27
   2.390000      8.3845037E-27
   2.400000      8.7383871E-27
   2.410000      9.0977949E-27
   2.420000      9.4622618E-27
   2.430000      9.8312676E-27
   2.440000      1.0204238E-26
   2.450000      1.0580530E-26
   2.460000      1.0959441E-26
   2.470000      1.1340200E-26
   2.480000      1.1721964E-26
   2.490000      1.2103822E-26
   2.500000      1.2484797E-26
   2.510000      1.2863840E-26
   2.520000      1.3239835E-26
   2.530000      1.3611602E-26
   2.540000      1.3977903E-26
   2.550000      1.4337436E-26
   2.560000      1.4688847E-26
   2.570000      1.5030728E-26
   2.580000      1.5361618E-26
   2.590000      1.5680008E-26
   2.600000      1.5984340E-26
   2.610000      1.6273006E-26
   2.620000      1.6544344E-26
   2.630000      1.6796634E-26
   2.640000      1.7028103E-26
   2.650000      1.7236908E-26
   2.660000      1.7421129E-26
   2.670000      1.7578764E-26
   2.680000      1.7707724E-26
   2.690000      1.7805819E-26
   2.700000      1.7870752E-26
   2.710000      1.7900112E-26
   2.720000      1.7891365E-26
   2.730000      1.7841850E-26
   2.740000      1.7748774E-26
   2.750000      1.7609215E-26
   2.760000      1.7420120E-26
   2.770000      1.7178301E-26
   2.780000      1.6880454E-26
   2.790000      1.6523152E-26
   2.800000      1.6102865E-26
   2.810000      1.5615967E-26
   2.820000      1.5058743E-26
   2.830000      1.4427408E-26
   2.840000      1.3718117E-26
   2.850000      1.2926974E-26
   2.860000      1.2050043E-26
   2.870000      1.1083356E-26
   2.880000      1.0022922E-26
   2.890000      8.8647212E-27
   2.900000      7.6047193E-27
   2.910000      6.2388552E-27
   2.920000      4.7630408E-27
   2.930000      3.1731531E-27
   2.940000      1.4650295E-27
   2.950000     -3.6554054E-28
   2.960000     -2.3228262E-27
   2.970000     -4.4111584E-27
   2.980000     -6.6349373E-27
   2.990000     -8.9986303E-27
   3.000000     -1.1506771E-26
   3.010000     -1.4163950E-26
   3.020000     -1.6974804E-26
   3.030000     -1.9943994E-26
   3.040000     -2.3076174E-26
   3.050000     -2.6375968E-26
   3.060000     -2.9847917E-26
   3.070000     -3.3496452E-26
   3.080000     -3.7325823E-26
   3.090000     -4.1340055E-26
   3.100000     -4.5542900E-26
   3.110000     -4.9937755E-26
   3.120000     -5.4527631E-26
   3.130000     -5.9315074E-26
   3.140000     -6.4302111E-26
   3.150000     -6.9490215E-26
   3.160000     -7.4880249E-26
   3.170000     -8.0472410E-26
   3.180000     -8.6266211E-26
   3.190000     -9.2260444E-26
   3.200000     -9.8453157E-26
   3.210000     -1.0484160E-25
   3.220000     -1.1142224E-25
   3.230000     -1.1819070E-25
   3.240000     -1.2514179E-25
   3.250000     -1.3226937E-25
   3.260000     -1.3956645E-25
   3.270000     -1.4702505E-25
   3.280000     -1.5463618E-25
   3.290000     -1.6238977E-25
   3.300000     -1.7027457E-25
   3.310000     -1.7827815E-25
   3.320000     -1.8638668E-25
   3.330000     -1.9458491E-25
   3.340000     -2.0285599E-25
   3.350000     -2.1118139E-25
   3.360000     -2.1954073E-25
   3.370000     -2.2791168E-25
   3.380000     -2.3626981E-25
   3.390000     -2.4458839E-25
   3.400000     -2.5283845E-25
   3.410000     -2.6098847E-25
   3.420000     -2.6900438E-25
   3.430000     -2.7684955E-25
   3.440000     -2.8448457E-25
   3.450000     -2.9186739E-25
   3.460000     -2.9895319E-25
   3.470000     -3.0569442E-25
   3.480000     -3.1204081E-25
   3.490000     -3.1793944E-25
   3.500000     -3.2333473E-25
   3.510000     -3.2816870E-25
   3.520000     -3.3238070E-25
   3.530000     -3.3590777E-25
   3.540000     -3.3868466E-25
   3.550000     -3.4064382E-25
   3.560000     -3.4171554E-25
   3.570000     -3.4182793E-25
   3.580000     -3.4090705E-25
   3.590000     -3.3887694E-25
   3.600000     -3.3565965E-25
   3.610000     -3.3117522E-25
   3.620000     -3.2534179E-25
   3.630000     -3.1807555E-25
   3.640000     -3.0929096E-25
   3.650000     -2.9890068E-25
   3.660000     -2.8681567E-25
   3.670000     -2.7294545E-25
   3.680000     -2.5719819E-25
   3.690000     -2.3948099E-25
   3.700000     -2.1970008E-25
   3.710000     -1.9776128E-25
   3.720000     -1.7357028E-25
   3.730000     -1.4703322E-25
   3.740000     -1.1805715E-25
   3.750000     -8.6550608E-26
   3.760000     -5.2424220E-26
   3.770000     -1.5591407E-26
   3.780000      2.4030930E-26
   3.790000      6.6521651E-26
   3.800000      1.1195459E-25
   3.810000      1.6039778E-25
   3.820000      2.1191277E-25
   3.830000      2.6655378E-25
   3.840000      3.2436693E-25
   3.850000      3.8538961E-25
   3.860000      4.4964958E-25
   3.870000      5.1716444E-25
   3.880000      5.8794065E-25
   3.890000      6.6197317E-25
   3.900000      7.3924456E-25
   3.910000      8.1972425E-25
   3.920000      9.0336791E-25
   3.930000      9.9011648E-25
   3.940000      1.0798959E-24
   3.950000      1.1726155E-24
   3.960000      1.2681675E-24
   3.970000      1.3664261E-24
   3.980000      1.4672463E-24
   3.990000      1.5704626E-24
   4.000000      1.6758881E-24
   4.010000      1.7833128E-24
   4.020000      1.8925028E-24
   4.030000      2.0031983E-24
   4.040000      2.1151132E-24
   4.050000      2.2279321E-24
   4.060000      2.3413110E-24
   4.070000      2.4548738E-24
   4.080000      2.5682124E-24
   4.090000      2.6808856E-24
   4.100000      2.7924171E-24
   4.110000      2.9022954E-24
   4.120000      3.0099723E-24
   4.130000      3.1148626E-24
   4.140000      3.2163441E-24
   4.150000      3.3137562E-24
   4.160000      3.4064004E-24
   4.170000      3.4935403E-24
   4.180000      3.5744025E-24
   4.190000      3.6481756E-24
   4.200000      3.7140104E-24
   4.210000      3.7710222E-24
   4.220000      3.8182899E-24
   4.230000      3.8548576E-24
   4.240000      3.8797347E-24
   4.250000      3.8918985E-24
   4.260000      3.8902928E-24
   4.270000      3.8738312E-24
   4.280000      3.8413972E-24
   4.290000      3.7918449E-24
   4.300000      3.7240029E-24
   4.310000      3.6366740E-24
   4.320000      3.5286391E-24
   4.330000      3.3986581E-24
   4.340000      3.2454728E-24
   4.350000      3.0678108E-24
   4.360000      2.8643892E-24
   4.370000      2.6339180E-24
   4.380000      2.3751042E-24
   4.390000      2.0866588E-24
   4.400000      1.7673009E-24
   4.410000      1.4157656E-24
   4.420000      1.0308097E-24
   4.430000      6.1121929E-25
   4.440000      1.5581901E-25
   4.450000     -3.3652025E-25
   4.460000     -8.6687146E-25
   4.470000     -1.4362419E-24
   4.480000     -2.0455629E-24
   4.490000     -2.6956795E-24
   4.500000     -3.3873388E-24
   4.510000     -4.1211786E-24
   4.520000     -4.8977163E-24
   4.530000     -5.7173353E-24
   4.540000     -6.5802754E-24
   4.550000     -7.4866174E-24
   4.560000     -8.4362718E-24
   4.570000     -9.4289657E-24
   4.580000     -1.0464228E-23
   4.590000     -1.1541377E-23
   4.600000     -1.2659506E-23
   4.610000     -1.3817467E-23
   4.620000     -1.5013856E-23
   4.630000     -1.6247005E-23
   4.640000     -1.7514954E-23
   4.650000     -1.8815440E-23
   4.660000     -2.0145884E-23
   4.670000     -2.1503373E-23
   4.680000     -2.2884634E-23
   4.690000     -2.4286030E-23
   4.700000     -2.5703529E-23
   4.710000     -2.7132697E-23
   4.720000     -2.8568680E-23
   4.730000     -3.0006170E-23
   4.740000     -3.1439414E-23
   4.750000     -3.2862175E-23
   4.760000     -3.4267742E-23
   4.770000     -3.5648883E-23
   4.780000     -3.6997860E-23
   4.790000     -3.8306398E-23
   4.800000     -3.9565697E-23
   4.810000     -4.0766394E-23
   4.820000     -4.1898586E-23
   4.830000     -4.2951810E-23
   4.840000     -4.3915038E-23
   4.850000     -4.4776685E-23
   4.860000     -4.5524611E-23
   4.870000     -4.6146126E-23
   4.880000     -4.6627997E-23
   4.890000     -4.6956444E-23
   4.900000     -4.7117182E-23
   4.910000     -4.7095413E-23
   4.920000     -4.6875860E-23
   4.930000     -4.6442772E-23
   4.940000     -4.5779962E-23
   4.950000     -4.4870841E-23
   4.960000     -4.3698442E-23
   4.970000     -4.2245455E-23
   4.980000     -4.0494281E-23
   4.990000     -3.8427059E-23
   5.000000     -3.6025728E-23
   5.010000     -3.3272089E-23
   5.020000     -3.0147853E-23
   5.030000     -2.6634715E-23
   5.040000     -2.2714428E-23
   5.050000     -1.8368877E-23
   5.060000     -1.3580171E-23
   5.070000     -8.3307380E-24
   5.080000     -2.6034116E-24
   5.090000      3.6184498E-24
   5.100000      1.0350851E-23
   5.110000      1.7609040E-23
   5.120000      2.5407378E-23
   5.130000      3.3759198E-23
   5.140000      4.2676671E-23
   5.150000      5.2170663E-23
   5.160000      6.2250560E-23
   5.170000      7.2924113E-23
   5.180000      8.4197289E-23
   5.190000      9.6074063E-23
   5.200000      1.0855626E-22
   5.210000      1.2164336E-22
   5.220000      1.3533233E-22
   5.230000      1.4961739E-22
   5.240000      1.6448988E-22
   5.250000      1.7993797E-22
   5.260000      1.9594654E-22
   5.270000      2.1249691E-22
   5.280000      2.2956670E-22
   5.290000      2.4712952E-22
   5.300000      2.6515483E-22
   5.310000      2.8360769E-22
   5.320000      3.0244859E-22
   5.330000      3.2163321E-22
   5.340000      3.4111209E-22
   5.350000      3.6083071E-22
   5.360000      3.8072891E-22
   5.370000      4.0074099E-22
   5.380000      4.2079537E-22
   5.390000      4.4081446E-22
   5.400000      4.6071436E-22
   5.410000      4.8040488E-22
   5.420000      4.9978920E-22
   5.430000      5.1876382E-22
   5.440000      5.3721842E-22
   5.450000      5.5503577E-22
   5.460000      5.7209157E-22
   5.470000      5.8825436E-22
   5.480000      6.0338554E-22
   5.490000      6.1733937E-22
   5.500000      6.2996311E-22
   5.510000      6.4109658E-22
   5.520000      6.5057286E-22
   5.530000      6.5821781E-22
   5.540000      6.6385066E-22
   5.550000      6.6728393E-22
   5.560000      6.6832377E-22
   5.570000      6.6677008E-22
   5.580000      6.6241683E-22
   5.590000      6.5505273E-22
   5.600000      6.4446119E-22
   5.610000      6.3042098E-22
   5.620000      6.1270673E-22
   5.630000      5.9108941E-22
   5.640000      5.6533710E-22
   5.650000      5.3521534E-22
   5.660000      5.0048814E-22
   5.670000      4.6091858E-22
   5.680000      4.1626976E-22
   5.690000      3.6630568E-22
   5.700000      3.1079224E-22
   5.710000      2.4949823E-22
   5.720000      1.8219645E-22
   5.730000      1.0866498E-22
   5.740000      2.8688457E-23
   5.750000     -5.7940710E-23
   5.760000     -1.5142088E-22
   5.770000     -2.5193963E-22
   5.780000     -3.5967228E-22
   5.790000     -4.7478027E-22
   5.800000     -5.9740919E-22
   5.810000     -7.2768746E-22
   5.820000     -8.6572408E-22
   5.830000     -1.0116070E-21
   5.840000     -1.1654007E-21
   5.850000     -1.3271453E-21
   5.860000     -1.4968530E-21
   5.870000     -1.6745068E-21
   5.880000     -1.8600582E-21
   5.890000     -2.0534248E-21
   5.900000     -2.2544882E-21
   5.910000     -2.4630918E-21
   5.920000     -2.6790375E-21
   5.930000     -2.9020850E-21
   5.940000     -3.1319479E-21
   5.950000     -3.3682922E-21
   5.960000     -3.6107338E-21
   5.970000     -3.8588359E-21
   5.980000     -4.1121067E-21
   5.990000     -4.3699976E-21
   6.000000     -4.6318996E-21
   6.010000     -4.8971427E-21
   6.020000     -5.1649925E-21
   6.030000     -5.4346497E-21
   6.040000     -5.7052452E-21
   6.050000     -5.9758407E-21
   6.060000     -6.2454269E-21
   6.070000     -6.5129209E-21
   6.080000     -6.7771643E-21
   6.090000     -7.0369224E-21
   6.100000     -7.2908822E-21
   6.110000     -7.5376551E-21
   6.120000     -7.7757724E-21
   6.130000     -8.0036833E-21
   6.140000     -8.2197608E-21
   6.150000     -8.4222956E-21
   6.160000     -8.6094986E-21
   6.170000     -8.7795036E-21
   6.180000     -8.9303639E-21
   6.190000     -9.0600600E-21
   6.200000     -9.1664940E-21
   6.210000     -9.2474964E-21
   6.220000     -9.3008285E-21
   6.230000     -9.3241826E-21
   6.240000     -9.3151878E-21
   6.250000     -9.2714151E-21
   6.260000     -9.1903773E-21
   6.270000     -9.0695378E-21
   6.280000     -8.9063134E-21
   6.290000     -8.6980828E-21
   6.300000     -8.4421924E-21
   6.310000     -8.1359635E-21
   6.320000     -7.7766981E-21
   6.330000     -7.3616910E-21
   6.340000     -6.8882367E-21
   6.350000     -6.3536377E-21
   6.360000     -5.7552161E-21
   6.370000     -5.0903269E-21
   6.380000     -4.3563661E-21
   6.390000     -3.5507859E-21
   6.400000     -2.6711061E-21
   6.410000     -1.7149280E-21
   6.420000     -6.7994938E-22
   6.430000      4.3601950E-22
   6.440000      1.6350416E-21
   6.450000      2.9190360E-21
   6.460000      4.2897595E-21
   6.470000      5.7487901E-21
   6.480000      7.2975085E-21
   6.490000      8.9370791E-21
   6.500000      1.0668431E-20
   6.510000      1.2492234E-20
   6.520000      1.4408882E-20
   6.530000      1.6418472E-20
   6.540000      1.8520777E-20
   6.550000      2.0715231E-20
   6.560000      2.3000901E-20
   6.570000      2.5376462E-20
   6.580000      2.7840188E-20
   6.590000      3.0389911E-20
   6.600000      3.3023011E-20
   6.610000      3.5736387E-20
   6.620000      3.8526425E-20
   6.630000      4.1389000E-20
   6.640000      4.4319426E-20
   6.650000      4.7312450E-20
   6.660000      5.0362220E-20
   6.670000      5.3462273E-20
   6.680000      5.6605501E-20
   6.690000      5.9784143E-20
   6.700000      6.2989771E-20
   6.710000      6.6213249E-20
   6.720000      6.9444733E-20
   6.730000      7.2673652E-20
   6.740000      7.5888684E-20
   6.750000      7.9077769E-20
   6.760000      8.2228060E-20
   6.770000      8.5325955E-20
   6.780000      8.8357055E-20
   6.790000      9.1306180E-20
   6.800000      9.4157342E-20
   6.810000      9.6893779E-20
   6.820000      9.9497937E-20
   6.830000      1.0195148E-19
   6.840000      1.0423530E-19
   6.850000      1.0632952E-19
   6.860000      1.0821352E-19
   6.870000      1.0986592E-19
   6.880000      1.1126467E-19
   6.890000      1.1238705E-19
   6.900000      1.1320964E-19
   6.910000      1.1370847E-19
   6.920000      1.1385894E-19
   6.930000      1.1363597E-19
   6.940000      1.1301394E-19
   6.950000      1.1196684E-19
   6.960000      1.1046829E-19
   6.970000      1.0849160E-19
   6.980000      1.0600986E-19
   6.990000      1.0299596E-19
   7.000000      9.9422754E-20
   7.010000      9.5263076E-20
   7.020000      9.0489875E-20
   7.030000      8.5076276E-20
   7.040000      7.8995742E-20
   7.050000      7.2222109E-20
   7.060000      6.4729772E-20