  -2.600000      0.0000000E+00
  -2.590000      0.0000000E+00
  -2.580000      0.0000000E+00
  -2.570000      0.0000000E+00
  -2.560000      0.0000000E+00
  -2.550000      0.0000000E+00
  -2.540000      0.0000000E+00
  -2.530000      0.0000000E+00
  -2.520000      0.0000000E+00
  -2.510000      0.0000000E+00
  -2.500000      0.0000000E+00
  -2.490000      0.0000000E+00
  -2.480000      0.0000000E+00
  -2.470000      0.0000000E+00
  -2.460000      0.0000000E+00
  -2.450000      0.0000000E+00
  -2.440000      0.0000000E+00
  -2.430000      0.0000000E+00
  -2.420000      0.0000000E+00
  -2.410000      0.0000000E+00
  -2.400000      0.0000000E+00
  -2.390000      0.0000000E+00
  -2.380000      0.0000000E+00
  -2.370000      0.0000000E+00
  -2.360000      0.0000000E+00
  -2.350000      0.0000000E+00
  -2.340000      0.0000000E+00
  -2.330000      0.0000000E+00
  -2.320000      0.0000000E+00
  -2.310000      0.0000000E+00
  -2.300000      0.0000000E+00
  -2.290000      0.0000000E+00
  -2.280000      0.0000000E+00
  -2.270000      0.0000000E+00
  -2.260000      0.0000000E+00
  -2.250000      0.0000000E+00
  -2.240000      0.0000000E+00
  -2.230000      0.0000000E+00
  -2.220000      0.0000000E+00
  -2.210000      0.0000000E+00
  -2.200000      0.0000000E+00
  -2.190000      0.0000000E+00
  -2.180000      0.0000000E+00
  -2.170000      0.0000000E+00
  -2.160000      0.0000000E+00
  -2.150000      0.0000000E+00
  -2.140000      0.0000000E+00
  -2.130000      0.0000000E+00
  -2.120000      0.0000000E+00
  -2.110000      0.0000000E+00
  -2.100000      0.0000000E+00
  -2.090000      0.0000000E+00
  -2.080000      0.0000000E+00
  -2.070000      0.0000000E+00
  -2.060000      0.0000000E+00
  -2.050000      0.0000000E+00
  -2.040000      0.0000000E+00
  -2.030000      0.0000000E+00
  -2.020000      0.0000000E+00
  -2.010000      0.0000000E+00
  -2.000000      0.0000000E+00
  -1.990000      0.0000000E+00
  -1.980000      0.0000000E+00
  -1.970000      0.0000000E+00
  -1.960000      0.0000000E+00
  -1.950000      0.0000000E+00
  -1.940000      0.0000000E+00
  -1.930000      0.0000000E+00
  -1.920000      0.0000000E+00
  -1.910000      0.0000000E+00
  -1.900000      0.0000000E+00
  -1.890000      0.0000000E+00
  -1.880000      0.0000000E+00
  -1.870000      0.0000000E+00
  -1.860000      0.0000000E+00
  -1.850000      0.0000000E+00
  -1.840000      0.0000000E+00
  -1.830000      0.0000000E+00
  -1.820000      0.0000000E+00
  -1.810000      0.0000000E+00
  -1.800000      0.0000000E+00
  -1.790000      0.0000000E+00
  -1.780000      0.0000000E+00
  -1.770000      0.0000000E+00
  -1.760000      0.0000000E+00
  -1.750000      0.0000000E+00
  -1.740000      0.0000000E+00
  -1.730000      0.0000000E+00
  -1.720000      0.0000000E+00
  -1.710000      0.0000000E+00
  -1.700000      0.0000000E+00
  -1.690000      0.0000000E+00
  -1.680000      0.0000000E+00
  -1.670000      0.0000000E+00
  -1.660000      0.0000000E+00
  -1.650000      0.0000000E+00
  -1.640000      0.0000000E+00
  -1.630000      0.0000000E+00
  -1.620000      0.0000000E+00
  -1.610000      0.0000000E+00
  -1.600000      0.0000000E+00
  -1.590000      0.0000000E+00
  -1.580000      0.0000000E+00
  -1.570000      0.0000000E+00
  -1.560000      0.0000000E+00
  -1.550000      0.0000000E+00
  -1.540000      0.0000000E+00
  -1.530000      0.0000000E+00
  -1.520000      0.0000000E+00
  -1.510000      0.0000000E+00
  -1.500000      0.0000000E+00
  -1.490000      0.0000000E+00
  -1.480000      0.0000000E+00
  -1.470000      0.0000000E+00
  -1.460000      0.0000000E+00
  -1.450000      0.0000000E+00
  -1.440000      0.0000000E+00
  -1.430000      0.0000000E+00
  -1.420000      0.0000000E+00
  -1.410000      0.0000000E+00
  -1.400000      0.0000000E+00
  -1.390000      0.0000000E+00
  -1.380000      0.0000000E+00
  -1.370000      0.0000000E+00
  -1.360000      0.0000000E+00
  -1.350000      0.0000000E+00
  -1.340000      0.0000000E+00
  -1.330000      0.0000000E+00
  -1.320000      0.0000000E+00
  -1.310000      0.0000000E+00
  -1.300000      0.0000000E+00
  -1.290000      0.0000000E+00
  -1.280000      0.0000000E+00
  -1.270000      0.0000000E+00
  -1.260000      0.0000000E+00
  -1.250000      0.0000000E+00
  -1.240000      0.0000000E+00
  -1.230000      0.0000000E+00
  -1.220000      0.0000000E+00
  -1.210000      0.0000000E+00
  -1.200000      0.0000000E+00
  -1.190000      0.0000000E+00
  -1.180000      0.0000000E+00
  -1.170000      0.0000000E+00
  -1.160000      0.0000000E+00
  -1.150000      0.0000000E+00
  -1.140000      0.0000000E+00
  -1.130000      0.0000000E+00
  -1.120000      0.0000000E+00
  -1.110000      0.0000000E+00
  -1.100000      0.0000000E+00
  -1.090000      0.0000000E+00
  -1.080000      0.0000000E+00
  -1.070000      0.0000000E+00
  -1.060000      0.0000000E+00
  -1.050000      0.0000000E+00
  -1.040000      0.0000000E+00
  -1.030000      0.0000000E+00
  -1.020000      0.0000000E+00
  -1.010000      0.0000000E+00
  -1.000000      0.0000000E+00
 -0.9900000      0.0000000E+00
 -0.9800000      0.0000000E+00
 -0.9700000      0.0000000E+00
 -0.9600000      0.0000000E+00
 -0.9500000      0.0000000E+00
 -0.9400000      0.0000000E+00
 -0.9300000      0.0000000E+00
 -0.9200000      0.0000000E+00
 -0.9100000      0.0000000E+00
 -0.9000000      0.0000000E+00
 -0.8900000      0.0000000E+00
 -0.8800000      0.0000000E+00
 -0.8700000      0.0000000E+00
 -0.8600000      0.0000000E+00
 -0.8500000      0.0000000E+00
 -0.8400000      0.0000000E+00
 -0.8300000      0.0000000E+00
 -0.8200000      0.0000000E+00
 -0.8100000      0.0000000E+00
 -0.8000000      0.0000000E+00
 -0.7900000      0.0000000E+00
 -0.7800000      0.0000000E+00
 -0.7700000      0.0000000E+00
 -0.7600000      0.0000000E+00
 -0.7500000      0.0000000E+00
 -0.7400000      0.0000000E+00
 -0.7300000      0.0000000E+00
 -0.7200000      0.0000000E+00
 -0.7100000      0.0000000E+00
 -0.7000000      0.0000000E+00
 -0.6900000      0.0000000E+00
 -0.6800000      0.0000000E+00
 -0.6700000      0.0000000E+00
 -0.6600000      0.0000000E+00
 -0.6500000      0.0000000E+00
 -0.6400000      0.0000000E+00
 -0.6300000      0.0000000E+00
 -0.6200000      0.0000000E+00
 -0.6100000      0.0000000E+00
 -0.6000000      0.0000000E+00
 -0.5900000      0.0000000E+00
 -0.5800000      0.0000000E+00
 -0.5700000      0.0000000E+00
 -0.5600000      0.0000000E+00
 -0.5500000      0.0000000E+00
 -0.5400000      0.0000000E+00
 -0.5300000      0.0000000E+00
 -0.5200000      0.0000000E+00
 -0.5100000      0.0000000E+00
 -0.5000000      0.0000000E+00
 -0.4900000      0.0000000E+00
 -0.4800000     -1.3750254E-38
 -0.4700000     -1.8943195E-38
 -0.4600000     -2.4461711E-38
 -0.4500000     -2.9848728E-38
 -0.4400000     -3.1993261E-38
 -0.4300000     -2.9098767E-38
 -0.4200000     -1.7749819E-38
 -0.4100000      0.0000000E+00
 -0.4000000      2.9069570E-38
 -0.3900000      6.4086552E-38
 -0.3800000      1.0784394E-37
 -0.3700000      1.5961767E-37
 -0.3600000      2.1348293E-37
 -0.3500000      2.6350960E-37
 -0.3400000      1.8160550E-37
 -0.3300000     -6.0618759E-38
 -0.3200000     -3.5745790E-37
 -0.3100000     -5.7780939E-37
 -0.3000000     -6.7447912E-37
 -0.2900000     -7.1739975E-37
 -0.2800000     -6.4708178E-37
 -0.2700000     -3.5232791E-37
 -0.2600000      1.7670611E-37
 -0.2500000      8.7756189E-37
 -0.2400000      1.7345047E-36
 -0.2300000      2.5491076E-36
 -0.2200000      3.0749344E-36
 -0.2100000      3.1358489E-36
 -0.2000000      2.6260260E-36
 -0.1900000      1.6099921E-36
 -0.1800000     -8.3635462E-38
 -0.1700000     -2.3224645E-36
 -0.1600000     -4.9352489E-36
 -0.1500000     -8.9112351E-36
 -0.1400000     -1.3836312E-35
 -0.1300000     -1.7679999E-35
 -0.1200000     -1.9881207E-35
 -0.1100000     -2.1382290E-35
 -0.1000000     -2.2368597E-35
 -9.0000004E-02 -2.1228946E-35
 -7.9999998E-02 -1.7518003E-35
 -7.0000000E-02 -1.2141812E-35
 -5.9999999E-02 -5.8439511E-36
 -5.0000001E-02 -6.4877490E-38
 -3.9999999E-02  5.5585073E-36
 -2.9999999E-02  1.0518001E-35
 -2.0000000E-02  1.5263015E-35
 -9.9999998E-03  2.0455977E-35
 -3.4694470E-17  1.5798282E-35
  9.9999998E-03  6.2047275E-36
  2.0000000E-02  1.7245554E-35
  2.9999999E-02  4.7534162E-35
  3.9999999E-02  8.9643618E-35
  5.0000001E-02  1.3899539E-34
  5.9999999E-02  1.7569730E-34
  7.0000000E-02  1.8826527E-34
  7.9999998E-02  1.9254111E-34
  9.0000004E-02  2.0227712E-34
  0.1000000      2.0705995E-34
  0.1100000      1.9741287E-34
  0.1200000      1.7094200E-34
  0.1300000      1.2937308E-34
  0.1400000      7.3895639E-35
  0.1500000     -8.0306963E-36
  0.1600000     -1.1747183E-34
  0.1700000     -2.4240110E-34
  0.1800000     -3.7136307E-34
  0.1900000     -5.0567650E-34
  0.2000000     -6.5618065E-34
  0.2100000     -8.0213108E-34
  0.2200000     -9.3341424E-34
  0.2300000     -1.0260280E-33
  0.2400000     -1.0474153E-33
  0.2500000     -9.8060225E-34
  0.2600000     -8.0960089E-34
  0.2700000     -5.1432153E-34
  0.2800000     -5.3313571E-35
  0.2900000      6.0687284E-34
  0.3000000      1.5035914E-33
  0.3100000      2.6861100E-33
  0.3200000      4.2094008E-33
  0.3300000      6.1359027E-33
  0.3400000      8.5360300E-33
  0.3500000      1.1491758E-32
  0.3600000      1.5087921E-32
  0.3700000      1.9417952E-32
  0.3800000      2.4589345E-32
  0.3900000      3.0715159E-32
  0.4000000      3.7916499E-32
  0.4100000      4.6322735E-32
  0.4200000      5.6070393E-32
  0.4300000      6.7304005E-32
  0.4400000      8.0176990E-32
  0.4500000      9.4850857E-32
  0.4600000      1.1149569E-31
  0.4700000      1.3029027E-31
  0.4800000      1.5142194E-31
  0.4900000      1.7508624E-31
  0.5000000      2.0148615E-31
  0.5100000      2.3083100E-31
  0.5200000      2.6333514E-31
  0.5300000      2.9921597E-31
  0.5400000      3.3869220E-31
  0.5500000      3.8198154E-31
  0.5600000      4.2929858E-31
  0.5700000      4.8085284E-31
  0.5800000      5.3684686E-31
  0.5900000      5.9747481E-31
  0.6000000      6.6292131E-31
  0.6100000      7.3336079E-31
  0.6200000      8.0895753E-31
  0.6300000      8.8986587E-31
  0.6400000      9.7623066E-31
  0.6500000      1.0681885E-30
  0.6600000      1.1658689E-30
  0.6700000      1.2693959E-30
  0.6800000      1.3788894E-30
  0.6900000      1.4944671E-30
  0.7000000      1.6162466E-30
  0.7100000      1.7443469E-30
  0.7200000      1.8788908E-30
  0.7300000      2.0200069E-30
  0.7400000      2.1678313E-30
  0.7500000      2.3225111E-30
  0.7600000      2.4842055E-30
  0.7700000      2.6530894E-30
  0.7800000      2.8293545E-30
  0.7900000      3.0132124E-30
  0.8000000      3.2048956E-30
  0.8100000      3.4046612E-30
  0.8200000      3.6127888E-30
  0.8300000      3.8295827E-30
  0.8400000      4.0553735E-30
  0.8500000      4.2905164E-30
  0.8600000      4.5353916E-30
  0.8700000      4.7904032E-30
  0.8800000      5.0559795E-30
  0.8900000      5.3325728E-30
  0.9000000      5.6206588E-30
  0.9100000      5.9207394E-30
  0.9200000      6.2333422E-30
  0.9300000      6.5590238E-30
  0.9400000      6.8983734E-30
  0.9500000      7.2520177E-30
  0.9600000      7.6206249E-30
  0.9700000      8.0049096E-30
  0.9800000      8.4056362E-30
  0.9900000      8.8236277E-30
   1.000000      9.2597658E-30
   1.010000      9.7149963E-30
   1.020000      1.0190329E-29
   1.030000      1.0686839E-29
   1.040000      1.1205665E-29
   1.050000      1.1748006E-29
   1.060000      1.2315116E-29
   1.070000      1.2908296E-29
   1.080000      1.3528886E-29
   1.090000      1.4178264E-29
   1.100000      1.4857821E-29
   1.110000      1.5568960E-29
   1.120000      1.6313086E-29
   1.130000      1.7091589E-29
   1.140000      1.7905837E-29
   1.150000      1.8757176E-29
   1.160000      1.9646909E-29
   1.170000      2.0576298E-29
   1.180000      2.1546570E-29
   1.190000      2.2558908E-29
   1.200000      2.3614459E-29
   1.210000      2.4714334E-29
   1.220000      2.5859624E-29
   1.230000      2.7051401E-29
   1.240000      2.8290737E-29
   1.250000      2.9578709E-29
   1.260000      3.0916415E-29
   1.270000      3.2304983E-29
   1.280000      3.3745573E-29
   1.290000      3.5239378E-29
   1.300000      3.6787633E-29
   1.310000      3.8391581E-29
   1.320000      4.0052467E-29
   1.330000      4.1771510E-29
   1.340000      4.3549868E-29
   1.350000      4.5388593E-29
   1.360000      4.7288562E-29
   1.370000      4.9250431E-29
   1.380000      5.1274557E-29
   1.390000      5.3360904E-29
   1.400000      5.5509002E-29
   1.410000      5.7717821E-29
   1.420000      5.9985712E-29
   1.430000      6.2310316E-29
   1.440000      6.4688502E-29
   1.450000      6.7116305E-29
   1.460000      6.9588832E-29
   1.470000      7.2100239E-29
   1.480000      7.4643658E-29
   1.490000      7.7211175E-29
   1.500000      7.9793763E-29
   1.510000      8.2381280E-29
   1.520000      8.4962430E-29
   1.530000      8.7524747E-29
   1.540000      9.0054528E-29
   1.550000      9.2536847E-29
   1.560000      9.4955430E-29
   1.570000      9.7292588E-29
   1.580000      9.9529165E-29
   1.590000      1.0164444E-28
   1.600000      1.0361598E-28
   1.610000      1.0541948E-28
   1.620000      1.0702861E-28
   1.630000      1.0841481E-28
   1.640000      1.0954708E-28
   1.650000      1.1039173E-28
   1.660000      1.1091226E-28
   1.670000      1.1106907E-28
   1.680000      1.1081922E-28
   1.690000      1.1011632E-28
   1.700000      1.0891022E-28
   1.710000      1.0714695E-28
   1.720000      1.0476864E-28
   1.730000      1.0171342E-28
   1.740000      9.7915398E-29
   1.750000      9.3304722E-29
   1.760000      8.7807624E-29
   1.770000      8.1346604E-29
   1.780000      7.3840557E-29
   1.790000      6.5205043E-29
   1.800000      5.5352503E-29
   1.810000      4.4192524E-29
   1.820000      3.1632111E-29
   1.830000      1.7575993E-29
   1.840000      1.9269113E-30
   1.850000     -1.5414213E-29
   1.860000     -3.4548042E-29
   1.870000     -5.5576663E-29
   1.880000     -7.8603448E-29
   1.890000     -1.0373297E-28
   1.900000     -1.3107093E-28
   1.910000     -1.6072426E-28
   1.920000     -1.9280099E-28
   1.930000     -2.2741037E-28
   1.940000     -2.6466279E-28
   1.950000     -3.0466977E-28
   1.960000     -3.4754393E-28
   1.970000     -3.9339880E-28
   1.980000     -4.4234865E-28
   1.990000     -4.9450813E-28
   2.000000     -5.4999171E-28
   2.010000     -6.0891342E-28
   2.020000     -6.7138577E-28
   2.030000     -7.3751922E-28
   2.040000     -8.0742109E-28
   2.050000     -8.8119442E-28
   2.060000     -9.5893699E-28
   2.070000     -1.0407399E-27
   2.080000     -1.1266865E-27
   2.090000     -1.2168510E-27
   2.100000     -1.3112970E-27
   2.110000     -1.4100771E-27
   2.120000     -1.5132312E-27
   2.130000     -1.6207852E-27
   2.140000     -1.7327511E-27
   2.150000     -1.8491256E-27
   2.160000     -1.9698903E-27
   2.170000     -2.0950104E-27
   2.180000     -2.2244358E-27
   2.190000     -2.3581001E-27
   2.200000     -2.4959212E-27
   2.210000     -2.6378005E-27
   2.220000     -2.7836240E-27
   2.230000     -2.9332622E-27
   2.240000     -3.0865693E-27
   2.250000     -3.2433843E-27
   2.260000     -3.4035288E-27
   2.270000     -3.5668080E-27
   2.280000     -3.7330092E-27
   2.290000     -3.9018990E-27
   2.300000     -4.0732244E-27
   2.310000     -4.2467090E-27
   2.320000     -4.4220526E-27
   2.330000     -4.5989273E-27
   2.340000     -4.7769773E-27
   2.350000     -4.9558141E-27
   2.360000     -5.1350184E-27
   2.370000     -5.3141338E-27
   2.380000     -5.4926663E-27
   2.390000     -5.6700841E-27
   2.400000     -5.8458164E-27
   2.410000     -6.0192506E-27
   2.420000     -6.1897347E-27
   2.430000     -6.3565772E-27
   2.440000     -6.5190471E-27
   2.450000     -6.6763748E-27
   2.460000     -6.8277560E-27
   2.470000     -6.9723533E-27
   2.480000     -7.1092984E-27
   2.490000     -7.2376948E-27
   2.500000     -7.3566202E-27
   2.510000     -7.4651279E-27
   2.520000     -7.5622502E-27
   2.530000     -7.6470004E-27
   2.540000     -7.7183715E-27
   2.550000     -7.7753382E-27
   2.560000     -7.8168581E-27
   2.570000     -7.8418652E-27
   2.580000     -7.8492739E-27
   2.590000     -7.8379756E-27
   2.600000     -7.8068364E-27
   2.610000     -7.7546891E-27
   2.620000     -7.6803336E-27
   2.630000     -7.5825349E-27
   2.640000     -7.4600172E-27
   2.650000     -7.3114649E-27
   2.660000     -7.1355150E-27
   2.670000     -6.9307617E-27
   2.680000     -6.6957528E-27
   2.690000     -6.4289926E-27
   2.700000     -6.1289423E-27
   2.710000     -5.7940235E-27
   2.720000     -5.4226256E-27
   2.730000     -5.0131117E-27
   2.740000     -4.5638203E-27
   2.750000     -4.0730718E-27
   2.760000     -3.5391782E-27
   2.770000     -2.9604488E-27
   2.780000     -2.3351922E-27
   2.790000     -1.6617253E-27
   2.800000     -9.3837614E-28
   2.810000     -1.6348631E-28
   2.820000      6.6458830E-28
   2.830000      1.5474770E-27
   2.840000      2.4867979E-27
   2.850000      3.4841625E-27
   2.860000      4.5411779E-27
   2.870000      5.6594538E-27
   2.880000      6.8406089E-27
   2.890000      8.0862796E-27
   2.900000      9.3981283E-27
   2.910000      1.0777848E-26
   2.920000      1.2227161E-26
   2.930000      1.3747835E-26
   2.940000      1.5341671E-26
   2.950000      1.7010511E-26
   2.960000      1.8756227E-26
   2.970000      2.0580706E-26
   2.980000      2.2485859E-26
   2.990000      2.4473581E-26
   3.000000      2.6545749E-26
   3.010000      2.8704192E-26
   3.020000      3.0950683E-26
   3.030000      3.3286895E-26
   3.040000      3.5714383E-26
   3.050000      3.8234560E-26
   3.060000      4.0848675E-26
   3.070000      4.3557784E-26
   3.080000      4.6362724E-26
   3.090000      4.9264102E-26
   3.100000      5.2262257E-26
   3.110000      5.5357285E-26
   3.120000      5.8548961E-26
   3.130000      6.1836791E-26
   3.140000      6.5219944E-26
   3.150000      6.8697280E-26
   3.160000      7.2267301E-26
   3.170000      7.5928176E-26
   3.180000      7.9677688E-26
   3.190000      8.3513210E-26
   3.200000      8.7431710E-26
   3.210000      9.1429663E-26
   3.220000      9.5503070E-26
   3.230000      9.9647332E-26
   3.240000      1.0385725E-25
   3.250000      1.0812691E-25
   3.260000      1.1244967E-25
   3.270000      1.1681799E-25
   3.280000      1.2122343E-25
   3.290000      1.2565649E-25
   3.300000      1.3010657E-25
   3.310000      1.3456180E-25
   3.320000      1.3900896E-25
   3.330000      1.4343346E-25
   3.340000      1.4781912E-25
   3.350000      1.5214818E-25
   3.360000      1.5640114E-25
   3.370000      1.6055672E-25
   3.380000      1.6459182E-25
   3.390000      1.6848142E-25
   3.400000      1.7219849E-25
   3.410000      1.7571401E-25
   3.420000      1.7899690E-25
   3.430000      1.8201402E-25
   3.440000      1.8473013E-25
   3.450000      1.8710780E-25
   3.460000      1.8910740E-25
   3.470000      1.9068712E-25
   3.480000      1.9180289E-25
   3.490000      1.9240831E-25
   3.500000      1.9245476E-25
   3.510000      1.9189109E-25
   3.520000      1.9066380E-25
   3.530000      1.8871686E-25
   3.540000      1.8599176E-25
   3.550000      1.8242734E-25
   3.560000      1.7795990E-25
   3.570000      1.7252308E-25
   3.580000      1.6604784E-25
   3.590000      1.5846252E-25
   3.600000      1.4969291E-25
   3.610000      1.3966219E-25
   3.620000      1.2829113E-25
   3.630000      1.1549826E-25
   3.640000      1.0120001E-25
   3.650000      8.5310870E-26
   3.660000      6.7743683E-26
   3.670000      4.8410030E-26
   3.680000      2.7220530E-26
   3.690000      4.0852541E-27
   3.700000     -2.1085833E-26
   3.710000     -4.8382411E-26
   3.720000     -7.7893241E-26
   3.730000     -1.0970569E-25
   3.740000     -1.4390514E-25
   3.750000     -1.8057433E-25
   3.760000     -2.1979280E-25
   3.770000     -2.6163629E-25
   3.780000     -3.0617602E-25
   3.790000     -3.5347797E-25
   3.800000     -4.0360217E-25
   3.810000     -4.5660201E-25
   3.820000     -5.1252337E-25
   3.830000     -5.7140395E-25
   3.840000     -6.3327219E-25
   3.850000     -6.9814663E-25
   3.860000     -7.6603472E-25
   3.870000     -8.3693172E-25
   3.880000     -9.1081989E-25
   3.890000     -9.8766726E-25
   3.900000     -1.0674261E-24
   3.910000     -1.1500318E-24
   3.920000     -1.2354016E-24
   3.930000     -1.3234328E-24
   3.940000     -1.4140014E-24
   3.950000     -1.5069607E-24
   3.960000     -1.6021390E-24
   3.970000     -1.6993385E-24
   3.980000     -1.7983335E-24
   3.990000     -1.8988683E-24
   4.000000     -2.0006556E-24
   4.010000     -2.1033751E-24
   4.020000     -2.2066715E-24
   4.030000     -2.3101527E-24
   4.040000     -2.4133884E-24
   4.050000     -2.5159084E-24
   4.060000     -2.6172013E-24
   4.070000     -2.7167125E-24
   4.080000     -2.8138436E-24
   4.090000     -2.9079509E-24
   4.100000     -2.9983447E-24
   4.110000     -3.0842876E-24
   4.120000     -3.1649940E-24
   4.130000     -3.2396283E-24
   4.140000     -3.3073059E-24
   4.150000     -3.3670915E-24
   4.160000     -3.4179982E-24
   4.170000     -3.4589878E-24
   4.180000     -3.4889709E-24
   4.190000     -3.5068054E-24
   4.200000     -3.5112984E-24
   4.210000     -3.5012045E-24
   4.220000     -3.4752285E-24
   4.230000     -3.4320254E-24
   4.240000     -3.3701996E-24
   4.250000     -3.2883091E-24
   4.260000     -3.1848650E-24
   4.270000     -3.0583356E-24
   4.280000     -2.9071469E-24
   4.290000     -2.7296865E-24
   4.300000     -2.5243089E-24
   4.310000     -2.2893382E-24
   4.320000     -2.0230715E-24
   4.330000     -1.7237849E-24
   4.340000     -1.3897429E-24
   4.350000     -1.0191994E-24
   4.360000     -6.1040829E-25
   4.370000     -1.6163077E-25
   4.380000      3.2885614E-25
   4.390000      8.6275075E-25
   4.400000      1.4417171E-24
   4.410000      2.0673745E-24
   4.420000      2.7412847E-24
   4.430000      3.4649422E-24
   4.440000      4.2397602E-24
   4.450000      5.0670595E-24
   4.460000      5.9480534E-24
   4.470000      6.8838322E-24
   4.480000      7.8753507E-24
   4.490000      8.9234108E-24
   4.500000      1.0028647E-23
   4.510000      1.1191507E-23
   4.520000      1.2412235E-23
   4.530000      1.3690850E-23
   4.540000      1.5027133E-23
   4.550000      1.6420599E-23
   4.560000      1.7870486E-23
   4.570000      1.9375721E-23
   4.580000      2.0934909E-23
   4.590000      2.2546303E-23
   4.600000      2.4207782E-23
   4.610000      2.5916832E-23
   4.620000      2.7670514E-23
   4.630000      2.9465438E-23
   4.640000      3.1297747E-23
   4.650000      3.3163085E-23
   4.660000      3.5056565E-23
   4.670000      3.6972762E-23
   4.680000      3.8905667E-23
   4.690000      4.0848669E-23
   4.700000      4.2794546E-23
   4.710000      4.4735415E-23
   4.720000      4.6662732E-23
   4.730000      4.8567253E-23
   4.740000      5.0439022E-23
   4.750000      5.2267355E-23
   4.760000      5.4040803E-23
   4.770000      5.5747153E-23
   4.780000      5.7373418E-23
   4.790000      5.8905809E-23
   4.800000      6.0329709E-23
   4.810000      6.1629720E-23
   4.820000      6.2789586E-23
   4.830000      6.3792259E-23
   4.840000      6.4619844E-23
   4.850000      6.5253640E-23
   4.860000      6.5674116E-23
   4.870000      6.5860956E-23
   4.880000      6.5793032E-23
   4.890000      6.5448445E-23
   4.900000      6.4804551E-23
   4.910000      6.3837976E-23
   4.920000      6.2524642E-23
   4.930000      6.0839806E-23
   4.940000      5.8758115E-23
   4.950000      5.6253659E-23
   4.960000      5.3300031E-23
   4.970000      4.9870379E-23
   4.980000      4.5937485E-23
   4.990000      4.1473816E-23
   5.000000      3.6451650E-23
   5.010000      3.0843152E-23
   5.020000      2.4620483E-23
   5.030000      1.7755918E-23
   5.040000      1.0221949E-23
   5.050000      1.9914066E-24
   5.060000     -6.9623901E-24
   5.070000     -1.6665490E-23
   5.080000     -2.7143142E-23
   5.090000     -3.8419615E-23
   5.100000     -5.0518069E-23
   5.110000     -6.3460319E-23
   5.120000     -7.7266660E-23
   5.130000     -9.1955679E-23
   5.140000     -1.0754402E-22
   5.150000     -1.2404612E-22
   5.160000     -1.4147410E-22
   5.170000     -1.5983739E-22
   5.180000     -1.7914259E-22
   5.190000     -1.9939308E-22
   5.200000     -2.2058891E-22
   5.210000     -2.4272639E-22
   5.220000     -2.6579791E-22
   5.230000     -2.8979150E-22
   5.240000     -3.1469068E-22
   5.250000     -3.4047416E-22
   5.260000     -3.6711537E-22
   5.270000     -3.9458232E-22
   5.280000     -4.2283714E-22
   5.290000     -4.5183585E-22
   5.300000     -4.8152797E-22
   5.310000     -5.1185612E-22
   5.320000     -5.4275594E-22
   5.330000     -5.7415559E-22
   5.340000     -6.0597528E-22
   5.350000     -6.3812733E-22
   5.360000     -6.7051561E-22
   5.370000     -7.0303516E-22
   5.380000     -7.3557208E-22
   5.390000     -7.6800332E-22
   5.400000     -8.0019617E-22
   5.410000     -8.3200799E-22
   5.420000     -8.6328616E-22
   5.430000     -8.9386781E-22
   5.440000     -9.2357947E-22
   5.450000     -9.5223705E-22
   5.460000     -9.7964609E-22
   5.470000     -1.0056009E-21
   5.480000     -1.0298851E-21
   5.490000     -1.0522709E-21
   5.500000     -1.0725197E-21
   5.510000     -1.0903820E-21
   5.520000     -1.1055972E-21
   5.530000     -1.1178941E-21
   5.540000     -1.1269911E-21
   5.550000     -1.1325963E-21
   5.560000     -1.1344073E-21
   5.570000     -1.1321123E-21
   5.580000     -1.1253894E-21
   5.590000     -1.1139086E-21
   5.600000     -1.0973310E-21
   5.610000     -1.0753103E-21
   5.620000     -1.0474928E-21
   5.630000     -1.0135190E-21
   5.640000     -9.7302390E-22
   5.650000     -9.2563772E-22
   5.660000     -8.7098716E-22
   5.670000     -8.0869668E-22
   5.680000     -7.3838931E-22
   5.690000     -6.5968860E-22
   5.700000     -5.7221966E-22
   5.710000     -4.7561022E-22
   5.720000     -3.6949293E-22
   5.730000     -2.5350632E-22
   5.740000     -1.2729701E-22
   5.750000      9.4783492E-24
   5.760000      1.5715077E-22
   5.770000      3.1603732E-22
   5.780000      4.8643910E-22
   5.790000      6.6863830E-22
   5.800000      8.6289579E-22
   5.810000      1.0694486E-21
   5.820000      1.2885076E-21
   5.830000      1.5202541E-21
   5.840000      1.7648383E-21
   5.850000      2.0223750E-21
   5.860000      2.2929418E-21
   5.870000      2.5765745E-21
   5.880000      2.8732654E-21
   5.890000      3.1829587E-21
   5.900000      3.5055486E-21
   5.910000      3.8408750E-21
   5.920000      4.1887198E-21
   5.930000      4.5488035E-21
   5.940000      4.9207819E-21
   5.950000      5.3042432E-21
   5.960000      5.6987025E-21
   5.970000      6.1036001E-21
   5.980000      6.5182963E-21
   5.990000      6.9420697E-21
   6.000000      7.3741116E-21
   6.010000      7.8135254E-21
   6.020000      8.2593176E-21
   6.030000      8.7104001E-21
   6.040000      9.1655853E-21
   6.050000      9.6235840E-21
   6.060000      1.0082999E-20
   6.070000      1.0542325E-20
   6.080000      1.0999944E-20
   6.090000      1.1454124E-20
   6.100000      1.1903019E-20
   6.110000      1.2344662E-20
   6.120000      1.2776968E-20
   6.130000      1.3197729E-20
   6.140000      1.3604617E-20
   6.150000      1.3995182E-20
   6.160000      1.4366846E-20
   6.170000      1.4716911E-20
   6.180000      1.5042552E-20
   6.190000      1.5340825E-20
   6.200000      1.5608664E-20
   6.210000      1.5842884E-20
   6.220000      1.6040189E-20
   6.230000      1.6197164E-20
   6.240000      1.6310291E-20
   6.250000      1.6375940E-20
   6.260000      1.6390382E-20
   6.270000      1.6349798E-20
   6.280000      1.6250275E-20
   6.290000      1.6087823E-20
   6.300000      1.5858380E-20
   6.310000      1.5557818E-20
   6.320000      1.5181955E-20
   6.330000      1.4726566E-20
   6.340000      1.4187395E-20
   6.350000      1.3560162E-20
   6.360000      1.2840586E-20
   6.370000      1.2024388E-20
   6.380000      1.1107318E-20
   6.390000      1.0085161E-20
   6.400000      8.9537495E-21
   6.410000      7.7089962E-21
   6.420000      6.3469144E-21
   6.430000      4.8636213E-21
   6.440000      3.2553638E-21
   6.450000      1.5185495E-21
   6.460000     -3.5023786E-22
   6.470000     -2.3542091E-21
   6.480000     -4.4963470E-21
   6.490000     -6.7793809E-21
   6.500000     -9.2057577E-21
   6.510000     -1.1777615E-20
   6.520000     -1.4496752E-20
   6.530000     -1.7364605E-20
   6.540000     -2.0382220E-20
   6.550000     -2.3550199E-20
   6.560000     -2.6868691E-20
   6.570000     -3.0337353E-20
   6.580000     -3.3955318E-20
   6.590000     -3.7721165E-20
   6.600000     -4.1632882E-20
   6.610000     -4.5687835E-20
   6.620000     -4.9882729E-20
   6.630000     -5.4213572E-20
   6.640000     -5.8675637E-20
   6.650000     -6.3263458E-20
   6.660000     -6.7970756E-20
   6.670000     -7.2790427E-20
   6.680000     -7.7714504E-20
   6.690000     -8.2734140E-20
   6.700000     -8.7839544E-20
   6.710000     -9.3019982E-20
   6.720000     -9.8263732E-20
   6.730000     -1.0355807E-19
   6.740000     -1.0888920E-19
   6.750000     -1.1424230E-19
   6.760000     -1.1960142E-19
   6.770000     -1.2494957E-19
   6.780000     -1.3026853E-19
   6.790000     -1.3553900E-19
   6.800000     -1.4074057E-19
   6.810000     -1.4585161E-19
   6.820000     -1.5084934E-19
   6.830000     -1.5570976E-19
   6.840000     -1.6040774E-19
   6.850000     -1.6491698E-19
   6.860000     -1.6920998E-19
   6.870000     -1.7325811E-19
   6.880000     -1.7703159E-19
   6.890000     -1.8049953E-19
   6.900000     -1.8362995E-19
   6.910000     -1.8638980E-19
   6.920000     -1.8874505E-19
   6.930000     -1.9066069E-19
   6.940000     -1.9210073E-19
   6.950000     -1.9302833E-19
   6.960000     -1.9340581E-19
   6.970000     -1.9319479E-19
   6.980000     -1.9235622E-19
   6.990000     -1.9085046E-19
   7.000000     -1.8863732E-19
   7.010000     -1.8567630E-19
   7.020000     -1.8192658E-19
   7.030000     -1.7734720E-19
   7.040000     -1.7189710E-19
   7.050000     -1.6553532E-19
   7.060000     -1.5822105E-19