  -2.600000      0.0000000E+00
  -2.590000      0.0000000E+00
  -2.580000      0.0000000E+00
  -2.570000      0.0000000E+00
  -2.560000      0.0000000E+00
  -2.550000      0.0000000E+00
  -2.540000      0.0000000E+00
  -2.530000      0.0000000E+00
  -2.520000      0.0000000E+00
  -2.510000      0.0000000E+00
  -2.500000      0.0000000E+00
  -2.490000      0.0000000E+00
  -2.480000      0.0000000E+00
  -2.470000      0.0000000E+00
  -2.460000      0.0000000E+00
  -2.450000      0.0000000E+00
  -2.440000      0.0000000E+00
  -2.430000      0.0000000E+00
  -2.420000      0.0000000E+00
  -2.410000      0.0000000E+00
  -2.400000      0.0000000E+00
  -2.390000      0.0000000E+00
  -2.380000      0.0000000E+00
  -2.370000      0.0000000E+00
  -2.360000      0.0000000E+00
  -2.350000      0.0000000E+00
  -2.340000      0.0000000E+00
  -2.330000      0.0000000E+00
  -2.320000      0.0000000E+00
  -2.310000      0.0000000E+00
  -2.300000      0.0000000E+00
  -2.290000      0.0000000E+00
  -2.280000      0.0000000E+00
  -2.270000      0.0000000E+00
  -2.260000      0.0000000E+00
  -2.250000      0.0000000E+00
  -2.240000      0.0000000E+00
  -2.230000      0.0000000E+00
  -2.220000      0.0000000E+00
  -2.210000      0.0000000E+00
  -2.200000      0.0000000E+00
  -2.190000      0.0000000E+00
  -2.180000      0.0000000E+00
  -2.170000      0.0000000E+00
  -2.160000      0.0000000E+00
  -2.150000      0.0000000E+00
  -2.140000      0.0000000E+00
  -2.130000      0.0000000E+00
  -2.120000      0.0000000E+00
  -2.110000      0.0000000E+00
  -2.100000      0.0000000E+00
  -2.090000      0.0000000E+00
  -2.080000      0.0000000E+00
  -2.070000      0.0000000E+00
  -2.060000      0.0000000E+00
  -2.050000      0.0000000E+00
  -2.040000      0.0000000E+00
  -2.030000      0.0000000E+00
  -2.020000      0.0000000E+00
  -2.010000      0.0000000E+00
  -2.000000      0.0000000E+00
  -1.990000      0.0000000E+00
  -1.980000      0.0000000E+00
  -1.970000      0.0000000E+00
  -1.960000      0.0000000E+00
  -1.950000      0.0000000E+00
  -1.940000      0.0000000E+00
  -1.930000      0.0000000E+00
  -1.920000      0.0000000E+00
  -1.910000      0.0000000E+00
  -1.900000      0.0000000E+00
  -1.890000      0.0000000E+00
  -1.880000      0.0000000E+00
  -1.870000      0.0000000E+00
  -1.860000      0.0000000E+00
  -1.850000      0.0000000E+00
  -1.840000      0.0000000E+00
  -1.830000      0.0000000E+00
  -1.820000      0.0000000E+00
  -1.810000      0.0000000E+00
  -1.800000      0.0000000E+00
  -1.790000      0.0000000E+00
  -1.780000      0.0000000E+00
  -1.770000      0.0000000E+00
  -1.760000      0.0000000E+00
  -1.750000      0.0000000E+00
  -1.740000      0.0000000E+00
  -1.730000      0.0000000E+00
  -1.720000      0.0000000E+00
  -1.710000      0.0000000E+00
  -1.700000      0.0000000E+00
  -1.690000      0.0000000E+00
  -1.680000      0.0000000E+00
  -1.670000      0.0000000E+00
  -1.660000      0.0000000E+00
  -1.650000      0.0000000E+00
  -1.640000      0.0000000E+00
  -1.630000      0.0000000E+00
  -1.620000      0.0000000E+00
  -1.610000      0.0000000E+00
  -1.600000      0.0000000E+00
  -1.590000      0.0000000E+00
  -1.580000      0.0000000E+00
  -1.570000      0.0000000E+00
  -1.560000      0.0000000E+00
  -1.550000      0.0000000E+00
  -1.540000      0.0000000E+00
  -1.530000      0.0000000E+00
  -1.520000      0.0000000E+00
  -1.510000      0.0000000E+00
  -1.500000      0.0000000E+00
  -1.490000      0.0000000E+00
  -1.480000      0.0000000E+00
  -1.470000      0.0000000E+00
  -1.460000      0.0000000E+00
  -1.450000      0.0000000E+00
  -1.440000      0.0000000E+00
  -1.430000      0.0000000E+00
  -1.420000      0.0000000E+00
  -1.410000      0.0000000E+00
  -1.400000      0.0000000E+00
  -1.390000      0.0000000E+00
  -1.380000      0.0000000E+00
  -1.370000      0.0000000E+00
  -1.360000      0.0000000E+00
  -1.350000      0.0000000E+00
  -1.340000      0.0000000E+00
  -1.330000      0.0000000E+00
  -1.320000      0.0000000E+00
  -1.310000      0.0000000E+00
  -1.300000      0.0000000E+00
  -1.290000      0.0000000E+00
  -1.280000      0.0000000E+00
  -1.270000      0.0000000E+00
  -1.260000      0.0000000E+00
  -1.250000      0.0000000E+00
  -1.240000      0.0000000E+00
  -1.230000      0.0000000E+00
  -1.220000      0.0000000E+00
  -1.210000      0.0000000E+00
  -1.200000      0.0000000E+00
  -1.190000      0.0000000E+00
  -1.180000      0.0000000E+00
  -1.170000      0.0000000E+00
  -1.160000      0.0000000E+00
  -1.150000      0.0000000E+00
  -1.140000      0.0000000E+00
  -1.130000      0.0000000E+00
  -1.120000      0.0000000E+00
  -1.110000      0.0000000E+00
  -1.100000      0.0000000E+00
  -1.090000      0.0000000E+00
  -1.080000      0.0000000E+00
  -1.070000      0.0000000E+00
  -1.060000      0.0000000E+00
  -1.050000      0.0000000E+00
  -1.040000      0.0000000E+00
  -1.030000      0.0000000E+00
  -1.020000      0.0000000E+00
  -1.010000      0.0000000E+00
  -1.000000      0.0000000E+00
 -0.9900000      0.0000000E+00
 -0.9800000      0.0000000E+00
 -0.9700000      0.0000000E+00
 -0.9600000      0.0000000E+00
 -0.9500000      0.0000000E+00
 -0.9400000      0.0000000E+00
 -0.9300000      0.0000000E+00
 -0.9200000      0.0000000E+00
 -0.9100000      0.0000000E+00
 -0.9000000      0.0000000E+00
 -0.8900000      0.0000000E+00
 -0.8800000      0.0000000E+00
 -0.8700000      0.0000000E+00
 -0.8600000      0.0000000E+00
 -0.8500000      0.0000000E+00
 -0.8400000      0.0000000E+00
 -0.8300000      0.0000000E+00
 -0.8200000      0.0000000E+00
 -0.8100000      0.0000000E+00
 -0.8000000      0.0000000E+00
 -0.7900000      0.0000000E+00
 -0.7800000      0.0000000E+00
 -0.7700000      0.0000000E+00
 -0.7600000      0.0000000E+00
 -0.7500000      0.0000000E+00
 -0.7400000      0.0000000E+00
 -0.7300000      0.0000000E+00
 -0.7200000      0.0000000E+00
 -0.7100000      0.0000000E+00
 -0.7000000      0.0000000E+00
 -0.6900000      0.0000000E+00
 -0.6800000      0.0000000E+00
 -0.6700000      0.0000000E+00
 -0.6600000      0.0000000E+00
 -0.6500000      0.0000000E+00
 -0.6400000      0.0000000E+00
 -0.6300000      0.0000000E+00
 -0.6200000      0.0000000E+00
 -0.6100000      0.0000000E+00
 -0.6000000      0.0000000E+00
 -0.5900000      0.0000000E+00
 -0.5800000      0.0000000E+00
 -0.5700000      0.0000000E+00
 -0.5600000      0.0000000E+00
 -0.5500000      0.0000000E+00
 -0.5400000      0.0000000E+00
 -0.5300000      0.0000000E+00
 -0.5200000      0.0000000E+00
 -0.5100000      0.0000000E+00
 -0.5000000      0.0000000E+00
 -0.4900000      0.0000000E+00
 -0.4800000      0.0000000E+00
 -0.4700000      0.0000000E+00
 -0.4600000      0.0000000E+00
 -0.4500000      0.0000000E+00
 -0.4400000      0.0000000E+00
 -0.4300000      0.0000000E+00
 -0.4200000      0.0000000E+00
 -0.4100000      0.0000000E+00
 -0.4000000      0.0000000E+00
 -0.3900000      0.0000000E+00
 -0.3800000      0.0000000E+00
 -0.3700000      0.0000000E+00
 -0.3600000      0.0000000E+00
 -0.3500000      0.0000000E+00
 -0.3400000      0.0000000E+00
 -0.3300000      0.0000000E+00
 -0.3200000      0.0000000E+00
 -0.3100000      0.0000000E+00
 -0.3000000      0.0000000E+00
 -0.2900000      0.0000000E+00
 -0.2800000      0.0000000E+00
 -0.2700000      0.0000000E+00
 -0.2600000      0.0000000E+00
 -0.2500000      0.0000000E+00
 -0.2400000      0.0000000E+00
 -0.2300000      0.0000000E+00
 -0.2200000      0.0000000E+00
 -0.2100000      0.0000000E+00
 -0.2000000      0.0000000E+00
 -0.1900000      0.0000000E+00
 -0.1800000      0.0000000E+00
 -0.1700000      0.0000000E+00
 -0.1600000      0.0000000E+00
 -0.1500000      0.0000000E+00
 -0.1400000      0.0000000E+00
 -0.1300000      0.0000000E+00
 -0.1200000      0.0000000E+00
 -0.1100000      0.0000000E+00
 -0.1000000      0.0000000E+00
 -9.0000004E-02  0.0000000E+00
 -7.9999998E-02  0.0000000E+00
 -7.0000000E-02  0.0000000E+00
 -5.9999999E-02  0.0000000E+00
 -5.0000001E-02  0.0000000E+00
 -3.9999999E-02  0.0000000E+00
 -2.9999999E-02  0.0000000E+00
 -2.0000000E-02  0.0000000E+00
 -9.9999998E-03  0.0000000E+00
 -3.4694470E-17  0.0000000E+00
  9.9999998E-03  0.0000000E+00
  2.0000000E-02  0.0000000E+00
  2.9999999E-02  0.0000000E+00
  3.9999999E-02  0.0000000E+00
  5.0000001E-02  0.0000000E+00
  5.9999999E-02  0.0000000E+00
  7.0000000E-02  0.0000000E+00
  7.9999998E-02  0.0000000E+00
  9.0000004E-02  0.0000000E+00
  0.1000000      0.0000000E+00
  0.1100000      0.0000000E+00
  0.1200000      0.0000000E+00
  0.1300000      0.0000000E+00
  0.1400000      0.0000000E+00
  0.1500000      0.0000000E+00
  0.1600000      0.0000000E+00
  0.1700000      0.0000000E+00
  0.1800000      0.0000000E+00
  0.1900000      0.0000000E+00
  0.2000000      0.0000000E+00
  0.2100000      0.0000000E+00
  0.2200000      0.0000000E+00
  0.2300000      0.0000000E+00
  0.2400000      0.0000000E+00
  0.2500000      0.0000000E+00
  0.2600000      0.0000000E+00
  0.2700000      0.0000000E+00
  0.2800000      0.0000000E+00
  0.2900000      0.0000000E+00
  0.3000000      0.0000000E+00
  0.3100000      0.0000000E+00
  0.3200000      0.0000000E+00
  0.3300000      0.0000000E+00
  0.3400000      0.0000000E+00
  0.3500000      0.0000000E+00
  0.3600000      0.0000000E+00
  0.3700000      0.0000000E+00
  0.3800000      0.0000000E+00
  0.3900000      0.0000000E+00
  0.4000000      0.0000000E+00
  0.4100000      0.0000000E+00
  0.4200000      0.0000000E+00
  0.4300000      0.0000000E+00
  0.4400000      0.0000000E+00
  0.4500000      0.0000000E+00
  0.4600000      0.0000000E+00
  0.4700000      0.0000000E+00
  0.4800000      0.0000000E+00
  0.4900000      0.0000000E+00
  0.5000000      0.0000000E+00
  0.5100000      0.0000000E+00
  0.5200000      0.0000000E+00
  0.5300000      0.0000000E+00
  0.5400000      0.0000000E+00
  0.5500000      0.0000000E+00
  0.5600000      0.0000000E+00
  0.5700000      0.0000000E+00
  0.5800000      0.0000000E+00
  0.5900000      0.0000000E+00
  0.6000000      0.0000000E+00
  0.6100000      0.0000000E+00
  0.6200000      0.0000000E+00
  0.6300000      0.0000000E+00
  0.6400000      0.0000000E+00
  0.6500000      0.0000000E+00
  0.6600000      0.0000000E+00
  0.6700000      0.0000000E+00
  0.6800000      0.0000000E+00
  0.6900000      0.0000000E+00
  0.7000000      0.0000000E+00
  0.7100000      0.0000000E+00
  0.7200000      0.0000000E+00
  0.7300000      0.0000000E+00
  0.7400000      0.0000000E+00
  0.7500000      0.0000000E+00
  0.7600000      0.0000000E+00
  0.7700000      0.0000000E+00
  0.7800000      0.0000000E+00
  0.7900000      0.0000000E+00
  0.8000000      0.0000000E+00
  0.8100000      0.0000000E+00
  0.8200000      0.0000000E+00
  0.8300000      0.0000000E+00
  0.8400000      0.0000000E+00
  0.8500000      0.0000000E+00
  0.8600000      0.0000000E+00
  0.8700000      0.0000000E+00
  0.8800000      0.0000000E+00
  0.8900000      0.0000000E+00
  0.9000000      0.0000000E+00
  0.9100000      0.0000000E+00
  0.9200000      0.0000000E+00
  0.9300000      0.0000000E+00
  0.9400000      0.0000000E+00
  0.9500000      0.0000000E+00
  0.9600000      0.0000000E+00
  0.9700000      0.0000000E+00
  0.9800000      0.0000000E+00
  0.9900000      0.0000000E+00
   1.000000      0.0000000E+00
   1.010000      0.0000000E+00
   1.020000      0.0000000E+00
   1.030000      0.0000000E+00
   1.040000      0.0000000E+00
   1.050000      0.0000000E+00
   1.060000      0.0000000E+00
   1.070000      0.0000000E+00
   1.080000      0.0000000E+00
   1.090000      0.0000000E+00
   1.100000      0.0000000E+00
   1.110000      0.0000000E+00
   1.120000      0.0000000E+00
   1.130000      0.0000000E+00
   1.140000      0.0000000E+00
   1.150000      0.0000000E+00
   1.160000      0.0000000E+00
   1.170000      0.0000000E+00
   1.180000      0.0000000E+00
   1.190000      0.0000000E+00
   1.200000      0.0000000E+00
   1.210000      0.0000000E+00
   1.220000      0.0000000E+00
   1.230000      0.0000000E+00
   1.240000      0.0000000E+00
   1.250000      0.0000000E+00
   1.260000      0.0000000E+00
   1.270000      0.0000000E+00
   1.280000      0.0000000E+00
   1.290000      0.0000000E+00
   1.300000      0.0000000E+00
   1.310000      0.0000000E+00
   1.320000      0.0000000E+00
   1.330000      0.0000000E+00
   1.340000      0.0000000E+00
   1.350000      0.0000000E+00
   1.360000      0.0000000E+00
   1.370000      0.0000000E+00
   1.380000      0.0000000E+00
   1.390000      0.0000000E+00
   1.400000      0.0000000E+00
   1.410000      0.0000000E+00
   1.420000      0.0000000E+00
   1.430000      0.0000000E+00
   1.440000      0.0000000E+00
   1.450000      0.0000000E+00
   1.460000      0.0000000E+00
   1.470000      0.0000000E+00
   1.480000      0.0000000E+00
   1.490000      0.0000000E+00
   1.500000      0.0000000E+00
   1.510000      0.0000000E+00
   1.520000      0.0000000E+00
   1.530000      0.0000000E+00
   1.540000      0.0000000E+00
   1.550000      0.0000000E+00
   1.560000      0.0000000E+00
   1.570000      0.0000000E+00
   1.580000      0.0000000E+00
   1.590000      0.0000000E+00
   1.600000      0.0000000E+00
   1.610000      0.0000000E+00
   1.620000      0.0000000E+00
   1.630000      0.0000000E+00
   1.640000      0.0000000E+00
   1.650000      0.0000000E+00
   1.660000      0.0000000E+00
   1.670000      0.0000000E+00
   1.680000      0.0000000E+00
   1.690000      0.0000000E+00
   1.700000      0.0000000E+00
   1.710000      0.0000000E+00
   1.720000      0.0000000E+00
   1.730000      0.0000000E+00
   1.740000      0.0000000E+00
   1.750000      0.0000000E+00
   1.760000      0.0000000E+00
   1.770000      0.0000000E+00
   1.780000      0.0000000E+00
   1.790000      0.0000000E+00
   1.800000      0.0000000E+00
   1.810000      0.0000000E+00
   1.820000      0.0000000E+00
   1.830000      0.0000000E+00
   1.840000      0.0000000E+00
   1.850000      0.0000000E+00
   1.860000      0.0000000E+00
   1.870000      0.0000000E+00
   1.880000      0.0000000E+00
   1.890000      0.0000000E+00
   1.900000      0.0000000E+00
   1.910000      0.0000000E+00
   1.920000      0.0000000E+00
   1.930000      0.0000000E+00
   1.940000      0.0000000E+00
   1.950000      0.0000000E+00
   1.960000      0.0000000E+00
   1.970000      0.0000000E+00
   1.980000      0.0000000E+00
   1.990000      0.0000000E+00
   2.000000      0.0000000E+00
   2.010000      0.0000000E+00
   2.020000      0.0000000E+00
   2.030000      0.0000000E+00
   2.040000      0.0000000E+00
   2.050000      0.0000000E+00
   2.060000      0.0000000E+00
   2.070000      0.0000000E+00
   2.080000      0.0000000E+00
   2.090000      0.0000000E+00
   2.100000      0.0000000E+00
   2.110000      0.0000000E+00
   2.120000      0.0000000E+00
   2.130000      0.0000000E+00
   2.140000      0.0000000E+00
   2.150000      0.0000000E+00
   2.160000      0.0000000E+00
   2.170000      0.0000000E+00
   2.180000      0.0000000E+00
   2.190000      0.0000000E+00
   2.200000      0.0000000E+00
   2.210000      0.0000000E+00
   2.220000      0.0000000E+00
   2.230000      0.0000000E+00
   2.240000      0.0000000E+00
   2.250000      0.0000000E+00
   2.260000      0.0000000E+00
   2.270000      0.0000000E+00
   2.280000      0.0000000E+00
   2.290000      0.0000000E+00
   2.300000      0.0000000E+00
   2.310000      0.0000000E+00
   2.320000      0.0000000E+00
   2.330000      0.0000000E+00
   2.340000      0.0000000E+00
   2.350000      0.0000000E+00
   2.360000      0.0000000E+00
   2.370000      0.0000000E+00
   2.380000      0.0000000E+00
   2.390000      0.0000000E+00
   2.400000      0.0000000E+00
   2.410000      0.0000000E+00
   2.420000      0.0000000E+00
   2.430000      0.0000000E+00
   2.440000      0.0000000E+00
   2.450000      0.0000000E+00
   2.460000      0.0000000E+00
   2.470000      0.0000000E+00
   2.480000      0.0000000E+00
   2.490000      0.0000000E+00
   2.500000      0.0000000E+00
   2.510000      0.0000000E+00
   2.520000      0.0000000E+00
   2.530000      0.0000000E+00
   2.540000      0.0000000E+00
   2.550000      0.0000000E+00
   2.560000      0.0000000E+00
   2.570000      0.0000000E+00
   2.580000      0.0000000E+00
   2.590000      0.0000000E+00
   2.600000      0.0000000E+00
   2.610000      0.0000000E+00
   2.620000      0.0000000E+00
   2.630000      0.0000000E+00
   2.640000      0.0000000E+00
   2.650000      0.0000000E+00
   2.660000      0.0000000E+00
   2.670000      0.0000000E+00
   2.680000      0.0000000E+00
   2.690000      0.0000000E+00
   2.700000      0.0000000E+00
   2.710000      0.0000000E+00
   2.720000      0.0000000E+00
   2.730000      0.0000000E+00
   2.740000      0.0000000E+00
   2.750000      0.0000000E+00
   2.760000      0.0000000E+00
   2.770000      0.0000000E+00
   2.780000      0.0000000E+00
   2.790000      0.0000000E+00
   2.800000      0.0000000E+00
   2.810000      0.0000000E+00
   2.820000      0.0000000E+00
   2.830000      0.0000000E+00
   2.840000      0.0000000E+00
   2.850000      0.0000000E+00
   2.860000      0.0000000E+00
   2.870000      0.0000000E+00
   2.880000      0.0000000E+00
   2.890000      0.0000000E+00
   2.900000      0.0000000E+00
   2.910000      0.0000000E+00
   2.920000      0.0000000E+00
   2.930000      0.0000000E+00
   2.940000      0.0000000E+00
   2.950000      0.0000000E+00
   2.960000      0.0000000E+00
   2.970000      0.0000000E+00
   2.980000      0.0000000E+00
   2.990000      0.0000000E+00
   3.000000      0.0000000E+00
   3.010000      0.0000000E+00
   3.020000      0.0000000E+00
   3.030000      0.0000000E+00
   3.040000      0.0000000E+00
   3.050000      0.0000000E+00
   3.060000      0.0000000E+00
   3.070000      0.0000000E+00
   3.080000      0.0000000E+00
   3.090000      0.0000000E+00
   3.100000      0.0000000E+00
   3.110000      0.0000000E+00
   3.120000      0.0000000E+00
   3.130000      0.0000000E+00
   3.140000      0.0000000E+00
   3.150000      0.0000000E+00
   3.160000      0.0000000E+00
   3.170000      0.0000000E+00
   3.180000      0.0000000E+00
   3.190000      0.0000000E+00
   3.200000      0.0000000E+00
   3.210000      0.0000000E+00
   3.220000      0.0000000E+00
   3.230000      0.0000000E+00
   3.240000      0.0000000E+00
   3.250000      0.0000000E+00
   3.260000      0.0000000E+00
   3.270000      0.0000000E+00
   3.280000      0.0000000E+00
   3.290000      0.0000000E+00
   3.300000      0.0000000E+00
   3.310000      0.0000000E+00
   3.320000      1.4566325E-38
   3.330000      1.7688491E-38
   3.340000      2.0552672E-38
   3.350000      2.3133019E-38
   3.360000      2.5457370E-38
   3.370000      2.7737966E-38
   3.380000      3.0058631E-38
   3.390000      3.2351556E-38
   3.400000      3.4319806E-38
   3.410000      3.6109455E-38
   3.420000      3.8289062E-38
   3.430000      4.0787844E-38
   3.440000      4.3381992E-38
   3.450000      4.5968722E-38
   3.460000      4.7985560E-38
   3.470000      4.9874202E-38
   3.480000      5.1981643E-38
   3.490000      5.3761987E-38
   3.500000      5.4793892E-38
   3.510000      5.5789122E-38
   3.520000      5.7519446E-38
   3.530000      5.9899540E-38
   3.540000      6.2233991E-38
   3.550000      6.4002228E-38
   3.560000      6.5759204E-38
   3.570000      6.7325043E-38
   3.580000      6.8931318E-38
   3.590000      7.0794030E-38
   3.600000      7.2108980E-38
   3.610000      7.2398859E-38
   3.620000      7.1657729E-38
   3.630000      6.9679622E-38
   3.640000      6.6699996E-38
   3.650000      6.2610296E-38
   3.660000      5.5626863E-38
   3.670000      4.5982780E-38
   3.680000      3.4104555E-38
   3.690000      1.8996197E-38
   3.700000      0.0000000E+00
   3.710000     -1.7146706E-38
   3.720000     -3.7075902E-38
   3.730000     -5.9317962E-38
   3.740000     -8.1864148E-38
   3.750000     -1.0533482E-37
   3.760000     -1.3016053E-37
   3.770000     -1.5394304E-37
   3.780000     -1.8192089E-37
   3.790000     -2.1735601E-37
   3.800000     -2.5661873E-37
   3.810000     -2.9838223E-37
   3.820000     -3.5398353E-37
   3.830000     -4.2523615E-37
   3.840000     -4.9889763E-37
   3.850000     -5.7607281E-37
   3.860000     -6.6692991E-37
   3.870000     -7.6949653E-37
   3.880000     -8.7502475E-37
   3.890000     -9.8156523E-37
   3.900000     -1.0613140E-36
   3.910000     -1.1114809E-36
   3.920000     -1.1540165E-36
   3.930000     -1.1857450E-36
   3.940000     -1.2068960E-36
   3.950000     -1.2134052E-36
   3.960000     -1.2010719E-36
   3.970000     -1.1710756E-36
   3.980000     -1.1288692E-36
   3.990000     -1.0724114E-36
   4.000000     -9.9875389E-37
   4.010000     -9.2132876E-37
   4.020000     -8.2830802E-37
   4.030000     -7.1723742E-37
   4.040000     -6.1434490E-37
   4.050000     -5.1666273E-37
   4.060000     -4.1349968E-37
   4.070000     -3.1164598E-37
   4.080000     -2.2592102E-37
   4.090000     -1.5165258E-37
   4.100000     -2.8993263E-38
   4.110000      1.3376835E-37
   4.120000      2.9765714E-37
   4.130000      4.7859011E-37
   4.140000      6.7843361E-37
   4.150000      8.9673802E-37
   4.160000      1.1272473E-36
   4.170000      1.3623286E-36
   4.180000      1.6057117E-36
   4.190000      1.8651246E-36
   4.200000      2.1784034E-36
   4.210000      2.5418227E-36
   4.220000      2.8651791E-36
   4.230000      3.1436176E-36
   4.240000      3.3894853E-36
   4.250000      3.5885793E-36
   4.260000      3.7756306E-36
   4.270000      3.9630138E-36
   4.280000      4.1316040E-36
   4.290000      4.2802103E-36
   4.300000      4.4389867E-36
   4.310000      4.5936133E-36
   4.320000      4.7015950E-36
   4.330000      4.8069547E-36
   4.340000      4.9421835E-36
   4.350000      5.0917057E-36
   4.360000      5.2577185E-36
   4.370000      5.3859653E-36
   4.380000      5.4324660E-36
   4.390000      5.3612138E-36
   4.400000      5.1898886E-36
   4.410000      4.9708725E-36
   4.420000      4.6645085E-36
   4.430000      4.2490132E-36
   4.440000      3.7954771E-36
   4.450000      3.3520254E-36
   4.460000      2.8629276E-36
   4.470000      2.3100688E-36
   4.480000      1.7043043E-36
   4.490000      1.0458348E-36
   4.500000      3.4041140E-37
   4.510000     -4.5440549E-37
   4.520000     -1.3442430E-36
   4.530000     -2.3070564E-36
   4.540000     -3.3563076E-36
   4.550000     -4.5036253E-36
   4.560000     -5.7107258E-36
   4.570000     -6.9660589E-36
   4.580000     -8.3758866E-36
   4.590000     -9.9523124E-36
   4.600000     -1.1690475E-35
   4.610000     -1.3593309E-35
   4.620000     -1.5614385E-35
   4.630000     -1.7725680E-35
   4.640000     -1.9871560E-35
   4.650000     -2.2065260E-35
   4.660000     -2.4294022E-35
   4.670000     -2.6402829E-35
   4.680000     -2.8358721E-35
   4.690000     -3.0248842E-35
   4.700000     -3.1918127E-35
   4.710000     -3.3133547E-35
   4.720000     -3.3938582E-35
   4.730000     -3.4562151E-35
   4.740000     -3.5437774E-35
   4.750000     -3.6451816E-35
   4.760000     -3.7180984E-35
   4.770000     -3.7802346E-35
   4.780000     -3.8752470E-35
   4.790000     -3.9420768E-35
   4.800000     -3.9325061E-35
   4.810000     -3.9027489E-35
   4.820000     -3.8551511E-35
   4.830000     -3.7830551E-35
   4.840000     -3.6756141E-35
   4.850000     -3.5353905E-35
   4.860000     -3.3425302E-35
   4.870000     -3.0823089E-35
   4.880000     -2.8237837E-35
   4.890000     -2.5754085E-35
   4.900000     -2.3502298E-35
   4.910000     -2.1743992E-35
   4.920000     -1.9312127E-35
   4.930000     -1.6016818E-35
   4.940000     -1.0306450E-35
   4.950000      4.9294079E-37
   4.960000      1.5012991E-35
   4.970000      3.1712984E-35
   4.980000      5.0814721E-35
   4.990000      7.3694714E-35
   5.000000      9.8982398E-35
   5.010000      1.2541859E-34
   5.020000      1.5313108E-34
   5.030000      1.8170004E-34
   5.040000      2.1101049E-34
   5.050000      2.3753297E-34
   5.060000      2.6048519E-34
   5.070000      2.7855880E-34
   5.080000      2.9178428E-34
   5.090000      3.0358728E-34
   5.100000      3.1407379E-34
   5.110000      3.2281561E-34
   5.120000      3.3130195E-34
   5.130000      3.4121155E-34
   5.140000      3.5127438E-34
   5.150000      3.6101335E-34
   5.160000      3.6900083E-34
   5.170000      3.7685656E-34
   5.180000      3.8963900E-34
   5.190000      4.0432657E-34
   5.200000      4.1401618E-34
   5.210000      4.1936886E-34
   5.220000      4.2510959E-34
   5.230000      4.3117096E-34
   5.240000      4.3528997E-34
   5.250000      4.3764174E-34
   5.260000      4.3646996E-34
   5.270000      4.3477068E-34
   5.280000      4.3403150E-34
   5.290000      4.3139701E-34
   5.300000      4.2593257E-34
   5.310000      4.1401618E-34
   5.320000      3.9683592E-34
   5.330000      3.7264629E-34
   5.340000      3.3983659E-34
   5.350000      2.9879032E-34
   5.360000      2.4831696E-34
   5.370000      1.8926105E-34
   5.380000      1.2203225E-34
   5.390000      4.6309547E-35
   5.400000     -3.8716554E-35
   5.410000     -1.3045316E-34
   5.420000     -2.3118551E-34
   5.430000     -3.4570970E-34
   5.440000     -4.7034348E-34
   5.450000     -6.0062857E-34
   5.460000     -7.3820021E-34
   5.470000     -8.8372554E-34
   5.480000     -1.0356762E-33
   5.490000     -1.1942644E-33
   5.500000     -1.3584817E-33
   5.510000     -1.5271488E-33
   5.520000     -1.7003590E-33
   5.530000     -1.8774724E-33
   5.540000     -2.0589792E-33
   5.550000     -2.2436966E-33
   5.560000     -2.4285937E-33
   5.570000     -2.6150881E-33
   5.580000     -2.8045725E-33
   5.590000     -2.9959092E-33
   5.600000     -3.1892969E-33
   5.610000     -3.3839437E-33
   5.620000     -3.5764592E-33
   5.630000     -3.7692678E-33
   5.640000     -3.9632284E-33
   5.650000     -4.1555973E-33
   5.660000     -4.3464502E-33
   5.670000     -4.5346744E-33
   5.680000     -4.7193119E-33
   5.690000     -4.8987474E-33
   5.700000     -5.0712020E-33
   5.710000     -5.2350002E-33
   5.720000     -5.3875022E-33
   5.730000     -5.5268251E-33
   5.740000     -5.6499857E-33
   5.750000     -5.7533969E-33
   5.760000     -5.8336262E-33
   5.770000     -5.8896319E-33
   5.780000     -5.9165257E-33
   5.790000     -5.9099025E-33
   5.800000     -5.8689369E-33
   5.810000     -5.7889489E-33
   5.820000     -5.6671428E-33
   5.830000     -5.5009268E-33
   5.840000     -5.2869478E-33
   5.850000     -5.0226912E-33
   5.860000     -4.7058804E-33
   5.870000     -4.3339404E-33
   5.880000     -3.9045393E-33
   5.890000     -3.4156306E-33
   5.900000     -2.8652723E-33
   5.910000     -2.2515230E-33
   5.920000     -1.5725776E-33
   5.930000     -8.2680416E-34
   5.940000     -1.2467558E-35
   5.950000      8.7214729E-34
   5.960000      1.8285037E-33
   5.970000      2.8579399E-33
   5.980000      3.9619005E-33
   5.990000      5.1423426E-33
   6.000000      6.3999246E-33
   6.010000      7.7353332E-33
   6.020000      9.1501604E-33
   6.030000      1.0645641E-32
   6.040000      1.2222771E-32
   6.050000      1.3881829E-32
   6.060000      1.5623321E-32
   6.070000      1.7447372E-32
   6.080000      1.9353843E-32
   6.090000      2.1341979E-32
   6.100000      2.3410174E-32
   6.110000      2.5556564E-32
   6.120000      2.7778401E-32
   6.130000      3.0072108E-32
   6.140000      3.2433317E-32
   6.150000      3.4856476E-32
   6.160000      3.7335017E-32
   6.170000      3.9861586E-32
   6.180000      4.2424893E-32
   6.190000      4.5018178E-32
   6.200000      4.7633623E-32
   6.210000      5.0256768E-32
   6.220000      5.2874864E-32
   6.230000      5.5474405E-32
   6.240000      5.8040398E-32
   6.250000      6.0556920E-32
   6.260000      6.3007532E-32
   6.270000      6.5374848E-32
   6.280000      6.7640625E-32
   6.290000      6.9785538E-32
   6.300000      7.1789527E-32
   6.310000      7.3631691E-32
   6.320000      7.5290325E-32
   6.330000      7.6742883E-32
   6.340000      7.7966026E-32
   6.350000      7.8935592E-32
   6.360000      7.9626600E-32
   6.370000      8.0013273E-32
   6.380000      8.0069003E-32
   6.390000      7.9766361E-32
   6.400000      7.9077092E-32
   6.410000      7.7972145E-32
   6.420000      7.6421668E-32
   6.430000      7.4395004E-32
   6.440000      7.1860779E-32
   6.450000      6.8786897E-32
   6.460000      6.5140637E-32
   6.470000      6.0888768E-32
   6.480000      5.5997624E-32
   6.490000      5.0433263E-32
   6.500000      4.4161633E-32
   6.510000      3.7148760E-32
   6.520000      2.9360987E-32
   6.530000      2.0765205E-32
   6.540000      1.1329085E-32
   6.550000      1.0213824E-33
   6.560000     -1.0187783E-32
   6.570000     -2.2326646E-32
   6.580000     -3.5421489E-32
   6.590000     -4.9496329E-32
   6.600000     -6.4572638E-32
   6.610000     -8.0669035E-32
   6.620000     -9.7800918E-32
   6.630000     -1.1598031E-31
   6.640000     -1.3521548E-31
   6.650000     -1.5551053E-31
   6.660000     -1.7686530E-31
   6.670000     -1.9927495E-31
   6.680000     -2.2272966E-31
   6.690000     -2.4721443E-31
   6.700000     -2.7270862E-31
   6.710000     -2.9918579E-31
   6.720000     -3.2661327E-31
   6.730000     -3.5495195E-31
   6.740000     -3.8415588E-31
   6.750000     -4.1417199E-31
   6.760000     -4.4493966E-31
   6.770000     -4.7639062E-31
   6.780000     -5.0844823E-31
   6.790000     -5.4102753E-31
   6.800000     -5.7403456E-31
   6.810000     -6.0736618E-31
   6.820000     -6.4090980E-31
   6.830000     -6.7454286E-31
   6.840000     -7.0813242E-31
   6.850000     -7.4153513E-31
   6.860000     -7.7459652E-31
   6.870000     -8.0715103E-31
   6.880000     -8.3902179E-31
   6.890000     -8.7001976E-31
   6.900000     -8.9994456E-31
   6.910000     -9.2858336E-31
   6.920000     -9.5571133E-31
   6.930000     -9.8109185E-31
   6.940000     -1.0044758E-30
   6.950000     -1.0256022E-30
   6.960000     -1.0441983E-30
   6.970000     -1.0599798E-30
   6.980000     -1.0726508E-30
   6.990000     -1.0819051E-30
   7.000000     -1.0874254E-30
   7.010000     -1.0888849E-30
   7.020000     -1.0859474E-30
   7.030000     -1.0782680E-30
   7.040000     -1.0654939E-30
   7.050000     -1.0472654E-30
   7.060000     -1.0232164E-30