  -2.600000      0.0000000E+00
  -2.590000      0.0000000E+00
  -2.580000      0.0000000E+00
  -2.570000      0.0000000E+00
  -2.560000      0.0000000E+00
  -2.550000      0.0000000E+00
  -2.540000      0.0000000E+00
  -2.530000      0.0000000E+00
  -2.520000      0.0000000E+00
  -2.510000      0.0000000E+00
  -2.500000      0.0000000E+00
  -2.490000      0.0000000E+00
  -2.480000      0.0000000E+00
  -2.470000      0.0000000E+00
  -2.460000      0.0000000E+00
  -2.450000      0.0000000E+00
  -2.440000      0.0000000E+00
  -2.430000      0.0000000E+00
  -2.420000      0.0000000E+00
  -2.410000      0.0000000E+00
  -2.400000      0.0000000E+00
  -2.390000      0.0000000E+00
  -2.380000      0.0000000E+00
  -2.370000      0.0000000E+00
  -2.360000      0.0000000E+00
  -2.350000      0.0000000E+00
  -2.340000      0.0000000E+00
  -2.330000      0.0000000E+00
  -2.320000      0.0000000E+00
  -2.310000      0.0000000E+00
  -2.300000      0.0000000E+00
  -2.290000      0.0000000E+00
  -2.280000      0.0000000E+00
  -2.270000      0.0000000E+00
  -2.260000      0.0000000E+00
  -2.250000      0.0000000E+00
  -2.240000      0.0000000E+00
  -2.230000      0.0000000E+00
  -2.220000      0.0000000E+00
  -2.210000      0.0000000E+00
  -2.200000      0.0000000E+00
  -2.190000      0.0000000E+00
  -2.180000      0.0000000E+00
  -2.170000      0.0000000E+00
  -2.160000      0.0000000E+00
  -2.150000      0.0000000E+00
  -2.140000      0.0000000E+00
  -2.130000      0.0000000E+00
  -2.120000      0.0000000E+00
  -2.110000      0.0000000E+00
  -2.100000      0.0000000E+00
  -2.090000      0.0000000E+00
  -2.080000      0.0000000E+00
  -2.070000      0.0000000E+00
  -2.060000      0.0000000E+00
  -2.050000      0.0000000E+00
  -2.040000      0.0000000E+00
  -2.030000      0.0000000E+00
  -2.020000      0.0000000E+00
  -2.010000      0.0000000E+00
  -2.000000      0.0000000E+00
  -1.990000      0.0000000E+00
  -1.980000      0.0000000E+00
  -1.970000      0.0000000E+00
  -1.960000      0.0000000E+00
  -1.950000      0.0000000E+00
  -1.940000      0.0000000E+00
  -1.930000      0.0000000E+00
  -1.920000      0.0000000E+00
  -1.910000      0.0000000E+00
  -1.900000      0.0000000E+00
  -1.890000      0.0000000E+00
  -1.880000      0.0000000E+00
  -1.870000      0.0000000E+00
  -1.860000      0.0000000E+00
  -1.850000      0.0000000E+00
  -1.840000      0.0000000E+00
  -1.830000      0.0000000E+00
  -1.820000      0.0000000E+00
  -1.810000      0.0000000E+00
  -1.800000      0.0000000E+00
  -1.790000      0.0000000E+00
  -1.780000      0.0000000E+00
  -1.770000      0.0000000E+00
  -1.760000      0.0000000E+00
  -1.750000      0.0000000E+00
  -1.740000      0.0000000E+00
  -1.730000      0.0000000E+00
  -1.720000      0.0000000E+00
  -1.710000      0.0000000E+00
  -1.700000      0.0000000E+00
  -1.690000      0.0000000E+00
  -1.680000      0.0000000E+00
  -1.670000      0.0000000E+00
  -1.660000      0.0000000E+00
  -1.650000      0.0000000E+00
  -1.640000      0.0000000E+00
  -1.630000      0.0000000E+00
  -1.620000      0.0000000E+00
  -1.610000      0.0000000E+00
  -1.600000      0.0000000E+00
  -1.590000      0.0000000E+00
  -1.580000      0.0000000E+00
  -1.570000      0.0000000E+00
  -1.560000      0.0000000E+00
  -1.550000      0.0000000E+00
  -1.540000      0.0000000E+00
  -1.530000      0.0000000E+00
  -1.520000      0.0000000E+00
  -1.510000      0.0000000E+00
  -1.500000      0.0000000E+00
  -1.490000      0.0000000E+00
  -1.480000      0.0000000E+00
  -1.470000      0.0000000E+00
  -1.460000      0.0000000E+00
  -1.450000      0.0000000E+00
  -1.440000      0.0000000E+00
  -1.430000      0.0000000E+00
  -1.420000      0.0000000E+00
  -1.410000      0.0000000E+00
  -1.400000      0.0000000E+00
  -1.390000      0.0000000E+00
  -1.380000      0.0000000E+00
  -1.370000      0.0000000E+00
  -1.360000      0.0000000E+00
  -1.350000      0.0000000E+00
  -1.340000      0.0000000E+00
  -1.330000      0.0000000E+00
  -1.320000      0.0000000E+00
  -1.310000      0.0000000E+00
  -1.300000      0.0000000E+00
  -1.290000      0.0000000E+00
  -1.280000      0.0000000E+00
  -1.270000      0.0000000E+00
  -1.260000      0.0000000E+00
  -1.250000      0.0000000E+00
  -1.240000      0.0000000E+00
  -1.230000      0.0000000E+00
  -1.220000      0.0000000E+00
  -1.210000      0.0000000E+00
  -1.200000      0.0000000E+00
  -1.190000      0.0000000E+00
  -1.180000      0.0000000E+00
  -1.170000      0.0000000E+00
  -1.160000      0.0000000E+00
  -1.150000      0.0000000E+00
  -1.140000      0.0000000E+00
  -1.130000      0.0000000E+00
  -1.120000      0.0000000E+00
  -1.110000      0.0000000E+00
  -1.100000      0.0000000E+00
  -1.090000      0.0000000E+00
  -1.080000      0.0000000E+00
  -1.070000      0.0000000E+00
  -1.060000      0.0000000E+00
  -1.050000      0.0000000E+00
  -1.040000      0.0000000E+00
  -1.030000      0.0000000E+00
  -1.020000      0.0000000E+00
  -1.010000      0.0000000E+00
  -1.000000      0.0000000E+00
 -0.9900000      0.0000000E+00
 -0.9800000      0.0000000E+00
 -0.9700000      0.0000000E+00
 -0.9600000      0.0000000E+00
 -0.9500000      0.0000000E+00
 -0.9400000      0.0000000E+00
 -0.9300000      0.0000000E+00
 -0.9200000      0.0000000E+00
 -0.9100000      0.0000000E+00
 -0.9000000      0.0000000E+00
 -0.8900000      0.0000000E+00
 -0.8800000      0.0000000E+00
 -0.8700000      0.0000000E+00
 -0.8600000      0.0000000E+00
 -0.8500000      0.0000000E+00
 -0.8400000      0.0000000E+00
 -0.8300000      0.0000000E+00
 -0.8200000      0.0000000E+00
 -0.8100000      0.0000000E+00
 -0.8000000      0.0000000E+00
 -0.7900000      0.0000000E+00
 -0.7800000      0.0000000E+00
 -0.7700000      0.0000000E+00
 -0.7600000      0.0000000E+00
 -0.7500000      0.0000000E+00
 -0.7400000      0.0000000E+00
 -0.7300000      0.0000000E+00
 -0.7200000      0.0000000E+00
 -0.7100000      0.0000000E+00
 -0.7000000      0.0000000E+00
 -0.6900000      0.0000000E+00
 -0.6800000      0.0000000E+00
 -0.6700000      0.0000000E+00
 -0.6600000      0.0000000E+00
 -0.6500000      0.0000000E+00
 -0.6400000      0.0000000E+00
 -0.6300000      0.0000000E+00
 -0.6200000      0.0000000E+00
 -0.6100000      0.0000000E+00
 -0.6000000      0.0000000E+00
 -0.5900000      0.0000000E+00
 -0.5800000      0.0000000E+00
 -0.5700000      0.0000000E+00
 -0.5600000      0.0000000E+00
 -0.5500000      0.0000000E+00
 -0.5400000      0.0000000E+00
 -0.5300000      0.0000000E+00
 -0.5200000      0.0000000E+00
 -0.5100000      0.0000000E+00
 -0.5000000      0.0000000E+00
 -0.4900000      0.0000000E+00
 -0.4800000      0.0000000E+00
 -0.4700000      0.0000000E+00
 -0.4600000      0.0000000E+00
 -0.4500000      0.0000000E+00
 -0.4400000      0.0000000E+00
 -0.4300000      0.0000000E+00
 -0.4200000      0.0000000E+00
 -0.4100000      0.0000000E+00
 -0.4000000      0.0000000E+00
 -0.3900000      0.0000000E+00
 -0.3800000      0.0000000E+00
 -0.3700000      0.0000000E+00
 -0.3600000      0.0000000E+00
 -0.3500000      0.0000000E+00
 -0.3400000      0.0000000E+00
 -0.3300000      0.0000000E+00
 -0.3200000      0.0000000E+00
 -0.3100000      0.0000000E+00
 -0.3000000      0.0000000E+00
 -0.2900000      0.0000000E+00
 -0.2800000      0.0000000E+00
 -0.2700000      0.0000000E+00
 -0.2600000      0.0000000E+00
 -0.2500000      0.0000000E+00
 -0.2400000      0.0000000E+00
 -0.2300000      0.0000000E+00
 -0.2200000      0.0000000E+00
 -0.2100000      0.0000000E+00
 -0.2000000      0.0000000E+00
 -0.1900000      0.0000000E+00
 -0.1800000      0.0000000E+00
 -0.1700000      0.0000000E+00
 -0.1600000      0.0000000E+00
 -0.1500000      0.0000000E+00
 -0.1400000      0.0000000E+00
 -0.1300000      0.0000000E+00
 -0.1200000      0.0000000E+00
 -0.1100000      0.0000000E+00
 -0.1000000      0.0000000E+00
 -9.0000004E-02  0.0000000E+00
 -7.9999998E-02  0.0000000E+00
 -7.0000000E-02  0.0000000E+00
 -5.9999999E-02  0.0000000E+00
 -5.0000001E-02  0.0000000E+00
 -3.9999999E-02  0.0000000E+00
 -2.9999999E-02  0.0000000E+00
 -2.0000000E-02  0.0000000E+00
 -9.9999998E-03  0.0000000E+00
 -3.4694470E-17  0.0000000E+00
  9.9999998E-03  0.0000000E+00
  2.0000000E-02  0.0000000E+00
  2.9999999E-02  0.0000000E+00
  3.9999999E-02  0.0000000E+00
  5.0000001E-02  0.0000000E+00
  5.9999999E-02  0.0000000E+00
  7.0000000E-02  0.0000000E+00
  7.9999998E-02  0.0000000E+00
  9.0000004E-02  0.0000000E+00
  0.1000000      0.0000000E+00
  0.1100000      0.0000000E+00
  0.1200000      0.0000000E+00
  0.1300000      0.0000000E+00
  0.1400000      0.0000000E+00
  0.1500000      0.0000000E+00
  0.1600000      0.0000000E+00
  0.1700000      0.0000000E+00
  0.1800000      0.0000000E+00
  0.1900000      0.0000000E+00
  0.2000000      0.0000000E+00
  0.2100000      0.0000000E+00
  0.2200000      0.0000000E+00
  0.2300000      0.0000000E+00
  0.2400000      0.0000000E+00
  0.2500000      0.0000000E+00
  0.2600000      0.0000000E+00
  0.2700000      0.0000000E+00
  0.2800000      0.0000000E+00
  0.2900000      0.0000000E+00
  0.3000000      0.0000000E+00
  0.3100000      0.0000000E+00
  0.3200000      0.0000000E+00
  0.3300000      0.0000000E+00
  0.3400000      0.0000000E+00
  0.3500000      0.0000000E+00
  0.3600000      0.0000000E+00
  0.3700000      0.0000000E+00
  0.3800000      0.0000000E+00
  0.3900000      0.0000000E+00
  0.4000000      0.0000000E+00
  0.4100000      0.0000000E+00
  0.4200000      0.0000000E+00
  0.4300000      0.0000000E+00
  0.4400000      0.0000000E+00
  0.4500000      0.0000000E+00
  0.4600000      0.0000000E+00
  0.4700000      0.0000000E+00
  0.4800000      0.0000000E+00
  0.4900000      0.0000000E+00
  0.5000000      0.0000000E+00
  0.5100000      0.0000000E+00
  0.5200000      0.0000000E+00
  0.5300000      0.0000000E+00
  0.5400000      0.0000000E+00
  0.5500000      0.0000000E+00
  0.5600000      0.0000000E+00
  0.5700000      0.0000000E+00
  0.5800000      0.0000000E+00
  0.5900000      0.0000000E+00
  0.6000000      0.0000000E+00
  0.6100000      0.0000000E+00
  0.6200000      0.0000000E+00
  0.6300000      0.0000000E+00
  0.6400000      0.0000000E+00
  0.6500000      0.0000000E+00
  0.6600000      0.0000000E+00
  0.6700000      0.0000000E+00
  0.6800000      0.0000000E+00
  0.6900000      0.0000000E+00
  0.7000000      0.0000000E+00
  0.7100000      0.0000000E+00
  0.7200000      0.0000000E+00
  0.7300000      0.0000000E+00
  0.7400000      0.0000000E+00
  0.7500000      0.0000000E+00
  0.7600000      0.0000000E+00
  0.7700000      0.0000000E+00
  0.7800000      0.0000000E+00
  0.7900000      0.0000000E+00
  0.8000000      0.0000000E+00
  0.8100000      0.0000000E+00
  0.8200000      0.0000000E+00
  0.8300000      0.0000000E+00
  0.8400000      0.0000000E+00
  0.8500000      0.0000000E+00
  0.8600000      0.0000000E+00
  0.8700000      0.0000000E+00
  0.8800000      0.0000000E+00
  0.8900000      0.0000000E+00
  0.9000000      0.0000000E+00
  0.9100000      0.0000000E+00
  0.9200000      0.0000000E+00
  0.9300000      0.0000000E+00
  0.9400000      0.0000000E+00
  0.9500000      0.0000000E+00
  0.9600000      0.0000000E+00
  0.9700000      0.0000000E+00
  0.9800000      0.0000000E+00
  0.9900000      0.0000000E+00
   1.000000      0.0000000E+00
   1.010000      0.0000000E+00
   1.020000      0.0000000E+00
   1.030000      0.0000000E+00
   1.040000      0.0000000E+00
   1.050000      0.0000000E+00
   1.060000      0.0000000E+00
   1.070000      0.0000000E+00
   1.080000      0.0000000E+00
   1.090000      0.0000000E+00
   1.100000      0.0000000E+00
   1.110000      0.0000000E+00
   1.120000      0.0000000E+00
   1.130000      0.0000000E+00
   1.140000      0.0000000E+00
   1.150000      0.0000000E+00
   1.160000      0.0000000E+00
   1.170000      0.0000000E+00
   1.180000      0.0000000E+00
   1.190000      0.0000000E+00
   1.200000      0.0000000E+00
   1.210000      0.0000000E+00
   1.220000      0.0000000E+00
   1.230000      0.0000000E+00
   1.240000      0.0000000E+00
   1.250000      0.0000000E+00
   1.260000      0.0000000E+00
   1.270000      0.0000000E+00
   1.280000      0.0000000E+00
   1.290000      0.0000000E+00
   1.300000      0.0000000E+00
   1.310000      0.0000000E+00
   1.320000      0.0000000E+00
   1.330000      0.0000000E+00
   1.340000      0.0000000E+00
   1.350000      0.0000000E+00
   1.360000      0.0000000E+00
   1.370000      0.0000000E+00
   1.380000      0.0000000E+00
   1.390000      0.0000000E+00
   1.400000      0.0000000E+00
   1.410000      0.0000000E+00
   1.420000      0.0000000E+00
   1.430000      0.0000000E+00
   1.440000      0.0000000E+00
   1.450000      0.0000000E+00
   1.460000      0.0000000E+00
   1.470000      0.0000000E+00
   1.480000      0.0000000E+00
   1.490000      0.0000000E+00
   1.500000      0.0000000E+00
   1.510000      0.0000000E+00
   1.520000      0.0000000E+00
   1.530000      0.0000000E+00
   1.540000      0.0000000E+00
   1.550000      0.0000000E+00
   1.560000      0.0000000E+00
   1.570000      0.0000000E+00
   1.580000      0.0000000E+00
   1.590000      0.0000000E+00
   1.600000      0.0000000E+00
   1.610000      0.0000000E+00
   1.620000      0.0000000E+00
   1.630000      0.0000000E+00
   1.640000      0.0000000E+00
   1.650000      0.0000000E+00
   1.660000      0.0000000E+00
   1.670000      0.0000000E+00
   1.680000      0.0000000E+00
   1.690000      0.0000000E+00
   1.700000      0.0000000E+00
   1.710000      0.0000000E+00
   1.720000      0.0000000E+00
   1.730000      0.0000000E+00
   1.740000      0.0000000E+00
   1.750000      0.0000000E+00
   1.760000      0.0000000E+00
   1.770000      0.0000000E+00
   1.780000      0.0000000E+00
   1.790000      0.0000000E+00
   1.800000      0.0000000E+00
   1.810000      0.0000000E+00
   1.820000      0.0000000E+00
   1.830000      0.0000000E+00
   1.840000      0.0000000E+00
   1.850000      0.0000000E+00
   1.860000      0.0000000E+00
   1.870000      0.0000000E+00
   1.880000      0.0000000E+00
   1.890000      0.0000000E+00
   1.900000      0.0000000E+00
   1.910000      0.0000000E+00
   1.920000      0.0000000E+00
   1.930000      0.0000000E+00
   1.940000      0.0000000E+00
   1.950000      0.0000000E+00
   1.960000      0.0000000E+00
   1.970000      0.0000000E+00
   1.980000      0.0000000E+00
   1.990000      0.0000000E+00
   2.000000      0.0000000E+00
   2.010000      0.0000000E+00
   2.020000      0.0000000E+00
   2.030000      0.0000000E+00
   2.040000      0.0000000E+00
   2.050000      0.0000000E+00
   2.060000      0.0000000E+00
   2.070000      0.0000000E+00
   2.080000      0.0000000E+00
   2.090000      0.0000000E+00
   2.100000      0.0000000E+00
   2.110000      0.0000000E+00
   2.120000      0.0000000E+00
   2.130000      0.0000000E+00
   2.140000      0.0000000E+00
   2.150000      0.0000000E+00
   2.160000      0.0000000E+00
   2.170000      0.0000000E+00
   2.180000      0.0000000E+00
   2.190000      0.0000000E+00
   2.200000      0.0000000E+00
   2.210000      0.0000000E+00
   2.220000      0.0000000E+00
   2.230000      0.0000000E+00
   2.240000      0.0000000E+00
   2.250000      0.0000000E+00
   2.260000      0.0000000E+00
   2.270000      0.0000000E+00
   2.280000      0.0000000E+00
   2.290000      0.0000000E+00
   2.300000      0.0000000E+00
   2.310000      0.0000000E+00
   2.320000      0.0000000E+00
   2.330000      0.0000000E+00
   2.340000      0.0000000E+00
   2.350000      0.0000000E+00
   2.360000      0.0000000E+00
   2.370000      0.0000000E+00
   2.380000      0.0000000E+00
   2.390000      0.0000000E+00
   2.400000      0.0000000E+00
   2.410000      0.0000000E+00
   2.420000      0.0000000E+00
   2.430000      0.0000000E+00
   2.440000      0.0000000E+00
   2.450000      0.0000000E+00
   2.460000      0.0000000E+00
   2.470000      0.0000000E+00
   2.480000      0.0000000E+00
   2.490000      0.0000000E+00
   2.500000      0.0000000E+00
   2.510000      0.0000000E+00
   2.520000      0.0000000E+00
   2.530000      0.0000000E+00
   2.540000      0.0000000E+00
   2.550000      0.0000000E+00
   2.560000      0.0000000E+00
   2.570000      0.0000000E+00
   2.580000      0.0000000E+00
   2.590000      0.0000000E+00
   2.600000      0.0000000E+00
   2.610000      0.0000000E+00
   2.620000      0.0000000E+00
   2.630000      0.0000000E+00
   2.640000      0.0000000E+00
   2.650000      0.0000000E+00
   2.660000      0.0000000E+00
   2.670000      0.0000000E+00
   2.680000      0.0000000E+00
   2.690000      0.0000000E+00
   2.700000      0.0000000E+00
   2.710000      0.0000000E+00
   2.720000      0.0000000E+00
   2.730000      0.0000000E+00
   2.740000      0.0000000E+00
   2.750000      0.0000000E+00
   2.760000      0.0000000E+00
   2.770000      0.0000000E+00
   2.780000      0.0000000E+00
   2.790000      0.0000000E+00
   2.800000      0.0000000E+00
   2.810000      0.0000000E+00
   2.820000      0.0000000E+00
   2.830000      0.0000000E+00
   2.840000      0.0000000E+00
   2.850000      0.0000000E+00
   2.860000      0.0000000E+00
   2.870000      0.0000000E+00
   2.880000      0.0000000E+00
   2.890000      0.0000000E+00
   2.900000      0.0000000E+00
   2.910000      0.0000000E+00
   2.920000      0.0000000E+00
   2.930000      0.0000000E+00
   2.940000      0.0000000E+00
   2.950000      0.0000000E+00
   2.960000      0.0000000E+00
   2.970000      0.0000000E+00
   2.980000      0.0000000E+00
   2.990000      0.0000000E+00
   3.000000      0.0000000E+00
   3.010000      0.0000000E+00
   3.020000      0.0000000E+00
   3.030000      0.0000000E+00
   3.040000      0.0000000E+00
   3.050000      0.0000000E+00
   3.060000      0.0000000E+00
   3.070000      0.0000000E+00
   3.080000      0.0000000E+00
   3.090000      0.0000000E+00
   3.100000      0.0000000E+00
   3.110000      0.0000000E+00
   3.120000      0.0000000E+00
   3.130000      0.0000000E+00
   3.140000      0.0000000E+00
   3.150000      0.0000000E+00
   3.160000      0.0000000E+00
   3.170000      0.0000000E+00
   3.180000      0.0000000E+00
   3.190000      0.0000000E+00
   3.200000      0.0000000E+00
   3.210000      0.0000000E+00
   3.220000      0.0000000E+00
   3.230000     -1.3220238E-38
   3.240000     -1.6848348E-38
   3.250000     -2.0252616E-38
   3.260000     -2.3113521E-38
   3.270000     -2.4471789E-38
   3.280000     -2.4755966E-38
   3.290000     -2.5058325E-38
   3.300000     -2.5328083E-38
   3.310000     -2.6665656E-38
   3.320000     -2.9150203E-38
   3.330000     -3.1653460E-38
   3.340000     -3.4280264E-38
   3.350000     -3.6983027E-38
   3.360000     -4.0087643E-38
   3.370000     -4.3403112E-38
   3.380000     -4.6345520E-38
   3.390000     -4.7967506E-38
   3.400000     -4.8408719E-38
   3.410000     -4.8968302E-38
   3.420000     -5.0265994E-38
   3.430000     -5.1099559E-38
   3.440000     -5.1149468E-38
   3.450000     -4.8699892E-38
   3.460000     -4.2432584E-38
   3.470000     -3.5849057E-38
   3.480000     -2.9909062E-38
   3.490000     -2.3934797E-38
   3.500000     -1.9034074E-38
   3.510000     -1.4011539E-38
   3.520000      0.0000000E+00
   3.530000      0.0000000E+00
   3.540000      0.0000000E+00
   3.550000      0.0000000E+00
   3.560000      1.7168829E-38
   3.570000      2.7434408E-38
   3.580000      3.8809990E-38
   3.590000      5.0602676E-38
   3.600000      6.2590179E-38
   3.610000      7.4613364E-38
   3.620000      8.9171998E-38
   3.630000      1.0883911E-37
   3.640000      1.3125929E-37
   3.650000      1.4583563E-37
   3.660000      1.4975202E-37
   3.670000      1.4663095E-37
   3.680000      1.3823482E-37
   3.690000      1.2987927E-37
   3.700000      1.2549332E-37
   3.710000      1.1443077E-37
   3.720000      9.3932668E-38
   3.730000      7.2344034E-38
   3.740000      9.3451132E-38
   3.750000      1.6883814E-37
   3.760000      2.5734380E-37
   3.770000      3.3418399E-37
   3.780000      3.9154136E-37
   3.790000      4.3598117E-37
   3.800000      4.6385544E-37
   3.810000      4.4969977E-37
   3.820000      4.0449967E-37
   3.830000      3.6494399E-37
   3.840000      3.2405415E-37
   3.850000      2.9284039E-37
   3.860000      2.8495205E-37
   3.870000      2.8440083E-37
   3.880000      2.7741577E-37
   3.890000      2.5916311E-37
   3.900000      2.1275655E-37
   3.910000      1.2060623E-37
   3.920000      0.0000000E+00
   3.930000     -1.0061979E-37
   3.940000     -1.9942549E-37
   3.950000     -2.3670276E-37
   3.960000     -2.4243277E-37
   3.970000     -2.7428678E-37
   3.980000     -3.5417422E-37
   3.990000     -4.2643548E-37
   4.000000     -4.4091244E-37
   4.010000     -4.0226548E-37
   4.020000     -3.2289004E-37
   4.030000     -2.5079983E-37
   4.040000     -1.6916135E-37
   4.050000     -8.1436006E-38
   4.060000      0.0000000E+00
   4.070000      8.6280329E-38
   4.080000      1.2734416E-37
   4.090000     -4.7268561E-38
   4.100000     -5.3049097E-37
   4.110000     -1.2214334E-36
   4.120000     -2.0184296E-36
   4.130000     -2.8526815E-36
   4.140000     -3.6521578E-36
   4.150000     -4.2631533E-36
   4.160000     -4.7027838E-36
   4.170000     -5.0980209E-36
   4.180000     -5.4335311E-36
   4.190000     -5.5322489E-36
   4.200000     -5.3332941E-36
   4.210000     -4.9809668E-36
   4.220000     -4.5218550E-36
   4.230000     -3.9576507E-36
   4.240000     -3.3031718E-36
   4.250000     -2.7295635E-36
   4.260000     -2.5221792E-36
   4.270000     -2.7701664E-36
   4.280000     -3.2062125E-36
   4.290000     -3.6725625E-36
   4.300000     -4.4364512E-36
   4.310000     -5.5228070E-36
   4.320000     -6.6806657E-36
   4.330000     -7.7733410E-36
   4.340000     -8.5772287E-36
   4.350000     -9.1566081E-36
   4.360000     -9.2155356E-36
   4.370000     -8.3286838E-36
   4.380000     -6.8587003E-36
   4.390000     -5.0595457E-36
   4.400000     -2.9674341E-36
   4.410000     -7.6604588E-37
   4.420000      1.3916597E-36
   4.430000      3.3869254E-36
   4.440000      4.9260399E-36
   4.450000      5.9374141E-36
   4.460000      6.4785982E-36
   4.470000      6.7006148E-36
   4.480000      6.8398310E-36
   4.490000      6.8037188E-36
   4.500000      6.6955043E-36
   4.510000      6.8605872E-36
   4.520000      7.5122017E-36
   4.530000      8.8301616E-36
   4.540000      1.0809933E-35
   4.550000      1.3360849E-35
   4.560000      1.6422468E-35
   4.570000      1.9949944E-35
   4.580000      2.3995803E-35
   4.590000      2.8412651E-35
   4.600000      3.2462531E-35
   4.610000      3.5649911E-35
   4.620000      3.8286540E-35
   4.630000      4.0543122E-35
   4.640000      4.2664441E-35
   4.650000      4.4916095E-35
   4.660000      4.6985132E-35
   4.670000      4.7872234E-35
   4.680000      4.7566006E-35
   4.690000      4.7164785E-35
   4.700000      4.7015455E-35
   4.710000      4.7267618E-35
   4.720000      4.7666890E-35
   4.730000      4.7636251E-35
   4.740000      4.8422452E-35
   4.750000      5.0460397E-35
   4.760000      5.2644635E-35
   4.770000      5.5085399E-35
   4.780000      5.7240720E-35
   4.790000      5.7676560E-35
   4.800000      5.6431879E-35
   4.810000      5.3811158E-35
   4.820000      4.8083103E-35
   4.830000      4.2121713E-35
   4.840000      4.1526858E-35
   4.850000      3.7889383E-35
   4.860000      2.8231391E-35
   4.870000      2.0147566E-35
   4.880000      1.4794878E-35
   4.890000      1.3295874E-35
   4.900000      2.1627344E-35
   4.910000      3.6268874E-35
   4.920000      4.5796795E-35
   4.930000      4.8663302E-35
   4.940000      4.7849083E-35
   4.950000      3.5741012E-35
   4.960000      9.9587187E-36
   4.970000     -2.1414382E-35
   4.980000     -5.9229263E-35
   4.990000     -1.0265886E-34
   5.000000     -1.4690501E-34
   5.010000     -1.8446292E-34
   5.020000     -2.1020530E-34
   5.030000     -2.3032923E-34
   5.040000     -2.4891414E-34
   5.050000     -2.6030875E-34
   5.060000     -2.7261884E-34
   5.070000     -2.9145822E-34
   5.080000     -3.0859645E-34
   5.090000     -3.2565670E-34
   5.100000     -3.4581352E-34
   5.110000     -3.6848265E-34
   5.120000     -3.9360684E-34
   5.130000     -4.2302644E-34
   5.140000     -4.5809203E-34
   5.150000     -4.9533826E-34
   5.160000     -5.2267539E-34
   5.170000     -5.3236840E-34
   5.180000     -5.3808240E-34
   5.190000     -5.4825249E-34
   5.200000     -5.5812706E-34
   5.210000     -5.6509949E-34
   5.220000     -5.6674541E-34
   5.230000     -5.6709388E-34
   5.240000     -5.7513821E-34
   5.250000     -5.8482194E-34
   5.260000     -5.8973858E-34
   5.270000     -6.0010479E-34
   5.280000     -6.1852198E-34
   5.290000     -6.3123427E-34
   5.300000     -6.3085320E-34
   5.310000     -6.1793575E-34
   5.320000     -5.9234138E-34
   5.330000     -5.6098934E-34
   5.340000     -5.2143010E-34
   5.350000     -4.6935258E-34
   5.360000     -4.0570975E-34
   5.370000     -3.3253693E-34
   5.380000     -2.5275801E-34
   5.390000     -1.6586746E-34
   5.400000     -6.9643816E-35
   5.410000      3.7813266E-35
   5.420000      1.5149909E-34
   5.430000      2.7103072E-34
   5.440000      3.9865509E-34
   5.450000      5.3405936E-34
   5.460000      6.7940947E-34
   5.470000      8.3506687E-34
   5.480000      9.9991471E-34
   5.490000      1.1733875E-33
   5.500000      1.3556075E-33
   5.510000      1.5468244E-33
   5.520000      1.7450853E-33
   5.530000      1.9481778E-33
   5.540000      2.1550830E-33
   5.550000      2.3658324E-33
   5.560000      2.5786539E-33
   5.570000      2.7939146E-33
   5.580000      3.0095045E-33
   5.590000      3.2214419E-33
   5.600000      3.4364912E-33
   5.610000      3.6546784E-33
   5.620000      3.8728880E-33
   5.630000      4.0944786E-33
   5.640000      4.3184614E-33
   5.650000      4.5468764E-33
   5.660000      4.7814867E-33
   5.670000      5.0199446E-33
   5.680000      5.2634824E-33
   5.690000      5.5058433E-33
   5.700000      5.7408797E-33
   5.710000      5.9683272E-33
   5.720000      6.1848591E-33
   5.730000      6.3871948E-33
   5.740000      6.5718399E-33
   5.750000      6.7351418E-33
   5.760000      6.8780077E-33
   5.770000      6.9944573E-33
   5.780000      7.0775325E-33
   5.790000      7.1288024E-33
   5.800000      7.1469535E-33
   5.810000      7.1293049E-33
   5.820000      7.0752821E-33
   5.830000      6.9837354E-33
   5.840000      6.8501294E-33
   5.850000      6.6727664E-33
   5.860000      6.4489420E-33
   5.870000      6.1730123E-33
   5.880000      5.8387337E-33
   5.890000      5.4425752E-33
   5.900000      4.9823346E-33
   5.910000      4.4519644E-33
   5.920000      3.8463207E-33
   5.930000      3.1621977E-33
   5.940000      2.3966794E-33
   5.950000      1.5479889E-33
   5.960000      6.1554472E-34
   5.970000     -4.0201576E-34
   5.980000     -1.5056609E-33
   5.990000     -2.6952868E-33
   6.000000     -3.9714246E-33
   6.010000     -5.3350076E-33
   6.020000     -6.7874359E-33
   6.030000     -8.3305654E-33
   6.040000     -9.9672084E-33
   6.050000     -1.1699871E-32
   6.060000     -1.3531183E-32
   6.070000     -1.5464294E-32
   6.080000     -1.7501405E-32
   6.090000     -1.9643951E-32
   6.100000     -2.1892220E-32
   6.110000     -2.4245029E-32
   6.120000     -2.6699632E-32
   6.130000     -2.9251898E-32
   6.140000     -3.1896290E-32
   6.150000     -3.4625964E-32
   6.160000     -3.7433271E-32
   6.170000     -4.0309949E-32
   6.180000     -4.3247298E-32
   6.190000     -4.6236495E-32
   6.200000     -4.9268727E-32
   6.210000     -5.2335071E-32
   6.220000     -5.5426598E-32
   6.230000     -5.8533765E-32
   6.240000     -6.1646133E-32
   6.250000     -6.4752312E-32
   6.260000     -6.7839560E-32
   6.270000     -7.0893277E-32
   6.280000     -7.3896665E-32
   6.290000     -7.6830881E-32
   6.300000     -7.9674819E-32
   6.310000     -8.2405152E-32
   6.320000     -8.4996787E-32
   6.330000     -8.7423125E-32
   6.340000     -8.9656465E-32
   6.350000     -9.1668358E-32
   6.360000     -9.3429766E-32
   6.370000     -9.4911706E-32
   6.380000     -9.6085090E-32
   6.390000     -9.6920385E-32
   6.400000     -9.7387891E-32
   6.410000     -9.7457304E-32
   6.420000     -9.7097426E-32
   6.430000     -9.6275826E-32
   6.440000     -9.4958532E-32
   6.450000     -9.3109150E-32
   6.460000     -9.0691029E-32
   6.470000     -8.7665794E-32
   6.480000     -8.3992051E-32
   6.490000     -7.9627993E-32
   6.500000     -7.4531208E-32
   6.510000     -6.8659250E-32
   6.520000     -6.1970170E-32
   6.530000     -5.4423108E-32
   6.540000     -4.5978715E-32
   6.550000     -3.6599437E-32
   6.560000     -2.6249694E-32
   6.570000     -1.4895888E-32
   6.580000     -2.5062917E-33
   6.590000      1.0949056E-32
   6.600000      2.5498632E-32
   6.610000      4.1169562E-32
   6.620000      5.7987624E-32
   6.630000      7.5977149E-32
   6.640000      9.5160764E-32
   6.650000      1.1555897E-31
   6.660000      1.3718948E-31
   6.670000      1.6006645E-31
   6.680000      1.8419972E-31
   6.690000      2.0959389E-31
   6.700000      2.3624747E-31
   6.710000      2.6415222E-31
   6.720000      2.9329254E-31
   6.730000      3.2364503E-31
   6.740000      3.5517820E-31
   6.750000      3.8785246E-31
   6.760000      4.2162011E-31
   6.770000      4.5642518E-31
   6.780000      4.9220370E-31
   6.790000      5.2888364E-31
   6.800000      5.6638459E-31
   6.810000      6.0461754E-31
   6.820000      6.4348456E-31
   6.830000      6.8287782E-31
   6.840000      7.2267916E-31
   6.850000      7.6275910E-31
   6.860000      8.0297605E-31
   6.870000      8.4317561E-31
   6.880000      8.8318962E-31
   6.890000      9.2283632E-31
   6.900000      9.6191944E-31
   6.910000      1.0002286E-30
   6.920000      1.0375390E-30
   6.930000      1.0736122E-30
   6.940000      1.1081963E-30
   6.950000      1.1410261E-30
   6.960000      1.1718245E-30
   6.970000      1.2003012E-30
   6.980000      1.2261550E-30
   6.990000      1.2490717E-30
   7.000000      1.2687261E-30
   7.010000      1.2847804E-30
   7.020000      1.2968848E-30
   7.030000      1.3046776E-30
   7.040000      1.3077846E-30
   7.050000      1.3058196E-30
   7.060000      1.2983850E-30