  -2.600000      0.0000000E+00
  -2.590000      0.0000000E+00
  -2.580000      0.0000000E+00
  -2.570000      0.0000000E+00
  -2.560000      0.0000000E+00
  -2.550000      0.0000000E+00
  -2.540000      0.0000000E+00
  -2.530000      0.0000000E+00
  -2.520000      0.0000000E+00
  -2.510000      0.0000000E+00
  -2.500000      0.0000000E+00
  -2.490000      0.0000000E+00
  -2.480000      0.0000000E+00
  -2.470000      0.0000000E+00
  -2.460000      0.0000000E+00
  -2.450000      0.0000000E+00
  -2.440000      0.0000000E+00
  -2.430000      0.0000000E+00
  -2.420000      0.0000000E+00
  -2.410000      0.0000000E+00
  -2.400000      0.0000000E+00
  -2.390000      0.0000000E+00
  -2.380000      0.0000000E+00
  -2.370000      0.0000000E+00
  -2.360000      0.0000000E+00
  -2.350000      0.0000000E+00
  -2.340000      0.0000000E+00
  -2.330000      0.0000000E+00
  -2.320000      0.0000000E+00
  -2.310000      0.0000000E+00
  -2.300000      0.0000000E+00
  -2.290000      0.0000000E+00
  -2.280000      0.0000000E+00
  -2.270000      0.0000000E+00
  -2.260000      0.0000000E+00
  -2.250000      0.0000000E+00
  -2.240000      0.0000000E+00
  -2.230000      0.0000000E+00
  -2.220000      0.0000000E+00
  -2.210000      0.0000000E+00
  -2.200000      0.0000000E+00
  -2.190000      0.0000000E+00
  -2.180000      0.0000000E+00
  -2.170000      0.0000000E+00
  -2.160000      0.0000000E+00
  -2.150000      0.0000000E+00
  -2.140000      0.0000000E+00
  -2.130000      0.0000000E+00
  -2.120000      0.0000000E+00
  -2.110000      0.0000000E+00
  -2.100000      0.0000000E+00
  -2.090000      0.0000000E+00
  -2.080000      0.0000000E+00
  -2.070000      0.0000000E+00
  -2.060000      0.0000000E+00
  -2.050000      0.0000000E+00
  -2.040000      0.0000000E+00
  -2.030000      0.0000000E+00
  -2.020000      0.0000000E+00
  -2.010000      0.0000000E+00
  -2.000000      0.0000000E+00
  -1.990000      0.0000000E+00
  -1.980000      0.0000000E+00
  -1.970000      0.0000000E+00
  -1.960000      0.0000000E+00
  -1.950000      0.0000000E+00
  -1.940000      0.0000000E+00
  -1.930000      0.0000000E+00
  -1.920000      0.0000000E+00
  -1.910000      0.0000000E+00
  -1.900000      0.0000000E+00
  -1.890000      0.0000000E+00
  -1.880000      0.0000000E+00
  -1.870000      0.0000000E+00
  -1.860000      0.0000000E+00
  -1.850000      0.0000000E+00
  -1.840000      0.0000000E+00
  -1.830000      0.0000000E+00
  -1.820000      0.0000000E+00
  -1.810000      0.0000000E+00
  -1.800000      0.0000000E+00
  -1.790000      0.0000000E+00
  -1.780000      0.0000000E+00
  -1.770000      0.0000000E+00
  -1.760000      0.0000000E+00
  -1.750000      0.0000000E+00
  -1.740000      0.0000000E+00
  -1.730000      0.0000000E+00
  -1.720000      0.0000000E+00
  -1.710000      0.0000000E+00
  -1.700000      0.0000000E+00
  -1.690000      0.0000000E+00
  -1.680000      0.0000000E+00
  -1.670000      0.0000000E+00
  -1.660000      0.0000000E+00
  -1.650000      0.0000000E+00
  -1.640000      0.0000000E+00
  -1.630000      0.0000000E+00
  -1.620000      0.0000000E+00
  -1.610000      0.0000000E+00
  -1.600000      0.0000000E+00
  -1.590000      0.0000000E+00
  -1.580000      0.0000000E+00
  -1.570000      0.0000000E+00
  -1.560000      0.0000000E+00
  -1.550000      0.0000000E+00
  -1.540000      0.0000000E+00
  -1.530000      0.0000000E+00
  -1.520000      0.0000000E+00
  -1.510000      0.0000000E+00
  -1.500000      0.0000000E+00
  -1.490000      0.0000000E+00
  -1.480000      0.0000000E+00
  -1.470000      0.0000000E+00
  -1.460000      0.0000000E+00
  -1.450000      0.0000000E+00
  -1.440000      0.0000000E+00
  -1.430000      0.0000000E+00
  -1.420000      0.0000000E+00
  -1.410000      0.0000000E+00
  -1.400000      0.0000000E+00
  -1.390000      0.0000000E+00
  -1.380000      0.0000000E+00
  -1.370000      0.0000000E+00
  -1.360000      0.0000000E+00
  -1.350000      0.0000000E+00
  -1.340000      0.0000000E+00
  -1.330000      0.0000000E+00
  -1.320000      0.0000000E+00
  -1.310000      0.0000000E+00
  -1.300000      0.0000000E+00
  -1.290000      0.0000000E+00
  -1.280000      0.0000000E+00
  -1.270000      0.0000000E+00
  -1.260000      0.0000000E+00
  -1.250000      0.0000000E+00
  -1.240000      0.0000000E+00
  -1.230000      0.0000000E+00
  -1.220000      0.0000000E+00
  -1.210000      0.0000000E+00
  -1.200000      0.0000000E+00
  -1.190000      0.0000000E+00
  -1.180000      0.0000000E+00
  -1.170000      0.0000000E+00
  -1.160000      0.0000000E+00
  -1.150000      0.0000000E+00
  -1.140000      0.0000000E+00
  -1.130000      0.0000000E+00
  -1.120000      0.0000000E+00
  -1.110000      0.0000000E+00
  -1.100000      0.0000000E+00
  -1.090000      0.0000000E+00
  -1.080000      0.0000000E+00
  -1.070000      0.0000000E+00
  -1.060000      0.0000000E+00
  -1.050000      0.0000000E+00
  -1.040000      0.0000000E+00
  -1.030000      0.0000000E+00
  -1.020000      0.0000000E+00
  -1.010000      0.0000000E+00
  -1.000000      0.0000000E+00
 -0.9900000      0.0000000E+00
 -0.9800000      0.0000000E+00
 -0.9700000      0.0000000E+00
 -0.9600000      0.0000000E+00
 -0.9500000      0.0000000E+00
 -0.9400000      0.0000000E+00
 -0.9300000      0.0000000E+00
 -0.9200000      0.0000000E+00
 -0.9100000      0.0000000E+00
 -0.9000000      0.0000000E+00
 -0.8900000      0.0000000E+00
 -0.8800000      0.0000000E+00
 -0.8700000      0.0000000E+00
 -0.8600000      0.0000000E+00
 -0.8500000      0.0000000E+00
 -0.8400000      0.0000000E+00
 -0.8300000      0.0000000E+00
 -0.8200000      0.0000000E+00
 -0.8100000      0.0000000E+00
 -0.8000000      0.0000000E+00
 -0.7900000      0.0000000E+00
 -0.7800000      0.0000000E+00
 -0.7700000      0.0000000E+00
 -0.7600000      0.0000000E+00
 -0.7500000      0.0000000E+00
 -0.7400000      0.0000000E+00
 -0.7300000      0.0000000E+00
 -0.7200000      0.0000000E+00
 -0.7100000      0.0000000E+00
 -0.7000000      0.0000000E+00
 -0.6900000      0.0000000E+00
 -0.6800000      0.0000000E+00
 -0.6700000      0.0000000E+00
 -0.6600000      0.0000000E+00
 -0.6500000      0.0000000E+00
 -0.6400000      0.0000000E+00
 -0.6300000      0.0000000E+00
 -0.6200000      0.0000000E+00
 -0.6100000      0.0000000E+00
 -0.6000000      0.0000000E+00
 -0.5900000      0.0000000E+00
 -0.5800000      0.0000000E+00
 -0.5700000      0.0000000E+00
 -0.5600000      0.0000000E+00
 -0.5500000      0.0000000E+00
 -0.5400000      0.0000000E+00
 -0.5300000      0.0000000E+00
 -0.5200000      0.0000000E+00
 -0.5100000      0.0000000E+00
 -0.5000000      0.0000000E+00
 -0.4900000      0.0000000E+00
 -0.4800000      0.0000000E+00
 -0.4700000      0.0000000E+00
 -0.4600000      0.0000000E+00
 -0.4500000      0.0000000E+00
 -0.4400000      0.0000000E+00
 -0.4300000      0.0000000E+00
 -0.4200000      0.0000000E+00
 -0.4100000      0.0000000E+00
 -0.4000000      0.0000000E+00
 -0.3900000      0.0000000E+00
 -0.3800000      0.0000000E+00
 -0.3700000      0.0000000E+00
 -0.3600000      0.0000000E+00
 -0.3500000      0.0000000E+00
 -0.3400000      0.0000000E+00
 -0.3300000      0.0000000E+00
 -0.3200000      0.0000000E+00
 -0.3100000      0.0000000E+00
 -0.3000000      0.0000000E+00
 -0.2900000      0.0000000E+00
 -0.2800000      0.0000000E+00
 -0.2700000      0.0000000E+00
 -0.2600000      0.0000000E+00
 -0.2500000      0.0000000E+00
 -0.2400000      0.0000000E+00
 -0.2300000      0.0000000E+00
 -0.2200000      0.0000000E+00
 -0.2100000      0.0000000E+00
 -0.2000000      0.0000000E+00
 -0.1900000      0.0000000E+00
 -0.1800000      0.0000000E+00
 -0.1700000      0.0000000E+00
 -0.1600000      0.0000000E+00
 -0.1500000      0.0000000E+00
 -0.1400000      0.0000000E+00
 -0.1300000      0.0000000E+00
 -0.1200000      0.0000000E+00
 -0.1100000      0.0000000E+00
 -0.1000000      0.0000000E+00
 -9.0000004E-02  0.0000000E+00
 -7.9999998E-02  0.0000000E+00
 -7.0000000E-02  0.0000000E+00
 -5.9999999E-02  0.0000000E+00
 -5.0000001E-02  0.0000000E+00
 -3.9999999E-02  0.0000000E+00
 -2.9999999E-02  0.0000000E+00
 -2.0000000E-02  0.0000000E+00
 -9.9999998E-03  0.0000000E+00
 -3.4694470E-17  0.0000000E+00
  9.9999998E-03  0.0000000E+00
  2.0000000E-02  0.0000000E+00
  2.9999999E-02  0.0000000E+00
  3.9999999E-02  0.0000000E+00
  5.0000001E-02  0.0000000E+00
  5.9999999E-02  0.0000000E+00
  7.0000000E-02  0.0000000E+00
  7.9999998E-02  0.0000000E+00
  9.0000004E-02  0.0000000E+00
  0.1000000      0.0000000E+00
  0.1100000      0.0000000E+00
  0.1200000      0.0000000E+00
  0.1300000      0.0000000E+00
  0.1400000      0.0000000E+00
  0.1500000      0.0000000E+00
  0.1600000      0.0000000E+00
  0.1700000      0.0000000E+00
  0.1800000      0.0000000E+00
  0.1900000      0.0000000E+00
  0.2000000      0.0000000E+00
  0.2100000      0.0000000E+00
  0.2200000      0.0000000E+00
  0.2300000      0.0000000E+00
  0.2400000      0.0000000E+00
  0.2500000      0.0000000E+00
  0.2600000      0.0000000E+00
  0.2700000      0.0000000E+00
  0.2800000      0.0000000E+00
  0.2900000      0.0000000E+00
  0.3000000      0.0000000E+00
  0.3100000      0.0000000E+00
  0.3200000      0.0000000E+00
  0.3300000      0.0000000E+00
  0.3400000      0.0000000E+00
  0.3500000      0.0000000E+00
  0.3600000      0.0000000E+00
  0.3700000      0.0000000E+00
  0.3800000      0.0000000E+00
  0.3900000      0.0000000E+00
  0.4000000      0.0000000E+00
  0.4100000      0.0000000E+00
  0.4200000      0.0000000E+00
  0.4300000      0.0000000E+00
  0.4400000      0.0000000E+00
  0.4500000      0.0000000E+00
  0.4600000      0.0000000E+00
  0.4700000      0.0000000E+00
  0.4800000      0.0000000E+00
  0.4900000      0.0000000E+00
  0.5000000      0.0000000E+00
  0.5100000      0.0000000E+00
  0.5200000      0.0000000E+00
  0.5300000      0.0000000E+00
  0.5400000      0.0000000E+00
  0.5500000      0.0000000E+00
  0.5600000      0.0000000E+00
  0.5700000      0.0000000E+00
  0.5800000      0.0000000E+00
  0.5900000      0.0000000E+00
  0.6000000      0.0000000E+00
  0.6100000      0.0000000E+00
  0.6200000      0.0000000E+00
  0.6300000      0.0000000E+00
  0.6400000      0.0000000E+00
  0.6500000      0.0000000E+00
  0.6600000      0.0000000E+00
  0.6700000      0.0000000E+00
  0.6800000      0.0000000E+00
  0.6900000      0.0000000E+00
  0.7000000      0.0000000E+00
  0.7100000      0.0000000E+00
  0.7200000      0.0000000E+00
  0.7300000      0.0000000E+00
  0.7400000      0.0000000E+00
  0.7500000      0.0000000E+00
  0.7600000      0.0000000E+00
  0.7700000      0.0000000E+00
  0.7800000      0.0000000E+00
  0.7900000      0.0000000E+00
  0.8000000      0.0000000E+00
  0.8100000      0.0000000E+00
  0.8200000      0.0000000E+00
  0.8300000      0.0000000E+00
  0.8400000      0.0000000E+00
  0.8500000      0.0000000E+00
  0.8600000      0.0000000E+00
  0.8700000      0.0000000E+00
  0.8800000      0.0000000E+00
  0.8900000      0.0000000E+00
  0.9000000      0.0000000E+00
  0.9100000      0.0000000E+00
  0.9200000      0.0000000E+00
  0.9300000      0.0000000E+00
  0.9400000      0.0000000E+00
  0.9500000      0.0000000E+00
  0.9600000      0.0000000E+00
  0.9700000      0.0000000E+00
  0.9800000      0.0000000E+00
  0.9900000      0.0000000E+00
   1.000000      0.0000000E+00
   1.010000      0.0000000E+00
   1.020000      0.0000000E+00
   1.030000      0.0000000E+00
   1.040000      0.0000000E+00
   1.050000      0.0000000E+00
   1.060000      0.0000000E+00
   1.070000      0.0000000E+00
   1.080000      0.0000000E+00
   1.090000      0.0000000E+00
   1.100000      0.0000000E+00
   1.110000      0.0000000E+00
   1.120000      0.0000000E+00
   1.130000      0.0000000E+00
   1.140000      0.0000000E+00
   1.150000      0.0000000E+00
   1.160000      0.0000000E+00
   1.170000      0.0000000E+00
   1.180000      0.0000000E+00
   1.190000      0.0000000E+00
   1.200000      0.0000000E+00
   1.210000      0.0000000E+00
   1.220000      0.0000000E+00
   1.230000      0.0000000E+00
   1.240000      0.0000000E+00
   1.250000      0.0000000E+00
   1.260000      0.0000000E+00
   1.270000      0.0000000E+00
   1.280000      0.0000000E+00
   1.290000      0.0000000E+00
   1.300000      0.0000000E+00
   1.310000      0.0000000E+00
   1.320000      0.0000000E+00
   1.330000      0.0000000E+00
   1.340000      0.0000000E+00
   1.350000      0.0000000E+00
   1.360000      0.0000000E+00
   1.370000      0.0000000E+00
   1.380000      0.0000000E+00
   1.390000      0.0000000E+00
   1.400000      0.0000000E+00
   1.410000      0.0000000E+00
   1.420000      0.0000000E+00
   1.430000      0.0000000E+00
   1.440000      0.0000000E+00
   1.450000      0.0000000E+00
   1.460000      0.0000000E+00
   1.470000      0.0000000E+00
   1.480000      0.0000000E+00
   1.490000      0.0000000E+00
   1.500000      0.0000000E+00
   1.510000      0.0000000E+00
   1.520000      0.0000000E+00
   1.530000      0.0000000E+00
   1.540000      0.0000000E+00
   1.550000      0.0000000E+00
   1.560000      0.0000000E+00
   1.570000      0.0000000E+00
   1.580000      0.0000000E+00
   1.590000      0.0000000E+00
   1.600000      0.0000000E+00
   1.610000      0.0000000E+00
   1.620000      0.0000000E+00
   1.630000      0.0000000E+00
   1.640000      1.2729032E-38
   1.650000      1.4359793E-38
   1.660000      1.6068624E-38
   1.670000      1.7681779E-38
   1.680000      1.9259027E-38
   1.690000      2.0771883E-38
   1.700000      2.2046197E-38
   1.710000      2.2998099E-38
   1.720000      2.3689735E-38
   1.730000      2.4103449E-38
   1.740000      2.3946697E-38
   1.750000      2.3249798E-38
   1.760000      2.2196027E-38
   1.770000      2.0825740E-38
   1.780000      1.9272992E-38
   1.790000      1.7290459E-38
   1.800000      1.4650348E-38
   1.810000      0.0000000E+00
   1.820000      0.0000000E+00
   1.830000      0.0000000E+00
   1.840000      0.0000000E+00
   1.850000      0.0000000E+00
   1.860000      0.0000000E+00
   1.870000     -1.6205840E-38
   1.880000     -2.3492290E-38
   1.890000     -3.1648006E-38
   1.900000     -4.0265249E-38
   1.910000     -5.0177763E-38
   1.920000     -6.1214485E-38
   1.930000     -7.2582944E-38
   1.940000     -8.3764594E-38
   1.950000     -9.4524319E-38
   1.960000     -1.0496255E-37
   1.970000     -1.1489784E-37
   1.980000     -1.2310081E-37
   1.990000     -1.2879083E-37
   2.000000     -1.3285771E-37
   2.010000     -1.3686863E-37
   2.020000     -1.3971013E-37
   2.030000     -1.3936736E-37
   2.040000     -1.3696400E-37
   2.050000     -1.3632952E-37
   2.060000     -1.3784030E-37
   2.070000     -1.1627764E-37
   2.080000     -6.8366723E-38
   2.090000     -1.2272572E-38
   2.100000      5.4027001E-38
   2.110000      1.2853975E-37
   2.120000      2.0841001E-37
   2.130000      2.9420313E-37
   2.140000      3.8605490E-37
   2.150000      4.8374478E-37
   2.160000      5.8807353E-37
   2.170000      6.8427171E-37
   2.180000      7.5340630E-37
   2.190000      8.0429886E-37
   2.200000      8.4884006E-37
   2.210000      8.8702552E-37
   2.220000      8.9775493E-37
   2.230000      8.7616202E-37
   2.240000      8.3502223E-37
   2.250000      7.7393710E-37
   2.260000      6.7535797E-37
   2.270000      5.4011899E-37
   2.280000      3.8200441E-37
   2.290000      2.0327653E-37
   2.300000      1.3456362E-38
   2.310000     -2.0880598E-37
   2.320000     -4.6282592E-37
   2.330000     -7.2716175E-37
   2.340000     -9.6978912E-37
   2.350000     -1.2038542E-36
   2.360000     -1.4277211E-36
   2.370000     -1.6108791E-36
   2.380000     -1.7715300E-36
   2.390000     -1.9068269E-36
   2.400000     -2.0219376E-36
   2.410000     -2.1352434E-36
   2.420000     -2.2488951E-36
   2.430000     -2.3739027E-36
   2.440000     -2.5109527E-36
   2.450000     -2.6472107E-36
   2.460000     -2.7803055E-36
   2.470000     -2.9197408E-36
   2.480000     -3.0935390E-36
   2.490000     -3.3104802E-36
   2.500000     -3.5335569E-36
   2.510000     -3.7311840E-36
   2.520000     -3.8343946E-36
   2.530000     -3.8168540E-36
   2.540000     -3.7079148E-36
   2.550000     -3.5281443E-36
   2.560000     -3.2653807E-36
   2.570000     -2.9569878E-36
   2.580000     -2.6312667E-36
   2.590000     -2.3085623E-36
   2.600000     -1.9556019E-36
   2.610000     -1.5585999E-36
   2.620000     -1.2328749E-36
   2.630000     -9.5875406E-37
   2.640000     -7.3356365E-37
   2.650000     -4.5822236E-37
   2.660000      1.9236867E-38
   2.670000      7.0801679E-37
   2.680000      1.5716808E-36
   2.690000      2.5882366E-36
   2.700000      3.8050990E-36
   2.710000      5.1466155E-36
   2.720000      6.5600836E-36
   2.730000      8.1600653E-36
   2.740000      9.9965965E-36
   2.750000      1.1853081E-35
   2.760000      1.3697524E-35
   2.770000      1.5285124E-35
   2.780000      1.6899894E-35
   2.790000      1.9065118E-35
   2.800000      2.1535530E-35
   2.810000      2.3643654E-35
   2.820000      2.5202694E-35
   2.830000      2.6770888E-35
   2.840000      2.8362386E-35
   2.850000      2.9811056E-35
   2.860000      3.1073768E-35
   2.870000      3.1989305E-35
   2.880000      3.2559793E-35
   2.890000      3.2738450E-35
   2.900000      3.2485954E-35
   2.910000      3.1850149E-35
   2.920000      3.0867492E-35
   2.930000      2.9697691E-35
   2.940000      2.8100809E-35
   2.950000      2.6013925E-35
   2.960000      2.3558194E-35
   2.970000      2.0661788E-35
   2.980000      1.7142027E-35
   2.990000      1.3012078E-35
   3.000000      8.8395468E-36
   3.010000      4.9437347E-36
   3.020000      9.1308958E-37
   3.030000     -3.7929972E-36
   3.040000     -9.3126926E-36
   3.050000     -1.4833797E-35
   3.060000     -2.0263590E-35
   3.070000     -2.6052183E-35
   3.080000     -3.1761628E-35
   3.090000     -3.8064892E-35
   3.100000     -4.5328021E-35
   3.110000     -5.2696063E-35
   3.120000     -6.0427676E-35
   3.130000     -6.9036364E-35
   3.140000     -7.8374588E-35
   3.150000     -8.8392738E-35
   3.160000     -9.9068942E-35
   3.170000     -1.1009967E-34
   3.180000     -1.2042950E-34
   3.190000     -1.3074780E-34
   3.200000     -1.4061409E-34
   3.210000     -1.4777902E-34
   3.220000     -1.5116364E-34
   3.230000     -1.5246994E-34
   3.240000     -1.5599082E-34
   3.250000     -1.6105284E-34
   3.260000     -1.6464494E-34
   3.270000     -1.6670957E-34
   3.280000     -1.6726230E-34
   3.290000     -1.6784903E-34
   3.300000     -1.6823620E-34
   3.310000     -1.6823628E-34
   3.320000     -1.6873774E-34
   3.330000     -1.6748421E-34
   3.340000     -1.6430720E-34
   3.350000     -1.6020810E-34
   3.360000     -1.5467981E-34
   3.370000     -1.4671114E-34
   3.380000     -1.3558513E-34
   3.390000     -1.2131534E-34
   3.400000     -1.0374336E-34
   3.410000     -8.2272373E-35
   3.420000     -5.8000447E-35
   3.430000     -3.1979287E-35
   3.440000     -3.7589973E-36
   3.450000      2.5640347E-35
   3.460000      5.6419619E-35
   3.470000      8.9872145E-35
   3.480000      1.2637781E-34
   3.490000      1.6642585E-34
   3.500000      2.0968386E-34
   3.510000      2.5397031E-34
   3.520000      2.9840149E-34
   3.530000      3.4309078E-34
   3.540000      3.9078593E-34
   3.550000      4.4179954E-34
   3.560000      4.9346881E-34
   3.570000      5.4811570E-34
   3.580000      6.0277693E-34
   3.590000      6.5332603E-34
   3.600000      7.0201184E-34
   3.610000      7.4988366E-34
   3.620000      7.9607655E-34
   3.630000      8.4024254E-34
   3.640000      8.8161847E-34
   3.650000      9.1968731E-34
   3.660000      9.5402690E-34
   3.670000      9.8522985E-34
   3.680000      1.0134691E-33
   3.690000      1.0360598E-33
   3.700000      1.0530786E-33
   3.710000      1.0668690E-33
   3.720000      1.0763777E-33
   3.730000      1.0783721E-33
   3.740000      1.0726515E-33
   3.750000      1.0609580E-33
   3.760000      1.0426997E-33
   3.770000      1.0159014E-33
   3.780000      9.8173100E-34
   3.790000      9.4030309E-34
   3.800000      8.8523146E-34
   3.810000      8.1685350E-34
   3.820000      7.3794211E-34
   3.830000      6.5073526E-34
   3.840000      5.5445139E-34
   3.850000      4.3844865E-34
   3.860000      3.0380266E-34
   3.870000      1.6046978E-34
   3.880000      4.1404884E-36
   3.890000     -1.7141300E-34
   3.900000     -3.5886683E-34
   3.910000     -5.5965911E-34
   3.920000     -7.7480717E-34
   3.930000     -1.0008383E-33
   3.940000     -1.2398302E-33
   3.950000     -1.4931076E-33
   3.960000     -1.7605081E-33
   3.970000     -2.0391829E-33
   3.980000     -2.3281327E-33
   3.990000     -2.6265990E-33
   4.000000     -2.9327945E-33
   4.010000     -3.2461479E-33
   4.020000     -3.5660524E-33
   4.030000     -3.8900304E-33
   4.040000     -4.2163715E-33
   4.050000     -4.5431960E-33
   4.060000     -4.8687404E-33
   4.070000     -5.1909647E-33
   4.080000     -5.5073093E-33
   4.090000     -5.8147779E-33
   4.100000     -6.1106832E-33
   4.110000     -6.3924411E-33
   4.120000     -6.6585135E-33
   4.130000     -6.9045452E-33
   4.140000     -7.1245574E-33
   4.150000     -7.3178145E-33
   4.160000     -7.4865090E-33
   4.170000     -7.6256655E-33
   4.180000     -7.7290216E-33
   4.190000     -7.7947163E-33
   4.200000     -7.8191291E-33
   4.210000     -7.8006937E-33
   4.220000     -7.7334598E-33
   4.230000     -7.6131288E-33
   4.240000     -7.4385804E-33
   4.250000     -7.2040274E-33
   4.260000     -6.9036871E-33
   4.270000     -6.5340662E-33
   4.280000     -6.0925281E-33
   4.290000     -5.5750971E-33
   4.300000     -4.9779412E-33
   4.310000     -4.2990903E-33
   4.320000     -3.5340837E-33
   4.330000     -2.6766873E-33
   4.340000     -1.7243834E-33
   4.350000     -6.7421089E-34
   4.360000      4.7618289E-34
   4.370000      1.7273184E-33
   4.380000      3.0806307E-33
   4.390000      4.5377116E-33
   4.400000      6.0991766E-33
   4.410000      7.7665558E-33
   4.420000      9.5386532E-33
   4.430000      1.1411455E-32
   4.440000      1.3382054E-32
   4.450000      1.5450615E-32
   4.460000      1.7615563E-32
   4.470000      1.9870511E-32
   4.480000      2.2211737E-32
   4.490000      2.4635867E-32
   4.500000      2.7134885E-32
   4.510000      2.9700616E-32
   4.520000      3.2325407E-32
   4.530000      3.5000427E-32
   4.540000      3.7716227E-32
   4.550000      4.0462202E-32
   4.560000      4.3226827E-32
   4.570000      4.5997270E-32
   4.580000      4.8759850E-32
   4.590000      5.1500247E-32
   4.600000      5.4202650E-32
   4.610000      5.6850304E-32
   4.620000      5.9424590E-32
   4.630000      6.1905829E-32
   4.640000      6.4274139E-32
   4.650000      6.6507942E-32
   4.660000      6.8584565E-32
   4.670000      7.0480008E-32
   4.680000      7.2169199E-32
   4.690000      7.3625796E-32
   4.700000      7.4822467E-32
   4.710000      7.5731147E-32
   4.720000      7.6322062E-32
   4.730000      7.6564579E-32
   4.740000      7.6427704E-32
   4.750000      7.5879377E-32
   4.760000      7.4886590E-32
   4.770000      7.3416417E-32
   4.780000      7.1435444E-32
   4.790000      6.8909448E-32
   4.800000      6.5804385E-32
   4.810000      6.2087872E-32
   4.820000      5.7724161E-32
   4.830000      5.2677840E-32
   4.840000      4.6917709E-32
   4.850000      4.0410375E-32
   4.860000      3.3125604E-32
   4.870000      2.5032893E-32
   4.880000      1.6103619E-32
   4.890000      6.3117266E-33
   4.900000     -4.3701060E-33
   4.910000     -1.5965535E-32
   4.920000     -2.8496028E-32
   4.930000     -4.1980803E-32
   4.940000     -5.6436483E-32
   4.950000     -7.1876713E-32
   4.960000     -8.8311676E-32
   4.970000     -1.0574804E-31
   4.980000     -1.2418862E-31
   4.990000     -1.4363208E-31
   5.000000     -1.6407249E-31
   5.010000     -1.8549764E-31
   5.020000     -2.0789288E-31
   5.030000     -2.3123808E-31
   5.040000     -2.5550407E-31
   5.050000     -2.8065659E-31
   5.060000     -3.0665502E-31
   5.070000     -3.3345142E-31
   5.080000     -3.6099032E-31
   5.090000     -3.8920830E-31
   5.100000     -4.1803377E-31
   5.110000     -4.4738624E-31
   5.120000     -4.7717623E-31
   5.130000     -5.0730499E-31
   5.140000     -5.3766392E-31
   5.150000     -5.6813452E-31
   5.160000     -5.9858773E-31
   5.170000     -6.2888398E-31
   5.180000     -6.5887281E-31
   5.190000     -6.8839277E-31
   5.200000     -7.1727100E-31
   5.210000     -7.4532332E-31
   5.220000     -7.7235405E-31
   5.230000     -7.9815596E-31
   5.240000     -8.2251004E-31
   5.250000     -8.4518589E-31
   5.260000     -8.6594146E-31
   5.270000     -8.8452320E-31
   5.280000     -9.0066631E-31
   5.290000     -9.1409497E-31
   5.300000     -9.2452226E-31
   5.310000     -9.3165112E-31
   5.320000     -9.3517384E-31
   5.330000     -9.3477342E-31
   5.340000     -9.3012354E-31
   5.350000     -9.2088942E-31
   5.360000     -9.0672829E-31
   5.370000     -8.8729041E-31
   5.380000     -8.6222012E-31
   5.390000     -8.3115641E-31
   5.400000     -7.9373422E-31
   5.410000     -7.4958552E-31
   5.420000     -6.9834093E-31
   5.430000     -6.3963058E-31
   5.440000     -5.7308641E-31
   5.450000     -4.9834349E-31
   5.460000     -4.1504148E-31
   5.470000     -3.2282681E-31
   5.480000     -2.2135476E-31
   5.490000     -1.1029183E-31
   5.500000      1.0682342E-32
   5.510000      1.4187245E-31
   5.520000      2.8356460E-31
   5.530000      4.3602386E-31
   5.540000      5.9949140E-31
   5.550000      7.7418143E-31
   5.560000      9.6027854E-31
   5.570000      1.1579336E-30
   5.580000      1.3672614E-30
   5.590000      1.5883366E-30
   5.600000      1.8211904E-30
   5.610000      2.0658064E-30
   5.620000      2.3221180E-30
   5.630000      2.5900039E-30
   5.640000      2.8692843E-30
   5.650000      3.1597164E-30
   5.660000      3.4609917E-30
   5.670000      3.7727309E-30
   5.680000      4.0944808E-30
   5.690000      4.4257095E-30
   5.700000      4.7658020E-30
   5.710000      5.1140572E-30
   5.720000      5.4696835E-30
   5.730000      5.8317949E-30
   5.740000      6.1994071E-30
   5.750000      6.5714325E-30
   5.760000      6.9466796E-30
   5.770000      7.3238459E-30
   5.780000      7.7015170E-30
   5.790000      8.0781627E-30
   5.800000      8.4521339E-30
   5.810000      8.8216589E-30
   5.820000      9.1848457E-30
   5.830000      9.5396734E-30
   5.840000      9.8839943E-30
   5.850000      1.0215534E-29
   5.860000      1.0531886E-29
   5.870000      1.0830517E-29
   5.880000      1.1108761E-29
   5.890000      1.1363822E-29
   5.900000      1.1592781E-29
   5.910000      1.1792589E-29
   5.920000      1.1960074E-29
   5.930000      1.2091946E-29
   5.940000      1.2184797E-29
   5.950000      1.2235107E-29
   5.960000      1.2239253E-29
   5.970000      1.2193510E-29
   5.980000      1.2094061E-29
   5.990000      1.1937009E-29
   6.000000      1.1718377E-29
   6.010000      1.1434129E-29
   6.020000      1.1080174E-29
   6.030000      1.0652383E-29
   6.040000      1.0146600E-29
   6.050000      9.5586559E-30
   6.060000      8.8843863E-30
   6.070000      8.1196477E-30
   6.080000      7.2603376E-30
   6.090000      6.3024105E-30
   6.100000      5.2419017E-30
   6.110000      4.0749477E-30
   6.120000      2.7978075E-30
   6.130000      1.4068904E-30
   6.140000     -1.0122041E-31
   6.150000     -1.7297396E-30
   6.160000     -3.4816503E-30
   6.170000     -5.3596798E-30
   6.180000     -7.3662660E-30
   6.190000     -9.5035231E-30
   6.200000     -1.1773223E-29
   6.210000     -1.4176739E-29
   6.220000     -1.6715023E-29
   6.230000     -1.9388571E-29
   6.240000     -2.2197391E-29
   6.250000     -2.5140953E-29
   6.260000     -2.8218166E-29
   6.270000     -3.1427325E-29
   6.280000     -3.4766075E-29
   6.290000     -3.8231383E-29
   6.300000     -4.1819480E-29
   6.310000     -4.5525845E-29
   6.320000     -4.9345148E-29
   6.330000     -5.3271216E-29
   6.340000     -5.7296982E-29
   6.350000     -6.1414475E-29
   6.360000     -6.5614754E-29
   6.370000     -6.9887899E-29
   6.380000     -7.4222933E-29
   6.390000     -7.8607836E-29
   6.400000     -8.3029476E-29
   6.410000     -8.7473595E-29
   6.420000     -9.1924799E-29
   6.430000     -9.6366505E-29
   6.440000     -1.0078090E-28
   6.450000     -1.0514897E-28
   6.460000     -1.0945045E-28
   6.470000     -1.1366384E-28
   6.480000     -1.1776634E-28
   6.490000     -1.2173390E-28
   6.500000     -1.2554123E-28
   6.510000     -1.2916169E-28
   6.520000     -1.3256748E-28
   6.530000     -1.3572948E-28
   6.540000     -1.3861738E-28
   6.550000     -1.4119966E-28
   6.560000     -1.4344364E-28
   6.570000     -1.4531551E-28
   6.580000     -1.4678038E-28
   6.590000     -1.4780234E-28
   6.600000     -1.4834449E-28
   6.610000     -1.4836906E-28
   6.620000     -1.4783739E-28
   6.630000     -1.4671019E-28
   6.640000     -1.4494746E-28
   6.650000     -1.4250868E-28
   6.660000     -1.3935292E-28
   6.670000     -1.3543890E-28
   6.680000     -1.3072523E-28
   6.690000     -1.2517042E-28
   6.700000     -1.1873320E-28
   6.710000     -1.1137248E-28
   6.720000     -1.0304770E-28
   6.730000     -9.3718911E-29
   6.740000     -8.3347026E-29
   6.750000     -7.1893972E-29
   6.760000     -5.9322946E-29
   6.770000     -4.5598597E-29
   6.780000     -3.0687286E-29
   6.790000     -1.4557361E-29
   6.800000      2.8206683E-30
   6.810000      2.1473819E-29
   6.820000      4.1426356E-29
   6.830000      6.2699480E-29
   6.840000      8.5311095E-29
   6.850000      1.0927554E-28
   6.860000      1.3460322E-28
   6.870000      1.6130027E-28
   6.880000      1.8936837E-28
   6.890000      2.1880435E-28
   6.900000      2.4959985E-28
   6.910000      2.8174092E-28
   6.920000      3.1520781E-28
   6.930000      3.4997465E-28
   6.940000      3.8600906E-28
   6.950000      4.2327183E-28
   6.960000      4.6171662E-28
   6.970000      5.0128942E-28
   6.980000      5.4192871E-28
   6.990000      5.8356467E-28
   7.000000      6.2611905E-28
   7.010000      6.6950501E-28
   7.020000      7.1362662E-28
   7.030000      7.5837868E-28
   7.040000      8.0364637E-28
   7.050000      8.4930525E-28
   7.060000      8.9522106E-28