  -2.600000      0.0000000E+00
  -2.590000      0.0000000E+00
  -2.580000      0.0000000E+00
  -2.570000      0.0000000E+00
  -2.560000      0.0000000E+00
  -2.550000      0.0000000E+00
  -2.540000      0.0000000E+00
  -2.530000      0.0000000E+00
  -2.520000      0.0000000E+00
  -2.510000      0.0000000E+00
  -2.500000      0.0000000E+00
  -2.490000      0.0000000E+00
  -2.480000      0.0000000E+00
  -2.470000      0.0000000E+00
  -2.460000      0.0000000E+00
  -2.450000      0.0000000E+00
  -2.440000      0.0000000E+00
  -2.430000      0.0000000E+00
  -2.420000      0.0000000E+00
  -2.410000      0.0000000E+00
  -2.400000      0.0000000E+00
  -2.390000      0.0000000E+00
  -2.380000      0.0000000E+00
  -2.370000      0.0000000E+00
  -2.360000      0.0000000E+00
  -2.350000      0.0000000E+00
  -2.340000      0.0000000E+00
  -2.330000      0.0000000E+00
  -2.320000      0.0000000E+00
  -2.310000      0.0000000E+00
  -2.300000      0.0000000E+00
  -2.290000      0.0000000E+00
  -2.280000      0.0000000E+00
  -2.270000      0.0000000E+00
  -2.260000      0.0000000E+00
  -2.250000      0.0000000E+00
  -2.240000      0.0000000E+00
  -2.230000      0.0000000E+00
  -2.220000      0.0000000E+00
  -2.210000      0.0000000E+00
  -2.200000      0.0000000E+00
  -2.190000      0.0000000E+00
  -2.180000      0.0000000E+00
  -2.170000      0.0000000E+00
  -2.160000      0.0000000E+00
  -2.150000      0.0000000E+00
  -2.140000      0.0000000E+00
  -2.130000      0.0000000E+00
  -2.120000      0.0000000E+00
  -2.110000      0.0000000E+00
  -2.100000      0.0000000E+00
  -2.090000      0.0000000E+00
  -2.080000      0.0000000E+00
  -2.070000      0.0000000E+00
  -2.060000      0.0000000E+00
  -2.050000      0.0000000E+00
  -2.040000      0.0000000E+00
  -2.030000      0.0000000E+00
  -2.020000      0.0000000E+00
  -2.010000      0.0000000E+00
  -2.000000      0.0000000E+00
  -1.990000      0.0000000E+00
  -1.980000      0.0000000E+00
  -1.970000      0.0000000E+00
  -1.960000      0.0000000E+00
  -1.950000      0.0000000E+00
  -1.940000      0.0000000E+00
  -1.930000      0.0000000E+00
  -1.920000      0.0000000E+00
  -1.910000      0.0000000E+00
  -1.900000      0.0000000E+00
  -1.890000      0.0000000E+00
  -1.880000      0.0000000E+00
  -1.870000      0.0000000E+00
  -1.860000      0.0000000E+00
  -1.850000      0.0000000E+00
  -1.840000      0.0000000E+00
  -1.830000      0.0000000E+00
  -1.820000      0.0000000E+00
  -1.810000      0.0000000E+00
  -1.800000      0.0000000E+00
  -1.790000      0.0000000E+00
  -1.780000      0.0000000E+00
  -1.770000      0.0000000E+00
  -1.760000      0.0000000E+00
  -1.750000      0.0000000E+00
  -1.740000      0.0000000E+00
  -1.730000      0.0000000E+00
  -1.720000      0.0000000E+00
  -1.710000      0.0000000E+00
  -1.700000      0.0000000E+00
  -1.690000      0.0000000E+00
  -1.680000      0.0000000E+00
  -1.670000      0.0000000E+00
  -1.660000      0.0000000E+00
  -1.650000      0.0000000E+00
  -1.640000      0.0000000E+00
  -1.630000      0.0000000E+00
  -1.620000      0.0000000E+00
  -1.610000      0.0000000E+00
  -1.600000      0.0000000E+00
  -1.590000      0.0000000E+00
  -1.580000      0.0000000E+00
  -1.570000      0.0000000E+00
  -1.560000      0.0000000E+00
  -1.550000      0.0000000E+00
  -1.540000      0.0000000E+00
  -1.530000      0.0000000E+00
  -1.520000      0.0000000E+00
  -1.510000      0.0000000E+00
  -1.500000      0.0000000E+00
  -1.490000      0.0000000E+00
  -1.480000      0.0000000E+00
  -1.470000      0.0000000E+00
  -1.460000      0.0000000E+00
  -1.450000      0.0000000E+00
  -1.440000      0.0000000E+00
  -1.430000      0.0000000E+00
  -1.420000      0.0000000E+00
  -1.410000      0.0000000E+00
  -1.400000      0.0000000E+00
  -1.390000      0.0000000E+00
  -1.380000      0.0000000E+00
  -1.370000      0.0000000E+00
  -1.360000      0.0000000E+00
  -1.350000      0.0000000E+00
  -1.340000      0.0000000E+00
  -1.330000      0.0000000E+00
  -1.320000      0.0000000E+00
  -1.310000      0.0000000E+00
  -1.300000      0.0000000E+00
  -1.290000      0.0000000E+00
  -1.280000      0.0000000E+00
  -1.270000      0.0000000E+00
  -1.260000      0.0000000E+00
  -1.250000      0.0000000E+00
  -1.240000      0.0000000E+00
  -1.230000      0.0000000E+00
  -1.220000      0.0000000E+00
  -1.210000      0.0000000E+00
  -1.200000      0.0000000E+00
  -1.190000      0.0000000E+00
  -1.180000      0.0000000E+00
  -1.170000      0.0000000E+00
  -1.160000      0.0000000E+00
  -1.150000      0.0000000E+00
  -1.140000      0.0000000E+00
  -1.130000      0.0000000E+00
  -1.120000      0.0000000E+00
  -1.110000      0.0000000E+00
  -1.100000      0.0000000E+00
  -1.090000      0.0000000E+00
  -1.080000      0.0000000E+00
  -1.070000      0.0000000E+00
  -1.060000      0.0000000E+00
  -1.050000      0.0000000E+00
  -1.040000      0.0000000E+00
  -1.030000      0.0000000E+00
  -1.020000      0.0000000E+00
  -1.010000      0.0000000E+00
  -1.000000      0.0000000E+00
 -0.9900000      0.0000000E+00
 -0.9800000      0.0000000E+00
 -0.9700000      0.0000000E+00
 -0.9600000      0.0000000E+00
 -0.9500000      0.0000000E+00
 -0.9400000      0.0000000E+00
 -0.9300000      0.0000000E+00
 -0.9200000      0.0000000E+00
 -0.9100000      0.0000000E+00
 -0.9000000      0.0000000E+00
 -0.8900000      0.0000000E+00
 -0.8800000      0.0000000E+00
 -0.8700000      0.0000000E+00
 -0.8600000      0.0000000E+00
 -0.8500000      0.0000000E+00
 -0.8400000      0.0000000E+00
 -0.8300000      0.0000000E+00
 -0.8200000      0.0000000E+00
 -0.8100000      0.0000000E+00
 -0.8000000      0.0000000E+00
 -0.7900000      0.0000000E+00
 -0.7800000      0.0000000E+00
 -0.7700000      0.0000000E+00
 -0.7600000      0.0000000E+00
 -0.7500000      0.0000000E+00
 -0.7400000      0.0000000E+00
 -0.7300000      0.0000000E+00
 -0.7200000      0.0000000E+00
 -0.7100000      0.0000000E+00
 -0.7000000      0.0000000E+00
 -0.6900000      0.0000000E+00
 -0.6800000      0.0000000E+00
 -0.6700000      0.0000000E+00
 -0.6600000      0.0000000E+00
 -0.6500000      0.0000000E+00
 -0.6400000      0.0000000E+00
 -0.6300000      0.0000000E+00
 -0.6200000      0.0000000E+00
 -0.6100000      0.0000000E+00
 -0.6000000      0.0000000E+00
 -0.5900000      0.0000000E+00
 -0.5800000      0.0000000E+00
 -0.5700000      0.0000000E+00
 -0.5600000      0.0000000E+00
 -0.5500000      0.0000000E+00
 -0.5400000      0.0000000E+00
 -0.5300000      0.0000000E+00
 -0.5200000      0.0000000E+00
 -0.5100000      0.0000000E+00
 -0.5000000      0.0000000E+00
 -0.4900000      0.0000000E+00
 -0.4800000      0.0000000E+00
 -0.4700000      0.0000000E+00
 -0.4600000      0.0000000E+00
 -0.4500000      0.0000000E+00
 -0.4400000      0.0000000E+00
 -0.4300000      0.0000000E+00
 -0.4200000      0.0000000E+00
 -0.4100000      0.0000000E+00
 -0.4000000      0.0000000E+00
 -0.3900000      0.0000000E+00
 -0.3800000      0.0000000E+00
 -0.3700000      0.0000000E+00
 -0.3600000      0.0000000E+00
 -0.3500000      0.0000000E+00
 -0.3400000      0.0000000E+00
 -0.3300000      0.0000000E+00
 -0.3200000      0.0000000E+00
 -0.3100000      0.0000000E+00
 -0.3000000      0.0000000E+00
 -0.2900000      0.0000000E+00
 -0.2800000      0.0000000E+00
 -0.2700000      0.0000000E+00
 -0.2600000      0.0000000E+00
 -0.2500000      0.0000000E+00
 -0.2400000      0.0000000E+00
 -0.2300000      0.0000000E+00
 -0.2200000      0.0000000E+00
 -0.2100000      0.0000000E+00
 -0.2000000      0.0000000E+00
 -0.1900000      0.0000000E+00
 -0.1800000      0.0000000E+00
 -0.1700000      0.0000000E+00
 -0.1600000      0.0000000E+00
 -0.1500000      0.0000000E+00
 -0.1400000      0.0000000E+00
 -0.1300000      0.0000000E+00
 -0.1200000      0.0000000E+00
 -0.1100000      0.0000000E+00
 -0.1000000      0.0000000E+00
 -9.0000004E-02  0.0000000E+00
 -7.9999998E-02  0.0000000E+00
 -7.0000000E-02  0.0000000E+00
 -5.9999999E-02  0.0000000E+00
 -5.0000001E-02  0.0000000E+00
 -3.9999999E-02  0.0000000E+00
 -2.9999999E-02  0.0000000E+00
 -2.0000000E-02  0.0000000E+00
 -9.9999998E-03  0.0000000E+00
 -3.4694470E-17  0.0000000E+00
  9.9999998E-03  0.0000000E+00
  2.0000000E-02  0.0000000E+00
  2.9999999E-02  0.0000000E+00
  3.9999999E-02  0.0000000E+00
  5.0000001E-02  0.0000000E+00
  5.9999999E-02  0.0000000E+00
  7.0000000E-02  0.0000000E+00
  7.9999998E-02  0.0000000E+00
  9.0000004E-02  0.0000000E+00
  0.1000000      0.0000000E+00
  0.1100000      0.0000000E+00
  0.1200000      0.0000000E+00
  0.1300000      0.0000000E+00
  0.1400000      0.0000000E+00
  0.1500000      0.0000000E+00
  0.1600000      0.0000000E+00
  0.1700000      0.0000000E+00
  0.1800000      0.0000000E+00
  0.1900000      0.0000000E+00
  0.2000000      0.0000000E+00
  0.2100000      0.0000000E+00
  0.2200000      0.0000000E+00
  0.2300000      0.0000000E+00
  0.2400000      0.0000000E+00
  0.2500000      0.0000000E+00
  0.2600000      0.0000000E+00
  0.2700000      0.0000000E+00
  0.2800000      0.0000000E+00
  0.2900000      0.0000000E+00
  0.3000000      0.0000000E+00
  0.3100000      0.0000000E+00
  0.3200000      0.0000000E+00
  0.3300000      0.0000000E+00
  0.3400000      0.0000000E+00
  0.3500000      0.0000000E+00
  0.3600000      0.0000000E+00
  0.3700000      0.0000000E+00
  0.3800000      0.0000000E+00
  0.3900000      0.0000000E+00
  0.4000000      0.0000000E+00
  0.4100000      0.0000000E+00
  0.4200000      0.0000000E+00
  0.4300000      0.0000000E+00
  0.4400000      0.0000000E+00
  0.4500000      0.0000000E+00
  0.4600000      0.0000000E+00
  0.4700000      0.0000000E+00
  0.4800000      0.0000000E+00
  0.4900000      0.0000000E+00
  0.5000000      0.0000000E+00
  0.5100000      0.0000000E+00
  0.5200000      0.0000000E+00
  0.5300000      0.0000000E+00
  0.5400000      0.0000000E+00
  0.5500000      0.0000000E+00
  0.5600000      0.0000000E+00
  0.5700000      0.0000000E+00
  0.5800000      0.0000000E+00
  0.5900000      0.0000000E+00
  0.6000000      0.0000000E+00
  0.6100000      0.0000000E+00
  0.6200000      0.0000000E+00
  0.6300000      0.0000000E+00
  0.6400000      0.0000000E+00
  0.6500000      0.0000000E+00
  0.6600000      0.0000000E+00
  0.6700000      0.0000000E+00
  0.6800000      0.0000000E+00
  0.6900000      0.0000000E+00
  0.7000000      0.0000000E+00
  0.7100000      0.0000000E+00
  0.7200000      0.0000000E+00
  0.7300000      0.0000000E+00
  0.7400000      0.0000000E+00
  0.7500000      0.0000000E+00
  0.7600000      0.0000000E+00
  0.7700000      0.0000000E+00
  0.7800000      0.0000000E+00
  0.7900000      0.0000000E+00
  0.8000000      0.0000000E+00
  0.8100000      0.0000000E+00
  0.8200000      0.0000000E+00
  0.8300000      0.0000000E+00
  0.8400000      0.0000000E+00
  0.8500000      0.0000000E+00
  0.8600000      0.0000000E+00
  0.8700000      0.0000000E+00
  0.8800000      0.0000000E+00
  0.8900000      0.0000000E+00
  0.9000000      0.0000000E+00
  0.9100000      0.0000000E+00
  0.9200000      0.0000000E+00
  0.9300000      0.0000000E+00
  0.9400000      0.0000000E+00
  0.9500000      0.0000000E+00
  0.9600000      0.0000000E+00
  0.9700000      0.0000000E+00
  0.9800000      0.0000000E+00
  0.9900000      0.0000000E+00
   1.000000      0.0000000E+00
   1.010000      0.0000000E+00
   1.020000      0.0000000E+00
   1.030000      0.0000000E+00
   1.040000      0.0000000E+00
   1.050000      0.0000000E+00
   1.060000      0.0000000E+00
   1.070000      0.0000000E+00
   1.080000      0.0000000E+00
   1.090000      0.0000000E+00
   1.100000      0.0000000E+00
   1.110000      0.0000000E+00
   1.120000      0.0000000E+00
   1.130000      0.0000000E+00
   1.140000      0.0000000E+00
   1.150000      0.0000000E+00
   1.160000      0.0000000E+00
   1.170000      0.0000000E+00
   1.180000      0.0000000E+00
   1.190000      0.0000000E+00
   1.200000      0.0000000E+00
   1.210000      0.0000000E+00
   1.220000      0.0000000E+00
   1.230000      0.0000000E+00
   1.240000      0.0000000E+00
   1.250000      0.0000000E+00
   1.260000      0.0000000E+00
   1.270000      0.0000000E+00
   1.280000      0.0000000E+00
   1.290000      0.0000000E+00
   1.300000      0.0000000E+00
   1.310000      0.0000000E+00
   1.320000      0.0000000E+00
   1.330000      0.0000000E+00
   1.340000      0.0000000E+00
   1.350000      0.0000000E+00
   1.360000      0.0000000E+00
   1.370000      0.0000000E+00
   1.380000      0.0000000E+00
   1.390000      0.0000000E+00
   1.400000      0.0000000E+00
   1.410000      0.0000000E+00
   1.420000      0.0000000E+00
   1.430000      0.0000000E+00
   1.440000      0.0000000E+00
   1.450000      0.0000000E+00
   1.460000      0.0000000E+00
   1.470000      0.0000000E+00
   1.480000      0.0000000E+00
   1.490000      0.0000000E+00
   1.500000      0.0000000E+00
   1.510000      0.0000000E+00
   1.520000      0.0000000E+00
   1.530000      0.0000000E+00
   1.540000      0.0000000E+00
   1.550000      0.0000000E+00
   1.560000      0.0000000E+00
   1.570000      0.0000000E+00
   1.580000      0.0000000E+00
   1.590000      0.0000000E+00
   1.600000      0.0000000E+00
   1.610000      0.0000000E+00
   1.620000      0.0000000E+00
   1.630000      0.0000000E+00
   1.640000      0.0000000E+00
   1.650000      0.0000000E+00
   1.660000      0.0000000E+00
   1.670000      0.0000000E+00
   1.680000      0.0000000E+00
   1.690000      0.0000000E+00
   1.700000      0.0000000E+00
   1.710000      0.0000000E+00
   1.720000      0.0000000E+00
   1.730000      0.0000000E+00
   1.740000      0.0000000E+00
   1.750000      0.0000000E+00
   1.760000      0.0000000E+00
   1.770000      0.0000000E+00
   1.780000      0.0000000E+00
   1.790000      0.0000000E+00
   1.800000      0.0000000E+00
   1.810000      0.0000000E+00
   1.820000      0.0000000E+00
   1.830000      0.0000000E+00
   1.840000      0.0000000E+00
   1.850000      0.0000000E+00
   1.860000      0.0000000E+00
   1.870000      0.0000000E+00
   1.880000      0.0000000E+00
   1.890000      0.0000000E+00
   1.900000      0.0000000E+00
   1.910000      0.0000000E+00
   1.920000      0.0000000E+00
   1.930000      0.0000000E+00
   1.940000      0.0000000E+00
   1.950000      0.0000000E+00
   1.960000      0.0000000E+00
   1.970000      0.0000000E+00
   1.980000      0.0000000E+00
   1.990000      0.0000000E+00
   2.000000      0.0000000E+00
   2.010000      0.0000000E+00
   2.020000      0.0000000E+00
   2.030000      0.0000000E+00
   2.040000      0.0000000E+00
   2.050000      0.0000000E+00
   2.060000      0.0000000E+00
   2.070000      0.0000000E+00
   2.080000      0.0000000E+00
   2.090000      0.0000000E+00
   2.100000      0.0000000E+00
   2.110000      0.0000000E+00
   2.120000      0.0000000E+00
   2.130000      0.0000000E+00
   2.140000      0.0000000E+00
   2.150000      0.0000000E+00
   2.160000      0.0000000E+00
   2.170000      0.0000000E+00
   2.180000      0.0000000E+00
   2.190000      0.0000000E+00
   2.200000      0.0000000E+00
   2.210000      0.0000000E+00
   2.220000      0.0000000E+00
   2.230000      0.0000000E+00
   2.240000      0.0000000E+00
   2.250000      0.0000000E+00
   2.260000      0.0000000E+00
   2.270000      0.0000000E+00
   2.280000      0.0000000E+00
   2.290000      0.0000000E+00
   2.300000      0.0000000E+00
   2.310000      0.0000000E+00
   2.320000      0.0000000E+00
   2.330000      0.0000000E+00
   2.340000      0.0000000E+00
   2.350000      0.0000000E+00
   2.360000      0.0000000E+00
   2.370000      0.0000000E+00
   2.380000      0.0000000E+00
   2.390000      0.0000000E+00
   2.400000      0.0000000E+00
   2.410000      0.0000000E+00
   2.420000      0.0000000E+00
   2.430000      0.0000000E+00
   2.440000      0.0000000E+00
   2.450000      0.0000000E+00
   2.460000      0.0000000E+00
   2.470000      0.0000000E+00
   2.480000      0.0000000E+00
   2.490000      0.0000000E+00
   2.500000      0.0000000E+00
   2.510000      0.0000000E+00
   2.520000      0.0000000E+00
   2.530000      0.0000000E+00
   2.540000      0.0000000E+00
   2.550000      0.0000000E+00
   2.560000      0.0000000E+00
   2.570000      0.0000000E+00
   2.580000      0.0000000E+00
   2.590000      0.0000000E+00
   2.600000      0.0000000E+00
   2.610000      0.0000000E+00
   2.620000      0.0000000E+00
   2.630000      0.0000000E+00
   2.640000      0.0000000E+00
   2.650000      0.0000000E+00
   2.660000      0.0000000E+00
   2.670000      0.0000000E+00
   2.680000      0.0000000E+00
   2.690000      0.0000000E+00
   2.700000      0.0000000E+00
   2.710000      0.0000000E+00
   2.720000      0.0000000E+00
   2.730000      0.0000000E+00
   2.740000      0.0000000E+00
   2.750000      0.0000000E+00
   2.760000      0.0000000E+00
   2.770000      0.0000000E+00
   2.780000      0.0000000E+00
   2.790000      0.0000000E+00
   2.800000      0.0000000E+00
   2.810000      0.0000000E+00
   2.820000      0.0000000E+00
   2.830000      0.0000000E+00
   2.840000      0.0000000E+00
   2.850000      0.0000000E+00
   2.860000      0.0000000E+00
   2.870000      0.0000000E+00
   2.880000      0.0000000E+00
   2.890000      0.0000000E+00
   2.900000      0.0000000E+00
   2.910000      0.0000000E+00
   2.920000      0.0000000E+00
   2.930000      0.0000000E+00
   2.940000      0.0000000E+00
   2.950000      0.0000000E+00
   2.960000      0.0000000E+00
   2.970000      0.0000000E+00
   2.980000      0.0000000E+00
   2.990000      0.0000000E+00
   3.000000      0.0000000E+00
   3.010000      0.0000000E+00
   3.020000      0.0000000E+00
   3.030000      0.0000000E+00
   3.040000      0.0000000E+00
   3.050000      0.0000000E+00
   3.060000      0.0000000E+00
   3.070000      0.0000000E+00
   3.080000      0.0000000E+00
   3.090000      0.0000000E+00
   3.100000      0.0000000E+00
   3.110000      0.0000000E+00
   3.120000      0.0000000E+00
   3.130000      0.0000000E+00
   3.140000      0.0000000E+00
   3.150000      0.0000000E+00
   3.160000      0.0000000E+00
   3.170000      0.0000000E+00
   3.180000      0.0000000E+00
   3.190000      0.0000000E+00
   3.200000      0.0000000E+00
   3.210000      0.0000000E+00
   3.220000      0.0000000E+00
   3.230000      0.0000000E+00
   3.240000      0.0000000E+00
   3.250000      0.0000000E+00
   3.260000     -1.3401189E-38
   3.270000     -1.6891781E-38
   3.280000     -2.0069108E-38
   3.290000     -2.3192180E-38
   3.300000     -2.6597281E-38
   3.310000     -3.0223508E-38
   3.320000     -3.3244514E-38
   3.330000     -3.5314221E-38
   3.340000     -3.7111613E-38
   3.350000     -3.9049357E-38
   3.360000     -4.1003030E-38
   3.370000     -4.2517750E-38
   3.380000     -4.3855889E-38
   3.390000     -4.5430531E-38
   3.400000     -4.6966177E-38
   3.410000     -4.9239767E-38
   3.420000     -5.2455091E-38
   3.430000     -5.5356485E-38
   3.440000     -5.7962665E-38
   3.450000     -6.0006801E-38
   3.460000     -6.0431607E-38
   3.470000     -6.0466830E-38
   3.480000     -5.9958366E-38
   3.490000     -5.8388738E-38
   3.500000     -5.6845253E-38
   3.510000     -5.5011794E-38
   3.520000     -5.2884152E-38
   3.530000     -4.9281716E-38
   3.540000     -4.3480904E-38
   3.550000     -3.5931389E-38
   3.560000     -2.6497455E-38
   3.570000     -1.5258313E-38
   3.580000      0.0000000E+00
   3.590000      0.0000000E+00
   3.600000      2.2568465E-38
   3.610000      3.5996799E-38
   3.620000      5.0075350E-38
   3.630000      6.5020619E-38
   3.640000      8.1108416E-38
   3.650000      1.0033512E-37
   3.660000      1.2215587E-37
   3.670000      1.4475800E-37
   3.680000      1.6845417E-37
   3.690000      1.9305294E-37
   3.700000      2.1233907E-37
   3.710000      2.2794741E-37
   3.720000      2.4576452E-37
   3.730000      2.6337649E-37
   3.740000      2.9949320E-37
   3.750000      3.5891538E-37
   3.760000      4.2376804E-37
   3.770000      4.8449632E-37
   3.780000      5.3702515E-37
   3.790000      5.8288353E-37
   3.800000      6.2269238E-37
   3.810000      6.5053019E-37
   3.820000      6.7456786E-37
   3.830000      7.1296904E-37
   3.840000      7.6110362E-37
   3.850000      8.1347775E-37
   3.860000      8.6920351E-37
   3.870000      9.2283921E-37
   3.880000      9.7052299E-37
   3.890000      9.8584446E-37
   3.900000      9.6851607E-37
   3.910000      9.3468572E-37
   3.920000      8.8268046E-37
   3.930000      8.2123202E-37
   3.940000      7.5236132E-37
   3.950000      7.0138172E-37
   3.960000      6.6510316E-37
   3.970000      6.1643980E-37
   3.980000      5.6573056E-37
   3.990000      5.3197550E-37
   4.000000      5.0917971E-37
   4.010000      4.8251997E-37
   4.020000      4.4501212E-37
   4.030000      3.7483420E-37
   4.040000      2.7773767E-37
   4.050000      1.6909862E-37
   4.060000      0.0000000E+00
   4.070000     -2.3529833E-37
   4.080000     -5.1259422E-37
   4.090000     -8.4459411E-37
   4.100000     -1.2223114E-36
   4.110000     -1.6388297E-36
   4.120000     -2.0894782E-36
   4.130000     -2.5412550E-36
   4.140000     -2.9815895E-36
   4.150000     -3.4112733E-36
   4.160000     -3.8271611E-36
   4.170000     -4.2332713E-36
   4.180000     -4.6190116E-36
   4.190000     -4.9895129E-36
   4.200000     -5.3299112E-36
   4.210000     -5.6425749E-36
   4.220000     -5.9451330E-36
   4.230000     -6.3060034E-36
   4.240000     -6.7394684E-36
   4.250000     -7.2008715E-36
   4.260000     -7.7088007E-36
   4.270000     -8.2615887E-36
   4.280000     -8.8482826E-36
   4.290000     -9.4420737E-36
   4.300000     -9.9943193E-36
   4.310000     -1.0444015E-35
   4.320000     -1.0736540E-35
   4.330000     -1.0911500E-35
   4.340000     -1.0934488E-35
   4.350000     -1.0807559E-35
   4.360000     -1.0573721E-35
   4.370000     -1.0216975E-35
   4.380000     -9.7468449E-36
   4.390000     -9.1655090E-36
   4.400000     -8.5175371E-36
   4.410000     -7.8384868E-36
   4.420000     -7.0416381E-36
   4.430000     -6.0826559E-36
   4.440000     -5.0888330E-36
   4.450000     -4.0754419E-36
   4.460000     -2.9781077E-36
   4.470000     -1.7984952E-36
   4.480000     -5.2771254E-37
   4.490000      1.0548817E-36
   4.500000      2.9886867E-36
   4.510000      4.9927523E-36
   4.520000      7.0735487E-36
   4.530000      9.3912557E-36
   4.540000      1.1931190E-35
   4.550000      1.4598683E-35
   4.560000      1.7459645E-35
   4.570000      2.0904986E-35
   4.580000      2.4898356E-35
   4.590000      2.9123019E-35
   4.600000      3.3098893E-35
   4.610000      3.6756592E-35
   4.620000      4.0537686E-35
   4.630000      4.4100800E-35
   4.640000      4.7392790E-35
   4.650000      5.0916084E-35
   4.660000      5.4704253E-35
   4.670000      5.8522021E-35
   4.680000      6.2272680E-35
   4.690000      6.5862839E-35
   4.700000      6.9383887E-35
   4.710000      7.2994985E-35
   4.720000      7.6659502E-35
   4.730000      8.0108947E-35
   4.740000      8.3318035E-35
   4.750000      8.6374200E-35
   4.760000      8.9240868E-35
   4.770000      9.1769857E-35
   4.780000      9.3607611E-35
   4.790000      9.4570449E-35
   4.800000      9.4987583E-35
   4.810000      9.5032640E-35
   4.820000      9.4574536E-35
   4.830000      9.6752862E-35
   4.840000      1.0145693E-34
   4.850000      1.0584700E-34
   4.860000      1.0993170E-34
   4.870000      1.1343570E-34
   4.880000      1.1693126E-34
   4.890000      1.2039630E-34
   4.900000      1.1766020E-34
   4.910000      1.0602958E-34
   4.920000      9.0786752E-35
   4.930000      7.3346238E-35
   4.940000      5.4368077E-35
   4.950000      3.5894429E-35
   4.960000      1.7019313E-35
   4.970000     -3.4008517E-36
   4.980000     -2.4135838E-35
   4.990000     -4.4364770E-35
   5.000000     -6.7963886E-35
   5.010000     -9.5547866E-35
   5.020000     -1.2367808E-34
   5.030000     -1.5037687E-34
   5.040000     -1.7607420E-34
   5.050000     -2.0267812E-34
   5.060000     -2.3398153E-34
   5.070000     -2.7404711E-34
   5.080000     -3.2000345E-34
   5.090000     -3.6892603E-34
   5.100000     -4.1654161E-34
   5.110000     -4.6212131E-34
   5.120000     -5.0906036E-34
   5.130000     -5.5894963E-34
   5.140000     -6.1079063E-34
   5.150000     -6.6144782E-34
   5.160000     -7.1058216E-34
   5.170000     -7.5686169E-34
   5.180000     -8.0151349E-34
   5.190000     -8.4552069E-34
   5.200000     -8.8738124E-34
   5.210000     -9.2816850E-34
   5.220000     -9.6489407E-34
   5.230000     -9.9760854E-34
   5.240000     -1.0296474E-33
   5.250000     -1.0599387E-33
   5.260000     -1.0857977E-33
   5.270000     -1.1067760E-33
   5.280000     -1.1253244E-33
   5.290000     -1.1410855E-33
   5.300000     -1.1561556E-33
   5.310000     -1.1694662E-33
   5.320000     -1.1775596E-33
   5.330000     -1.1808975E-33
   5.340000     -1.1776891E-33
   5.350000     -1.1676917E-33
   5.360000     -1.1520337E-33
   5.370000     -1.1277371E-33
   5.380000     -1.0931639E-33
   5.390000     -1.0495825E-33
   5.400000     -9.9441964E-34
   5.410000     -9.2455239E-34
   5.420000     -8.4055496E-34
   5.430000     -7.4302667E-34
   5.440000     -6.3096101E-34
   5.450000     -5.0426568E-34
   5.460000     -3.6256962E-34
   5.470000     -2.0494723E-34
   5.480000     -2.9835131E-35
   5.490000      1.6196098E-34
   5.500000      3.7340866E-34
   5.510000      6.0697454E-34
   5.520000      8.6005568E-34
   5.530000      1.1321540E-33
   5.540000      1.4230203E-33
   5.550000      1.7328370E-33
   5.560000      2.0609041E-33
   5.570000      2.4067777E-33
   5.580000      2.7701206E-33
   5.590000      3.1478181E-33
   5.600000      3.5398958E-33
   5.610000      3.9488705E-33
   5.620000      4.3737875E-33
   5.630000      4.8131329E-33
   5.640000      5.2665986E-33
   5.650000      5.7334329E-33
   5.660000      6.2128528E-33
   5.670000      6.7060491E-33
   5.680000      7.2111744E-33
   5.690000      7.7253048E-33
   5.700000      8.2469752E-33
   5.710000      8.7724976E-33
   5.720000      9.3016897E-33
   5.730000      9.8339947E-33
   5.740000      1.0365304E-32
   5.750000      1.0891478E-32
   5.760000      1.1411122E-32
   5.770000      1.1922612E-32
   5.780000      1.2420504E-32
   5.790000      1.2900743E-32
   5.800000      1.3359139E-32
   5.810000      1.3791022E-32
   5.820000      1.4191510E-32
   5.830000      1.4555112E-32
   5.840000      1.4876154E-32
   5.850000      1.5149158E-32
   5.860000      1.5368156E-32
   5.870000      1.5527017E-32
   5.880000      1.5619468E-32
   5.890000      1.5639043E-32
   5.900000      1.5579088E-32
   5.910000      1.5432867E-32
   5.920000      1.5193632E-32
   5.930000      1.4854575E-32
   5.940000      1.4408754E-32
   5.950000      1.3849192E-32
   5.960000      1.3169038E-32
   5.970000      1.2361384E-32
   5.980000      1.1419327E-32
   5.990000      1.0336161E-32
   6.000000      9.1050501E-33
   6.010000      7.7192422E-33
   6.020000      6.1722453E-33
   6.030000      4.4571116E-33
   6.040000      2.5680707E-33
   6.050000      4.9953326E-34
   6.060000     -1.7549111E-33
   6.070000     -4.2009002E-33
   6.080000     -6.8437942E-33
   6.090000     -9.6886779E-33
   6.100000     -1.2740055E-32
   6.110000     -1.6001963E-32
   6.120000     -1.9478032E-32
   6.130000     -2.3171183E-32
   6.140000     -2.7083613E-32
   6.150000     -3.1216707E-32
   6.160000     -3.5571652E-32
   6.170000     -4.0147185E-32
   6.180000     -4.4940921E-32
   6.190000     -4.9950716E-32
   6.200000     -5.5172456E-32
   6.210000     -6.0600507E-32
   6.220000     -6.6227769E-32
   6.230000     -7.2045549E-32
   6.240000     -7.8043415E-32
   6.250000     -8.4209230E-32
   6.260000     -9.0528952E-32
   6.270000     -9.6986595E-32
   6.280000     -1.0356417E-31
   6.290000     -1.1024154E-31
   6.300000     -1.1699653E-31
   6.310000     -1.2380473E-31
   6.320000     -1.3063878E-31
   6.330000     -1.3747106E-31
   6.340000     -1.4427018E-31
   6.350000     -1.5100100E-31
   6.360000     -1.5762802E-31
   6.370000     -1.6411262E-31
   6.380000     -1.7041364E-31
   6.390000     -1.7648738E-31
   6.400000     -1.8228761E-31
   6.410000     -1.8776551E-31
   6.420000     -1.9286975E-31
   6.430000     -1.9754636E-31
   6.440000     -2.0173874E-31
   6.450000     -2.0538780E-31
   6.460000     -2.0843189E-31
   6.470000     -2.1080679E-31
   6.480000     -2.1244590E-31
   6.490000     -2.1328014E-31
   6.500000     -2.1323818E-31
   6.510000     -2.1224641E-31
   6.520000     -2.1022917E-31
   6.530000     -2.0710882E-31
   6.540000     -2.0280595E-31
   6.550000     -1.9723961E-31
   6.560000     -1.9032737E-31
   6.570000     -1.8198586E-31
   6.580000     -1.7213079E-31
   6.590000     -1.6067741E-31
   6.600000     -1.4754081E-31
   6.610000     -1.3263627E-31
   6.620000     -1.1587969E-31
   6.630000     -9.7188010E-32
   6.640000     -7.6479702E-32
   6.650000     -5.3675206E-32
   6.660000     -2.8697458E-32
   6.670000     -1.4724701E-33
   6.680000      2.8070170E-32
   6.690000      5.9996679E-32
   6.700000      9.4368457E-32
   6.710000      1.3124145E-31
   6.720000      1.7066552E-31
   6.730000      2.1268374E-31
   6.740000      2.5733165E-31
   6.750000      3.0463660E-31
   6.760000      3.5461698E-31
   6.770000      4.0728293E-31
   6.780000      4.6263104E-31
   6.790000      5.2064643E-31
   6.800000      5.8130523E-31
   6.810000      6.4456907E-31
   6.820000      7.1038575E-31
   6.830000      7.7868837E-31
   6.840000      8.4939444E-31
   6.850000      9.2240506E-31
   6.860000      9.9760378E-31
   6.870000      1.0748560E-30
   6.880000      1.1540082E-30
   6.890000      1.2348863E-30
   6.900000      1.3172960E-30
   6.910000      1.4010207E-30
   6.920000      1.4858214E-30
   6.930000      1.5714354E-30
   6.940000      1.6575761E-30
   6.950000      1.7439316E-30
   6.960000      1.8301650E-30
   6.970000      1.9159121E-30
   6.980000      2.0007822E-30
   6.990000      2.0843576E-30
   7.000000      2.1661920E-30
   7.010000      2.2458111E-30
   7.020000      2.3227121E-30
   7.030000      2.3963635E-30
   7.040000      2.4662048E-30
   7.050000      2.5316471E-30
   7.060000      2.5920730E-30