  -2.600000      0.0000000E+00
  -2.590000      0.0000000E+00
  -2.580000      0.0000000E+00
  -2.570000      0.0000000E+00
  -2.560000      0.0000000E+00
  -2.550000      0.0000000E+00
  -2.540000      0.0000000E+00
  -2.530000      0.0000000E+00
  -2.520000      0.0000000E+00
  -2.510000      0.0000000E+00
  -2.500000      0.0000000E+00
  -2.490000      0.0000000E+00
  -2.480000      0.0000000E+00
  -2.470000      0.0000000E+00
  -2.460000      0.0000000E+00
  -2.450000      0.0000000E+00
  -2.440000      0.0000000E+00
  -2.430000      0.0000000E+00
  -2.420000      0.0000000E+00
  -2.410000      0.0000000E+00
  -2.400000      0.0000000E+00
  -2.390000      0.0000000E+00
  -2.380000      0.0000000E+00
  -2.370000      0.0000000E+00
  -2.360000      0.0000000E+00
  -2.350000      0.0000000E+00
  -2.340000      0.0000000E+00
  -2.330000      0.0000000E+00
  -2.320000      0.0000000E+00
  -2.310000      0.0000000E+00
  -2.300000      0.0000000E+00
  -2.290000      0.0000000E+00
  -2.280000      0.0000000E+00
  -2.270000      0.0000000E+00
  -2.260000      0.0000000E+00
  -2.250000      0.0000000E+00
  -2.240000      0.0000000E+00
  -2.230000      0.0000000E+00
  -2.220000      0.0000000E+00
  -2.210000      0.0000000E+00
  -2.200000      0.0000000E+00
  -2.190000      0.0000000E+00
  -2.180000      0.0000000E+00
  -2.170000      0.0000000E+00
  -2.160000      0.0000000E+00
  -2.150000      0.0000000E+00
  -2.140000      0.0000000E+00
  -2.130000      0.0000000E+00
  -2.120000      0.0000000E+00
  -2.110000      0.0000000E+00
  -2.100000      0.0000000E+00
  -2.090000      0.0000000E+00
  -2.080000      0.0000000E+00
  -2.070000      0.0000000E+00
  -2.060000      0.0000000E+00
  -2.050000      0.0000000E+00
  -2.040000      0.0000000E+00
  -2.030000      0.0000000E+00
  -2.020000      0.0000000E+00
  -2.010000      0.0000000E+00
  -2.000000      0.0000000E+00
  -1.990000      0.0000000E+00
  -1.980000      0.0000000E+00
  -1.970000      0.0000000E+00
  -1.960000      0.0000000E+00
  -1.950000      0.0000000E+00
  -1.940000      0.0000000E+00
  -1.930000      0.0000000E+00
  -1.920000      0.0000000E+00
  -1.910000      0.0000000E+00
  -1.900000      0.0000000E+00
  -1.890000      0.0000000E+00
  -1.880000      0.0000000E+00
  -1.870000      0.0000000E+00
  -1.860000      0.0000000E+00
  -1.850000      0.0000000E+00
  -1.840000      0.0000000E+00
  -1.830000      0.0000000E+00
  -1.820000      0.0000000E+00
  -1.810000      0.0000000E+00
  -1.800000      0.0000000E+00
  -1.790000      0.0000000E+00
  -1.780000      0.0000000E+00
  -1.770000      0.0000000E+00
  -1.760000      0.0000000E+00
  -1.750000      0.0000000E+00
  -1.740000      0.0000000E+00
  -1.730000      0.0000000E+00
  -1.720000      0.0000000E+00
  -1.710000      0.0000000E+00
  -1.700000      0.0000000E+00
  -1.690000      0.0000000E+00
  -1.680000      0.0000000E+00
  -1.670000      0.0000000E+00
  -1.660000      0.0000000E+00
  -1.650000      0.0000000E+00
  -1.640000      0.0000000E+00
  -1.630000      0.0000000E+00
  -1.620000      0.0000000E+00
  -1.610000      0.0000000E+00
  -1.600000      0.0000000E+00
  -1.590000      0.0000000E+00
  -1.580000      0.0000000E+00
  -1.570000      0.0000000E+00
  -1.560000      0.0000000E+00
  -1.550000      0.0000000E+00
  -1.540000      0.0000000E+00
  -1.530000      0.0000000E+00
  -1.520000      0.0000000E+00
  -1.510000      0.0000000E+00
  -1.500000      0.0000000E+00
  -1.490000      0.0000000E+00
  -1.480000      0.0000000E+00
  -1.470000      0.0000000E+00
  -1.460000      0.0000000E+00
  -1.450000      0.0000000E+00
  -1.440000      0.0000000E+00
  -1.430000      0.0000000E+00
  -1.420000      0.0000000E+00
  -1.410000      0.0000000E+00
  -1.400000      0.0000000E+00
  -1.390000      0.0000000E+00
  -1.380000      0.0000000E+00
  -1.370000      0.0000000E+00
  -1.360000      0.0000000E+00
  -1.350000      0.0000000E+00
  -1.340000      0.0000000E+00
  -1.330000      0.0000000E+00
  -1.320000      0.0000000E+00
  -1.310000      0.0000000E+00
  -1.300000      0.0000000E+00
  -1.290000      0.0000000E+00
  -1.280000      0.0000000E+00
  -1.270000      0.0000000E+00
  -1.260000      0.0000000E+00
  -1.250000      0.0000000E+00
  -1.240000      0.0000000E+00
  -1.230000      0.0000000E+00
  -1.220000      0.0000000E+00
  -1.210000      0.0000000E+00
  -1.200000      0.0000000E+00
  -1.190000      0.0000000E+00
  -1.180000      0.0000000E+00
  -1.170000      0.0000000E+00
  -1.160000      0.0000000E+00
  -1.150000      0.0000000E+00
  -1.140000      0.0000000E+00
  -1.130000      0.0000000E+00
  -1.120000      0.0000000E+00
  -1.110000      0.0000000E+00
  -1.100000      0.0000000E+00
  -1.090000      0.0000000E+00
  -1.080000      0.0000000E+00
  -1.070000      0.0000000E+00
  -1.060000      0.0000000E+00
  -1.050000      0.0000000E+00
  -1.040000      0.0000000E+00
  -1.030000      0.0000000E+00
  -1.020000      0.0000000E+00
  -1.010000      0.0000000E+00
  -1.000000      0.0000000E+00
 -0.9900000      0.0000000E+00
 -0.9800000      0.0000000E+00
 -0.9700000      0.0000000E+00
 -0.9600000      0.0000000E+00
 -0.9500000      0.0000000E+00
 -0.9400000      0.0000000E+00
 -0.9300000      0.0000000E+00
 -0.9200000      0.0000000E+00
 -0.9100000      0.0000000E+00
 -0.9000000      0.0000000E+00
 -0.8900000      0.0000000E+00
 -0.8800000      0.0000000E+00
 -0.8700000      0.0000000E+00
 -0.8600000      0.0000000E+00
 -0.8500000      0.0000000E+00
 -0.8400000      0.0000000E+00
 -0.8300000      0.0000000E+00
 -0.8200000      0.0000000E+00
 -0.8100000      0.0000000E+00
 -0.8000000      0.0000000E+00
 -0.7900000      0.0000000E+00
 -0.7800000      0.0000000E+00
 -0.7700000      0.0000000E+00
 -0.7600000      0.0000000E+00
 -0.7500000      0.0000000E+00
 -0.7400000      0.0000000E+00
 -0.7300000      0.0000000E+00
 -0.7200000      0.0000000E+00
 -0.7100000      0.0000000E+00
 -0.7000000      0.0000000E+00
 -0.6900000      0.0000000E+00
 -0.6800000      0.0000000E+00
 -0.6700000      0.0000000E+00
 -0.6600000      0.0000000E+00
 -0.6500000      0.0000000E+00
 -0.6400000      0.0000000E+00
 -0.6300000      0.0000000E+00
 -0.6200000      0.0000000E+00
 -0.6100000      0.0000000E+00
 -0.6000000      0.0000000E+00
 -0.5900000      0.0000000E+00
 -0.5800000      0.0000000E+00
 -0.5700000      0.0000000E+00
 -0.5600000      0.0000000E+00
 -0.5500000      0.0000000E+00
 -0.5400000      0.0000000E+00
 -0.5300000      0.0000000E+00
 -0.5200000      0.0000000E+00
 -0.5100000      0.0000000E+00
 -0.5000000      0.0000000E+00
 -0.4900000      0.0000000E+00
 -0.4800000      0.0000000E+00
 -0.4700000      0.0000000E+00
 -0.4600000      0.0000000E+00
 -0.4500000      0.0000000E+00
 -0.4400000      0.0000000E+00
 -0.4300000      0.0000000E+00
 -0.4200000      0.0000000E+00
 -0.4100000      0.0000000E+00
 -0.4000000      0.0000000E+00
 -0.3900000      0.0000000E+00
 -0.3800000      0.0000000E+00
 -0.3700000      0.0000000E+00
 -0.3600000      0.0000000E+00
 -0.3500000      0.0000000E+00
 -0.3400000      0.0000000E+00
 -0.3300000      0.0000000E+00
 -0.3200000      0.0000000E+00
 -0.3100000      0.0000000E+00
 -0.3000000      0.0000000E+00
 -0.2900000      0.0000000E+00
 -0.2800000      0.0000000E+00
 -0.2700000      0.0000000E+00
 -0.2600000      0.0000000E+00
 -0.2500000      0.0000000E+00
 -0.2400000      0.0000000E+00
 -0.2300000      0.0000000E+00
 -0.2200000      0.0000000E+00
 -0.2100000      0.0000000E+00
 -0.2000000      0.0000000E+00
 -0.1900000      0.0000000E+00
 -0.1800000      0.0000000E+00
 -0.1700000      0.0000000E+00
 -0.1600000      0.0000000E+00
 -0.1500000      0.0000000E+00
 -0.1400000      0.0000000E+00
 -0.1300000      0.0000000E+00
 -0.1200000      0.0000000E+00
 -0.1100000      0.0000000E+00
 -0.1000000      0.0000000E+00
 -9.0000004E-02  0.0000000E+00
 -7.9999998E-02  0.0000000E+00
 -7.0000000E-02  0.0000000E+00
 -5.9999999E-02  0.0000000E+00
 -5.0000001E-02  0.0000000E+00
 -3.9999999E-02  0.0000000E+00
 -2.9999999E-02  0.0000000E+00
 -2.0000000E-02  0.0000000E+00
 -9.9999998E-03  0.0000000E+00
 -3.4694470E-17  0.0000000E+00
  9.9999998E-03  0.0000000E+00
  2.0000000E-02  0.0000000E+00
  2.9999999E-02  0.0000000E+00
  3.9999999E-02  0.0000000E+00
  5.0000001E-02  0.0000000E+00
  5.9999999E-02  0.0000000E+00
  7.0000000E-02  0.0000000E+00
  7.9999998E-02  0.0000000E+00
  9.0000004E-02  0.0000000E+00
  0.1000000      0.0000000E+00
  0.1100000      0.0000000E+00
  0.1200000      0.0000000E+00
  0.1300000      0.0000000E+00
  0.1400000      0.0000000E+00
  0.1500000      0.0000000E+00
  0.1600000      0.0000000E+00
  0.1700000      0.0000000E+00
  0.1800000      0.0000000E+00
  0.1900000      0.0000000E+00
  0.2000000      0.0000000E+00
  0.2100000      0.0000000E+00
  0.2200000      0.0000000E+00
  0.2300000      0.0000000E+00
  0.2400000      0.0000000E+00
  0.2500000      0.0000000E+00
  0.2600000      0.0000000E+00
  0.2700000      0.0000000E+00
  0.2800000      0.0000000E+00
  0.2900000      0.0000000E+00
  0.3000000      0.0000000E+00
  0.3100000      0.0000000E+00
  0.3200000      0.0000000E+00
  0.3300000      0.0000000E+00
  0.3400000      0.0000000E+00
  0.3500000      0.0000000E+00
  0.3600000      0.0000000E+00
  0.3700000      0.0000000E+00
  0.3800000      0.0000000E+00
  0.3900000      0.0000000E+00
  0.4000000      0.0000000E+00
  0.4100000      0.0000000E+00
  0.4200000      0.0000000E+00
  0.4300000      0.0000000E+00
  0.4400000      0.0000000E+00
  0.4500000      0.0000000E+00
  0.4600000      0.0000000E+00
  0.4700000      0.0000000E+00
  0.4800000      0.0000000E+00
  0.4900000      0.0000000E+00
  0.5000000      0.0000000E+00
  0.5100000      0.0000000E+00
  0.5200000      0.0000000E+00
  0.5300000      0.0000000E+00
  0.5400000      0.0000000E+00
  0.5500000      0.0000000E+00
  0.5600000      0.0000000E+00
  0.5700000      0.0000000E+00
  0.5800000      0.0000000E+00
  0.5900000      0.0000000E+00
  0.6000000      0.0000000E+00
  0.6100000      0.0000000E+00
  0.6200000      0.0000000E+00
  0.6300000      0.0000000E+00
  0.6400000      0.0000000E+00
  0.6500000      0.0000000E+00
  0.6600000      0.0000000E+00
  0.6700000      0.0000000E+00
  0.6800000      0.0000000E+00
  0.6900000      0.0000000E+00
  0.7000000      0.0000000E+00
  0.7100000      0.0000000E+00
  0.7200000      0.0000000E+00
  0.7300000      0.0000000E+00
  0.7400000      0.0000000E+00
  0.7500000      0.0000000E+00
  0.7600000      0.0000000E+00
  0.7700000      0.0000000E+00
  0.7800000      0.0000000E+00
  0.7900000      0.0000000E+00
  0.8000000      0.0000000E+00
  0.8100000      0.0000000E+00
  0.8200000      0.0000000E+00
  0.8300000      0.0000000E+00
  0.8400000      0.0000000E+00
  0.8500000      0.0000000E+00
  0.8600000      0.0000000E+00
  0.8700000      0.0000000E+00
  0.8800000      0.0000000E+00
  0.8900000      0.0000000E+00
  0.9000000      0.0000000E+00
  0.9100000      0.0000000E+00
  0.9200000      0.0000000E+00
  0.9300000      0.0000000E+00
  0.9400000      0.0000000E+00
  0.9500000      0.0000000E+00
  0.9600000      0.0000000E+00
  0.9700000      0.0000000E+00
  0.9800000      0.0000000E+00
  0.9900000      0.0000000E+00
   1.000000      0.0000000E+00
   1.010000      0.0000000E+00
   1.020000      0.0000000E+00
   1.030000      0.0000000E+00
   1.040000      0.0000000E+00
   1.050000      0.0000000E+00
   1.060000      0.0000000E+00
   1.070000      0.0000000E+00
   1.080000      0.0000000E+00
   1.090000      0.0000000E+00
   1.100000      0.0000000E+00
   1.110000      0.0000000E+00
   1.120000      0.0000000E+00
   1.130000      0.0000000E+00
   1.140000      0.0000000E+00
   1.150000      0.0000000E+00
   1.160000      0.0000000E+00
   1.170000      0.0000000E+00
   1.180000      0.0000000E+00
   1.190000      0.0000000E+00
   1.200000      0.0000000E+00
   1.210000      0.0000000E+00
   1.220000      0.0000000E+00
   1.230000      0.0000000E+00
   1.240000      0.0000000E+00
   1.250000      0.0000000E+00
   1.260000      0.0000000E+00
   1.270000      0.0000000E+00
   1.280000      0.0000000E+00
   1.290000      0.0000000E+00
   1.300000      0.0000000E+00
   1.310000      0.0000000E+00
   1.320000      0.0000000E+00
   1.330000      0.0000000E+00
   1.340000      0.0000000E+00
   1.350000      0.0000000E+00
   1.360000      0.0000000E+00
   1.370000      0.0000000E+00
   1.380000      0.0000000E+00
   1.390000      0.0000000E+00
   1.400000      0.0000000E+00
   1.410000      0.0000000E+00
   1.420000      0.0000000E+00
   1.430000      0.0000000E+00
   1.440000      0.0000000E+00
   1.450000      0.0000000E+00
   1.460000      0.0000000E+00
   1.470000      0.0000000E+00
   1.480000      0.0000000E+00
   1.490000      0.0000000E+00
   1.500000      0.0000000E+00
   1.510000      0.0000000E+00
   1.520000      0.0000000E+00
   1.530000      0.0000000E+00
   1.540000      0.0000000E+00
   1.550000      0.0000000E+00
   1.560000      0.0000000E+00
   1.570000      0.0000000E+00
   1.580000      0.0000000E+00
   1.590000      0.0000000E+00
   1.600000      0.0000000E+00
   1.610000      0.0000000E+00
   1.620000      0.0000000E+00
   1.630000      0.0000000E+00
   1.640000      0.0000000E+00
   1.650000      0.0000000E+00
   1.660000      0.0000000E+00
   1.670000      0.0000000E+00
   1.680000      0.0000000E+00
   1.690000      0.0000000E+00
   1.700000      0.0000000E+00
   1.710000      0.0000000E+00
   1.720000      0.0000000E+00
   1.730000      0.0000000E+00
   1.740000      0.0000000E+00
   1.750000      0.0000000E+00
   1.760000      0.0000000E+00
   1.770000      0.0000000E+00
   1.780000      0.0000000E+00
   1.790000      0.0000000E+00
   1.800000      0.0000000E+00
   1.810000      0.0000000E+00
   1.820000      0.0000000E+00
   1.830000     -1.3805972E-38
   1.840000     -2.1830422E-38
   1.850000     -3.1109625E-38
   1.860000     -4.1780793E-38
   1.870000     -5.2681222E-38
   1.880000     -6.3390169E-38
   1.890000     -7.4699824E-38
   1.900000     -8.6396479E-38
   1.910000     -9.8270427E-38
   1.920000     -1.0986867E-37
   1.930000     -1.2105270E-37
   1.940000     -1.3471290E-37
   1.950000     -1.5081127E-37
   1.960000     -1.6620515E-37
   1.970000     -1.8214095E-37
   1.980000     -1.9879188E-37
   1.990000     -2.0939906E-37
   2.000000     -2.1311232E-37
   2.010000     -2.1442741E-37
   2.020000     -2.1352834E-37
   2.030000     -2.0558986E-37
   2.040000     -1.9007049E-37
   2.050000     -1.7219787E-37
   2.060000     -1.5238610E-37
   2.070000     -1.2992421E-37
   2.080000     -1.0357775E-37
   2.090000     -7.4670150E-38
   2.100000     -5.8219517E-38
   2.110000     -6.6861970E-38
   2.120000     -9.1346594E-38
   2.130000     -1.2599236E-37
   2.140000     -1.6837943E-37
   2.150000     -2.0366698E-37
   2.160000     -2.6459120E-37
   2.170000     -3.6906850E-37
   2.180000     -4.9124376E-37
   2.190000     -6.4245239E-37
   2.200000     -8.1376599E-37
   2.210000     -1.0272590E-36
   2.220000     -1.2929948E-36
   2.230000     -1.5299731E-36
   2.240000     -1.6254225E-36
   2.250000     -1.5557686E-36
   2.260000     -1.3525796E-36
   2.270000     -8.5693441E-37
   2.280000     -9.1294444E-38
   2.290000      7.3700815E-37
   2.300000      1.5571516E-36
   2.310000      2.2768500E-36
   2.320000      2.8349836E-36
   2.330000      3.0650129E-36
   2.340000      3.0477582E-36
   2.350000      3.0337135E-36
   2.360000      3.0022584E-36
   2.370000      2.9483976E-36
   2.380000      2.9572784E-36
   2.390000      3.0920463E-36
   2.400000      3.3645735E-36
   2.410000      3.7102394E-36
   2.420000      4.2652985E-36
   2.430000      5.0764653E-36
   2.440000      6.0086832E-36
   2.450000      7.0148522E-36
   2.460000      8.0218980E-36
   2.470000      8.9033997E-36
   2.480000      9.4840770E-36
   2.490000      9.9506070E-36
   2.500000      1.0319656E-35
   2.510000      1.0166708E-35
   2.520000      8.8814682E-36
   2.530000      6.6357438E-36
   2.540000      4.0484735E-36
   2.550000      1.1913432E-36
   2.560000     -1.7178292E-36
   2.570000     -3.5518598E-36
   2.580000     -4.0484161E-36
   2.590000     -3.8936213E-36
   2.600000     -2.9706885E-36
   2.610000     -1.5680531E-36
   2.620000     -1.9697019E-37
   2.630000      4.9271049E-37
   2.640000      9.9137382E-38
   2.650000     -7.4093744E-37
   2.660000     -1.7929654E-36
   2.670000     -4.1101331E-36
   2.680000     -7.5083073E-36
   2.690000     -1.1863460E-35
   2.700000     -1.7611145E-35
   2.710000     -2.4616522E-35
   2.720000     -3.2104016E-35
   2.730000     -3.7801247E-35
   2.740000     -4.1713117E-35
   2.750000     -4.4964407E-35
   2.760000     -4.7323104E-35
   2.770000     -4.8265121E-35
   2.780000     -4.7724324E-35
   2.790000     -4.4829202E-35
   2.800000     -4.0610339E-35
   2.810000     -3.6948944E-35
   2.820000     -3.4273926E-35
   2.830000     -3.3522243E-35
   2.840000     -3.4830698E-35
   2.850000     -3.8207530E-35
   2.860000     -4.3162881E-35
   2.870000     -4.8710856E-35
   2.880000     -5.2812189E-35
   2.890000     -5.4573645E-35
   2.900000     -5.3920752E-35
   2.910000     -4.9855557E-35
   2.920000     -4.2732925E-35
   2.930000     -3.4573022E-35
   2.940000     -2.5733362E-35
   2.950000     -1.5888426E-35
   2.960000     -5.9149837E-36
   2.970000      3.5622096E-36
   2.980000      1.1910860E-35
   2.990000      1.9494721E-35
   3.000000      2.8029539E-35
   3.010000      3.7217377E-35
   3.020000      4.5925543E-35
   3.030000      5.5703320E-35
   3.040000      6.5527841E-35
   3.050000      7.4289280E-35
   3.060000      8.1721527E-35
   3.070000      8.9364559E-35
   3.080000      9.8611980E-35
   3.090000      1.0845176E-34
   3.100000      1.1997952E-34
   3.110000      1.3568343E-34
   3.120000      1.5600190E-34
   3.130000      1.7851437E-34
   3.140000      2.0249428E-34
   3.150000      2.2382315E-34
   3.160000      2.4059601E-34
   3.170000      2.5669463E-34
   3.180000      2.7188911E-34
   3.190000      2.8288818E-34
   3.200000      2.8623283E-34
   3.210000      2.8253592E-34
   3.220000      2.7810339E-34
   3.230000      2.7498018E-34
   3.240000      2.7190920E-34
   3.250000      2.7026491E-34
   3.260000      2.6611452E-34
   3.270000      2.5876240E-34
   3.280000      2.5245610E-34
   3.290000      2.4600913E-34
   3.300000      2.3619141E-34
   3.310000      2.2280345E-34
   3.320000      2.1401592E-34
   3.330000      2.0962205E-34
   3.340000      2.0049014E-34
   3.350000      1.8516098E-34
   3.360000      1.6336799E-34
   3.370000      1.3662865E-34
   3.380000      1.0567877E-34
   3.390000      6.3098976E-35
   3.400000      1.2034671E-35
   3.410000     -4.2633237E-35
   3.420000     -1.0564248E-34
   3.430000     -1.7215292E-34
   3.440000     -2.3656470E-34
   3.450000     -2.9991090E-34
   3.460000     -3.6030222E-34
   3.470000     -4.1795634E-34
   3.480000     -4.7757351E-34
   3.490000     -5.3863250E-34
   3.500000     -5.9645212E-34
   3.510000     -6.5095488E-34
   3.520000     -7.0477815E-34
   3.530000     -7.6112373E-34
   3.540000     -8.2368946E-34
   3.550000     -8.9119443E-34
   3.560000     -9.6230431E-34
   3.570000     -1.0377873E-33
   3.580000     -1.1194062E-33
   3.590000     -1.2122414E-33
   3.600000     -1.3045061E-33
   3.610000     -1.3888596E-33
   3.620000     -1.4662555E-33
   3.630000     -1.5346628E-33
   3.640000     -1.5971401E-33
   3.650000     -1.6480422E-33
   3.660000     -1.6797621E-33
   3.670000     -1.6996302E-33
   3.680000     -1.7159374E-33
   3.690000     -1.7198676E-33
   3.700000     -1.7143406E-33
   3.710000     -1.7059645E-33
   3.720000     -1.6943568E-33
   3.730000     -1.6803565E-33
   3.740000     -1.6614591E-33
   3.750000     -1.6287519E-33
   3.760000     -1.5765998E-33
   3.770000     -1.5053472E-33
   3.780000     -1.4092554E-33
   3.790000     -1.2868384E-33
   3.800000     -1.1433134E-33
   3.810000     -9.9822264E-34
   3.820000     -8.3984893E-34
   3.830000     -6.3814824E-34
   3.840000     -3.9933522E-34
   3.850000     -1.3467651E-34
   3.860000      1.5678345E-34
   3.870000      4.6115089E-34
   3.880000      7.6008461E-34
   3.890000      1.0598361E-33
   3.900000      1.3704462E-33
   3.910000      1.6907820E-33
   3.920000      2.0227644E-33
   3.930000      2.3715275E-33
   3.940000      2.7402006E-33
   3.950000      3.1337500E-33
   3.960000      3.5497615E-33
   3.970000      3.9865973E-33
   3.980000      4.4487645E-33
   3.990000      4.9345615E-33
   4.000000      5.4342241E-33
   4.010000      5.9427323E-33
   4.020000      6.4574879E-33
   4.030000      6.9740434E-33
   4.040000      7.4863011E-33
   4.050000      7.9879573E-33
   4.060000      8.4748786E-33
   4.070000      8.9420406E-33
   4.080000      9.3856891E-33
   4.090000      9.8041129E-33
   4.100000      1.0192172E-32
   4.110000      1.0547720E-32
   4.120000      1.0869739E-32
   4.130000      1.1155070E-32
   4.140000      1.1400791E-32
   4.150000      1.1604085E-32
   4.160000      1.1764065E-32
   4.170000      1.1875208E-32
   4.180000      1.1929244E-32
   4.190000      1.1919848E-32
   4.200000      1.1837778E-32
   4.210000      1.1677467E-32
   4.220000      1.1432085E-32
   4.230000      1.1091395E-32
   4.240000      1.0642474E-32
   4.250000      1.0084084E-32
   4.260000      9.4171975E-33
   4.270000      8.6263829E-33
   4.280000      7.7095054E-33
   4.290000      6.6683620E-33
   4.300000      5.5048066E-33
   4.310000      4.2157327E-33
   4.320000      2.7974382E-33
   4.330000      1.2526167E-33
   4.340000     -4.2265900E-34
   4.350000     -2.2288592E-33
   4.360000     -4.1719580E-33
   4.370000     -6.2574532E-33
   4.380000     -8.4898147E-33
   4.390000     -1.0874290E-32
   4.400000     -1.3410726E-32
   4.410000     -1.6100947E-32
   4.420000     -1.8944241E-32
   4.430000     -2.1937912E-32
   4.440000     -2.5075522E-32
   4.450000     -2.8349289E-32
   4.460000     -3.1750743E-32
   4.470000     -3.5266382E-32
   4.480000     -3.8883675E-32
   4.490000     -4.2590529E-32
   4.500000     -4.6372844E-32
   4.510000     -5.0215855E-32
   4.520000     -5.4105536E-32
   4.530000     -5.8028226E-32
   4.540000     -6.1968065E-32
   4.550000     -6.5909057E-32
   4.560000     -6.9835502E-32
   4.570000     -7.3729216E-32
   4.580000     -7.7569714E-32
   4.590000     -8.1334811E-32
   4.600000     -8.4999203E-32
   4.610000     -8.8534373E-32
   4.620000     -9.1908741E-32
   4.630000     -9.5089288E-32
   4.640000     -9.8042635E-32
   4.650000     -1.0072967E-31
   4.660000     -1.0310826E-31
   4.670000     -1.0513879E-31
   4.680000     -1.0678197E-31
   4.690000     -1.0799764E-31
   4.700000     -1.0874562E-31
   4.710000     -1.0898541E-31
   4.720000     -1.0867732E-31
   4.730000     -1.0777508E-31
   4.740000     -1.0624402E-31
   4.750000     -1.0404822E-31
   4.760000     -1.0113754E-31
   4.770000     -9.7466314E-32
   4.780000     -9.2986734E-32
   4.790000     -8.7651506E-32
   4.800000     -8.1408867E-32
   4.810000     -7.4205638E-32
   4.820000     -6.5994428E-32
   4.830000     -5.6727359E-32
   4.840000     -4.6357512E-32
   4.850000     -3.4839704E-32
   4.860000     -2.2131824E-32
   4.870000     -8.1973738E-33
   4.880000      6.9986406E-33
   4.890000      2.3484339E-32
   4.900000      4.1283943E-32
   4.910000      6.0421003E-32
   4.920000      8.0914254E-32
   4.930000      1.0277894E-31
   4.940000      1.2602687E-31
   4.950000      1.5066510E-31
   4.960000      1.7669930E-31
   4.970000      2.0413035E-31
   4.980000      2.3295084E-31
   4.990000      2.6314814E-31
   5.000000      2.9470222E-31
   5.010000      3.2758460E-31
   5.020000      3.6175712E-31
   5.030000      3.9717095E-31
   5.040000      4.3376644E-31
   5.050000      4.7147240E-31
   5.060000      5.1020597E-31
   5.070000      5.4987228E-31
   5.080000      5.9036453E-31
   5.090000      6.3156396E-31
   5.100000      6.7333995E-31
   5.110000      7.1554998E-31
   5.120000      7.5803958E-31
   5.130000      8.0064162E-31
   5.140000      8.4317599E-31
   5.150000      8.8544921E-31
   5.160000      9.2725327E-31
   5.170000      9.6836501E-31
   5.180000      1.0085452E-30
   5.190000      1.0475379E-30
   5.200000      1.0850702E-30
   5.210000      1.1208511E-30
   5.220000      1.1545717E-30
   5.230000      1.1859061E-30
   5.240000      1.2145108E-30
   5.250000      1.2400258E-30
   5.260000      1.2620752E-30
   5.270000      1.2802679E-30
   5.280000      1.2941992E-30
   5.290000      1.3034505E-30
   5.300000      1.3075911E-30
   5.310000      1.3061784E-30
   5.320000      1.2987584E-30
   5.330000      1.2848662E-30
   5.340000      1.2640268E-30
   5.350000      1.2357553E-30
   5.360000      1.1995582E-30
   5.370000      1.1549337E-30
   5.380000      1.1013736E-30
   5.390000      1.0383644E-30
   5.400000      9.6538959E-31
   5.410000      8.8193138E-31
   5.420000      7.8747406E-31
   5.430000      6.8150719E-31
   5.440000      5.6352752E-31
   5.450000      4.3304290E-31
   5.460000      2.8957551E-31
   5.470000      1.3266592E-31
   5.480000     -3.8124476E-32
   5.490000     -2.2321013E-31
   5.500000     -4.2297757E-31
   5.510000     -6.3778223E-31
   5.520000     -8.6794563E-31
   5.530000     -1.1137508E-30
   5.540000     -1.3754396E-30
   5.550000     -1.6532087E-30
   5.560000     -1.9472043E-30
   5.570000     -2.2575187E-30
   5.580000     -2.5841833E-30
   5.590000     -2.9271649E-30
   5.600000     -3.2863598E-30
   5.610000     -3.6615878E-30
   5.620000     -4.0525866E-30
   5.630000     -4.4590033E-30
   5.640000     -4.8803934E-30
   5.650000     -5.3162106E-30
   5.660000     -5.7658047E-30
   5.670000     -6.2284138E-30
   5.680000     -6.7031601E-30
   5.690000     -7.1890443E-30
   5.700000     -7.6849412E-30
   5.710000     -8.1895973E-30
   5.720000     -8.7016223E-30
   5.730000     -9.2194853E-30
   5.740000     -9.7415116E-30
   5.750000     -1.0265876E-29
   5.760000     -1.0790599E-29
   5.770000     -1.1313542E-29
   5.780000     -1.1832404E-29
   5.790000     -1.2344712E-29
   5.800000     -1.2847826E-29
   5.810000     -1.3338931E-29
   5.820000     -1.3815033E-29
   5.830000     -1.4272961E-29
   5.840000     -1.4709370E-29
   5.850000     -1.5120730E-29
   5.860000     -1.5503339E-29
   5.870000     -1.5853313E-29
   5.880000     -1.6166604E-29
   5.890000     -1.6438989E-29
   5.900000     -1.6666081E-29
   5.910000     -1.6843336E-29
   5.920000     -1.6966047E-29
   5.930000     -1.7029367E-29
   5.940000     -1.7028307E-29
   5.950000     -1.6957748E-29
   5.960000     -1.6812448E-29
   5.970000     -1.6587052E-29
   5.980000     -1.6276111E-29
   5.990000     -1.5874082E-29
   6.000000     -1.5375364E-29
   6.010000     -1.4774302E-29
   6.020000     -1.4065208E-29
   6.030000     -1.3242383E-29
   6.040000     -1.2300141E-29
   6.050000     -1.1232830E-29
   6.060000     -1.0034858E-29
   6.070000     -8.7007256E-30
   6.080000     -7.2250547E-30
   6.090000     -5.6026096E-30
   6.100000     -3.8283380E-30
   6.110000     -1.8974010E-30
   6.120000      1.9479612E-31
   6.130000      2.4525591E-30
   6.140000      4.8798773E-30
   6.150000      7.4803789E-30
   6.160000      1.0257286E-29
   6.170000      1.3213371E-29
   6.180000      1.6350923E-29
   6.190000      1.9671692E-29
   6.200000      2.3176850E-29
   6.210000      2.6866924E-29
   6.220000      3.0741757E-29
   6.230000      3.4800471E-29
   6.240000      3.9041384E-29
   6.250000      4.3461983E-29
   6.260000      4.8058861E-29
   6.270000      5.2827675E-29
   6.280000      5.7763063E-29
   6.290000      6.2858622E-29
   6.300000      6.8106847E-29
   6.310000      7.3499096E-29
   6.320000      7.9025522E-29
   6.330000      8.4675009E-29
   6.340000      9.0435152E-29
   6.350000      9.6292194E-29
   6.360000      1.0223096E-28
   6.370000      1.0823483E-28
   6.380000      1.1428571E-28
   6.390000      1.2036395E-28
   6.400000      1.2644836E-28
   6.410000      1.3251615E-28
   6.420000      1.3854288E-28
   6.430000      1.4450249E-28
   6.440000      1.5036722E-28
   6.450000      1.5610766E-28
   6.460000      1.6169268E-28
   6.470000      1.6708943E-28
   6.480000      1.7226340E-28
   6.490000      1.7717834E-28
   6.500000      1.8179639E-28
   6.510000      1.8607798E-28
   6.520000      1.8998199E-28
   6.530000      1.9346563E-28
   6.540000      1.9648466E-28
   6.550000      1.9899331E-28
   6.560000      2.0094443E-28
   6.570000      2.0228952E-28
   6.580000      2.0297886E-28
   6.590000      2.0296158E-28
   6.600000      2.0218569E-28
   6.610000      2.0059836E-28
   6.620000      1.9814599E-28
   6.630000      1.9477429E-28
   6.640000      1.9042850E-28
   6.650000      1.8505359E-28
   6.660000      1.7859436E-28
   6.670000      1.7099570E-28
   6.680000      1.6220276E-28
   6.690000      1.5216119E-28
   6.700000      1.4081738E-28
   6.710000      1.2811873E-28
   6.720000      1.1401386E-28
   6.730000      9.8452889E-29
   6.740000      8.1387783E-29
   6.750000      6.2772533E-29
   6.760000      4.2563618E-29
   6.770000      2.0720262E-29
   6.780000     -2.7952208E-30
   6.790000     -2.8017036E-29
   6.800000     -5.4975556E-29
   6.810000     -8.3696991E-29
   6.820000     -1.1420300E-28
   6.830000     -1.4651028E-28
   6.840000     -1.8063015E-28
   6.850000     -2.1656810E-28
   6.860000     -2.5432360E-28
   6.870000     -2.9388942E-28
   6.880000     -3.3525137E-28
   6.890000     -3.7838770E-28
   6.900000     -4.2326880E-28
   6.910000     -4.6985690E-28
   6.920000     -5.1810530E-28
   6.930000     -5.6795828E-28
   6.940000     -6.1935047E-28
   6.950000     -6.7220661E-28
   6.960000     -7.2644089E-28
   6.970000     -7.8195678E-28
   6.980000     -8.3864677E-28
   6.990000     -8.9639135E-28
   7.000000     -9.5505951E-28
   7.010000     -1.0145081E-27
   7.020000     -1.0745814E-27
   7.030000     -1.1351109E-27
   7.040000     -1.1959152E-27
   7.050000     -1.2567992E-27
   7.060000     -1.3175546E-27