  -2.600000      0.0000000E+00
  -2.590000      0.0000000E+00
  -2.580000      0.0000000E+00
  -2.570000      0.0000000E+00
  -2.560000      0.0000000E+00
  -2.550000      0.0000000E+00
  -2.540000      0.0000000E+00
  -2.530000      0.0000000E+00
  -2.520000      0.0000000E+00
  -2.510000      0.0000000E+00
  -2.500000      0.0000000E+00
  -2.490000      0.0000000E+00
  -2.480000      0.0000000E+00
  -2.470000      0.0000000E+00
  -2.460000      0.0000000E+00
  -2.450000      0.0000000E+00
  -2.440000      0.0000000E+00
  -2.430000      0.0000000E+00
  -2.420000      0.0000000E+00
  -2.410000      0.0000000E+00
  -2.400000      0.0000000E+00
  -2.390000      0.0000000E+00
  -2.380000      0.0000000E+00
  -2.370000      0.0000000E+00
  -2.360000      0.0000000E+00
  -2.350000      0.0000000E+00
  -2.340000      0.0000000E+00
  -2.330000      0.0000000E+00
  -2.320000      0.0000000E+00
  -2.310000      0.0000000E+00
  -2.300000      0.0000000E+00
  -2.290000      0.0000000E+00
  -2.280000      0.0000000E+00
  -2.270000      0.0000000E+00
  -2.260000      0.0000000E+00
  -2.250000      0.0000000E+00
  -2.240000      0.0000000E+00
  -2.230000      0.0000000E+00
  -2.220000      0.0000000E+00
  -2.210000      0.0000000E+00
  -2.200000      0.0000000E+00
  -2.190000      0.0000000E+00
  -2.180000      0.0000000E+00
  -2.170000      0.0000000E+00
  -2.160000      0.0000000E+00
  -2.150000      0.0000000E+00
  -2.140000      0.0000000E+00
  -2.130000      0.0000000E+00
  -2.120000      0.0000000E+00
  -2.110000      0.0000000E+00
  -2.100000      0.0000000E+00
  -2.090000      0.0000000E+00
  -2.080000      0.0000000E+00
  -2.070000      0.0000000E+00
  -2.060000      0.0000000E+00
  -2.050000      0.0000000E+00
  -2.040000      0.0000000E+00
  -2.030000      0.0000000E+00
  -2.020000      0.0000000E+00
  -2.010000      0.0000000E+00
  -2.000000      0.0000000E+00
  -1.990000      0.0000000E+00
  -1.980000      0.0000000E+00
  -1.970000      0.0000000E+00
  -1.960000      0.0000000E+00
  -1.950000      0.0000000E+00
  -1.940000      0.0000000E+00
  -1.930000      0.0000000E+00
  -1.920000      0.0000000E+00
  -1.910000      0.0000000E+00
  -1.900000      0.0000000E+00
  -1.890000      0.0000000E+00
  -1.880000      0.0000000E+00
  -1.870000      0.0000000E+00
  -1.860000      0.0000000E+00
  -1.850000      0.0000000E+00
  -1.840000      0.0000000E+00
  -1.830000      0.0000000E+00
  -1.820000      0.0000000E+00
  -1.810000      0.0000000E+00
  -1.800000      0.0000000E+00
  -1.790000      0.0000000E+00
  -1.780000      0.0000000E+00
  -1.770000      0.0000000E+00
  -1.760000      0.0000000E+00
  -1.750000      0.0000000E+00
  -1.740000      0.0000000E+00
  -1.730000      0.0000000E+00
  -1.720000      0.0000000E+00
  -1.710000      0.0000000E+00
  -1.700000      0.0000000E+00
  -1.690000      0.0000000E+00
  -1.680000      0.0000000E+00
  -1.670000      0.0000000E+00
  -1.660000      0.0000000E+00
  -1.650000      0.0000000E+00
  -1.640000      0.0000000E+00
  -1.630000      0.0000000E+00
  -1.620000      0.0000000E+00
  -1.610000      0.0000000E+00
  -1.600000      0.0000000E+00
  -1.590000      0.0000000E+00
  -1.580000      0.0000000E+00
  -1.570000      0.0000000E+00
  -1.560000      0.0000000E+00
  -1.550000      0.0000000E+00
  -1.540000      0.0000000E+00
  -1.530000      0.0000000E+00
  -1.520000      0.0000000E+00
  -1.510000      0.0000000E+00
  -1.500000      0.0000000E+00
  -1.490000      0.0000000E+00
  -1.480000      0.0000000E+00
  -1.470000      0.0000000E+00
  -1.460000      0.0000000E+00
  -1.450000      0.0000000E+00
  -1.440000      0.0000000E+00
  -1.430000      0.0000000E+00
  -1.420000      0.0000000E+00
  -1.410000      0.0000000E+00
  -1.400000      0.0000000E+00
  -1.390000      0.0000000E+00
  -1.380000      0.0000000E+00
  -1.370000      0.0000000E+00
  -1.360000      0.0000000E+00
  -1.350000      0.0000000E+00
  -1.340000      0.0000000E+00
  -1.330000      0.0000000E+00
  -1.320000      0.0000000E+00
  -1.310000      0.0000000E+00
  -1.300000      0.0000000E+00
  -1.290000      0.0000000E+00
  -1.280000      0.0000000E+00
  -1.270000      0.0000000E+00
  -1.260000      0.0000000E+00
  -1.250000      0.0000000E+00
  -1.240000      0.0000000E+00
  -1.230000      0.0000000E+00
  -1.220000      0.0000000E+00
  -1.210000      0.0000000E+00
  -1.200000      0.0000000E+00
  -1.190000      0.0000000E+00
  -1.180000      0.0000000E+00
  -1.170000      0.0000000E+00
  -1.160000      0.0000000E+00
  -1.150000      0.0000000E+00
  -1.140000      0.0000000E+00
  -1.130000      0.0000000E+00
  -1.120000      0.0000000E+00
  -1.110000      0.0000000E+00
  -1.100000      0.0000000E+00
  -1.090000      0.0000000E+00
  -1.080000      0.0000000E+00
  -1.070000      0.0000000E+00
  -1.060000      0.0000000E+00
  -1.050000      0.0000000E+00
  -1.040000      0.0000000E+00
  -1.030000      0.0000000E+00
  -1.020000      0.0000000E+00
  -1.010000      0.0000000E+00
  -1.000000      0.0000000E+00
 -0.9900000      0.0000000E+00
 -0.9800000      0.0000000E+00
 -0.9700000      0.0000000E+00
 -0.9600000      0.0000000E+00
 -0.9500000      0.0000000E+00
 -0.9400000      0.0000000E+00
 -0.9300000      0.0000000E+00
 -0.9200000      0.0000000E+00
 -0.9100000      0.0000000E+00
 -0.9000000      0.0000000E+00
 -0.8900000      0.0000000E+00
 -0.8800000      0.0000000E+00
 -0.8700000      0.0000000E+00
 -0.8600000      0.0000000E+00
 -0.8500000      0.0000000E+00
 -0.8400000      0.0000000E+00
 -0.8300000      0.0000000E+00
 -0.8200000      0.0000000E+00
 -0.8100000      0.0000000E+00
 -0.8000000      0.0000000E+00
 -0.7900000      0.0000000E+00
 -0.7800000      0.0000000E+00
 -0.7700000      0.0000000E+00
 -0.7600000      0.0000000E+00
 -0.7500000      0.0000000E+00
 -0.7400000      0.0000000E+00
 -0.7300000      0.0000000E+00
 -0.7200000      0.0000000E+00
 -0.7100000      0.0000000E+00
 -0.7000000      0.0000000E+00
 -0.6900000      0.0000000E+00
 -0.6800000      0.0000000E+00
 -0.6700000      0.0000000E+00
 -0.6600000      0.0000000E+00
 -0.6500000      0.0000000E+00
 -0.6400000      0.0000000E+00
 -0.6300000      0.0000000E+00
 -0.6200000      0.0000000E+00
 -0.6100000      0.0000000E+00
 -0.6000000      0.0000000E+00
 -0.5900000      0.0000000E+00
 -0.5800000      0.0000000E+00
 -0.5700000      0.0000000E+00
 -0.5600000      0.0000000E+00
 -0.5500000      0.0000000E+00
 -0.5400000      0.0000000E+00
 -0.5300000      0.0000000E+00
 -0.5200000      0.0000000E+00
 -0.5100000      0.0000000E+00
 -0.5000000      0.0000000E+00
 -0.4900000      0.0000000E+00
 -0.4800000      0.0000000E+00
 -0.4700000      0.0000000E+00
 -0.4600000      0.0000000E+00
 -0.4500000      0.0000000E+00
 -0.4400000      0.0000000E+00
 -0.4300000      0.0000000E+00
 -0.4200000      0.0000000E+00
 -0.4100000      0.0000000E+00
 -0.4000000      0.0000000E+00
 -0.3900000      0.0000000E+00
 -0.3800000      0.0000000E+00
 -0.3700000      0.0000000E+00
 -0.3600000      0.0000000E+00
 -0.3500000      0.0000000E+00
 -0.3400000      0.0000000E+00
 -0.3300000      0.0000000E+00
 -0.3200000      0.0000000E+00
 -0.3100000      0.0000000E+00
 -0.3000000      0.0000000E+00
 -0.2900000      0.0000000E+00
 -0.2800000      0.0000000E+00
 -0.2700000      0.0000000E+00
 -0.2600000      0.0000000E+00
 -0.2500000      0.0000000E+00
 -0.2400000      0.0000000E+00
 -0.2300000      0.0000000E+00
 -0.2200000      0.0000000E+00
 -0.2100000      0.0000000E+00
 -0.2000000      0.0000000E+00
 -0.1900000      0.0000000E+00
 -0.1800000      0.0000000E+00
 -0.1700000      0.0000000E+00
 -0.1600000      0.0000000E+00
 -0.1500000      0.0000000E+00
 -0.1400000      0.0000000E+00
 -0.1300000      0.0000000E+00
 -0.1200000      0.0000000E+00
 -0.1100000      0.0000000E+00
 -0.1000000      0.0000000E+00
 -9.0000004E-02  0.0000000E+00
 -7.9999998E-02  0.0000000E+00
 -7.0000000E-02  0.0000000E+00
 -5.9999999E-02  0.0000000E+00
 -5.0000001E-02  0.0000000E+00
 -3.9999999E-02  0.0000000E+00
 -2.9999999E-02  0.0000000E+00
 -2.0000000E-02  0.0000000E+00
 -9.9999998E-03  0.0000000E+00
 -3.4694470E-17  0.0000000E+00
  9.9999998E-03  0.0000000E+00
  2.0000000E-02  0.0000000E+00
  2.9999999E-02  0.0000000E+00
  3.9999999E-02  0.0000000E+00
  5.0000001E-02  0.0000000E+00
  5.9999999E-02  0.0000000E+00
  7.0000000E-02  0.0000000E+00
  7.9999998E-02  0.0000000E+00
  9.0000004E-02  0.0000000E+00
  0.1000000      0.0000000E+00
  0.1100000      0.0000000E+00
  0.1200000      0.0000000E+00
  0.1300000      0.0000000E+00
  0.1400000      0.0000000E+00
  0.1500000      0.0000000E+00
  0.1600000      0.0000000E+00
  0.1700000      0.0000000E+00
  0.1800000      0.0000000E+00
  0.1900000      0.0000000E+00
  0.2000000      0.0000000E+00
  0.2100000      0.0000000E+00
  0.2200000      0.0000000E+00
  0.2300000      0.0000000E+00
  0.2400000      0.0000000E+00
  0.2500000      0.0000000E+00
  0.2600000      0.0000000E+00
  0.2700000      0.0000000E+00
  0.2800000      0.0000000E+00
  0.2900000      0.0000000E+00
  0.3000000      0.0000000E+00
  0.3100000      0.0000000E+00
  0.3200000      0.0000000E+00
  0.3300000      0.0000000E+00
  0.3400000      0.0000000E+00
  0.3500000      0.0000000E+00
  0.3600000      0.0000000E+00
  0.3700000      0.0000000E+00
  0.3800000      0.0000000E+00
  0.3900000      0.0000000E+00
  0.4000000      0.0000000E+00
  0.4100000      0.0000000E+00
  0.4200000      0.0000000E+00
  0.4300000      0.0000000E+00
  0.4400000      0.0000000E+00
  0.4500000      0.0000000E+00
  0.4600000      0.0000000E+00
  0.4700000      0.0000000E+00
  0.4800000      0.0000000E+00
  0.4900000      0.0000000E+00
  0.5000000      0.0000000E+00
  0.5100000      0.0000000E+00
  0.5200000      0.0000000E+00
  0.5300000      0.0000000E+00
  0.5400000      0.0000000E+00
  0.5500000      0.0000000E+00
  0.5600000      0.0000000E+00
  0.5700000      0.0000000E+00
  0.5800000      0.0000000E+00
  0.5900000      0.0000000E+00
  0.6000000      0.0000000E+00
  0.6100000      0.0000000E+00
  0.6200000      0.0000000E+00
  0.6300000      0.0000000E+00
  0.6400000      0.0000000E+00
  0.6500000      0.0000000E+00
  0.6600000      0.0000000E+00
  0.6700000      0.0000000E+00
  0.6800000      0.0000000E+00
  0.6900000      0.0000000E+00
  0.7000000      0.0000000E+00
  0.7100000      0.0000000E+00
  0.7200000      0.0000000E+00
  0.7300000      0.0000000E+00
  0.7400000      0.0000000E+00
  0.7500000      0.0000000E+00
  0.7600000      0.0000000E+00
  0.7700000      0.0000000E+00
  0.7800000      0.0000000E+00
  0.7900000      0.0000000E+00
  0.8000000      0.0000000E+00
  0.8100000      0.0000000E+00
  0.8200000      0.0000000E+00
  0.8300000      0.0000000E+00
  0.8400000      0.0000000E+00
  0.8500000      0.0000000E+00
  0.8600000      0.0000000E+00
  0.8700000      0.0000000E+00
  0.8800000      0.0000000E+00
  0.8900000      0.0000000E+00
  0.9000000      0.0000000E+00
  0.9100000      0.0000000E+00
  0.9200000      0.0000000E+00
  0.9300000      0.0000000E+00
  0.9400000      0.0000000E+00
  0.9500000      0.0000000E+00
  0.9600000      0.0000000E+00
  0.9700000      0.0000000E+00
  0.9800000      0.0000000E+00
  0.9900000      0.0000000E+00
   1.000000      0.0000000E+00
   1.010000      0.0000000E+00
   1.020000      0.0000000E+00
   1.030000      0.0000000E+00
   1.040000      0.0000000E+00
   1.050000      0.0000000E+00
   1.060000      0.0000000E+00
   1.070000      0.0000000E+00
   1.080000      0.0000000E+00
   1.090000      0.0000000E+00
   1.100000      0.0000000E+00
   1.110000      0.0000000E+00
   1.120000      0.0000000E+00
   1.130000      0.0000000E+00
   1.140000      0.0000000E+00
   1.150000      0.0000000E+00
   1.160000      0.0000000E+00
   1.170000      0.0000000E+00
   1.180000      0.0000000E+00
   1.190000      0.0000000E+00
   1.200000      0.0000000E+00
   1.210000      0.0000000E+00
   1.220000      0.0000000E+00
   1.230000      0.0000000E+00
   1.240000      0.0000000E+00
   1.250000      0.0000000E+00
   1.260000      0.0000000E+00
   1.270000      0.0000000E+00
   1.280000      0.0000000E+00
   1.290000      0.0000000E+00
   1.300000      0.0000000E+00
   1.310000      0.0000000E+00
   1.320000      0.0000000E+00
   1.330000      0.0000000E+00
   1.340000      0.0000000E+00
   1.350000      0.0000000E+00
   1.360000      0.0000000E+00
   1.370000      0.0000000E+00
   1.380000      0.0000000E+00
   1.390000      0.0000000E+00
   1.400000      0.0000000E+00
   1.410000      0.0000000E+00
   1.420000      0.0000000E+00
   1.430000      0.0000000E+00
   1.440000      0.0000000E+00
   1.450000      0.0000000E+00
   1.460000      0.0000000E+00
   1.470000      0.0000000E+00
   1.480000      0.0000000E+00
   1.490000      0.0000000E+00
   1.500000      0.0000000E+00
   1.510000      0.0000000E+00
   1.520000      0.0000000E+00
   1.530000      0.0000000E+00
   1.540000      0.0000000E+00
   1.550000      0.0000000E+00
   1.560000      0.0000000E+00
   1.570000      0.0000000E+00
   1.580000      0.0000000E+00
   1.590000      0.0000000E+00
   1.600000      0.0000000E+00
   1.610000      0.0000000E+00
   1.620000      0.0000000E+00
   1.630000      0.0000000E+00
   1.640000      0.0000000E+00
   1.650000      0.0000000E+00
   1.660000      0.0000000E+00
   1.670000      0.0000000E+00
   1.680000      0.0000000E+00
   1.690000      1.2535325E-38
   1.700000      1.3177613E-38
   1.710000      1.3370662E-38
   1.720000      1.3202691E-38
   1.730000      1.3035017E-38
   1.740000      1.2926928E-38
   1.750000      1.2538481E-38
   1.760000      0.0000000E+00
   1.770000      0.0000000E+00
   1.780000      0.0000000E+00
   1.790000      0.0000000E+00
   1.800000      0.0000000E+00
   1.810000      0.0000000E+00
   1.820000      0.0000000E+00
   1.830000      0.0000000E+00
   1.840000      0.0000000E+00
   1.850000      0.0000000E+00
   1.860000     -1.4889861E-38
   1.870000     -2.4701324E-38
   1.880000     -3.5983439E-38
   1.890000     -4.8064975E-38
   1.900000     -6.0843763E-38
   1.910000     -7.2399638E-38
   1.920000     -8.2117267E-38
   1.930000     -9.1266031E-38
   1.940000     -9.9614306E-38
   1.950000     -1.0645895E-37
   1.960000     -1.1255161E-37
   1.970000     -1.1907927E-37
   1.980000     -1.2813599E-37
   1.990000     -1.4108925E-37
   2.000000     -1.5548430E-37
   2.010000     -1.7054033E-37
   2.020000     -1.8313326E-37
   2.030000     -1.9138607E-37
   2.040000     -1.9894618E-37
   2.050000     -2.0553378E-37
   2.060000     -2.2233522E-37
   2.070000     -2.5359269E-37
   2.080000     -2.9867762E-37
   2.090000     -3.5630282E-37
   2.100000     -4.1707880E-37
   2.110000     -4.8005759E-37
   2.120000     -5.4500564E-37
   2.130000     -6.1029014E-37
   2.140000     -6.8250271E-37
   2.150000     -7.6881727E-37
   2.160000     -8.5478157E-37
   2.170000     -9.1485750E-37
   2.180000     -9.2143755E-37
   2.190000     -8.8368859E-37
   2.200000     -8.2593670E-37
   2.210000     -7.5898325E-37
   2.220000     -6.7857333E-37
   2.230000     -5.6597494E-37
   2.240000     -4.2103575E-37
   2.250000     -2.4644208E-37
   2.260000     -3.5771484E-38
   2.270000      2.0542737E-37
   2.280000      4.6724035E-37
   2.290000      7.5508652E-37
   2.300000      1.0397752E-36
   2.310000      1.3028336E-36
   2.320000      1.5593142E-36
   2.330000      1.8008663E-36
   2.340000      2.0680484E-36
   2.350000      2.3933672E-36
   2.360000      2.7837834E-36
   2.370000      3.2422056E-36
   2.380000      3.7551785E-36
   2.390000      4.2519996E-36
   2.400000      4.7258525E-36
   2.410000      5.2268933E-36
   2.420000      5.8161655E-36
   2.430000      6.6353399E-36
   2.440000      7.5988011E-36
   2.450000      8.4805970E-36
   2.460000      9.3748150E-36
   2.470000      1.0337341E-35
   2.480000      1.1013755E-35
   2.490000      1.1390033E-35
   2.500000      1.1725342E-35
   2.510000      1.2004996E-35
   2.520000      1.2142593E-35
   2.530000      1.2163613E-35
   2.540000      1.2063618E-35
   2.550000      1.1788853E-35
   2.560000      1.1016379E-35
   2.570000      9.8078315E-36
   2.580000      8.5526498E-36
   2.590000      7.1685353E-36
   2.600000      5.7076069E-36
   2.610000      4.1384805E-36
   2.620000      2.5827485E-36
   2.630000      9.3565124E-37
   2.640000     -7.7695870E-37
   2.650000     -2.2924052E-36
   2.660000     -4.1167503E-36
   2.670000     -6.2698891E-36
   2.680000     -8.7845890E-36
   2.690000     -1.1876939E-35
   2.700000     -1.5290184E-35
   2.710000     -1.8818824E-35
   2.720000     -2.2328408E-35
   2.730000     -2.5896410E-35
   2.740000     -2.9567569E-35
   2.750000     -3.3695838E-35
   2.760000     -3.8383131E-35
   2.770000     -4.3517254E-35
   2.780000     -4.8626631E-35
   2.790000     -5.3304743E-35
   2.800000     -5.7831251E-35
   2.810000     -6.2404883E-35
   2.820000     -6.6862882E-35
   2.830000     -7.0810322E-35
   2.840000     -7.4145913E-35
   2.850000     -7.7019061E-35
   2.860000     -7.9782615E-35
   2.870000     -8.1767358E-35
   2.880000     -8.2644439E-35
   2.890000     -8.2806747E-35
   2.900000     -8.1890590E-35
   2.910000     -7.9842486E-35
   2.920000     -7.6955006E-35
   2.930000     -7.3222754E-35
   2.940000     -6.8729439E-35
   2.950000     -6.3768273E-35
   2.960000     -5.8349927E-35
   2.970000     -5.2582457E-35
   2.980000     -4.6565025E-35
   2.990000     -3.9464491E-35
   3.000000     -3.1058042E-35
   3.010000     -2.2175606E-35
   3.020000     -1.2309063E-35
   3.030000     -1.4315203E-36
   3.040000      1.0185021E-35
   3.050000      2.2046919E-35
   3.060000      3.4214907E-35
   3.070000      4.7931812E-35
   3.080000      6.2836820E-35
   3.090000      7.8941092E-35
   3.100000      9.7273041E-35
   3.110000      1.1756350E-34
   3.120000      1.3963415E-34
   3.130000      1.6429382E-34
   3.140000      1.8994597E-34
   3.150000      2.1558493E-34
   3.160000      2.3966167E-34
   3.170000      2.6060694E-34
   3.180000      2.8103921E-34
   3.190000      3.0210522E-34
   3.200000      3.2410579E-34
   3.210000      3.4692181E-34
   3.220000      3.6922507E-34
   3.230000      3.9167352E-34
   3.240000      4.1435170E-34
   3.250000      4.3602566E-34
   3.260000      4.5550985E-34
   3.270000      4.7364074E-34
   3.280000      4.9176962E-34
   3.290000      5.0834735E-34
   3.300000      5.2256468E-34
   3.310000      5.3284296E-34
   3.320000      5.3799502E-34
   3.330000      5.3867809E-34
   3.340000      5.3380861E-34
   3.350000      5.2195939E-34
   3.360000      5.0324855E-34
   3.370000      4.7915914E-34
   3.380000      4.5054182E-34
   3.390000      4.1617680E-34
   3.400000      3.7529992E-34
   3.410000      3.3038589E-34
   3.420000      2.8169627E-34
   3.430000      2.2774110E-34
   3.440000      1.6432722E-34
   3.450000      8.9573370E-35
   3.460000      8.6992580E-36
   3.470000     -7.6048997E-35
   3.480000     -1.6431704E-34
   3.490000     -2.5650361E-34
   3.500000     -3.5535410E-34
   3.510000     -4.6008661E-34
   3.520000     -5.6859709E-34
   3.530000     -6.8103611E-34
   3.540000     -8.0049595E-34
   3.550000     -9.2673128E-34
   3.560000     -1.0589944E-33
   3.570000     -1.1908768E-33
   3.580000     -1.3209499E-33
   3.590000     -1.4556827E-33
   3.600000     -1.5957865E-33
   3.610000     -1.7368515E-33
   3.620000     -1.8758462E-33
   3.630000     -2.0151801E-33
   3.640000     -2.1533442E-33
   3.650000     -2.2862709E-33
   3.660000     -2.4105102E-33
   3.670000     -2.5262116E-33
   3.680000     -2.6341635E-33
   3.690000     -2.7343404E-33
   3.700000     -2.8229157E-33
   3.710000     -2.8987955E-33
   3.720000     -2.9660088E-33
   3.730000     -3.0243936E-33
   3.740000     -3.0700116E-33
   3.750000     -3.1035721E-33
   3.760000     -3.1237021E-33
   3.770000     -3.1284155E-33
   3.780000     -3.1185490E-33
   3.790000     -3.0886118E-33
   3.800000     -3.0314479E-33
   3.810000     -2.9469181E-33
   3.820000     -2.8312683E-33
   3.830000     -2.6816604E-33
   3.840000     -2.5037005E-33
   3.850000     -2.2949676E-33
   3.860000     -2.0502748E-33
   3.870000     -1.7676629E-33
   3.880000     -1.4482989E-33
   3.890000     -1.0954164E-33
   3.900000     -7.0905195E-34
   3.910000     -2.8331928E-34
   3.920000      1.8430765E-34
   3.930000      6.8975175E-34
   3.940000      1.2328764E-33
   3.950000      1.8142020E-33
   3.960000      2.4302492E-33
   3.970000      3.0804612E-33
   3.980000      3.7651738E-33
   3.990000      4.4830790E-33
   4.000000      5.2333413E-33
   4.010000      6.0103500E-33
   4.020000      6.8113807E-33
   4.030000      7.6333231E-33
   4.040000      8.4708841E-33
   4.050000      9.3248470E-33
   4.060000      1.0192326E-32
   4.070000      1.1066764E-32
   4.080000      1.1942115E-32
   4.090000      1.2813604E-32
   4.100000      1.3680725E-32
   4.110000      1.4539434E-32
   4.120000      1.5381949E-32
   4.130000      1.6202920E-32
   4.140000      1.6996734E-32
   4.150000      1.7756171E-32
   4.160000      1.8474902E-32
   4.170000      1.9145986E-32
   4.180000      1.9760225E-32
   4.190000      2.0308386E-32
   4.200000      2.0783561E-32
   4.210000      2.1174246E-32
   4.220000      2.1469149E-32
   4.230000      2.1661249E-32
   4.240000      2.1742564E-32
   4.250000      2.1705716E-32
   4.260000      2.1538464E-32
   4.270000      2.1227609E-32
   4.280000      2.0762955E-32
   4.290000      2.0135535E-32
   4.300000      1.9334528E-32
   4.310000      1.8347379E-32
   4.320000      1.7165097E-32
   4.330000      1.5778849E-32
   4.340000      1.4182303E-32
   4.350000      1.2367142E-32
   4.360000      1.0323540E-32
   4.370000      8.0444023E-33
   4.380000      5.5231675E-33
   4.390000      2.7552629E-33
   4.400000     -2.6388576E-34
   4.410000     -3.5381388E-33
   4.420000     -7.0705082E-33
   4.430000     -1.0862352E-32
   4.440000     -1.4913786E-32
   4.450000     -1.9222853E-32
   4.460000     -2.3789001E-32
   4.470000     -2.8609452E-32
   4.480000     -3.3677819E-32
   4.490000     -3.8988044E-32
   4.500000     -4.4532140E-32
   4.510000     -5.0300161E-32
   4.520000     -5.6281770E-32
   4.530000     -6.2464953E-32
   4.540000     -6.8831712E-32
   4.550000     -7.5363682E-32
   4.560000     -8.2043146E-32
   4.570000     -8.8848600E-32
   4.580000     -9.5756111E-32
   4.590000     -1.0273941E-31
   4.600000     -1.0976914E-31
   4.610000     -1.1681396E-31
   4.620000     -1.2383992E-31
   4.630000     -1.3080966E-31
   4.640000     -1.3768375E-31
   4.650000     -1.4441966E-31
   4.660000     -1.5097164E-31
   4.670000     -1.5729223E-31
   4.680000     -1.6332930E-31
   4.690000     -1.6902722E-31
   4.700000     -1.7433016E-31
   4.710000     -1.7917862E-31
   4.720000     -1.8351058E-31
   4.730000     -1.8726257E-31
   4.740000     -1.9036827E-31
   4.750000     -1.9276023E-31
   4.760000     -1.9436417E-31
   4.770000     -1.9510353E-31
   4.780000     -1.9490653E-31
   4.790000     -1.9369788E-31
   4.800000     -1.9139857E-31
   4.810000     -1.8792959E-31
   4.820000     -1.8321177E-31
   4.830000     -1.7716524E-31
   4.840000     -1.6970975E-31
   4.850000     -1.6076532E-31
   4.860000     -1.5025245E-31
   4.870000     -1.3809247E-31
   4.880000     -1.2420786E-31
   4.890000     -1.0852272E-31
   4.900000     -9.0963179E-32
   4.910000     -7.1457767E-32
   4.920000     -4.9937898E-32
   4.930000     -2.6338464E-32
   4.940000     -5.9829150E-34
   4.950000      2.7339389E-32
   4.960000      5.7526207E-32
   4.970000      9.0008079E-32
   4.980000      1.2482460E-31
   4.990000      1.6200834E-31
   5.000000      2.0158365E-31
   5.010000      2.4356692E-31
   5.020000      2.8796532E-31
   5.030000      3.3477538E-31
   5.040000      3.8398280E-31
   5.050000      4.3556166E-31
   5.060000      4.8947321E-31
   5.070000      5.4566528E-31
   5.080000      6.0407136E-31
   5.090000      6.6460946E-31
   5.100000      7.2718164E-31
   5.110000      7.9167278E-31
   5.120000      8.5794979E-31
   5.130000      9.2586120E-31
   5.140000      9.9523587E-31
   5.150000      1.0658818E-30
   5.160000      1.1375862E-30
   5.170000      1.2101142E-30
   5.180000      1.2832085E-30
   5.190000      1.3565883E-30
   5.200000      1.4299488E-30
   5.210000      1.5029611E-30
   5.220000      1.5752706E-30
   5.230000      1.6464976E-30
   5.240000      1.7162366E-30
   5.250000      1.7840553E-30
   5.260000      1.8494955E-30
   5.270000      1.9120719E-30
   5.280000      1.9712721E-30
   5.290000      2.0265577E-30
   5.300000      2.0773630E-30
   5.310000      2.1230953E-30
   5.320000      2.1631366E-30
   5.330000      2.1968423E-30
   5.340000      2.2235429E-30
   5.350000      2.2425444E-30
   5.360000      2.2531289E-30
   5.370000      2.2545564E-30
   5.380000      2.2460652E-30
   5.390000      2.2268746E-30
   5.400000      2.1961846E-30
   5.410000      2.1531803E-30
   5.420000      2.0970323E-30
   5.430000      2.0268993E-30
   5.440000      1.9419313E-30
   5.450000      1.8412722E-30
   5.460000      1.7240630E-30
   5.470000      1.5894452E-30
   5.480000      1.4365643E-30
   5.490000      1.2645745E-30
   5.500000      1.0726421E-30
   5.510000      8.5995067E-31
   5.520000      6.2570492E-31
   5.530000      3.6913729E-31
   5.540000      8.9512519E-32
   5.550000     -2.1386660E-31
   5.560000     -5.4165346E-31
   5.570000     -8.9445143E-31
   5.580000     -1.2728069E-30
   5.590000     -1.6772029E-30
   5.600000     -2.1080509E-30
   5.610000     -2.5656857E-30
   5.620000     -3.0503569E-30
   5.630000     -3.5622200E-30
   5.640000     -4.1013303E-30
   5.650000     -4.6676330E-30
   5.660000     -5.2609560E-30
   5.670000     -5.8810012E-30
   5.680000     -6.5273362E-30
   5.690000     -7.1993819E-30
   5.700000     -7.8964098E-30
   5.710000     -8.6175269E-30
   5.720000     -9.3616709E-30
   5.730000     -1.0127596E-29
   5.740000     -1.0913870E-29
   5.750000     -1.1718862E-29
   5.760000     -1.2540733E-29
   5.770000     -1.3377424E-29
   5.780000     -1.4226656E-29
   5.790000     -1.5085913E-29
   5.800000     -1.5952439E-29
   5.810000     -1.6823227E-29
   5.820000     -1.7695016E-29
   5.830000     -1.8564279E-29
   5.840000     -1.9427222E-29
   5.850000     -2.0279777E-29
   5.860000     -2.1117590E-29
   5.870000     -2.1936031E-29
   5.880000     -2.2730179E-29
   5.890000     -2.3494827E-29
   5.900000     -2.4224479E-29
   5.910000     -2.4913345E-29
   5.920000     -2.5555351E-29
   5.930000     -2.6144132E-29
   5.940000     -2.6673046E-29
   5.950000     -2.7135176E-29
   5.960000     -2.7523329E-29
   5.970000     -2.7830052E-29
   5.980000     -2.8047646E-29
   5.990000     -2.8168167E-29
   6.000000     -2.8183442E-29
   6.010000     -2.8085090E-29
   6.020000     -2.7864547E-29
   6.030000     -2.7513059E-29
   6.040000     -2.7021733E-29
   6.050000     -2.6381545E-29
   6.060000     -2.5583373E-29
   6.070000     -2.4618019E-29
   6.080000     -2.3476246E-29
   6.090000     -2.2148813E-29
   6.100000     -2.0626510E-29
   6.110000     -1.8900192E-29
   6.120000     -1.6960828E-29
   6.130000     -1.4799547E-29
   6.140000     -1.2407675E-29
   6.150000     -9.7767975E-30
   6.160000     -6.8988014E-30
   6.170000     -3.7659375E-30
   6.180000     -3.7088274E-31
   6.190000      3.2932116E-30
   6.200000      7.2326471E-30
   6.210000      1.1453113E-29
   6.220000      1.5959623E-29
   6.230000      2.0756436E-29
   6.240000      2.5846985E-29
   6.250000      3.1233811E-29
   6.260000      3.6918479E-29
   6.270000      4.2901492E-29
   6.280000      4.9182220E-29
   6.290000      5.5758814E-29
   6.300000      6.2628124E-29
   6.310000      6.9785638E-29
   6.320000      7.7225349E-29
   6.330000      8.4939692E-29
   6.340000      9.2919487E-29
   6.350000      1.0115382E-28
   6.360000      1.0963000E-28
   6.370000      1.1833337E-28
   6.380000      1.2724740E-28
   6.390000      1.3635341E-28
   6.400000      1.4563066E-28
   6.410000      1.5505620E-28
   6.420000      1.6460478E-28
   6.430000      1.7424878E-28
   6.440000      1.8395823E-28
   6.450000      1.9370066E-28
   6.460000      2.0344104E-28
   6.470000      2.1314185E-28
   6.480000      2.2276286E-28
   6.490000      2.3226128E-28
   6.500000      2.4159159E-28
   6.510000      2.5070557E-28
   6.520000      2.5955231E-28
   6.530000      2.6807818E-28
   6.540000      2.7622689E-28
   6.550000      2.8393944E-28
   6.560000      2.9115424E-28
   6.570000      2.9780705E-28
   6.580000      3.0383117E-28
   6.590000      3.0915738E-28
   6.600000      3.1371413E-28
   6.610000      3.1742756E-28
   6.620000      3.2022172E-28
   6.630000      3.2201862E-28
   6.640000      3.2273838E-28
   6.650000      3.2229951E-28
   6.660000      3.2061895E-28
   6.670000      3.1761243E-28
   6.680000      3.1319453E-28
   6.690000      3.0727904E-28
   6.700000      2.9977923E-28
   6.710000      2.9060810E-28
   6.720000      2.7967859E-28
   6.730000      2.6690416E-28
   6.740000      2.5219889E-28
   6.750000      2.3547799E-28
   6.760000      2.1665812E-28
   6.770000      1.9565788E-28
   6.780000      1.7239815E-28
   6.790000      1.4680261E-28
   6.800000      1.1879817E-28
   6.810000      8.8315516E-29
   6.820000      5.5289651E-29
   6.830000      1.9660299E-29
   6.840000     -1.8627451E-29
   6.850000     -5.9622500E-29
   6.860000     -1.0336728E-28
   6.870000     -1.4989720E-28
   6.880000     -1.9923976E-28
   6.890000     -2.5141417E-28
   6.900000     -3.0643064E-28
   6.910000     -3.6428972E-28
   6.920000     -4.2498162E-28
   6.930000     -4.8848565E-28
   6.940000     -5.5476927E-28
   6.950000     -6.2378772E-28
   6.960000     -6.9548330E-28
   6.970000     -7.6978457E-28
   6.980000     -8.4660577E-28
   6.990000     -9.2584614E-28
   7.000000     -1.0073894E-27
   7.010000     -1.0911030E-27
   7.020000     -1.1768372E-27
   7.030000     -1.2644251E-27
   7.040000     -1.3536818E-27
   7.050000     -1.4444038E-27
   7.060000     -1.5363685E-27