  -2.600000      0.0000000E+00
  -2.590000      0.0000000E+00
  -2.580000      0.0000000E+00
  -2.570000      0.0000000E+00
  -2.560000      0.0000000E+00
  -2.550000      0.0000000E+00
  -2.540000      0.0000000E+00
  -2.530000      0.0000000E+00
  -2.520000      0.0000000E+00
  -2.510000      0.0000000E+00
  -2.500000      0.0000000E+00
  -2.490000      0.0000000E+00
  -2.480000      0.0000000E+00
  -2.470000      0.0000000E+00
  -2.460000      0.0000000E+00
  -2.450000      0.0000000E+00
  -2.440000      0.0000000E+00
  -2.430000      0.0000000E+00
  -2.420000      0.0000000E+00
  -2.410000      0.0000000E+00
  -2.400000      0.0000000E+00
  -2.390000      0.0000000E+00
  -2.380000      0.0000000E+00
  -2.370000      0.0000000E+00
  -2.360000      0.0000000E+00
  -2.350000      0.0000000E+00
  -2.340000      0.0000000E+00
  -2.330000      0.0000000E+00
  -2.320000      0.0000000E+00
  -2.310000      0.0000000E+00
  -2.300000      0.0000000E+00
  -2.290000      0.0000000E+00
  -2.280000      0.0000000E+00
  -2.270000      0.0000000E+00
  -2.260000      0.0000000E+00
  -2.250000      0.0000000E+00
  -2.240000      0.0000000E+00
  -2.230000      0.0000000E+00
  -2.220000      0.0000000E+00
  -2.210000      0.0000000E+00
  -2.200000      0.0000000E+00
  -2.190000      0.0000000E+00
  -2.180000      0.0000000E+00
  -2.170000      0.0000000E+00
  -2.160000      0.0000000E+00
  -2.150000      0.0000000E+00
  -2.140000      0.0000000E+00
  -2.130000      0.0000000E+00
  -2.120000      0.0000000E+00
  -2.110000      0.0000000E+00
  -2.100000      0.0000000E+00
  -2.090000      0.0000000E+00
  -2.080000      0.0000000E+00
  -2.070000      0.0000000E+00
  -2.060000      0.0000000E+00
  -2.050000      0.0000000E+00
  -2.040000      0.0000000E+00
  -2.030000      0.0000000E+00
  -2.020000      0.0000000E+00
  -2.010000      0.0000000E+00
  -2.000000      0.0000000E+00
  -1.990000      0.0000000E+00
  -1.980000      0.0000000E+00
  -1.970000      0.0000000E+00
  -1.960000      0.0000000E+00
  -1.950000      0.0000000E+00
  -1.940000      0.0000000E+00
  -1.930000      0.0000000E+00
  -1.920000      0.0000000E+00
  -1.910000      0.0000000E+00
  -1.900000      0.0000000E+00
  -1.890000      0.0000000E+00
  -1.880000      0.0000000E+00
  -1.870000      0.0000000E+00
  -1.860000      0.0000000E+00
  -1.850000      0.0000000E+00
  -1.840000      0.0000000E+00
  -1.830000      0.0000000E+00
  -1.820000      0.0000000E+00
  -1.810000      0.0000000E+00
  -1.800000      0.0000000E+00
  -1.790000      0.0000000E+00
  -1.780000      0.0000000E+00
  -1.770000      0.0000000E+00
  -1.760000      0.0000000E+00
  -1.750000      0.0000000E+00
  -1.740000      0.0000000E+00
  -1.730000      0.0000000E+00
  -1.720000      0.0000000E+00
  -1.710000      0.0000000E+00
  -1.700000      0.0000000E+00
  -1.690000      0.0000000E+00
  -1.680000      0.0000000E+00
  -1.670000      0.0000000E+00
  -1.660000      0.0000000E+00
  -1.650000      0.0000000E+00
  -1.640000      0.0000000E+00
  -1.630000      0.0000000E+00
  -1.620000      0.0000000E+00
  -1.610000      0.0000000E+00
  -1.600000      0.0000000E+00
  -1.590000      0.0000000E+00
  -1.580000      0.0000000E+00
  -1.570000      0.0000000E+00
  -1.560000      0.0000000E+00
  -1.550000      0.0000000E+00
  -1.540000      0.0000000E+00
  -1.530000      0.0000000E+00
  -1.520000      0.0000000E+00
  -1.510000      0.0000000E+00
  -1.500000      0.0000000E+00
  -1.490000      0.0000000E+00
  -1.480000      0.0000000E+00
  -1.470000      0.0000000E+00
  -1.460000      0.0000000E+00
  -1.450000      0.0000000E+00
  -1.440000      0.0000000E+00
  -1.430000      0.0000000E+00
  -1.420000      0.0000000E+00
  -1.410000      0.0000000E+00
  -1.400000      0.0000000E+00
  -1.390000      0.0000000E+00
  -1.380000      0.0000000E+00
  -1.370000      0.0000000E+00
  -1.360000      0.0000000E+00
  -1.350000      0.0000000E+00
  -1.340000      0.0000000E+00
  -1.330000      0.0000000E+00
  -1.320000      0.0000000E+00
  -1.310000      0.0000000E+00
  -1.300000      0.0000000E+00
  -1.290000      0.0000000E+00
  -1.280000      0.0000000E+00
  -1.270000      0.0000000E+00
  -1.260000      0.0000000E+00
  -1.250000      0.0000000E+00
  -1.240000      0.0000000E+00
  -1.230000      0.0000000E+00
  -1.220000      0.0000000E+00
  -1.210000      0.0000000E+00
  -1.200000      0.0000000E+00
  -1.190000      0.0000000E+00
  -1.180000      0.0000000E+00
  -1.170000      0.0000000E+00
  -1.160000      0.0000000E+00
  -1.150000      0.0000000E+00
  -1.140000      0.0000000E+00
  -1.130000      0.0000000E+00
  -1.120000      0.0000000E+00
  -1.110000      0.0000000E+00
  -1.100000      0.0000000E+00
  -1.090000      0.0000000E+00
  -1.080000      0.0000000E+00
  -1.070000      0.0000000E+00
  -1.060000      0.0000000E+00
  -1.050000      0.0000000E+00
  -1.040000      0.0000000E+00
  -1.030000      0.0000000E+00
  -1.020000      0.0000000E+00
  -1.010000      0.0000000E+00
  -1.000000      0.0000000E+00
 -0.9900000      0.0000000E+00
 -0.9800000      0.0000000E+00
 -0.9700000      0.0000000E+00
 -0.9600000      0.0000000E+00
 -0.9500000      0.0000000E+00
 -0.9400000      0.0000000E+00
 -0.9300000      0.0000000E+00
 -0.9200000      0.0000000E+00
 -0.9100000      0.0000000E+00
 -0.9000000      0.0000000E+00
 -0.8900000      0.0000000E+00
 -0.8800000      0.0000000E+00
 -0.8700000      0.0000000E+00
 -0.8600000      0.0000000E+00
 -0.8500000      0.0000000E+00
 -0.8400000      0.0000000E+00
 -0.8300000      0.0000000E+00
 -0.8200000      0.0000000E+00
 -0.8100000      0.0000000E+00
 -0.8000000      0.0000000E+00
 -0.7900000      0.0000000E+00
 -0.7800000      0.0000000E+00
 -0.7700000      0.0000000E+00
 -0.7600000      0.0000000E+00
 -0.7500000      0.0000000E+00
 -0.7400000      0.0000000E+00
 -0.7300000      0.0000000E+00
 -0.7200000      0.0000000E+00
 -0.7100000      0.0000000E+00
 -0.7000000      0.0000000E+00
 -0.6900000      0.0000000E+00
 -0.6800000      0.0000000E+00
 -0.6700000      0.0000000E+00
 -0.6600000      0.0000000E+00
 -0.6500000      0.0000000E+00
 -0.6400000      0.0000000E+00
 -0.6300000      0.0000000E+00
 -0.6200000      0.0000000E+00
 -0.6100000      0.0000000E+00
 -0.6000000      0.0000000E+00
 -0.5900000      0.0000000E+00
 -0.5800000      0.0000000E+00
 -0.5700000      0.0000000E+00
 -0.5600000      0.0000000E+00
 -0.5500000      0.0000000E+00
 -0.5400000      0.0000000E+00
 -0.5300000      0.0000000E+00
 -0.5200000      0.0000000E+00
 -0.5100000      0.0000000E+00
 -0.5000000      0.0000000E+00
 -0.4900000      0.0000000E+00
 -0.4800000      0.0000000E+00
 -0.4700000      0.0000000E+00
 -0.4600000      0.0000000E+00
 -0.4500000      0.0000000E+00
 -0.4400000      0.0000000E+00
 -0.4300000      0.0000000E+00
 -0.4200000      0.0000000E+00
 -0.4100000      0.0000000E+00
 -0.4000000      0.0000000E+00
 -0.3900000      0.0000000E+00
 -0.3800000      0.0000000E+00
 -0.3700000      0.0000000E+00
 -0.3600000      0.0000000E+00
 -0.3500000      0.0000000E+00
 -0.3400000      0.0000000E+00
 -0.3300000      0.0000000E+00
 -0.3200000      0.0000000E+00
 -0.3100000      0.0000000E+00
 -0.3000000      0.0000000E+00
 -0.2900000      0.0000000E+00
 -0.2800000      0.0000000E+00
 -0.2700000      0.0000000E+00
 -0.2600000      0.0000000E+00
 -0.2500000      0.0000000E+00
 -0.2400000      0.0000000E+00
 -0.2300000      0.0000000E+00
 -0.2200000      0.0000000E+00
 -0.2100000      0.0000000E+00
 -0.2000000      0.0000000E+00
 -0.1900000      0.0000000E+00
 -0.1800000      0.0000000E+00
 -0.1700000      0.0000000E+00
 -0.1600000      0.0000000E+00
 -0.1500000      0.0000000E+00
 -0.1400000      0.0000000E+00
 -0.1300000      0.0000000E+00
 -0.1200000      0.0000000E+00
 -0.1100000      0.0000000E+00
 -0.1000000      0.0000000E+00
 -9.0000004E-02  0.0000000E+00
 -7.9999998E-02  0.0000000E+00
 -7.0000000E-02  0.0000000E+00
 -5.9999999E-02  0.0000000E+00
 -5.0000001E-02  0.0000000E+00
 -3.9999999E-02  0.0000000E+00
 -2.9999999E-02  0.0000000E+00
 -2.0000000E-02  0.0000000E+00
 -9.9999998E-03  0.0000000E+00
 -3.4694470E-17  0.0000000E+00
  9.9999998E-03  0.0000000E+00
  2.0000000E-02  0.0000000E+00
  2.9999999E-02  0.0000000E+00
  3.9999999E-02  0.0000000E+00
  5.0000001E-02  0.0000000E+00
  5.9999999E-02  0.0000000E+00
  7.0000000E-02  0.0000000E+00
  7.9999998E-02  0.0000000E+00
  9.0000004E-02  0.0000000E+00
  0.1000000      0.0000000E+00
  0.1100000      0.0000000E+00
  0.1200000      0.0000000E+00
  0.1300000      0.0000000E+00
  0.1400000      0.0000000E+00
  0.1500000      0.0000000E+00
  0.1600000      0.0000000E+00
  0.1700000      0.0000000E+00
  0.1800000      0.0000000E+00
  0.1900000      0.0000000E+00
  0.2000000      0.0000000E+00
  0.2100000      0.0000000E+00
  0.2200000      0.0000000E+00
  0.2300000      0.0000000E+00
  0.2400000      0.0000000E+00
  0.2500000      0.0000000E+00
  0.2600000      0.0000000E+00
  0.2700000      0.0000000E+00
  0.2800000      0.0000000E+00
  0.2900000      0.0000000E+00
  0.3000000      0.0000000E+00
  0.3100000      0.0000000E+00
  0.3200000      0.0000000E+00
  0.3300000      0.0000000E+00
  0.3400000      0.0000000E+00
  0.3500000      0.0000000E+00
  0.3600000      0.0000000E+00
  0.3700000      0.0000000E+00
  0.3800000      0.0000000E+00
  0.3900000      0.0000000E+00
  0.4000000      0.0000000E+00
  0.4100000      0.0000000E+00
  0.4200000      0.0000000E+00
  0.4300000      0.0000000E+00
  0.4400000      0.0000000E+00
  0.4500000      0.0000000E+00
  0.4600000      0.0000000E+00
  0.4700000      0.0000000E+00
  0.4800000      0.0000000E+00
  0.4900000      0.0000000E+00
  0.5000000      0.0000000E+00
  0.5100000      0.0000000E+00
  0.5200000      0.0000000E+00
  0.5300000      0.0000000E+00
  0.5400000      0.0000000E+00
  0.5500000      0.0000000E+00
  0.5600000      0.0000000E+00
  0.5700000      0.0000000E+00
  0.5800000      0.0000000E+00
  0.5900000      0.0000000E+00
  0.6000000      0.0000000E+00
  0.6100000      0.0000000E+00
  0.6200000      0.0000000E+00
  0.6300000      0.0000000E+00
  0.6400000      0.0000000E+00
  0.6500000      0.0000000E+00
  0.6600000      0.0000000E+00
  0.6700000      0.0000000E+00
  0.6800000      0.0000000E+00
  0.6900000      0.0000000E+00
  0.7000000      0.0000000E+00
  0.7100000      0.0000000E+00
  0.7200000      0.0000000E+00
  0.7300000      0.0000000E+00
  0.7400000      0.0000000E+00
  0.7500000      0.0000000E+00
  0.7600000      0.0000000E+00
  0.7700000      0.0000000E+00
  0.7800000      0.0000000E+00
  0.7900000      0.0000000E+00
  0.8000000      0.0000000E+00
  0.8100000      0.0000000E+00
  0.8200000      0.0000000E+00
  0.8300000      0.0000000E+00
  0.8400000      0.0000000E+00
  0.8500000      0.0000000E+00
  0.8600000      0.0000000E+00
  0.8700000      0.0000000E+00
  0.8800000      0.0000000E+00
  0.8900000      0.0000000E+00
  0.9000000      0.0000000E+00
  0.9100000      0.0000000E+00
  0.9200000      0.0000000E+00
  0.9300000      0.0000000E+00
  0.9400000      0.0000000E+00
  0.9500000      0.0000000E+00
  0.9600000      0.0000000E+00
  0.9700000      0.0000000E+00
  0.9800000      0.0000000E+00
  0.9900000      0.0000000E+00
   1.000000      0.0000000E+00
   1.010000      0.0000000E+00
   1.020000      0.0000000E+00
   1.030000      0.0000000E+00
   1.040000      0.0000000E+00
   1.050000      0.0000000E+00
   1.060000      0.0000000E+00
   1.070000      0.0000000E+00
   1.080000      0.0000000E+00
   1.090000      0.0000000E+00
   1.100000      0.0000000E+00
   1.110000      0.0000000E+00
   1.120000      0.0000000E+00
   1.130000      0.0000000E+00
   1.140000      0.0000000E+00
   1.150000      0.0000000E+00
   1.160000      0.0000000E+00
   1.170000      0.0000000E+00
   1.180000      0.0000000E+00
   1.190000      0.0000000E+00
   1.200000      0.0000000E+00
   1.210000      0.0000000E+00
   1.220000      0.0000000E+00
   1.230000      0.0000000E+00
   1.240000      0.0000000E+00
   1.250000      0.0000000E+00
   1.260000      0.0000000E+00
   1.270000      0.0000000E+00
   1.280000      0.0000000E+00
   1.290000      0.0000000E+00
   1.300000      0.0000000E+00
   1.310000      0.0000000E+00
   1.320000      0.0000000E+00
   1.330000      0.0000000E+00
   1.340000      0.0000000E+00
   1.350000      0.0000000E+00
   1.360000      0.0000000E+00
   1.370000      0.0000000E+00
   1.380000      0.0000000E+00
   1.390000      0.0000000E+00
   1.400000      0.0000000E+00
   1.410000      0.0000000E+00
   1.420000      0.0000000E+00
   1.430000      0.0000000E+00
   1.440000      0.0000000E+00
   1.450000      0.0000000E+00
   1.460000      0.0000000E+00
   1.470000      0.0000000E+00
   1.480000      0.0000000E+00
   1.490000      0.0000000E+00
   1.500000      0.0000000E+00
   1.510000      0.0000000E+00
   1.520000      0.0000000E+00
   1.530000      0.0000000E+00
   1.540000      0.0000000E+00
   1.550000      0.0000000E+00
   1.560000      0.0000000E+00
   1.570000      0.0000000E+00
   1.580000      0.0000000E+00
   1.590000      0.0000000E+00
   1.600000      0.0000000E+00
   1.610000      0.0000000E+00
   1.620000      0.0000000E+00
   1.630000      0.0000000E+00
   1.640000      0.0000000E+00
   1.650000      0.0000000E+00
   1.660000      0.0000000E+00
   1.670000      0.0000000E+00
   1.680000      0.0000000E+00
   1.690000      0.0000000E+00
   1.700000      0.0000000E+00
   1.710000      0.0000000E+00
   1.720000      0.0000000E+00
   1.730000      0.0000000E+00
   1.740000      0.0000000E+00
   1.750000      0.0000000E+00
   1.760000      0.0000000E+00
   1.770000      0.0000000E+00
   1.780000      0.0000000E+00
   1.790000      0.0000000E+00
   1.800000      0.0000000E+00
   1.810000      0.0000000E+00
   1.820000      0.0000000E+00
   1.830000      0.0000000E+00
   1.840000      0.0000000E+00
   1.850000      0.0000000E+00
   1.860000      0.0000000E+00
   1.870000      0.0000000E+00
   1.880000      0.0000000E+00
   1.890000      0.0000000E+00
   1.900000      0.0000000E+00
   1.910000      0.0000000E+00
   1.920000      0.0000000E+00
   1.930000      0.0000000E+00
   1.940000      0.0000000E+00
   1.950000      0.0000000E+00
   1.960000      0.0000000E+00
   1.970000      0.0000000E+00
   1.980000      0.0000000E+00
   1.990000      0.0000000E+00
   2.000000      0.0000000E+00
   2.010000      0.0000000E+00
   2.020000      0.0000000E+00
   2.030000      0.0000000E+00
   2.040000      0.0000000E+00
   2.050000      0.0000000E+00
   2.060000      0.0000000E+00
   2.070000      0.0000000E+00
   2.080000      0.0000000E+00
   2.090000      0.0000000E+00
   2.100000      0.0000000E+00
   2.110000      0.0000000E+00
   2.120000      0.0000000E+00
   2.130000      0.0000000E+00
   2.140000      0.0000000E+00
   2.150000      0.0000000E+00
   2.160000      0.0000000E+00
   2.170000      0.0000000E+00
   2.180000      0.0000000E+00
   2.190000      1.2799847E-38
   2.200000      1.5984076E-38
   2.210000      1.8634764E-38
   2.220000      2.0889769E-38
   2.230000      2.3311759E-38
   2.240000      2.5890522E-38
   2.250000      2.8612614E-38
   2.260000      3.1258602E-38
   2.270000      3.3840576E-38
   2.280000      3.6604508E-38
   2.290000      3.9591303E-38
   2.300000      4.2817838E-38
   2.310000      4.5414915E-38
   2.320000      4.4952368E-38
   2.330000      4.0942003E-38
   2.340000      3.5149596E-38
   2.350000      2.8074264E-38
   2.360000      1.9782283E-38
   2.370000      0.0000000E+00
   2.380000      0.0000000E+00
   2.390000     -1.2255974E-38
   2.400000     -2.3778283E-38
   2.410000     -3.7990827E-38
   2.420000     -5.4890268E-38
   2.430000     -7.0135481E-38
   2.440000     -8.3308702E-38
   2.450000     -9.8620942E-38
   2.460000     -1.1623939E-37
   2.470000     -1.3624028E-37
   2.480000     -1.5875957E-37
   2.490000     -1.8335444E-37
   2.500000     -2.1008645E-37
   2.510000     -2.3924467E-37
   2.520000     -2.7119307E-37
   2.530000     -3.0451460E-37
   2.540000     -3.3864622E-37
   2.550000     -3.7425848E-37
   2.560000     -4.1116240E-37
   2.570000     -4.4784548E-37
   2.580000     -4.8214120E-37
   2.590000     -5.2013329E-37
   2.600000     -5.4740386E-37
   2.610000     -5.4606207E-37
   2.620000     -5.2490484E-37
   2.630000     -5.2439683E-37
   2.640000     -5.9065152E-37
   2.650000     -6.8328264E-37
   2.660000     -7.7444264E-37
   2.670000     -8.8078689E-37
   2.680000     -9.8722244E-37
   2.690000     -1.1316630E-36
   2.700000     -1.3165043E-36
   2.710000     -1.5304317E-36
   2.720000     -1.5938194E-36
   2.730000     -1.4359676E-36
   2.740000     -1.2008009E-36
   2.750000     -8.8734443E-37
   2.760000     -4.8915935E-37
   2.770000      5.1763836E-38
   2.780000      7.2962710E-37
   2.790000      1.4704118E-36
   2.800000      2.2561468E-36
   2.810000      3.0784582E-36
   2.820000      3.8933799E-36
   2.830000      4.6551119E-36
   2.840000      5.3316098E-36
   2.850000      5.9230907E-36
   2.860000      6.4148701E-36
   2.870000      6.8004450E-36
   2.880000      7.0938767E-36
   2.890000      7.3444979E-36
   2.900000      7.5123380E-36
   2.910000      7.6722918E-36
   2.920000      8.0842780E-36
   2.930000      8.7343793E-36
   2.940000      9.5351999E-36
   2.950000      1.0428204E-35
   2.960000      1.1530319E-35
   2.970000      1.2508371E-35
   2.980000      1.3183901E-35
   2.990000      1.3653942E-35
   3.000000      1.3875505E-35
   3.010000      1.4040475E-35
   3.020000      1.4127122E-35
   3.030000      1.4034194E-35
   3.040000      1.3268497E-35
   3.050000      1.1828968E-35
   3.060000      1.0166762E-35
   3.070000      8.2974727E-36
   3.080000      6.2481385E-36
   3.090000      4.0127599E-36
   3.100000      1.7884003E-36
   3.110000     -3.8930560E-37
   3.120000     -2.7490308E-36
   3.130000     -5.3626994E-36
   3.140000     -7.9085852E-36
   3.150000     -1.0443678E-35
   3.160000     -1.3358463E-35
   3.170000     -1.6649154E-35
   3.180000     -2.0318403E-35
   3.190000     -2.4010873E-35
   3.200000     -2.7944422E-35
   3.210000     -3.2343518E-35
   3.220000     -3.8224818E-35
   3.230000     -4.6679638E-35
   3.240000     -5.6320695E-35
   3.250000     -6.6475244E-35
   3.260000     -7.7231747E-35
   3.270000     -8.9049678E-35
   3.280000     -1.0227117E-34
   3.290000     -1.1704734E-34
   3.300000     -1.3353153E-34
   3.310000     -1.5040774E-34
   3.320000     -1.6392840E-34
   3.330000     -1.7375403E-34
   3.340000     -1.8252006E-34
   3.350000     -1.8947536E-34
   3.360000     -1.9405339E-34
   3.370000     -1.9727392E-34
   3.380000     -1.9924836E-34
   3.390000     -1.9865558E-34
   3.400000     -1.9505129E-34
   3.410000     -1.8874208E-34
   3.420000     -1.7968283E-34
   3.430000     -1.6768172E-34
   3.440000     -1.5314175E-34
   3.450000     -1.3502011E-34
   3.460000     -1.1386885E-34
   3.470000     -9.1573300E-35
   3.480000     -6.8202343E-35
   3.490000     -4.3490926E-35
   3.500000     -1.7802073E-35
   3.510000      8.4714199E-36
   3.520000      3.4862912E-35
   3.530000      6.1768601E-35
   3.540000      9.1802521E-35
   3.550000      1.2733560E-34
   3.560000      1.6458824E-34
   3.570000      2.0065425E-34
   3.580000      2.4063703E-34
   3.590000      2.8421784E-34
   3.600000      3.2878520E-34
   3.610000      3.7260519E-34
   3.620000      4.1529081E-34
   3.630000      4.6100372E-34
   3.640000      5.1142825E-34
   3.650000      5.6555109E-34
   3.660000      6.2096779E-34
   3.670000      6.7747055E-34
   3.680000      7.3585992E-34
   3.690000      7.9479278E-34
   3.700000      8.5441542E-34
   3.710000      9.1404457E-34
   3.720000      9.7261330E-34
   3.730000      1.0299977E-33
   3.740000      1.0853967E-33
   3.750000      1.1367468E-33
   3.760000      1.1834124E-33
   3.770000      1.2250673E-33
   3.780000      1.2601517E-33
   3.790000      1.2879284E-33
   3.800000      1.3069298E-33
   3.810000      1.3174976E-33
   3.820000      1.3189824E-33
   3.830000      1.3088568E-33
   3.840000      1.2851609E-33
   3.850000      1.2473288E-33
   3.860000      1.1951947E-33
   3.870000      1.1272697E-33
   3.880000      1.0459428E-33
   3.890000      9.5101552E-34
   3.900000      8.3960869E-34
   3.910000      7.1351506E-34
   3.920000      5.7136510E-34
   3.930000      4.1076470E-34
   3.940000      2.3211472E-34
   3.950000      3.7373104E-35
   3.960000     -1.7257293E-34
   3.970000     -3.9737527E-34
   3.980000     -6.3690263E-34
   3.990000     -8.8990892E-34
   4.000000     -1.1539453E-33
   4.010000     -1.4298242E-33
   4.020000     -1.7197339E-33
   4.030000     -2.0233351E-33
   4.040000     -2.3389024E-33
   4.050000     -2.6654344E-33
   4.060000     -3.0002265E-33
   4.070000     -3.3425942E-33
   4.080000     -3.6929349E-33
   4.090000     -4.0484514E-33
   4.100000     -4.4072093E-33
   4.110000     -4.7688843E-33
   4.120000     -5.1318281E-33
   4.130000     -5.4950155E-33
   4.140000     -5.8555936E-33
   4.150000     -6.2112872E-33
   4.160000     -6.5593665E-33
   4.170000     -6.8952001E-33
   4.180000     -7.2144114E-33
   4.190000     -7.5120128E-33
   4.200000     -7.7832082E-33
   4.210000     -8.0233080E-33
   4.220000     -8.2279124E-33
   4.230000     -8.3922024E-33
   4.240000     -8.5106482E-33
   4.250000     -8.5775051E-33
   4.260000     -8.5883344E-33
   4.270000     -8.5373209E-33
   4.280000     -8.4181779E-33
   4.290000     -8.2267222E-33
   4.300000     -7.9582804E-33
   4.310000     -7.6084555E-33
   4.320000     -7.1745027E-33
   4.330000     -6.6510315E-33
   4.340000     -6.0326128E-33
   4.350000     -5.3177844E-33
   4.360000     -4.5041707E-33
   4.370000     -3.5865181E-33
   4.380000     -2.5644926E-33
   4.390000     -1.4383527E-33
   4.400000     -2.0607589E-34
   4.410000      1.1316830E-33
   4.420000      2.5747406E-33
   4.430000      4.1227952E-33
   4.440000      5.7745822E-33
   4.450000      7.5270966E-33
   4.460000      9.3762153E-33
   4.470000      1.1318730E-32
   4.480000      1.3352959E-32
   4.490000      1.5474400E-32
   4.500000      1.7675953E-32
   4.510000      1.9950328E-32
   4.520000      2.2289215E-32
   4.530000      2.4684538E-32
   4.540000      2.7126777E-32
   4.550000      2.9604699E-32
   4.560000      3.2105848E-32
   4.570000      3.4616275E-32
   4.580000      3.7120874E-32
   4.590000      3.9603645E-32
   4.600000      4.2046099E-32
   4.610000      4.4427759E-32
   4.620000      4.6728337E-32
   4.630000      4.8925964E-32
   4.640000      5.0996777E-32
   4.650000      5.2915977E-32
   4.660000      5.4657995E-32
   4.670000      5.6195648E-32
   4.680000      5.7500729E-32
   4.690000      5.8544268E-32
   4.700000      5.9296249E-32
   4.710000      5.9725857E-32
   4.720000      5.9802017E-32
   4.730000      5.9494132E-32
   4.740000      5.8770897E-32
   4.750000      5.7601803E-32
   4.760000      5.5955218E-32
   4.770000      5.3799344E-32
   4.780000      5.1105416E-32
   4.790000      4.7845306E-32
   4.800000      4.3991933E-32
   4.810000      3.9519300E-32
   4.820000      3.4402215E-32
   4.830000      2.8618427E-32
   4.840000      2.2147573E-32
   4.850000      1.4971031E-32
   4.860000      7.0736585E-33
   4.870000     -1.5566344E-33
   4.880000     -1.0930159E-32
   4.890000     -2.1054021E-32
   4.900000     -3.1930517E-32
   4.910000     -4.3558904E-32
   4.920000     -5.5933889E-32
   4.930000     -6.9045223E-32
   4.940000     -8.2879405E-32
   4.950000     -9.7414845E-32
   4.960000     -1.1262464E-31
   4.970000     -1.2847835E-31
   4.980000     -1.4493752E-31
   4.990000     -1.6195725E-31
   5.000000     -1.7948556E-31
   5.010000     -1.9746321E-31
   5.020000     -2.1582330E-31
   5.030000     -2.3449102E-31
   5.040000     -2.5338357E-31
   5.050000     -2.7240991E-31
   5.060000     -2.9147057E-31
   5.070000     -3.1045746E-31
   5.080000     -3.2925423E-31
   5.090000     -3.4773544E-31
   5.100000     -3.6576678E-31
   5.110000     -3.8320646E-31
   5.120000     -3.9990355E-31
   5.130000     -4.1569881E-31
   5.140000     -4.3042545E-31
   5.150000     -4.4390856E-31
   5.160000     -4.5596617E-31
   5.170000     -4.6640936E-31
   5.180000     -4.7504266E-31
   5.190000     -4.8166506E-31
   5.200000     -4.8607039E-31
   5.210000     -4.8804767E-31
   5.220000     -4.8738215E-31
   5.230000     -4.8385637E-31
   5.240000     -4.7725066E-31
   5.250000     -4.6734416E-31
   5.260000     -4.5391578E-31
   5.270000     -4.3674562E-31
   5.280000     -4.1561573E-31
   5.290000     -3.9031124E-31
   5.300000     -3.6062220E-31
   5.310000     -3.2634446E-31
   5.320000     -2.8728139E-31
   5.330000     -2.4324535E-31
   5.340000     -1.9405933E-31
   5.350000     -1.3955882E-31
   5.360000     -7.9593434E-32
   5.370000     -1.4029070E-32
   5.380000      5.7250383E-32
   5.390000      1.3434076E-31
   5.400000      2.1731566E-31
   5.410000      3.0622432E-31
   5.420000      4.0108935E-31
   5.430000      5.0190454E-31
   5.440000      6.0863256E-31
   5.450000      7.2120269E-31
   5.460000      8.3950854E-31
   5.470000      9.6340583E-31
   5.480000      1.0927103E-30
   5.490000      1.2271950E-30
   5.500000      1.3665885E-30
   5.510000      1.5105731E-30
   5.520000      1.6587815E-30
   5.530000      1.8107962E-30
   5.540000      1.9661471E-30
   5.550000      2.1243094E-30
   5.560000      2.2847025E-30
   5.570000      2.4466884E-30
   5.580000      2.6095702E-30
   5.590000      2.7725908E-30
   5.600000      2.9349324E-30
   5.610000      3.0957153E-30
   5.620000      3.2539974E-30
   5.630000      3.4087745E-30
   5.640000      3.5589794E-30
   5.650000      3.7034828E-30
   5.660000      3.8410942E-30
   5.670000      3.9705607E-30
   5.680000      4.0905714E-30
   5.690000      4.1997558E-30
   5.700000      4.2966873E-30
   5.710000      4.3798852E-30
   5.720000      4.4478182E-30
   5.730000      4.4989054E-30
   5.740000      4.5315221E-30
   5.750000      4.5440019E-30
   5.760000      4.5346434E-30
   5.770000      4.5017138E-30
   5.780000      4.4434555E-30
   5.790000      4.3580906E-30
   5.800000      4.2438295E-30
   5.810000      4.0988781E-30
   5.820000      3.9214446E-30
   5.830000      3.7097485E-30
   5.840000      3.4620291E-30
   5.850000      3.1765574E-30
   5.860000      2.8516440E-30
   5.870000      2.4856511E-30
   5.880000      2.0770033E-30
   5.890000      1.6242012E-30
   5.900000      1.1258316E-30
   5.910000      5.8058249E-31
   5.920000     -1.2743210E-32
   5.930000     -6.5521406E-31
   5.940000     -1.3477556E-30
   5.950000     -2.0911345E-30
   5.960000     -2.8859434E-30
   5.970000     -3.7325835E-30
   5.980000     -4.6312514E-30
   5.990000     -5.5819167E-30
   6.000000     -6.5843106E-30
   6.010000     -7.6379049E-30
   6.020000     -8.7418983E-30
   6.030000     -9.8951956E-30
   6.040000     -1.1096388E-29
   6.050000     -1.2343744E-29
   6.060000     -1.3635182E-29
   6.070000     -1.4968260E-29
   6.080000     -1.6340154E-29
   6.090000     -1.7747643E-29
   6.100000     -1.9187098E-29
   6.110000     -2.0654454E-29
   6.120000     -2.2145206E-29
   6.130000     -2.3654393E-29
   6.140000     -2.5176576E-29
   6.150000     -2.6705835E-29
   6.160000     -2.8235752E-29
   6.170000     -2.9759409E-29
   6.180000     -3.1269368E-29
   6.190000     -3.2757676E-29
   6.200000     -3.4215843E-29
   6.210000     -3.5634865E-29
   6.220000     -3.7005197E-29
   6.230000     -3.8316761E-29
   6.240000     -3.9558962E-29
   6.250000     -4.0720680E-29
   6.260000     -4.1790278E-29
   6.270000     -4.2755630E-29
   6.280000     -4.3604104E-29
   6.290000     -4.4322617E-29
   6.300000     -4.4897631E-29
   6.310000     -4.5315179E-29
   6.320000     -4.5560900E-29
   6.330000     -4.5620074E-29
   6.340000     -4.5477646E-29
   6.350000     -4.5118270E-29
   6.360000     -4.4526360E-29
   6.370000     -4.3686134E-29
   6.380000     -4.2581661E-29
   6.390000     -4.1196929E-29
   6.400000     -3.9515900E-29
   6.410000     -3.7522577E-29
   6.420000     -3.5201076E-29
   6.430000     -3.2535719E-29
   6.440000     -2.9511082E-29
   6.450000     -2.6112113E-29
   6.460000     -2.2324220E-29
   6.470000     -1.8133353E-29
   6.480000     -1.3526116E-29
   6.490000     -8.4898799E-30
   6.500000     -3.0128806E-30
   6.510000      2.9156567E-30
   6.520000      9.3053968E-30
   6.530000      1.6164763E-29
   6.540000      2.3500817E-29
   6.550000      3.1319118E-29
   6.560000      3.9623565E-29
   6.570000      4.8416305E-29
   6.580000      5.7697539E-29
   6.590000      6.7465410E-29
   6.600000      7.7715805E-29
   6.610000      8.8442266E-29
   6.620000      9.9635795E-29
   6.630000      1.1128469E-28
   6.640000      1.2337442E-28
   6.650000      1.3588748E-28
   6.660000      1.4880316E-28
   6.670000      1.6209751E-28
   6.680000      1.7574308E-28
   6.690000      1.8970885E-28
   6.700000      2.0396007E-28
   6.710000      2.1845811E-28
   6.720000      2.3316025E-28
   6.730000      2.4801977E-28
   6.740000      2.6298559E-28
   6.750000      2.7800233E-28
   6.760000      2.9301019E-28
   6.770000      3.0794469E-28
   6.780000      3.2273689E-28
   6.790000      3.3731305E-28
   6.800000      3.5159481E-28
   6.810000      3.6549901E-28
   6.820000      3.7893777E-28
   6.830000      3.9181834E-28
   6.840000      4.0404335E-28
   6.850000      4.1551072E-28
   6.860000      4.2611378E-28
   6.870000      4.3574141E-28
   6.880000      4.4427800E-28
   6.890000      4.5160385E-28
   6.900000      4.5759513E-28
   6.910000      4.6212415E-28
   6.920000      4.6505974E-28
   6.930000      4.6626730E-28
   6.940000      4.6560931E-28
   6.950000      4.6294560E-28
   6.960000      4.5813372E-28
   6.970000      4.5102925E-28
   6.980000      4.4148660E-28
   6.990000      4.2935902E-28
   7.000000      4.1449965E-28
   7.010000      3.9676172E-28
   7.020000      3.7599930E-28
   7.030000      3.5206803E-28
   7.040000      3.2482573E-28
   7.050000      2.9413325E-28
   7.060000      2.5985506E-28