  -2.600000      0.0000000E+00
  -2.590000      0.0000000E+00
  -2.580000      0.0000000E+00
  -2.570000      0.0000000E+00
  -2.560000      0.0000000E+00
  -2.550000      0.0000000E+00
  -2.540000      0.0000000E+00
  -2.530000      0.0000000E+00
  -2.520000      0.0000000E+00
  -2.510000      0.0000000E+00
  -2.500000      0.0000000E+00
  -2.490000      0.0000000E+00
  -2.480000      0.0000000E+00
  -2.470000      0.0000000E+00
  -2.460000      0.0000000E+00
  -2.450000      0.0000000E+00
  -2.440000      0.0000000E+00
  -2.430000      0.0000000E+00
  -2.420000      0.0000000E+00
  -2.410000      0.0000000E+00
  -2.400000      0.0000000E+00
  -2.390000      0.0000000E+00
  -2.380000      0.0000000E+00
  -2.370000      0.0000000E+00
  -2.360000      0.0000000E+00
  -2.350000      0.0000000E+00
  -2.340000      0.0000000E+00
  -2.330000      0.0000000E+00
  -2.320000      0.0000000E+00
  -2.310000      0.0000000E+00
  -2.300000      0.0000000E+00
  -2.290000      0.0000000E+00
  -2.280000      0.0000000E+00
  -2.270000      0.0000000E+00
  -2.260000      0.0000000E+00
  -2.250000      0.0000000E+00
  -2.240000      0.0000000E+00
  -2.230000      0.0000000E+00
  -2.220000      0.0000000E+00
  -2.210000      0.0000000E+00
  -2.200000      0.0000000E+00
  -2.190000      0.0000000E+00
  -2.180000      0.0000000E+00
  -2.170000      0.0000000E+00
  -2.160000      0.0000000E+00
  -2.150000      0.0000000E+00
  -2.140000      0.0000000E+00
  -2.130000      0.0000000E+00
  -2.120000      0.0000000E+00
  -2.110000      0.0000000E+00
  -2.100000      0.0000000E+00
  -2.090000      0.0000000E+00
  -2.080000      0.0000000E+00
  -2.070000      0.0000000E+00
  -2.060000      0.0000000E+00
  -2.050000      0.0000000E+00
  -2.040000      0.0000000E+00
  -2.030000      0.0000000E+00
  -2.020000      0.0000000E+00
  -2.010000      0.0000000E+00
  -2.000000      0.0000000E+00
  -1.990000      0.0000000E+00
  -1.980000      0.0000000E+00
  -1.970000      0.0000000E+00
  -1.960000      0.0000000E+00
  -1.950000      0.0000000E+00
  -1.940000      0.0000000E+00
  -1.930000      0.0000000E+00
  -1.920000      0.0000000E+00
  -1.910000      0.0000000E+00
  -1.900000      0.0000000E+00
  -1.890000      0.0000000E+00
  -1.880000      0.0000000E+00
  -1.870000      0.0000000E+00
  -1.860000      0.0000000E+00
  -1.850000      0.0000000E+00
  -1.840000      0.0000000E+00
  -1.830000      0.0000000E+00
  -1.820000      0.0000000E+00
  -1.810000      0.0000000E+00
  -1.800000      0.0000000E+00
  -1.790000      0.0000000E+00
  -1.780000      0.0000000E+00
  -1.770000      0.0000000E+00
  -1.760000      0.0000000E+00
  -1.750000      0.0000000E+00
  -1.740000      0.0000000E+00
  -1.730000      0.0000000E+00
  -1.720000      0.0000000E+00
  -1.710000      0.0000000E+00
  -1.700000      0.0000000E+00
  -1.690000      0.0000000E+00
  -1.680000      0.0000000E+00
  -1.670000      0.0000000E+00
  -1.660000      0.0000000E+00
  -1.650000      0.0000000E+00
  -1.640000      0.0000000E+00
  -1.630000      0.0000000E+00
  -1.620000      0.0000000E+00
  -1.610000      0.0000000E+00
  -1.600000      0.0000000E+00
  -1.590000      0.0000000E+00
  -1.580000      0.0000000E+00
  -1.570000      0.0000000E+00
  -1.560000      0.0000000E+00
  -1.550000      0.0000000E+00
  -1.540000      0.0000000E+00
  -1.530000      0.0000000E+00
  -1.520000      0.0000000E+00
  -1.510000      0.0000000E+00
  -1.500000      0.0000000E+00
  -1.490000      0.0000000E+00
  -1.480000      0.0000000E+00
  -1.470000      0.0000000E+00
  -1.460000      0.0000000E+00
  -1.450000      0.0000000E+00
  -1.440000      0.0000000E+00
  -1.430000      0.0000000E+00
  -1.420000      0.0000000E+00
  -1.410000      0.0000000E+00
  -1.400000      0.0000000E+00
  -1.390000      0.0000000E+00
  -1.380000      0.0000000E+00
  -1.370000      0.0000000E+00
  -1.360000      0.0000000E+00
  -1.350000      0.0000000E+00
  -1.340000      0.0000000E+00
  -1.330000      0.0000000E+00
  -1.320000      0.0000000E+00
  -1.310000      0.0000000E+00
  -1.300000      0.0000000E+00
  -1.290000      0.0000000E+00
  -1.280000      0.0000000E+00
  -1.270000      0.0000000E+00
  -1.260000      0.0000000E+00
  -1.250000      0.0000000E+00
  -1.240000      0.0000000E+00
  -1.230000      0.0000000E+00
  -1.220000      0.0000000E+00
  -1.210000      0.0000000E+00
  -1.200000      0.0000000E+00
  -1.190000      0.0000000E+00
  -1.180000      0.0000000E+00
  -1.170000      0.0000000E+00
  -1.160000      0.0000000E+00
  -1.150000      0.0000000E+00
  -1.140000      0.0000000E+00
  -1.130000      0.0000000E+00
  -1.120000      0.0000000E+00
  -1.110000      0.0000000E+00
  -1.100000      0.0000000E+00
  -1.090000      0.0000000E+00
  -1.080000      0.0000000E+00
  -1.070000      0.0000000E+00
  -1.060000      0.0000000E+00
  -1.050000      0.0000000E+00
  -1.040000      0.0000000E+00
  -1.030000      0.0000000E+00
  -1.020000      0.0000000E+00
  -1.010000      0.0000000E+00
  -1.000000      0.0000000E+00
 -0.9900000      0.0000000E+00
 -0.9800000      0.0000000E+00
 -0.9700000      0.0000000E+00
 -0.9600000      0.0000000E+00
 -0.9500000      0.0000000E+00
 -0.9400000      0.0000000E+00
 -0.9300000      0.0000000E+00
 -0.9200000      0.0000000E+00
 -0.9100000      0.0000000E+00
 -0.9000000      0.0000000E+00
 -0.8900000      0.0000000E+00
 -0.8800000      0.0000000E+00
 -0.8700000      0.0000000E+00
 -0.8600000      0.0000000E+00
 -0.8500000      0.0000000E+00
 -0.8400000      0.0000000E+00
 -0.8300000      0.0000000E+00
 -0.8200000      0.0000000E+00
 -0.8100000      0.0000000E+00
 -0.8000000      0.0000000E+00
 -0.7900000      0.0000000E+00
 -0.7800000      0.0000000E+00
 -0.7700000      0.0000000E+00
 -0.7600000      0.0000000E+00
 -0.7500000      0.0000000E+00
 -0.7400000      0.0000000E+00
 -0.7300000      0.0000000E+00
 -0.7200000      0.0000000E+00
 -0.7100000      0.0000000E+00
 -0.7000000      0.0000000E+00
 -0.6900000      0.0000000E+00
 -0.6800000      0.0000000E+00
 -0.6700000      0.0000000E+00
 -0.6600000      0.0000000E+00
 -0.6500000      0.0000000E+00
 -0.6400000      0.0000000E+00
 -0.6300000      0.0000000E+00
 -0.6200000      0.0000000E+00
 -0.6100000      0.0000000E+00
 -0.6000000      0.0000000E+00
 -0.5900000      0.0000000E+00
 -0.5800000      0.0000000E+00
 -0.5700000      0.0000000E+00
 -0.5600000      0.0000000E+00
 -0.5500000      0.0000000E+00
 -0.5400000      0.0000000E+00
 -0.5300000      0.0000000E+00
 -0.5200000      0.0000000E+00
 -0.5100000      0.0000000E+00
 -0.5000000      0.0000000E+00
 -0.4900000      0.0000000E+00
 -0.4800000      0.0000000E+00
 -0.4700000      0.0000000E+00
 -0.4600000      0.0000000E+00
 -0.4500000      0.0000000E+00
 -0.4400000      0.0000000E+00
 -0.4300000      0.0000000E+00
 -0.4200000      0.0000000E+00
 -0.4100000      0.0000000E+00
 -0.4000000      0.0000000E+00
 -0.3900000      0.0000000E+00
 -0.3800000      0.0000000E+00
 -0.3700000      0.0000000E+00
 -0.3600000      0.0000000E+00
 -0.3500000      0.0000000E+00
 -0.3400000      0.0000000E+00
 -0.3300000      0.0000000E+00
 -0.3200000      0.0000000E+00
 -0.3100000      0.0000000E+00
 -0.3000000      0.0000000E+00
 -0.2900000      0.0000000E+00
 -0.2800000      0.0000000E+00
 -0.2700000      0.0000000E+00
 -0.2600000      0.0000000E+00
 -0.2500000      0.0000000E+00
 -0.2400000      0.0000000E+00
 -0.2300000      0.0000000E+00
 -0.2200000      0.0000000E+00
 -0.2100000      0.0000000E+00
 -0.2000000      0.0000000E+00
 -0.1900000      0.0000000E+00
 -0.1800000      0.0000000E+00
 -0.1700000      0.0000000E+00
 -0.1600000      0.0000000E+00
 -0.1500000      0.0000000E+00
 -0.1400000      0.0000000E+00
 -0.1300000      0.0000000E+00
 -0.1200000      0.0000000E+00
 -0.1100000      0.0000000E+00
 -0.1000000      0.0000000E+00
 -9.0000004E-02  0.0000000E+00
 -7.9999998E-02  0.0000000E+00
 -7.0000000E-02  0.0000000E+00
 -5.9999999E-02  0.0000000E+00
 -5.0000001E-02  0.0000000E+00
 -3.9999999E-02  0.0000000E+00
 -2.9999999E-02  0.0000000E+00
 -2.0000000E-02  0.0000000E+00
 -9.9999998E-03  0.0000000E+00
 -3.4694470E-17  0.0000000E+00
  9.9999998E-03  0.0000000E+00
  2.0000000E-02  0.0000000E+00
  2.9999999E-02  0.0000000E+00
  3.9999999E-02  0.0000000E+00
  5.0000001E-02  0.0000000E+00
  5.9999999E-02  0.0000000E+00
  7.0000000E-02  0.0000000E+00
  7.9999998E-02  0.0000000E+00
  9.0000004E-02  0.0000000E+00
  0.1000000      0.0000000E+00
  0.1100000      0.0000000E+00
  0.1200000      0.0000000E+00
  0.1300000      0.0000000E+00
  0.1400000      0.0000000E+00
  0.1500000      0.0000000E+00
  0.1600000      0.0000000E+00
  0.1700000      0.0000000E+00
  0.1800000      0.0000000E+00
  0.1900000      0.0000000E+00
  0.2000000      0.0000000E+00
  0.2100000      0.0000000E+00
  0.2200000      0.0000000E+00
  0.2300000      0.0000000E+00
  0.2400000      0.0000000E+00
  0.2500000      0.0000000E+00
  0.2600000      0.0000000E+00
  0.2700000      0.0000000E+00
  0.2800000      0.0000000E+00
  0.2900000      0.0000000E+00
  0.3000000      0.0000000E+00
  0.3100000      0.0000000E+00
  0.3200000      0.0000000E+00
  0.3300000      0.0000000E+00
  0.3400000      0.0000000E+00
  0.3500000      0.0000000E+00
  0.3600000      0.0000000E+00
  0.3700000      0.0000000E+00
  0.3800000      0.0000000E+00
  0.3900000      0.0000000E+00
  0.4000000      0.0000000E+00
  0.4100000      0.0000000E+00
  0.4200000      0.0000000E+00
  0.4300000      0.0000000E+00
  0.4400000      0.0000000E+00
  0.4500000      0.0000000E+00
  0.4600000      0.0000000E+00
  0.4700000      0.0000000E+00
  0.4800000      0.0000000E+00
  0.4900000      0.0000000E+00
  0.5000000      0.0000000E+00
  0.5100000      0.0000000E+00
  0.5200000      0.0000000E+00
  0.5300000      0.0000000E+00
  0.5400000      0.0000000E+00
  0.5500000      0.0000000E+00
  0.5600000      0.0000000E+00
  0.5700000      0.0000000E+00
  0.5800000      0.0000000E+00
  0.5900000      0.0000000E+00
  0.6000000      0.0000000E+00
  0.6100000      0.0000000E+00
  0.6200000      0.0000000E+00
  0.6300000      0.0000000E+00
  0.6400000      0.0000000E+00
  0.6500000      0.0000000E+00
  0.6600000      0.0000000E+00
  0.6700000      0.0000000E+00
  0.6800000      0.0000000E+00
  0.6900000      0.0000000E+00
  0.7000000      0.0000000E+00
  0.7100000      0.0000000E+00
  0.7200000      0.0000000E+00
  0.7300000      0.0000000E+00
  0.7400000      0.0000000E+00
  0.7500000      0.0000000E+00
  0.7600000      0.0000000E+00
  0.7700000      0.0000000E+00
  0.7800000      0.0000000E+00
  0.7900000      0.0000000E+00
  0.8000000      0.0000000E+00
  0.8100000      0.0000000E+00
  0.8200000      0.0000000E+00
  0.8300000      0.0000000E+00
  0.8400000      0.0000000E+00
  0.8500000      0.0000000E+00
  0.8600000      0.0000000E+00
  0.8700000      0.0000000E+00
  0.8800000      0.0000000E+00
  0.8900000      0.0000000E+00
  0.9000000      0.0000000E+00
  0.9100000      0.0000000E+00
  0.9200000      0.0000000E+00
  0.9300000      0.0000000E+00
  0.9400000      0.0000000E+00
  0.9500000      0.0000000E+00
  0.9600000      0.0000000E+00
  0.9700000      0.0000000E+00
  0.9800000      0.0000000E+00
  0.9900000      0.0000000E+00
   1.000000      0.0000000E+00
   1.010000      0.0000000E+00
   1.020000      0.0000000E+00
   1.030000      0.0000000E+00
   1.040000      0.0000000E+00
   1.050000      0.0000000E+00
   1.060000      0.0000000E+00
   1.070000      0.0000000E+00
   1.080000      0.0000000E+00
   1.090000      0.0000000E+00
   1.100000      0.0000000E+00
   1.110000      0.0000000E+00
   1.120000      0.0000000E+00
   1.130000      0.0000000E+00
   1.140000      0.0000000E+00
   1.150000      0.0000000E+00
   1.160000      0.0000000E+00
   1.170000      0.0000000E+00
   1.180000      0.0000000E+00
   1.190000      0.0000000E+00
   1.200000      0.0000000E+00
   1.210000      0.0000000E+00
   1.220000      0.0000000E+00
   1.230000      0.0000000E+00
   1.240000      0.0000000E+00
   1.250000      0.0000000E+00
   1.260000      0.0000000E+00
   1.270000      0.0000000E+00
   1.280000      0.0000000E+00
   1.290000      0.0000000E+00
   1.300000      0.0000000E+00
   1.310000      0.0000000E+00
   1.320000      0.0000000E+00
   1.330000      0.0000000E+00
   1.340000      0.0000000E+00
   1.350000      0.0000000E+00
   1.360000      0.0000000E+00
   1.370000      0.0000000E+00
   1.380000      0.0000000E+00
   1.390000      0.0000000E+00
   1.400000      0.0000000E+00
   1.410000      0.0000000E+00
   1.420000      0.0000000E+00
   1.430000      0.0000000E+00
   1.440000      0.0000000E+00
   1.450000      0.0000000E+00
   1.460000      0.0000000E+00
   1.470000      0.0000000E+00
   1.480000      0.0000000E+00
   1.490000      0.0000000E+00
   1.500000      0.0000000E+00
   1.510000      0.0000000E+00
   1.520000      0.0000000E+00
   1.530000      0.0000000E+00
   1.540000      0.0000000E+00
   1.550000      0.0000000E+00
   1.560000      0.0000000E+00
   1.570000      0.0000000E+00
   1.580000      0.0000000E+00
   1.590000      0.0000000E+00
   1.600000      0.0000000E+00
   1.610000      0.0000000E+00
   1.620000      0.0000000E+00
   1.630000      0.0000000E+00
   1.640000      0.0000000E+00
   1.650000      0.0000000E+00
   1.660000      0.0000000E+00
   1.670000      0.0000000E+00
   1.680000      0.0000000E+00
   1.690000      0.0000000E+00
   1.700000      0.0000000E+00
   1.710000      0.0000000E+00
   1.720000      0.0000000E+00
   1.730000      0.0000000E+00
   1.740000      0.0000000E+00
   1.750000      0.0000000E+00
   1.760000      0.0000000E+00
   1.770000      0.0000000E+00
   1.780000      0.0000000E+00
   1.790000      0.0000000E+00
   1.800000      0.0000000E+00
   1.810000      0.0000000E+00
   1.820000      0.0000000E+00
   1.830000      0.0000000E+00
   1.840000      0.0000000E+00
   1.850000      0.0000000E+00
   1.860000      0.0000000E+00
   1.870000      0.0000000E+00
   1.880000      0.0000000E+00
   1.890000      0.0000000E+00
   1.900000      0.0000000E+00
   1.910000      0.0000000E+00
   1.920000      0.0000000E+00
   1.930000      0.0000000E+00
   1.940000      0.0000000E+00
   1.950000      0.0000000E+00
   1.960000      0.0000000E+00
   1.970000      0.0000000E+00
   1.980000      0.0000000E+00
   1.990000      0.0000000E+00
   2.000000      0.0000000E+00
   2.010000      0.0000000E+00
   2.020000      0.0000000E+00
   2.030000      0.0000000E+00
   2.040000      0.0000000E+00
   2.050000      0.0000000E+00
   2.060000      0.0000000E+00
   2.070000      0.0000000E+00
   2.080000      0.0000000E+00
   2.090000      0.0000000E+00
   2.100000      0.0000000E+00
   2.110000      0.0000000E+00
   2.120000      0.0000000E+00
   2.130000      0.0000000E+00
   2.140000      0.0000000E+00
   2.150000      0.0000000E+00
   2.160000      0.0000000E+00
   2.170000      0.0000000E+00
   2.180000      0.0000000E+00
   2.190000      0.0000000E+00
   2.200000      0.0000000E+00
   2.210000      1.6515677E-38
   2.220000      2.2254311E-38
   2.230000      2.8280697E-38
   2.240000      3.4064268E-38
   2.250000      3.9649933E-38
   2.260000      4.5251167E-38
   2.270000      5.0974765E-38
   2.280000      5.6975641E-38
   2.290000      6.2918649E-38
   2.300000      6.8920231E-38
   2.310000      7.5937591E-38
   2.320000      8.4155377E-38
   2.330000      9.3357424E-38
   2.340000      1.0352261E-37
   2.350000      1.1470088E-37
   2.360000      1.2641115E-37
   2.370000      1.3801227E-37
   2.380000      1.4935365E-37
   2.390000      1.5910680E-37
   2.400000      1.6632969E-37
   2.410000      1.7258723E-37
   2.420000      1.7808182E-37
   2.430000      1.7985699E-37
   2.440000      1.7741657E-37
   2.450000      1.7037960E-37
   2.460000      1.5682973E-37
   2.470000      1.3826652E-37
   2.480000      1.1736915E-37
   2.490000      9.4622645E-38
   2.500000      6.9442539E-38
   2.510000      4.1536025E-38
   2.520000      0.0000000E+00
   2.530000     -2.4450638E-38
   2.540000     -6.3920403E-38
   2.550000     -1.0889643E-37
   2.560000     -1.5868186E-37
   2.570000     -2.1303521E-37
   2.580000     -2.6951738E-37
   2.590000     -3.2839255E-37
   2.600000     -3.9642429E-37
   2.610000     -4.7420743E-37
   2.620000     -5.6178051E-37
   2.630000     -6.5617637E-37
   2.640000     -7.5273915E-37
   2.650000     -8.3282329E-37
   2.660000     -8.9321535E-37
   2.670000     -9.1827972E-37
   2.680000     -9.2548028E-37
   2.690000     -9.6603731E-37
   2.700000     -1.0238669E-36
   2.710000     -1.0709230E-36
   2.720000     -1.0995642E-36
   2.730000     -1.1103077E-36
   2.740000     -1.0007058E-36
   2.750000     -7.5781288E-37
   2.760000     -4.1207529E-37
   2.770000      5.5519473E-38
   2.780000      6.0594594E-37
   2.790000      1.2185091E-36
   2.800000      1.8934555E-36
   2.810000      2.5835879E-36
   2.820000      3.3035614E-36
   2.830000      4.2017251E-36
   2.840000      5.1403043E-36
   2.850000      5.9752737E-36
   2.860000      6.7738457E-36
   2.870000      7.5175863E-36
   2.880000      8.2206049E-36
   2.890000      8.8932641E-36
   2.900000      9.4642649E-36
   2.910000      9.9267140E-36
   2.920000      1.0280591E-35
   2.930000      1.0575691E-35
   2.940000      1.0836685E-35
   2.950000      1.1073612E-35
   2.960000      1.1200082E-35
   2.970000      1.1050568E-35
   2.980000      1.0716127E-35
   2.990000      1.0282206E-35
   3.000000      9.7750714E-36
   3.010000      9.2211993E-36
   3.020000      8.6085963E-36
   3.030000      7.8813890E-36
   3.040000      7.0227781E-36
   3.050000      6.0445191E-36
   3.060000      4.8827667E-36
   3.070000      3.5669405E-36
   3.080000      2.0898891E-36
   3.090000      4.6466196E-37
   3.100000     -1.2240936E-36
   3.110000     -3.1668908E-36
   3.120000     -5.4428764E-36
   3.130000     -8.0343554E-36
   3.140000     -1.0880157E-35
   3.150000     -1.3943550E-35
   3.160000     -1.7301961E-35
   3.170000     -2.0943764E-35
   3.180000     -2.4891454E-35
   3.190000     -2.9110231E-35
   3.200000     -3.3558754E-35
   3.210000     -3.8128514E-35
   3.220000     -4.2753166E-35
   3.230000     -4.7566310E-35
   3.240000     -5.2428913E-35
   3.250000     -5.7178330E-35
   3.260000     -6.1855523E-35
   3.270000     -6.6444422E-35
   3.280000     -7.0891194E-35
   3.290000     -7.5529834E-35
   3.300000     -8.0396036E-35
   3.310000     -8.4665009E-35
   3.320000     -8.7843774E-35
   3.330000     -9.0259949E-35
   3.340000     -9.2037546E-35
   3.350000     -9.3062585E-35
   3.360000     -9.1063016E-35
   3.370000     -8.3782143E-35
   3.380000     -7.0323112E-35
   3.390000     -5.2453267E-35
   3.400000     -3.3761394E-35
   3.410000     -1.5005563E-35
   3.420000      4.4169286E-36
   3.430000      2.5143087E-35
   3.440000      4.3317119E-35
   3.450000      5.6567779E-35
   3.460000      6.8353699E-35
   3.470000      7.9257316E-35
   3.480000      8.8483971E-35
   3.490000      9.7481772E-35
   3.500000      1.0606840E-34
   3.510000      1.1366477E-34
   3.520000      1.2157562E-34
   3.530000      1.3034489E-34
   3.540000      1.4039317E-34
   3.550000      1.4878596E-34
   3.560000      1.5538616E-34
   3.570000      1.6545053E-34
   3.580000      1.7681986E-34
   3.590000      1.8767093E-34
   3.600000      2.0124461E-34
   3.610000      2.1804984E-34
   3.620000      2.3878822E-34
   3.630000      2.6229402E-34
   3.640000      2.8862255E-34
   3.650000      3.1822365E-34
   3.660000      3.4766026E-34
   3.670000      3.7713780E-34
   3.680000      4.0592818E-34
   3.690000      4.3217137E-34
   3.700000      4.5562000E-34
   3.710000      4.7576862E-34
   3.720000      4.9064804E-34
   3.730000      4.9891534E-34
   3.740000      5.0197934E-34
   3.750000      4.9751233E-34
   3.760000      4.8494018E-34
   3.770000      4.6612185E-34
   3.780000      4.4034854E-34
   3.790000      4.0701193E-34
   3.800000      3.6618566E-34
   3.810000      3.2003775E-34
   3.820000      2.6551844E-34
   3.830000      2.0104248E-34
   3.840000      1.3009171E-34
   3.850000      5.1557791E-35
   3.860000     -3.7239087E-35
   3.870000     -1.3621723E-34
   3.880000     -2.4082171E-34
   3.890000     -3.4871286E-34
   3.900000     -4.6058959E-34
   3.910000     -5.7664688E-34
   3.920000     -7.0007778E-34
   3.930000     -8.2796753E-34
   3.940000     -9.5629432E-34
   3.950000     -1.0886961E-33
   3.960000     -1.2245516E-33
   3.970000     -1.3623366E-33
   3.980000     -1.5037660E-33
   3.990000     -1.6494362E-33
   4.000000     -1.7955098E-33
   4.010000     -1.9403404E-33
   4.020000     -2.0855252E-33
   4.030000     -2.2306157E-33
   4.040000     -2.3744497E-33
   4.050000     -2.5169277E-33
   4.060000     -2.6571987E-33
   4.070000     -2.7967771E-33
   4.080000     -2.9372296E-33
   4.090000     -3.0731816E-33
   4.100000     -3.2018820E-33
   4.110000     -3.3212454E-33
   4.120000     -3.4276089E-33
   4.130000     -3.5197691E-33
   4.140000     -3.5972166E-33
   4.150000     -3.6573009E-33
   4.160000     -3.6966502E-33
   4.170000     -3.7128412E-33
   4.180000     -3.7010465E-33
   4.190000     -3.6556526E-33
   4.200000     -3.5761201E-33
   4.210000     -3.4621545E-33
   4.220000     -3.3093351E-33
   4.230000     -3.1130760E-33
   4.240000     -2.8719491E-33
   4.250000     -2.5858279E-33
   4.260000     -2.2532998E-33
   4.270000     -1.8733244E-33
   4.280000     -1.4448083E-33
   4.290000     -9.6742404E-34
   4.300000     -4.3865730E-34
   4.310000      1.4340465E-34
   4.320000      7.7805797E-34
   4.330000      1.4662382E-33
   4.340000      2.2068667E-33
   4.350000      2.9988391E-33
   4.360000      3.8397031E-33
   4.370000      4.7287048E-33
   4.380000      5.6653369E-33
   4.390000      6.6463773E-33
   4.400000      7.6701139E-33
   4.410000      8.7326807E-33
   4.420000      9.8308738E-33
   4.430000      1.0962548E-32
   4.440000      1.2121856E-32
   4.450000      1.3305124E-32
   4.460000      1.4509563E-32
   4.470000      1.5727240E-32
   4.480000      1.6951315E-32
   4.490000      1.8178584E-32
   4.500000      1.9401517E-32
   4.510000      2.0609935E-32
   4.520000      2.1795653E-32
   4.530000      2.2948591E-32
   4.540000      2.4057346E-32
   4.550000      2.5111204E-32
   4.560000      2.6100397E-32
   4.570000      2.7012619E-32
   4.580000      2.7832662E-32
   4.590000      2.8546110E-32
   4.600000      2.9139735E-32
   4.610000      2.9598707E-32
   4.620000      2.9906598E-32
   4.630000      3.0046835E-32
   4.640000      3.0003700E-32
   4.650000      2.9761345E-32
   4.660000      2.9303041E-32
   4.670000      2.8611797E-32
   4.680000      2.7671331E-32
   4.690000      2.6465244E-32
   4.700000      2.4977333E-32
   4.710000      2.3193391E-32
   4.720000      2.1099712E-32
   4.730000      1.8682421E-32
   4.740000      1.5928328E-32
   4.750000      1.2826188E-32
   4.760000      9.3660738E-33
   4.770000      5.5387486E-33
   4.780000      1.3364194E-33
   4.790000     -3.2472084E-33
   4.800000     -8.2157578E-33
   4.810000     -1.3572262E-32
   4.820000     -1.9317384E-32
   4.830000     -2.5448774E-32
   4.840000     -3.1962826E-32
   4.850000     -3.8853162E-32
   4.860000     -4.6110873E-32
   4.870000     -5.3724259E-32
   4.880000     -6.1678500E-32
   4.890000     -6.9955926E-32
   4.900000     -7.8535724E-32
   4.910000     -8.7392997E-32
   4.920000     -9.6499370E-32
   4.930000     -1.0582315E-31
   4.940000     -1.1532799E-31
   4.950000     -1.2497353E-31
   4.960000     -1.3471554E-31
   4.970000     -1.4450504E-31
   4.980000     -1.5428863E-31
   4.990000     -1.6400825E-31
   5.000000     -1.7360139E-31
   5.010000     -1.8300093E-31
   5.020000     -1.9213473E-31
   5.030000     -2.0092549E-31
   5.040000     -2.0929230E-31
   5.050000     -2.1715051E-31
   5.060000     -2.2440961E-31
   5.070000     -2.3097498E-31
   5.080000     -2.3674828E-31
   5.090000     -2.4162735E-31
   5.100000     -2.4550684E-31
   5.110000     -2.4827816E-31
   5.120000     -2.4982995E-31
   5.130000     -2.5004862E-31
   5.140000     -2.4881868E-31
   5.150000     -2.4602333E-31
   5.160000     -2.4154495E-31
   5.170000     -2.3526553E-31
   5.180000     -2.2706740E-31
   5.190000     -2.1683394E-31
   5.200000     -2.0445014E-31
   5.210000     -1.8980330E-31
   5.220000     -1.7278379E-31
   5.230000     -1.5328592E-31
   5.240000     -1.3120862E-31
   5.250000     -1.0645638E-31
   5.260000     -7.8940194E-32
   5.270000     -4.8578559E-32
   5.280000     -1.5298439E-32
   5.290000      2.0964047E-32
   5.300000      6.0261794E-32
   5.310000      1.0263601E-31
   5.320000      1.4811550E-31
   5.330000      1.9671487E-31
   5.340000      2.4843351E-31
   5.350000      3.0325441E-31
   5.360000      3.6114283E-31
   5.370000      4.2204521E-31
   5.380000      4.8588753E-31
   5.390000      5.5257464E-31
   5.400000      6.2198829E-31
   5.410000      6.9398657E-31
   5.420000      7.6840232E-31
   5.430000      8.4504182E-31
   5.440000      9.2368334E-31
   5.450000      1.0040776E-30
   5.460000      1.0859457E-30
   5.470000      1.1689771E-30
   5.480000      1.2528302E-30
   5.490000      1.3371311E-30
   5.500000      1.4214729E-30
   5.510000      1.5054152E-30
   5.520000      1.5884837E-30
   5.530000      1.6701698E-30
   5.540000      1.7499308E-30
   5.550000      1.8271890E-30
   5.560000      1.9013330E-30
   5.570000      1.9717172E-30
   5.580000      2.0376627E-30
   5.590000      2.0984581E-30
   5.600000      2.1533597E-30
   5.610000      2.2015937E-30
   5.620000      2.2423568E-30
   5.630000      2.2748180E-30
   5.640000      2.2981202E-30
   5.650000      2.3113832E-30
   5.660000      2.3137043E-30
   5.670000      2.3041628E-30
   5.680000      2.2818219E-30
   5.690000      2.2457316E-30
   5.700000      2.1949335E-30
   5.710000      2.1284631E-30
   5.720000      2.0453551E-30
   5.730000      1.9446474E-30
   5.740000      1.8253853E-30
   5.750000      1.6866283E-30
   5.760000      1.5274535E-30
   5.770000      1.3469631E-30
   5.780000      1.1442895E-30
   5.790000      9.1860229E-31
   5.800000      6.6911518E-31
   5.810000      3.9509259E-31
   5.820000      9.5857879E-32
   5.830000     -2.2919970E-31
   5.840000     -5.8061653E-31
   5.850000     -9.5884613E-31
   5.860000     -1.3642505E-30
   5.870000     -1.7970918E-30
   5.880000     -2.2575224E-30
   5.890000     -2.7455760E-30
   5.900000     -3.2611587E-30
   5.910000     -3.8040378E-30
   5.920000     -4.3738332E-30
   5.930000     -4.9700093E-30
   5.940000     -5.5918616E-30
   5.950000     -6.2385088E-30
   5.960000     -6.9088840E-30
   5.970000     -7.6017222E-30
   5.980000     -8.3155531E-30
   5.990000     -9.0486907E-30
   6.000000     -9.7992271E-30
   6.010000     -1.0565017E-29
   6.020000     -1.1343675E-29
   6.030000     -1.2132569E-29
   6.040000     -1.2928804E-29
   6.050000     -1.3729226E-29
   6.060000     -1.4530407E-29
   6.070000     -1.5328643E-29
   6.080000     -1.6119952E-29
   6.090000     -1.6900067E-29
   6.100000     -1.7664428E-29
   6.110000     -1.8408186E-29
   6.120000     -1.9126207E-29
   6.130000     -1.9813061E-29
   6.140000     -2.0463033E-29
   6.150000     -2.1070113E-29
   6.160000     -2.1628019E-29
   6.170000     -2.2130188E-29
   6.180000     -2.2569795E-29
   6.190000     -2.2939749E-29
   6.200000     -2.3232714E-29
   6.210000     -2.3441122E-29
   6.220000     -2.3557184E-29
   6.230000     -2.3572910E-29
   6.240000     -2.3480130E-29
   6.250000     -2.3270512E-29
   6.260000     -2.2935585E-29
   6.270000     -2.2466775E-29
   6.280000     -2.1855421E-29
   6.290000     -2.1092819E-29
   6.300000     -2.0170252E-29
   6.310000     -1.9079023E-29
   6.320000     -1.7810505E-29
   6.330000     -1.6356169E-29
   6.340000     -1.4707642E-29
   6.350000     -1.2856753E-29
   6.360000     -1.0795578E-29
   6.370000     -8.5164983E-30
   6.380000     -6.0122598E-30
   6.390000     -3.2760298E-30
   6.400000     -3.0145882E-31
   6.410000      2.9172546E-30
   6.420000      6.3852936E-30
   6.430000      1.0107155E-29
   6.440000      1.4086581E-29
   6.450000      1.8326478E-29
   6.460000      2.2828838E-29
   6.470000      2.7594661E-29
   6.480000      3.2623887E-29
   6.490000      3.7915295E-29
   6.500000      4.3466433E-29
   6.510000      4.9273527E-29
   6.520000      5.5331396E-29
   6.530000      6.1633363E-29
   6.540000      6.8171179E-29
   6.550000      7.4934937E-29
   6.560000      8.1912960E-29
   6.570000      8.9091744E-29
   6.580000      9.6455886E-29
   6.590000      1.0398795E-28
   6.600000      1.1166844E-28
   6.610000      1.1947570E-28
   6.620000      1.2738583E-28
   6.630000      1.3537264E-28
   6.640000      1.4340757E-28
   6.650000      1.5145964E-28
   6.660000      1.5949541E-28
   6.670000      1.6747886E-28
   6.680000      1.7537141E-28
   6.690000      1.8313191E-28
   6.700000      1.9071655E-28
   6.710000      1.9807887E-28
   6.720000      2.0516980E-28
   6.730000      2.1193756E-28
   6.740000      2.1832782E-28
   6.750000      2.2428355E-28
   6.760000      2.2974522E-28
   6.770000      2.3465078E-28
   6.780000      2.3893571E-28
   6.790000      2.4253318E-28
   6.800000      2.4537412E-28
   6.810000      2.4738729E-28
   6.820000      2.4849944E-28
   6.830000      2.4863558E-28
   6.840000      2.4771896E-28
   6.850000      2.4567141E-28
   6.860000      2.4241348E-28
   6.870000      2.3786472E-28
   6.880000      2.3194388E-28
   6.890000      2.2456928E-28
   6.900000      2.1565901E-28
   6.910000      2.0513142E-28
   6.920000      1.9290524E-28
   6.930000      1.7890014E-28
   6.940000      1.6303710E-28
   6.950000      1.4523875E-28
   6.960000      1.2542992E-28
   6.970000      1.0353808E-28
   6.980000      7.9493812E-29
   6.990000      5.3231349E-29
   7.000000      2.4689153E-29
   7.010000     -6.1896014E-30
   7.020000     -3.9456313E-29
   7.030000     -7.5156329E-29
   7.040000     -1.1332847E-28
   7.050000     -1.5400424E-28
   7.060000     -1.9720716E-28