  -2.600000      0.0000000E+00
  -2.590000      0.0000000E+00
  -2.580000      0.0000000E+00
  -2.570000      0.0000000E+00
  -2.560000      0.0000000E+00
  -2.550000      0.0000000E+00
  -2.540000      0.0000000E+00
  -2.530000      0.0000000E+00
  -2.520000      0.0000000E+00
  -2.510000      0.0000000E+00
  -2.500000      0.0000000E+00
  -2.490000      0.0000000E+00
  -2.480000      0.0000000E+00
  -2.470000      0.0000000E+00
  -2.460000      0.0000000E+00
  -2.450000      0.0000000E+00
  -2.440000      0.0000000E+00
  -2.430000      0.0000000E+00
  -2.420000      0.0000000E+00
  -2.410000      0.0000000E+00
  -2.400000      0.0000000E+00
  -2.390000      0.0000000E+00
  -2.380000      0.0000000E+00
  -2.370000      0.0000000E+00
  -2.360000      0.0000000E+00
  -2.350000      0.0000000E+00
  -2.340000      0.0000000E+00
  -2.330000      0.0000000E+00
  -2.320000      0.0000000E+00
  -2.310000      0.0000000E+00
  -2.300000      0.0000000E+00
  -2.290000      0.0000000E+00
  -2.280000      0.0000000E+00
  -2.270000      0.0000000E+00
  -2.260000      0.0000000E+00
  -2.250000      0.0000000E+00
  -2.240000      0.0000000E+00
  -2.230000      0.0000000E+00
  -2.220000      0.0000000E+00
  -2.210000      0.0000000E+00
  -2.200000      0.0000000E+00
  -2.190000      0.0000000E+00
  -2.180000      0.0000000E+00
  -2.170000      0.0000000E+00
  -2.160000      0.0000000E+00
  -2.150000      0.0000000E+00
  -2.140000      0.0000000E+00
  -2.130000      0.0000000E+00
  -2.120000      0.0000000E+00
  -2.110000      0.0000000E+00
  -2.100000      0.0000000E+00
  -2.090000      0.0000000E+00
  -2.080000      0.0000000E+00
  -2.070000      0.0000000E+00
  -2.060000      0.0000000E+00
  -2.050000      0.0000000E+00
  -2.040000      0.0000000E+00
  -2.030000      0.0000000E+00
  -2.020000      0.0000000E+00
  -2.010000      0.0000000E+00
  -2.000000      0.0000000E+00
  -1.990000      0.0000000E+00
  -1.980000      0.0000000E+00
  -1.970000      0.0000000E+00
  -1.960000      0.0000000E+00
  -1.950000      0.0000000E+00
  -1.940000      0.0000000E+00
  -1.930000      0.0000000E+00
  -1.920000      0.0000000E+00
  -1.910000      0.0000000E+00
  -1.900000      0.0000000E+00
  -1.890000      0.0000000E+00
  -1.880000      0.0000000E+00
  -1.870000      0.0000000E+00
  -1.860000      0.0000000E+00
  -1.850000      0.0000000E+00
  -1.840000      0.0000000E+00
  -1.830000      0.0000000E+00
  -1.820000      0.0000000E+00
  -1.810000      0.0000000E+00
  -1.800000      0.0000000E+00
  -1.790000      0.0000000E+00
  -1.780000      0.0000000E+00
  -1.770000      0.0000000E+00
  -1.760000      0.0000000E+00
  -1.750000      0.0000000E+00
  -1.740000      0.0000000E+00
  -1.730000      0.0000000E+00
  -1.720000      0.0000000E+00
  -1.710000      0.0000000E+00
  -1.700000      0.0000000E+00
  -1.690000      0.0000000E+00
  -1.680000      0.0000000E+00
  -1.670000      0.0000000E+00
  -1.660000      0.0000000E+00
  -1.650000      0.0000000E+00
  -1.640000      0.0000000E+00
  -1.630000      0.0000000E+00
  -1.620000      0.0000000E+00
  -1.610000      0.0000000E+00
  -1.600000      0.0000000E+00
  -1.590000      0.0000000E+00
  -1.580000      0.0000000E+00
  -1.570000      0.0000000E+00
  -1.560000      0.0000000E+00
  -1.550000      0.0000000E+00
  -1.540000      0.0000000E+00
  -1.530000      0.0000000E+00
  -1.520000      0.0000000E+00
  -1.510000      0.0000000E+00
  -1.500000      0.0000000E+00
  -1.490000      0.0000000E+00
  -1.480000      0.0000000E+00
  -1.470000      0.0000000E+00
  -1.460000      0.0000000E+00
  -1.450000      0.0000000E+00
  -1.440000      0.0000000E+00
  -1.430000      0.0000000E+00
  -1.420000      0.0000000E+00
  -1.410000      0.0000000E+00
  -1.400000      0.0000000E+00
  -1.390000      0.0000000E+00
  -1.380000      0.0000000E+00
  -1.370000      0.0000000E+00
  -1.360000      0.0000000E+00
  -1.350000      0.0000000E+00
  -1.340000      0.0000000E+00
  -1.330000      0.0000000E+00
  -1.320000      0.0000000E+00
  -1.310000      0.0000000E+00
  -1.300000      0.0000000E+00
  -1.290000      0.0000000E+00
  -1.280000      0.0000000E+00
  -1.270000      0.0000000E+00
  -1.260000      0.0000000E+00
  -1.250000      0.0000000E+00
  -1.240000      0.0000000E+00
  -1.230000      0.0000000E+00
  -1.220000      0.0000000E+00
  -1.210000      0.0000000E+00
  -1.200000      0.0000000E+00
  -1.190000      0.0000000E+00
  -1.180000      0.0000000E+00
  -1.170000      0.0000000E+00
  -1.160000      0.0000000E+00
  -1.150000      0.0000000E+00
  -1.140000      0.0000000E+00
  -1.130000      0.0000000E+00
  -1.120000      0.0000000E+00
  -1.110000      0.0000000E+00
  -1.100000      0.0000000E+00
  -1.090000      0.0000000E+00
  -1.080000      0.0000000E+00
  -1.070000      0.0000000E+00
  -1.060000      0.0000000E+00
  -1.050000      0.0000000E+00
  -1.040000      0.0000000E+00
  -1.030000      0.0000000E+00
  -1.020000      0.0000000E+00
  -1.010000      0.0000000E+00
  -1.000000      0.0000000E+00
 -0.9900000      0.0000000E+00
 -0.9800000      0.0000000E+00
 -0.9700000      0.0000000E+00
 -0.9600000      0.0000000E+00
 -0.9500000      0.0000000E+00
 -0.9400000      0.0000000E+00
 -0.9300000      0.0000000E+00
 -0.9200000      0.0000000E+00
 -0.9100000      0.0000000E+00
 -0.9000000      0.0000000E+00
 -0.8900000      0.0000000E+00
 -0.8800000      0.0000000E+00
 -0.8700000      0.0000000E+00
 -0.8600000      0.0000000E+00
 -0.8500000      0.0000000E+00
 -0.8400000      0.0000000E+00
 -0.8300000      0.0000000E+00
 -0.8200000      0.0000000E+00
 -0.8100000      0.0000000E+00
 -0.8000000      0.0000000E+00
 -0.7900000      0.0000000E+00
 -0.7800000      0.0000000E+00
 -0.7700000      0.0000000E+00
 -0.7600000      0.0000000E+00
 -0.7500000      0.0000000E+00
 -0.7400000      0.0000000E+00
 -0.7300000      0.0000000E+00
 -0.7200000      0.0000000E+00
 -0.7100000      0.0000000E+00
 -0.7000000      0.0000000E+00
 -0.6900000      0.0000000E+00
 -0.6800000      0.0000000E+00
 -0.6700000      0.0000000E+00
 -0.6600000      0.0000000E+00
 -0.6500000      0.0000000E+00
 -0.6400000      0.0000000E+00
 -0.6300000      0.0000000E+00
 -0.6200000      0.0000000E+00
 -0.6100000      0.0000000E+00
 -0.6000000      0.0000000E+00
 -0.5900000      0.0000000E+00
 -0.5800000      0.0000000E+00
 -0.5700000      0.0000000E+00
 -0.5600000      0.0000000E+00
 -0.5500000      0.0000000E+00
 -0.5400000      0.0000000E+00
 -0.5300000      0.0000000E+00
 -0.5200000      0.0000000E+00
 -0.5100000      0.0000000E+00
 -0.5000000      0.0000000E+00
 -0.4900000      0.0000000E+00
 -0.4800000      0.0000000E+00
 -0.4700000      0.0000000E+00
 -0.4600000      0.0000000E+00
 -0.4500000      0.0000000E+00
 -0.4400000      0.0000000E+00
 -0.4300000      0.0000000E+00
 -0.4200000      0.0000000E+00
 -0.4100000      0.0000000E+00
 -0.4000000      0.0000000E+00
 -0.3900000      0.0000000E+00
 -0.3800000      0.0000000E+00
 -0.3700000      0.0000000E+00
 -0.3600000      0.0000000E+00
 -0.3500000      0.0000000E+00
 -0.3400000      0.0000000E+00
 -0.3300000      0.0000000E+00
 -0.3200000      0.0000000E+00
 -0.3100000      0.0000000E+00
 -0.3000000      0.0000000E+00
 -0.2900000      0.0000000E+00
 -0.2800000      0.0000000E+00
 -0.2700000      0.0000000E+00
 -0.2600000      0.0000000E+00
 -0.2500000      0.0000000E+00
 -0.2400000      0.0000000E+00
 -0.2300000      0.0000000E+00
 -0.2200000      0.0000000E+00
 -0.2100000      0.0000000E+00
 -0.2000000      0.0000000E+00
 -0.1900000      0.0000000E+00
 -0.1800000      0.0000000E+00
 -0.1700000      0.0000000E+00
 -0.1600000      0.0000000E+00
 -0.1500000      0.0000000E+00
 -0.1400000      0.0000000E+00
 -0.1300000      0.0000000E+00
 -0.1200000      0.0000000E+00
 -0.1100000      0.0000000E+00
 -0.1000000      0.0000000E+00
 -9.0000004E-02  0.0000000E+00
 -7.9999998E-02  0.0000000E+00
 -7.0000000E-02  0.0000000E+00
 -5.9999999E-02  0.0000000E+00
 -5.0000001E-02  0.0000000E+00
 -3.9999999E-02  0.0000000E+00
 -2.9999999E-02  0.0000000E+00
 -2.0000000E-02  0.0000000E+00
 -9.9999998E-03  0.0000000E+00
 -3.4694470E-17  0.0000000E+00
  9.9999998E-03  0.0000000E+00
  2.0000000E-02  0.0000000E+00
  2.9999999E-02  0.0000000E+00
  3.9999999E-02  0.0000000E+00
  5.0000001E-02  0.0000000E+00
  5.9999999E-02  0.0000000E+00
  7.0000000E-02  0.0000000E+00
  7.9999998E-02  0.0000000E+00
  9.0000004E-02  0.0000000E+00
  0.1000000      0.0000000E+00
  0.1100000      0.0000000E+00
  0.1200000      0.0000000E+00
  0.1300000      0.0000000E+00
  0.1400000      0.0000000E+00
  0.1500000      0.0000000E+00
  0.1600000      0.0000000E+00
  0.1700000      0.0000000E+00
  0.1800000      0.0000000E+00
  0.1900000      0.0000000E+00
  0.2000000      0.0000000E+00
  0.2100000      0.0000000E+00
  0.2200000      0.0000000E+00
  0.2300000      0.0000000E+00
  0.2400000      0.0000000E+00
  0.2500000      0.0000000E+00
  0.2600000      0.0000000E+00
  0.2700000      0.0000000E+00
  0.2800000      0.0000000E+00
  0.2900000      0.0000000E+00
  0.3000000      0.0000000E+00
  0.3100000      0.0000000E+00
  0.3200000      0.0000000E+00
  0.3300000      0.0000000E+00
  0.3400000      0.0000000E+00
  0.3500000      0.0000000E+00
  0.3600000      0.0000000E+00
  0.3700000      0.0000000E+00
  0.3800000      0.0000000E+00
  0.3900000      0.0000000E+00
  0.4000000      0.0000000E+00
  0.4100000      0.0000000E+00
  0.4200000      0.0000000E+00
  0.4300000      0.0000000E+00
  0.4400000      0.0000000E+00
  0.4500000      0.0000000E+00
  0.4600000      0.0000000E+00
  0.4700000      0.0000000E+00
  0.4800000      0.0000000E+00
  0.4900000      0.0000000E+00
  0.5000000      0.0000000E+00
  0.5100000      0.0000000E+00
  0.5200000      0.0000000E+00
  0.5300000      0.0000000E+00
  0.5400000      0.0000000E+00
  0.5500000      0.0000000E+00
  0.5600000      0.0000000E+00
  0.5700000      0.0000000E+00
  0.5800000      0.0000000E+00
  0.5900000      0.0000000E+00
  0.6000000      0.0000000E+00
  0.6100000      0.0000000E+00
  0.6200000      0.0000000E+00
  0.6300000      0.0000000E+00
  0.6400000      0.0000000E+00
  0.6500000      0.0000000E+00
  0.6600000      0.0000000E+00
  0.6700000      0.0000000E+00
  0.6800000      0.0000000E+00
  0.6900000      0.0000000E+00
  0.7000000      0.0000000E+00
  0.7100000      0.0000000E+00
  0.7200000      0.0000000E+00
  0.7300000      0.0000000E+00
  0.7400000      0.0000000E+00
  0.7500000      0.0000000E+00
  0.7600000      0.0000000E+00
  0.7700000      0.0000000E+00
  0.7800000      0.0000000E+00
  0.7900000      0.0000000E+00
  0.8000000      0.0000000E+00
  0.8100000      0.0000000E+00
  0.8200000      0.0000000E+00
  0.8300000      0.0000000E+00
  0.8400000      0.0000000E+00
  0.8500000      0.0000000E+00
  0.8600000      0.0000000E+00
  0.8700000      0.0000000E+00
  0.8800000      0.0000000E+00
  0.8900000      0.0000000E+00
  0.9000000      0.0000000E+00
  0.9100000      0.0000000E+00
  0.9200000      0.0000000E+00
  0.9300000      0.0000000E+00
  0.9400000      0.0000000E+00
  0.9500000      0.0000000E+00
  0.9600000      0.0000000E+00
  0.9700000      0.0000000E+00
  0.9800000      0.0000000E+00
  0.9900000      0.0000000E+00
   1.000000      0.0000000E+00
   1.010000      0.0000000E+00
   1.020000      0.0000000E+00
   1.030000      0.0000000E+00
   1.040000      0.0000000E+00
   1.050000      0.0000000E+00
   1.060000      0.0000000E+00
   1.070000      0.0000000E+00
   1.080000      0.0000000E+00
   1.090000      0.0000000E+00
   1.100000      0.0000000E+00
   1.110000      0.0000000E+00
   1.120000      0.0000000E+00
   1.130000      0.0000000E+00
   1.140000      0.0000000E+00
   1.150000      0.0000000E+00
   1.160000      0.0000000E+00
   1.170000      0.0000000E+00
   1.180000      0.0000000E+00
   1.190000      0.0000000E+00
   1.200000      0.0000000E+00
   1.210000      0.0000000E+00
   1.220000      0.0000000E+00
   1.230000      0.0000000E+00
   1.240000      0.0000000E+00
   1.250000      0.0000000E+00
   1.260000      0.0000000E+00
   1.270000      0.0000000E+00
   1.280000      0.0000000E+00
   1.290000      0.0000000E+00
   1.300000      0.0000000E+00
   1.310000      0.0000000E+00
   1.320000      0.0000000E+00
   1.330000      0.0000000E+00
   1.340000      0.0000000E+00
   1.350000      0.0000000E+00
   1.360000      0.0000000E+00
   1.370000      0.0000000E+00
   1.380000      0.0000000E+00
   1.390000      0.0000000E+00
   1.400000      0.0000000E+00
   1.410000      0.0000000E+00
   1.420000      0.0000000E+00
   1.430000      0.0000000E+00
   1.440000      0.0000000E+00
   1.450000      0.0000000E+00
   1.460000      0.0000000E+00
   1.470000      0.0000000E+00
   1.480000      0.0000000E+00
   1.490000      0.0000000E+00
   1.500000      0.0000000E+00
   1.510000      0.0000000E+00
   1.520000      0.0000000E+00
   1.530000      0.0000000E+00
   1.540000      0.0000000E+00
   1.550000      0.0000000E+00
   1.560000      0.0000000E+00
   1.570000      0.0000000E+00
   1.580000      0.0000000E+00
   1.590000      0.0000000E+00
   1.600000      0.0000000E+00
   1.610000      0.0000000E+00
   1.620000      0.0000000E+00
   1.630000      0.0000000E+00
   1.640000      0.0000000E+00
   1.650000      0.0000000E+00
   1.660000      0.0000000E+00
   1.670000      0.0000000E+00
   1.680000      0.0000000E+00
   1.690000      0.0000000E+00
   1.700000      0.0000000E+00
   1.710000      0.0000000E+00
   1.720000      0.0000000E+00
   1.730000      0.0000000E+00
   1.740000      0.0000000E+00
   1.750000      0.0000000E+00
   1.760000      0.0000000E+00
   1.770000      0.0000000E+00
   1.780000      0.0000000E+00
   1.790000      0.0000000E+00
   1.800000      0.0000000E+00
   1.810000      0.0000000E+00
   1.820000      0.0000000E+00
   1.830000      0.0000000E+00
   1.840000      0.0000000E+00
   1.850000      0.0000000E+00
   1.860000      0.0000000E+00
   1.870000      0.0000000E+00
   1.880000      0.0000000E+00
   1.890000      0.0000000E+00
   1.900000      0.0000000E+00
   1.910000      0.0000000E+00
   1.920000      0.0000000E+00
   1.930000      0.0000000E+00
   1.940000      0.0000000E+00
   1.950000      0.0000000E+00
   1.960000      0.0000000E+00
   1.970000      0.0000000E+00
   1.980000      0.0000000E+00
   1.990000      0.0000000E+00
   2.000000      0.0000000E+00
   2.010000      0.0000000E+00
   2.020000      0.0000000E+00
   2.030000      0.0000000E+00
   2.040000      0.0000000E+00
   2.050000      0.0000000E+00
   2.060000      0.0000000E+00
   2.070000      0.0000000E+00
   2.080000      0.0000000E+00
   2.090000      0.0000000E+00
   2.100000      0.0000000E+00
   2.110000      0.0000000E+00
   2.120000      0.0000000E+00
   2.130000      0.0000000E+00
   2.140000      0.0000000E+00
   2.150000      0.0000000E+00
   2.160000      0.0000000E+00
   2.170000      0.0000000E+00
   2.180000      0.0000000E+00
   2.190000      0.0000000E+00
   2.200000      0.0000000E+00
   2.210000      0.0000000E+00
   2.220000      0.0000000E+00
   2.230000      0.0000000E+00
   2.240000      0.0000000E+00
   2.250000      0.0000000E+00
   2.260000      0.0000000E+00
   2.270000     -1.2625836E-38
   2.280000     -1.6470489E-38
   2.290000     -2.0031012E-38
   2.300000     -2.3593219E-38
   2.310000     -2.6889362E-38
   2.320000     -2.9814441E-38
   2.330000     -3.3248009E-38
   2.340000     -3.8965943E-38
   2.350000     -4.6457733E-38
   2.360000     -5.4170297E-38
   2.370000     -6.2069966E-38
   2.380000     -7.0128722E-38
   2.390000     -7.8314855E-38
   2.400000     -8.6614813E-38
   2.410000     -9.5025916E-38
   2.420000     -1.0355269E-37
   2.430000     -1.1219673E-37
   2.440000     -1.2093788E-37
   2.450000     -1.3023214E-37
   2.460000     -1.3874604E-37
   2.470000     -1.4649287E-37
   2.480000     -1.5530358E-37
   2.490000     -1.6517512E-37
   2.500000     -1.7606960E-37
   2.510000     -1.8792002E-37
   2.520000     -1.9939887E-37
   2.530000     -2.0880235E-37
   2.540000     -2.1688789E-37
   2.550000     -2.0073013E-37
   2.560000     -1.5764338E-37
   2.570000     -1.1077573E-37
   2.580000     -6.0343303E-38
   2.590000      0.0000000E+00
   2.600000      9.8533557E-38
   2.610000      2.0600471E-37
   2.620000      3.2138848E-37
   2.630000      4.4277673E-37
   2.640000      5.1545551E-37
   2.650000      4.8961494E-37
   2.660000      4.0135744E-37
   2.670000      4.1819583E-38
   2.680000     -5.8313065E-37
   2.690000     -1.0215481E-36
   2.700000     -1.2815364E-36
   2.710000     -1.5802304E-36
   2.720000     -1.9442896E-36
   2.730000     -2.3766639E-36
   2.740000     -2.5930848E-36
   2.750000     -2.4714019E-36
   2.760000     -2.0858668E-36
   2.770000     -1.4909686E-36
   2.780000     -8.1339470E-37
   2.790000      2.2104452E-37
   2.800000      1.5353485E-36
   2.810000      2.7680991E-36
   2.820000      3.6777673E-36
   2.830000      3.9663869E-36
   2.840000      3.9039747E-36
   2.850000      3.8549593E-36
   2.860000      3.8502943E-36
   2.870000      3.9051111E-36
   2.880000      3.7352201E-36
   2.890000      3.3674842E-36
   2.900000      3.5111749E-36
   2.910000      4.3365001E-36
   2.920000      5.7162301E-36
   2.930000      7.4533739E-36
   2.940000      9.2574054E-36
   2.950000      1.1173428E-35
   2.960000      1.3215228E-35
   2.970000      1.4671501E-35
   2.980000      1.4931806E-35
   2.990000      1.4596936E-35
   3.000000      1.4276656E-35
   3.010000      1.4095652E-35
   3.020000      1.3660018E-35
   3.030000      1.2881822E-35
   3.040000      1.2001474E-35
   3.050000      1.1687437E-35
   3.060000      1.1964603E-35
   3.070000      1.2009329E-35
   3.080000      1.1495550E-35
   3.090000      8.5879311E-36
   3.100000      3.3289180E-36
   3.110000     -2.3211789E-36
   3.120000     -7.9697462E-36
   3.130000     -1.2162557E-35
   3.140000     -1.5005244E-35
   3.150000     -1.6923936E-35
   3.160000     -1.7825043E-35
   3.170000     -1.8777188E-35
   3.180000     -1.9730516E-35
   3.190000     -2.0613705E-35
   3.200000     -2.1590273E-35
   3.210000     -2.4544138E-35
   3.220000     -2.9931191E-35
   3.230000     -3.7900452E-35
   3.240000     -4.8711596E-35
   3.250000     -6.1034577E-35
   3.260000     -7.3603969E-35
   3.270000     -8.6588022E-35
   3.280000     -1.0152901E-34
   3.290000     -1.1231209E-34
   3.300000     -1.1851424E-34
   3.310000     -1.2512315E-34
   3.320000     -1.3169194E-34
   3.330000     -1.3669883E-34
   3.340000     -1.3908850E-34
   3.350000     -1.4076388E-34
   3.360000     -1.4241869E-34
   3.370000     -1.3693229E-34
   3.380000     -1.2379601E-34
   3.390000     -1.0817685E-34
   3.400000     -9.0238000E-35
   3.410000     -8.1149277E-35
   3.420000     -8.0822365E-35
   3.430000     -8.0048295E-35
   3.440000     -7.9172156E-35
   3.450000     -7.6165255E-35
   3.460000     -7.1119589E-35
   3.470000     -6.4680067E-35
   3.480000     -4.7410356E-35
   3.490000     -1.7655700E-35
   3.500000      1.7672197E-35
   3.510000      5.9897206E-35
   3.520000      1.0991818E-34
   3.530000      1.6378405E-34
   3.540000      2.1734597E-34
   3.550000      2.6009824E-34
   3.560000      2.8768018E-34
   3.570000      3.1353467E-34
   3.580000      3.4335623E-34
   3.590000      3.7226170E-34
   3.600000      3.9418605E-34
   3.610000      4.1007795E-34
   3.620000      4.2576722E-34
   3.630000      4.4433461E-34
   3.640000      4.7070504E-34
   3.650000      4.9412364E-34
   3.660000      5.1214810E-34
   3.670000      5.3725363E-34
   3.680000      5.7700045E-34
   3.690000      6.2982455E-34
   3.700000      6.8042338E-34
   3.710000      7.2391915E-34
   3.720000      7.6273443E-34
   3.730000      7.9130514E-34
   3.740000      8.0598835E-34
   3.750000      8.0984104E-34
   3.760000      8.0198552E-34
   3.770000      7.8334512E-34
   3.780000      7.5594361E-34
   3.790000      7.1995011E-34
   3.800000      6.7835120E-34
   3.810000      6.3164881E-34
   3.820000      5.7864848E-34
   3.830000      5.2265312E-34
   3.840000      4.6622282E-34
   3.850000      4.0992620E-34
   3.860000      3.5139976E-34
   3.870000      2.8723255E-34
   3.880000      2.1534877E-34
   3.890000      1.3260986E-34
   3.900000      3.6599037E-35
   3.910000     -7.4249406E-35
   3.920000     -2.0041047E-34
   3.930000     -3.4461086E-34
   3.940000     -5.0829170E-34
   3.950000     -6.8343522E-34
   3.960000     -8.6718395E-34
   3.970000     -1.0603656E-33
   3.980000     -1.2589626E-33
   3.990000     -1.4598564E-33
   4.000000     -1.6621744E-33
   4.010000     -1.8590754E-33
   4.020000     -2.0560026E-33
   4.030000     -2.2495648E-33
   4.040000     -2.4328817E-33
   4.050000     -2.6139134E-33
   4.060000     -2.7910646E-33
   4.070000     -2.9669270E-33
   4.080000     -3.1465434E-33
   4.090000     -3.3318414E-33
   4.100000     -3.5270128E-33
   4.110000     -3.7390392E-33
   4.120000     -3.9627656E-33
   4.130000     -4.1906032E-33
   4.140000     -4.4157853E-33
   4.150000     -4.6277633E-33
   4.160000     -4.8173654E-33
   4.170000     -4.9755186E-33
   4.180000     -5.0928800E-33
   4.190000     -5.1636076E-33
   4.200000     -5.1881046E-33
   4.210000     -5.1645447E-33
   4.220000     -5.0908688E-33
   4.230000     -4.9744618E-33
   4.240000     -4.8204298E-33
   4.250000     -4.6297609E-33
   4.260000     -4.4128488E-33
   4.270000     -4.1717916E-33
   4.280000     -3.9006367E-33
   4.290000     -3.5975097E-33
   4.300000     -3.2548557E-33
   4.310000     -2.8635353E-33
   4.320000     -2.4148899E-33
   4.330000     -1.9009961E-33
   4.340000     -1.3128079E-33
   4.350000     -6.4201497E-34
   4.360000      1.1699663E-34
   4.370000      9.6414093E-34
   4.380000      1.8891610E-33
   4.390000      2.8845118E-33
   4.400000      3.9496709E-33
   4.410000      5.0782091E-33
   4.420000      6.2574239E-33
   4.430000      7.4766679E-33
   4.440000      8.7267841E-33
   4.450000      1.0005449E-32
   4.460000      1.1313130E-32
   4.470000      1.2653469E-32
   4.480000      1.4031813E-32
   4.490000      1.5446666E-32
   4.500000      1.6897909E-32
   4.510000      1.8385137E-32
   4.520000      1.9904539E-32
   4.530000      2.1448893E-32
   4.540000      2.3007391E-32
   4.550000      2.4566953E-32
   4.560000      2.6111694E-32
   4.570000      2.7623174E-32
   4.580000      2.9080314E-32
   4.590000      3.0461349E-32
   4.600000      3.1745847E-32
   4.610000      3.2915056E-32
   4.620000      3.3952150E-32
   4.630000      3.4842302E-32
   4.640000      3.5572249E-32
   4.650000      3.6129944E-32
   4.660000      3.6505162E-32
   4.670000      3.6686268E-32
   4.680000      3.6660301E-32
   4.690000      3.6414773E-32
   4.700000      3.5933237E-32
   4.710000      3.5197387E-32
   4.720000      3.4185509E-32
   4.730000      3.2871333E-32
   4.740000      3.1229708E-32
   4.750000      2.9236634E-32
   4.760000      2.6865109E-32
   4.770000      2.4090539E-32
   4.780000      2.0893739E-32
   4.790000      1.7256817E-32
   4.800000      1.3165330E-32
   4.810000      8.6140623E-33
   4.820000      3.6008342E-33
   4.830000     -1.8830356E-33
   4.840000     -7.8393182E-33
   4.850000     -1.4264085E-32
   4.860000     -2.1154937E-32
   4.870000     -2.8508389E-32
   4.880000     -3.6321224E-32
   4.890000     -4.4589863E-32
   4.900000     -5.3309686E-32
   4.910000     -6.2474774E-32
   4.920000     -7.2077088E-32
   4.930000     -8.2104918E-32
   4.940000     -9.2540158E-32
   4.950000     -1.0335908E-31
   4.960000     -1.1453255E-31
   4.970000     -1.2602320E-31
   4.980000     -1.3778597E-31
   4.990000     -1.4976852E-31
   5.000000     -1.6191148E-31
   5.010000     -1.7414931E-31
   5.020000     -1.8641120E-31
   5.030000     -1.9862173E-31
   5.040000     -2.1070203E-31
   5.050000     -2.2257017E-31
   5.060000     -2.3414108E-31
   5.070000     -2.4532663E-31
   5.080000     -2.5603581E-31
   5.090000     -2.6617337E-31
   5.100000     -2.7563923E-31
   5.110000     -2.8432763E-31
   5.120000     -2.9212638E-31
   5.130000     -2.9891634E-31
   5.140000     -3.0457124E-31
   5.150000     -3.0895772E-31
   5.160000     -3.1193579E-31
   5.170000     -3.1336027E-31
   5.180000     -3.1308140E-31
   5.190000     -3.1094663E-31
   5.200000     -3.0680229E-31
   5.210000     -3.0049463E-31
   5.220000     -2.9187163E-31
   5.230000     -2.8078356E-31
   5.240000     -2.6708426E-31
   5.250000     -2.5063141E-31
   5.260000     -2.3128622E-31
   5.270000     -2.0891457E-31
   5.280000     -1.8338700E-31
   5.290000     -1.5457802E-31
   5.300000     -1.2236658E-31
   5.310000     -8.6636673E-32
   5.320000     -4.7278732E-32
   5.330000     -4.1910433E-33
   5.340000      4.2718338E-32
   5.350000      9.3529754E-32
   5.360000      1.4831010E-31
   5.370000      2.0710960E-31
   5.380000      2.6995950E-31
   5.390000      3.3687033E-31
   5.400000      4.0782902E-31
   5.410000      4.8279763E-31
   5.420000      5.6171261E-31
   5.430000      6.4448283E-31
   5.440000      7.3098930E-31
   5.450000      8.2108440E-31
   5.460000      9.1459150E-31
   5.470000      1.0113037E-30
   5.480000      1.1109836E-30
   5.490000      1.2133618E-30
   5.500000      1.3181358E-30
   5.510000      1.4249674E-30
   5.520000      1.5334819E-30
   5.530000      1.6432655E-30
   5.540000      1.7538632E-30
   5.550000      1.8647770E-30
   5.560000      1.9754636E-30
   5.570000      2.0853339E-30
   5.580000      2.1937516E-30
   5.590000      2.3000328E-30
   5.600000      2.4034472E-30
   5.610000      2.5032173E-30
   5.620000      2.5985198E-30
   5.630000      2.6884874E-30
   5.640000      2.7722101E-30
   5.650000      2.8487361E-30
   5.660000      2.9170741E-30
   5.670000      2.9761935E-30
   5.680000      3.0250281E-30
   5.690000      3.0624750E-30
   5.700000      3.0873981E-30
   5.710000      3.0986287E-30
   5.720000      3.0949679E-30
   5.730000      3.0751888E-30
   5.740000      3.0380407E-30
   5.750000      2.9822519E-30
   5.760000      2.9065347E-30
   5.770000      2.8095902E-30
   5.780000      2.6901151E-30
   5.790000      2.5468078E-30
   5.800000      2.3783757E-30
   5.810000      2.1835434E-30
   5.820000      1.9610599E-30
   5.830000      1.7097074E-30
   5.840000      1.4283087E-30
   5.850000      1.1157359E-30
   5.860000      7.7092018E-31
   5.870000      3.9285917E-31
   5.880000     -1.9374282E-32
   5.890000     -4.6662217E-31
   5.900000     -9.4963157E-31
   5.910000     -1.4690445E-30
   5.920000     -2.0253862E-30
   5.930000     -2.6190543E-30
   5.940000     -3.2503066E-30
   5.950000     -3.9192460E-30
   5.960000     -4.6258095E-30
   5.970000     -5.3697530E-30
   5.980000     -6.1506393E-30
   5.990000     -6.9678212E-30
   6.000000     -7.8204266E-30
   6.010000     -8.7073490E-30
   6.020000     -9.6272295E-30
   6.030000     -1.0578446E-29
   6.040000     -1.1559101E-29
   6.050000     -1.2567009E-29
   6.060000     -1.3599683E-29
   6.070000     -1.4654323E-29
   6.080000     -1.5727806E-29
   6.090000     -1.6816674E-29
   6.100000     -1.7917123E-29
   6.110000     -1.9024997E-29
   6.120000     -2.0135765E-29
   6.130000     -2.1244522E-29
   6.140000     -2.2345987E-29
   6.150000     -2.3434481E-29
   6.160000     -2.4503923E-29
   6.170000     -2.5547834E-29
   6.180000     -2.6559326E-29
   6.190000     -2.7531108E-29
   6.200000     -2.8455483E-29
   6.210000     -2.9324345E-29
   6.220000     -3.0129197E-29
   6.230000     -3.0861141E-29
   6.240000     -3.1510901E-29
   6.250000     -3.2068828E-29
   6.260000     -3.2524921E-29
   6.270000     -3.2868835E-29
   6.280000     -3.3089905E-29
   6.290000     -3.3177159E-29
   6.300000     -3.3119354E-29
   6.310000     -3.2904998E-29
   6.320000     -3.2522369E-29
   6.330000     -3.1959571E-29
   6.340000     -3.1204546E-29
   6.350000     -3.0245129E-29
   6.360000     -2.9069087E-29
   6.370000     -2.7664178E-29
   6.380000     -2.6018185E-29
   6.390000     -2.4118995E-29
   6.400000     -2.1954641E-29
   6.410000     -1.9513369E-29
   6.420000     -1.6783709E-29
   6.430000     -1.3754555E-29
   6.440000     -1.0415234E-29
   6.450000     -6.7555837E-30
   6.460000     -2.7660364E-30
   6.470000      1.5622781E-30
   6.480000      6.2374559E-30
   6.490000      1.1266728E-29
   6.500000      1.6656358E-29
   6.510000      2.2411541E-29
   6.520000      2.8536287E-29
   6.530000      3.5033328E-29
   6.540000      4.1903996E-29
   6.550000      4.9148122E-29
   6.560000      5.6763920E-29
   6.570000      6.4747863E-29
   6.580000      7.3094530E-29
   6.590000      8.1796526E-29
   6.600000      9.0844364E-29
   6.610000      1.0022633E-28
   6.620000      1.0992831E-28
   6.630000      1.1993380E-28
   6.640000      1.3022361E-28
   6.650000      1.4077591E-28
   6.660000      1.5156597E-28
   6.670000      1.6256617E-28
   6.680000      1.7374581E-28
   6.690000      1.8507105E-28
   6.700000      1.9650479E-28
   6.710000      2.0800657E-28
   6.720000      2.1953252E-28
   6.730000      2.3103528E-28
   6.740000      2.4246387E-28
   6.750000      2.5376364E-28
   6.760000      2.6487632E-28
   6.770000      2.7573987E-28
   6.780000      2.8628850E-28
   6.790000      2.9645264E-28
   6.800000      3.0615894E-28
   6.810000      3.1533039E-28
   6.820000      3.2388612E-28
   6.830000      3.3174177E-28
   6.840000      3.3880928E-28
   6.850000      3.4499710E-28
   6.860000      3.5021035E-28
   6.870000      3.5435103E-28
   6.880000      3.5731795E-28
   6.890000      3.5900716E-28
   6.900000      3.5931199E-28
   6.910000      3.5812335E-28
   6.920000      3.5532996E-28
   6.930000      3.5081878E-28
   6.940000      3.4447518E-28
   6.950000      3.3618335E-28
   6.960000      3.2582678E-28
   6.970000      3.1328864E-28
   6.980000      2.9845214E-28
   6.990000      2.8120106E-28
   7.000000      2.6142031E-28
   7.010000      2.3899657E-28
   7.020000      2.1381876E-28
   7.030000      1.8577862E-28
   7.040000      1.5477151E-28
   7.050000      1.2069703E-28
   7.060000      8.3459801E-29