  -2.600000      0.0000000E+00
  -2.590000      0.0000000E+00
  -2.580000      0.0000000E+00
  -2.570000      0.0000000E+00
  -2.560000      0.0000000E+00
  -2.550000      0.0000000E+00
  -2.540000      0.0000000E+00
  -2.530000      0.0000000E+00
  -2.520000      0.0000000E+00
  -2.510000      0.0000000E+00
  -2.500000      0.0000000E+00
  -2.490000      0.0000000E+00
  -2.480000      0.0000000E+00
  -2.470000      0.0000000E+00
  -2.460000      0.0000000E+00
  -2.450000      0.0000000E+00
  -2.440000      0.0000000E+00
  -2.430000      0.0000000E+00
  -2.420000      0.0000000E+00
  -2.410000      0.0000000E+00
  -2.400000      0.0000000E+00
  -2.390000      0.0000000E+00
  -2.380000      0.0000000E+00
  -2.370000      0.0000000E+00
  -2.360000      0.0000000E+00
  -2.350000      0.0000000E+00
  -2.340000      0.0000000E+00
  -2.330000      0.0000000E+00
  -2.320000      0.0000000E+00
  -2.310000      0.0000000E+00
  -2.300000      0.0000000E+00
  -2.290000      0.0000000E+00
  -2.280000      0.0000000E+00
  -2.270000      0.0000000E+00
  -2.260000      0.0000000E+00
  -2.250000      0.0000000E+00
  -2.240000      0.0000000E+00
  -2.230000      0.0000000E+00
  -2.220000      0.0000000E+00
  -2.210000      0.0000000E+00
  -2.200000      0.0000000E+00
  -2.190000      0.0000000E+00
  -2.180000      0.0000000E+00
  -2.170000      0.0000000E+00
  -2.160000      0.0000000E+00
  -2.150000      0.0000000E+00
  -2.140000      0.0000000E+00
  -2.130000      0.0000000E+00
  -2.120000      0.0000000E+00
  -2.110000      0.0000000E+00
  -2.100000      0.0000000E+00
  -2.090000      0.0000000E+00
  -2.080000      0.0000000E+00
  -2.070000      0.0000000E+00
  -2.060000      0.0000000E+00
  -2.050000      0.0000000E+00
  -2.040000      0.0000000E+00
  -2.030000      0.0000000E+00
  -2.020000      0.0000000E+00
  -2.010000      0.0000000E+00
  -2.000000      0.0000000E+00
  -1.990000      0.0000000E+00
  -1.980000      0.0000000E+00
  -1.970000      0.0000000E+00
  -1.960000      0.0000000E+00
  -1.950000      0.0000000E+00
  -1.940000      0.0000000E+00
  -1.930000      0.0000000E+00
  -1.920000      0.0000000E+00
  -1.910000      0.0000000E+00
  -1.900000      0.0000000E+00
  -1.890000      0.0000000E+00
  -1.880000      0.0000000E+00
  -1.870000      0.0000000E+00
  -1.860000      0.0000000E+00
  -1.850000      0.0000000E+00
  -1.840000      0.0000000E+00
  -1.830000      0.0000000E+00
  -1.820000      0.0000000E+00
  -1.810000      0.0000000E+00
  -1.800000      0.0000000E+00
  -1.790000      0.0000000E+00
  -1.780000      0.0000000E+00
  -1.770000      0.0000000E+00
  -1.760000      0.0000000E+00
  -1.750000      0.0000000E+00
  -1.740000      0.0000000E+00
  -1.730000      0.0000000E+00
  -1.720000      0.0000000E+00
  -1.710000      0.0000000E+00
  -1.700000      0.0000000E+00
  -1.690000      0.0000000E+00
  -1.680000      0.0000000E+00
  -1.670000      0.0000000E+00
  -1.660000      0.0000000E+00
  -1.650000      0.0000000E+00
  -1.640000      0.0000000E+00
  -1.630000      0.0000000E+00
  -1.620000      0.0000000E+00
  -1.610000      0.0000000E+00
  -1.600000      0.0000000E+00
  -1.590000      0.0000000E+00
  -1.580000      0.0000000E+00
  -1.570000      0.0000000E+00
  -1.560000      0.0000000E+00
  -1.550000      0.0000000E+00
  -1.540000      0.0000000E+00
  -1.530000      0.0000000E+00
  -1.520000      0.0000000E+00
  -1.510000      0.0000000E+00
  -1.500000      0.0000000E+00
  -1.490000      0.0000000E+00
  -1.480000      0.0000000E+00
  -1.470000      0.0000000E+00
  -1.460000      0.0000000E+00
  -1.450000      0.0000000E+00
  -1.440000      0.0000000E+00
  -1.430000      0.0000000E+00
  -1.420000      0.0000000E+00
  -1.410000      0.0000000E+00
  -1.400000      0.0000000E+00
  -1.390000      0.0000000E+00
  -1.380000      0.0000000E+00
  -1.370000      0.0000000E+00
  -1.360000      0.0000000E+00
  -1.350000      0.0000000E+00
  -1.340000      0.0000000E+00
  -1.330000      0.0000000E+00
  -1.320000      0.0000000E+00
  -1.310000      0.0000000E+00
  -1.300000      0.0000000E+00
  -1.290000      0.0000000E+00
  -1.280000      0.0000000E+00
  -1.270000      0.0000000E+00
  -1.260000      0.0000000E+00
  -1.250000      0.0000000E+00
  -1.240000      0.0000000E+00
  -1.230000      0.0000000E+00
  -1.220000      0.0000000E+00
  -1.210000      0.0000000E+00
  -1.200000      0.0000000E+00
  -1.190000      0.0000000E+00
  -1.180000      0.0000000E+00
  -1.170000      0.0000000E+00
  -1.160000      0.0000000E+00
  -1.150000      0.0000000E+00
  -1.140000      0.0000000E+00
  -1.130000      0.0000000E+00
  -1.120000      0.0000000E+00
  -1.110000      0.0000000E+00
  -1.100000      0.0000000E+00
  -1.090000      0.0000000E+00
  -1.080000      0.0000000E+00
  -1.070000      0.0000000E+00
  -1.060000      0.0000000E+00
  -1.050000      0.0000000E+00
  -1.040000      0.0000000E+00
  -1.030000      0.0000000E+00
  -1.020000      0.0000000E+00
  -1.010000      0.0000000E+00
  -1.000000      0.0000000E+00
 -0.9900000      0.0000000E+00
 -0.9800000      0.0000000E+00
 -0.9700000      0.0000000E+00
 -0.9600000      0.0000000E+00
 -0.9500000      0.0000000E+00
 -0.9400000      0.0000000E+00
 -0.9300000      0.0000000E+00
 -0.9200000      0.0000000E+00
 -0.9100000      0.0000000E+00
 -0.9000000      0.0000000E+00
 -0.8900000      0.0000000E+00
 -0.8800000      0.0000000E+00
 -0.8700000      0.0000000E+00
 -0.8600000      0.0000000E+00
 -0.8500000      0.0000000E+00
 -0.8400000      0.0000000E+00
 -0.8300000      0.0000000E+00
 -0.8200000      0.0000000E+00
 -0.8100000      0.0000000E+00
 -0.8000000      0.0000000E+00
 -0.7900000      0.0000000E+00
 -0.7800000      0.0000000E+00
 -0.7700000      0.0000000E+00
 -0.7600000      0.0000000E+00
 -0.7500000      0.0000000E+00
 -0.7400000      0.0000000E+00
 -0.7300000      0.0000000E+00
 -0.7200000      0.0000000E+00
 -0.7100000      0.0000000E+00
 -0.7000000      0.0000000E+00
 -0.6900000      0.0000000E+00
 -0.6800000      0.0000000E+00
 -0.6700000      0.0000000E+00
 -0.6600000      0.0000000E+00
 -0.6500000      0.0000000E+00
 -0.6400000      0.0000000E+00
 -0.6300000      0.0000000E+00
 -0.6200000      0.0000000E+00
 -0.6100000      0.0000000E+00
 -0.6000000      0.0000000E+00
 -0.5900000      0.0000000E+00
 -0.5800000      0.0000000E+00
 -0.5700000      0.0000000E+00
 -0.5600000      0.0000000E+00
 -0.5500000      0.0000000E+00
 -0.5400000      0.0000000E+00
 -0.5300000      0.0000000E+00
 -0.5200000      0.0000000E+00
 -0.5100000      0.0000000E+00
 -0.5000000      0.0000000E+00
 -0.4900000      0.0000000E+00
 -0.4800000      0.0000000E+00
 -0.4700000      0.0000000E+00
 -0.4600000      0.0000000E+00
 -0.4500000      0.0000000E+00
 -0.4400000      0.0000000E+00
 -0.4300000      0.0000000E+00
 -0.4200000      0.0000000E+00
 -0.4100000      0.0000000E+00
 -0.4000000      0.0000000E+00
 -0.3900000      0.0000000E+00
 -0.3800000      0.0000000E+00
 -0.3700000      0.0000000E+00
 -0.3600000      0.0000000E+00
 -0.3500000      0.0000000E+00
 -0.3400000      0.0000000E+00
 -0.3300000      0.0000000E+00
 -0.3200000      0.0000000E+00
 -0.3100000      0.0000000E+00
 -0.3000000      0.0000000E+00
 -0.2900000      0.0000000E+00
 -0.2800000      0.0000000E+00
 -0.2700000      0.0000000E+00
 -0.2600000      0.0000000E+00
 -0.2500000      0.0000000E+00
 -0.2400000      0.0000000E+00
 -0.2300000      0.0000000E+00
 -0.2200000      0.0000000E+00
 -0.2100000      0.0000000E+00
 -0.2000000      0.0000000E+00
 -0.1900000      0.0000000E+00
 -0.1800000      0.0000000E+00
 -0.1700000      0.0000000E+00
 -0.1600000      0.0000000E+00
 -0.1500000      0.0000000E+00
 -0.1400000      0.0000000E+00
 -0.1300000      0.0000000E+00
 -0.1200000      0.0000000E+00
 -0.1100000      0.0000000E+00
 -0.1000000      0.0000000E+00
 -9.0000004E-02  0.0000000E+00
 -7.9999998E-02  0.0000000E+00
 -7.0000000E-02  0.0000000E+00
 -5.9999999E-02  0.0000000E+00
 -5.0000001E-02  0.0000000E+00
 -3.9999999E-02  0.0000000E+00
 -2.9999999E-02  0.0000000E+00
 -2.0000000E-02  0.0000000E+00
 -9.9999998E-03  0.0000000E+00
 -3.4694470E-17  0.0000000E+00
  9.9999998E-03  0.0000000E+00
  2.0000000E-02  0.0000000E+00
  2.9999999E-02  0.0000000E+00
  3.9999999E-02  0.0000000E+00
  5.0000001E-02  0.0000000E+00
  5.9999999E-02  0.0000000E+00
  7.0000000E-02  0.0000000E+00
  7.9999998E-02  0.0000000E+00
  9.0000004E-02  0.0000000E+00
  0.1000000      0.0000000E+00
  0.1100000      0.0000000E+00
  0.1200000      0.0000000E+00
  0.1300000      0.0000000E+00
  0.1400000      0.0000000E+00
  0.1500000      0.0000000E+00
  0.1600000      0.0000000E+00
  0.1700000      0.0000000E+00
  0.1800000      0.0000000E+00
  0.1900000      0.0000000E+00
  0.2000000      0.0000000E+00
  0.2100000      0.0000000E+00
  0.2200000      0.0000000E+00
  0.2300000      0.0000000E+00
  0.2400000      0.0000000E+00
  0.2500000      0.0000000E+00
  0.2600000      0.0000000E+00
  0.2700000      0.0000000E+00
  0.2800000      0.0000000E+00
  0.2900000      0.0000000E+00
  0.3000000      0.0000000E+00
  0.3100000      0.0000000E+00
  0.3200000      0.0000000E+00
  0.3300000      0.0000000E+00
  0.3400000      0.0000000E+00
  0.3500000      0.0000000E+00
  0.3600000      0.0000000E+00
  0.3700000      0.0000000E+00
  0.3800000      0.0000000E+00
  0.3900000      0.0000000E+00
  0.4000000      0.0000000E+00
  0.4100000      0.0000000E+00
  0.4200000      0.0000000E+00
  0.4300000      0.0000000E+00
  0.4400000      0.0000000E+00
  0.4500000      0.0000000E+00
  0.4600000      0.0000000E+00
  0.4700000      0.0000000E+00
  0.4800000      0.0000000E+00
  0.4900000      0.0000000E+00
  0.5000000      0.0000000E+00
  0.5100000      0.0000000E+00
  0.5200000      0.0000000E+00
  0.5300000      0.0000000E+00
  0.5400000      0.0000000E+00
  0.5500000      0.0000000E+00
  0.5600000      0.0000000E+00
  0.5700000      0.0000000E+00
  0.5800000      0.0000000E+00
  0.5900000      0.0000000E+00
  0.6000000      0.0000000E+00
  0.6100000      0.0000000E+00
  0.6200000      0.0000000E+00
  0.6300000      0.0000000E+00
  0.6400000      0.0000000E+00
  0.6500000      0.0000000E+00
  0.6600000      0.0000000E+00
  0.6700000      0.0000000E+00
  0.6800000      0.0000000E+00
  0.6900000      0.0000000E+00
  0.7000000      0.0000000E+00
  0.7100000      0.0000000E+00
  0.7200000      0.0000000E+00
  0.7300000      0.0000000E+00
  0.7400000      0.0000000E+00
  0.7500000      0.0000000E+00
  0.7600000      0.0000000E+00
  0.7700000      0.0000000E+00
  0.7800000      0.0000000E+00
  0.7900000      0.0000000E+00
  0.8000000      0.0000000E+00
  0.8100000      0.0000000E+00
  0.8200000      0.0000000E+00
  0.8300000      0.0000000E+00
  0.8400000      0.0000000E+00
  0.8500000      0.0000000E+00
  0.8600000      0.0000000E+00
  0.8700000      0.0000000E+00
  0.8800000      0.0000000E+00
  0.8900000      0.0000000E+00
  0.9000000      0.0000000E+00
  0.9100000      0.0000000E+00
  0.9200000      0.0000000E+00
  0.9300000      0.0000000E+00
  0.9400000      0.0000000E+00
  0.9500000      0.0000000E+00
  0.9600000      0.0000000E+00
  0.9700000      0.0000000E+00
  0.9800000      0.0000000E+00
  0.9900000      0.0000000E+00
   1.000000      0.0000000E+00
   1.010000      0.0000000E+00
   1.020000      0.0000000E+00
   1.030000      0.0000000E+00
   1.040000      0.0000000E+00
   1.050000      0.0000000E+00
   1.060000      0.0000000E+00
   1.070000      0.0000000E+00
   1.080000      0.0000000E+00
   1.090000      0.0000000E+00
   1.100000      0.0000000E+00
   1.110000      0.0000000E+00
   1.120000      0.0000000E+00
   1.130000      0.0000000E+00
   1.140000      0.0000000E+00
   1.150000      0.0000000E+00
   1.160000      0.0000000E+00
   1.170000      0.0000000E+00
   1.180000      0.0000000E+00
   1.190000      0.0000000E+00
   1.200000      0.0000000E+00
   1.210000      0.0000000E+00
   1.220000      0.0000000E+00
   1.230000      0.0000000E+00
   1.240000      0.0000000E+00
   1.250000      0.0000000E+00
   1.260000      0.0000000E+00
   1.270000      0.0000000E+00
   1.280000      0.0000000E+00
   1.290000      0.0000000E+00
   1.300000      0.0000000E+00
   1.310000      0.0000000E+00
   1.320000      0.0000000E+00
   1.330000      0.0000000E+00
   1.340000      0.0000000E+00
   1.350000      0.0000000E+00
   1.360000      0.0000000E+00
   1.370000      0.0000000E+00
   1.380000      0.0000000E+00
   1.390000      0.0000000E+00
   1.400000      0.0000000E+00
   1.410000      0.0000000E+00
   1.420000      0.0000000E+00
   1.430000      0.0000000E+00
   1.440000      0.0000000E+00
   1.450000      0.0000000E+00
   1.460000      0.0000000E+00
   1.470000      0.0000000E+00
   1.480000      0.0000000E+00
   1.490000      0.0000000E+00
   1.500000      0.0000000E+00
   1.510000      0.0000000E+00
   1.520000      0.0000000E+00
   1.530000      0.0000000E+00
   1.540000      0.0000000E+00
   1.550000      0.0000000E+00
   1.560000      0.0000000E+00
   1.570000      0.0000000E+00
   1.580000      0.0000000E+00
   1.590000      0.0000000E+00
   1.600000      0.0000000E+00
   1.610000      0.0000000E+00
   1.620000      0.0000000E+00
   1.630000      0.0000000E+00
   1.640000      0.0000000E+00
   1.650000      0.0000000E+00
   1.660000      0.0000000E+00
   1.670000      0.0000000E+00
   1.680000      0.0000000E+00
   1.690000      0.0000000E+00
   1.700000      0.0000000E+00
   1.710000      0.0000000E+00
   1.720000      0.0000000E+00
   1.730000      0.0000000E+00
   1.740000      0.0000000E+00
   1.750000      0.0000000E+00
   1.760000      0.0000000E+00
   1.770000      0.0000000E+00
   1.780000      0.0000000E+00
   1.790000      0.0000000E+00
   1.800000      0.0000000E+00
   1.810000      0.0000000E+00
   1.820000      0.0000000E+00
   1.830000      0.0000000E+00
   1.840000      0.0000000E+00
   1.850000      0.0000000E+00
   1.860000      0.0000000E+00
   1.870000      0.0000000E+00
   1.880000      0.0000000E+00
   1.890000      0.0000000E+00
   1.900000      0.0000000E+00
   1.910000      0.0000000E+00
   1.920000      0.0000000E+00
   1.930000      0.0000000E+00
   1.940000      0.0000000E+00
   1.950000      0.0000000E+00
   1.960000      0.0000000E+00
   1.970000      0.0000000E+00
   1.980000      0.0000000E+00
   1.990000      0.0000000E+00
   2.000000      0.0000000E+00
   2.010000      0.0000000E+00
   2.020000      0.0000000E+00
   2.030000      0.0000000E+00
   2.040000      0.0000000E+00
   2.050000      0.0000000E+00
   2.060000      0.0000000E+00
   2.070000      0.0000000E+00
   2.080000      0.0000000E+00
   2.090000      0.0000000E+00
   2.100000      0.0000000E+00
   2.110000      0.0000000E+00
   2.120000      0.0000000E+00
   2.130000      0.0000000E+00
   2.140000      0.0000000E+00
   2.150000      0.0000000E+00
   2.160000      0.0000000E+00
   2.170000      0.0000000E+00
   2.180000      0.0000000E+00
   2.190000      0.0000000E+00
   2.200000      0.0000000E+00
   2.210000      0.0000000E+00
   2.220000      0.0000000E+00
   2.230000      0.0000000E+00
   2.240000      0.0000000E+00
   2.250000      0.0000000E+00
   2.260000      0.0000000E+00
   2.270000      0.0000000E+00
   2.280000      0.0000000E+00
   2.290000      0.0000000E+00
   2.300000      0.0000000E+00
   2.310000      0.0000000E+00
   2.320000      0.0000000E+00
   2.330000      0.0000000E+00
   2.340000      0.0000000E+00
   2.350000      0.0000000E+00
   2.360000      0.0000000E+00
   2.370000      0.0000000E+00
   2.380000      0.0000000E+00
   2.390000      0.0000000E+00
   2.400000      0.0000000E+00
   2.410000      0.0000000E+00
   2.420000      0.0000000E+00
   2.430000      0.0000000E+00
   2.440000      0.0000000E+00
   2.450000      0.0000000E+00
   2.460000      0.0000000E+00
   2.470000      0.0000000E+00
   2.480000      0.0000000E+00
   2.490000      0.0000000E+00
   2.500000      0.0000000E+00
   2.510000      0.0000000E+00
   2.520000      0.0000000E+00
   2.530000      0.0000000E+00
   2.540000      0.0000000E+00
   2.550000      0.0000000E+00
   2.560000      0.0000000E+00
   2.570000      0.0000000E+00
   2.580000      0.0000000E+00
   2.590000      0.0000000E+00
   2.600000      0.0000000E+00
   2.610000      0.0000000E+00
   2.620000      0.0000000E+00
   2.630000      0.0000000E+00
   2.640000      0.0000000E+00
   2.650000      0.0000000E+00
   2.660000      0.0000000E+00
   2.670000      0.0000000E+00
   2.680000      0.0000000E+00
   2.690000      0.0000000E+00
   2.700000      0.0000000E+00
   2.710000      0.0000000E+00
   2.720000      0.0000000E+00
   2.730000      0.0000000E+00
   2.740000      0.0000000E+00
   2.750000      0.0000000E+00
   2.760000      0.0000000E+00
   2.770000      0.0000000E+00
   2.780000      0.0000000E+00
   2.790000      0.0000000E+00
   2.800000      0.0000000E+00
   2.810000      0.0000000E+00
   2.820000      0.0000000E+00
   2.830000      0.0000000E+00
   2.840000      0.0000000E+00
   2.850000      0.0000000E+00
   2.860000      0.0000000E+00
   2.870000      0.0000000E+00
   2.880000      0.0000000E+00
   2.890000      0.0000000E+00
   2.900000      0.0000000E+00
   2.910000      0.0000000E+00
   2.920000      0.0000000E+00
   2.930000      0.0000000E+00
   2.940000      0.0000000E+00
   2.950000      0.0000000E+00
   2.960000      0.0000000E+00
   2.970000      0.0000000E+00
   2.980000      0.0000000E+00
   2.990000      0.0000000E+00
   3.000000      0.0000000E+00
   3.010000      0.0000000E+00
   3.020000      0.0000000E+00
   3.030000      0.0000000E+00
   3.040000      0.0000000E+00
   3.050000      0.0000000E+00
   3.060000      0.0000000E+00
   3.070000      0.0000000E+00
   3.080000      0.0000000E+00
   3.090000      0.0000000E+00
   3.100000      0.0000000E+00
   3.110000      0.0000000E+00
   3.120000      0.0000000E+00
   3.130000      0.0000000E+00
   3.140000      0.0000000E+00
   3.150000      0.0000000E+00
   3.160000      0.0000000E+00
   3.170000      0.0000000E+00
   3.180000      0.0000000E+00
   3.190000      0.0000000E+00
   3.200000      0.0000000E+00
   3.210000      0.0000000E+00
   3.220000      0.0000000E+00
   3.230000     -1.3329580E-38
   3.240000     -1.6453527E-38
   3.250000     -1.9439268E-38
   3.260000     -2.2064818E-38
   3.270000     -2.3707123E-38
   3.280000     -2.4613538E-38
   3.290000     -2.5447813E-38
   3.300000     -2.6158490E-38
   3.310000     -2.7403162E-38
   3.320000     -2.9057112E-38
   3.330000     -3.0504889E-38
   3.340000     -3.2047662E-38
   3.350000     -3.3647598E-38
   3.360000     -3.5509850E-38
   3.370000     -3.7346515E-38
   3.380000     -3.8744210E-38
   3.390000     -3.9239734E-38
   3.400000     -3.8939217E-38
   3.410000     -3.8676648E-38
   3.420000     -3.8856106E-38
   3.430000     -3.8743484E-38
   3.440000     -3.8143678E-38
   3.450000     -3.5969471E-38
   3.460000     -3.0859585E-38
   3.470000     -2.4899395E-38
   3.480000     -1.9123915E-38
   3.490000     -1.3117744E-38
   3.500000      0.0000000E+00
   3.510000      0.0000000E+00
   3.520000      0.0000000E+00
   3.530000      0.0000000E+00
   3.540000      1.8843119E-38
   3.550000      2.7239252E-38
   3.560000      3.6714286E-38
   3.570000      4.7406219E-38
   3.580000      5.8837406E-38
   3.590000      7.0484063E-38
   3.600000      8.2156666E-38
   3.610000      9.3711543E-38
   3.620000      1.0629825E-37
   3.630000      1.2145066E-37
   3.640000      1.3813155E-37
   3.650000      1.5095844E-37
   3.660000      1.5821336E-37
   3.670000      1.6110432E-37
   3.680000      1.6028801E-37
   3.690000      1.5900448E-37
   3.700000      1.5977817E-37
   3.710000      1.5743727E-37
   3.720000      1.5067862E-37
   3.730000      1.4336935E-37
   3.740000      1.5605892E-37
   3.750000      1.9447422E-37
   3.760000      2.3834966E-37
   3.770000      2.7302061E-37
   3.780000      2.9358514E-37
   3.790000      3.0510873E-37
   3.800000      3.0746399E-37
   3.810000      2.9141771E-37
   3.820000      2.6037415E-37
   3.830000      2.2992198E-37
   3.840000      1.9671952E-37
   3.850000      1.6845425E-37
   3.860000      1.5242615E-37
   3.870000      1.3681983E-37
   3.880000      1.1405053E-37
   3.890000      7.8299368E-38
   3.900000      1.9620552E-38
   3.910000     -6.8765090E-38
   3.920000     -1.7366766E-37
   3.930000     -2.7694740E-37
   3.940000     -3.7530430E-37
   3.950000     -4.4003691E-37
   3.960000     -4.8349550E-37
   3.970000     -5.3498046E-37
   3.980000     -6.0478087E-37
   3.990000     -6.6683642E-37
   4.000000     -7.0269315E-37
   4.010000     -6.7437199E-37
   4.020000     -5.9226043E-37
   4.030000     -5.2287320E-37
   4.040000     -4.4986945E-37
   4.050000     -3.7375469E-37
   4.060000     -3.0240817E-37
   4.070000     -2.3275563E-37
   4.080000     -1.8469609E-37
   4.090000     -3.5589519E-37
   4.100000     -8.4509346E-37
   4.110000     -1.5190074E-36
   4.120000     -2.2741364E-36
   4.130000     -3.0338843E-36
   4.140000     -3.7351875E-36
   4.150000     -4.2448806E-36
   4.160000     -4.5997437E-36
   4.170000     -4.9300641E-36
   4.180000     -5.2286314E-36
   4.190000     -5.2759421E-36
   4.200000     -4.9810813E-36
   4.210000     -4.5078321E-36
   4.220000     -3.9112257E-36
   4.230000     -3.1940217E-36
   4.240000     -2.3749131E-36
   4.250000     -1.6196594E-36
   4.260000     -1.2526484E-36
   4.270000     -1.4029749E-36
   4.280000     -1.7639436E-36
   4.290000     -2.1497719E-36
   4.300000     -2.8977044E-36
   4.310000     -4.0623321E-36
   4.320000     -5.3379565E-36
   4.330000     -6.5724053E-36
   4.340000     -7.5362920E-36
   4.350000     -8.3092305E-36
   4.360000     -8.5065548E-36
   4.370000     -7.5940587E-36
   4.380000     -5.9674845E-36
   4.390000     -3.9120601E-36
   4.400000     -1.5069902E-36
   4.410000      1.0172552E-36
   4.420000      3.4900488E-36
   4.430000      5.7595033E-36
   4.440000      7.4887987E-36
   4.450000      8.5832540E-36
   4.460000      9.0949642E-36
   4.470000      9.2083352E-36
   4.480000      9.2251690E-36
   4.490000      8.9756082E-36
   4.500000      8.5495303E-36
   4.510000      8.3974098E-36
   4.520000      8.6388180E-36
   4.530000      9.4527388E-36
   4.540000      1.0920802E-35
   4.550000      1.2962781E-35
   4.560000      1.5577455E-35
   4.570000      1.8721250E-35
   4.580000      2.2470047E-35
   4.590000      2.6699354E-35
   4.600000      3.0789342E-35
   4.610000      3.4276448E-35
   4.620000      3.7240539E-35
   4.630000      3.9668380E-35
   4.640000      4.1807518E-35
   4.650000      4.3835467E-35
   4.660000      4.5421768E-35
   4.670000      4.5612846E-35
   4.680000      4.4403048E-35
   4.690000      4.2910213E-35
   4.700000      4.1531375E-35
   4.710000      4.0574142E-35
   4.720000      3.9573700E-35
   4.730000      3.8130394E-35
   4.740000      3.7617974E-35
   4.750000      3.8280935E-35
   4.760000      3.9183313E-35
   4.770000      4.0620384E-35
   4.780000      4.2262294E-35
   4.790000      4.2410924E-35
   4.800000      4.0743306E-35
   4.810000      3.7444532E-35
   4.820000      3.0842314E-35
   4.830000      2.3737625E-35
   4.840000      2.1445617E-35
   4.850000      1.6226665E-35
   4.860000      5.4733080E-36
   4.870000     -3.7501394E-36
   4.880000     -1.0244176E-35
   4.890000     -1.2691670E-35
   4.900000     -5.3274510E-36
   4.910000      9.9310353E-36
   4.920000      2.0511185E-35
   4.930000      2.3156240E-35
   4.940000      2.2230639E-35
   4.950000      1.1408905E-35
   4.960000     -1.1957888E-35
   4.970000     -4.1220604E-35
   4.980000     -7.7509411E-35
   4.990000     -1.2031857E-34
   5.000000     -1.6489168E-34
   5.010000     -2.0370429E-34
   5.020000     -2.3212661E-34
   5.030000     -2.5558996E-34
   5.040000     -2.7657617E-34
   5.050000     -2.8786589E-34
   5.060000     -2.9606382E-34
   5.070000     -3.0749647E-34
   5.080000     -3.1516305E-34
   5.090000     -3.2125269E-34
   5.100000     -3.2988477E-34
   5.110000     -3.4123008E-34
   5.120000     -3.5549583E-34
   5.130000     -3.7491449E-34
   5.140000     -4.0191791E-34
   5.150000     -4.3317325E-34
   5.160000     -4.5623140E-34
   5.170000     -4.6323964E-34
   5.180000     -4.6549333E-34
   5.190000     -4.7020839E-34
   5.200000     -4.7279981E-34
   5.210000     -4.7023737E-34
   5.220000     -4.6041400E-34
   5.230000     -4.4692819E-34
   5.240000     -4.3837546E-34
   5.250000     -4.3010126E-34
   5.260000     -4.1719447E-34
   5.270000     -4.1027503E-34
   5.280000     -4.1216923E-34
   5.290000     -4.1139791E-34
   5.300000     -4.0025803E-34
   5.310000     -3.7742839E-34
   5.320000     -3.4350261E-34
   5.330000     -3.0610369E-34
   5.340000     -2.6172428E-34
   5.350000     -2.0480379E-34
   5.360000     -1.3580401E-34
   5.370000     -5.6900200E-35
   5.380000      2.8480001E-35
   5.390000      1.2154738E-34
   5.400000      2.2478783E-34
   5.410000      3.3961258E-34
   5.420000      4.5979439E-34
   5.430000      5.8439628E-34
   5.440000      7.1516943E-34
   5.450000      8.5106489E-34
   5.460000      9.9368578E-34
   5.470000      1.1428197E-33
   5.480000      1.2968868E-33
   5.490000      1.4550974E-33
   5.500000      1.6179987E-33
   5.510000      1.7864271E-33
   5.520000      1.9588566E-33
   5.530000      2.1334905E-33
   5.540000      2.3099909E-33
   5.550000      2.4887708E-33
   5.560000      2.6681516E-33
   5.570000      2.8484383E-33
   5.580000      3.0272348E-33
   5.590000      3.2001864E-33
   5.600000      3.3729991E-33
   5.610000      3.5450606E-33
   5.620000      3.7128437E-33
   5.630000      3.8788445E-33
   5.640000      4.0416618E-33
   5.650000      4.2029176E-33
   5.660000      4.3641873E-33
   5.670000      4.5234779E-33
   5.680000      4.6822882E-33
   5.690000      4.8353383E-33
   5.700000      4.9775199E-33
   5.710000      5.1089222E-33
   5.720000      5.2267688E-33
   5.730000      5.3283344E-33
   5.740000      5.4101610E-33
   5.750000      5.4684313E-33
   5.760000      5.5038019E-33
   5.770000      5.5101118E-33
   5.780000      5.4803920E-33
   5.790000      5.4157229E-33
   5.800000      5.3143923E-33
   5.810000      5.1737290E-33
   5.820000      4.9932274E-33
   5.830000      4.7720585E-33
   5.840000      4.5066260E-33
   5.850000      4.1961824E-33
   5.860000      3.8391219E-33
   5.870000      3.4312416E-33
   5.880000      2.9672767E-33
   5.890000      2.4453350E-33
   5.900000      1.8651876E-33
   5.910000      1.2215529E-33
   5.920000      5.0988404E-34
   5.930000     -2.7223898E-34
   5.940000     -1.1272114E-33
   5.950000     -2.0563318E-33
   5.960000     -3.0597323E-33
   5.970000     -4.1382254E-33
   5.980000     -5.2920282E-33
   5.990000     -6.5201248E-33
   6.000000     -7.8218195E-33
   6.010000     -9.1965205E-33
   6.020000     -1.0643847E-32
   6.030000     -1.2163654E-32
   6.040000     -1.3756572E-32
   6.050000     -1.5422916E-32
   6.060000     -1.7163171E-32
   6.070000     -1.8978352E-32
   6.080000     -2.0868750E-32
   6.090000     -2.2834136E-32
   6.100000     -2.4873334E-32
   6.110000     -2.6983905E-32
   6.120000     -2.9162002E-32
   6.130000     -3.1402479E-32
   6.140000     -3.3698793E-32
   6.150000     -3.6043028E-32
   6.160000     -3.8426326E-32
   6.170000     -4.0839019E-32
   6.180000     -4.3270835E-32
   6.190000     -4.5711202E-32
   6.200000     -4.8149421E-32
   6.210000     -5.0574651E-32
   6.220000     -5.2976063E-32
   6.230000     -5.5342415E-32
   6.240000     -5.7661812E-32
   6.250000     -5.9921724E-32
   6.260000     -6.2108649E-32
   6.270000     -6.4207682E-32
   6.280000     -6.6202137E-32
   6.290000     -6.8073677E-32
   6.300000     -6.9802042E-32
   6.310000     -7.1365073E-32
   6.320000     -7.2739032E-32
   6.330000     -7.3898845E-32
   6.340000     -7.4818429E-32
   6.350000     -7.5471075E-32
   6.360000     -7.5829589E-32
   6.370000     -7.5866976E-32
   6.380000     -7.5556375E-32
   6.390000     -7.4870838E-32
   6.400000     -7.3783629E-32
   6.410000     -7.2267976E-32
   6.420000     -7.0296801E-32
   6.430000     -6.7842493E-32
   6.440000     -6.4876638E-32
   6.450000     -6.1368910E-32
   6.460000     -5.7289921E-32
   6.470000     -5.2609238E-32
   6.480000     -4.7293517E-32
   6.490000     -4.1309754E-32
   6.500000     -3.4624803E-32
   6.510000     -2.7205894E-32
   6.520000     -1.9021137E-32
   6.530000     -1.0040085E-32
   6.540000     -2.3421707E-34
   6.550000      1.0422767E-32
   6.560000      2.1954670E-32
   6.570000      3.4382740E-32
   6.580000      4.7725676E-32
   6.590000      6.1999698E-32
   6.600000      7.7218771E-32
   6.610000      9.3394701E-32
   6.620000      1.1053721E-31
   6.630000      1.2865382E-31
   6.640000      1.4774975E-31
   6.650000      1.6782753E-31
   6.660000      1.8888645E-31
   6.670000      2.1092198E-31
   6.680000      2.3392509E-31
   6.690000      2.5788136E-31
   6.700000      2.8277031E-31
   6.710000      3.0856468E-31
   6.720000      3.3522999E-31
   6.730000      3.6272394E-31
   6.740000      3.9099629E-31
   6.750000      4.1998876E-31
   6.760000      4.4963496E-31
   6.770000      4.7986059E-31
   6.780000      5.1058335E-31
   6.790000      5.4171312E-31
   6.800000      5.7315200E-31
   6.810000      6.0479405E-31
   6.820000      6.3652502E-31
   6.830000      6.6822189E-31
   6.840000      6.9975241E-31
   6.850000      7.3097444E-31
   6.860000      7.6173543E-31
   6.870000      7.9187158E-31
   6.880000      8.2120759E-31
   6.890000      8.4955638E-31
   6.900000      8.7671886E-31
   6.910000      9.0248362E-31
   6.920000      9.2662781E-31
   6.930000      9.4891725E-31
   6.940000      9.6910698E-31
   6.950000      9.8694158E-31
   6.960000      1.0021562E-30
   6.970000      1.0144771E-30
   6.980000      1.0236216E-30
   6.990000      1.0292991E-30
   7.000000      1.0312106E-30
   7.010000      1.0290497E-30
   7.020000      1.0225018E-30
   7.030000      1.0112455E-30
   7.040000      9.9495168E-31
   7.050000      9.7328421E-31
   7.060000      9.4590121E-31