  -2.600000      0.0000000E+00
  -2.590000      0.0000000E+00
  -2.580000      0.0000000E+00
  -2.570000      0.0000000E+00
  -2.560000      0.0000000E+00
  -2.550000      0.0000000E+00
  -2.540000      0.0000000E+00
  -2.530000      0.0000000E+00
  -2.520000      0.0000000E+00
  -2.510000      0.0000000E+00
  -2.500000      0.0000000E+00
  -2.490000      0.0000000E+00
  -2.480000      0.0000000E+00
  -2.470000      0.0000000E+00
  -2.460000      0.0000000E+00
  -2.450000      0.0000000E+00
  -2.440000      0.0000000E+00
  -2.430000      0.0000000E+00
  -2.420000      0.0000000E+00
  -2.410000      0.0000000E+00
  -2.400000      0.0000000E+00
  -2.390000      0.0000000E+00
  -2.380000      0.0000000E+00
  -2.370000      0.0000000E+00
  -2.360000      0.0000000E+00
  -2.350000      0.0000000E+00
  -2.340000      0.0000000E+00
  -2.330000      0.0000000E+00
  -2.320000      0.0000000E+00
  -2.310000      0.0000000E+00
  -2.300000      0.0000000E+00
  -2.290000      0.0000000E+00
  -2.280000      0.0000000E+00
  -2.270000      0.0000000E+00
  -2.260000      0.0000000E+00
  -2.250000      0.0000000E+00
  -2.240000      0.0000000E+00
  -2.230000      0.0000000E+00
  -2.220000      0.0000000E+00
  -2.210000      0.0000000E+00
  -2.200000      0.0000000E+00
  -2.190000      0.0000000E+00
  -2.180000      0.0000000E+00
  -2.170000      0.0000000E+00
  -2.160000      0.0000000E+00
  -2.150000      0.0000000E+00
  -2.140000      0.0000000E+00
  -2.130000      0.0000000E+00
  -2.120000      0.0000000E+00
  -2.110000      0.0000000E+00
  -2.100000      0.0000000E+00
  -2.090000      0.0000000E+00
  -2.080000      0.0000000E+00
  -2.070000      0.0000000E+00
  -2.060000      0.0000000E+00
  -2.050000      0.0000000E+00
  -2.040000      0.0000000E+00
  -2.030000      0.0000000E+00
  -2.020000      0.0000000E+00
  -2.010000      0.0000000E+00
  -2.000000      0.0000000E+00
  -1.990000      0.0000000E+00
  -1.980000      0.0000000E+00
  -1.970000      0.0000000E+00
  -1.960000      0.0000000E+00
  -1.950000      0.0000000E+00
  -1.940000      0.0000000E+00
  -1.930000      0.0000000E+00
  -1.920000      0.0000000E+00
  -1.910000      0.0000000E+00
  -1.900000      0.0000000E+00
  -1.890000      0.0000000E+00
  -1.880000      0.0000000E+00
  -1.870000      0.0000000E+00
  -1.860000      0.0000000E+00
  -1.850000      0.0000000E+00
  -1.840000      0.0000000E+00
  -1.830000      0.0000000E+00
  -1.820000      0.0000000E+00
  -1.810000      0.0000000E+00
  -1.800000      0.0000000E+00
  -1.790000      0.0000000E+00
  -1.780000      0.0000000E+00
  -1.770000      0.0000000E+00
  -1.760000      0.0000000E+00
  -1.750000      0.0000000E+00
  -1.740000      0.0000000E+00
  -1.730000      0.0000000E+00
  -1.720000      0.0000000E+00
  -1.710000      0.0000000E+00
  -1.700000      0.0000000E+00
  -1.690000      0.0000000E+00
  -1.680000      0.0000000E+00
  -1.670000      0.0000000E+00
  -1.660000      0.0000000E+00
  -1.650000      0.0000000E+00
  -1.640000      0.0000000E+00
  -1.630000      0.0000000E+00
  -1.620000      0.0000000E+00
  -1.610000      0.0000000E+00
  -1.600000      0.0000000E+00
  -1.590000      0.0000000E+00
  -1.580000      0.0000000E+00
  -1.570000      0.0000000E+00
  -1.560000      0.0000000E+00
  -1.550000      0.0000000E+00
  -1.540000      0.0000000E+00
  -1.530000      0.0000000E+00
  -1.520000      0.0000000E+00
  -1.510000      0.0000000E+00
  -1.500000      0.0000000E+00
  -1.490000      0.0000000E+00
  -1.480000      0.0000000E+00
  -1.470000      0.0000000E+00
  -1.460000      0.0000000E+00
  -1.450000      0.0000000E+00
  -1.440000      0.0000000E+00
  -1.430000      0.0000000E+00
  -1.420000      0.0000000E+00
  -1.410000      0.0000000E+00
  -1.400000      0.0000000E+00
  -1.390000      0.0000000E+00
  -1.380000      0.0000000E+00
  -1.370000      0.0000000E+00
  -1.360000      0.0000000E+00
  -1.350000      0.0000000E+00
  -1.340000      0.0000000E+00
  -1.330000      0.0000000E+00
  -1.320000      0.0000000E+00
  -1.310000      0.0000000E+00
  -1.300000      0.0000000E+00
  -1.290000      0.0000000E+00
  -1.280000      0.0000000E+00
  -1.270000      0.0000000E+00
  -1.260000      0.0000000E+00
  -1.250000      0.0000000E+00
  -1.240000      0.0000000E+00
  -1.230000      0.0000000E+00
  -1.220000      0.0000000E+00
  -1.210000      0.0000000E+00
  -1.200000      0.0000000E+00
  -1.190000      0.0000000E+00
  -1.180000      0.0000000E+00
  -1.170000      0.0000000E+00
  -1.160000      0.0000000E+00
  -1.150000      0.0000000E+00
  -1.140000      0.0000000E+00
  -1.130000      0.0000000E+00
  -1.120000      0.0000000E+00
  -1.110000      0.0000000E+00
  -1.100000      0.0000000E+00
  -1.090000      0.0000000E+00
  -1.080000      0.0000000E+00
  -1.070000      0.0000000E+00
  -1.060000      0.0000000E+00
  -1.050000      0.0000000E+00
  -1.040000      0.0000000E+00
  -1.030000      0.0000000E+00
  -1.020000      0.0000000E+00
  -1.010000      0.0000000E+00
  -1.000000      0.0000000E+00
 -0.9900000      0.0000000E+00
 -0.9800000      0.0000000E+00
 -0.9700000      0.0000000E+00
 -0.9600000      0.0000000E+00
 -0.9500000      0.0000000E+00
 -0.9400000      0.0000000E+00
 -0.9300000      0.0000000E+00
 -0.9200000      0.0000000E+00
 -0.9100000      0.0000000E+00
 -0.9000000      0.0000000E+00
 -0.8900000      0.0000000E+00
 -0.8800000      0.0000000E+00
 -0.8700000      0.0000000E+00
 -0.8600000      0.0000000E+00
 -0.8500000      0.0000000E+00
 -0.8400000      0.0000000E+00
 -0.8300000      0.0000000E+00
 -0.8200000      0.0000000E+00
 -0.8100000      0.0000000E+00
 -0.8000000      0.0000000E+00
 -0.7900000      0.0000000E+00
 -0.7800000      0.0000000E+00
 -0.7700000      0.0000000E+00
 -0.7600000      0.0000000E+00
 -0.7500000      0.0000000E+00
 -0.7400000      0.0000000E+00
 -0.7300000      0.0000000E+00
 -0.7200000      0.0000000E+00
 -0.7100000      0.0000000E+00
 -0.7000000      0.0000000E+00
 -0.6900000      0.0000000E+00
 -0.6800000      0.0000000E+00
 -0.6700000      0.0000000E+00
 -0.6600000      0.0000000E+00
 -0.6500000      0.0000000E+00
 -0.6400000      0.0000000E+00
 -0.6300000      0.0000000E+00
 -0.6200000      0.0000000E+00
 -0.6100000      0.0000000E+00
 -0.6000000      0.0000000E+00
 -0.5900000      0.0000000E+00
 -0.5800000      0.0000000E+00
 -0.5700000      0.0000000E+00
 -0.5600000      0.0000000E+00
 -0.5500000      0.0000000E+00
 -0.5400000      0.0000000E+00
 -0.5300000      0.0000000E+00
 -0.5200000      0.0000000E+00
 -0.5100000      0.0000000E+00
 -0.5000000      0.0000000E+00
 -0.4900000      0.0000000E+00
 -0.4800000      0.0000000E+00
 -0.4700000      0.0000000E+00
 -0.4600000      0.0000000E+00
 -0.4500000      0.0000000E+00
 -0.4400000      0.0000000E+00
 -0.4300000      0.0000000E+00
 -0.4200000      0.0000000E+00
 -0.4100000      0.0000000E+00
 -0.4000000      0.0000000E+00
 -0.3900000      0.0000000E+00
 -0.3800000      0.0000000E+00
 -0.3700000      0.0000000E+00
 -0.3600000      0.0000000E+00
 -0.3500000      0.0000000E+00
 -0.3400000      0.0000000E+00
 -0.3300000      0.0000000E+00
 -0.3200000      0.0000000E+00
 -0.3100000      0.0000000E+00
 -0.3000000      0.0000000E+00
 -0.2900000      0.0000000E+00
 -0.2800000      0.0000000E+00
 -0.2700000      0.0000000E+00
 -0.2600000      0.0000000E+00
 -0.2500000      0.0000000E+00
 -0.2400000      0.0000000E+00
 -0.2300000      0.0000000E+00
 -0.2200000      0.0000000E+00
 -0.2100000      0.0000000E+00
 -0.2000000      0.0000000E+00
 -0.1900000      0.0000000E+00
 -0.1800000      0.0000000E+00
 -0.1700000      0.0000000E+00
 -0.1600000      0.0000000E+00
 -0.1500000      0.0000000E+00
 -0.1400000      0.0000000E+00
 -0.1300000      0.0000000E+00
 -0.1200000      0.0000000E+00
 -0.1100000      0.0000000E+00
 -0.1000000      0.0000000E+00
 -9.0000004E-02  0.0000000E+00
 -7.9999998E-02  0.0000000E+00
 -7.0000000E-02  0.0000000E+00
 -5.9999999E-02  0.0000000E+00
 -5.0000001E-02  0.0000000E+00
 -3.9999999E-02  0.0000000E+00
 -2.9999999E-02  0.0000000E+00
 -2.0000000E-02  0.0000000E+00
 -9.9999998E-03  0.0000000E+00
 -3.4694470E-17  0.0000000E+00
  9.9999998E-03  0.0000000E+00
  2.0000000E-02  0.0000000E+00
  2.9999999E-02  0.0000000E+00
  3.9999999E-02  0.0000000E+00
  5.0000001E-02  0.0000000E+00
  5.9999999E-02  0.0000000E+00
  7.0000000E-02  0.0000000E+00
  7.9999998E-02  0.0000000E+00
  9.0000004E-02  0.0000000E+00
  0.1000000      0.0000000E+00
  0.1100000      0.0000000E+00
  0.1200000      0.0000000E+00
  0.1300000      0.0000000E+00
  0.1400000      0.0000000E+00
  0.1500000      0.0000000E+00
  0.1600000      0.0000000E+00
  0.1700000      0.0000000E+00
  0.1800000      0.0000000E+00
  0.1900000      0.0000000E+00
  0.2000000      0.0000000E+00
  0.2100000      0.0000000E+00
  0.2200000      0.0000000E+00
  0.2300000      0.0000000E+00
  0.2400000      0.0000000E+00
  0.2500000      0.0000000E+00
  0.2600000      0.0000000E+00
  0.2700000      0.0000000E+00
  0.2800000      0.0000000E+00
  0.2900000      0.0000000E+00
  0.3000000      0.0000000E+00
  0.3100000      0.0000000E+00
  0.3200000      0.0000000E+00
  0.3300000      0.0000000E+00
  0.3400000      0.0000000E+00
  0.3500000      0.0000000E+00
  0.3600000      0.0000000E+00
  0.3700000      0.0000000E+00
  0.3800000      0.0000000E+00
  0.3900000      0.0000000E+00
  0.4000000      0.0000000E+00
  0.4100000      0.0000000E+00
  0.4200000      0.0000000E+00
  0.4300000      0.0000000E+00
  0.4400000      0.0000000E+00
  0.4500000      0.0000000E+00
  0.4600000      0.0000000E+00
  0.4700000      0.0000000E+00
  0.4800000      0.0000000E+00
  0.4900000      0.0000000E+00
  0.5000000      0.0000000E+00
  0.5100000      0.0000000E+00
  0.5200000      0.0000000E+00
  0.5300000      0.0000000E+00
  0.5400000      0.0000000E+00
  0.5500000      0.0000000E+00
  0.5600000      0.0000000E+00
  0.5700000      0.0000000E+00
  0.5800000      0.0000000E+00
  0.5900000      0.0000000E+00
  0.6000000      0.0000000E+00
  0.6100000      0.0000000E+00
  0.6200000      0.0000000E+00
  0.6300000      0.0000000E+00
  0.6400000      0.0000000E+00
  0.6500000      0.0000000E+00
  0.6600000      0.0000000E+00
  0.6700000      0.0000000E+00
  0.6800000      0.0000000E+00
  0.6900000      0.0000000E+00
  0.7000000      0.0000000E+00
  0.7100000      0.0000000E+00
  0.7200000      0.0000000E+00
  0.7300000      0.0000000E+00
  0.7400000      0.0000000E+00
  0.7500000      0.0000000E+00
  0.7600000      0.0000000E+00
  0.7700000      0.0000000E+00
  0.7800000      0.0000000E+00
  0.7900000      0.0000000E+00
  0.8000000      0.0000000E+00
  0.8100000      0.0000000E+00
  0.8200000      0.0000000E+00
  0.8300000      0.0000000E+00
  0.8400000      0.0000000E+00
  0.8500000      0.0000000E+00
  0.8600000      0.0000000E+00
  0.8700000      0.0000000E+00
  0.8800000      0.0000000E+00
  0.8900000      0.0000000E+00
  0.9000000      0.0000000E+00
  0.9100000      0.0000000E+00
  0.9200000      0.0000000E+00
  0.9300000      0.0000000E+00
  0.9400000      0.0000000E+00
  0.9500000      0.0000000E+00
  0.9600000      0.0000000E+00
  0.9700000      0.0000000E+00
  0.9800000      0.0000000E+00
  0.9900000      0.0000000E+00
   1.000000      0.0000000E+00
   1.010000      0.0000000E+00
   1.020000      0.0000000E+00
   1.030000      0.0000000E+00
   1.040000      0.0000000E+00
   1.050000      0.0000000E+00
   1.060000      0.0000000E+00
   1.070000      0.0000000E+00
   1.080000      0.0000000E+00
   1.090000      0.0000000E+00
   1.100000      0.0000000E+00
   1.110000      0.0000000E+00
   1.120000      0.0000000E+00
   1.130000      0.0000000E+00
   1.140000      0.0000000E+00
   1.150000      0.0000000E+00
   1.160000      0.0000000E+00
   1.170000      0.0000000E+00
   1.180000      0.0000000E+00
   1.190000      0.0000000E+00
   1.200000      0.0000000E+00
   1.210000      0.0000000E+00
   1.220000      0.0000000E+00
   1.230000      0.0000000E+00
   1.240000      0.0000000E+00
   1.250000      0.0000000E+00
   1.260000      0.0000000E+00
   1.270000      0.0000000E+00
   1.280000      0.0000000E+00
   1.290000      0.0000000E+00
   1.300000      0.0000000E+00
   1.310000      0.0000000E+00
   1.320000      0.0000000E+00
   1.330000      0.0000000E+00
   1.340000      0.0000000E+00
   1.350000      0.0000000E+00
   1.360000      0.0000000E+00
   1.370000      0.0000000E+00
   1.380000      0.0000000E+00
   1.390000      0.0000000E+00
   1.400000      0.0000000E+00
   1.410000      0.0000000E+00
   1.420000      0.0000000E+00
   1.430000      0.0000000E+00
   1.440000      0.0000000E+00
   1.450000      0.0000000E+00
   1.460000      0.0000000E+00
   1.470000      0.0000000E+00
   1.480000      0.0000000E+00
   1.490000      0.0000000E+00
   1.500000      0.0000000E+00
   1.510000      0.0000000E+00
   1.520000      0.0000000E+00
   1.530000      0.0000000E+00
   1.540000      0.0000000E+00
   1.550000      0.0000000E+00
   1.560000      0.0000000E+00
   1.570000      0.0000000E+00
   1.580000      0.0000000E+00
   1.590000      0.0000000E+00
   1.600000      0.0000000E+00
   1.610000      0.0000000E+00
   1.620000      0.0000000E+00
   1.630000      0.0000000E+00
   1.640000      0.0000000E+00
   1.650000      0.0000000E+00
   1.660000      0.0000000E+00
   1.670000      0.0000000E+00
   1.680000      0.0000000E+00
   1.690000      0.0000000E+00
   1.700000      0.0000000E+00
   1.710000      0.0000000E+00
   1.720000      0.0000000E+00
   1.730000      0.0000000E+00
   1.740000      0.0000000E+00
   1.750000      0.0000000E+00
   1.760000      0.0000000E+00
   1.770000      0.0000000E+00
   1.780000      0.0000000E+00
   1.790000      0.0000000E+00
   1.800000      0.0000000E+00
   1.810000      0.0000000E+00
   1.820000      0.0000000E+00
   1.830000      0.0000000E+00
   1.840000      0.0000000E+00
   1.850000      0.0000000E+00
   1.860000      0.0000000E+00
   1.870000      0.0000000E+00
   1.880000      0.0000000E+00
   1.890000      0.0000000E+00
   1.900000      0.0000000E+00
   1.910000      0.0000000E+00
   1.920000      0.0000000E+00
   1.930000      0.0000000E+00
   1.940000      0.0000000E+00
   1.950000      0.0000000E+00
   1.960000      0.0000000E+00
   1.970000      0.0000000E+00
   1.980000      0.0000000E+00
   1.990000      0.0000000E+00
   2.000000      0.0000000E+00
   2.010000      0.0000000E+00
   2.020000      0.0000000E+00
   2.030000      0.0000000E+00
   2.040000      0.0000000E+00
   2.050000      0.0000000E+00
   2.060000      0.0000000E+00
   2.070000      0.0000000E+00
   2.080000      0.0000000E+00
   2.090000      0.0000000E+00
   2.100000      0.0000000E+00
   2.110000      0.0000000E+00
   2.120000      0.0000000E+00
   2.130000      0.0000000E+00
   2.140000      0.0000000E+00
   2.150000      0.0000000E+00
   2.160000      0.0000000E+00
   2.170000      0.0000000E+00
   2.180000      0.0000000E+00
   2.190000      0.0000000E+00
   2.200000      0.0000000E+00
   2.210000      0.0000000E+00
   2.220000      0.0000000E+00
   2.230000      0.0000000E+00
   2.240000      0.0000000E+00
   2.250000      0.0000000E+00
   2.260000      0.0000000E+00
   2.270000      0.0000000E+00
   2.280000      0.0000000E+00
   2.290000      0.0000000E+00
   2.300000      0.0000000E+00
   2.310000      0.0000000E+00
   2.320000      0.0000000E+00
   2.330000      0.0000000E+00
   2.340000      0.0000000E+00
   2.350000      0.0000000E+00
   2.360000      0.0000000E+00
   2.370000      0.0000000E+00
   2.380000      0.0000000E+00
   2.390000      0.0000000E+00
   2.400000      0.0000000E+00
   2.410000      0.0000000E+00
   2.420000      0.0000000E+00
   2.430000      0.0000000E+00
   2.440000      0.0000000E+00
   2.450000      0.0000000E+00
   2.460000      0.0000000E+00
   2.470000      0.0000000E+00
   2.480000      0.0000000E+00
   2.490000      0.0000000E+00
   2.500000      0.0000000E+00
   2.510000      0.0000000E+00
   2.520000      0.0000000E+00
   2.530000      0.0000000E+00
   2.540000      0.0000000E+00
   2.550000      0.0000000E+00
   2.560000      0.0000000E+00
   2.570000      0.0000000E+00
   2.580000      0.0000000E+00
   2.590000      0.0000000E+00
   2.600000      0.0000000E+00
   2.610000      0.0000000E+00
   2.620000      0.0000000E+00
   2.630000      0.0000000E+00
   2.640000      0.0000000E+00
   2.650000      0.0000000E+00
   2.660000      0.0000000E+00
   2.670000      0.0000000E+00
   2.680000      0.0000000E+00
   2.690000      0.0000000E+00
   2.700000      0.0000000E+00
   2.710000      0.0000000E+00
   2.720000      0.0000000E+00
   2.730000      0.0000000E+00
   2.740000      0.0000000E+00
   2.750000      0.0000000E+00
   2.760000      0.0000000E+00
   2.770000      0.0000000E+00
   2.780000      0.0000000E+00
   2.790000     -1.2158107E-38
   2.800000     -1.4673387E-38
   2.810000     -1.7263200E-38
   2.820000     -1.9844041E-38
   2.830000     -2.2355056E-38
   2.840000     -2.4549132E-38
   2.850000     -2.6491262E-38
   2.860000     -2.8479841E-38
   2.870000     -3.0542202E-38
   2.880000     -3.2706940E-38
   2.890000     -3.5036525E-38
   2.900000     -3.7534306E-38
   2.910000     -4.0456866E-38
   2.920000     -4.3799402E-38
   2.930000     -4.7383966E-38
   2.940000     -5.0859517E-38
   2.950000     -5.2140825E-38
   2.960000     -5.1804586E-38
   2.970000     -5.1224325E-38
   2.980000     -4.9633207E-38
   2.990000     -4.6737847E-38
   3.000000     -4.2569357E-38
   3.010000     -3.8060152E-38
   3.020000     -3.2888736E-38
   3.030000     -2.6985884E-38
   3.040000     -1.9982250E-38
   3.050000     -1.2967072E-38
   3.060000      0.0000000E+00
   3.070000      0.0000000E+00
   3.080000     -1.6006284E-38
   3.090000     -3.1097688E-38
   3.100000     -5.7479273E-38
   3.110000     -8.4563962E-38
   3.120000     -1.1185599E-37
   3.130000     -1.3821848E-37
   3.140000     -1.4479171E-37
   3.150000     -1.3014551E-37
   3.160000     -1.1075883E-37
   3.170000     -8.5972676E-38
   3.180000     -5.6380745E-38
   3.190000     -2.6423579E-38
   3.200000      0.0000000E+00
   3.210000      6.5868853E-38
   3.220000      1.5993362E-37
   3.230000      2.5633955E-37
   3.240000      3.5218581E-37
   3.250000      4.4592434E-37
   3.260000      5.3876218E-37
   3.270000      6.2554815E-37
   3.280000      6.7652188E-37
   3.290000      6.9717392E-37
   3.300000      7.1544811E-37
   3.310000      7.3520108E-37
   3.320000      7.5855420E-37
   3.330000      7.8118286E-37
   3.340000      8.0721473E-37
   3.350000      8.3128280E-37
   3.360000      8.8092913E-37
   3.370000      9.6428930E-37
   3.380000      1.0539892E-36
   3.390000      1.1437277E-36
   3.400000      1.2313745E-36
   3.410000      1.2609956E-36
   3.420000      1.2280018E-36
   3.430000      1.1891974E-36
   3.440000      1.1416836E-36
   3.450000      1.0720137E-36
   3.460000      9.4968288E-37
   3.470000      8.0165922E-37
   3.480000      6.6047901E-37
   3.490000      5.1439631E-37
   3.500000      3.0219732E-37
   3.510000      3.5392197E-38
   3.520000     -2.2857467E-37
   3.530000     -4.3129254E-37
   3.540000     -5.6993696E-37
   3.550000     -6.8560821E-37
   3.560000     -7.7434031E-37
   3.570000     -8.8013220E-37
   3.580000     -1.0119801E-36
   3.590000     -1.1567113E-36
   3.600000     -1.3035199E-36
   3.610000     -1.4944597E-36
   3.620000     -1.7428740E-36
   3.630000     -1.9652581E-36
   3.640000     -2.1859524E-36
   3.650000     -2.4568964E-36
   3.660000     -2.8268124E-36
   3.670000     -3.3891510E-36
   3.680000     -4.0874003E-36
   3.690000     -4.8334650E-36
   3.700000     -5.6627134E-36
   3.710000     -6.5739493E-36
   3.720000     -7.4738539E-36
   3.730000     -8.1577285E-36
   3.740000     -8.5441213E-36
   3.750000     -8.7946033E-36
   3.760000     -9.0569910E-36
   3.770000     -9.0415095E-36
   3.780000     -8.6770905E-36
   3.790000     -8.2043601E-36
   3.800000     -7.6464882E-36
   3.810000     -7.0173425E-36
   3.820000     -6.3564635E-36
   3.830000     -5.6879979E-36
   3.840000     -4.9352223E-36
   3.850000     -4.1387657E-36
   3.860000     -3.3291580E-36
   3.870000     -2.5340846E-36
   3.880000     -1.7010154E-36
   3.890000     -9.1959501E-37
   3.900000     -4.0422851E-37
   3.910000      0.0000000E+00
   3.920000      5.3434860E-37
   3.930000      1.2176873E-36
   3.940000      2.1587264E-36
   3.950000      3.2166817E-36
   3.960000      4.1058032E-36
   3.970000      4.9366982E-36
   3.980000      5.8626245E-36
   3.990000      7.0248738E-36
   4.000000      8.4941348E-36
   4.010000      1.0158547E-35
   4.020000      1.1836625E-35
   4.030000      1.3578629E-35
   4.040000      1.5470047E-35
   4.050000      1.7394808E-35
   4.060000      1.9357739E-35
   4.070000      2.1417408E-35
   4.080000      2.3711661E-35
   4.090000      2.6174253E-35
   4.100000      2.8699046E-35
   4.110000      3.1237919E-35
   4.120000      3.3758329E-35
   4.130000      3.6426598E-35
   4.140000      3.9000931E-35
   4.150000      4.1350657E-35
   4.160000      4.3773777E-35
   4.170000      4.6091940E-35
   4.180000      4.8128940E-35
   4.190000      4.9998309E-35
   4.200000      5.1693340E-35
   4.210000      5.2788800E-35
   4.220000      5.3104639E-35
   4.230000      5.2684715E-35
   4.240000      5.1588837E-35
   4.250000      4.9906003E-35
   4.260000      4.7320607E-35
   4.270000      4.3822547E-35
   4.280000      3.9591623E-35
   4.290000      3.5031327E-35
   4.300000      3.0316436E-35
   4.310000      2.5444310E-35
   4.320000      2.0703374E-35
   4.330000      1.5999023E-35
   4.340000      1.1167530E-35
   4.350000      6.0815675E-36
   4.360000      7.3521364E-37
   4.370000     -4.7906048E-36
   4.380000     -1.0715953E-35
   4.390000     -1.6970808E-35
   4.400000     -2.3091782E-35
   4.410000     -2.9164850E-35
   4.420000     -3.4901357E-35
   4.430000     -4.0277034E-35
   4.440000     -4.5691497E-35
   4.450000     -5.1992138E-35
   4.460000     -6.0528959E-35
   4.470000     -7.0308986E-35
   4.480000     -8.2024486E-35
   4.490000     -9.6046951E-35
   4.500000     -1.1041215E-34
   4.510000     -1.2413986E-34
   4.520000     -1.3686293E-34
   4.530000     -1.4918849E-34
   4.540000     -1.6157965E-34
   4.550000     -1.7537979E-34
   4.560000     -1.9065771E-34
   4.570000     -2.0753748E-34
   4.580000     -2.2579589E-34
   4.590000     -2.4336721E-34
   4.600000     -2.5968642E-34
   4.610000     -2.7527674E-34
   4.620000     -2.9085645E-34
   4.630000     -3.0571208E-34
   4.640000     -3.1885539E-34
   4.650000     -3.3030725E-34
   4.660000     -3.4023667E-34
   4.670000     -3.4825737E-34
   4.680000     -3.5263706E-34
   4.690000     -3.5316256E-34
   4.700000     -3.5017536E-34
   4.710000     -3.4423381E-34
   4.720000     -3.3640387E-34
   4.730000     -3.2631289E-34
   4.740000     -3.1418140E-34
   4.750000     -3.0160469E-34
   4.760000     -2.8790150E-34
   4.770000     -2.7164044E-34
   4.780000     -2.5438630E-34
   4.790000     -2.3717727E-34
   4.800000     -2.1997561E-34
   4.810000     -2.0199119E-34
   4.820000     -1.8379804E-34
   4.830000     -1.6511437E-34
   4.840000     -1.4330511E-34
   4.850000     -1.1859154E-34
   4.860000     -9.0363941E-35
   4.870000     -5.8348446E-35
   4.880000     -2.2079584E-35
   4.890000      2.0530548E-35
   4.900000      6.8162802E-35
   4.910000      1.2089939E-34
   4.920000      1.8135786E-34
   4.930000      2.4791380E-34
   4.940000      3.1797457E-34
   4.950000      3.8679417E-34
   4.960000      4.5553221E-34
   4.970000      5.3061618E-34
   4.980000      6.1183838E-34
   4.990000      6.9620875E-34
   5.000000      7.8264818E-34
   5.010000      8.7310449E-34
   5.020000      9.6664500E-34
   5.030000      1.0620844E-33
   5.040000      1.1599605E-33
   5.050000      1.2602665E-33
   5.060000      1.3640843E-33
   5.070000      1.4720426E-33
   5.080000      1.5809839E-33
   5.090000      1.6897456E-33
   5.100000      1.7997871E-33
   5.110000      1.9113804E-33
   5.120000      2.0227170E-33
   5.130000      2.1344298E-33
   5.140000      2.2459585E-33
   5.150000      2.3528684E-33
   5.160000      2.4538050E-33
   5.170000      2.5495888E-33
   5.180000      2.6390522E-33
   5.190000      2.7233701E-33
   5.200000      2.8042511E-33
   5.210000      2.8798960E-33
   5.220000      2.9508969E-33
   5.230000      3.0193201E-33
   5.240000      3.0858031E-33
   5.250000      3.1470390E-33
   5.260000      3.2014952E-33
   5.270000      3.2492468E-33
   5.280000      3.2806923E-33
   5.290000      3.2915730E-33
   5.300000      3.2869757E-33
   5.310000      3.2662650E-33
   5.320000      3.2255480E-33
   5.330000      3.1638471E-33
   5.340000      3.0807224E-33
   5.350000      2.9752298E-33
   5.360000      2.8475093E-33
   5.370000      2.6928575E-33
   5.380000      2.5102641E-33
   5.390000      2.2995358E-33
   5.400000      2.0588385E-33
   5.410000      1.7884623E-33
   5.420000      1.4872928E-33
   5.430000      1.1585268E-33
   5.440000      8.0069413E-34
   5.450000      4.0833813E-34
   5.460000     -1.9167664E-35
   5.470000     -4.8228577E-34
   5.480000     -9.8129249E-34
   5.490000     -1.5159341E-33
   5.500000     -2.0875668E-33
   5.510000     -2.6976060E-33
   5.520000     -3.3440015E-33
   5.530000     -4.0262555E-33
   5.540000     -4.7462278E-33
   5.550000     -5.5017705E-33
   5.560000     -6.2932265E-33
   5.570000     -7.1244487E-33
   5.580000     -7.9952931E-33
   5.590000     -8.9024573E-33
   5.600000     -9.8440533E-33
   5.610000     -1.0821318E-32
   5.620000     -1.1834279E-32
   5.630000     -1.2880187E-32
   5.640000     -1.3956456E-32
   5.650000     -1.5060998E-32
   5.660000     -1.6193134E-32
   5.670000     -1.7348989E-32
   5.680000     -1.8526864E-32
   5.690000     -1.9723129E-32
   5.700000     -2.0930945E-32
   5.710000     -2.2147530E-32
   5.720000     -2.3367998E-32
   5.730000     -2.4587082E-32
   5.740000     -2.5799741E-32
   5.750000     -2.6999601E-32
   5.760000     -2.8179862E-32
   5.770000     -2.9333721E-32
   5.780000     -3.0452192E-32
   5.790000     -3.1528222E-32
   5.800000     -3.2555528E-32
   5.810000     -3.3525848E-32
   5.820000     -3.4430756E-32
   5.830000     -3.5260793E-32
   5.840000     -3.6008131E-32
   5.850000     -3.6661109E-32
   5.860000     -3.7205701E-32
   5.870000     -3.7635379E-32
   5.880000     -3.7939927E-32
   5.890000     -3.8105715E-32
   5.900000     -3.8120506E-32
   5.910000     -3.7972802E-32
   5.920000     -3.7651604E-32
   5.930000     -3.7143688E-32
   5.940000     -3.6434647E-32
   5.950000     -3.5511520E-32
   5.960000     -3.4362833E-32
   5.970000     -3.2976601E-32
   5.980000     -3.1339370E-32
   5.990000     -2.9436586E-32
   6.000000     -2.7254460E-32
   6.010000     -2.4779935E-32
   6.020000     -2.2000630E-32
   6.030000     -1.8902981E-32
   6.040000     -1.5473812E-32
   6.050000     -1.1701418E-32
   6.060000     -7.5733942E-33
   6.070000     -3.0771059E-33
   6.080000      1.7983144E-33
   6.090000      7.0631305E-33
   6.100000      1.2724560E-32
   6.110000      1.8789504E-32
   6.120000      2.5265984E-32
   6.130000      3.2159889E-32
   6.140000      3.9476010E-32
   6.150000      4.7217572E-32
   6.160000      5.5385803E-32
   6.170000      6.3981111E-32
   6.180000      7.3001308E-32
   6.190000      8.2442021E-32
   6.200000      9.2297830E-32
   6.210000      1.0256073E-31
   6.220000      1.1322040E-31
   6.230000      1.2426463E-31
   6.240000      1.3567750E-31
   6.250000      1.4744019E-31
   6.260000      1.5953258E-31
   6.270000      1.7193124E-31
   6.280000      1.8460947E-31
   6.290000      1.9753663E-31
   6.300000      2.1067901E-31
   6.310000      2.2400028E-31
   6.320000      2.3745990E-31
   6.330000      2.5101389E-31
   6.340000      2.6461450E-31
   6.350000      2.7820998E-31
   6.360000      2.9174477E-31
   6.370000      3.0515916E-31
   6.380000      3.1838932E-31
   6.390000      3.3136744E-31
   6.400000      3.4402140E-31
   6.410000      3.5627485E-31
   6.420000      3.6804719E-31
   6.430000      3.7925343E-31
   6.440000      3.8980486E-31
   6.450000      3.9960860E-31
   6.460000      4.0856728E-31
   6.470000      4.1657987E-31
   6.480000      4.2354129E-31
   6.490000      4.2934202E-31
   6.500000      4.3387036E-31
   6.510000      4.3701250E-31
   6.520000      4.3865006E-31
   6.530000      4.3865923E-31
   6.540000      4.3691479E-31
   6.550000      4.3329173E-31
   6.560000      4.2766140E-31
   6.570000      4.1989307E-31
   6.580000      4.0985520E-31
   6.590000      3.9741527E-31
   6.600000      3.8244057E-31
   6.610000      3.6479878E-31
   6.620000      3.4435806E-31
   6.630000      3.2098745E-31
   6.640000      2.9455796E-31
   6.650000      2.6494312E-31
   6.660000      2.3201947E-31
   6.670000      1.9566750E-31
   6.680000      1.5577223E-31
   6.690000      1.1222412E-31
   6.700000      6.4919726E-32
   6.710000      1.3762629E-32
   6.720000     -4.1334804E-32
   6.730000     -1.0045309E-31
   6.740000     -1.6366303E-31
   6.750000     -2.3102289E-31
   6.760000     -3.0257993E-31
   6.770000     -3.7836869E-31
   6.780000     -4.5840979E-31
   6.790000     -5.4270896E-31
   6.800000     -6.3125575E-31
   6.810000     -7.2402271E-31
   6.820000     -8.2096356E-31
   6.830000     -9.2201272E-31
   6.840000     -1.0270856E-30
   6.850000     -1.1360744E-30
   6.860000     -1.2488482E-30
   6.870000     -1.3652527E-30
   6.880000     -1.4851084E-30
   6.890000     -1.6082098E-30
   6.900000     -1.7343240E-30
   6.910000     -1.8631903E-30
   6.920000     -1.9945183E-30
   6.930000     -2.1279876E-30
   6.940000     -2.2632466E-30
   6.950000     -2.3999122E-30
   6.960000     -2.5375677E-30
   6.970000     -2.6757639E-30
   6.980000     -2.8140167E-30
   6.990000     -2.9518079E-30
   7.000000     -3.0885841E-30
   7.010000     -3.2237562E-30
   7.020000     -3.3566988E-30
   7.030000     -3.4867513E-30
   7.040000     -3.6132169E-30
   7.050000     -3.7353626E-30
   7.060000     -3.8524200E-30