  -2.600000      0.0000000E+00
  -2.590000      0.0000000E+00
  -2.580000      0.0000000E+00
  -2.570000      0.0000000E+00
  -2.560000      0.0000000E+00
  -2.550000      0.0000000E+00
  -2.540000      0.0000000E+00
  -2.530000      0.0000000E+00
  -2.520000      0.0000000E+00
  -2.510000      0.0000000E+00
  -2.500000      0.0000000E+00
  -2.490000      0.0000000E+00
  -2.480000      0.0000000E+00
  -2.470000      0.0000000E+00
  -2.460000      0.0000000E+00
  -2.450000      0.0000000E+00
  -2.440000      0.0000000E+00
  -2.430000      0.0000000E+00
  -2.420000      0.0000000E+00
  -2.410000      0.0000000E+00
  -2.400000      0.0000000E+00
  -2.390000      0.0000000E+00
  -2.380000      0.0000000E+00
  -2.370000      0.0000000E+00
  -2.360000      0.0000000E+00
  -2.350000      0.0000000E+00
  -2.340000      0.0000000E+00
  -2.330000      0.0000000E+00
  -2.320000      0.0000000E+00
  -2.310000      0.0000000E+00
  -2.300000      0.0000000E+00
  -2.290000      0.0000000E+00
  -2.280000      0.0000000E+00
  -2.270000      0.0000000E+00
  -2.260000      0.0000000E+00
  -2.250000      0.0000000E+00
  -2.240000      0.0000000E+00
  -2.230000      0.0000000E+00
  -2.220000      0.0000000E+00
  -2.210000      0.0000000E+00
  -2.200000      0.0000000E+00
  -2.190000      0.0000000E+00
  -2.180000      0.0000000E+00
  -2.170000      0.0000000E+00
  -2.160000      0.0000000E+00
  -2.150000      0.0000000E+00
  -2.140000      0.0000000E+00
  -2.130000      0.0000000E+00
  -2.120000      0.0000000E+00
  -2.110000      0.0000000E+00
  -2.100000      0.0000000E+00
  -2.090000      0.0000000E+00
  -2.080000      0.0000000E+00
  -2.070000      0.0000000E+00
  -2.060000      0.0000000E+00
  -2.050000      0.0000000E+00
  -2.040000      0.0000000E+00
  -2.030000      0.0000000E+00
  -2.020000      0.0000000E+00
  -2.010000      0.0000000E+00
  -2.000000      0.0000000E+00
  -1.990000      0.0000000E+00
  -1.980000      0.0000000E+00
  -1.970000      0.0000000E+00
  -1.960000      0.0000000E+00
  -1.950000      0.0000000E+00
  -1.940000      0.0000000E+00
  -1.930000      0.0000000E+00
  -1.920000      0.0000000E+00
  -1.910000      0.0000000E+00
  -1.900000      0.0000000E+00
  -1.890000      0.0000000E+00
  -1.880000      0.0000000E+00
  -1.870000      0.0000000E+00
  -1.860000      0.0000000E+00
  -1.850000      0.0000000E+00
  -1.840000      0.0000000E+00
  -1.830000      0.0000000E+00
  -1.820000      0.0000000E+00
  -1.810000      0.0000000E+00
  -1.800000      0.0000000E+00
  -1.790000      0.0000000E+00
  -1.780000      0.0000000E+00
  -1.770000      0.0000000E+00
  -1.760000      0.0000000E+00
  -1.750000      0.0000000E+00
  -1.740000      0.0000000E+00
  -1.730000      0.0000000E+00
  -1.720000      0.0000000E+00
  -1.710000      0.0000000E+00
  -1.700000      0.0000000E+00
  -1.690000      0.0000000E+00
  -1.680000      0.0000000E+00
  -1.670000      0.0000000E+00
  -1.660000      0.0000000E+00
  -1.650000      0.0000000E+00
  -1.640000      0.0000000E+00
  -1.630000      0.0000000E+00
  -1.620000      0.0000000E+00
  -1.610000      0.0000000E+00
  -1.600000      0.0000000E+00
  -1.590000      0.0000000E+00
  -1.580000      0.0000000E+00
  -1.570000      0.0000000E+00
  -1.560000      0.0000000E+00
  -1.550000      0.0000000E+00
  -1.540000      0.0000000E+00
  -1.530000      0.0000000E+00
  -1.520000      0.0000000E+00
  -1.510000      0.0000000E+00
  -1.500000      0.0000000E+00
  -1.490000      0.0000000E+00
  -1.480000      0.0000000E+00
  -1.470000      0.0000000E+00
  -1.460000      0.0000000E+00
  -1.450000      0.0000000E+00
  -1.440000      0.0000000E+00
  -1.430000      0.0000000E+00
  -1.420000      0.0000000E+00
  -1.410000      0.0000000E+00
  -1.400000      0.0000000E+00
  -1.390000      0.0000000E+00
  -1.380000      0.0000000E+00
  -1.370000      0.0000000E+00
  -1.360000      0.0000000E+00
  -1.350000      0.0000000E+00
  -1.340000      0.0000000E+00
  -1.330000      0.0000000E+00
  -1.320000      0.0000000E+00
  -1.310000      0.0000000E+00
  -1.300000      0.0000000E+00
  -1.290000      0.0000000E+00
  -1.280000      0.0000000E+00
  -1.270000      0.0000000E+00
  -1.260000      0.0000000E+00
  -1.250000      0.0000000E+00
  -1.240000      0.0000000E+00
  -1.230000      0.0000000E+00
  -1.220000      0.0000000E+00
  -1.210000      0.0000000E+00
  -1.200000      0.0000000E+00
  -1.190000      0.0000000E+00
  -1.180000      0.0000000E+00
  -1.170000      0.0000000E+00
  -1.160000      0.0000000E+00
  -1.150000      0.0000000E+00
  -1.140000      0.0000000E+00
  -1.130000      0.0000000E+00
  -1.120000      0.0000000E+00
  -1.110000      0.0000000E+00
  -1.100000      0.0000000E+00
  -1.090000      0.0000000E+00
  -1.080000      0.0000000E+00
  -1.070000      0.0000000E+00
  -1.060000      0.0000000E+00
  -1.050000      0.0000000E+00
  -1.040000      0.0000000E+00
  -1.030000      0.0000000E+00
  -1.020000      0.0000000E+00
  -1.010000      0.0000000E+00
  -1.000000      0.0000000E+00
 -0.9900000      0.0000000E+00
 -0.9800000      0.0000000E+00
 -0.9700000      0.0000000E+00
 -0.9600000      0.0000000E+00
 -0.9500000      0.0000000E+00
 -0.9400000      0.0000000E+00
 -0.9300000      0.0000000E+00
 -0.9200000      0.0000000E+00
 -0.9100000      0.0000000E+00
 -0.9000000      0.0000000E+00
 -0.8900000      0.0000000E+00
 -0.8800000      0.0000000E+00
 -0.8700000      0.0000000E+00
 -0.8600000      0.0000000E+00
 -0.8500000      0.0000000E+00
 -0.8400000      0.0000000E+00
 -0.8300000      0.0000000E+00
 -0.8200000      0.0000000E+00
 -0.8100000      0.0000000E+00
 -0.8000000      0.0000000E+00
 -0.7900000      0.0000000E+00
 -0.7800000      0.0000000E+00
 -0.7700000      0.0000000E+00
 -0.7600000      0.0000000E+00
 -0.7500000      0.0000000E+00
 -0.7400000      0.0000000E+00
 -0.7300000      0.0000000E+00
 -0.7200000      0.0000000E+00
 -0.7100000      0.0000000E+00
 -0.7000000      0.0000000E+00
 -0.6900000      0.0000000E+00
 -0.6800000      0.0000000E+00
 -0.6700000      0.0000000E+00
 -0.6600000      0.0000000E+00
 -0.6500000      0.0000000E+00
 -0.6400000      0.0000000E+00
 -0.6300000      0.0000000E+00
 -0.6200000      0.0000000E+00
 -0.6100000      0.0000000E+00
 -0.6000000      0.0000000E+00
 -0.5900000      0.0000000E+00
 -0.5800000      0.0000000E+00
 -0.5700000      0.0000000E+00
 -0.5600000      0.0000000E+00
 -0.5500000      0.0000000E+00
 -0.5400000      0.0000000E+00
 -0.5300000      0.0000000E+00
 -0.5200000      0.0000000E+00
 -0.5100000      0.0000000E+00
 -0.5000000      0.0000000E+00
 -0.4900000      0.0000000E+00
 -0.4800000      0.0000000E+00
 -0.4700000      0.0000000E+00
 -0.4600000      0.0000000E+00
 -0.4500000      0.0000000E+00
 -0.4400000      0.0000000E+00
 -0.4300000      0.0000000E+00
 -0.4200000      0.0000000E+00
 -0.4100000      0.0000000E+00
 -0.4000000      0.0000000E+00
 -0.3900000      0.0000000E+00
 -0.3800000      0.0000000E+00
 -0.3700000      0.0000000E+00
 -0.3600000      0.0000000E+00
 -0.3500000      0.0000000E+00
 -0.3400000      0.0000000E+00
 -0.3300000      0.0000000E+00
 -0.3200000      0.0000000E+00
 -0.3100000      0.0000000E+00
 -0.3000000      0.0000000E+00
 -0.2900000      0.0000000E+00
 -0.2800000      0.0000000E+00
 -0.2700000      0.0000000E+00
 -0.2600000      0.0000000E+00
 -0.2500000      0.0000000E+00
 -0.2400000      0.0000000E+00
 -0.2300000      0.0000000E+00
 -0.2200000      0.0000000E+00
 -0.2100000      0.0000000E+00
 -0.2000000      0.0000000E+00
 -0.1900000      0.0000000E+00
 -0.1800000      0.0000000E+00
 -0.1700000      0.0000000E+00
 -0.1600000      0.0000000E+00
 -0.1500000      0.0000000E+00
 -0.1400000      0.0000000E+00
 -0.1300000      0.0000000E+00
 -0.1200000      0.0000000E+00
 -0.1100000      0.0000000E+00
 -0.1000000      0.0000000E+00
 -9.0000004E-02  0.0000000E+00
 -7.9999998E-02  0.0000000E+00
 -7.0000000E-02  0.0000000E+00
 -5.9999999E-02  0.0000000E+00
 -5.0000001E-02  0.0000000E+00
 -3.9999999E-02  0.0000000E+00
 -2.9999999E-02  0.0000000E+00
 -2.0000000E-02  0.0000000E+00
 -9.9999998E-03  0.0000000E+00
 -3.4694470E-17  0.0000000E+00
  9.9999998E-03  0.0000000E+00
  2.0000000E-02  0.0000000E+00
  2.9999999E-02  0.0000000E+00
  3.9999999E-02  0.0000000E+00
  5.0000001E-02  0.0000000E+00
  5.9999999E-02  0.0000000E+00
  7.0000000E-02  0.0000000E+00
  7.9999998E-02  0.0000000E+00
  9.0000004E-02  0.0000000E+00
  0.1000000      0.0000000E+00
  0.1100000      0.0000000E+00
  0.1200000      0.0000000E+00
  0.1300000      0.0000000E+00
  0.1400000      0.0000000E+00
  0.1500000      0.0000000E+00
  0.1600000      0.0000000E+00
  0.1700000      0.0000000E+00
  0.1800000      0.0000000E+00
  0.1900000      0.0000000E+00
  0.2000000      0.0000000E+00
  0.2100000      0.0000000E+00
  0.2200000      0.0000000E+00
  0.2300000      0.0000000E+00
  0.2400000      0.0000000E+00
  0.2500000      0.0000000E+00
  0.2600000      0.0000000E+00
  0.2700000      0.0000000E+00
  0.2800000      0.0000000E+00
  0.2900000      0.0000000E+00
  0.3000000      0.0000000E+00
  0.3100000      0.0000000E+00
  0.3200000      0.0000000E+00
  0.3300000      0.0000000E+00
  0.3400000      0.0000000E+00
  0.3500000      0.0000000E+00
  0.3600000      0.0000000E+00
  0.3700000      0.0000000E+00
  0.3800000      0.0000000E+00
  0.3900000      0.0000000E+00
  0.4000000      0.0000000E+00
  0.4100000      0.0000000E+00
  0.4200000      0.0000000E+00
  0.4300000      0.0000000E+00
  0.4400000      0.0000000E+00
  0.4500000      0.0000000E+00
  0.4600000      0.0000000E+00
  0.4700000      0.0000000E+00
  0.4800000      0.0000000E+00
  0.4900000      0.0000000E+00
  0.5000000      0.0000000E+00
  0.5100000      0.0000000E+00
  0.5200000      0.0000000E+00
  0.5300000      0.0000000E+00
  0.5400000      0.0000000E+00
  0.5500000      0.0000000E+00
  0.5600000      0.0000000E+00
  0.5700000      0.0000000E+00
  0.5800000      0.0000000E+00
  0.5900000      0.0000000E+00
  0.6000000      0.0000000E+00
  0.6100000      0.0000000E+00
  0.6200000      0.0000000E+00
  0.6300000      0.0000000E+00
  0.6400000      0.0000000E+00
  0.6500000      0.0000000E+00
  0.6600000      0.0000000E+00
  0.6700000      0.0000000E+00
  0.6800000      0.0000000E+00
  0.6900000      0.0000000E+00
  0.7000000      0.0000000E+00
  0.7100000      0.0000000E+00
  0.7200000      0.0000000E+00
  0.7300000      0.0000000E+00
  0.7400000      0.0000000E+00
  0.7500000      0.0000000E+00
  0.7600000      0.0000000E+00
  0.7700000      0.0000000E+00
  0.7800000      0.0000000E+00
  0.7900000      0.0000000E+00
  0.8000000      0.0000000E+00
  0.8100000      0.0000000E+00
  0.8200000      0.0000000E+00
  0.8300000      0.0000000E+00
  0.8400000      0.0000000E+00
  0.8500000      0.0000000E+00
  0.8600000      0.0000000E+00
  0.8700000      0.0000000E+00
  0.8800000      0.0000000E+00
  0.8900000      0.0000000E+00
  0.9000000      0.0000000E+00
  0.9100000      0.0000000E+00
  0.9200000      0.0000000E+00
  0.9300000      0.0000000E+00
  0.9400000      0.0000000E+00
  0.9500000      0.0000000E+00
  0.9600000      0.0000000E+00
  0.9700000      0.0000000E+00
  0.9800000      0.0000000E+00
  0.9900000      0.0000000E+00
   1.000000      0.0000000E+00
   1.010000      0.0000000E+00
   1.020000      0.0000000E+00
   1.030000      0.0000000E+00
   1.040000      0.0000000E+00
   1.050000      0.0000000E+00
   1.060000      0.0000000E+00
   1.070000      0.0000000E+00
   1.080000      0.0000000E+00
   1.090000      0.0000000E+00
   1.100000      0.0000000E+00
   1.110000      0.0000000E+00
   1.120000      0.0000000E+00
   1.130000      0.0000000E+00
   1.140000      0.0000000E+00
   1.150000      0.0000000E+00
   1.160000      0.0000000E+00
   1.170000      0.0000000E+00
   1.180000      0.0000000E+00
   1.190000      0.0000000E+00
   1.200000      0.0000000E+00
   1.210000      0.0000000E+00
   1.220000      0.0000000E+00
   1.230000      0.0000000E+00
   1.240000      0.0000000E+00
   1.250000      0.0000000E+00
   1.260000      0.0000000E+00
   1.270000      0.0000000E+00
   1.280000      0.0000000E+00
   1.290000      0.0000000E+00
   1.300000      0.0000000E+00
   1.310000      0.0000000E+00
   1.320000      0.0000000E+00
   1.330000      0.0000000E+00
   1.340000      0.0000000E+00
   1.350000      0.0000000E+00
   1.360000      0.0000000E+00
   1.370000      0.0000000E+00
   1.380000      0.0000000E+00
   1.390000      0.0000000E+00
   1.400000      0.0000000E+00
   1.410000      0.0000000E+00
   1.420000      0.0000000E+00
   1.430000      0.0000000E+00
   1.440000      0.0000000E+00
   1.450000      0.0000000E+00
   1.460000      0.0000000E+00
   1.470000      0.0000000E+00
   1.480000      0.0000000E+00
   1.490000      0.0000000E+00
   1.500000      0.0000000E+00
   1.510000      0.0000000E+00
   1.520000      0.0000000E+00
   1.530000      0.0000000E+00
   1.540000      0.0000000E+00
   1.550000      0.0000000E+00
   1.560000      0.0000000E+00
   1.570000      0.0000000E+00
   1.580000      0.0000000E+00
   1.590000      0.0000000E+00
   1.600000      0.0000000E+00
   1.610000      0.0000000E+00
   1.620000      0.0000000E+00
   1.630000      0.0000000E+00
   1.640000      0.0000000E+00
   1.650000      0.0000000E+00
   1.660000      0.0000000E+00
   1.670000      0.0000000E+00
   1.680000      0.0000000E+00
   1.690000      0.0000000E+00
   1.700000      0.0000000E+00
   1.710000      0.0000000E+00
   1.720000      0.0000000E+00
   1.730000      0.0000000E+00
   1.740000      0.0000000E+00
   1.750000      0.0000000E+00
   1.760000      0.0000000E+00
   1.770000      0.0000000E+00
   1.780000      0.0000000E+00
   1.790000      0.0000000E+00
   1.800000      0.0000000E+00
   1.810000      0.0000000E+00
   1.820000      0.0000000E+00
   1.830000      0.0000000E+00
   1.840000      0.0000000E+00
   1.850000      0.0000000E+00
   1.860000      0.0000000E+00
   1.870000      0.0000000E+00
   1.880000      0.0000000E+00
   1.890000      0.0000000E+00
   1.900000      0.0000000E+00
   1.910000      0.0000000E+00
   1.920000      0.0000000E+00
   1.930000      0.0000000E+00
   1.940000      0.0000000E+00
   1.950000      0.0000000E+00
   1.960000      0.0000000E+00
   1.970000      0.0000000E+00
   1.980000      0.0000000E+00
   1.990000      0.0000000E+00
   2.000000      0.0000000E+00
   2.010000      0.0000000E+00
   2.020000      0.0000000E+00
   2.030000      0.0000000E+00
   2.040000      0.0000000E+00
   2.050000      0.0000000E+00
   2.060000      0.0000000E+00
   2.070000      0.0000000E+00
   2.080000      0.0000000E+00
   2.090000      0.0000000E+00
   2.100000      0.0000000E+00
   2.110000      0.0000000E+00
   2.120000      0.0000000E+00
   2.130000      0.0000000E+00
   2.140000      0.0000000E+00
   2.150000      0.0000000E+00
   2.160000      0.0000000E+00
   2.170000      0.0000000E+00
   2.180000      0.0000000E+00
   2.190000      0.0000000E+00
   2.200000      0.0000000E+00
   2.210000      0.0000000E+00
   2.220000      0.0000000E+00
   2.230000      0.0000000E+00
   2.240000      0.0000000E+00
   2.250000      0.0000000E+00
   2.260000      0.0000000E+00
   2.270000      0.0000000E+00
   2.280000      0.0000000E+00
   2.290000      0.0000000E+00
   2.300000      0.0000000E+00
   2.310000      0.0000000E+00
   2.320000      0.0000000E+00
   2.330000      0.0000000E+00
   2.340000      0.0000000E+00
   2.350000      0.0000000E+00
   2.360000      0.0000000E+00
   2.370000      0.0000000E+00
   2.380000      0.0000000E+00
   2.390000      0.0000000E+00
   2.400000      0.0000000E+00
   2.410000      0.0000000E+00
   2.420000      0.0000000E+00
   2.430000      0.0000000E+00
   2.440000      0.0000000E+00
   2.450000      0.0000000E+00
   2.460000      0.0000000E+00
   2.470000      0.0000000E+00
   2.480000      0.0000000E+00
   2.490000      0.0000000E+00
   2.500000      0.0000000E+00
   2.510000      0.0000000E+00
   2.520000      0.0000000E+00
   2.530000      0.0000000E+00
   2.540000      0.0000000E+00
   2.550000      0.0000000E+00
   2.560000      0.0000000E+00
   2.570000      0.0000000E+00
   2.580000      0.0000000E+00
   2.590000      0.0000000E+00
   2.600000      0.0000000E+00
   2.610000      0.0000000E+00
   2.620000      0.0000000E+00
   2.630000      0.0000000E+00
   2.640000      0.0000000E+00
   2.650000      0.0000000E+00
   2.660000      0.0000000E+00
   2.670000      0.0000000E+00
   2.680000      0.0000000E+00
   2.690000      0.0000000E+00
   2.700000      0.0000000E+00
   2.710000      0.0000000E+00
   2.720000      0.0000000E+00
   2.730000      0.0000000E+00
   2.740000      0.0000000E+00
   2.750000      0.0000000E+00
   2.760000      0.0000000E+00
   2.770000      0.0000000E+00
   2.780000     -1.2436898E-38
   2.790000     -1.3121547E-38
   2.800000     -1.3802235E-38
   2.810000     -1.4462681E-38
   2.820000     -1.4632779E-38
   2.830000     -1.4269432E-38
   2.840000     -1.3770424E-38
   2.850000     -1.2913655E-38
   2.860000     -1.2024015E-38
   2.870000      0.0000000E+00
   2.880000      0.0000000E+00
   2.890000      0.0000000E+00
   2.900000      0.0000000E+00
   2.910000      0.0000000E+00
   2.920000      0.0000000E+00
   2.930000      0.0000000E+00
   2.940000      0.0000000E+00
   2.950000      0.0000000E+00
   2.960000      0.0000000E+00
   2.970000      0.0000000E+00
   2.980000      0.0000000E+00
   2.990000      0.0000000E+00
   3.000000      1.2450020E-38
   3.010000      1.6348625E-38
   3.020000      2.0751497E-38
   3.030000      2.5349999E-38
   3.040000      2.9411248E-38
   3.050000      3.2052309E-38
   3.060000      3.3929872E-38
   3.070000      3.6389395E-38
   3.080000      3.8447524E-38
   3.090000      3.9387095E-38
   3.100000      4.0866070E-38
   3.110000      4.2525409E-38
   3.120000      4.3343025E-38
   3.130000      4.3571268E-38
   3.140000      4.2963710E-38
   3.150000      4.1589014E-38
   3.160000      3.9763724E-38
   3.170000      3.6700587E-38
   3.180000      3.2158017E-38
   3.190000      2.8640355E-38
   3.200000      2.6507940E-38
   3.210000      2.3954483E-38
   3.220000      2.0261733E-38
   3.230000      1.4879476E-38
   3.240000      0.0000000E+00
   3.250000      0.0000000E+00
   3.260000     -2.1125013E-38
   3.270000     -3.7510330E-38
   3.280000     -5.3986727E-38
   3.290000     -7.1840301E-38
   3.300000     -9.7241773E-38
   3.310000     -1.3111140E-37
   3.320000     -1.6700974E-37
   3.330000     -2.0434875E-37
   3.340000     -2.4096231E-37
   3.350000     -2.7879862E-37
   3.360000     -3.2969127E-37
   3.370000     -3.9389787E-37
   3.380000     -4.6231365E-37
   3.390000     -5.3574681E-37
   3.400000     -6.1408508E-37
   3.410000     -6.6713511E-37
   3.420000     -6.7934591E-37
   3.430000     -6.7392730E-37
   3.440000     -6.6393777E-37
   3.450000     -6.4331160E-37
   3.460000     -6.1135015E-37
   3.470000     -5.7169040E-37
   3.480000     -5.3236418E-37
   3.490000     -4.8966561E-37
   3.500000     -4.3592090E-37
   3.510000     -3.8095350E-37
   3.520000     -3.2615825E-37
   3.530000     -2.6827756E-37
   3.540000     -1.9444653E-37
   3.550000     -8.6465530E-38
   3.560000      5.1757306E-38
   3.570000      1.9715662E-37
   3.580000      3.2947264E-37
   3.590000      4.5818240E-37
   3.600000      6.0299465E-37
   3.610000      7.4072283E-37
   3.620000      8.5259366E-37
   3.630000      9.4587619E-37
   3.640000      1.0223698E-36
   3.650000      1.0817955E-36
   3.660000      1.1235706E-36
   3.670000      1.1578492E-36
   3.680000      1.1932176E-36
   3.690000      1.2221424E-36
   3.700000      1.2601565E-36
   3.710000      1.3029205E-36
   3.720000      1.3559339E-36
   3.730000      1.4457297E-36
   3.740000      1.5660542E-36
   3.750000      1.7200114E-36
   3.760000      1.8887668E-36
   3.770000      2.0644272E-36
   3.780000      2.2513203E-36
   3.790000      2.4411028E-36
   3.800000      2.6496523E-36
   3.810000      2.8645972E-36
   3.820000      3.0618880E-36
   3.830000      3.2515656E-36
   3.840000      3.4345385E-36
   3.850000      3.5559368E-36
   3.860000      3.6016791E-36
   3.870000      3.6012529E-36
   3.880000      3.4836827E-36
   3.890000      3.1688100E-36
   3.900000      2.7610324E-36
   3.910000      2.3228458E-36
   3.920000      1.7985919E-36
   3.930000      1.2800921E-36
   3.940000      7.8439083E-37
   3.950000      2.1926303E-37
   3.960000     -3.6833626E-37
   3.970000     -9.5379710E-37
   3.980000     -1.5568902E-36
   3.990000     -2.0606707E-36
   4.000000     -2.4993263E-36
   4.010000     -3.0234914E-36
   4.020000     -3.6111636E-36
   4.030000     -4.3169244E-36
   4.040000     -5.2102758E-36
   4.050000     -6.2210771E-36
   4.060000     -7.1619992E-36
   4.070000     -8.0299336E-36
   4.080000     -8.8220091E-36
   4.090000     -9.5315258E-36
   4.100000     -1.0290011E-35
   4.110000     -1.1367271E-35
   4.120000     -1.2256391E-35
   4.130000     -1.2738397E-35
   4.140000     -1.3351872E-35
   4.150000     -1.3980278E-35
   4.160000     -1.4534306E-35
   4.170000     -1.5004228E-35
   4.180000     -1.5459240E-35
   4.190000     -1.6040898E-35
   4.200000     -1.6496422E-35
   4.210000     -1.6962959E-35
   4.220000     -1.7630293E-35
   4.230000     -1.8133771E-35
   4.240000     -1.8463755E-35
   4.250000     -1.8447672E-35
   4.260000     -1.8102467E-35
   4.270000     -1.7694674E-35
   4.280000     -1.7133519E-35
   4.290000     -1.6223705E-35
   4.300000     -1.5023062E-35
   4.310000     -1.3415174E-35
   4.320000     -1.1142648E-35
   4.330000     -8.3219311E-36
   4.340000     -5.2026172E-36
   4.350000     -1.9329652E-36
   4.360000      1.3538769E-36
   4.370000      4.6902490E-36
   4.380000      8.0219497E-36
   4.390000      1.1452059E-35
   4.400000      1.5086094E-35
   4.410000      1.8420816E-35
   4.420000      2.1201348E-35
   4.430000      2.3247634E-35
   4.440000      2.4960885E-35
   4.450000      2.7002480E-35
   4.460000      2.9330157E-35
   4.470000      3.1769101E-35
   4.480000      3.3967298E-35
   4.490000      3.6333994E-35
   4.500000      3.9369358E-35
   4.510000      4.2705319E-35
   4.520000      4.5960271E-35
   4.530000      4.9465325E-35
   4.540000      5.3766446E-35
   4.550000      5.8460296E-35
   4.560000      6.3276620E-35
   4.570000      6.8004558E-35
   4.580000      7.3030124E-35
   4.590000      7.7631593E-35
   4.600000      8.1078552E-35
   4.610000      8.3845194E-35
   4.620000      8.5292343E-35
   4.630000      8.5992181E-35
   4.640000      8.6588085E-35
   4.650000      8.6755248E-35
   4.660000      8.6644076E-35
   4.670000      8.5654709E-35
   4.680000      8.4470657E-35
   4.690000      8.4096048E-35
   4.700000      8.3586608E-35
   4.710000      8.4179699E-35
   4.720000      8.5310527E-35
   4.730000      8.5102491E-35
   4.740000      8.4554078E-35
   4.750000      8.3934515E-35
   4.760000      8.2077561E-35
   4.770000      7.8518287E-35
   4.780000      7.2808157E-35
   4.790000      6.5095445E-35
   4.800000      5.7337176E-35
   4.810000      4.9548091E-35
   4.820000      4.0692374E-35
   4.830000      3.1273815E-35
   4.840000      2.1189569E-35
   4.850000      8.7277830E-36
   4.860000     -4.7462988E-36
   4.870000     -1.8475253E-35
   4.880000     -3.4995362E-35
   4.890000     -5.4769433E-35
   4.900000     -7.5138322E-35
   4.910000     -9.3940492E-35
   4.920000     -1.1145607E-34
   4.930000     -1.2753323E-34
   4.940000     -1.4331813E-34
   4.950000     -1.6128017E-34
   4.960000     -1.8378701E-34
   4.970000     -2.0709407E-34
   4.980000     -2.3298257E-34
   4.990000     -2.6276544E-34
   5.000000     -2.9087633E-34
   5.010000     -3.1847772E-34
   5.020000     -3.4599363E-34
   5.030000     -3.7321160E-34
   5.040000     -4.0404308E-34
   5.050000     -4.3606262E-34
   5.060000     -4.6551216E-34
   5.070000     -4.9695971E-34
   5.080000     -5.3242768E-34
   5.090000     -5.6954308E-34
   5.100000     -6.0205868E-34
   5.110000     -6.2824961E-34
   5.120000     -6.5287429E-34
   5.130000     -6.7850214E-34
   5.140000     -7.0474950E-34
   5.150000     -7.3001464E-34
   5.160000     -7.5353095E-34
   5.170000     -7.7514797E-34
   5.180000     -7.9601236E-34
   5.190000     -8.1598465E-34
   5.200000     -8.3620131E-34
   5.210000     -8.5790213E-34
   5.220000     -8.7715829E-34
   5.230000     -8.9185032E-34
   5.240000     -9.0257257E-34
   5.250000     -9.0755134E-34
   5.260000     -9.0406857E-34
   5.270000     -8.9426137E-34
   5.280000     -8.8236748E-34
   5.290000     -8.6744008E-34
   5.300000     -8.4217172E-34
   5.310000     -8.0708533E-34
   5.320000     -7.6557706E-34
   5.330000     -7.1547336E-34
   5.340000     -6.5648113E-34
   5.350000     -5.8561058E-34
   5.360000     -5.0733826E-34
   5.370000     -4.2599879E-34
   5.380000     -3.4188661E-34
   5.390000     -2.5356304E-34
   5.400000     -1.5569518E-34
   5.410000     -5.0556755E-35
   5.420000      5.9182329E-35
   5.430000      1.7679060E-34
   5.440000      3.0537093E-34
   5.450000      4.4412450E-34
   5.460000      5.9294038E-34
   5.470000      7.5222965E-34
   5.480000      9.2072046E-34
   5.490000      1.0997618E-33
   5.500000      1.2914414E-33
   5.510000      1.4953095E-33
   5.520000      1.7132022E-33
   5.530000      1.9455726E-33
   5.540000      2.1906819E-33
   5.550000      2.4493045E-33
   5.560000      2.7222585E-33
   5.570000      3.0089228E-33
   5.580000      3.3079796E-33
   5.590000      3.6185643E-33
   5.600000      3.9380585E-33
   5.610000      4.2646560E-33
   5.620000      4.5989472E-33
   5.630000      4.9414686E-33
   5.640000      5.2890141E-33
   5.650000      5.6405751E-33
   5.660000      5.9966301E-33
   5.670000      6.3536630E-33
   5.680000      6.7090965E-33
   5.690000      7.0598163E-33
   5.700000      7.4059112E-33
   5.710000      7.7460545E-33
   5.720000      8.0772720E-33
   5.730000      8.3988116E-33
   5.740000      8.7081577E-33
   5.750000      9.0028813E-33
   5.760000      9.2810282E-33
   5.770000      9.5411027E-33
   5.780000      9.7812503E-33
   5.790000      9.9974435E-33
   5.800000      1.0188824E-32
   5.810000      1.0354109E-32
   5.820000      1.0488747E-32
   5.830000      1.0590465E-32
   5.840000      1.0655122E-32
   5.850000      1.0679235E-32
   5.860000      1.0659839E-32
   5.870000      1.0592709E-32
   5.880000      1.0474175E-32
   5.890000      1.0299129E-32
   5.900000      1.0063837E-32
   5.910000      9.7646802E-33
   5.920000      9.3962164E-33
   5.930000      8.9537956E-33
   5.940000      8.4327151E-33
   5.950000      7.8278248E-33
   5.960000      7.1346321E-33
   5.970000      6.3485842E-33
   5.980000      5.4661575E-33
   5.990000      4.4816233E-33
   6.000000      3.3895468E-33
   6.010000      2.1871819E-33
   6.020000      8.7087702E-34
   6.030000     -5.6241077E-34
   6.040000     -2.1161264E-33
   6.050000     -3.7931160E-33
   6.060000     -5.5951092E-33
   6.070000     -7.5238794E-33
   6.080000     -9.5805126E-33
   6.090000     -1.1766221E-32
   6.100000     -1.4081520E-32
   6.110000     -1.6525836E-32
   6.120000     -1.9098996E-32
   6.130000     -2.1800684E-32
   6.140000     -2.4629271E-32
   6.150000     -2.7582896E-32
   6.160000     -3.0658462E-32
   6.170000     -3.3854311E-32
   6.180000     -3.7167065E-32
   6.190000     -4.0594551E-32
   6.200000     -4.4131796E-32
   6.210000     -4.7770465E-32
   6.220000     -5.1505801E-32
   6.230000     -5.5330260E-32
   6.240000     -5.9235929E-32
   6.250000     -6.3214101E-32
   6.260000     -6.7253964E-32
   6.270000     -7.1343614E-32
   6.280000     -7.5470434E-32
   6.290000     -7.9620576E-32
   6.300000     -8.3777788E-32
   6.310000     -8.7926113E-32
   6.320000     -9.2048078E-32
   6.330000     -9.6123218E-32
   6.340000     -1.0013062E-31
   6.350000     -1.0404766E-31
   6.360000     -1.0784983E-31
   6.370000     -1.1151201E-31
   6.380000     -1.1500732E-31
   6.390000     -1.1830655E-31
   6.400000     -1.2137968E-31
   6.410000     -1.2419516E-31
   6.420000     -1.2672009E-31
   6.430000     -1.2892027E-31
   6.440000     -1.3076032E-31
   6.450000     -1.3220341E-31
   6.460000     -1.3321236E-31
   6.470000     -1.3374908E-31
   6.480000     -1.3377391E-31
   6.490000     -1.3324680E-31
   6.500000     -1.3212688E-31
   6.510000     -1.3037277E-31
   6.520000     -1.2794249E-31
   6.530000     -1.2479320E-31
   6.540000     -1.2088241E-31
   6.550000     -1.1616743E-31
   6.560000     -1.1060458E-31
   6.570000     -1.0415046E-31
   6.580000     -9.6761764E-32
   6.590000     -8.8395453E-32
   6.600000     -7.9008884E-32
   6.610000     -6.8560097E-32
   6.620000     -5.7007950E-32
   6.630000     -4.4312422E-32
   6.640000     -3.0434880E-32
   6.650000     -1.5338316E-32
   6.660000      1.0123562E-33
   6.670000      1.8649960E-32
   6.680000      3.7604784E-32
   6.690000      5.7904258E-32
   6.700000      7.9572563E-32
   6.710000      1.0263034E-31
   6.720000      1.2709423E-31
   6.730000      1.5297658E-31
   6.740000      1.8028497E-31
   6.750000      2.0902182E-31
   6.760000      2.3918400E-31
   6.770000      2.7076231E-31
   6.780000      3.0374123E-31
   6.790000      3.3809822E-31
   6.800000      3.7380356E-31
   6.810000      4.1081962E-31
   6.820000      4.4910100E-31
   6.830000      4.8859409E-31
   6.840000      5.2923563E-31
   6.850000      5.7095355E-31
   6.860000      6.1366621E-31
   6.870000      6.5728223E-31
   6.880000      7.0169993E-31
   6.890000      7.4680722E-31
   6.900000      7.9248133E-31
   6.910000      8.3858836E-31
   6.920000      8.8498296E-31
   6.930000      9.3150846E-31
   6.940000      9.7799607E-31
   6.950000      1.0242650E-30
   6.960000      1.0701222E-30
   6.970000      1.1153621E-30
   6.980000      1.1597662E-30
   6.990000      1.2031035E-30
   7.000000      1.2451301E-30
   7.010000      1.2855888E-30
   7.020000      1.3242098E-30
   7.030000      1.3607104E-30
   7.040000      1.3947953E-30
   7.050000      1.4261565E-30
   7.060000      1.4544736E-30