  -2.600000      0.0000000E+00
  -2.590000      0.0000000E+00
  -2.580000      0.0000000E+00
  -2.570000      0.0000000E+00
  -2.560000      0.0000000E+00
  -2.550000      0.0000000E+00
  -2.540000      0.0000000E+00
  -2.530000      0.0000000E+00
  -2.520000      0.0000000E+00
  -2.510000      0.0000000E+00
  -2.500000      0.0000000E+00
  -2.490000      0.0000000E+00
  -2.480000      0.0000000E+00
  -2.470000      0.0000000E+00
  -2.460000      0.0000000E+00
  -2.450000      0.0000000E+00
  -2.440000      0.0000000E+00
  -2.430000      0.0000000E+00
  -2.420000      0.0000000E+00
  -2.410000      0.0000000E+00
  -2.400000      0.0000000E+00
  -2.390000      0.0000000E+00
  -2.380000      0.0000000E+00
  -2.370000      0.0000000E+00
  -2.360000      0.0000000E+00
  -2.350000      0.0000000E+00
  -2.340000      0.0000000E+00
  -2.330000      0.0000000E+00
  -2.320000      0.0000000E+00
  -2.310000      0.0000000E+00
  -2.300000      0.0000000E+00
  -2.290000      0.0000000E+00
  -2.280000      0.0000000E+00
  -2.270000      0.0000000E+00
  -2.260000      0.0000000E+00
  -2.250000      0.0000000E+00
  -2.240000      0.0000000E+00
  -2.230000      0.0000000E+00
  -2.220000      0.0000000E+00
  -2.210000      0.0000000E+00
  -2.200000      0.0000000E+00
  -2.190000      0.0000000E+00
  -2.180000      0.0000000E+00
  -2.170000      0.0000000E+00
  -2.160000      0.0000000E+00
  -2.150000      0.0000000E+00
  -2.140000      0.0000000E+00
  -2.130000      0.0000000E+00
  -2.120000      0.0000000E+00
  -2.110000      0.0000000E+00
  -2.100000      0.0000000E+00
  -2.090000      0.0000000E+00
  -2.080000      0.0000000E+00
  -2.070000      0.0000000E+00
  -2.060000      0.0000000E+00
  -2.050000      0.0000000E+00
  -2.040000      0.0000000E+00
  -2.030000      0.0000000E+00
  -2.020000      0.0000000E+00
  -2.010000      0.0000000E+00
  -2.000000      0.0000000E+00
  -1.990000      0.0000000E+00
  -1.980000      0.0000000E+00
  -1.970000      0.0000000E+00
  -1.960000      0.0000000E+00
  -1.950000      0.0000000E+00
  -1.940000      0.0000000E+00
  -1.930000      0.0000000E+00
  -1.920000      0.0000000E+00
  -1.910000      0.0000000E+00
  -1.900000      0.0000000E+00
  -1.890000      0.0000000E+00
  -1.880000      0.0000000E+00
  -1.870000      0.0000000E+00
  -1.860000      0.0000000E+00
  -1.850000      0.0000000E+00
  -1.840000      0.0000000E+00
  -1.830000      0.0000000E+00
  -1.820000      0.0000000E+00
  -1.810000      0.0000000E+00
  -1.800000      0.0000000E+00
  -1.790000      0.0000000E+00
  -1.780000      0.0000000E+00
  -1.770000      0.0000000E+00
  -1.760000      0.0000000E+00
  -1.750000      0.0000000E+00
  -1.740000      0.0000000E+00
  -1.730000      0.0000000E+00
  -1.720000      0.0000000E+00
  -1.710000      0.0000000E+00
  -1.700000      0.0000000E+00
  -1.690000      0.0000000E+00
  -1.680000      0.0000000E+00
  -1.670000      0.0000000E+00
  -1.660000      0.0000000E+00
  -1.650000      0.0000000E+00
  -1.640000      0.0000000E+00
  -1.630000      0.0000000E+00
  -1.620000      0.0000000E+00
  -1.610000      0.0000000E+00
  -1.600000      0.0000000E+00
  -1.590000      0.0000000E+00
  -1.580000      0.0000000E+00
  -1.570000      0.0000000E+00
  -1.560000      0.0000000E+00
  -1.550000      0.0000000E+00
  -1.540000      0.0000000E+00
  -1.530000      0.0000000E+00
  -1.520000      0.0000000E+00
  -1.510000      0.0000000E+00
  -1.500000      0.0000000E+00
  -1.490000      0.0000000E+00
  -1.480000      0.0000000E+00
  -1.470000      0.0000000E+00
  -1.460000      0.0000000E+00
  -1.450000      0.0000000E+00
  -1.440000      0.0000000E+00
  -1.430000      0.0000000E+00
  -1.420000      0.0000000E+00
  -1.410000      0.0000000E+00
  -1.400000      0.0000000E+00
  -1.390000      0.0000000E+00
  -1.380000      0.0000000E+00
  -1.370000      0.0000000E+00
  -1.360000      0.0000000E+00
  -1.350000      0.0000000E+00
  -1.340000      0.0000000E+00
  -1.330000      0.0000000E+00
  -1.320000      0.0000000E+00
  -1.310000      0.0000000E+00
  -1.300000      0.0000000E+00
  -1.290000      0.0000000E+00
  -1.280000      0.0000000E+00
  -1.270000      0.0000000E+00
  -1.260000      0.0000000E+00
  -1.250000      0.0000000E+00
  -1.240000      0.0000000E+00
  -1.230000      0.0000000E+00
  -1.220000      0.0000000E+00
  -1.210000      0.0000000E+00
  -1.200000      0.0000000E+00
  -1.190000      0.0000000E+00
  -1.180000      0.0000000E+00
  -1.170000      0.0000000E+00
  -1.160000      0.0000000E+00
  -1.150000      0.0000000E+00
  -1.140000      0.0000000E+00
  -1.130000      0.0000000E+00
  -1.120000      0.0000000E+00
  -1.110000      0.0000000E+00
  -1.100000      0.0000000E+00
  -1.090000      0.0000000E+00
  -1.080000      0.0000000E+00
  -1.070000      0.0000000E+00
  -1.060000      0.0000000E+00
  -1.050000      0.0000000E+00
  -1.040000      0.0000000E+00
  -1.030000      0.0000000E+00
  -1.020000      0.0000000E+00
  -1.010000      0.0000000E+00
  -1.000000      0.0000000E+00
 -0.9900000      0.0000000E+00
 -0.9800000      0.0000000E+00
 -0.9700000      0.0000000E+00
 -0.9600000      0.0000000E+00
 -0.9500000      0.0000000E+00
 -0.9400000      0.0000000E+00
 -0.9300000      0.0000000E+00
 -0.9200000      0.0000000E+00
 -0.9100000      0.0000000E+00
 -0.9000000      0.0000000E+00
 -0.8900000      0.0000000E+00
 -0.8800000      0.0000000E+00
 -0.8700000      0.0000000E+00
 -0.8600000      0.0000000E+00
 -0.8500000      0.0000000E+00
 -0.8400000      0.0000000E+00
 -0.8300000      0.0000000E+00
 -0.8200000      0.0000000E+00
 -0.8100000      0.0000000E+00
 -0.8000000      0.0000000E+00
 -0.7900000      0.0000000E+00
 -0.7800000      0.0000000E+00
 -0.7700000      0.0000000E+00
 -0.7600000      0.0000000E+00
 -0.7500000      0.0000000E+00
 -0.7400000      0.0000000E+00
 -0.7300000      0.0000000E+00
 -0.7200000      0.0000000E+00
 -0.7100000      0.0000000E+00
 -0.7000000      0.0000000E+00
 -0.6900000      0.0000000E+00
 -0.6800000      0.0000000E+00
 -0.6700000      0.0000000E+00
 -0.6600000      0.0000000E+00
 -0.6500000      0.0000000E+00
 -0.6400000      0.0000000E+00
 -0.6300000      0.0000000E+00
 -0.6200000      0.0000000E+00
 -0.6100000      0.0000000E+00
 -0.6000000      0.0000000E+00
 -0.5900000      0.0000000E+00
 -0.5800000      0.0000000E+00
 -0.5700000      0.0000000E+00
 -0.5600000      0.0000000E+00
 -0.5500000      0.0000000E+00
 -0.5400000      0.0000000E+00
 -0.5300000      0.0000000E+00
 -0.5200000      0.0000000E+00
 -0.5100000      0.0000000E+00
 -0.5000000      0.0000000E+00
 -0.4900000      0.0000000E+00
 -0.4800000      0.0000000E+00
 -0.4700000      0.0000000E+00
 -0.4600000      0.0000000E+00
 -0.4500000      0.0000000E+00
 -0.4400000      0.0000000E+00
 -0.4300000      0.0000000E+00
 -0.4200000      0.0000000E+00
 -0.4100000      0.0000000E+00
 -0.4000000      0.0000000E+00
 -0.3900000      0.0000000E+00
 -0.3800000      0.0000000E+00
 -0.3700000      0.0000000E+00
 -0.3600000      0.0000000E+00
 -0.3500000      0.0000000E+00
 -0.3400000      0.0000000E+00
 -0.3300000      0.0000000E+00
 -0.3200000      0.0000000E+00
 -0.3100000      0.0000000E+00
 -0.3000000      0.0000000E+00
 -0.2900000      0.0000000E+00
 -0.2800000      0.0000000E+00
 -0.2700000      0.0000000E+00
 -0.2600000      0.0000000E+00
 -0.2500000      0.0000000E+00
 -0.2400000      0.0000000E+00
 -0.2300000      0.0000000E+00
 -0.2200000      0.0000000E+00
 -0.2100000      0.0000000E+00
 -0.2000000      0.0000000E+00
 -0.1900000      0.0000000E+00
 -0.1800000      0.0000000E+00
 -0.1700000      0.0000000E+00
 -0.1600000      0.0000000E+00
 -0.1500000      0.0000000E+00
 -0.1400000      0.0000000E+00
 -0.1300000      0.0000000E+00
 -0.1200000      0.0000000E+00
 -0.1100000      0.0000000E+00
 -0.1000000      0.0000000E+00
 -9.0000004E-02  0.0000000E+00
 -7.9999998E-02  0.0000000E+00
 -7.0000000E-02  0.0000000E+00
 -5.9999999E-02  0.0000000E+00
 -5.0000001E-02  0.0000000E+00
 -3.9999999E-02  0.0000000E+00
 -2.9999999E-02  0.0000000E+00
 -2.0000000E-02  0.0000000E+00
 -9.9999998E-03  0.0000000E+00
 -3.4694470E-17  0.0000000E+00
  9.9999998E-03  0.0000000E+00
  2.0000000E-02  0.0000000E+00
  2.9999999E-02  0.0000000E+00
  3.9999999E-02  0.0000000E+00
  5.0000001E-02  0.0000000E+00
  5.9999999E-02  0.0000000E+00
  7.0000000E-02  0.0000000E+00
  7.9999998E-02  0.0000000E+00
  9.0000004E-02  0.0000000E+00
  0.1000000      0.0000000E+00
  0.1100000      0.0000000E+00
  0.1200000      0.0000000E+00
  0.1300000      0.0000000E+00
  0.1400000      0.0000000E+00
  0.1500000      0.0000000E+00
  0.1600000      0.0000000E+00
  0.1700000      0.0000000E+00
  0.1800000      0.0000000E+00
  0.1900000      0.0000000E+00
  0.2000000      0.0000000E+00
  0.2100000      0.0000000E+00
  0.2200000      0.0000000E+00
  0.2300000      0.0000000E+00
  0.2400000      0.0000000E+00
  0.2500000      0.0000000E+00
  0.2600000      0.0000000E+00
  0.2700000      0.0000000E+00
  0.2800000      0.0000000E+00
  0.2900000      0.0000000E+00
  0.3000000      0.0000000E+00
  0.3100000      0.0000000E+00
  0.3200000      0.0000000E+00
  0.3300000      0.0000000E+00
  0.3400000      0.0000000E+00
  0.3500000      0.0000000E+00
  0.3600000      0.0000000E+00
  0.3700000      0.0000000E+00
  0.3800000      0.0000000E+00
  0.3900000      0.0000000E+00
  0.4000000      0.0000000E+00
  0.4100000      0.0000000E+00
  0.4200000      0.0000000E+00
  0.4300000      0.0000000E+00
  0.4400000      0.0000000E+00
  0.4500000      0.0000000E+00
  0.4600000      0.0000000E+00
  0.4700000      0.0000000E+00
  0.4800000      0.0000000E+00
  0.4900000      0.0000000E+00
  0.5000000      0.0000000E+00
  0.5100000      0.0000000E+00
  0.5200000      0.0000000E+00
  0.5300000      0.0000000E+00
  0.5400000      0.0000000E+00
  0.5500000      0.0000000E+00
  0.5600000      0.0000000E+00
  0.5700000      0.0000000E+00
  0.5800000      0.0000000E+00
  0.5900000      0.0000000E+00
  0.6000000      0.0000000E+00
  0.6100000      0.0000000E+00
  0.6200000      0.0000000E+00
  0.6300000      0.0000000E+00
  0.6400000      0.0000000E+00
  0.6500000      0.0000000E+00
  0.6600000      0.0000000E+00
  0.6700000      0.0000000E+00
  0.6800000      0.0000000E+00
  0.6900000      0.0000000E+00
  0.7000000      0.0000000E+00
  0.7100000      0.0000000E+00
  0.7200000      0.0000000E+00
  0.7300000      0.0000000E+00
  0.7400000      0.0000000E+00
  0.7500000      0.0000000E+00
  0.7600000      0.0000000E+00
  0.7700000      0.0000000E+00
  0.7800000      0.0000000E+00
  0.7900000      0.0000000E+00
  0.8000000      0.0000000E+00
  0.8100000      0.0000000E+00
  0.8200000      0.0000000E+00
  0.8300000      0.0000000E+00
  0.8400000      0.0000000E+00
  0.8500000      0.0000000E+00
  0.8600000      0.0000000E+00
  0.8700000      0.0000000E+00
  0.8800000      0.0000000E+00
  0.8900000      0.0000000E+00
  0.9000000      0.0000000E+00
  0.9100000      0.0000000E+00
  0.9200000      0.0000000E+00
  0.9300000      0.0000000E+00
  0.9400000      0.0000000E+00
  0.9500000      0.0000000E+00
  0.9600000      0.0000000E+00
  0.9700000      0.0000000E+00
  0.9800000      0.0000000E+00
  0.9900000      0.0000000E+00
   1.000000      0.0000000E+00
   1.010000      0.0000000E+00
   1.020000      0.0000000E+00
   1.030000      0.0000000E+00
   1.040000      0.0000000E+00
   1.050000      0.0000000E+00
   1.060000      0.0000000E+00
   1.070000      0.0000000E+00
   1.080000      0.0000000E+00
   1.090000      0.0000000E+00
   1.100000      0.0000000E+00
   1.110000      0.0000000E+00
   1.120000      0.0000000E+00
   1.130000      0.0000000E+00
   1.140000      0.0000000E+00
   1.150000      0.0000000E+00
   1.160000      0.0000000E+00
   1.170000      0.0000000E+00
   1.180000      0.0000000E+00
   1.190000      0.0000000E+00
   1.200000      0.0000000E+00
   1.210000      0.0000000E+00
   1.220000      0.0000000E+00
   1.230000      0.0000000E+00
   1.240000      0.0000000E+00
   1.250000      0.0000000E+00
   1.260000      0.0000000E+00
   1.270000      0.0000000E+00
   1.280000      0.0000000E+00
   1.290000      0.0000000E+00
   1.300000      0.0000000E+00
   1.310000      0.0000000E+00
   1.320000      0.0000000E+00
   1.330000      0.0000000E+00
   1.340000      0.0000000E+00
   1.350000      0.0000000E+00
   1.360000      0.0000000E+00
   1.370000      0.0000000E+00
   1.380000      0.0000000E+00
   1.390000      0.0000000E+00
   1.400000      0.0000000E+00
   1.410000      0.0000000E+00
   1.420000      0.0000000E+00
   1.430000      0.0000000E+00
   1.440000      0.0000000E+00
   1.450000      0.0000000E+00
   1.460000      0.0000000E+00
   1.470000      0.0000000E+00
   1.480000      0.0000000E+00
   1.490000      0.0000000E+00
   1.500000      0.0000000E+00
   1.510000      0.0000000E+00
   1.520000      0.0000000E+00
   1.530000      0.0000000E+00
   1.540000      0.0000000E+00
   1.550000      0.0000000E+00
   1.560000      0.0000000E+00
   1.570000      0.0000000E+00
   1.580000      0.0000000E+00
   1.590000      0.0000000E+00
   1.600000      0.0000000E+00
   1.610000      0.0000000E+00
   1.620000      0.0000000E+00
   1.630000      0.0000000E+00
   1.640000      0.0000000E+00
   1.650000      0.0000000E+00
   1.660000      0.0000000E+00
   1.670000      0.0000000E+00
   1.680000      0.0000000E+00
   1.690000      0.0000000E+00
   1.700000      0.0000000E+00
   1.710000      0.0000000E+00
   1.720000      0.0000000E+00
   1.730000      0.0000000E+00
   1.740000      0.0000000E+00
   1.750000      0.0000000E+00
   1.760000      0.0000000E+00
   1.770000      0.0000000E+00
   1.780000      0.0000000E+00
   1.790000      0.0000000E+00
   1.800000      0.0000000E+00
   1.810000      0.0000000E+00
   1.820000      0.0000000E+00
   1.830000      0.0000000E+00
   1.840000      0.0000000E+00
   1.850000      0.0000000E+00
   1.860000      0.0000000E+00
   1.870000      0.0000000E+00
   1.880000      0.0000000E+00
   1.890000      0.0000000E+00
   1.900000      0.0000000E+00
   1.910000      0.0000000E+00
   1.920000      0.0000000E+00
   1.930000      0.0000000E+00
   1.940000      0.0000000E+00
   1.950000      0.0000000E+00
   1.960000      0.0000000E+00
   1.970000      0.0000000E+00
   1.980000      0.0000000E+00
   1.990000      0.0000000E+00
   2.000000      0.0000000E+00
   2.010000      0.0000000E+00
   2.020000      0.0000000E+00
   2.030000      0.0000000E+00
   2.040000      0.0000000E+00
   2.050000      0.0000000E+00
   2.060000      0.0000000E+00
   2.070000      0.0000000E+00
   2.080000      0.0000000E+00
   2.090000      0.0000000E+00
   2.100000      0.0000000E+00
   2.110000      0.0000000E+00
   2.120000      0.0000000E+00
   2.130000      0.0000000E+00
   2.140000      0.0000000E+00
   2.150000      0.0000000E+00
   2.160000      0.0000000E+00
   2.170000      0.0000000E+00
   2.180000      0.0000000E+00
   2.190000      0.0000000E+00
   2.200000      0.0000000E+00
   2.210000      0.0000000E+00
   2.220000      0.0000000E+00
   2.230000      0.0000000E+00
   2.240000      0.0000000E+00
   2.250000      0.0000000E+00
   2.260000      0.0000000E+00
   2.270000      0.0000000E+00
   2.280000      0.0000000E+00
   2.290000      0.0000000E+00
   2.300000      0.0000000E+00
   2.310000      0.0000000E+00
   2.320000      0.0000000E+00
   2.330000      0.0000000E+00
   2.340000      0.0000000E+00
   2.350000      0.0000000E+00
   2.360000      0.0000000E+00
   2.370000      0.0000000E+00
   2.380000      0.0000000E+00
   2.390000      0.0000000E+00
   2.400000      0.0000000E+00
   2.410000      0.0000000E+00
   2.420000      0.0000000E+00
   2.430000      0.0000000E+00
   2.440000      0.0000000E+00
   2.450000      0.0000000E+00
   2.460000      0.0000000E+00
   2.470000      0.0000000E+00
   2.480000      0.0000000E+00
   2.490000      0.0000000E+00
   2.500000      0.0000000E+00
   2.510000      0.0000000E+00
   2.520000      0.0000000E+00
   2.530000      0.0000000E+00
   2.540000      0.0000000E+00
   2.550000      0.0000000E+00
   2.560000      0.0000000E+00
   2.570000      0.0000000E+00
   2.580000      0.0000000E+00
   2.590000      0.0000000E+00
   2.600000      0.0000000E+00
   2.610000      0.0000000E+00
   2.620000      0.0000000E+00
   2.630000      0.0000000E+00
   2.640000      0.0000000E+00
   2.650000      0.0000000E+00
   2.660000      0.0000000E+00
   2.670000      0.0000000E+00
   2.680000      0.0000000E+00
   2.690000      0.0000000E+00
   2.700000      0.0000000E+00
   2.710000      0.0000000E+00
   2.720000      0.0000000E+00
   2.730000      0.0000000E+00
   2.740000      0.0000000E+00
   2.750000      0.0000000E+00
   2.760000      0.0000000E+00
   2.770000      0.0000000E+00
   2.780000      0.0000000E+00
   2.790000      0.0000000E+00
   2.800000      0.0000000E+00
   2.810000      0.0000000E+00
   2.820000      0.0000000E+00
   2.830000      0.0000000E+00
   2.840000      0.0000000E+00
   2.850000      0.0000000E+00
   2.860000      0.0000000E+00
   2.870000      0.0000000E+00
   2.880000      0.0000000E+00
   2.890000      0.0000000E+00
   2.900000      0.0000000E+00
   2.910000      0.0000000E+00
   2.920000      0.0000000E+00
   2.930000      0.0000000E+00
   2.940000      0.0000000E+00
   2.950000      0.0000000E+00
   2.960000      0.0000000E+00
   2.970000      0.0000000E+00
   2.980000      0.0000000E+00
   2.990000      0.0000000E+00
   3.000000      0.0000000E+00
   3.010000      0.0000000E+00
   3.020000      0.0000000E+00
   3.030000      0.0000000E+00
   3.040000      0.0000000E+00
   3.050000      0.0000000E+00
   3.060000      0.0000000E+00
   3.070000      0.0000000E+00
   3.080000      0.0000000E+00
   3.090000      0.0000000E+00
   3.100000      0.0000000E+00
   3.110000      0.0000000E+00
   3.120000      0.0000000E+00
   3.130000      0.0000000E+00
   3.140000      0.0000000E+00
   3.150000      0.0000000E+00
   3.160000      0.0000000E+00
   3.170000      0.0000000E+00
   3.180000      0.0000000E+00
   3.190000      0.0000000E+00
   3.200000      0.0000000E+00
   3.210000      0.0000000E+00
   3.220000      0.0000000E+00
   3.230000      0.0000000E+00
   3.240000      0.0000000E+00
   3.250000      0.0000000E+00
   3.260000     -1.4101231E-38
   3.270000     -1.6639968E-38
   3.280000     -1.8792306E-38
   3.290000     -2.0915279E-38
   3.300000     -2.3216716E-38
   3.310000     -2.5660398E-38
   3.320000     -2.7724718E-38
   3.330000     -2.9187623E-38
   3.340000     -3.0468651E-38
   3.350000     -3.1815509E-38
   3.360000     -3.3146451E-38
   3.370000     -3.4179497E-38
   3.380000     -3.5075294E-38
   3.390000     -3.6088990E-38
   3.400000     -3.7035789E-38
   3.410000     -3.8397428E-38
   3.420000     -4.0305486E-38
   3.430000     -4.1673711E-38
   3.440000     -4.2515636E-38
   3.450000     -4.2438963E-38
   3.460000     -4.0887625E-38
   3.470000     -3.9315480E-38
   3.480000     -3.7014643E-38
   3.490000     -3.3529188E-38
   3.500000     -3.0108977E-38
   3.510000     -2.6538368E-38
   3.520000     -2.3040357E-38
   3.530000     -1.8751185E-38
   3.540000     -1.2819141E-38
   3.550000      0.0000000E+00
   3.560000      0.0000000E+00
   3.570000      1.3320488E-38
   3.580000      2.4694548E-38
   3.590000      3.6196938E-38
   3.600000      4.7752653E-38
   3.610000      6.0278171E-38
   3.620000      7.3524724E-38
   3.630000      8.7961545E-38
   3.640000      1.0379607E-37
   3.650000      1.2132076E-37
   3.660000      1.3957201E-37
   3.670000      1.5777366E-37
   3.680000      1.7664165E-37
   3.690000      1.9605816E-37
   3.700000      2.1313171E-37
   3.710000      2.2898858E-37
   3.720000      2.4584728E-37
   3.730000      2.6225274E-37
   3.740000      2.9453029E-37
   3.750000      3.4653862E-37
   3.760000      4.0226441E-37
   3.770000      4.4981712E-37
   3.780000      4.8584762E-37
   3.790000      5.1484271E-37
   3.800000      5.3719178E-37
   3.810000      5.4381268E-37
   3.820000      5.4205534E-37
   3.830000      5.4874283E-37
   3.840000      5.6007747E-37
   3.850000      5.7566812E-37
   3.860000      5.9490918E-37
   3.870000      6.1373729E-37
   3.880000      6.2969402E-37
   3.890000      6.2555331E-37
   3.900000      6.0069522E-37
   3.910000      5.6088444E-37
   3.920000      5.0465215E-37
   3.930000      4.3984907E-37
   3.940000      3.6871822E-37
   3.950000      3.1287865E-37
   3.960000      2.6430527E-37
   3.970000      1.9948730E-37
   3.980000      1.3070128E-37
   3.990000      7.5368115E-38
   4.000000      2.8267405E-38
   4.010000     -2.4488756E-38
   4.020000     -8.5282991E-38
   4.030000     -1.6562490E-37
   4.040000     -2.6255383E-37
   4.050000     -3.6820382E-37
   4.060000     -5.2220685E-37
   4.070000     -7.2915720E-37
   4.080000     -9.6881130E-37
   4.090000     -1.2535080E-36
   4.100000     -1.5739652E-36
   4.110000     -1.9201027E-36
   4.120000     -2.2888577E-36
   4.130000     -2.6517146E-36
   4.140000     -2.9986788E-36
   4.150000     -3.3277858E-36
   4.160000     -3.6327830E-36
   4.170000     -3.9218510E-36
   4.180000     -4.1918477E-36
   4.190000     -4.4442267E-36
   4.200000     -4.6585374E-36
   4.210000     -4.8353530E-36
   4.220000     -4.9912937E-36
   4.230000     -5.2150444E-36
   4.240000     -5.5299964E-36
   4.250000     -5.8788500E-36
   4.260000     -6.2715120E-36
   4.270000     -6.7033017E-36
   4.280000     -7.1659532E-36
   4.290000     -7.6462356E-36
   4.300000     -8.0779945E-36
   4.310000     -8.3843239E-36
   4.320000     -8.5045323E-36
   4.330000     -8.4775033E-36
   4.340000     -8.2868929E-36
   4.350000     -7.9345123E-36
   4.360000     -7.4823164E-36
   4.370000     -6.9247365E-36
   4.380000     -6.2745340E-36
   4.390000     -5.5345559E-36
   4.400000     -4.7334899E-36
   4.410000     -3.9254150E-36
   4.420000     -3.0196864E-36
   4.430000     -1.9565949E-36
   4.440000     -8.8848600E-37
   4.450000      1.6689432E-37
   4.460000      1.3378285E-36
   4.470000      2.6226611E-36
   4.480000      3.9777114E-36
   4.490000      5.5880662E-36
   4.500000      7.4831559E-36
   4.510000      9.4261467E-36
   4.520000      1.1418800E-35
   4.530000      1.3614129E-35
   4.540000      1.5984048E-35
   4.550000      1.8400047E-35
   4.560000      2.0892826E-35
   4.570000      2.3955144E-35
   4.580000      2.7609871E-35
   4.590000      3.1422987E-35
   4.600000      3.4836874E-35
   4.610000      3.7833489E-35
   4.620000      4.0908811E-35
   4.630000      4.3618839E-35
   4.640000      4.5920460E-35
   4.650000      4.8434827E-35
   4.660000      5.1195207E-35
   4.670000      5.3944188E-35
   4.680000      5.6609696E-35
   4.690000      5.9102100E-35
   4.700000      6.1418409E-35
   4.710000      6.3713510E-35
   4.720000      6.6017886E-35
   4.730000      6.8065215E-35
   4.740000      6.9816742E-35
   4.750000      7.1378669E-35
   4.760000      7.2765396E-35
   4.770000      7.3855271E-35
   4.780000      7.4248298E-35
   4.790000      7.3769973E-35
   4.800000      7.2685034E-35
   4.810000      7.1120008E-35
   4.820000      6.8977739E-35
   4.830000      6.9183284E-35
   4.840000      7.1646978E-35
   4.850000      7.3700787E-35
   4.860000      7.5492945E-35
   4.870000      7.6831935E-35
   4.880000      7.8237822E-35
   4.890000      7.9706782E-35
   4.900000      7.5618846E-35
   4.910000      6.2794776E-35
   4.920000      4.6053900E-35
   4.930000      2.7136066E-35
   4.940000      6.6224090E-36
   4.950000     -1.2871881E-35
   4.960000     -3.2224797E-35
   4.970000     -5.2950866E-35
   4.980000     -7.3573462E-35
   4.990000     -9.2939893E-35
   5.000000     -1.1506509E-34
   5.010000     -1.4077571E-34
   5.020000     -1.6669828E-34
   5.030000     -1.9101220E-34
   5.040000     -2.1397772E-34
   5.050000     -2.3729085E-34
   5.060000     -2.6450466E-34
   5.070000     -2.9968007E-34
   5.080000     -3.4024783E-34
   5.090000     -3.8339811E-34
   5.100000     -4.2504016E-34
   5.110000     -4.6424547E-34
   5.120000     -5.0414482E-34
   5.130000     -5.4600092E-34
   5.140000     -5.8888626E-34
   5.150000     -6.3005524E-34
   5.160000     -6.6921578E-34
   5.170000     -7.0473003E-34
   5.180000     -7.3742466E-34
   5.190000     -7.6846157E-34
   5.200000     -7.9651956E-34
   5.210000     -8.2257008E-34
   5.220000     -8.4361473E-34
   5.230000     -8.5978045E-34
   5.240000     -8.7442600E-34
   5.250000     -8.8646977E-34
   5.260000     -8.9340913E-34
   5.270000     -8.9477326E-34
   5.280000     -8.9313648E-34
   5.290000     -8.8871708E-34
   5.300000     -8.8353048E-34
   5.310000     -8.7615940E-34
   5.320000     -8.6313363E-34
   5.330000     -8.4534923E-34
   5.340000     -8.2098785E-34
   5.350000     -7.9002982E-34
   5.360000     -7.5419488E-34
   5.370000     -7.1003436E-34
   5.380000     -6.5595689E-34
   5.390000     -5.9386167E-34
   5.400000     -5.2126539E-34
   5.410000     -4.3522587E-34
   5.420000     -3.3645755E-34
   5.430000     -2.2531508E-34
   5.440000     -1.0095670E-34
   5.450000      3.6190440E-35
   5.460000      1.8638418E-34
   5.470000      3.5040630E-34
   5.480000      5.2948384E-34
   5.490000      7.2303128E-34
   5.500000      9.3362454E-34
   5.510000      1.1631408E-33
   5.520000      1.4090153E-33
   5.530000      1.6703367E-33
   5.540000      1.9465332E-33
   5.550000      2.2375465E-33
   5.560000      2.5423660E-33
   5.570000      2.8602483E-33
   5.580000      3.1904794E-33
   5.590000      3.5298215E-33
   5.600000      3.8779382E-33
   5.610000      4.2367693E-33
   5.620000      4.6049804E-33
   5.630000      4.9806474E-33
   5.640000      5.3633818E-33
   5.650000      5.7524249E-33
   5.660000      6.1467459E-33
   5.670000      6.5469687E-33
   5.680000      6.9510059E-33
   5.690000      7.3560181E-33
   5.700000      7.7604139E-33
   5.710000      8.1606322E-33
   5.720000      8.5562933E-33
   5.730000      8.9466684E-33
   5.740000      9.3278269E-33
   5.750000      9.6958954E-33
   5.760000      1.0049530E-32
   5.770000      1.0387027E-32
   5.780000      1.0703208E-32
   5.790000      1.0994305E-32
   5.800000      1.1256342E-32
   5.810000      1.1484999E-32
   5.820000      1.1675813E-32
   5.830000      1.1823584E-32
   5.840000      1.1923105E-32
   5.850000      1.1969493E-32
   5.860000      1.1957373E-32
   5.870000      1.1881283E-32
   5.880000      1.1735698E-32
   5.890000      1.1514972E-32
   5.900000      1.1213371E-32
   5.910000      1.0825167E-32
   5.920000      1.0344703E-32
   5.930000      9.7664236E-33
   5.940000      9.0846935E-33
   5.950000      8.2939171E-33
   5.960000      7.3888070E-33
   5.970000      6.3641279E-33
   5.980000      5.2147666E-33
   5.990000      3.9359147E-33
   6.000000      2.5227222E-33
   6.010000      9.7053075E-34
   6.020000     -7.2491281E-34
   6.030000     -2.5682011E-33
   6.040000     -4.5627280E-33
   6.050000     -6.7116158E-33
   6.060000     -9.0186527E-33
   6.070000     -1.1486804E-32
   6.080000     -1.4118701E-32
   6.090000     -1.6916651E-32
   6.100000     -1.9882275E-32
   6.110000     -2.3016680E-32
   6.120000     -2.6320559E-32
   6.130000     -2.9793836E-32
   6.140000     -3.3435682E-32
   6.150000     -3.7244445E-32
   6.160000     -4.1218204E-32
   6.170000     -4.5352688E-32
   6.180000     -4.9642525E-32
   6.190000     -5.4082491E-32
   6.200000     -5.8665467E-32
   6.210000     -6.3382908E-32
   6.220000     -6.8224852E-32
   6.230000     -7.3179807E-32
   6.240000     -7.8234656E-32
   6.250000     -8.3374693E-32
   6.260000     -8.8583456E-32
   6.270000     -9.3842694E-32
   6.280000     -9.9132342E-32
   6.290000     -1.0443045E-31
   6.300000     -1.0971318E-31
   6.310000     -1.1495479E-31
   6.320000     -1.2012668E-31
   6.330000     -1.2520097E-31
   6.340000     -1.3014591E-31
   6.350000     -1.3492603E-31
   6.360000     -1.3950656E-31
   6.370000     -1.4384988E-31
   6.380000     -1.4791632E-31
   6.390000     -1.5166427E-31
   6.400000     -1.5505015E-31
   6.410000     -1.5802839E-31
   6.420000     -1.6055163E-31
   6.430000     -1.6257048E-31
   6.440000     -1.6403371E-31
   6.450000     -1.6488832E-31
   6.460000     -1.6507956E-31
   6.470000     -1.6455094E-31
   6.480000     -1.6324440E-31
   6.490000     -1.6110033E-31
   6.500000     -1.5805771E-31
   6.510000     -1.5405425E-31
   6.520000     -1.4902649E-31
   6.530000     -1.4291003E-31
   6.540000     -1.3563971E-31
   6.550000     -1.2714977E-31
   6.560000     -1.1737418E-31
   6.570000     -1.0624683E-31
   6.580000     -9.3701923E-32
   6.590000     -7.9674196E-32
   6.600000     -6.4099319E-32
   6.610000     -4.6914288E-32
   6.620000     -2.8057757E-32
   6.630000     -7.4705208E-33
   6.640000      1.4904022E-32
   6.650000      3.9119465E-32
   6.660000      6.5225866E-32
   6.670000      9.3269217E-32
   6.680000      1.2329097E-31
   6.690000      1.5532747E-31
   6.700000      1.8940937E-31
   6.710000      2.2556105E-31
   6.720000      2.6380007E-31
   6.730000      3.0413657E-31
   6.740000      3.4657250E-31
   6.750000      3.9110126E-31
   6.760000      4.3770679E-31
   6.770000      4.8636460E-31
   6.780000      5.3703640E-31
   6.790000      5.8967278E-31
   6.800000      6.4421520E-31
   6.810000      7.0059087E-31
   6.820000      7.5871385E-31
   6.830000      8.1848412E-31
   6.840000      8.7978671E-31
   6.850000      9.4249153E-31
   6.860000      1.0064522E-30
   6.870000      1.0715055E-30
   6.880000      1.1374710E-30
   6.890000      1.2041500E-30
   6.900000      1.2713252E-30
   6.910000      1.3387599E-30
   6.920000      1.4061975E-30
   6.930000      1.4733610E-30
   6.940000      1.5399525E-30
   6.950000      1.6056527E-30
   6.960000      1.6701206E-30
   6.970000      1.7329928E-30
   6.980000      1.7938836E-30
   6.990000      1.8523852E-30
   7.000000      1.9080666E-30
   7.010000      1.9604741E-30
   7.020000      2.0091316E-30
   7.030000      2.0535403E-30
   7.040000      2.0931791E-30
   7.050000      2.1275058E-30
   7.060000      2.1559561E-30