  -2.600000      0.0000000E+00
  -2.590000      0.0000000E+00
  -2.580000      0.0000000E+00
  -2.570000      0.0000000E+00
  -2.560000      0.0000000E+00
  -2.550000      0.0000000E+00
  -2.540000      0.0000000E+00
  -2.530000      0.0000000E+00
  -2.520000      0.0000000E+00
  -2.510000      0.0000000E+00
  -2.500000      0.0000000E+00
  -2.490000      0.0000000E+00
  -2.480000      0.0000000E+00
  -2.470000      0.0000000E+00
  -2.460000      0.0000000E+00
  -2.450000      0.0000000E+00
  -2.440000      0.0000000E+00
  -2.430000      0.0000000E+00
  -2.420000      0.0000000E+00
  -2.410000      0.0000000E+00
  -2.400000      0.0000000E+00
  -2.390000      0.0000000E+00
  -2.380000      0.0000000E+00
  -2.370000      0.0000000E+00
  -2.360000      0.0000000E+00
  -2.350000      0.0000000E+00
  -2.340000      0.0000000E+00
  -2.330000      0.0000000E+00
  -2.320000      0.0000000E+00
  -2.310000      0.0000000E+00
  -2.300000      0.0000000E+00
  -2.290000      0.0000000E+00
  -2.280000      0.0000000E+00
  -2.270000      0.0000000E+00
  -2.260000      0.0000000E+00
  -2.250000      0.0000000E+00
  -2.240000      0.0000000E+00
  -2.230000      0.0000000E+00
  -2.220000      0.0000000E+00
  -2.210000      0.0000000E+00
  -2.200000      0.0000000E+00
  -2.190000      0.0000000E+00
  -2.180000      0.0000000E+00
  -2.170000      0.0000000E+00
  -2.160000      0.0000000E+00
  -2.150000      0.0000000E+00
  -2.140000      0.0000000E+00
  -2.130000      0.0000000E+00
  -2.120000      0.0000000E+00
  -2.110000      0.0000000E+00
  -2.100000      0.0000000E+00
  -2.090000      0.0000000E+00
  -2.080000      0.0000000E+00
  -2.070000      0.0000000E+00
  -2.060000      0.0000000E+00
  -2.050000      0.0000000E+00
  -2.040000      0.0000000E+00
  -2.030000      0.0000000E+00
  -2.020000      0.0000000E+00
  -2.010000      0.0000000E+00
  -2.000000      0.0000000E+00
  -1.990000      0.0000000E+00
  -1.980000      0.0000000E+00
  -1.970000      0.0000000E+00
  -1.960000      0.0000000E+00
  -1.950000      0.0000000E+00
  -1.940000      0.0000000E+00
  -1.930000      0.0000000E+00
  -1.920000      0.0000000E+00
  -1.910000      0.0000000E+00
  -1.900000      0.0000000E+00
  -1.890000      0.0000000E+00
  -1.880000      0.0000000E+00
  -1.870000      0.0000000E+00
  -1.860000      0.0000000E+00
  -1.850000      0.0000000E+00
  -1.840000      0.0000000E+00
  -1.830000      0.0000000E+00
  -1.820000      0.0000000E+00
  -1.810000      0.0000000E+00
  -1.800000      0.0000000E+00
  -1.790000      0.0000000E+00
  -1.780000      0.0000000E+00
  -1.770000      0.0000000E+00
  -1.760000      0.0000000E+00
  -1.750000      0.0000000E+00
  -1.740000      0.0000000E+00
  -1.730000      0.0000000E+00
  -1.720000      0.0000000E+00
  -1.710000      0.0000000E+00
  -1.700000      0.0000000E+00
  -1.690000      0.0000000E+00
  -1.680000      0.0000000E+00
  -1.670000      0.0000000E+00
  -1.660000      0.0000000E+00
  -1.650000      0.0000000E+00
  -1.640000      0.0000000E+00
  -1.630000      0.0000000E+00
  -1.620000      0.0000000E+00
  -1.610000      0.0000000E+00
  -1.600000      0.0000000E+00
  -1.590000      0.0000000E+00
  -1.580000      0.0000000E+00
  -1.570000      0.0000000E+00
  -1.560000      0.0000000E+00
  -1.550000      0.0000000E+00
  -1.540000      0.0000000E+00
  -1.530000      0.0000000E+00
  -1.520000      0.0000000E+00
  -1.510000      0.0000000E+00
  -1.500000      0.0000000E+00
  -1.490000      0.0000000E+00
  -1.480000      0.0000000E+00
  -1.470000      0.0000000E+00
  -1.460000      0.0000000E+00
  -1.450000      0.0000000E+00
  -1.440000      0.0000000E+00
  -1.430000      0.0000000E+00
  -1.420000      0.0000000E+00
  -1.410000      0.0000000E+00
  -1.400000      0.0000000E+00
  -1.390000      0.0000000E+00
  -1.380000      0.0000000E+00
  -1.370000      0.0000000E+00
  -1.360000      0.0000000E+00
  -1.350000      0.0000000E+00
  -1.340000      0.0000000E+00
  -1.330000      0.0000000E+00
  -1.320000      0.0000000E+00
  -1.310000      0.0000000E+00
  -1.300000      0.0000000E+00
  -1.290000      0.0000000E+00
  -1.280000      0.0000000E+00
  -1.270000      0.0000000E+00
  -1.260000      0.0000000E+00
  -1.250000      0.0000000E+00
  -1.240000      0.0000000E+00
  -1.230000      0.0000000E+00
  -1.220000      0.0000000E+00
  -1.210000      0.0000000E+00
  -1.200000      0.0000000E+00
  -1.190000      0.0000000E+00
  -1.180000      0.0000000E+00
  -1.170000      0.0000000E+00
  -1.160000      0.0000000E+00
  -1.150000      0.0000000E+00
  -1.140000      0.0000000E+00
  -1.130000      0.0000000E+00
  -1.120000      0.0000000E+00
  -1.110000      0.0000000E+00
  -1.100000      0.0000000E+00
  -1.090000      0.0000000E+00
  -1.080000      0.0000000E+00
  -1.070000      0.0000000E+00
  -1.060000      0.0000000E+00
  -1.050000      0.0000000E+00
  -1.040000      0.0000000E+00
  -1.030000      0.0000000E+00
  -1.020000      0.0000000E+00
  -1.010000      0.0000000E+00
  -1.000000      0.0000000E+00
 -0.9900000      0.0000000E+00
 -0.9800000      0.0000000E+00
 -0.9700000      0.0000000E+00
 -0.9600000      0.0000000E+00
 -0.9500000      0.0000000E+00
 -0.9400000      0.0000000E+00
 -0.9300000      0.0000000E+00
 -0.9200000      0.0000000E+00
 -0.9100000      0.0000000E+00
 -0.9000000      0.0000000E+00
 -0.8900000      0.0000000E+00
 -0.8800000      0.0000000E+00
 -0.8700000      0.0000000E+00
 -0.8600000      0.0000000E+00
 -0.8500000      0.0000000E+00
 -0.8400000      0.0000000E+00
 -0.8300000      0.0000000E+00
 -0.8200000      0.0000000E+00
 -0.8100000      0.0000000E+00
 -0.8000000      0.0000000E+00
 -0.7900000      0.0000000E+00
 -0.7800000      0.0000000E+00
 -0.7700000      0.0000000E+00
 -0.7600000      0.0000000E+00
 -0.7500000      0.0000000E+00
 -0.7400000      0.0000000E+00
 -0.7300000      0.0000000E+00
 -0.7200000      0.0000000E+00
 -0.7100000      0.0000000E+00
 -0.7000000      0.0000000E+00
 -0.6900000      0.0000000E+00
 -0.6800000      0.0000000E+00
 -0.6700000      0.0000000E+00
 -0.6600000      0.0000000E+00
 -0.6500000      0.0000000E+00
 -0.6400000      0.0000000E+00
 -0.6300000      0.0000000E+00
 -0.6200000      0.0000000E+00
 -0.6100000      0.0000000E+00
 -0.6000000      0.0000000E+00
 -0.5900000      0.0000000E+00
 -0.5800000      0.0000000E+00
 -0.5700000      0.0000000E+00
 -0.5600000      0.0000000E+00
 -0.5500000      0.0000000E+00
 -0.5400000      0.0000000E+00
 -0.5300000      0.0000000E+00
 -0.5200000      0.0000000E+00
 -0.5100000      0.0000000E+00
 -0.5000000      0.0000000E+00
 -0.4900000      0.0000000E+00
 -0.4800000      0.0000000E+00
 -0.4700000      0.0000000E+00
 -0.4600000      0.0000000E+00
 -0.4500000      0.0000000E+00
 -0.4400000      0.0000000E+00
 -0.4300000      0.0000000E+00
 -0.4200000      0.0000000E+00
 -0.4100000      0.0000000E+00
 -0.4000000      0.0000000E+00
 -0.3900000      0.0000000E+00
 -0.3800000      0.0000000E+00
 -0.3700000      0.0000000E+00
 -0.3600000      0.0000000E+00
 -0.3500000      0.0000000E+00
 -0.3400000      0.0000000E+00
 -0.3300000      0.0000000E+00
 -0.3200000      0.0000000E+00
 -0.3100000      0.0000000E+00
 -0.3000000      0.0000000E+00
 -0.2900000      0.0000000E+00
 -0.2800000      0.0000000E+00
 -0.2700000      0.0000000E+00
 -0.2600000      0.0000000E+00
 -0.2500000      0.0000000E+00
 -0.2400000      0.0000000E+00
 -0.2300000      0.0000000E+00
 -0.2200000      0.0000000E+00
 -0.2100000      0.0000000E+00
 -0.2000000      0.0000000E+00
 -0.1900000      0.0000000E+00
 -0.1800000      0.0000000E+00
 -0.1700000      0.0000000E+00
 -0.1600000      0.0000000E+00
 -0.1500000      0.0000000E+00
 -0.1400000      0.0000000E+00
 -0.1300000      0.0000000E+00
 -0.1200000      0.0000000E+00
 -0.1100000      0.0000000E+00
 -0.1000000      0.0000000E+00
 -9.0000004E-02  0.0000000E+00
 -7.9999998E-02  0.0000000E+00
 -7.0000000E-02  0.0000000E+00
 -5.9999999E-02  0.0000000E+00
 -5.0000001E-02  0.0000000E+00
 -3.9999999E-02  0.0000000E+00
 -2.9999999E-02  0.0000000E+00
 -2.0000000E-02  0.0000000E+00
 -9.9999998E-03  0.0000000E+00
 -3.4694470E-17  0.0000000E+00
  9.9999998E-03  0.0000000E+00
  2.0000000E-02  0.0000000E+00
  2.9999999E-02  0.0000000E+00
  3.9999999E-02  0.0000000E+00
  5.0000001E-02  0.0000000E+00
  5.9999999E-02  0.0000000E+00
  7.0000000E-02  0.0000000E+00
  7.9999998E-02  0.0000000E+00
  9.0000004E-02  0.0000000E+00
  0.1000000      0.0000000E+00
  0.1100000      0.0000000E+00
  0.1200000      0.0000000E+00
  0.1300000      0.0000000E+00
  0.1400000      0.0000000E+00
  0.1500000      0.0000000E+00
  0.1600000      0.0000000E+00
  0.1700000      0.0000000E+00
  0.1800000      0.0000000E+00
  0.1900000      0.0000000E+00
  0.2000000      0.0000000E+00
  0.2100000      0.0000000E+00
  0.2200000      0.0000000E+00
  0.2300000      0.0000000E+00
  0.2400000      0.0000000E+00
  0.2500000      0.0000000E+00
  0.2600000      0.0000000E+00
  0.2700000      0.0000000E+00
  0.2800000      0.0000000E+00
  0.2900000      0.0000000E+00
  0.3000000      0.0000000E+00
  0.3100000      0.0000000E+00
  0.3200000      0.0000000E+00
  0.3300000      0.0000000E+00
  0.3400000      0.0000000E+00
  0.3500000      0.0000000E+00
  0.3600000      0.0000000E+00
  0.3700000      0.0000000E+00
  0.3800000      0.0000000E+00
  0.3900000      0.0000000E+00
  0.4000000      0.0000000E+00
  0.4100000      0.0000000E+00
  0.4200000      0.0000000E+00
  0.4300000      0.0000000E+00
  0.4400000      0.0000000E+00
  0.4500000      0.0000000E+00
  0.4600000      0.0000000E+00
  0.4700000      0.0000000E+00
  0.4800000      0.0000000E+00
  0.4900000      0.0000000E+00
  0.5000000      0.0000000E+00
  0.5100000      0.0000000E+00
  0.5200000      0.0000000E+00
  0.5300000      0.0000000E+00
  0.5400000      0.0000000E+00
  0.5500000      0.0000000E+00
  0.5600000      0.0000000E+00
  0.5700000      0.0000000E+00
  0.5800000      0.0000000E+00
  0.5900000      0.0000000E+00
  0.6000000      0.0000000E+00
  0.6100000      0.0000000E+00
  0.6200000      0.0000000E+00
  0.6300000      0.0000000E+00
  0.6400000      0.0000000E+00
  0.6500000      0.0000000E+00
  0.6600000      0.0000000E+00
  0.6700000      0.0000000E+00
  0.6800000      0.0000000E+00
  0.6900000      0.0000000E+00
  0.7000000      0.0000000E+00
  0.7100000      0.0000000E+00
  0.7200000      0.0000000E+00
  0.7300000      0.0000000E+00
  0.7400000      0.0000000E+00
  0.7500000      0.0000000E+00
  0.7600000      0.0000000E+00
  0.7700000      0.0000000E+00
  0.7800000      0.0000000E+00
  0.7900000      0.0000000E+00
  0.8000000      0.0000000E+00
  0.8100000      0.0000000E+00
  0.8200000      0.0000000E+00
  0.8300000      0.0000000E+00
  0.8400000      0.0000000E+00
  0.8500000      0.0000000E+00
  0.8600000      0.0000000E+00
  0.8700000      0.0000000E+00
  0.8800000      0.0000000E+00
  0.8900000      0.0000000E+00
  0.9000000      0.0000000E+00
  0.9100000      0.0000000E+00
  0.9200000      0.0000000E+00
  0.9300000      0.0000000E+00
  0.9400000      0.0000000E+00
  0.9500000      0.0000000E+00
  0.9600000      0.0000000E+00
  0.9700000      0.0000000E+00
  0.9800000      0.0000000E+00
  0.9900000      0.0000000E+00
   1.000000      0.0000000E+00
   1.010000      0.0000000E+00
   1.020000      0.0000000E+00
   1.030000      0.0000000E+00
   1.040000      0.0000000E+00
   1.050000      0.0000000E+00
   1.060000      0.0000000E+00
   1.070000      0.0000000E+00
   1.080000      0.0000000E+00
   1.090000      0.0000000E+00
   1.100000      0.0000000E+00
   1.110000      0.0000000E+00
   1.120000      0.0000000E+00
   1.130000      0.0000000E+00
   1.140000      0.0000000E+00
   1.150000      0.0000000E+00
   1.160000      0.0000000E+00
   1.170000      0.0000000E+00
   1.180000      0.0000000E+00
   1.190000      0.0000000E+00
   1.200000      0.0000000E+00
   1.210000      0.0000000E+00
   1.220000      0.0000000E+00
   1.230000      0.0000000E+00
   1.240000      0.0000000E+00
   1.250000      0.0000000E+00
   1.260000      0.0000000E+00
   1.270000      0.0000000E+00
   1.280000      0.0000000E+00
   1.290000      0.0000000E+00
   1.300000      0.0000000E+00
   1.310000      0.0000000E+00
   1.320000      0.0000000E+00
   1.330000      0.0000000E+00
   1.340000      0.0000000E+00
   1.350000      0.0000000E+00
   1.360000      0.0000000E+00
   1.370000      0.0000000E+00
   1.380000      0.0000000E+00
   1.390000      0.0000000E+00
   1.400000      0.0000000E+00
   1.410000      0.0000000E+00
   1.420000      0.0000000E+00
   1.430000      0.0000000E+00
   1.440000      0.0000000E+00
   1.450000      0.0000000E+00
   1.460000      0.0000000E+00
   1.470000      0.0000000E+00
   1.480000      0.0000000E+00
   1.490000      0.0000000E+00
   1.500000      0.0000000E+00
   1.510000      0.0000000E+00
   1.520000      0.0000000E+00
   1.530000      0.0000000E+00
   1.540000      0.0000000E+00
   1.550000      0.0000000E+00
   1.560000      0.0000000E+00
   1.570000      0.0000000E+00
   1.580000      0.0000000E+00
   1.590000      0.0000000E+00
   1.600000      0.0000000E+00
   1.610000      0.0000000E+00
   1.620000      0.0000000E+00
   1.630000      0.0000000E+00
   1.640000      0.0000000E+00
   1.650000      0.0000000E+00
   1.660000      0.0000000E+00
   1.670000      0.0000000E+00
   1.680000      0.0000000E+00
   1.690000      0.0000000E+00
   1.700000      0.0000000E+00
   1.710000      0.0000000E+00
   1.720000      0.0000000E+00
   1.730000      0.0000000E+00
   1.740000      0.0000000E+00
   1.750000      0.0000000E+00
   1.760000      0.0000000E+00
   1.770000      0.0000000E+00
   1.780000      0.0000000E+00
   1.790000      0.0000000E+00
   1.800000      0.0000000E+00
   1.810000      0.0000000E+00
   1.820000      0.0000000E+00
   1.830000      0.0000000E+00
   1.840000      0.0000000E+00
   1.850000      0.0000000E+00
   1.860000      0.0000000E+00
   1.870000      0.0000000E+00
   1.880000      0.0000000E+00
   1.890000      0.0000000E+00
   1.900000      0.0000000E+00
   1.910000      0.0000000E+00
   1.920000      0.0000000E+00
   1.930000      0.0000000E+00
   1.940000      0.0000000E+00
   1.950000      0.0000000E+00
   1.960000      0.0000000E+00
   1.970000      0.0000000E+00
   1.980000      0.0000000E+00
   1.990000      0.0000000E+00
   2.000000      0.0000000E+00
   2.010000      0.0000000E+00
   2.020000      0.0000000E+00
   2.030000      0.0000000E+00
   2.040000      0.0000000E+00
   2.050000      0.0000000E+00
   2.060000      0.0000000E+00
   2.070000      0.0000000E+00
   2.080000      0.0000000E+00
   2.090000      0.0000000E+00
   2.100000      0.0000000E+00
   2.110000      0.0000000E+00
   2.120000      0.0000000E+00
   2.130000      0.0000000E+00
   2.140000      0.0000000E+00
   2.150000      0.0000000E+00
   2.160000      0.0000000E+00
   2.170000      0.0000000E+00
   2.180000      0.0000000E+00
   2.190000      0.0000000E+00
   2.200000      0.0000000E+00
   2.210000      0.0000000E+00
   2.220000      0.0000000E+00
   2.230000      0.0000000E+00
   2.240000      0.0000000E+00
   2.250000      0.0000000E+00
   2.260000      0.0000000E+00
   2.270000      0.0000000E+00
   2.280000      0.0000000E+00
   2.290000      0.0000000E+00
   2.300000      0.0000000E+00
   2.310000      0.0000000E+00
   2.320000      0.0000000E+00
   2.330000      0.0000000E+00
   2.340000      0.0000000E+00
   2.350000      0.0000000E+00
   2.360000      0.0000000E+00
   2.370000      0.0000000E+00
   2.380000      0.0000000E+00
   2.390000      0.0000000E+00
   2.400000      0.0000000E+00
   2.410000      0.0000000E+00
   2.420000      0.0000000E+00
   2.430000      0.0000000E+00
   2.440000      0.0000000E+00
   2.450000      0.0000000E+00
   2.460000      0.0000000E+00
   2.470000      0.0000000E+00
   2.480000      0.0000000E+00
   2.490000      0.0000000E+00
   2.500000      0.0000000E+00
   2.510000      0.0000000E+00
   2.520000      0.0000000E+00
   2.530000      0.0000000E+00
   2.540000      0.0000000E+00
   2.550000      0.0000000E+00
   2.560000      0.0000000E+00
   2.570000      0.0000000E+00
   2.580000      0.0000000E+00
   2.590000      0.0000000E+00
   2.600000      0.0000000E+00
   2.610000      0.0000000E+00
   2.620000      0.0000000E+00
   2.630000      0.0000000E+00
   2.640000      0.0000000E+00
   2.650000      0.0000000E+00
   2.660000      0.0000000E+00
   2.670000      0.0000000E+00
   2.680000      0.0000000E+00
   2.690000      0.0000000E+00
   2.700000      0.0000000E+00
   2.710000      0.0000000E+00
   2.720000      0.0000000E+00
   2.730000      1.2900467E-38
   2.740000      1.4866360E-38
   2.750000      1.6768390E-38
   2.760000      1.8581145E-38
   2.770000      2.0053667E-38
   2.780000      2.1284872E-38
   2.790000      2.2614792E-38
   2.800000      2.4044351E-38
   2.810000      2.5573902E-38
   2.820000      2.6934086E-38
   2.830000      2.8058210E-38
   2.840000      2.9162212E-38
   2.850000      3.0273027E-38
   2.860000      3.1415161E-38
   2.870000      3.2607419E-38
   2.880000      3.3855149E-38
   2.890000      3.5147612E-38
   2.900000      3.6458507E-38
   2.910000      3.6825944E-38
   2.920000      3.5962921E-38
   2.930000      3.4483870E-38
   2.940000      3.3122195E-38
   2.950000      3.1923869E-38
   2.960000      2.9886574E-38
   2.970000      2.6989112E-38
   2.980000      2.3465979E-38
   2.990000      1.8894591E-38
   3.000000      1.3495209E-38
   3.010000      0.0000000E+00
   3.020000      0.0000000E+00
   3.030000      0.0000000E+00
   3.040000     -1.5773172E-38
   3.050000     -2.5120097E-38
   3.060000     -3.5133750E-38
   3.070000     -4.6551132E-38
   3.080000     -5.1208502E-38
   3.090000     -4.7207655E-38
   3.100000     -4.1696463E-38
   3.110000     -3.4740263E-38
   3.120000     -2.6586250E-38
   3.130000     -1.7205744E-38
   3.140000      0.0000000E+00
   3.150000      0.0000000E+00
   3.160000      2.2125672E-38
   3.170000      3.8920092E-38
   3.180000      5.6920138E-38
   3.190000      1.6467841E-38
   3.200000     -8.7372108E-38
   3.210000     -1.9948416E-37
   3.220000     -3.1392321E-37
   3.230000     -4.2108952E-37
   3.240000     -5.1231050E-37
   3.250000     -5.3513113E-37
   3.260000     -4.9773938E-37
   3.270000     -4.5691343E-37
   3.280000     -4.1209717E-37
   3.290000     -3.6466172E-37
   3.300000     -3.1806751E-37
   3.310000     -2.7234471E-37
   3.320000     -2.2655772E-37
   3.330000     -1.8065443E-37
   3.340000     -2.0557775E-37
   3.350000     -3.1021575E-37
   3.360000     -4.3478413E-37
   3.370000     -5.6892875E-37
   3.380000     -6.9520529E-37
   3.390000     -7.5994241E-37
   3.400000     -7.9744447E-37
   3.410000     -8.9097821E-37
   3.420000     -1.0084562E-36
   3.430000     -1.1282339E-36
   3.440000     -1.0911862E-36
   3.450000     -8.7646443E-37
   3.460000     -6.3284477E-37
   3.470000     -3.7840785E-37
   3.480000     -1.3050865E-37
   3.490000      9.3724284E-38
   3.500000      1.7209008E-37
   3.510000      1.9241599E-37
   3.520000      3.1857187E-37
   3.530000      4.5423724E-37
   3.540000      5.4180997E-37
   3.550000      5.8775686E-37
   3.560000      5.8044060E-37
   3.570000      5.3201280E-37
   3.580000      4.7025684E-37
   3.590000      5.9133723E-37
   3.600000      9.2658079E-37
   3.610000      1.3336927E-36
   3.620000      1.8177019E-36
   3.630000      2.2828532E-36
   3.640000      2.5403126E-36
   3.650000      2.6594821E-36
   3.660000      2.7662546E-36
   3.670000      2.9722618E-36
   3.680000      3.2510045E-36
   3.690000      3.5707840E-36
   3.700000      4.1439917E-36
   3.710000      4.9043527E-36
   3.720000      5.7365742E-36
   3.730000      6.6521723E-36
   3.740000      7.5944820E-36
   3.750000      8.4682731E-36
   3.760000      8.6199602E-36
   3.770000      7.8990343E-36
   3.780000      6.9864521E-36
   3.790000      6.0078771E-36
   3.800000      4.9577260E-36
   3.810000      4.0238996E-36
   3.820000      3.3172459E-36
   3.830000      2.5748632E-36
   3.840000      2.3499527E-36
   3.850000      2.9189817E-36
   3.860000      3.5988828E-36
   3.870000      4.3182105E-36
   3.880000      4.7895099E-36
   3.890000      4.1184794E-36
   3.900000      2.5265292E-36
   3.910000      7.9828059E-37
   3.920000     -1.5284069E-36
   3.930000     -4.3427248E-36
   3.940000     -6.6241790E-36
   3.950000     -8.4244216E-36
   3.960000     -1.0373398E-35
   3.970000     -1.2520801E-35
   3.980000     -1.3994181E-35
   3.990000     -1.5015269E-35
   4.000000     -1.6254395E-35
   4.010000     -1.7851895E-35
   4.020000     -1.9962791E-35
   4.030000     -2.1965551E-35
   4.040000     -2.3410842E-35
   4.050000     -2.4537136E-35
   4.060000     -2.5675150E-35
   4.070000     -2.6906314E-35
   4.080000     -2.7921788E-35
   4.090000     -2.7089913E-35
   4.100000     -2.5137298E-35
   4.110000     -2.3497113E-35
   4.120000     -2.1742714E-35
   4.130000     -1.9948647E-35
   4.140000     -1.9071058E-35
   4.150000     -1.9745071E-35
   4.160000     -2.1090538E-35
   4.170000     -2.2824870E-35
   4.180000     -2.5119935E-35
   4.190000     -2.8145886E-35
   4.200000     -3.1050006E-35
   4.210000     -3.2901938E-35
   4.220000     -3.4126415E-35
   4.230000     -3.4564639E-35
   4.240000     -3.2747588E-35
   4.250000     -2.8144893E-35
   4.260000     -2.1831731E-35
   4.270000     -1.4218792E-35
   4.280000     -5.7923618E-36
   4.290000      2.4084137E-36
   4.300000      9.9823362E-36
   4.310000      1.6031232E-35
   4.320000      1.9875147E-35
   4.330000      2.1816062E-35
   4.340000      2.1530648E-35
   4.350000      1.9784521E-35
   4.360000      1.7357422E-35
   4.370000      1.6515895E-35
   4.380000      1.8535085E-35
   4.390000      2.1942575E-35
   4.400000      2.7352775E-35
   4.410000      3.7156076E-35
   4.420000      5.1514829E-35
   4.430000      6.7159402E-35
   4.440000      8.2419838E-35
   4.450000      9.5143945E-35
   4.460000      1.0565770E-34
   4.470000      1.1601159E-34
   4.480000      1.2647884E-34
   4.490000      1.3618149E-34
   4.500000      1.4347662E-34
   4.510000      1.4909471E-34
   4.520000      1.5325379E-34
   4.530000      1.5712515E-34
   4.540000      1.6082122E-34
   4.550000      1.6301455E-34
   4.560000      1.6461126E-34
   4.570000      1.6554954E-34
   4.580000      1.6514976E-34
   4.590000      1.6481139E-34
   4.600000      1.6431233E-34
   4.610000      1.6313617E-34
   4.620000      1.6450230E-34
   4.630000      1.6486244E-34
   4.640000      1.6166374E-34
   4.650000      1.5799062E-34
   4.660000      1.5324862E-34
   4.670000      1.5167026E-34
   4.680000      1.5415822E-34
   4.690000      1.5484663E-34
   4.700000      1.5506278E-34
   4.710000      1.5173739E-34
   4.720000      1.4558956E-34
   4.730000      1.4036137E-34
   4.740000      1.3063114E-34
   4.750000      1.1754545E-34
   4.760000      1.0387961E-34
   4.770000      9.0621787E-35
   4.780000      7.6749685E-35
   4.790000      6.0055628E-35
   4.800000      3.6611239E-35
   4.810000      5.2631655E-36
   4.820000     -3.0314074E-35
   4.830000     -7.1571684E-35
   4.840000     -1.1696573E-34
   4.850000     -1.6394390E-34
   4.860000     -2.1072557E-34
   4.870000     -2.5186243E-34
   4.880000     -2.9013756E-34
   4.890000     -3.2931867E-34
   4.900000     -3.6765220E-34
   4.910000     -4.0536491E-34
   4.920000     -4.3964770E-34
   4.930000     -4.7646666E-34
   4.940000     -5.2021043E-34
   4.950000     -5.6510229E-34
   4.960000     -6.0960356E-34
   4.970000     -6.5157519E-34
   4.980000     -6.8915767E-34
   4.990000     -7.2394050E-34
   5.000000     -7.5785664E-34
   5.010000     -8.0186705E-34
   5.020000     -8.6246994E-34
   5.030000     -9.3383383E-34
   5.040000     -1.0146610E-33
   5.050000     -1.1047644E-33
   5.060000     -1.1989647E-33
   5.070000     -1.2924965E-33
   5.080000     -1.3904047E-33
   5.090000     -1.4847222E-33
   5.100000     -1.5601060E-33
   5.110000     -1.6226726E-33
   5.120000     -1.6669054E-33
   5.130000     -1.6955942E-33
   5.140000     -1.7205013E-33
   5.150000     -1.7354993E-33
   5.160000     -1.7440764E-33
   5.170000     -1.7548333E-33
   5.180000     -1.7706315E-33
   5.190000     -1.7910684E-33
   5.200000     -1.8181131E-33
   5.210000     -1.8525909E-33
   5.220000     -1.8844133E-33
   5.230000     -1.9014049E-33
   5.240000     -1.9077430E-33
   5.250000     -1.9028601E-33
   5.260000     -1.8832072E-33
   5.270000     -1.8449966E-33
   5.280000     -1.7788574E-33
   5.290000     -1.6882764E-33
   5.300000     -1.5781746E-33
   5.310000     -1.4442375E-33
   5.320000     -1.2874532E-33
   5.330000     -1.1107048E-33
   5.340000     -9.1522502E-34
   5.350000     -7.0720794E-34
   5.360000     -4.8906539E-34
   5.370000     -2.5910924E-34
   5.380000     -3.3520062E-35
   5.390000      1.8072815E-34
   5.400000      4.0335569E-34
   5.410000      6.4345564E-34
   5.420000      9.0501843E-34
   5.430000      1.1976444E-33
   5.440000      1.5290380E-33
   5.450000      1.9010387E-33
   5.460000      2.3147341E-33
   5.470000      2.7712349E-33
   5.480000      3.2683827E-33
   5.490000      3.7986993E-33
   5.500000      4.3577971E-33
   5.510000      4.9417929E-33
   5.520000      5.5392111E-33
   5.530000      6.1448273E-33
   5.540000      6.7572389E-33
   5.550000      7.3716140E-33
   5.560000      7.9900658E-33
   5.570000      8.6172618E-33
   5.580000      9.2539265E-33
   5.590000      9.9034481E-33
   5.600000      1.0568336E-32
   5.610000      1.1251798E-32
   5.620000      1.1956397E-32
   5.630000      1.2682638E-32
   5.640000      1.3428135E-32
   5.650000      1.4188220E-32
   5.660000      1.4954577E-32
   5.670000      1.5720571E-32
   5.680000      1.6480357E-32
   5.690000      1.7223267E-32
   5.700000      1.7940498E-32
   5.710000      1.8623774E-32
   5.720000      1.9265919E-32
   5.730000      1.9862792E-32
   5.740000      2.0411476E-32
   5.750000      2.0907271E-32
   5.760000      2.1348977E-32
   5.770000      2.1737890E-32
   5.780000      2.2073861E-32
   5.790000      2.2355628E-32
   5.800000      2.2580353E-32
   5.810000      2.2743058E-32
   5.820000      2.2833465E-32
   5.830000      2.2851393E-32
   5.840000      2.2778699E-32
   5.850000      2.2597357E-32
   5.860000      2.2303620E-32
   5.870000      2.1879973E-32
   5.880000      2.1312477E-32
   5.890000      2.0588750E-32
   5.900000      1.9696924E-32
   5.910000      1.8627775E-32
   5.920000      1.7376614E-32
   5.930000      1.5939038E-32
   5.940000      1.4312619E-32
   5.950000      1.2495540E-32
   5.960000      1.0486546E-32
   5.970000      8.2827198E-33
   5.980000      5.8785822E-33
   5.990000      3.2730990E-33
   6.000000      4.5509016E-34
   6.010000     -2.5857072E-33
   6.020000     -5.8554217E-33
   6.030000     -9.3678936E-33
   6.040000     -1.3134430E-32
   6.050000     -1.7165741E-32
   6.060000     -2.1470623E-32
   6.070000     -2.6055223E-32
   6.080000     -3.0922695E-32
   6.090000     -3.6073923E-32
   6.100000     -4.1504428E-32
   6.110000     -4.7206622E-32
   6.120000     -5.3171571E-32
   6.130000     -5.9392164E-32
   6.140000     -6.5859428E-32
   6.150000     -7.2559928E-32
   6.160000     -7.9482920E-32
   6.170000     -8.6618023E-32
   6.180000     -9.3954983E-32
   6.190000     -1.0148475E-31
   6.200000     -1.0919783E-31
   6.210000     -1.1708307E-31
   6.220000     -1.2512808E-31
   6.230000     -1.3331746E-31
   6.240000     -1.4163227E-31
   6.250000     -1.5004970E-31
   6.260000     -1.5854237E-31
   6.270000     -1.6707721E-31
   6.280000     -1.7561846E-31
   6.290000     -1.8412657E-31
   6.300000     -1.9255671E-31
   6.310000     -2.0086222E-31
   6.320000     -2.0899438E-31
   6.330000     -2.1690332E-31
   6.340000     -2.2453853E-31
   6.350000     -2.3184943E-31
   6.360000     -2.3878482E-31
   6.370000     -2.4529259E-31
   6.380000     -2.5131949E-31
   6.390000     -2.5681027E-31
   6.400000     -2.6170710E-31
   6.410000     -2.6594864E-31
   6.420000     -2.6946955E-31
   6.430000     -2.7220008E-31
   6.440000     -2.7406587E-31
   6.450000     -2.7498828E-31
   6.460000     -2.7488472E-31
   6.470000     -2.7366961E-31
   6.480000     -2.7125517E-31
   6.490000     -2.6755253E-31
   6.500000     -2.6247280E-31
   6.510000     -2.5592795E-31
   6.520000     -2.4783145E-31
   6.530000     -2.3809876E-31
   6.540000     -2.2664754E-31
   6.550000     -2.1339758E-31
   6.560000     -1.9827047E-31
   6.570000     -1.8118929E-31
   6.580000     -1.6207803E-31
   6.590000     -1.4086127E-31
   6.600000     -1.1746411E-31
   6.610000     -9.1812074E-32
   6.620000     -6.3831265E-32
   6.630000     -3.3450199E-32
   6.640000     -5.9996566E-34
   6.650000      3.4785261E-32
   6.660000      7.2765739E-32
   6.670000      1.1339505E-31
   6.680000      1.5671859E-31
   6.690000      2.0277247E-31
   6.700000      2.5158262E-31
   6.710000      3.0316380E-31
   6.720000      3.5751927E-31
   6.730000      4.1464054E-31
   6.740000      4.7450757E-31
   6.750000      5.3708868E-31
   6.760000      6.0234075E-31
   6.770000      6.7020900E-31
   6.780000      7.4062727E-31
   6.790000      8.1351723E-31
   6.800000      8.8878752E-31
   6.810000      9.6633262E-31
   6.820000      1.0460320E-30
   6.830000      1.1277479E-30
   6.840000      1.2113243E-30
   6.850000      1.2965846E-30
   6.860000      1.3833312E-30
   6.870000      1.4713438E-30
   6.880000      1.5603788E-30
   6.890000      1.6501684E-30
   6.900000      1.7404215E-30
   6.910000      1.8308227E-30
   6.920000      1.9210331E-30
   6.930000      2.0106917E-30
   6.940000      2.0994150E-30
   6.950000      2.1867975E-30
   6.960000      2.2724121E-30
   6.970000      2.3558105E-30
   6.980000      2.4365229E-30
   6.990000      2.5140578E-30
   7.000000      2.5879008E-30
   7.010000      2.6575144E-30
   7.020000      2.7223377E-30
   7.030000      2.7817856E-30
   7.040000      2.8352493E-30
   7.050000      2.8820953E-30
   7.060000      2.9216681E-30