  -2.600000      0.0000000E+00
  -2.590000      0.0000000E+00
  -2.580000      0.0000000E+00
  -2.570000      0.0000000E+00
  -2.560000      0.0000000E+00
  -2.550000      0.0000000E+00
  -2.540000      0.0000000E+00
  -2.530000      0.0000000E+00
  -2.520000      0.0000000E+00
  -2.510000      0.0000000E+00
  -2.500000      0.0000000E+00
  -2.490000      0.0000000E+00
  -2.480000      0.0000000E+00
  -2.470000      0.0000000E+00
  -2.460000      0.0000000E+00
  -2.450000      0.0000000E+00
  -2.440000      0.0000000E+00
  -2.430000      0.0000000E+00
  -2.420000      0.0000000E+00
  -2.410000      0.0000000E+00
  -2.400000      0.0000000E+00
  -2.390000      0.0000000E+00
  -2.380000      0.0000000E+00
  -2.370000      0.0000000E+00
  -2.360000      0.0000000E+00
  -2.350000      0.0000000E+00
  -2.340000      0.0000000E+00
  -2.330000      0.0000000E+00
  -2.320000      0.0000000E+00
  -2.310000      0.0000000E+00
  -2.300000      0.0000000E+00
  -2.290000      0.0000000E+00
  -2.280000      0.0000000E+00
  -2.270000      0.0000000E+00
  -2.260000      0.0000000E+00
  -2.250000      0.0000000E+00
  -2.240000      0.0000000E+00
  -2.230000      0.0000000E+00
  -2.220000      0.0000000E+00
  -2.210000      0.0000000E+00
  -2.200000      0.0000000E+00
  -2.190000      0.0000000E+00
  -2.180000      0.0000000E+00
  -2.170000      0.0000000E+00
  -2.160000      0.0000000E+00
  -2.150000      0.0000000E+00
  -2.140000      0.0000000E+00
  -2.130000      0.0000000E+00
  -2.120000      0.0000000E+00
  -2.110000      0.0000000E+00
  -2.100000      0.0000000E+00
  -2.090000      0.0000000E+00
  -2.080000      0.0000000E+00
  -2.070000      0.0000000E+00
  -2.060000      0.0000000E+00
  -2.050000      0.0000000E+00
  -2.040000      0.0000000E+00
  -2.030000      0.0000000E+00
  -2.020000      0.0000000E+00
  -2.010000      0.0000000E+00
  -2.000000      0.0000000E+00
  -1.990000      0.0000000E+00
  -1.980000      0.0000000E+00
  -1.970000      0.0000000E+00
  -1.960000      0.0000000E+00
  -1.950000      0.0000000E+00
  -1.940000      0.0000000E+00
  -1.930000      0.0000000E+00
  -1.920000      0.0000000E+00
  -1.910000      0.0000000E+00
  -1.900000      0.0000000E+00
  -1.890000      0.0000000E+00
  -1.880000      0.0000000E+00
  -1.870000      0.0000000E+00
  -1.860000      0.0000000E+00
  -1.850000      0.0000000E+00
  -1.840000      0.0000000E+00
  -1.830000      0.0000000E+00
  -1.820000      0.0000000E+00
  -1.810000      0.0000000E+00
  -1.800000      0.0000000E+00
  -1.790000      0.0000000E+00
  -1.780000      0.0000000E+00
  -1.770000      0.0000000E+00
  -1.760000      0.0000000E+00
  -1.750000      0.0000000E+00
  -1.740000      0.0000000E+00
  -1.730000      0.0000000E+00
  -1.720000      0.0000000E+00
  -1.710000      0.0000000E+00
  -1.700000      0.0000000E+00
  -1.690000      0.0000000E+00
  -1.680000      0.0000000E+00
  -1.670000      0.0000000E+00
  -1.660000      0.0000000E+00
  -1.650000      0.0000000E+00
  -1.640000      0.0000000E+00
  -1.630000      0.0000000E+00
  -1.620000      0.0000000E+00
  -1.610000      0.0000000E+00
  -1.600000      0.0000000E+00
  -1.590000      0.0000000E+00
  -1.580000      0.0000000E+00
  -1.570000      0.0000000E+00
  -1.560000      0.0000000E+00
  -1.550000      0.0000000E+00
  -1.540000      0.0000000E+00
  -1.530000      0.0000000E+00
  -1.520000      0.0000000E+00
  -1.510000      0.0000000E+00
  -1.500000      0.0000000E+00
  -1.490000      0.0000000E+00
  -1.480000      0.0000000E+00
  -1.470000      0.0000000E+00
  -1.460000      0.0000000E+00
  -1.450000      0.0000000E+00
  -1.440000      0.0000000E+00
  -1.430000      0.0000000E+00
  -1.420000      0.0000000E+00
  -1.410000      0.0000000E+00
  -1.400000      0.0000000E+00
  -1.390000      0.0000000E+00
  -1.380000      0.0000000E+00
  -1.370000      0.0000000E+00
  -1.360000      0.0000000E+00
  -1.350000      0.0000000E+00
  -1.340000      0.0000000E+00
  -1.330000      0.0000000E+00
  -1.320000      0.0000000E+00
  -1.310000      0.0000000E+00
  -1.300000      0.0000000E+00
  -1.290000      0.0000000E+00
  -1.280000      0.0000000E+00
  -1.270000      0.0000000E+00
  -1.260000      0.0000000E+00
  -1.250000      0.0000000E+00
  -1.240000      0.0000000E+00
  -1.230000      0.0000000E+00
  -1.220000      0.0000000E+00
  -1.210000      0.0000000E+00
  -1.200000      0.0000000E+00
  -1.190000      0.0000000E+00
  -1.180000      0.0000000E+00
  -1.170000      0.0000000E+00
  -1.160000      0.0000000E+00
  -1.150000      0.0000000E+00
  -1.140000      0.0000000E+00
  -1.130000      0.0000000E+00
  -1.120000      0.0000000E+00
  -1.110000      0.0000000E+00
  -1.100000      0.0000000E+00
  -1.090000      0.0000000E+00
  -1.080000      0.0000000E+00
  -1.070000      0.0000000E+00
  -1.060000      0.0000000E+00
  -1.050000      0.0000000E+00
  -1.040000      0.0000000E+00
  -1.030000      0.0000000E+00
  -1.020000      0.0000000E+00
  -1.010000      0.0000000E+00
  -1.000000      0.0000000E+00
 -0.9900000      0.0000000E+00
 -0.9800000      0.0000000E+00
 -0.9700000      0.0000000E+00
 -0.9600000      0.0000000E+00
 -0.9500000      0.0000000E+00
 -0.9400000      0.0000000E+00
 -0.9300000      0.0000000E+00
 -0.9200000      0.0000000E+00
 -0.9100000      0.0000000E+00
 -0.9000000      0.0000000E+00
 -0.8900000      0.0000000E+00
 -0.8800000      0.0000000E+00
 -0.8700000      0.0000000E+00
 -0.8600000      0.0000000E+00
 -0.8500000      0.0000000E+00
 -0.8400000      0.0000000E+00
 -0.8300000      0.0000000E+00
 -0.8200000      0.0000000E+00
 -0.8100000      0.0000000E+00
 -0.8000000      0.0000000E+00
 -0.7900000      0.0000000E+00
 -0.7800000      0.0000000E+00
 -0.7700000      0.0000000E+00
 -0.7600000      0.0000000E+00
 -0.7500000      0.0000000E+00
 -0.7400000      0.0000000E+00
 -0.7300000      0.0000000E+00
 -0.7200000      0.0000000E+00
 -0.7100000      0.0000000E+00
 -0.7000000      0.0000000E+00
 -0.6900000      0.0000000E+00
 -0.6800000      0.0000000E+00
 -0.6700000      0.0000000E+00
 -0.6600000      0.0000000E+00
 -0.6500000      0.0000000E+00
 -0.6400000      0.0000000E+00
 -0.6300000      0.0000000E+00
 -0.6200000      0.0000000E+00
 -0.6100000      0.0000000E+00
 -0.6000000      0.0000000E+00
 -0.5900000      0.0000000E+00
 -0.5800000      0.0000000E+00
 -0.5700000      0.0000000E+00
 -0.5600000      0.0000000E+00
 -0.5500000      0.0000000E+00
 -0.5400000      0.0000000E+00
 -0.5300000      0.0000000E+00
 -0.5200000      0.0000000E+00
 -0.5100000      0.0000000E+00
 -0.5000000      0.0000000E+00
 -0.4900000      0.0000000E+00
 -0.4800000      0.0000000E+00
 -0.4700000      0.0000000E+00
 -0.4600000      0.0000000E+00
 -0.4500000      0.0000000E+00
 -0.4400000      0.0000000E+00
 -0.4300000      0.0000000E+00
 -0.4200000      0.0000000E+00
 -0.4100000      0.0000000E+00
 -0.4000000      0.0000000E+00
 -0.3900000      0.0000000E+00
 -0.3800000      0.0000000E+00
 -0.3700000      0.0000000E+00
 -0.3600000      0.0000000E+00
 -0.3500000      0.0000000E+00
 -0.3400000      0.0000000E+00
 -0.3300000      0.0000000E+00
 -0.3200000      0.0000000E+00
 -0.3100000      0.0000000E+00
 -0.3000000      0.0000000E+00
 -0.2900000      0.0000000E+00
 -0.2800000      0.0000000E+00
 -0.2700000      0.0000000E+00
 -0.2600000      0.0000000E+00
 -0.2500000      0.0000000E+00
 -0.2400000      0.0000000E+00
 -0.2300000      0.0000000E+00
 -0.2200000      0.0000000E+00
 -0.2100000      0.0000000E+00
 -0.2000000      0.0000000E+00
 -0.1900000      0.0000000E+00
 -0.1800000      0.0000000E+00
 -0.1700000      0.0000000E+00
 -0.1600000      0.0000000E+00
 -0.1500000      0.0000000E+00
 -0.1400000      0.0000000E+00
 -0.1300000      0.0000000E+00
 -0.1200000      0.0000000E+00
 -0.1100000      0.0000000E+00
 -0.1000000      0.0000000E+00
 -9.0000004E-02  0.0000000E+00
 -7.9999998E-02  0.0000000E+00
 -7.0000000E-02  0.0000000E+00
 -5.9999999E-02  0.0000000E+00
 -5.0000001E-02  0.0000000E+00
 -3.9999999E-02  0.0000000E+00
 -2.9999999E-02  0.0000000E+00
 -2.0000000E-02  0.0000000E+00
 -9.9999998E-03  0.0000000E+00
 -3.4694470E-17  0.0000000E+00
  9.9999998E-03  0.0000000E+00
  2.0000000E-02  0.0000000E+00
  2.9999999E-02  0.0000000E+00
  3.9999999E-02  0.0000000E+00
  5.0000001E-02  0.0000000E+00
  5.9999999E-02  0.0000000E+00
  7.0000000E-02  0.0000000E+00
  7.9999998E-02  0.0000000E+00
  9.0000004E-02  0.0000000E+00
  0.1000000      0.0000000E+00
  0.1100000      0.0000000E+00
  0.1200000      0.0000000E+00
  0.1300000      0.0000000E+00
  0.1400000      0.0000000E+00
  0.1500000      0.0000000E+00
  0.1600000      0.0000000E+00
  0.1700000      0.0000000E+00
  0.1800000      0.0000000E+00
  0.1900000      0.0000000E+00
  0.2000000      0.0000000E+00
  0.2100000      0.0000000E+00
  0.2200000      0.0000000E+00
  0.2300000      0.0000000E+00
  0.2400000      0.0000000E+00
  0.2500000      0.0000000E+00
  0.2600000      0.0000000E+00
  0.2700000      0.0000000E+00
  0.2800000      0.0000000E+00
  0.2900000      0.0000000E+00
  0.3000000      0.0000000E+00
  0.3100000      0.0000000E+00
  0.3200000      0.0000000E+00
  0.3300000      0.0000000E+00
  0.3400000      0.0000000E+00
  0.3500000      0.0000000E+00
  0.3600000      0.0000000E+00
  0.3700000      0.0000000E+00
  0.3800000      0.0000000E+00
  0.3900000      0.0000000E+00
  0.4000000      0.0000000E+00
  0.4100000      0.0000000E+00
  0.4200000      0.0000000E+00
  0.4300000      0.0000000E+00
  0.4400000      0.0000000E+00
  0.4500000      0.0000000E+00
  0.4600000      0.0000000E+00
  0.4700000      0.0000000E+00
  0.4800000      0.0000000E+00
  0.4900000      0.0000000E+00
  0.5000000      0.0000000E+00
  0.5100000      0.0000000E+00
  0.5200000      0.0000000E+00
  0.5300000      0.0000000E+00
  0.5400000      0.0000000E+00
  0.5500000      0.0000000E+00
  0.5600000      0.0000000E+00
  0.5700000      0.0000000E+00
  0.5800000      0.0000000E+00
  0.5900000      0.0000000E+00
  0.6000000      0.0000000E+00
  0.6100000      0.0000000E+00
  0.6200000      0.0000000E+00
  0.6300000      0.0000000E+00
  0.6400000      0.0000000E+00
  0.6500000      0.0000000E+00
  0.6600000      0.0000000E+00
  0.6700000      0.0000000E+00
  0.6800000      0.0000000E+00
  0.6900000      0.0000000E+00
  0.7000000      0.0000000E+00
  0.7100000      0.0000000E+00
  0.7200000      0.0000000E+00
  0.7300000      0.0000000E+00
  0.7400000      0.0000000E+00
  0.7500000      0.0000000E+00
  0.7600000      0.0000000E+00
  0.7700000      0.0000000E+00
  0.7800000      0.0000000E+00
  0.7900000      0.0000000E+00
  0.8000000      0.0000000E+00
  0.8100000      0.0000000E+00
  0.8200000      0.0000000E+00
  0.8300000      0.0000000E+00
  0.8400000      0.0000000E+00
  0.8500000      0.0000000E+00
  0.8600000      0.0000000E+00
  0.8700000      0.0000000E+00
  0.8800000      0.0000000E+00
  0.8900000      0.0000000E+00
  0.9000000      0.0000000E+00
  0.9100000      0.0000000E+00
  0.9200000      0.0000000E+00
  0.9300000      0.0000000E+00
  0.9400000      0.0000000E+00
  0.9500000      0.0000000E+00
  0.9600000      0.0000000E+00
  0.9700000      0.0000000E+00
  0.9800000      0.0000000E+00
  0.9900000      0.0000000E+00
   1.000000      0.0000000E+00
   1.010000      0.0000000E+00
   1.020000      0.0000000E+00
   1.030000      0.0000000E+00
   1.040000      0.0000000E+00
   1.050000      0.0000000E+00
   1.060000      0.0000000E+00
   1.070000      0.0000000E+00
   1.080000      0.0000000E+00
   1.090000      0.0000000E+00
   1.100000      0.0000000E+00
   1.110000      0.0000000E+00
   1.120000      0.0000000E+00
   1.130000      0.0000000E+00
   1.140000      0.0000000E+00
   1.150000      0.0000000E+00
   1.160000      0.0000000E+00
   1.170000      0.0000000E+00
   1.180000      0.0000000E+00
   1.190000      0.0000000E+00
   1.200000      0.0000000E+00
   1.210000      0.0000000E+00
   1.220000      0.0000000E+00
   1.230000      0.0000000E+00
   1.240000      0.0000000E+00
   1.250000      0.0000000E+00
   1.260000      0.0000000E+00
   1.270000      0.0000000E+00
   1.280000      0.0000000E+00
   1.290000      0.0000000E+00
   1.300000      0.0000000E+00
   1.310000      0.0000000E+00
   1.320000      0.0000000E+00
   1.330000      0.0000000E+00
   1.340000      0.0000000E+00
   1.350000      0.0000000E+00
   1.360000      0.0000000E+00
   1.370000      0.0000000E+00
   1.380000      0.0000000E+00
   1.390000      0.0000000E+00
   1.400000      0.0000000E+00
   1.410000      0.0000000E+00
   1.420000      0.0000000E+00
   1.430000      0.0000000E+00
   1.440000      0.0000000E+00
   1.450000      0.0000000E+00
   1.460000      0.0000000E+00
   1.470000      0.0000000E+00
   1.480000      0.0000000E+00
   1.490000      0.0000000E+00
   1.500000      0.0000000E+00
   1.510000      0.0000000E+00
   1.520000      0.0000000E+00
   1.530000      0.0000000E+00
   1.540000      0.0000000E+00
   1.550000      0.0000000E+00
   1.560000      0.0000000E+00
   1.570000      0.0000000E+00
   1.580000      0.0000000E+00
   1.590000      0.0000000E+00
   1.600000      0.0000000E+00
   1.610000      0.0000000E+00
   1.620000      0.0000000E+00
   1.630000      0.0000000E+00
   1.640000      0.0000000E+00
   1.650000      0.0000000E+00
   1.660000      0.0000000E+00
   1.670000      0.0000000E+00
   1.680000      0.0000000E+00
   1.690000      0.0000000E+00
   1.700000      0.0000000E+00
   1.710000      0.0000000E+00
   1.720000      0.0000000E+00
   1.730000      0.0000000E+00
   1.740000      0.0000000E+00
   1.750000      0.0000000E+00
   1.760000      0.0000000E+00
   1.770000      0.0000000E+00
   1.780000      0.0000000E+00
   1.790000      0.0000000E+00
   1.800000      0.0000000E+00
   1.810000      0.0000000E+00
   1.820000      0.0000000E+00
   1.830000      0.0000000E+00
   1.840000      0.0000000E+00
   1.850000      0.0000000E+00
   1.860000      0.0000000E+00
   1.870000      0.0000000E+00
   1.880000      0.0000000E+00
   1.890000      0.0000000E+00
   1.900000      0.0000000E+00
   1.910000      0.0000000E+00
   1.920000      0.0000000E+00
   1.930000      0.0000000E+00
   1.940000      0.0000000E+00
   1.950000      0.0000000E+00
   1.960000      0.0000000E+00
   1.970000      0.0000000E+00
   1.980000      0.0000000E+00
   1.990000      0.0000000E+00
   2.000000      0.0000000E+00
   2.010000      0.0000000E+00
   2.020000      0.0000000E+00
   2.030000      0.0000000E+00
   2.040000      0.0000000E+00
   2.050000      0.0000000E+00
   2.060000      0.0000000E+00
   2.070000      0.0000000E+00
   2.080000      0.0000000E+00
   2.090000      0.0000000E+00
   2.100000      0.0000000E+00
   2.110000      0.0000000E+00
   2.120000      0.0000000E+00
   2.130000      0.0000000E+00
   2.140000      0.0000000E+00
   2.150000      0.0000000E+00
   2.160000      0.0000000E+00
   2.170000      0.0000000E+00
   2.180000      0.0000000E+00
   2.190000      0.0000000E+00
   2.200000      0.0000000E+00
   2.210000      0.0000000E+00
   2.220000      0.0000000E+00
   2.230000      0.0000000E+00
   2.240000      0.0000000E+00
   2.250000      0.0000000E+00
   2.260000      0.0000000E+00
   2.270000      0.0000000E+00
   2.280000      0.0000000E+00
   2.290000      0.0000000E+00
   2.300000      0.0000000E+00
   2.310000      0.0000000E+00
   2.320000      0.0000000E+00
   2.330000      0.0000000E+00
   2.340000      0.0000000E+00
   2.350000      0.0000000E+00
   2.360000      0.0000000E+00
   2.370000      0.0000000E+00
   2.380000      0.0000000E+00
   2.390000      0.0000000E+00
   2.400000      0.0000000E+00
   2.410000      0.0000000E+00
   2.420000      0.0000000E+00
   2.430000      0.0000000E+00
   2.440000      0.0000000E+00
   2.450000      0.0000000E+00
   2.460000      0.0000000E+00
   2.470000      0.0000000E+00
   2.480000      0.0000000E+00
   2.490000      0.0000000E+00
   2.500000      0.0000000E+00
   2.510000      0.0000000E+00
   2.520000      0.0000000E+00
   2.530000      0.0000000E+00
   2.540000      0.0000000E+00
   2.550000      0.0000000E+00
   2.560000      0.0000000E+00
   2.570000      0.0000000E+00
   2.580000      0.0000000E+00
   2.590000      0.0000000E+00
   2.600000      0.0000000E+00
   2.610000      0.0000000E+00
   2.620000      0.0000000E+00
   2.630000      0.0000000E+00
   2.640000      0.0000000E+00
   2.650000      0.0000000E+00
   2.660000      0.0000000E+00
   2.670000      0.0000000E+00
   2.680000      0.0000000E+00
   2.690000      0.0000000E+00
   2.700000      0.0000000E+00
   2.710000      0.0000000E+00
   2.720000      0.0000000E+00
   2.730000      0.0000000E+00
   2.740000      0.0000000E+00
   2.750000      0.0000000E+00
   2.760000      0.0000000E+00
   2.770000      0.0000000E+00
   2.780000      0.0000000E+00
   2.790000      0.0000000E+00
   2.800000      0.0000000E+00
   2.810000      0.0000000E+00
   2.820000      0.0000000E+00
   2.830000      0.0000000E+00
   2.840000      0.0000000E+00
   2.850000      0.0000000E+00
   2.860000      0.0000000E+00
   2.870000      0.0000000E+00
   2.880000      0.0000000E+00
   2.890000      0.0000000E+00
   2.900000      0.0000000E+00
   2.910000      0.0000000E+00
   2.920000      0.0000000E+00
   2.930000      0.0000000E+00
   2.940000      0.0000000E+00
   2.950000      0.0000000E+00
   2.960000      0.0000000E+00
   2.970000      0.0000000E+00
   2.980000      0.0000000E+00
   2.990000      0.0000000E+00
   3.000000      0.0000000E+00
   3.010000      0.0000000E+00
   3.020000      0.0000000E+00
   3.030000      0.0000000E+00
   3.040000      0.0000000E+00
   3.050000      0.0000000E+00
   3.060000      0.0000000E+00
   3.070000      0.0000000E+00
   3.080000      0.0000000E+00
   3.090000      0.0000000E+00
   3.100000      0.0000000E+00
   3.110000      0.0000000E+00
   3.120000      0.0000000E+00
   3.130000      0.0000000E+00
   3.140000      0.0000000E+00
   3.150000      0.0000000E+00
   3.160000      0.0000000E+00
   3.170000      0.0000000E+00
   3.180000      0.0000000E+00
   3.190000      0.0000000E+00
   3.200000      0.0000000E+00
   3.210000      0.0000000E+00
   3.220000      0.0000000E+00
   3.230000      0.0000000E+00
   3.240000      0.0000000E+00
   3.250000      0.0000000E+00
   3.260000      0.0000000E+00
   3.270000      0.0000000E+00
   3.280000      0.0000000E+00
   3.290000      0.0000000E+00
   3.300000      0.0000000E+00
   3.310000      0.0000000E+00
   3.320000      1.3127605E-38
   3.330000      1.5658807E-38
   3.340000      1.8044044E-38
   3.350000      2.0264473E-38
   3.360000      2.2314041E-38
   3.370000      2.4319944E-38
   3.380000      2.6349991E-38
   3.390000      2.8358298E-38
   3.400000      3.0154875E-38
   3.410000      3.1820803E-38
   3.420000      3.3929155E-38
   3.430000      3.6480345E-38
   3.440000      3.9126798E-38
   3.450000      4.1899996E-38
   3.460000      4.4453024E-38
   3.470000      4.6931447E-38
   3.480000      4.9556449E-38
   3.490000      5.1751847E-38
   3.500000      5.2836418E-38
   3.510000      5.3437609E-38
   3.520000      5.4371524E-38
   3.530000      5.5686766E-38
   3.540000      5.6903782E-38
   3.550000      5.7646896E-38
   3.560000      5.8378559E-38
   3.570000      5.8866435E-38
   3.580000      5.9492479E-38
   3.590000      6.0590957E-38
   3.600000      6.1322553E-38
   3.610000      6.1203538E-38
   3.620000      6.0209709E-38
   3.630000      5.8245744E-38
   3.640000      5.5653269E-38
   3.650000      5.2292490E-38
   3.660000      4.6128240E-38
   3.670000      3.7289855E-38
   3.680000      2.6677657E-38
   3.690000      1.3591512E-38
   3.700000      0.0000000E+00
   3.710000     -1.6390073E-38
   3.720000     -3.2972432E-38
   3.730000     -5.2220581E-38
   3.740000     -7.2013115E-38
   3.750000     -9.2851875E-38
   3.760000     -1.1478942E-37
   3.770000     -1.3650604E-37
   3.780000     -1.5947361E-37
   3.790000     -1.8542392E-37
   3.800000     -2.1359219E-37
   3.810000     -2.4288955E-37
   3.820000     -2.8300841E-37
   3.830000     -3.3528478E-37
   3.840000     -3.8923251E-37
   3.850000     -4.4673991E-37
   3.860000     -5.1347957E-37
   3.870000     -5.8664694E-37
   3.880000     -6.6147417E-37
   3.890000     -7.3609782E-37
   3.900000     -7.9316013E-37
   3.910000     -8.3278257E-37
   3.920000     -8.6805494E-37
   3.930000     -8.9557205E-37
   3.940000     -9.1492467E-37
   3.950000     -9.2493994E-37
   3.960000     -9.2294252E-37
   3.970000     -9.0859717E-37
   3.980000     -8.8457313E-37
   3.990000     -8.5082278E-37
   4.000000     -8.0462477E-37
   4.010000     -7.4905093E-37
   4.020000     -6.8002647E-37
   4.030000     -5.9963198E-37
   4.040000     -5.2351506E-37
   4.050000     -4.5097139E-37
   4.060000     -3.7023220E-37
   4.070000     -2.8308428E-37
   4.080000     -1.9733509E-37
   4.090000     -1.1575935E-37
   4.100000      1.3668681E-38
   4.110000      1.9427770E-37
   4.120000      3.8534412E-37
   4.130000      5.9547544E-37
   4.140000      8.2242310E-37
   4.150000      1.0623911E-36
   4.160000      1.3124166E-36
   4.170000      1.5694571E-36
   4.180000      1.8301727E-36
   4.190000      2.1011174E-36
   4.200000      2.4333311E-36
   4.210000      2.8198570E-36
   4.220000      3.1468251E-36
   4.230000      3.4036699E-36
   4.240000      3.6038365E-36
   4.250000      3.7251691E-36
   4.260000      3.8042485E-36
   4.270000      3.8572924E-36
   4.280000      3.8712224E-36
   4.290000      3.8527240E-36
   4.300000      3.8346363E-36
   4.310000      3.8160127E-36
   4.320000      3.7554089E-36
   4.330000      3.6794982E-36
   4.340000      3.6308713E-36
   4.350000      3.6076014E-36
   4.360000      3.6441171E-36
   4.370000      3.6776712E-36
   4.380000      3.6363337E-36
   4.390000      3.4887028E-36
   4.400000      3.2550528E-36
   4.410000      2.9725383E-36
   4.420000      2.5929064E-36
   4.430000      2.1047781E-36
   4.440000      1.5856658E-36
   4.450000      1.0887270E-36
   4.460000      5.3561313E-37
   4.470000     -8.7440480E-38
   4.480000     -7.5221334E-37
   4.490000     -1.4691480E-36
   4.500000     -2.2288696E-36
   4.510000     -3.0601646E-36
   4.520000     -3.9774933E-36
   4.530000     -4.9528081E-36
   4.540000     -5.9845695E-36
   4.550000     -7.0756968E-36
   4.560000     -8.1591139E-36
   4.570000     -9.2361427E-36
   4.580000     -1.0451928E-35
   4.590000     -1.1799751E-35
   4.600000     -1.3268334E-35
   4.610000     -1.4876211E-35
   4.620000     -1.6557445E-35
   4.630000     -1.8279619E-35
   4.640000     -1.9986442E-35
   4.650000     -2.1681221E-35
   4.660000     -2.3391263E-35
   4.670000     -2.5005813E-35
   4.680000     -2.6450623E-35
   4.690000     -2.7771002E-35
   4.700000     -2.8759023E-35
   4.710000     -2.9120143E-35
   4.720000     -2.8963724E-35
   4.730000     -2.8540779E-35
   4.740000     -2.8250237E-35
   4.750000     -2.7979463E-35
   4.760000     -2.7322461E-35
   4.770000     -2.6486396E-35
   4.780000     -2.6015768E-35
   4.790000     -2.5415462E-35
   4.800000     -2.4139511E-35
   4.810000     -2.2629538E-35
   4.820000     -2.0912822E-35
   4.830000     -1.9018529E-35
   4.840000     -1.6926779E-35
   4.850000     -1.4561746E-35
   4.860000     -1.1687157E-35
   4.870000     -8.2058151E-36
   4.880000     -4.8219164E-36
   4.890000     -1.5928469E-36
   4.900000      1.4606388E-36
   4.910000      4.0729093E-36
   4.920000      7.3383700E-36
   4.930000      1.1350390E-35
   4.940000      1.7468429E-35
   4.950000      2.7808781E-35
   4.960000      4.1089132E-35
   4.970000      5.6221168E-35
   4.980000      7.3452854E-35
   4.990000      9.4075037E-35
   5.000000      1.1709484E-34
   5.010000      1.4140965E-34
   5.020000      1.6626593E-34
   5.030000      1.9109672E-34
   5.040000      2.1582905E-34
   5.050000      2.3697583E-34
   5.060000      2.5410902E-34
   5.070000      2.6619841E-34
   5.080000      2.7324284E-34
   5.090000      2.7844022E-34
   5.100000      2.8190276E-34
   5.110000      2.8319698E-34
   5.120000      2.8422423E-34
   5.130000      2.8691046E-34
   5.140000      2.8970662E-34
   5.150000      2.9184678E-34
   5.160000      2.9194050E-34
   5.170000      2.9228819E-34
   5.180000      2.9766876E-34
   5.190000      3.0465482E-34
   5.200000      3.0693494E-34
   5.210000      3.0504586E-34
   5.220000      3.0317434E-34
   5.230000      3.0120144E-34
   5.240000      2.9704501E-34
   5.250000      2.9131372E-34
   5.260000      2.8230948E-34
   5.270000      2.7240178E-34
   5.280000      2.6319204E-34
   5.290000      2.5204052E-34
   5.300000      2.3798471E-34
   5.310000      2.1784312E-34
   5.320000      1.9268970E-34
   5.330000      1.6071203E-34
   5.340000      1.2037537E-34
   5.350000      7.2187567E-35
   5.360000      1.5462027E-35
   5.370000     -4.8751533E-35
   5.380000     -1.1990582E-34
   5.390000     -1.9820830E-34
   5.400000     -2.8419041E-34
   5.410000     -3.7512036E-34
   5.420000     -4.7323479E-34
   5.430000     -5.8294836E-34
   5.440000     -7.0010896E-34
   5.450000     -8.2017868E-34
   5.460000     -9.4521152E-34
   5.470000     -1.0757650E-33
   5.480000     -1.2099098E-33
   5.490000     -1.3479913E-33
   5.500000     -1.4888880E-33
   5.510000     -1.6313516E-33
   5.520000     -1.7755570E-33
   5.530000     -1.9208103E-33
   5.540000     -2.0674955E-33
   5.550000     -2.2145085E-33
   5.560000     -2.3590502E-33
   5.570000     -2.5023220E-33
   5.580000     -2.6455404E-33
   5.590000     -2.7876779E-33
   5.600000     -2.9290849E-33
   5.610000     -3.0686971E-33
   5.620000     -3.2027545E-33
   5.630000     -3.3339297E-33
   5.640000     -3.4631823E-33
   5.650000     -3.5876201E-33
   5.660000     -3.7072414E-33
   5.670000     -3.8208621E-33
   5.680000     -3.9275496E-33
   5.690000     -4.0256149E-33
   5.700000     -4.1132406E-33
   5.710000     -4.1888682E-33
   5.720000     -4.2497240E-33
   5.730000     -4.2943560E-33
   5.740000     -4.3202687E-33
   5.750000     -4.3239902E-33
   5.760000     -4.3024882E-33
   5.770000     -4.2548939E-33
   5.780000     -4.1769260E-33
   5.790000     -4.0648503E-33
   5.800000     -3.9181868E-33
   5.810000     -3.7329487E-33
   5.820000     -3.5070360E-33
   5.830000     -3.2385413E-33
   5.840000     -2.9249246E-33
   5.850000     -2.5644713E-33
   5.860000     -2.1557178E-33
   5.870000     -1.6969444E-33
   5.880000     -1.1866829E-33
   5.890000     -6.2384114E-34
   5.900000     -7.4478322E-36
   5.910000      6.6350636E-34
   5.920000      1.3898389E-33
   5.930000      2.1721843E-33
   5.940000      3.0112374E-33
   5.950000      3.9076452E-33
   5.960000      4.8617972E-33
   5.970000      5.8739489E-33
   5.980000      6.9444077E-33
   5.990000      8.0741114E-33
   6.000000      9.2624040E-33
   6.010000      1.0508593E-32
   6.020000      1.1813156E-32
   6.030000      1.3176018E-32
   6.040000      1.4596836E-32
   6.050000      1.6074566E-32
   6.060000      1.7608309E-32
   6.070000      1.9196784E-32
   6.080000      2.0838410E-32
   6.090000      2.2530978E-32
   6.100000      2.4271474E-32
   6.110000      2.6056596E-32
   6.120000      2.7882203E-32
   6.130000      2.9743381E-32
   6.140000      3.1634475E-32
   6.150000      3.3548732E-32
   6.160000      3.5478497E-32
   6.170000      3.7415412E-32
   6.180000      3.9347540E-32
   6.190000      4.1267204E-32
   6.200000      4.3165845E-32
   6.210000      4.5028819E-32
   6.220000      4.6843203E-32
   6.230000      4.8595595E-32
   6.240000      5.0271174E-32
   6.250000      5.1854406E-32
   6.260000      5.3329604E-32
   6.270000      5.4680359E-32
   6.280000      5.5889678E-32
   6.290000      5.6939700E-32
   6.300000      5.7812123E-32
   6.310000      5.8488132E-32
   6.320000      5.8948379E-32
   6.330000      5.9173016E-32
   6.340000      5.9141730E-32
   6.350000      5.8833727E-32
   6.360000      5.8227748E-32
   6.370000      5.7302117E-32
   6.380000      5.6034705E-32
   6.390000      5.4402972E-32
   6.400000      5.2383978E-32
   6.410000      4.9954396E-32
   6.420000      4.7090571E-32
   6.430000      4.3768507E-32
   6.440000      3.9963966E-32
   6.450000      3.5652491E-32
   6.460000      3.0809519E-32
   6.470000      2.5410482E-32
   6.480000      1.9430932E-32
   6.490000      1.2846678E-32
   6.500000      5.6339600E-33
   6.510000     -2.2303523E-33
   6.520000     -1.0768532E-32
   6.530000     -2.0001773E-32
   6.540000     -2.9949962E-32
   6.550000     -4.0631403E-32
   6.560000     -5.2062545E-32
   6.570000     -6.4257740E-32
   6.580000     -7.7228950E-32
   6.590000     -9.0985473E-32
   6.600000     -1.0553370E-31
   6.610000     -1.2087685E-31
   6.620000     -1.3701463E-31
   6.630000     -1.5394319E-31
   6.640000     -1.7165464E-31
   6.650000     -1.9013693E-31
   6.660000     -2.0937358E-31
   6.670000     -2.2934341E-31
   6.680000     -2.5002048E-31
   6.690000     -2.7137357E-31
   6.700000     -2.9336620E-31
   6.710000     -3.1595624E-31
   6.720000     -3.3909582E-31
   6.730000     -3.6273099E-31
   6.740000     -3.8680152E-31
   6.750000     -4.1124073E-31
   6.760000     -4.3597506E-31
   6.770000     -4.6092422E-31
   6.780000     -4.8600057E-31
   6.790000     -5.1110903E-31
   6.800000     -5.3614697E-31
   6.810000     -5.6100383E-31
   6.820000     -5.8556099E-31
   6.830000     -6.0969154E-31
   6.840000     -6.3326011E-31
   6.850000     -6.5612258E-31
   6.860000     -6.7812600E-31
   6.870000     -6.9910857E-31
   6.880000     -7.1889938E-31
   6.890000     -7.3731839E-31
   6.900000     -7.5417635E-31
   6.910000     -7.6927510E-31
   6.920000     -7.8240735E-31
   6.930000     -7.9335722E-31
   6.940000     -8.0189986E-31
   6.950000     -8.0780235E-31
   6.960000     -8.1082365E-31
   6.970000     -8.1071523E-31
   6.980000     -8.0722119E-31
   6.990000     -8.0007926E-31
   7.000000     -7.8902115E-31
   7.010000     -7.7377306E-31
   7.020000     -7.5405692E-31
   7.030000     -7.2959079E-31
   7.040000     -7.0008969E-31
   7.050000     -6.6526670E-31
   7.060000     -6.2483412E-31