  -2.600000      0.0000000E+00
  -2.590000      0.0000000E+00
  -2.580000      0.0000000E+00
  -2.570000      0.0000000E+00
  -2.560000      0.0000000E+00
  -2.550000      0.0000000E+00
  -2.540000      0.0000000E+00
  -2.530000      0.0000000E+00
  -2.520000      0.0000000E+00
  -2.510000      0.0000000E+00
  -2.500000      0.0000000E+00
  -2.490000      0.0000000E+00
  -2.480000      0.0000000E+00
  -2.470000      0.0000000E+00
  -2.460000      0.0000000E+00
  -2.450000      0.0000000E+00
  -2.440000      0.0000000E+00
  -2.430000      0.0000000E+00
  -2.420000      0.0000000E+00
  -2.410000      0.0000000E+00
  -2.400000      0.0000000E+00
  -2.390000      0.0000000E+00
  -2.380000      0.0000000E+00
  -2.370000      0.0000000E+00
  -2.360000      0.0000000E+00
  -2.350000      0.0000000E+00
  -2.340000      0.0000000E+00
  -2.330000      0.0000000E+00
  -2.320000      0.0000000E+00
  -2.310000      0.0000000E+00
  -2.300000      0.0000000E+00
  -2.290000      0.0000000E+00
  -2.280000      0.0000000E+00
  -2.270000      0.0000000E+00
  -2.260000      0.0000000E+00
  -2.250000      0.0000000E+00
  -2.240000      0.0000000E+00
  -2.230000      0.0000000E+00
  -2.220000      0.0000000E+00
  -2.210000      0.0000000E+00
  -2.200000      0.0000000E+00
  -2.190000      0.0000000E+00
  -2.180000      0.0000000E+00
  -2.170000      0.0000000E+00
  -2.160000      0.0000000E+00
  -2.150000      0.0000000E+00
  -2.140000      0.0000000E+00
  -2.130000      0.0000000E+00
  -2.120000      0.0000000E+00
  -2.110000      0.0000000E+00
  -2.100000      0.0000000E+00
  -2.090000      0.0000000E+00
  -2.080000      0.0000000E+00
  -2.070000      0.0000000E+00
  -2.060000      0.0000000E+00
  -2.050000      0.0000000E+00
  -2.040000      0.0000000E+00
  -2.030000      0.0000000E+00
  -2.020000      0.0000000E+00
  -2.010000      0.0000000E+00
  -2.000000      0.0000000E+00
  -1.990000      0.0000000E+00
  -1.980000      0.0000000E+00
  -1.970000      0.0000000E+00
  -1.960000      0.0000000E+00
  -1.950000      0.0000000E+00
  -1.940000      0.0000000E+00
  -1.930000      0.0000000E+00
  -1.920000      0.0000000E+00
  -1.910000      0.0000000E+00
  -1.900000      0.0000000E+00
  -1.890000      0.0000000E+00
  -1.880000      0.0000000E+00
  -1.870000      0.0000000E+00
  -1.860000      0.0000000E+00
  -1.850000      0.0000000E+00
  -1.840000      0.0000000E+00
  -1.830000      0.0000000E+00
  -1.820000      0.0000000E+00
  -1.810000      0.0000000E+00
  -1.800000      0.0000000E+00
  -1.790000      0.0000000E+00
  -1.780000      0.0000000E+00
  -1.770000      0.0000000E+00
  -1.760000      0.0000000E+00
  -1.750000      0.0000000E+00
  -1.740000      0.0000000E+00
  -1.730000      0.0000000E+00
  -1.720000      0.0000000E+00
  -1.710000      0.0000000E+00
  -1.700000      0.0000000E+00
  -1.690000      0.0000000E+00
  -1.680000      0.0000000E+00
  -1.670000      0.0000000E+00
  -1.660000      0.0000000E+00
  -1.650000      0.0000000E+00
  -1.640000      0.0000000E+00
  -1.630000      0.0000000E+00
  -1.620000      0.0000000E+00
  -1.610000      0.0000000E+00
  -1.600000      0.0000000E+00
  -1.590000      0.0000000E+00
  -1.580000      0.0000000E+00
  -1.570000      0.0000000E+00
  -1.560000      0.0000000E+00
  -1.550000      0.0000000E+00
  -1.540000      0.0000000E+00
  -1.530000      0.0000000E+00
  -1.520000      0.0000000E+00
  -1.510000      0.0000000E+00
  -1.500000      0.0000000E+00
  -1.490000      0.0000000E+00
  -1.480000      0.0000000E+00
  -1.470000      0.0000000E+00
  -1.460000      0.0000000E+00
  -1.450000      0.0000000E+00
  -1.440000      0.0000000E+00
  -1.430000      0.0000000E+00
  -1.420000      0.0000000E+00
  -1.410000      0.0000000E+00
  -1.400000      0.0000000E+00
  -1.390000      0.0000000E+00
  -1.380000      0.0000000E+00
  -1.370000      0.0000000E+00
  -1.360000      0.0000000E+00
  -1.350000      0.0000000E+00
  -1.340000      0.0000000E+00
  -1.330000      0.0000000E+00
  -1.320000      0.0000000E+00
  -1.310000      0.0000000E+00
  -1.300000      0.0000000E+00
  -1.290000      0.0000000E+00
  -1.280000      0.0000000E+00
  -1.270000      0.0000000E+00
  -1.260000      0.0000000E+00
  -1.250000      0.0000000E+00
  -1.240000      0.0000000E+00
  -1.230000      0.0000000E+00
  -1.220000      0.0000000E+00
  -1.210000      0.0000000E+00
  -1.200000      0.0000000E+00
  -1.190000      0.0000000E+00
  -1.180000      0.0000000E+00
  -1.170000      0.0000000E+00
  -1.160000      0.0000000E+00
  -1.150000      0.0000000E+00
  -1.140000      0.0000000E+00
  -1.130000      0.0000000E+00
  -1.120000      0.0000000E+00
  -1.110000      0.0000000E+00
  -1.100000      0.0000000E+00
  -1.090000      0.0000000E+00
  -1.080000      0.0000000E+00
  -1.070000      0.0000000E+00
  -1.060000      0.0000000E+00
  -1.050000      0.0000000E+00
  -1.040000      0.0000000E+00
  -1.030000      0.0000000E+00
  -1.020000      0.0000000E+00
  -1.010000      0.0000000E+00
  -1.000000      0.0000000E+00
 -0.9900000      0.0000000E+00
 -0.9800000      0.0000000E+00
 -0.9700000      0.0000000E+00
 -0.9600000      0.0000000E+00
 -0.9500000      0.0000000E+00
 -0.9400000      0.0000000E+00
 -0.9300000      0.0000000E+00
 -0.9200000      0.0000000E+00
 -0.9100000      0.0000000E+00
 -0.9000000      0.0000000E+00
 -0.8900000      0.0000000E+00
 -0.8800000      0.0000000E+00
 -0.8700000      0.0000000E+00
 -0.8600000      0.0000000E+00
 -0.8500000      0.0000000E+00
 -0.8400000      0.0000000E+00
 -0.8300000      0.0000000E+00
 -0.8200000      0.0000000E+00
 -0.8100000      0.0000000E+00
 -0.8000000      0.0000000E+00
 -0.7900000      0.0000000E+00
 -0.7800000      0.0000000E+00
 -0.7700000      0.0000000E+00
 -0.7600000      0.0000000E+00
 -0.7500000      0.0000000E+00
 -0.7400000      0.0000000E+00
 -0.7300000      0.0000000E+00
 -0.7200000      0.0000000E+00
 -0.7100000      0.0000000E+00
 -0.7000000      0.0000000E+00
 -0.6900000      0.0000000E+00
 -0.6800000      0.0000000E+00
 -0.6700000      0.0000000E+00
 -0.6600000      0.0000000E+00
 -0.6500000      0.0000000E+00
 -0.6400000      0.0000000E+00
 -0.6300000      0.0000000E+00
 -0.6200000      0.0000000E+00
 -0.6100000      0.0000000E+00
 -0.6000000      0.0000000E+00
 -0.5900000      0.0000000E+00
 -0.5800000      0.0000000E+00
 -0.5700000      0.0000000E+00
 -0.5600000      0.0000000E+00
 -0.5500000      0.0000000E+00
 -0.5400000      0.0000000E+00
 -0.5300000      0.0000000E+00
 -0.5200000      0.0000000E+00
 -0.5100000      0.0000000E+00
 -0.5000000      0.0000000E+00
 -0.4900000      0.0000000E+00
 -0.4800000      0.0000000E+00
 -0.4700000      0.0000000E+00
 -0.4600000      0.0000000E+00
 -0.4500000      0.0000000E+00
 -0.4400000      0.0000000E+00
 -0.4300000      0.0000000E+00
 -0.4200000      0.0000000E+00
 -0.4100000      0.0000000E+00
 -0.4000000      0.0000000E+00
 -0.3900000      0.0000000E+00
 -0.3800000      0.0000000E+00
 -0.3700000      0.0000000E+00
 -0.3600000      0.0000000E+00
 -0.3500000      0.0000000E+00
 -0.3400000      0.0000000E+00
 -0.3300000      0.0000000E+00
 -0.3200000      0.0000000E+00
 -0.3100000      0.0000000E+00
 -0.3000000      0.0000000E+00
 -0.2900000      0.0000000E+00
 -0.2800000      0.0000000E+00
 -0.2700000      0.0000000E+00
 -0.2600000      0.0000000E+00
 -0.2500000      0.0000000E+00
 -0.2400000      0.0000000E+00
 -0.2300000      0.0000000E+00
 -0.2200000      0.0000000E+00
 -0.2100000      0.0000000E+00
 -0.2000000      0.0000000E+00
 -0.1900000      0.0000000E+00
 -0.1800000      0.0000000E+00
 -0.1700000      0.0000000E+00
 -0.1600000      0.0000000E+00
 -0.1500000      0.0000000E+00
 -0.1400000      0.0000000E+00
 -0.1300000      0.0000000E+00
 -0.1200000      0.0000000E+00
 -0.1100000      0.0000000E+00
 -0.1000000      0.0000000E+00
 -9.0000004E-02  0.0000000E+00
 -7.9999998E-02  0.0000000E+00
 -7.0000000E-02  0.0000000E+00
 -5.9999999E-02  0.0000000E+00
 -5.0000001E-02  0.0000000E+00
 -3.9999999E-02  0.0000000E+00
 -2.9999999E-02  0.0000000E+00
 -2.0000000E-02  0.0000000E+00
 -9.9999998E-03  0.0000000E+00
 -3.4694470E-17  0.0000000E+00
  9.9999998E-03  0.0000000E+00
  2.0000000E-02  0.0000000E+00
  2.9999999E-02  0.0000000E+00
  3.9999999E-02  0.0000000E+00
  5.0000001E-02  0.0000000E+00
  5.9999999E-02  0.0000000E+00
  7.0000000E-02  0.0000000E+00
  7.9999998E-02  0.0000000E+00
  9.0000004E-02  0.0000000E+00
  0.1000000      0.0000000E+00
  0.1100000      0.0000000E+00
  0.1200000      0.0000000E+00
  0.1300000      0.0000000E+00
  0.1400000      0.0000000E+00
  0.1500000      0.0000000E+00
  0.1600000      0.0000000E+00
  0.1700000      0.0000000E+00
  0.1800000      0.0000000E+00
  0.1900000      0.0000000E+00
  0.2000000      0.0000000E+00
  0.2100000      0.0000000E+00
  0.2200000      0.0000000E+00
  0.2300000      0.0000000E+00
  0.2400000      0.0000000E+00
  0.2500000      0.0000000E+00
  0.2600000      0.0000000E+00
  0.2700000      0.0000000E+00
  0.2800000      0.0000000E+00
  0.2900000      0.0000000E+00
  0.3000000      0.0000000E+00
  0.3100000      0.0000000E+00
  0.3200000      0.0000000E+00
  0.3300000      0.0000000E+00
  0.3400000      0.0000000E+00
  0.3500000      0.0000000E+00
  0.3600000      0.0000000E+00
  0.3700000      0.0000000E+00
  0.3800000      0.0000000E+00
  0.3900000      0.0000000E+00
  0.4000000      0.0000000E+00
  0.4100000      0.0000000E+00
  0.4200000      0.0000000E+00
  0.4300000      0.0000000E+00
  0.4400000      0.0000000E+00
  0.4500000      0.0000000E+00
  0.4600000      0.0000000E+00
  0.4700000      0.0000000E+00
  0.4800000      0.0000000E+00
  0.4900000      0.0000000E+00
  0.5000000      0.0000000E+00
  0.5100000      0.0000000E+00
  0.5200000      0.0000000E+00
  0.5300000      0.0000000E+00
  0.5400000      0.0000000E+00
  0.5500000      0.0000000E+00
  0.5600000      0.0000000E+00
  0.5700000      0.0000000E+00
  0.5800000      0.0000000E+00
  0.5900000      0.0000000E+00
  0.6000000      0.0000000E+00
  0.6100000      0.0000000E+00
  0.6200000      0.0000000E+00
  0.6300000      0.0000000E+00
  0.6400000      0.0000000E+00
  0.6500000      0.0000000E+00
  0.6600000      0.0000000E+00
  0.6700000      0.0000000E+00
  0.6800000      0.0000000E+00
  0.6900000      0.0000000E+00
  0.7000000      0.0000000E+00
  0.7100000      0.0000000E+00
  0.7200000      0.0000000E+00
  0.7300000      0.0000000E+00
  0.7400000      0.0000000E+00
  0.7500000      0.0000000E+00
  0.7600000      0.0000000E+00
  0.7700000      0.0000000E+00
  0.7800000      0.0000000E+00
  0.7900000      0.0000000E+00
  0.8000000      0.0000000E+00
  0.8100000      0.0000000E+00
  0.8200000      0.0000000E+00
  0.8300000      0.0000000E+00
  0.8400000      0.0000000E+00
  0.8500000      0.0000000E+00
  0.8600000      0.0000000E+00
  0.8700000      0.0000000E+00
  0.8800000      0.0000000E+00
  0.8900000      0.0000000E+00
  0.9000000      0.0000000E+00
  0.9100000      0.0000000E+00
  0.9200000      0.0000000E+00
  0.9300000      0.0000000E+00
  0.9400000      0.0000000E+00
  0.9500000      0.0000000E+00
  0.9600000      0.0000000E+00
  0.9700000      0.0000000E+00
  0.9800000      0.0000000E+00
  0.9900000      0.0000000E+00
   1.000000      0.0000000E+00
   1.010000      0.0000000E+00
   1.020000      0.0000000E+00
   1.030000      0.0000000E+00
   1.040000      0.0000000E+00
   1.050000      0.0000000E+00
   1.060000      0.0000000E+00
   1.070000      0.0000000E+00
   1.080000      0.0000000E+00
   1.090000      0.0000000E+00
   1.100000      0.0000000E+00
   1.110000      0.0000000E+00
   1.120000      0.0000000E+00
   1.130000      0.0000000E+00
   1.140000      0.0000000E+00
   1.150000      0.0000000E+00
   1.160000      0.0000000E+00
   1.170000      0.0000000E+00
   1.180000      0.0000000E+00
   1.190000      0.0000000E+00
   1.200000      0.0000000E+00
   1.210000      0.0000000E+00
   1.220000      0.0000000E+00
   1.230000      0.0000000E+00
   1.240000      0.0000000E+00
   1.250000      0.0000000E+00
   1.260000      0.0000000E+00
   1.270000      0.0000000E+00
   1.280000      0.0000000E+00
   1.290000      0.0000000E+00
   1.300000      0.0000000E+00
   1.310000      0.0000000E+00
   1.320000      0.0000000E+00
   1.330000      0.0000000E+00
   1.340000      0.0000000E+00
   1.350000      0.0000000E+00
   1.360000      0.0000000E+00
   1.370000      0.0000000E+00
   1.380000      0.0000000E+00
   1.390000      0.0000000E+00
   1.400000      0.0000000E+00
   1.410000      0.0000000E+00
   1.420000      0.0000000E+00
   1.430000      0.0000000E+00
   1.440000      0.0000000E+00
   1.450000      0.0000000E+00
   1.460000      0.0000000E+00
   1.470000      0.0000000E+00
   1.480000      0.0000000E+00
   1.490000      0.0000000E+00
   1.500000      0.0000000E+00
   1.510000      0.0000000E+00
   1.520000      0.0000000E+00
   1.530000      0.0000000E+00
   1.540000      0.0000000E+00
   1.550000      0.0000000E+00
   1.560000      0.0000000E+00
   1.570000      0.0000000E+00
   1.580000      0.0000000E+00
   1.590000      0.0000000E+00
   1.600000      0.0000000E+00
   1.610000      0.0000000E+00
   1.620000      0.0000000E+00
   1.630000      0.0000000E+00
   1.640000      0.0000000E+00
   1.650000      0.0000000E+00
   1.660000      0.0000000E+00
   1.670000      0.0000000E+00
   1.680000      0.0000000E+00
   1.690000      0.0000000E+00
   1.700000      0.0000000E+00
   1.710000      0.0000000E+00
   1.720000      0.0000000E+00
   1.730000      0.0000000E+00
   1.740000      0.0000000E+00
   1.750000      0.0000000E+00
   1.760000      0.0000000E+00
   1.770000      0.0000000E+00
   1.780000      0.0000000E+00
   1.790000      0.0000000E+00
   1.800000      0.0000000E+00
   1.810000      0.0000000E+00
   1.820000      0.0000000E+00
   1.830000      0.0000000E+00
   1.840000      0.0000000E+00
   1.850000      0.0000000E+00
   1.860000      0.0000000E+00
   1.870000      0.0000000E+00
   1.880000      0.0000000E+00
   1.890000      0.0000000E+00
   1.900000      0.0000000E+00
   1.910000      0.0000000E+00
   1.920000      0.0000000E+00
   1.930000      0.0000000E+00
   1.940000      0.0000000E+00
   1.950000      0.0000000E+00
   1.960000      0.0000000E+00
   1.970000      0.0000000E+00
   1.980000      0.0000000E+00
   1.990000      0.0000000E+00
   2.000000      0.0000000E+00
   2.010000      0.0000000E+00
   2.020000      0.0000000E+00
   2.030000      0.0000000E+00
   2.040000      0.0000000E+00
   2.050000      0.0000000E+00
   2.060000      0.0000000E+00
   2.070000      0.0000000E+00
   2.080000      0.0000000E+00
   2.090000      0.0000000E+00
   2.100000      0.0000000E+00
   2.110000      0.0000000E+00
   2.120000      0.0000000E+00
   2.130000      0.0000000E+00
   2.140000      0.0000000E+00
   2.150000      0.0000000E+00
   2.160000      0.0000000E+00
   2.170000      0.0000000E+00
   2.180000      0.0000000E+00
   2.190000      0.0000000E+00
   2.200000      0.0000000E+00
   2.210000      0.0000000E+00
   2.220000      0.0000000E+00
   2.230000      0.0000000E+00
   2.240000      0.0000000E+00
   2.250000      0.0000000E+00
   2.260000      0.0000000E+00
   2.270000      0.0000000E+00
   2.280000      0.0000000E+00
   2.290000      0.0000000E+00
   2.300000      0.0000000E+00
   2.310000      0.0000000E+00
   2.320000      0.0000000E+00
   2.330000      0.0000000E+00
   2.340000      0.0000000E+00
   2.350000      0.0000000E+00
   2.360000      0.0000000E+00
   2.370000      0.0000000E+00
   2.380000      0.0000000E+00
   2.390000      0.0000000E+00
   2.400000      0.0000000E+00
   2.410000      0.0000000E+00
   2.420000      0.0000000E+00
   2.430000      0.0000000E+00
   2.440000      0.0000000E+00
   2.450000      0.0000000E+00
   2.460000      0.0000000E+00
   2.470000      0.0000000E+00
   2.480000      0.0000000E+00
   2.490000      0.0000000E+00
   2.500000      0.0000000E+00
   2.510000      0.0000000E+00
   2.520000      0.0000000E+00
   2.530000      0.0000000E+00
   2.540000      0.0000000E+00
   2.550000      0.0000000E+00
   2.560000      0.0000000E+00
   2.570000      0.0000000E+00
   2.580000      0.0000000E+00
   2.590000      0.0000000E+00
   2.600000      0.0000000E+00
   2.610000      0.0000000E+00
   2.620000      0.0000000E+00
   2.630000      0.0000000E+00
   2.640000      0.0000000E+00
   2.650000      0.0000000E+00
   2.660000      0.0000000E+00
   2.670000      0.0000000E+00
   2.680000      0.0000000E+00
   2.690000      0.0000000E+00
   2.700000      0.0000000E+00
   2.710000      0.0000000E+00
   2.720000      0.0000000E+00
   2.730000      0.0000000E+00
   2.740000      0.0000000E+00
   2.750000      0.0000000E+00
   2.760000      0.0000000E+00
   2.770000      0.0000000E+00
   2.780000      0.0000000E+00
   2.790000      0.0000000E+00
   2.800000      0.0000000E+00
   2.810000      0.0000000E+00
   2.820000      0.0000000E+00
   2.830000      0.0000000E+00
   2.840000      0.0000000E+00
   2.850000      0.0000000E+00
   2.860000      0.0000000E+00
   2.870000      0.0000000E+00
   2.880000      0.0000000E+00
   2.890000      0.0000000E+00
   2.900000      0.0000000E+00
   2.910000      0.0000000E+00
   2.920000      0.0000000E+00
   2.930000      0.0000000E+00
   2.940000      0.0000000E+00
   2.950000      0.0000000E+00
   2.960000      0.0000000E+00
   2.970000      0.0000000E+00
   2.980000      0.0000000E+00
   2.990000      0.0000000E+00
   3.000000      0.0000000E+00
   3.010000      0.0000000E+00
   3.020000      0.0000000E+00
   3.030000      0.0000000E+00
   3.040000      0.0000000E+00
   3.050000      0.0000000E+00
   3.060000      0.0000000E+00
   3.070000      0.0000000E+00
   3.080000      0.0000000E+00
   3.090000      0.0000000E+00
   3.100000      0.0000000E+00
   3.110000      0.0000000E+00
   3.120000      0.0000000E+00
   3.130000      0.0000000E+00
   3.140000      0.0000000E+00
   3.150000      0.0000000E+00
   3.160000      0.0000000E+00
   3.170000      0.0000000E+00
   3.180000      0.0000000E+00
   3.190000      0.0000000E+00
   3.200000      0.0000000E+00
   3.210000      0.0000000E+00
   3.220000      0.0000000E+00
   3.230000      0.0000000E+00
   3.240000      0.0000000E+00
   3.250000      0.0000000E+00
   3.260000      0.0000000E+00
   3.270000      0.0000000E+00
   3.280000      0.0000000E+00
   3.290000      0.0000000E+00
   3.300000      0.0000000E+00
   3.310000      0.0000000E+00
   3.320000      0.0000000E+00
   3.330000      0.0000000E+00
   3.340000      0.0000000E+00
   3.350000      0.0000000E+00
   3.360000      0.0000000E+00
   3.370000      0.0000000E+00
   3.380000      0.0000000E+00
   3.390000      0.0000000E+00
   3.400000      0.0000000E+00
   3.410000      0.0000000E+00
   3.420000      0.0000000E+00
   3.430000      0.0000000E+00
   3.440000      0.0000000E+00
   3.450000      0.0000000E+00
   3.460000      0.0000000E+00
   3.470000      0.0000000E+00
   3.480000      0.0000000E+00
   3.490000      0.0000000E+00
   3.500000      0.0000000E+00
   3.510000      0.0000000E+00
   3.520000      0.0000000E+00
   3.530000      0.0000000E+00
   3.540000      0.0000000E+00
   3.550000      0.0000000E+00
   3.560000      0.0000000E+00
   3.570000      0.0000000E+00
   3.580000      0.0000000E+00
   3.590000      0.0000000E+00
   3.600000      0.0000000E+00
   3.610000      0.0000000E+00
   3.620000      0.0000000E+00
   3.630000      0.0000000E+00
   3.640000      0.0000000E+00
   3.650000      0.0000000E+00
   3.660000      0.0000000E+00
   3.670000      0.0000000E+00
   3.680000      0.0000000E+00
   3.690000      0.0000000E+00
   3.700000      0.0000000E+00
   3.710000      0.0000000E+00
   3.720000      0.0000000E+00
   3.730000      0.0000000E+00
   3.740000      0.0000000E+00
   3.750000      0.0000000E+00
   3.760000      0.0000000E+00
   3.770000      0.0000000E+00
   3.780000      0.0000000E+00
   3.790000      0.0000000E+00
   3.800000      0.0000000E+00
   3.810000      0.0000000E+00
   3.820000      0.0000000E+00
   3.830000      0.0000000E+00
   3.840000      0.0000000E+00
   3.850000      0.0000000E+00
   3.860000      0.0000000E+00
   3.870000      0.0000000E+00
   3.880000      0.0000000E+00
   3.890000      0.0000000E+00
   3.900000      0.0000000E+00
   3.910000      0.0000000E+00
   3.920000      0.0000000E+00
   3.930000     -1.2099725E-38
   3.940000     -1.3383425E-38
   3.950000     -1.4619434E-38
   3.960000     -1.5802589E-38
   3.970000     -1.6380697E-38
   3.980000     -1.6380697E-38
   3.990000     -1.6380697E-38
   4.000000     -1.6380697E-38
   4.010000     -1.6380697E-38
   4.020000     -1.6380697E-38
   4.030000     -1.6380697E-38
   4.040000     -1.6380697E-38
   4.050000     -1.6380697E-38
   4.060000     -1.6380697E-38
   4.070000     -1.5757116E-38
   4.080000     -1.4388762E-38
   4.090000     -1.2763514E-38
   4.100000      0.0000000E+00
   4.110000      0.0000000E+00
   4.120000      0.0000000E+00
   4.130000      0.0000000E+00
   4.140000      0.0000000E+00
   4.150000      0.0000000E+00
   4.160000      0.0000000E+00
   4.170000      1.6119353E-38
   4.180000      2.3108733E-38
   4.190000      3.0881771E-38
   4.200000      3.9449811E-38
   4.210000      4.8748046E-38
   4.220000      5.8758799E-38
   4.230000      6.9523456E-38
   4.240000      8.1020936E-38
   4.250000      9.3224048E-38
   4.260000      1.0610024E-37
   4.270000      1.1961617E-37
   4.280000      1.3373213E-37
   4.290000      1.4840107E-37
   4.300000      1.6357447E-37
   4.310000      1.7798543E-37
   4.320000      1.9136923E-37
   4.330000      2.0832145E-37
   4.340000      2.2891513E-37
   4.350000      2.4955215E-37
   4.360000      2.7011212E-37
   4.370000      2.9047866E-37
   4.380000      3.1054202E-37
   4.390000      3.3017654E-37
   4.400000      3.4925624E-37
   4.410000      3.6770814E-37
   4.420000      3.8539425E-37
   4.430000      4.0173909E-37
   4.440000      4.0843200E-37
   4.450000      4.0571263E-37
   4.460000      4.0127054E-37
   4.470000      3.9538544E-37
   4.480000      3.8904287E-37
   4.490000      3.8533641E-37
   4.500000      3.8395479E-37
   4.510000      3.8092947E-37
   4.520000      3.7395120E-37
   4.530000      3.6284505E-37
   4.540000      3.4964556E-37
   4.550000      3.3431383E-37
   4.560000      3.0547957E-37
   4.570000      2.7150698E-37
   4.580000      2.4218464E-37
   4.590000      2.0591350E-37
   4.600000      1.5358625E-37
   4.610000      8.6842670E-38
   4.620000      0.0000000E+00
   4.630000     -9.6810532E-38
   4.640000     -2.1110593E-37
   4.650000     -3.3770867E-37
   4.660000     -4.4818735E-37
   4.670000     -5.3852124E-37
   4.680000     -6.3166678E-37
   4.690000     -7.3119220E-37
   4.700000     -8.4024699E-37
   4.710000     -9.6195682E-37
   4.720000     -1.0767665E-36
   4.730000     -1.2060966E-36
   4.740000     -1.3608077E-36
   4.750000     -1.5140906E-36
   4.760000     -1.6984127E-36
   4.770000     -1.8970227E-36
   4.780000     -2.0775675E-36
   4.790000     -2.2663634E-36
   4.800000     -2.4462194E-36
   4.810000     -2.6065906E-36
   4.820000     -2.7745378E-36
   4.830000     -2.9500957E-36
   4.840000     -3.1528798E-36
   4.850000     -3.3620875E-36
   4.860000     -3.5779260E-36
   4.870000     -3.8170958E-36
   4.880000     -4.0747625E-36
   4.890000     -4.3461608E-36
   4.900000     -4.5984135E-36
   4.910000     -4.8189113E-36
   4.920000     -5.0083761E-36
   4.930000     -4.9428074E-36
   4.940000     -4.6095586E-36
   4.950000     -4.2043151E-36
   4.960000     -3.5826096E-36
   4.970000     -2.7523984E-36
   4.980000     -1.5738540E-36
   4.990000     -1.8391537E-37
   5.000000      1.0942955E-36
   5.010000      2.3429949E-36
   5.020000      3.7853060E-36
   5.030000      5.5052697E-36
   5.040000      7.3126460E-36
   5.050000      9.0582107E-36
   5.060000      1.0325628E-35
   5.070000      1.1246392E-35
   5.080000      1.2195566E-35
   5.090000      1.3109909E-35
   5.100000      1.3919179E-35
   5.110000      1.4615367E-35
   5.120000      1.5325106E-35
   5.130000      1.6023277E-35
   5.140000      1.6689093E-35
   5.150000      1.7412468E-35
   5.160000      1.8280793E-35
   5.170000      1.9256704E-35
   5.180000      2.0356457E-35
   5.190000      2.1628492E-35
   5.200000      2.3015620E-35
   5.210000      2.4525430E-35
   5.220000      2.5847881E-35
   5.230000      2.6838571E-35
   5.240000      2.7758527E-35
   5.250000      2.8712790E-35
   5.260000      2.9558236E-35
   5.270000      3.0325943E-35
   5.280000      3.1135729E-35
   5.290000      3.2038647E-35
   5.300000      3.2812286E-35
   5.310000      3.3290413E-35
   5.320000      3.3598593E-35
   5.330000      3.3801696E-35
   5.340000      3.4170596E-35
   5.350000      3.4668012E-35
   5.360000      3.5136588E-35
   5.370000      3.5572654E-35
   5.380000      3.5915540E-35
   5.390000      3.6094117E-35
   5.400000      3.5657005E-35
   5.410000      3.4591019E-35
   5.420000      3.3316868E-35
   5.430000      3.1625832E-35
   5.440000      2.9419869E-35
   5.450000      2.6667206E-35
   5.460000      2.3332543E-35
   5.470000      1.9426018E-35
   5.480000      1.2114795E-35
   5.490000      1.3402292E-36
   5.500000     -1.0180996E-35
   5.510000     -2.1984370E-35
   5.520000     -3.1192428E-35
   5.530000     -3.8055898E-35
   5.540000     -4.5239942E-35
   5.550000     -5.3183853E-35
   5.560000     -6.1843447E-35
   5.570000     -7.3660442E-35
   5.580000     -9.2105165E-35
   5.590000     -1.1459144E-34
   5.600000     -1.3741690E-34
   5.610000     -1.6055084E-34
   5.620000     -1.8416849E-34
   5.630000     -2.0400034E-34
   5.640000     -2.1992273E-34
   5.650000     -2.3604654E-34
   5.660000     -2.5114471E-34
   5.670000     -2.6095952E-34
   5.680000     -2.6585175E-34
   5.690000     -2.6832093E-34
   5.700000     -2.6849747E-34
   5.710000     -2.6706834E-34
   5.720000     -2.6461278E-34
   5.730000     -2.6000112E-34
   5.740000     -2.5343635E-34
   5.750000     -2.4819346E-34
   5.760000     -2.4067806E-34
   5.770000     -2.2940861E-34
   5.780000     -2.1879644E-34
   5.790000     -2.0639484E-34
   5.800000     -1.9210444E-34
   5.810000     -1.7965315E-34
   5.820000     -1.7079074E-34
   5.830000     -1.6512818E-34
   5.840000     -1.6354550E-34
   5.850000     -1.6646776E-34
   5.860000     -1.7372178E-34
   5.870000     -1.8660178E-34
   5.880000     -2.0153734E-34
   5.890000     -2.1666113E-34
   5.900000     -2.3043634E-34
   5.910000     -2.3929169E-34
   5.920000     -2.4179161E-34
   5.930000     -2.3800089E-34
   5.940000     -2.2702848E-34
   5.950000     -2.0751500E-34
   5.960000     -1.7934639E-34
   5.970000     -1.4491918E-34
   5.980000     -1.0531971E-34
   5.990000     -5.7372131E-35
   6.000000     -1.0541835E-36
   6.010000      6.1414529E-35
   6.020000      1.2871558E-34
   6.030000      2.0078463E-34
   6.040000      2.7699696E-34
   6.050000      3.5531128E-34
   6.060000      4.3483942E-34
   6.070000      5.1502499E-34
   6.080000      5.9518576E-34
   6.090000      6.7115305E-34
   6.100000      7.4369873E-34
   6.110000      8.1911899E-34
   6.120000      8.9494224E-34
   6.130000      9.6359322E-34
   6.140000      1.0251446E-33
   6.150000      1.0829514E-33
   6.160000      1.1372027E-33
   6.170000      1.1880732E-33
   6.180000      1.2357124E-33
   6.190000      1.2797388E-33
   6.200000      1.3212606E-33
   6.210000      1.3630492E-33
   6.220000      1.4075883E-33
   6.230000      1.4555652E-33
   6.240000      1.5055937E-33
   6.250000      1.5572361E-33
   6.260000      1.6150514E-33
   6.270000      1.6803337E-33
   6.280000      1.7467389E-33
   6.290000      1.8149693E-33
   6.300000      1.8874351E-33
   6.310000      1.9601664E-33
   6.320000      2.0303168E-33
   6.330000      2.0972963E-33
   6.340000      2.1608543E-33
   6.350000      2.2183994E-33
   6.360000      2.2659799E-33
   6.370000      2.3028783E-33
   6.380000      2.3286993E-33
   6.390000      2.3407887E-33
   6.400000      2.3376426E-33
   6.410000      2.3207456E-33
   6.420000      2.2878531E-33
   6.430000      2.2378138E-33
   6.440000      2.1721988E-33
   6.450000      2.0907096E-33
   6.460000      1.9922651E-33
   6.470000      1.8779358E-33
   6.480000      1.7502705E-33
   6.490000      1.6093352E-33
   6.500000      1.4557695E-33
   6.510000      1.2904256E-33
   6.520000      1.1141699E-33
   6.530000      9.2778022E-34
   6.540000      7.3201941E-34
   6.550000      5.2792246E-34
   6.560000      3.1342748E-34
   6.570000      8.9660332E-35
   6.580000     -1.4363631E-34
   6.590000     -3.9051938E-34
   6.600000     -6.5049203E-34
   6.610000     -9.2518495E-34
   6.620000     -1.2175422E-33
   6.630000     -1.5291994E-33
   6.640000     -1.8642584E-33
   6.650000     -2.2220597E-33
   6.660000     -2.6020750E-33
   6.670000     -3.0074962E-33
   6.680000     -3.4397257E-33
   6.690000     -3.9008530E-33
   6.700000     -4.3902124E-33
   6.710000     -4.9067625E-33
   6.720000     -5.4501395E-33
   6.730000     -6.0185663E-33
   6.740000     -6.6093838E-33
   6.750000     -7.2215981E-33
   6.760000     -7.8537334E-33
   6.770000     -8.5014507E-33
   6.780000     -9.1611675E-33
   6.790000     -9.8297336E-33
   6.800000     -1.0504672E-32
   6.810000     -1.1183315E-32
   6.820000     -1.1861815E-32
   6.830000     -1.2537301E-32
   6.840000     -1.3206845E-32
   6.850000     -1.3867554E-32
   6.860000     -1.4516590E-32
   6.870000     -1.5152209E-32
   6.880000     -1.5772347E-32
   6.890000     -1.6374094E-32
   6.900000     -1.6956819E-32
   6.910000     -1.7517855E-32
   6.920000     -1.8054093E-32
   6.930000     -1.8564662E-32
   6.940000     -1.9047511E-32
   6.950000     -1.9500305E-32
   6.960000     -1.9920571E-32
   6.970000     -2.0305307E-32
   6.980000     -2.0651142E-32
   6.990000     -2.0954173E-32
   7.000000     -2.1209305E-32
   7.010000     -2.1411428E-32
   7.020000     -2.1555598E-32
   7.030000     -2.1635242E-32
   7.040000     -2.1643334E-32
   7.050000     -2.1572929E-32
   7.060000     -2.1417629E-32