  -2.600000      0.0000000E+00
  -2.590000      0.0000000E+00
  -2.580000      0.0000000E+00
  -2.570000      0.0000000E+00
  -2.560000      0.0000000E+00
  -2.550000      0.0000000E+00
  -2.540000      0.0000000E+00
  -2.530000      0.0000000E+00
  -2.520000      0.0000000E+00
  -2.510000      0.0000000E+00
  -2.500000      0.0000000E+00
  -2.490000      0.0000000E+00
  -2.480000      0.0000000E+00
  -2.470000      0.0000000E+00
  -2.460000      0.0000000E+00
  -2.450000      0.0000000E+00
  -2.440000      0.0000000E+00
  -2.430000      0.0000000E+00
  -2.420000      0.0000000E+00
  -2.410000      0.0000000E+00
  -2.400000      0.0000000E+00
  -2.390000      0.0000000E+00
  -2.380000      0.0000000E+00
  -2.370000      0.0000000E+00
  -2.360000      0.0000000E+00
  -2.350000      0.0000000E+00
  -2.340000      0.0000000E+00
  -2.330000      0.0000000E+00
  -2.320000      0.0000000E+00
  -2.310000      0.0000000E+00
  -2.300000      0.0000000E+00
  -2.290000      0.0000000E+00
  -2.280000      0.0000000E+00
  -2.270000      0.0000000E+00
  -2.260000      0.0000000E+00
  -2.250000      0.0000000E+00
  -2.240000      0.0000000E+00
  -2.230000      0.0000000E+00
  -2.220000      0.0000000E+00
  -2.210000      0.0000000E+00
  -2.200000      0.0000000E+00
  -2.190000      0.0000000E+00
  -2.180000      0.0000000E+00
  -2.170000      0.0000000E+00
  -2.160000      0.0000000E+00
  -2.150000      0.0000000E+00
  -2.140000      0.0000000E+00
  -2.130000      0.0000000E+00
  -2.120000      0.0000000E+00
  -2.110000      0.0000000E+00
  -2.100000      0.0000000E+00
  -2.090000      0.0000000E+00
  -2.080000      0.0000000E+00
  -2.070000      0.0000000E+00
  -2.060000      0.0000000E+00
  -2.050000      0.0000000E+00
  -2.040000      0.0000000E+00
  -2.030000      0.0000000E+00
  -2.020000      0.0000000E+00
  -2.010000      0.0000000E+00
  -2.000000      0.0000000E+00
  -1.990000      0.0000000E+00
  -1.980000      0.0000000E+00
  -1.970000      0.0000000E+00
  -1.960000      0.0000000E+00
  -1.950000      0.0000000E+00
  -1.940000      0.0000000E+00
  -1.930000      0.0000000E+00
  -1.920000      0.0000000E+00
  -1.910000      0.0000000E+00
  -1.900000      0.0000000E+00
  -1.890000      0.0000000E+00
  -1.880000      0.0000000E+00
  -1.870000      0.0000000E+00
  -1.860000      0.0000000E+00
  -1.850000      0.0000000E+00
  -1.840000      0.0000000E+00
  -1.830000      0.0000000E+00
  -1.820000      0.0000000E+00
  -1.810000      0.0000000E+00
  -1.800000      0.0000000E+00
  -1.790000      0.0000000E+00
  -1.780000      0.0000000E+00
  -1.770000      0.0000000E+00
  -1.760000      0.0000000E+00
  -1.750000      0.0000000E+00
  -1.740000      0.0000000E+00
  -1.730000      0.0000000E+00
  -1.720000      0.0000000E+00
  -1.710000      0.0000000E+00
  -1.700000      0.0000000E+00
  -1.690000      0.0000000E+00
  -1.680000      0.0000000E+00
  -1.670000      0.0000000E+00
  -1.660000      0.0000000E+00
  -1.650000      0.0000000E+00
  -1.640000      0.0000000E+00
  -1.630000      0.0000000E+00
  -1.620000      0.0000000E+00
  -1.610000      0.0000000E+00
  -1.600000      0.0000000E+00
  -1.590000      0.0000000E+00
  -1.580000      0.0000000E+00
  -1.570000      0.0000000E+00
  -1.560000      0.0000000E+00
  -1.550000      0.0000000E+00
  -1.540000      0.0000000E+00
  -1.530000      0.0000000E+00
  -1.520000      0.0000000E+00
  -1.510000      0.0000000E+00
  -1.500000      0.0000000E+00
  -1.490000      0.0000000E+00
  -1.480000      0.0000000E+00
  -1.470000      0.0000000E+00
  -1.460000      0.0000000E+00
  -1.450000      0.0000000E+00
  -1.440000      0.0000000E+00
  -1.430000      0.0000000E+00
  -1.420000      0.0000000E+00
  -1.410000      0.0000000E+00
  -1.400000      0.0000000E+00
  -1.390000      0.0000000E+00
  -1.380000      0.0000000E+00
  -1.370000      0.0000000E+00
  -1.360000      0.0000000E+00
  -1.350000      0.0000000E+00
  -1.340000      0.0000000E+00
  -1.330000      0.0000000E+00
  -1.320000      0.0000000E+00
  -1.310000      0.0000000E+00
  -1.300000      0.0000000E+00
  -1.290000      0.0000000E+00
  -1.280000      0.0000000E+00
  -1.270000      0.0000000E+00
  -1.260000      0.0000000E+00
  -1.250000      0.0000000E+00
  -1.240000      0.0000000E+00
  -1.230000      0.0000000E+00
  -1.220000      0.0000000E+00
  -1.210000      0.0000000E+00
  -1.200000      0.0000000E+00
  -1.190000      0.0000000E+00
  -1.180000      0.0000000E+00
  -1.170000      0.0000000E+00
  -1.160000      0.0000000E+00
  -1.150000      0.0000000E+00
  -1.140000      0.0000000E+00
  -1.130000      0.0000000E+00
  -1.120000      0.0000000E+00
  -1.110000      0.0000000E+00
  -1.100000      0.0000000E+00
  -1.090000      0.0000000E+00
  -1.080000      0.0000000E+00
  -1.070000      0.0000000E+00
  -1.060000      0.0000000E+00
  -1.050000      0.0000000E+00
  -1.040000      0.0000000E+00
  -1.030000      0.0000000E+00
  -1.020000      0.0000000E+00
  -1.010000      0.0000000E+00
  -1.000000      0.0000000E+00
 -0.9900000      0.0000000E+00
 -0.9800000      0.0000000E+00
 -0.9700000      0.0000000E+00
 -0.9600000      0.0000000E+00
 -0.9500000      0.0000000E+00
 -0.9400000      0.0000000E+00
 -0.9300000      0.0000000E+00
 -0.9200000      0.0000000E+00
 -0.9100000      0.0000000E+00
 -0.9000000      0.0000000E+00
 -0.8900000      0.0000000E+00
 -0.8800000      0.0000000E+00
 -0.8700000      0.0000000E+00
 -0.8600000      0.0000000E+00
 -0.8500000      0.0000000E+00
 -0.8400000      0.0000000E+00
 -0.8300000      0.0000000E+00
 -0.8200000      0.0000000E+00
 -0.8100000      0.0000000E+00
 -0.8000000      0.0000000E+00
 -0.7900000      0.0000000E+00
 -0.7800000      0.0000000E+00
 -0.7700000      0.0000000E+00
 -0.7600000      0.0000000E+00
 -0.7500000      0.0000000E+00
 -0.7400000      0.0000000E+00
 -0.7300000      0.0000000E+00
 -0.7200000      0.0000000E+00
 -0.7100000      0.0000000E+00
 -0.7000000      0.0000000E+00
 -0.6900000      0.0000000E+00
 -0.6800000      0.0000000E+00
 -0.6700000      0.0000000E+00
 -0.6600000      0.0000000E+00
 -0.6500000      0.0000000E+00
 -0.6400000      0.0000000E+00
 -0.6300000      0.0000000E+00
 -0.6200000      0.0000000E+00
 -0.6100000      0.0000000E+00
 -0.6000000      0.0000000E+00
 -0.5900000      0.0000000E+00
 -0.5800000      0.0000000E+00
 -0.5700000      0.0000000E+00
 -0.5600000      0.0000000E+00
 -0.5500000      0.0000000E+00
 -0.5400000      0.0000000E+00
 -0.5300000      0.0000000E+00
 -0.5200000      0.0000000E+00
 -0.5100000      0.0000000E+00
 -0.5000000      0.0000000E+00
 -0.4900000      0.0000000E+00
 -0.4800000      0.0000000E+00
 -0.4700000      0.0000000E+00
 -0.4600000      0.0000000E+00
 -0.4500000      0.0000000E+00
 -0.4400000      0.0000000E+00
 -0.4300000      0.0000000E+00
 -0.4200000      0.0000000E+00
 -0.4100000      0.0000000E+00
 -0.4000000      0.0000000E+00
 -0.3900000      0.0000000E+00
 -0.3800000      0.0000000E+00
 -0.3700000      0.0000000E+00
 -0.3600000      0.0000000E+00
 -0.3500000      0.0000000E+00
 -0.3400000      0.0000000E+00
 -0.3300000      0.0000000E+00
 -0.3200000      0.0000000E+00
 -0.3100000      0.0000000E+00
 -0.3000000      0.0000000E+00
 -0.2900000      0.0000000E+00
 -0.2800000      0.0000000E+00
 -0.2700000      0.0000000E+00
 -0.2600000      0.0000000E+00
 -0.2500000      0.0000000E+00
 -0.2400000      0.0000000E+00
 -0.2300000      0.0000000E+00
 -0.2200000      0.0000000E+00
 -0.2100000      0.0000000E+00
 -0.2000000      0.0000000E+00
 -0.1900000      0.0000000E+00
 -0.1800000      0.0000000E+00
 -0.1700000      0.0000000E+00
 -0.1600000      0.0000000E+00
 -0.1500000      0.0000000E+00
 -0.1400000      0.0000000E+00
 -0.1300000      0.0000000E+00
 -0.1200000      0.0000000E+00
 -0.1100000      0.0000000E+00
 -0.1000000      0.0000000E+00
 -9.0000004E-02  0.0000000E+00
 -7.9999998E-02  0.0000000E+00
 -7.0000000E-02  0.0000000E+00
 -5.9999999E-02  0.0000000E+00
 -5.0000001E-02  0.0000000E+00
 -3.9999999E-02  0.0000000E+00
 -2.9999999E-02  0.0000000E+00
 -2.0000000E-02  0.0000000E+00
 -9.9999998E-03  0.0000000E+00
 -3.4694470E-17  0.0000000E+00
  9.9999998E-03  0.0000000E+00
  2.0000000E-02  0.0000000E+00
  2.9999999E-02  0.0000000E+00
  3.9999999E-02  0.0000000E+00
  5.0000001E-02  0.0000000E+00
  5.9999999E-02  0.0000000E+00
  7.0000000E-02  0.0000000E+00
  7.9999998E-02  0.0000000E+00
  9.0000004E-02  0.0000000E+00
  0.1000000      0.0000000E+00
  0.1100000      0.0000000E+00
  0.1200000      0.0000000E+00
  0.1300000      0.0000000E+00
  0.1400000      0.0000000E+00
  0.1500000      0.0000000E+00
  0.1600000      0.0000000E+00
  0.1700000      0.0000000E+00
  0.1800000      0.0000000E+00
  0.1900000      0.0000000E+00
  0.2000000      0.0000000E+00
  0.2100000      0.0000000E+00
  0.2200000      0.0000000E+00
  0.2300000      0.0000000E+00
  0.2400000      0.0000000E+00
  0.2500000      0.0000000E+00
  0.2600000      0.0000000E+00
  0.2700000      0.0000000E+00
  0.2800000      0.0000000E+00
  0.2900000      0.0000000E+00
  0.3000000      0.0000000E+00
  0.3100000      0.0000000E+00
  0.3200000      0.0000000E+00
  0.3300000      0.0000000E+00
  0.3400000      0.0000000E+00
  0.3500000      0.0000000E+00
  0.3600000      0.0000000E+00
  0.3700000      0.0000000E+00
  0.3800000      0.0000000E+00
  0.3900000      0.0000000E+00
  0.4000000      0.0000000E+00
  0.4100000      0.0000000E+00
  0.4200000      0.0000000E+00
  0.4300000      0.0000000E+00
  0.4400000      0.0000000E+00
  0.4500000      0.0000000E+00
  0.4600000      0.0000000E+00
  0.4700000      0.0000000E+00
  0.4800000      0.0000000E+00
  0.4900000      0.0000000E+00
  0.5000000      0.0000000E+00
  0.5100000      0.0000000E+00
  0.5200000      0.0000000E+00
  0.5300000      0.0000000E+00
  0.5400000      0.0000000E+00
  0.5500000      0.0000000E+00
  0.5600000      0.0000000E+00
  0.5700000      0.0000000E+00
  0.5800000      0.0000000E+00
  0.5900000      0.0000000E+00
  0.6000000      0.0000000E+00
  0.6100000      0.0000000E+00
  0.6200000      0.0000000E+00
  0.6300000      0.0000000E+00
  0.6400000      0.0000000E+00
  0.6500000      0.0000000E+00
  0.6600000      0.0000000E+00
  0.6700000      0.0000000E+00
  0.6800000      0.0000000E+00
  0.6900000      0.0000000E+00
  0.7000000      0.0000000E+00
  0.7100000      0.0000000E+00
  0.7200000      0.0000000E+00
  0.7300000      0.0000000E+00
  0.7400000      0.0000000E+00
  0.7500000      0.0000000E+00
  0.7600000      0.0000000E+00
  0.7700000      0.0000000E+00
  0.7800000      0.0000000E+00
  0.7900000      0.0000000E+00
  0.8000000      0.0000000E+00
  0.8100000      0.0000000E+00
  0.8200000      0.0000000E+00
  0.8300000      0.0000000E+00
  0.8400000      0.0000000E+00
  0.8500000      0.0000000E+00
  0.8600000      0.0000000E+00
  0.8700000      0.0000000E+00
  0.8800000      0.0000000E+00
  0.8900000      0.0000000E+00
  0.9000000      0.0000000E+00
  0.9100000      0.0000000E+00
  0.9200000      0.0000000E+00
  0.9300000      0.0000000E+00
  0.9400000      0.0000000E+00
  0.9500000      0.0000000E+00
  0.9600000      0.0000000E+00
  0.9700000      0.0000000E+00
  0.9800000      0.0000000E+00
  0.9900000      0.0000000E+00
   1.000000      0.0000000E+00
   1.010000      0.0000000E+00
   1.020000      0.0000000E+00
   1.030000      0.0000000E+00
   1.040000      0.0000000E+00
   1.050000      0.0000000E+00
   1.060000      0.0000000E+00
   1.070000      0.0000000E+00
   1.080000      0.0000000E+00
   1.090000      0.0000000E+00
   1.100000      0.0000000E+00
   1.110000      0.0000000E+00
   1.120000      0.0000000E+00
   1.130000      0.0000000E+00
   1.140000      0.0000000E+00
   1.150000      0.0000000E+00
   1.160000      0.0000000E+00
   1.170000      0.0000000E+00
   1.180000      0.0000000E+00
   1.190000      0.0000000E+00
   1.200000      0.0000000E+00
   1.210000      0.0000000E+00
   1.220000      0.0000000E+00
   1.230000      0.0000000E+00
   1.240000      0.0000000E+00
   1.250000      0.0000000E+00
   1.260000      0.0000000E+00
   1.270000      0.0000000E+00
   1.280000      0.0000000E+00
   1.290000      0.0000000E+00
   1.300000      0.0000000E+00
   1.310000      0.0000000E+00
   1.320000      0.0000000E+00
   1.330000      0.0000000E+00
   1.340000      0.0000000E+00
   1.350000      0.0000000E+00
   1.360000      0.0000000E+00
   1.370000      0.0000000E+00
   1.380000      0.0000000E+00
   1.390000      0.0000000E+00
   1.400000      0.0000000E+00
   1.410000      0.0000000E+00
   1.420000      0.0000000E+00
   1.430000      0.0000000E+00
   1.440000      0.0000000E+00
   1.450000      0.0000000E+00
   1.460000      0.0000000E+00
   1.470000      0.0000000E+00
   1.480000      0.0000000E+00
   1.490000      0.0000000E+00
   1.500000      0.0000000E+00
   1.510000      0.0000000E+00
   1.520000      0.0000000E+00
   1.530000      0.0000000E+00
   1.540000      0.0000000E+00
   1.550000      0.0000000E+00
   1.560000      0.0000000E+00
   1.570000      0.0000000E+00
   1.580000      0.0000000E+00
   1.590000      0.0000000E+00
   1.600000      0.0000000E+00
   1.610000      0.0000000E+00
   1.620000      0.0000000E+00
   1.630000      0.0000000E+00
   1.640000      0.0000000E+00
   1.650000      0.0000000E+00
   1.660000      0.0000000E+00
   1.670000      0.0000000E+00
   1.680000      0.0000000E+00
   1.690000      0.0000000E+00
   1.700000      0.0000000E+00
   1.710000      0.0000000E+00
   1.720000      0.0000000E+00
   1.730000      0.0000000E+00
   1.740000      0.0000000E+00
   1.750000      0.0000000E+00
   1.760000      0.0000000E+00
   1.770000      0.0000000E+00
   1.780000      0.0000000E+00
   1.790000      0.0000000E+00
   1.800000      0.0000000E+00
   1.810000      0.0000000E+00
   1.820000      0.0000000E+00
   1.830000      0.0000000E+00
   1.840000      0.0000000E+00
   1.850000      0.0000000E+00
   1.860000      0.0000000E+00
   1.870000      0.0000000E+00
   1.880000      0.0000000E+00
   1.890000      0.0000000E+00
   1.900000      0.0000000E+00
   1.910000      0.0000000E+00
   1.920000      0.0000000E+00
   1.930000      0.0000000E+00
   1.940000      0.0000000E+00
   1.950000      0.0000000E+00
   1.960000      0.0000000E+00
   1.970000      0.0000000E+00
   1.980000      0.0000000E+00
   1.990000      0.0000000E+00
   2.000000      0.0000000E+00
   2.010000      0.0000000E+00
   2.020000      0.0000000E+00
   2.030000      0.0000000E+00
   2.040000      0.0000000E+00
   2.050000      0.0000000E+00
   2.060000      0.0000000E+00
   2.070000      0.0000000E+00
   2.080000      0.0000000E+00
   2.090000      0.0000000E+00
   2.100000      0.0000000E+00
   2.110000      0.0000000E+00
   2.120000      0.0000000E+00
   2.130000      0.0000000E+00
   2.140000      0.0000000E+00
   2.150000      0.0000000E+00
   2.160000      0.0000000E+00
   2.170000      0.0000000E+00
   2.180000      0.0000000E+00
   2.190000      0.0000000E+00
   2.200000      0.0000000E+00
   2.210000      0.0000000E+00
   2.220000      0.0000000E+00
   2.230000      0.0000000E+00
   2.240000      0.0000000E+00
   2.250000      0.0000000E+00
   2.260000      0.0000000E+00
   2.270000      0.0000000E+00
   2.280000      0.0000000E+00
   2.290000      0.0000000E+00
   2.300000      0.0000000E+00
   2.310000      0.0000000E+00
   2.320000      0.0000000E+00
   2.330000      0.0000000E+00
   2.340000      0.0000000E+00
   2.350000      0.0000000E+00
   2.360000      0.0000000E+00
   2.370000      0.0000000E+00
   2.380000      0.0000000E+00
   2.390000      0.0000000E+00
   2.400000      0.0000000E+00
   2.410000      0.0000000E+00
   2.420000      0.0000000E+00
   2.430000      0.0000000E+00
   2.440000      0.0000000E+00
   2.450000      0.0000000E+00
   2.460000      0.0000000E+00
   2.470000      0.0000000E+00
   2.480000      0.0000000E+00
   2.490000      0.0000000E+00
   2.500000      0.0000000E+00
   2.510000      0.0000000E+00
   2.520000      0.0000000E+00
   2.530000      0.0000000E+00
   2.540000      0.0000000E+00
   2.550000      0.0000000E+00
   2.560000      0.0000000E+00
   2.570000      0.0000000E+00
   2.580000      0.0000000E+00
   2.590000      0.0000000E+00
   2.600000      0.0000000E+00
   2.610000      0.0000000E+00
   2.620000      0.0000000E+00
   2.630000      0.0000000E+00
   2.640000      0.0000000E+00
   2.650000      0.0000000E+00
   2.660000      0.0000000E+00
   2.670000      0.0000000E+00
   2.680000      0.0000000E+00
   2.690000      0.0000000E+00
   2.700000      0.0000000E+00
   2.710000      0.0000000E+00
   2.720000      0.0000000E+00
   2.730000      0.0000000E+00
   2.740000      0.0000000E+00
   2.750000      0.0000000E+00
   2.760000      0.0000000E+00
   2.770000      0.0000000E+00
   2.780000      0.0000000E+00
   2.790000      0.0000000E+00
   2.800000      0.0000000E+00
   2.810000      0.0000000E+00
   2.820000      0.0000000E+00
   2.830000      0.0000000E+00
   2.840000      0.0000000E+00
   2.850000      0.0000000E+00
   2.860000      0.0000000E+00
   2.870000      0.0000000E+00
   2.880000      0.0000000E+00
   2.890000      0.0000000E+00
   2.900000      0.0000000E+00
   2.910000      0.0000000E+00
   2.920000      0.0000000E+00
   2.930000      0.0000000E+00
   2.940000      0.0000000E+00
   2.950000      0.0000000E+00
   2.960000      0.0000000E+00
   2.970000      0.0000000E+00
   2.980000      0.0000000E+00
   2.990000      0.0000000E+00
   3.000000      0.0000000E+00
   3.010000      0.0000000E+00
   3.020000      0.0000000E+00
   3.030000      0.0000000E+00
   3.040000      0.0000000E+00
   3.050000      0.0000000E+00
   3.060000      0.0000000E+00
   3.070000      0.0000000E+00
   3.080000      0.0000000E+00
   3.090000      0.0000000E+00
   3.100000      0.0000000E+00
   3.110000      0.0000000E+00
   3.120000      0.0000000E+00
   3.130000      0.0000000E+00
   3.140000      0.0000000E+00
   3.150000      0.0000000E+00
   3.160000      0.0000000E+00
   3.170000      0.0000000E+00
   3.180000      0.0000000E+00
   3.190000      0.0000000E+00
   3.200000      0.0000000E+00
   3.210000      0.0000000E+00
   3.220000      0.0000000E+00
   3.230000      0.0000000E+00
   3.240000      0.0000000E+00
   3.250000      0.0000000E+00
   3.260000      0.0000000E+00
   3.270000      0.0000000E+00
   3.280000      0.0000000E+00
   3.290000      0.0000000E+00
   3.300000      0.0000000E+00
   3.310000      0.0000000E+00
   3.320000      0.0000000E+00
   3.330000      0.0000000E+00
   3.340000      0.0000000E+00
   3.350000      0.0000000E+00
   3.360000      0.0000000E+00
   3.370000      0.0000000E+00
   3.380000      0.0000000E+00
   3.390000      0.0000000E+00
   3.400000      0.0000000E+00
   3.410000      0.0000000E+00
   3.420000      0.0000000E+00
   3.430000      0.0000000E+00
   3.440000      0.0000000E+00
   3.450000      0.0000000E+00
   3.460000      0.0000000E+00
   3.470000      0.0000000E+00
   3.480000      0.0000000E+00
   3.490000      0.0000000E+00
   3.500000      0.0000000E+00
   3.510000      0.0000000E+00
   3.520000      0.0000000E+00
   3.530000      0.0000000E+00
   3.540000      0.0000000E+00
   3.550000      0.0000000E+00
   3.560000      0.0000000E+00
   3.570000      0.0000000E+00
   3.580000      0.0000000E+00
   3.590000      0.0000000E+00
   3.600000      0.0000000E+00
   3.610000      0.0000000E+00
   3.620000      0.0000000E+00
   3.630000     -1.3917429E-38
   3.640000     -1.6748520E-38
   3.650000     -1.8065034E-38
   3.660000     -1.8065034E-38
   3.670000     -1.8106219E-38
   3.680000     -1.8195055E-38
   3.690000     -1.8363173E-38
   3.700000     -1.8527052E-38
   3.710000     -1.8610316E-38
   3.720000     -1.8658585E-38
   3.730000     -1.8675070E-38
   3.740000     -1.8690271E-38
   3.750000     -2.0176432E-38
   3.760000     -2.3303841E-38
   3.770000     -2.6619015E-38
   3.780000     -2.9739558E-38
   3.790000     -3.2520144E-38
   3.800000     -3.3605674E-38
   3.810000     -3.3196144E-38
   3.820000     -3.2777924E-38
   3.830000     -3.2360718E-38
   3.840000     -3.1959750E-38
   3.850000     -3.1608478E-38
   3.860000     -3.1376258E-38
   3.870000     -2.9960837E-38
   3.880000     -2.6763705E-38
   3.890000     -2.2675548E-38
   3.900000     -1.8036679E-38
   3.910000     -1.3158534E-38
   3.920000      0.0000000E+00
   3.930000      0.0000000E+00
   3.940000      0.0000000E+00
   3.950000      0.0000000E+00
   3.960000      0.0000000E+00
   3.970000      1.5024761E-38
   3.980000      1.8485021E-38
   3.990000      2.0363283E-38
   4.000000      2.2133424E-38
   4.010000      2.5280526E-38
   4.020000      2.8721428E-38
   4.030000      3.2515971E-38
   4.040000      4.0175286E-38
   4.050000      5.1621666E-38
   4.060000      6.3285957E-38
   4.070000      7.4938740E-38
   4.080000      8.6319223E-38
   4.090000      9.3998042E-38
   4.100000      9.8098101E-38
   4.110000      1.0229656E-37
   4.120000      1.0664651E-37
   4.130000      1.1127213E-37
   4.140000      1.1627721E-37
   4.150000      1.2144904E-37
   4.160000      1.2675674E-37
   4.170000      1.3217979E-37
   4.180000      1.3751582E-37
   4.190000      1.4251544E-37
   4.200000      1.4684772E-37
   4.210000      1.5014433E-37
   4.220000      1.5201168E-37
   4.230000      1.4748650E-37
   4.240000      1.3648770E-37
   4.250000      1.2360815E-37
   4.260000      1.0802490E-37
   4.270000      8.9368718E-38
   4.280000      6.8154286E-38
   4.290000      4.4570559E-38
   4.300000      1.8780121E-38
   4.310000      0.0000000E+00
   4.320000     -4.1202659E-38
   4.330000     -7.5709499E-38
   4.340000     -1.0260237E-37
   4.350000     -1.2057748E-37
   4.360000     -1.4071470E-37
   4.370000     -1.6328846E-37
   4.380000     -1.8784613E-37
   4.390000     -2.1534307E-37
   4.400000     -2.4646188E-37
   4.410000     -2.8104931E-37
   4.420000     -3.1887029E-37
   4.430000     -3.6341380E-37
   4.440000     -4.1700033E-37
   4.450000     -4.7635310E-37
   4.460000     -5.3866801E-37
   4.470000     -6.0200217E-37
   4.480000     -6.6475420E-37
   4.490000     -7.2398374E-37
   4.500000     -7.7906643E-37
   4.510000     -8.2899050E-37
   4.520000     -8.7428818E-37
   4.530000     -9.2627210E-37
   4.540000     -9.9191457E-37
   4.550000     -1.0651334E-36
   4.560000     -1.1390651E-36
   4.570000     -1.2159492E-36
   4.580000     -1.3002424E-36
   4.590000     -1.3746051E-36
   4.600000     -1.4382126E-36
   4.610000     -1.5040316E-36
   4.620000     -1.5698100E-36
   4.630000     -1.7803188E-36
   4.640000     -2.2349063E-36
   4.650000     -2.8212698E-36
   4.660000     -3.4519837E-36
   4.670000     -4.1192223E-36
   4.680000     -4.8371306E-36
   4.690000     -5.5102474E-36
   4.700000     -6.1480371E-36
   4.710000     -6.8423852E-36
   4.720000     -7.2171845E-36
   4.730000     -7.2214211E-36
   4.740000     -7.1906060E-36
   4.750000     -6.7313474E-36
   4.760000     -5.7603671E-36
   4.770000     -4.6811304E-36
   4.780000     -3.5294196E-36
   4.790000     -2.2921589E-36
   4.800000     -1.0087032E-36
   4.810000      2.9631763E-37
   4.820000      1.6074889E-36
   4.830000      2.9033337E-36
   4.840000      4.0653583E-36
   4.850000      5.0534609E-36
   4.860000      5.9082643E-36
   4.870000      6.5429275E-36
   4.880000      6.9696290E-36
   4.890000      7.2491239E-36
   4.900000      7.3163812E-36
   4.910000      7.0375499E-36
   4.920000      6.4569358E-36
   4.930000      5.8750973E-36
   4.940000      5.4062143E-36
   4.950000      4.9981594E-36
   4.960000      4.8197173E-36
   4.970000      4.8658952E-36
   4.980000      5.1344767E-36
   4.990000      5.7008707E-36
   5.000000      6.5565587E-36
   5.010000      7.6192690E-36
   5.020000      9.0565885E-36
   5.030000      1.0955963E-35
   5.040000      1.2923768E-35
   5.050000      1.4806584E-35
   5.060000      1.7032839E-35
   5.070000      1.9644113E-35
   5.080000      2.1952083E-35
   5.090000      2.4072867E-35
   5.100000      2.6360886E-35
   5.110000      2.8329867E-35
   5.120000      3.0001672E-35
   5.130000      3.1913122E-35
   5.140000      3.3870816E-35
   5.150000      3.5176835E-35
   5.160000      3.5807007E-35
   5.170000      3.6120620E-35
   5.180000      3.6200293E-35
   5.190000      3.6043647E-35
   5.200000      3.5541344E-35
   5.210000      3.4710009E-35
   5.220000      3.3692351E-35
   5.230000      3.2585151E-35
   5.240000      3.1292988E-35
   5.250000      2.9731862E-35
   5.260000      2.7934989E-35
   5.270000      2.5920305E-35
   5.280000      2.3529439E-35
   5.290000      2.0812844E-35
   5.300000      1.7930097E-35
   5.310000      1.4840691E-35
   5.320000      1.1529578E-35
   5.330000      7.9639735E-36
   5.340000      4.1440212E-36
   5.350000      1.1098082E-37
   5.360000     -4.1528187E-36
   5.370000     -8.7801615E-36
   5.380000     -1.3774088E-35
   5.390000     -1.9013772E-35
   5.400000     -2.4440683E-35
   5.410000     -3.0122341E-35
   5.420000     -3.5982201E-35
   5.430000     -4.1836800E-35
   5.440000     -4.8029413E-35
   5.450000     -5.4754515E-35
   5.460000     -6.2250404E-35
   5.470000     -7.0546610E-35
   5.480000     -7.9465829E-35
   5.490000     -8.9336859E-35
   5.500000     -9.9931300E-35
   5.510000     -1.1092484E-34
   5.520000     -1.2255535E-34
   5.530000     -1.3445797E-34
   5.540000     -1.4355846E-34
   5.550000     -1.4957170E-34
   5.560000     -1.5510172E-34
   5.570000     -1.6054490E-34
   5.580000     -1.6612024E-34
   5.590000     -1.7193611E-34
   5.600000     -1.7915760E-34
   5.610000     -1.9094207E-34
   5.620000     -2.0787809E-34
   5.630000     -2.2664750E-34
   5.640000     -2.4559523E-34
   5.650000     -2.6502792E-34
   5.660000     -2.8182890E-34
   5.670000     -2.9575569E-34
   5.680000     -3.0670142E-34
   5.690000     -3.1335433E-34
   5.700000     -3.1818800E-34
   5.710000     -3.2212226E-34
   5.720000     -3.2507968E-34
   5.730000     -3.2647517E-34
   5.740000     -3.2658043E-34
   5.750000     -3.2635250E-34
   5.760000     -3.2531322E-34
   5.770000     -3.2268590E-34
   5.780000     -3.1799650E-34
   5.790000     -3.1197811E-34
   5.800000     -3.0567619E-34
   5.810000     -2.9848832E-34
   5.820000     -2.8996482E-34
   5.830000     -2.8130216E-34
   5.840000     -2.7251017E-34
   5.850000     -2.6205300E-34
   5.860000     -2.4924526E-34
   5.870000     -2.3362004E-34
   5.880000     -2.1510986E-34
   5.890000     -1.9363381E-34
   5.900000     -1.6864938E-34
   5.910000     -1.3986662E-34
   5.920000     -1.0733341E-34
   5.930000     -7.2374028E-35
   5.940000     -3.5050897E-35
   5.950000      5.6491569E-36
   5.960000      5.3315028E-35
   5.970000      1.1135372E-34
   5.980000      1.7612423E-34
   5.990000      2.4509342E-34
   6.000000      3.1930920E-34
   6.010000      3.9227257E-34
   6.020000      4.6323946E-34
   6.030000      5.3983673E-34
   6.040000      6.2168136E-34
   6.050000      7.0634050E-34
   6.060000      7.8917879E-34
   6.070000      8.6800826E-34
   6.080000      9.5538606E-34
   6.090000      1.0480553E-33
   6.100000      1.1346113E-33
   6.110000      1.2171935E-33
   6.120000      1.3003910E-33
   6.130000      1.3907547E-33
   6.140000      1.4807915E-33
   6.150000      1.5678646E-33
   6.160000      1.6580530E-33
   6.170000      1.7465861E-33
   6.180000      1.8339899E-33
   6.190000      1.9235014E-33
   6.200000      2.0130899E-33
   6.210000      2.1019510E-33
   6.220000      2.1902136E-33
   6.230000      2.2805634E-33
   6.240000      2.3735367E-33
   6.250000      2.4674929E-33
   6.260000      2.5618402E-33
   6.270000      2.6553635E-33
   6.280000      2.7471639E-33
   6.290000      2.8369412E-33
   6.300000      2.9226926E-33
   6.310000      3.0025704E-33
   6.320000      3.0766067E-33
   6.330000      3.1434133E-33
   6.340000      3.2009071E-33
   6.350000      3.2476661E-33
   6.360000      3.2819486E-33
   6.370000      3.3026594E-33
   6.380000      3.3090798E-33
   6.390000      3.2990980E-33
   6.400000      3.2723048E-33
   6.410000      3.2280713E-33
   6.420000      3.1643463E-33
   6.430000      3.0809747E-33
   6.440000      2.9774649E-33
   6.450000      2.8541840E-33
   6.460000      2.7121270E-33
   6.470000      2.5508248E-33
   6.480000      2.3693497E-33
   6.490000      2.1666885E-33
   6.500000      1.9434314E-33
   6.510000      1.6992002E-33
   6.520000      1.4321700E-33
   6.530000      1.1420672E-33
   6.540000      8.2881232E-34
   6.550000      4.9166025E-34
   6.560000      1.2957627E-34
   6.570000     -2.5832822E-34
   6.580000     -6.7260611E-34
   6.590000     -1.1143028E-33
   6.600000     -1.5850123E-33
   6.610000     -2.0858664E-33
   6.620000     -2.6178998E-33
   6.630000     -3.1818586E-33
   6.640000     -3.7783577E-33
   6.650000     -4.4080832E-33
   6.660000     -5.0698917E-33
   6.670000     -5.7655838E-33
   6.680000     -6.4991643E-33
   6.690000     -7.2653544E-33
   6.700000     -8.0604566E-33
   6.710000     -8.8870062E-33
   6.720000     -9.7464726E-33
   6.730000     -1.0634421E-32
   6.740000     -1.1544812E-32
   6.750000     -1.2475726E-32
   6.760000     -1.3425101E-32
   6.770000     -1.4389886E-32
   6.780000     -1.5366482E-32
   6.790000     -1.6354819E-32
   6.800000     -1.7351969E-32
   6.810000     -1.8352303E-32
   6.820000     -1.9351953E-32
   6.830000     -2.0346868E-32
   6.840000     -2.1332952E-32
   6.850000     -2.2305993E-32
   6.860000     -2.3261279E-32
   6.870000     -2.4194219E-32
   6.880000     -2.5100181E-32
   6.890000     -2.5974070E-32
   6.900000     -2.6810752E-32
   6.910000     -2.7604628E-32
   6.920000     -2.8350161E-32
   6.930000     -2.9041702E-32
   6.940000     -2.9673080E-32
   6.950000     -3.0238058E-32
   6.960000     -3.0730082E-32
   6.970000     -3.1142119E-32
   6.980000     -3.1467023E-32
   6.990000     -3.1697352E-32
   7.000000     -3.1825619E-32
   7.010000     -3.1843554E-32
   7.020000     -3.1742867E-32
   7.030000     -3.1515677E-32
   7.040000     -3.1153707E-32
   7.050000     -3.0648788E-32
   7.060000     -2.9992694E-32