  -2.600000      0.0000000E+00
  -2.590000      0.0000000E+00
  -2.580000      0.0000000E+00
  -2.570000      0.0000000E+00
  -2.560000      0.0000000E+00
  -2.550000      0.0000000E+00
  -2.540000      0.0000000E+00
  -2.530000      0.0000000E+00
  -2.520000      0.0000000E+00
  -2.510000      0.0000000E+00
  -2.500000      0.0000000E+00
  -2.490000      0.0000000E+00
  -2.480000      0.0000000E+00
  -2.470000      0.0000000E+00
  -2.460000      0.0000000E+00
  -2.450000      0.0000000E+00
  -2.440000      0.0000000E+00
  -2.430000      0.0000000E+00
  -2.420000      0.0000000E+00
  -2.410000      0.0000000E+00
  -2.400000      0.0000000E+00
  -2.390000      0.0000000E+00
  -2.380000      0.0000000E+00
  -2.370000      0.0000000E+00
  -2.360000      0.0000000E+00
  -2.350000      0.0000000E+00
  -2.340000      0.0000000E+00
  -2.330000      0.0000000E+00
  -2.320000      0.0000000E+00
  -2.310000      0.0000000E+00
  -2.300000      0.0000000E+00
  -2.290000      0.0000000E+00
  -2.280000      0.0000000E+00
  -2.270000      0.0000000E+00
  -2.260000      0.0000000E+00
  -2.250000      0.0000000E+00
  -2.240000      0.0000000E+00
  -2.230000      0.0000000E+00
  -2.220000      0.0000000E+00
  -2.210000      0.0000000E+00
  -2.200000      0.0000000E+00
  -2.190000      0.0000000E+00
  -2.180000      0.0000000E+00
  -2.170000      0.0000000E+00
  -2.160000      0.0000000E+00
  -2.150000      0.0000000E+00
  -2.140000      0.0000000E+00
  -2.130000      0.0000000E+00
  -2.120000      0.0000000E+00
  -2.110000      0.0000000E+00
  -2.100000      0.0000000E+00
  -2.090000      0.0000000E+00
  -2.080000      0.0000000E+00
  -2.070000      0.0000000E+00
  -2.060000      0.0000000E+00
  -2.050000      0.0000000E+00
  -2.040000      0.0000000E+00
  -2.030000      0.0000000E+00
  -2.020000      0.0000000E+00
  -2.010000      0.0000000E+00
  -2.000000      0.0000000E+00
  -1.990000      0.0000000E+00
  -1.980000      0.0000000E+00
  -1.970000      0.0000000E+00
  -1.960000      0.0000000E+00
  -1.950000      0.0000000E+00
  -1.940000      0.0000000E+00
  -1.930000      0.0000000E+00
  -1.920000      0.0000000E+00
  -1.910000      0.0000000E+00
  -1.900000      0.0000000E+00
  -1.890000      0.0000000E+00
  -1.880000      0.0000000E+00
  -1.870000      0.0000000E+00
  -1.860000      0.0000000E+00
  -1.850000      0.0000000E+00
  -1.840000      0.0000000E+00
  -1.830000      0.0000000E+00
  -1.820000      0.0000000E+00
  -1.810000      0.0000000E+00
  -1.800000      0.0000000E+00
  -1.790000      0.0000000E+00
  -1.780000      0.0000000E+00
  -1.770000      0.0000000E+00
  -1.760000      0.0000000E+00
  -1.750000      0.0000000E+00
  -1.740000      0.0000000E+00
  -1.730000      0.0000000E+00
  -1.720000      0.0000000E+00
  -1.710000      0.0000000E+00
  -1.700000      0.0000000E+00
  -1.690000      0.0000000E+00
  -1.680000      0.0000000E+00
  -1.670000      0.0000000E+00
  -1.660000      0.0000000E+00
  -1.650000      0.0000000E+00
  -1.640000      0.0000000E+00
  -1.630000      0.0000000E+00
  -1.620000      0.0000000E+00
  -1.610000      0.0000000E+00
  -1.600000      0.0000000E+00
  -1.590000      0.0000000E+00
  -1.580000      0.0000000E+00
  -1.570000      0.0000000E+00
  -1.560000      0.0000000E+00
  -1.550000      0.0000000E+00
  -1.540000      0.0000000E+00
  -1.530000      0.0000000E+00
  -1.520000      0.0000000E+00
  -1.510000      0.0000000E+00
  -1.500000      0.0000000E+00
  -1.490000      0.0000000E+00
  -1.480000      0.0000000E+00
  -1.470000      0.0000000E+00
  -1.460000      0.0000000E+00
  -1.450000      0.0000000E+00
  -1.440000      0.0000000E+00
  -1.430000      0.0000000E+00
  -1.420000      0.0000000E+00
  -1.410000      0.0000000E+00
  -1.400000      0.0000000E+00
  -1.390000      0.0000000E+00
  -1.380000      0.0000000E+00
  -1.370000      0.0000000E+00
  -1.360000      0.0000000E+00
  -1.350000      0.0000000E+00
  -1.340000      0.0000000E+00
  -1.330000      0.0000000E+00
  -1.320000      0.0000000E+00
  -1.310000      0.0000000E+00
  -1.300000      0.0000000E+00
  -1.290000      0.0000000E+00
  -1.280000      0.0000000E+00
  -1.270000      0.0000000E+00
  -1.260000      0.0000000E+00
  -1.250000      0.0000000E+00
  -1.240000      0.0000000E+00
  -1.230000      0.0000000E+00
  -1.220000      0.0000000E+00
  -1.210000      0.0000000E+00
  -1.200000      0.0000000E+00
  -1.190000      0.0000000E+00
  -1.180000      0.0000000E+00
  -1.170000      0.0000000E+00
  -1.160000      0.0000000E+00
  -1.150000     -2.6268735E-38
  -1.140000     -4.8138543E-38
  -1.130000     -7.5626111E-38
  -1.120000     -1.0330475E-37
  -1.110000     -1.3290266E-37
  -1.100000     -1.6097904E-37
  -1.090000     -1.7006758E-37
  -1.080000     -1.3918532E-37
  -1.070000     -6.2312363E-38
  -1.060000      5.2061775E-38
  -1.050000      2.0292324E-37
  -1.040000      3.7991932E-37
  -1.030000      5.8115475E-37
  -1.020000      8.1502209E-37
  -1.010000      1.0645582E-36
  -1.000000      1.3051959E-36
 -0.9900000      1.5191912E-36
 -0.9800000      1.6811955E-36
 -0.9700000      1.7350816E-36
 -0.9600000      1.6385673E-36
 -0.9500000      1.3564662E-36
 -0.9400000      8.2107032E-37
 -0.9300000     -1.4871849E-38
 -0.9200000     -1.2274097E-36
 -0.9100000     -2.8844941E-36
 -0.9000000     -4.9647202E-36
 -0.8900000     -7.3508561E-36
 -0.8800000     -1.0010431E-35
 -0.8700000     -1.2700744E-35
 -0.8600000     -1.5199083E-35
 -0.8500000     -1.7386140E-35
 -0.8400000     -1.8642911E-35
 -0.8300000     -1.8521513E-35
 -0.8200000     -1.6629276E-35
 -0.8100000     -1.2475928E-35
 -0.8000000     -6.6731747E-36
 -0.7900000      1.1731697E-36
 -0.7800000      1.1750832E-35
 -0.7700000      2.4879298E-35
 -0.7600000      4.0590193E-35
 -0.7500000      5.8442566E-35
 -0.7400000      7.8016521E-35
 -0.7300000      9.8328633E-35
 -0.7200000      1.1768909E-34
 -0.7100000      1.3457148E-34
 -0.7000000      1.4722420E-34
 -0.6900000      1.5287054E-34
 -0.6800000      1.4847620E-34
 -0.6700000      1.3190894E-34
 -0.6600000      1.0132105E-34
 -0.6500000      5.3656634E-35
 -0.6400000     -1.4048489E-35
 -0.6300000     -1.0226502E-34
 -0.6200000     -2.1089351E-34
 -0.6100000     -3.3800479E-34
 -0.6000000     -4.7869285E-34
 -0.5900000     -6.2901189E-34
 -0.5800000     -7.8027956E-34
 -0.5700000     -9.2132529E-34
 -0.5600000     -1.0409552E-33
 -0.5500000     -1.1238549E-33
 -0.5400000     -1.1555855E-33
 -0.5300000     -1.1193312E-33
 -0.5200000     -9.9897900E-34
 -0.5100000     -7.7847178E-34
 -0.5000000     -4.4304681E-34
 -0.4900000      1.5876386E-35
 -0.4800000      6.0620156E-34
 -0.4700000      1.3283143E-33
 -0.4600000      2.1722856E-33
 -0.4500000      3.1167590E-33
 -0.4400000      4.1275930E-33
 -0.4300000      5.1585603E-33
 -0.4200000      6.1491689E-33
 -0.4100000      7.0257336E-33
 -0.4000000      7.7031291E-33
 -0.3900000      8.0826220E-33
 -0.3800000      8.0581974E-33
 -0.3700000      7.5259064E-33
 -0.3600000      6.3839401E-33
 -0.3500000      4.5388114E-33
 -0.3400000      1.9169211E-33
 -0.3300000     -1.5260048E-33
 -0.3200000     -5.7941163E-33
 -0.3100000     -1.0843129E-32
 -0.3000000     -1.6571811E-32
 -0.2900000     -2.2811257E-32
 -0.2800000     -2.9318930E-32
 -0.2700000     -3.5774872E-32
 -0.2600000     -4.1780590E-32
 -0.2500000     -4.6863930E-32
 -0.2400000     -5.0488828E-32
 -0.2300000     -5.2067735E-32
 -0.2200000     -5.0984664E-32
 -0.2100000     -4.6624899E-32
 -0.2000000     -3.8404984E-32
 -0.1900000     -2.5814937E-32
 -0.1800000     -8.4650662E-33
 -0.1700000      1.3870736E-32
 -0.1600000      4.1195814E-32
 -0.1500000      7.3245999E-32
 -0.1400000      1.0944877E-31
 -0.1300000      1.4887564E-31
 -0.1200000      1.9021496E-31
 -0.1100000      2.3175583E-31
 -0.1000000      2.7138991E-31
 -9.0000004E-02  3.0663332E-31
 -7.9999998E-02  3.3467255E-31
 -7.0000000E-02  3.5243775E-31
 -5.9999999E-02  3.5670310E-31
 -5.0000001E-02  3.4421583E-31
 -3.9999999E-02  3.1185280E-31
 -2.9999999E-02  2.5680306E-31
 -2.0000000E-02  1.7677064E-31
 -9.9999998E-03  7.0192535E-32
 -3.4694470E-17 -6.3535722E-32
  9.9999998E-03 -2.2383723E-31
  2.0000000E-02 -4.0874473E-31
  2.9999999E-02 -6.1471861E-31
  3.9999999E-02 -8.3650595E-31
  5.0000001E-02 -1.0670560E-30
  5.9999999E-02 -1.2975070E-30
  7.0000000E-02 -1.5172597E-30
  7.9999998E-02 -1.7141525E-30
  9.0000004E-02 -1.8747497E-30
  0.1000000     -1.9847549E-30
  0.1100000     -2.0295563E-30
  0.1200000     -1.9949087E-30
  0.1300000     -1.8677541E-30
  0.1400000     -1.6371723E-30
  0.1500000     -1.2954610E-30
  0.1600000     -8.3932572E-31
  0.1700000     -2.7116475E-31
  0.1800000      3.9957404E-31
  0.1900000      1.1549875E-30
  0.2000000      1.9672915E-30
  0.2100000      2.7974078E-30
  0.2200000      3.5935901E-30
  0.2300000      4.2901289E-30
  0.2400000      4.8061593E-30
  0.2500000      5.0445943E-30
  0.2600000      4.8912233E-30
  0.2700000      4.2139844E-30
  0.2800000      2.8624271E-30
  0.2900000      6.6738184E-31
  0.3000000     -2.5591642E-30
  0.3100000     -7.0239869E-30
  0.3200000     -1.2952338E-29
  0.3300000     -2.0587464E-29
  0.3400000     -3.0189951E-29
  0.3500000     -4.2036885E-29
  0.3600000     -5.6420864E-29
  0.3700000     -7.3648867E-29
  0.3800000     -9.4040932E-29
  0.3900000     -1.1792880E-28
  0.4000000     -1.4565424E-28
  0.4100000     -1.7756737E-28
  0.4200000     -2.1402472E-28
  0.4300000     -2.5538703E-28
  0.4400000     -3.0201692E-28
  0.4500000     -3.5427616E-28
  0.4600000     -4.1252264E-28
  0.4700000     -4.7710697E-28
  0.4800000     -5.4836878E-28
  0.4900000     -6.2663270E-28
  0.5000000     -7.1220331E-28
  0.5100000     -8.0536054E-28
  0.5200000     -9.0635419E-28
  0.5300000     -1.0153982E-27
  0.5400000     -1.1326653E-27
  0.5500000     -1.2582805E-27
  0.5600000     -1.3923160E-27
  0.5700000     -1.5347853E-27
  0.5800000     -1.6856392E-27
  0.5900000     -1.8447605E-27
  0.6000000     -2.0119624E-27
  0.6100000     -2.1869861E-27
  0.6200000     -2.3695011E-27
  0.6300000     -2.5591068E-27
  0.6400000     -2.7553367E-27
  0.6500000     -2.9576647E-27
  0.6600000     -3.1655132E-27
  0.6700000     -3.3782641E-27
  0.6800000     -3.5952713E-27
  0.6900000     -3.8158785E-27
  0.7000000     -4.0394331E-27
  0.7100000     -4.2653081E-27
  0.7200000     -4.4929207E-27
  0.7300000     -4.7217539E-27
  0.7400000     -4.9513795E-27
  0.7500000     -5.1814784E-27
  0.7600000     -5.4118608E-27
  0.7700000     -5.6424856E-27
  0.7800000     -5.8734770E-27
  0.7900000     -6.1051436E-27
  0.8000000     -6.3379843E-27
  0.8100000     -6.5726982E-27
  0.8200000     -6.8101954E-27
  0.8300000     -7.0515922E-27
  0.8400000     -7.2982121E-27
  0.8500000     -7.5515829E-27
  0.8600000     -7.8134261E-27
  0.8700000     -8.0856502E-27
  0.8800000     -8.3703357E-27
  0.8900000     -8.6697277E-27
  0.9000000     -8.9862196E-27
  0.9100000     -9.3223391E-27
  0.9200000     -9.6807439E-27
  0.9300000     -1.0064199E-26
  0.9400000     -1.0475582E-26
  0.9500000     -1.0917872E-26
  0.9600000     -1.1394149E-26
  0.9700000     -1.1907597E-26
  0.9800000     -1.2461503E-26
  0.9900000     -1.3059253E-26
   1.000000     -1.3704337E-26
   1.010000     -1.4400365E-26
   1.020000     -1.5151061E-26
   1.030000     -1.5960249E-26
   1.040000     -1.6831860E-26
   1.050000     -1.7769908E-26
   1.060000     -1.8778481E-26
   1.070000     -1.9861716E-26
   1.080000     -2.1023753E-26
   1.090000     -2.2268687E-26
   1.100000     -2.3600534E-26
   1.110000     -2.5023150E-26
   1.120000     -2.6540165E-26
   1.130000     -2.8154920E-26
   1.140000     -2.9870369E-26
   1.150000     -3.1689029E-26
   1.160000     -3.3612870E-26
   1.170000     -3.5643269E-26
   1.180000     -3.7780928E-26
   1.190000     -4.0025804E-26
   1.200000     -4.2377096E-26
   1.210000     -4.4833175E-26
   1.220000     -4.7391571E-26
   1.230000     -5.0049049E-26
   1.240000     -5.2801517E-26
   1.250000     -5.5644110E-26
   1.260000     -5.8571246E-26
   1.270000     -6.1576664E-26
   1.280000     -6.4653444E-26
   1.290000     -6.7794182E-26
   1.300000     -7.0990998E-26
   1.310000     -7.4235540E-26
   1.320000     -7.7519179E-26
   1.330000     -8.0832925E-26
   1.340000     -8.4167453E-26
   1.350000     -8.7513178E-26
   1.360000     -9.0860149E-26
   1.370000     -9.4198041E-26
   1.380000     -9.7516052E-26
   1.390000     -1.0080279E-25
   1.400000     -1.0404622E-25
   1.410000     -1.0723341E-25
   1.420000     -1.1035045E-25
   1.430000     -1.1338220E-25
   1.440000     -1.1631236E-25
   1.450000     -1.1912306E-25
   1.460000     -1.2179485E-25
   1.470000     -1.2430656E-25
   1.480000     -1.2663536E-25
   1.490000     -1.2875651E-25
   1.500000     -1.3064348E-25
   1.510000     -1.3226801E-25
   1.520000     -1.3360020E-25
   1.530000     -1.3460862E-25
   1.540000     -1.3526049E-25
   1.550000     -1.3552177E-25
   1.560000     -1.3535734E-25
   1.570000     -1.3473155E-25
   1.580000     -1.3360806E-25
   1.590000     -1.3194979E-25
   1.600000     -1.2971950E-25
   1.610000     -1.2687976E-25
   1.620000     -1.2339265E-25
   1.630000     -1.1922023E-25
   1.640000     -1.1432399E-25
   1.650000     -1.0866455E-25
   1.660000     -1.0220173E-25
   1.670000     -9.4894032E-26
   1.680000     -8.6697971E-26
   1.690000     -7.7568052E-26
   1.700000     -6.7456217E-26
   1.710000     -5.6311061E-26
   1.720000     -4.4077578E-26
   1.730000     -3.0696716E-26
   1.740000     -1.6105125E-26
   1.750000     -2.3482869E-28
   1.760000      1.6987023E-26
   1.770000      3.5638163E-26
   1.780000      5.5800840E-26
   1.790000      7.7561932E-26
   1.800000      1.0101272E-25
   1.810000      1.2624783E-25
   1.820000      1.5336522E-25
   1.830000      1.8246535E-25
   1.840000      2.1365048E-25
   1.850000      2.4702445E-25
   1.860000      2.8269077E-25
   1.870000      3.2075291E-25
   1.880000      3.6131390E-25
   1.890000      4.0447546E-25
   1.900000      4.5033781E-25
   1.910000      4.9899988E-25
   1.920000      5.5055983E-25
   1.930000      6.0511420E-25
   1.940000      6.6275863E-25
   1.950000      7.2358893E-25
   1.960000      7.8770197E-25
   1.970000      8.5519582E-25
   1.980000      9.2617063E-25
   1.990000      1.0007304E-24
   2.000000      1.0789824E-24
   2.010000      1.1610379E-24
   2.020000      1.2470137E-24
   2.030000      1.3370311E-24
   2.040000      1.4312165E-24
   2.050000      1.5297000E-24
   2.060000      1.6326141E-24
   2.070000      1.7400938E-24
   2.080000      1.8522752E-24
   2.090000      1.9692922E-24
   2.100000      2.0912754E-24
   2.110000      2.2183494E-24
   2.120000      2.3506312E-24
   2.130000      2.4882264E-24
   2.140000      2.6312290E-24
   2.150000      2.7797171E-24
   2.160000      2.9337530E-24
   2.170000      3.0933792E-24
   2.180000      3.2586179E-24
   2.190000      3.4294718E-24
   2.200000      3.6059215E-24
   2.210000      3.7879259E-24
   2.220000      3.9754227E-24
   2.230000      4.1683300E-24
   2.240000      4.3665443E-24
   2.250000      4.5699446E-24
   2.260000      4.7783916E-24
   2.270000      4.9917288E-24
   2.280000      5.2097834E-24
   2.290000      5.4323648E-24
   2.300000      5.6592668E-24
   2.310000      5.8902650E-24
   2.320000      6.1251152E-24
   2.330000      6.3635508E-24
   2.340000      6.6052799E-24
   2.350000      6.8499822E-24
   2.360000      7.0973027E-24
   2.370000      7.3468486E-24
   2.380000      7.5981844E-24
   2.390000      7.8508218E-24
   2.400000      8.1042205E-24
   2.410000      8.3577762E-24
   2.420000      8.6108199E-24
   2.430000      8.8626101E-24
   2.440000      9.1123358E-24
   2.450000      9.3591049E-24
   2.460000      9.6019495E-24
   2.470000      9.8398218E-24
   2.480000      1.0071600E-23
   2.490000      1.0296085E-23
   2.500000      1.0512004E-23
   2.510000      1.0718023E-23
   2.520000      1.0912743E-23
   2.530000      1.1094707E-23
   2.540000      1.1262409E-23
   2.550000      1.1414298E-23
   2.560000      1.1548789E-23
   2.570000      1.1664258E-23
   2.580000      1.1759060E-23
   2.590000      1.1831520E-23
   2.600000      1.1879945E-23
   2.610000      1.1902626E-23
   2.620000      1.1897830E-23
   2.630000      1.1863809E-23
   2.640000      1.1798795E-23
   2.650000      1.1701003E-23
   2.660000      1.1568619E-23
   2.670000      1.1399813E-23
   2.680000      1.1192728E-23
   2.690000      1.0945488E-23
   2.700000      1.0656194E-23
   2.710000      1.0322938E-23
   2.720000      9.9437984E-24
   2.730000      9.5168558E-24
   2.740000      9.0402079E-24
   2.750000      8.5119788E-24
   2.760000      7.9303374E-24
   2.770000      7.2935239E-24
   2.780000      6.5998695E-24
   2.790000      5.8478160E-24
   2.800000      5.0359484E-24
   2.810000      4.1630249E-24
   2.820000      3.2279973E-24
   2.830000      2.2300390E-24
   2.840000      1.1685751E-24
   2.850000      4.3301888E-26
   2.860000     -1.1457905E-24
   2.870000     -2.3983975E-24
   2.880000     -3.7138846E-24
   2.890000     -5.0912755E-24
   2.900000     -6.5292443E-24
   2.910000     -8.0261083E-24
   2.920000     -9.5798219E-24
   2.930000     -1.1187976E-23
   2.940000     -1.2847799E-23
   2.950000     -1.4556153E-23
   2.960000     -1.6309548E-23
   2.970000     -1.8104129E-23
   2.980000     -1.9935679E-23
   2.990000     -2.1799624E-23
   3.000000     -2.3691020E-23
   3.010000     -2.5604549E-23
   3.020000     -2.7534511E-23
   3.030000     -2.9474810E-23
   3.040000     -3.1418938E-23
   3.050000     -3.3359962E-23
   3.060000     -3.5290507E-23
   3.070000     -3.7202740E-23
   3.080000     -3.9088348E-23
   3.090000     -4.0938543E-23
   3.100000     -4.2744034E-23
   3.110000     -4.4495040E-23
   3.120000     -4.6181293E-23
   3.130000     -4.7792046E-23
   3.140000     -4.9316110E-23
   3.150000     -5.0741862E-23
   3.160000     -5.2057319E-23
   3.170000     -5.3250168E-23
   3.180000     -5.4307848E-23
   3.190000     -5.5217594E-23
   3.200000     -5.5966564E-23
   3.210000     -5.6541883E-23
   3.220000     -5.6930773E-23
   3.230000     -5.7120636E-23
   3.240000     -5.7099179E-23
   3.250000     -5.6854474E-23
   3.260000     -5.6375137E-23
   3.270000     -5.5650363E-23
   3.280000     -5.4670074E-23
   3.290000     -5.3425024E-23
   3.300000     -5.1906861E-23
   3.310000     -5.0108255E-23
   3.320000     -4.8022971E-23
   3.330000     -4.5645985E-23
   3.340000     -4.2973551E-23
   3.350000     -4.0003304E-23
   3.360000     -3.6734353E-23
   3.370000     -3.3167395E-23
   3.380000     -2.9304804E-23
   3.390000     -2.5150757E-23
   3.400000     -2.0711360E-23
   3.410000     -1.5994784E-23
   3.420000     -1.1011413E-23
   3.430000     -5.7740138E-24
   3.440000     -2.9788707E-25
   3.450000      5.3989289E-24
   3.460000      1.1295486E-23
   3.470000      1.7367715E-23
   3.480000      2.3588217E-23
   3.490000      2.9926101E-23
   3.500000      3.6346760E-23
   3.510000      4.2811696E-23
   3.520000      4.9278320E-23
   3.530000      5.5699840E-23
   3.540000      6.2025079E-23
   3.550000      6.8198388E-23
   3.560000      7.4159564E-23
   3.570000      7.9843755E-23
   3.580000      8.5181447E-23
   3.590000      9.0098499E-23
   3.600000      9.4516151E-23
   3.610000      9.8351069E-23
   3.620000      1.0151547E-22
   3.630000      1.0391723E-22
   3.640000      1.0546006E-22
   3.650000      1.0604363E-22
   3.660000      1.0556381E-22
   3.670000      1.0391285E-22
   3.680000      1.0097967E-22
   3.690000      9.6650077E-23
   3.700000      9.0807028E-23
   3.710000      8.3330975E-23
   3.720000      7.4100166E-23
   3.730000      6.2990966E-23
   3.740000      4.9878302E-23
   3.750000      3.4636049E-23
   3.760000      1.7137479E-23
   3.770000     -2.7442635E-24
   3.780000     -2.5135529E-23
   3.790000     -5.0161567E-23
   3.800000     -7.7945857E-23
   3.810000     -1.0860933E-22
   3.820000     -1.4226952E-22
   3.830000     -1.7903958E-22
   3.840000     -2.1902742E-22
   3.850000     -2.6233442E-22
   3.860000     -3.0905445E-22
   3.870000     -3.5927245E-22
   3.880000     -4.1306315E-22
   3.890000     -4.7048962E-22
   3.900000     -5.3160178E-22
   3.910000     -5.9643483E-22
   3.920000     -6.6500772E-22
   3.930000     -7.3732130E-22
   3.940000     -8.1335684E-22
   3.950000     -8.9307415E-22
   3.960000     -9.7640987E-22
   3.970000     -1.0632757E-21
   3.980000     -1.1535567E-21
   3.990000     -1.2471091E-21
   4.000000     -1.3437590E-21
   4.010000     -1.4433005E-21
   4.020000     -1.5454934E-21
   4.030000     -1.6500619E-21
   4.040000     -1.7566929E-21
   4.050000     -1.8650338E-21
   4.060000     -1.9746908E-21
   4.070000     -2.0852268E-21
   4.080000     -2.1961611E-21
   4.090000     -2.3069657E-21
   4.100000     -2.4170646E-21
   4.110000     -2.5258319E-21
   4.120000     -2.6325901E-21
   4.130000     -2.7366083E-21
   4.140000     -2.8371011E-21
   4.150000     -2.9332267E-21
   4.160000     -3.0240853E-21
   4.170000     -3.1087192E-21
   4.180000     -3.1861097E-21
   4.190000     -3.2551779E-21
   4.200000     -3.3147829E-21
   4.210000     -3.3637225E-21
   4.220000     -3.4007318E-21
   4.230000     -3.4244841E-21
   4.240000     -3.4335924E-21
   4.250000     -3.4266082E-21
   4.260000     -3.4020234E-21
   4.270000     -3.3582731E-21
   4.280000     -3.2937363E-21
   4.290000     -3.2067385E-21
   4.300000     -3.0955558E-21
   4.310000     -2.9584165E-21
   4.320000     -2.7935061E-21
   4.330000     -2.5989716E-21
   4.340000     -2.3729267E-21
   4.350000     -2.1134564E-21
   4.360000     -1.8186238E-21
   4.370000     -1.4864756E-21
   4.380000     -1.1150491E-21
   4.390000     -7.0238085E-22
   4.400000     -2.4651323E-22
   4.410000      2.5449574E-22
   4.420000      8.0256295E-22
   4.430000      1.3995700E-21
   4.440000      2.0473534E-21
   4.450000      2.7476920E-21
   4.460000      3.5022960E-21
   4.470000      4.3127937E-21
   4.480000      5.1807166E-21
   4.490000      6.1074876E-21
   4.500000      7.0944042E-21
   4.510000      8.1426214E-21
   4.520000      9.2531380E-21
   4.530000      1.0426776E-20
   4.540000      1.1664163E-20
   4.550000      1.2965714E-20
   4.560000      1.4331612E-20
   4.570000      1.5761783E-20
   4.580000      1.7255881E-20
   4.590000      1.8813265E-20
   4.600000      2.0432975E-20
   4.610000      2.2113704E-20
   4.620000      2.3853787E-20
   4.630000      2.5651165E-20
   4.640000      2.7503371E-20
   4.650000      2.9407502E-20
   4.660000      3.1360191E-20
   4.670000      3.3357593E-20
   4.680000      3.5395349E-20
   4.690000      3.7468571E-20
   4.700000      3.9571820E-20
   4.710000      4.1699073E-20
   4.720000      4.3843710E-20
   4.730000      4.5998486E-20
   4.740000      4.8155515E-20
   4.750000      5.0306243E-20
   4.760000      5.2441435E-20
   4.770000      5.4551153E-20
   4.780000      5.6624746E-20
   4.790000      5.8650815E-20
   4.800000      6.0617223E-20
   4.810000      6.2511073E-20
   4.820000      6.4318689E-20
   4.830000      6.6025608E-20
   4.840000      6.7616613E-20
   4.850000      6.9075656E-20
   4.860000      7.0385929E-20
   4.870000      7.1529830E-20
   4.880000      7.2488978E-20
   4.890000      7.3244207E-20
   4.900000      7.3775618E-20
   4.910000      7.4062566E-20
   4.920000      7.4083653E-20
   4.930000      7.3816842E-20
   4.940000      7.3239399E-20
   4.950000      7.2327981E-20
   4.960000      7.1058660E-20
   4.970000      6.9406974E-20
   4.980000      6.7347966E-20
   4.990000      6.4856272E-20
   5.000000      6.1906184E-20
   5.010000      5.8471666E-20
   5.020000      5.4526512E-20
   5.030000      5.0044379E-20
   5.040000      4.4998897E-20
   5.050000      3.9363755E-20
   5.060000      3.3112815E-20
   5.070000      2.6220241E-20
   5.080000      1.8660594E-20
   5.090000      1.0408972E-20
   5.100000      1.4411249E-21
   5.110000     -8.2663664E-21
   5.120000     -1.8735953E-20
   5.130000     -2.9988961E-20
   5.140000     -4.2045429E-20
   5.150000     -5.4923927E-20
   5.160000     -6.8641392E-20
   5.170000     -8.3212909E-20
   5.180000     -9.8651537E-20
   5.190000     -1.1496810E-19
   5.200000     -1.3217098E-19
   5.210000     -1.5026585E-19
   5.220000     -1.6925556E-19
   5.230000     -1.8913980E-19
   5.240000     -2.0991490E-19
   5.250000     -2.3157358E-19
   5.260000     -2.5410477E-19
   5.270000     -2.7749322E-19
   5.280000     -3.0171945E-19
   5.290000     -3.2675927E-19
   5.300000     -3.5258364E-19
   5.310000     -3.7915845E-19
   5.320000     -4.0644422E-19
   5.330000     -4.3439581E-19
   5.340000     -4.6296218E-19
   5.350000     -4.9208613E-19
   5.360000     -5.2170421E-19
   5.370000     -5.5174617E-19
   5.380000     -5.8213492E-19
   5.390000     -6.1278641E-19
   5.400000     -6.4360918E-19
   5.410000     -6.7450416E-19
   5.420000     -7.0536477E-19
   5.430000     -7.3607644E-19
   5.440000     -7.6651653E-19
   5.450000     -7.9655410E-19
   5.460000     -8.2605001E-19
   5.470000     -8.5485673E-19
   5.480000     -8.8281802E-19
   5.490000     -9.0976922E-19
   5.500000     -9.3553693E-19
   5.510000     -9.5993948E-19
   5.520000     -9.8278600E-19
   5.530000     -1.0038775E-18
   5.540000     -1.0230064E-18
   5.550000     -1.0399570E-18
   5.560000     -1.0545054E-18
   5.570000     -1.0664197E-18
   5.580000     -1.0754602E-18
   5.590000     -1.0813801E-18
   5.600000     -1.0839256E-18
   5.610000     -1.0828362E-18
   5.620000     -1.0778451E-18
   5.630000     -1.0686801E-18
   5.640000     -1.0550639E-18
   5.650000     -1.0367148E-18
   5.660000     -1.0133471E-18
   5.670000     -9.8467239E-19
   5.680000     -9.5039981E-19
   5.690000     -9.1023730E-19
   5.700000     -8.6389249E-19
   5.710000     -8.1107349E-19
   5.720000     -7.5149017E-19
   5.730000     -6.8485514E-19
   5.740000     -6.1088534E-19
   5.750000     -5.2930290E-19
   5.760000     -4.3983685E-19
   5.770000     -3.4222424E-19
   5.780000     -2.3621187E-19
   5.790000     -1.2155773E-19
   5.800000      1.9673215E-21
   5.810000      1.3457776E-19
   5.820000      2.7647165E-19
   5.830000      4.2782877E-19
   5.840000      5.8880893E-19
   5.850000      7.5954965E-19
   5.860000      9.4016439E-19
   5.870000      1.1307403E-18
   5.880000      1.3313361E-18
   5.890000      1.5419802E-18
   5.900000      1.7626677E-18
   5.910000      1.9933589E-18
   5.920000      2.2339770E-18
   5.930000      2.4844049E-18
   5.940000      2.7444837E-18
   5.950000      3.0140104E-18
   5.960000      3.2927343E-18
   5.970000      3.5803566E-18
   5.980000      3.8765253E-18
   5.990000      4.1808368E-18
   6.000000      4.4928290E-18
   6.010000      4.8119830E-18
   6.020000      5.1377172E-18
   6.030000      5.4693893E-18
   6.040000      5.8062897E-18
   6.050000      6.1476427E-18
   6.060000      6.4926039E-18
   6.070000      6.8402576E-18
   6.080000      7.1896157E-18
   6.090000      7.5396156E-18
   6.100000      7.8891185E-18
   6.110000      8.2369107E-18
   6.120000      8.5816994E-18
   6.130000      8.9221124E-18
   6.140000      9.2566986E-18
   6.150000      9.5839263E-18
   6.160000      9.9021857E-18
   6.170000      1.0209785E-17
   6.180000      1.0504953E-17
   6.190000      1.0785840E-17
   6.200000      1.1050517E-17
   6.210000      1.1296980E-17
   6.220000      1.1523147E-17
   6.230000      1.1726866E-17
   6.240000      1.1905912E-17
   6.250000      1.2057991E-17
   6.260000      1.2180747E-17
   6.270000      1.2271759E-17
   6.280000      1.2328550E-17
   6.290000      1.2348591E-17
   6.300000      1.2329306E-17
   6.310000      1.2268073E-17
   6.320000      1.2162237E-17
   6.330000      1.2009112E-17
   6.340000      1.1805989E-17
   6.350000      1.1550144E-17
   6.360000      1.1238843E-17
   6.370000      1.0869359E-17
   6.380000      1.0438971E-17
   6.390000      9.9449799E-18
   6.400000      9.3847164E-18
   6.410000      8.7555546E-18
   6.420000      8.0549194E-18
   6.430000      7.2803028E-18
   6.440000      6.4292754E-18
   6.450000      5.4994954E-18
   6.460000      4.4887283E-18
   6.470000      3.3948574E-18
   6.480000      2.2159004E-18
   6.490000      9.5002355E-19
   6.500000     -4.0444073E-19
   6.510000     -1.8489805E-18
   6.520000     -3.3848868E-18
   6.530000     -5.0132348E-18
   6.540000     -6.7348686E-18
   6.550000     -8.5503807E-18
   6.560000     -1.0460096E-17
   6.570000     -1.2464054E-17
   6.580000     -1.4561990E-17
   6.590000     -1.6753314E-17
   6.600000     -1.9037095E-17
   6.610000     -2.1412037E-17
   6.620000     -2.3876464E-17
   6.630000     -2.6428303E-17
   6.640000     -2.9065059E-17
   6.650000     -3.1783806E-17
   6.660000     -3.4581152E-17
   6.670000     -3.7453243E-17
   6.680000     -4.0395729E-17
   6.690000     -4.3403748E-17
   6.700000     -4.6471927E-17
   6.710000     -4.9594335E-17
   6.720000     -5.2764501E-17
   6.730000     -5.5975372E-17
   6.740000     -5.9219329E-17
   6.750000     -6.2488135E-17
   6.760000     -6.5772969E-17
   6.770000     -6.9064380E-17
   6.780000     -7.2352310E-17
   6.790000     -7.5626046E-17
   6.800000     -7.8874265E-17
   6.810000     -8.2084990E-17
   6.820000     -8.5245601E-17
   6.830000     -8.8342856E-17
   6.840000     -9.1362873E-17
   6.850000     -9.4291119E-17
   6.860000     -9.7112447E-17
   6.870000     -9.9811093E-17
   6.880000     -1.0237071E-16
   6.890000     -1.0477433E-16
   6.900000     -1.0700445E-16
   6.910000     -1.0904297E-16
   6.920000     -1.1087131E-16
   6.930000     -1.1247037E-16
   6.940000     -1.1382062E-16
   6.950000     -1.1490203E-16
   6.960000     -1.1569422E-16
   6.970000     -1.1617643E-16
   6.980000     -1.1632761E-16
   6.990000     -1.1612640E-16
   7.000000     -1.1555128E-16
   7.010000     -1.1458056E-16
   7.020000     -1.1319239E-16
   7.030000     -1.1136498E-16
   7.040000     -1.0907649E-16
   7.050000     -1.0630524E-16
   7.060000     -1.0302967E-16