  -2.600000      0.0000000E+00
  -2.590000      0.0000000E+00
  -2.580000      0.0000000E+00
  -2.570000      0.0000000E+00
  -2.560000      0.0000000E+00
  -2.550000      0.0000000E+00
  -2.540000      0.0000000E+00
  -2.530000      0.0000000E+00
  -2.520000      0.0000000E+00
  -2.510000      0.0000000E+00
  -2.500000      0.0000000E+00
  -2.490000      0.0000000E+00
  -2.480000      0.0000000E+00
  -2.470000      0.0000000E+00
  -2.460000      0.0000000E+00
  -2.450000      0.0000000E+00
  -2.440000      0.0000000E+00
  -2.430000      0.0000000E+00
  -2.420000      0.0000000E+00
  -2.410000      0.0000000E+00
  -2.400000      0.0000000E+00
  -2.390000      0.0000000E+00
  -2.380000      0.0000000E+00
  -2.370000      0.0000000E+00
  -2.360000      0.0000000E+00
  -2.350000      0.0000000E+00
  -2.340000      0.0000000E+00
  -2.330000      0.0000000E+00
  -2.320000      0.0000000E+00
  -2.310000      0.0000000E+00
  -2.300000      0.0000000E+00
  -2.290000      0.0000000E+00
  -2.280000      0.0000000E+00
  -2.270000      0.0000000E+00
  -2.260000      0.0000000E+00
  -2.250000      0.0000000E+00
  -2.240000      0.0000000E+00
  -2.230000      0.0000000E+00
  -2.220000      0.0000000E+00
  -2.210000      0.0000000E+00
  -2.200000      0.0000000E+00
  -2.190000      0.0000000E+00
  -2.180000      0.0000000E+00
  -2.170000      0.0000000E+00
  -2.160000      0.0000000E+00
  -2.150000      0.0000000E+00
  -2.140000      0.0000000E+00
  -2.130000      0.0000000E+00
  -2.120000      0.0000000E+00
  -2.110000      0.0000000E+00
  -2.100000      0.0000000E+00
  -2.090000      0.0000000E+00
  -2.080000      0.0000000E+00
  -2.070000      0.0000000E+00
  -2.060000      0.0000000E+00
  -2.050000      0.0000000E+00
  -2.040000      0.0000000E+00
  -2.030000      0.0000000E+00
  -2.020000      0.0000000E+00
  -2.010000      0.0000000E+00
  -2.000000      0.0000000E+00
  -1.990000      0.0000000E+00
  -1.980000      0.0000000E+00
  -1.970000      0.0000000E+00
  -1.960000      0.0000000E+00
  -1.950000      0.0000000E+00
  -1.940000      0.0000000E+00
  -1.930000      0.0000000E+00
  -1.920000      0.0000000E+00
  -1.910000      0.0000000E+00
  -1.900000      0.0000000E+00
  -1.890000      0.0000000E+00
  -1.880000      0.0000000E+00
  -1.870000      0.0000000E+00
  -1.860000      0.0000000E+00
  -1.850000      0.0000000E+00
  -1.840000      0.0000000E+00
  -1.830000      0.0000000E+00
  -1.820000      0.0000000E+00
  -1.810000      0.0000000E+00
  -1.800000      0.0000000E+00
  -1.790000      0.0000000E+00
  -1.780000      0.0000000E+00
  -1.770000      0.0000000E+00
  -1.760000      0.0000000E+00
  -1.750000      0.0000000E+00
  -1.740000      0.0000000E+00
  -1.730000      0.0000000E+00
  -1.720000      0.0000000E+00
  -1.710000      0.0000000E+00
  -1.700000      0.0000000E+00
  -1.690000      0.0000000E+00
  -1.680000      0.0000000E+00
  -1.670000      0.0000000E+00
  -1.660000      0.0000000E+00
  -1.650000      0.0000000E+00
  -1.640000      0.0000000E+00
  -1.630000      0.0000000E+00
  -1.620000      0.0000000E+00
  -1.610000      0.0000000E+00
  -1.600000      0.0000000E+00
  -1.590000      0.0000000E+00
  -1.580000      0.0000000E+00
  -1.570000      0.0000000E+00
  -1.560000      0.0000000E+00
  -1.550000      0.0000000E+00
  -1.540000      0.0000000E+00
  -1.530000      0.0000000E+00
  -1.520000      0.0000000E+00
  -1.510000      0.0000000E+00
  -1.500000      0.0000000E+00
  -1.490000      0.0000000E+00
  -1.480000      0.0000000E+00
  -1.470000      0.0000000E+00
  -1.460000      0.0000000E+00
  -1.450000      0.0000000E+00
  -1.440000      0.0000000E+00
  -1.430000      0.0000000E+00
  -1.420000      0.0000000E+00
  -1.410000      0.0000000E+00
  -1.400000      0.0000000E+00
  -1.390000      0.0000000E+00
  -1.380000      0.0000000E+00
  -1.370000      0.0000000E+00
  -1.360000      0.0000000E+00
  -1.350000      0.0000000E+00
  -1.340000      0.0000000E+00
  -1.330000      0.0000000E+00
  -1.320000      0.0000000E+00
  -1.310000      0.0000000E+00
  -1.300000      0.0000000E+00
  -1.290000      0.0000000E+00
  -1.280000      0.0000000E+00
  -1.270000      0.0000000E+00
  -1.260000      0.0000000E+00
  -1.250000      0.0000000E+00
  -1.240000      0.0000000E+00
  -1.230000      0.0000000E+00
  -1.220000      0.0000000E+00
  -1.210000      0.0000000E+00
  -1.200000      0.0000000E+00
  -1.190000      0.0000000E+00
  -1.180000      0.0000000E+00
  -1.170000      0.0000000E+00
  -1.160000      0.0000000E+00
  -1.150000      2.4817985E-38
  -1.140000      4.4482645E-38
  -1.130000      6.9347761E-38
  -1.120000      9.7053214E-38
  -1.110000      1.2626613E-37
  -1.100000      1.5022993E-37
  -1.090000      1.5572308E-37
  -1.080000      1.2210687E-37
  -1.070000      4.7302881E-38
  -1.060000     -5.7637127E-38
  -1.050000     -1.9216118E-37
  -1.040000     -3.5151570E-37
  -1.030000     -5.4319606E-37
  -1.020000     -7.6158782E-37
  -1.010000     -9.8499076E-37
  -1.000000     -1.1932512E-36
 -0.9900000     -1.3749209E-36
 -0.9800000     -1.4985159E-36
 -0.9700000     -1.5128495E-36
 -0.9600000     -1.3942139E-36
 -0.9500000     -1.0981497E-36
 -0.9400000     -5.7171986E-37
 -0.9300000      2.6535073E-37
 -0.9200000      1.4792197E-36
 -0.9100000      3.0382192E-36
 -0.9000000      4.9312483E-36
 -0.8900000      7.0931642E-36
 -0.8800000      9.4532418E-36
 -0.8700000      1.1785477E-35
 -0.8600000      1.3863824E-35
 -0.8500000      1.5580037E-35
 -0.8400000      1.6471933E-35
 -0.8300000      1.6039745E-35
 -0.8200000      1.3829713E-35
 -0.8100000      9.5568588E-36
 -0.8000000      3.8540423E-36
 -0.7900000     -3.5413514E-36
 -0.7800000     -1.3199470E-35
 -0.7700000     -2.5115318E-35
 -0.7600000     -3.9271711E-35
 -0.7500000     -5.5238879E-35
 -0.7400000     -7.2586897E-35
 -0.7300000     -9.0302268E-35
 -0.7200000     -1.0666516E-34
 -0.7100000     -1.2010711E-34
 -0.7000000     -1.2887811E-34
 -0.6900000     -1.3127270E-34
 -0.6800000     -1.2532163E-34
 -0.6700000     -1.0811305E-34
 -0.6600000     -7.7365884E-35
 -0.6500000     -3.0998182E-35
 -0.6400000      3.3305098E-35
 -0.6300000      1.1565317E-34
 -0.6200000      2.1454267E-34
 -0.6100000      3.2761266E-34
 -0.6000000      4.5086646E-34
 -0.5900000      5.7909007E-34
 -0.5800000      7.0532182E-34
 -0.5700000      8.2178672E-34
 -0.5600000      9.1750539E-34
 -0.5500000      9.7796896E-34
 -0.5400000      9.9053289E-34
 -0.5300000      9.4061919E-34
 -0.5200000      8.1642895E-34
 -0.5100000      6.0403397E-34
 -0.5000000      2.8687999E-34
 -0.4900000     -1.4320903E-34
 -0.4800000     -6.9025341E-34
 -0.4700000     -1.3500924E-33
 -0.4600000     -2.1112970E-33
 -0.4500000     -2.9533458E-33
 -0.4400000     -3.8459942E-33
 -0.4300000     -4.7459956E-33
 -0.4200000     -5.5941747E-33
 -0.4100000     -6.3233155E-33
 -0.4000000     -6.8580045E-33
 -0.3900000     -7.1095698E-33
 -0.3800000     -6.9826965E-33
 -0.3700000     -6.3856365E-33
 -0.3600000     -5.2314858E-33
 -0.3500000     -3.4411216E-33
 -0.3400000     -9.5492707E-34
 -0.3300000      2.2577261E-33
 -0.3200000      6.1897088E-33
 -0.3100000      1.0790094E-32
 -0.3000000      1.5955640E-32
 -0.2900000      2.1521062E-32
 -0.2800000      2.7256299E-32
 -0.2700000      3.2862152E-32
 -0.2600000      3.7971938E-32
 -0.2500000      4.2154206E-32
 -0.2400000      4.4923397E-32
 -0.2300000      4.5756206E-32
 -0.2200000      4.4109876E-32
 -0.2100000      3.9447818E-32
 -0.2000000      3.1270974E-32
 -0.1900000      1.9157819E-32
 -0.1800000      2.8025628E-33
 -0.1700000     -1.7943595E-32
 -0.1600000     -4.3025024E-32
 -0.1500000     -7.2138919E-32
 -0.1400000     -1.0469604E-31
 -0.1300000     -1.3978794E-31
 -0.1200000     -1.7616342E-31
 -0.1100000     -2.1221815E-31
 -0.1000000     -2.4600111E-31
 -9.0000004E-02 -2.7523899E-31
 -7.9999998E-02 -2.9738274E-31
 -7.0000000E-02 -3.0967928E-31
 -5.9999999E-02 -3.0926664E-31
 -5.0000001E-02 -2.9329430E-31
 -3.9999999E-02 -2.5906812E-31
 -2.9999999E-02 -2.0421631E-31
 -2.0000000E-02 -1.2687277E-31
 -9.9999998E-03 -2.5872340E-32
 -3.4694470E-17  9.9050093E-32
  9.9999998E-03  2.4706498E-31
  2.0000000E-02  4.1606853E-31
  2.9999999E-02  6.0253066E-31
  3.9999999E-02  8.0138227E-31
  5.0000001E-02  1.0059557E-30
  5.9999999E-02  1.2079922E-30
  7.0000000E-02  1.3977275E-30
  7.9999998E-02  1.5640718E-30
  9.0000004E-02  1.6948904E-30
  0.1000000      1.7773962E-30
  0.1100000      1.7986593E-30
  0.1200000      1.7462350E-30
  0.1300000      1.6089123E-30
  0.1400000      1.3775741E-30
  0.1500000      1.0461630E-30
  0.1600000      6.1273889E-31
  0.1700000      8.0609966E-32
  0.1800000     -5.4048374E-31
  0.1900000     -1.2331552E-30
  0.2000000     -1.9711547E-30
  0.2100000     -2.7181798E-30
  0.2200000     -3.4267364E-30
  0.2300000     -4.0370839E-30
  0.2400000     -4.4762972E-30
  0.2500000     -4.6574497E-30
  0.2600000     -4.4789573E-30
  0.2700000     -3.8241039E-30
  0.2800000     -2.5607400E-30
  0.2900000     -5.4117536E-31
  0.3000000      2.3977252E-30
  0.3100000      6.4342641E-30
  0.3200000      1.1761441E-29
  0.3300000      1.8586328E-29
  0.3400000      2.7129275E-29
  0.3500000      3.7622948E-29
  0.3600000      5.0311294E-29
  0.3700000      6.5448330E-29
  0.3800000      8.3296849E-29
  0.3900000      1.0412706E-28
  0.4000000      1.2821507E-28
  0.4100000      1.5584121E-28
  0.4200000      1.8728844E-28
  0.4300000      2.2284037E-28
  0.4400000      2.6277923E-28
  0.4500000      3.0738362E-28
  0.4600000      3.5692600E-28
  0.4700000      4.1167008E-28
  0.4800000      4.7186767E-28
  0.4900000      5.3775551E-28
  0.5000000      6.0955148E-28
  0.5100000      6.8745111E-28
  0.5200000      7.7162297E-28
  0.5300000      8.6220484E-28
  0.5400000      9.5929916E-28
  0.5500000      1.0629688E-27
  0.5600000      1.1732330E-27
  0.5700000      1.2900633E-27
  0.5800000      1.4133809E-27
  0.5900000      1.5430535E-27
  0.6000000      1.6788944E-27
  0.6100000      1.8206615E-27
  0.6200000      1.9680589E-27
  0.6300000      2.1207393E-27
  0.6400000      2.2783091E-27
  0.6500000      2.4403329E-27
  0.6600000      2.6063429E-27
  0.6700000      2.7758494E-27
  0.6800000      2.9483518E-27
  0.6900000      3.1233530E-27
  0.7000000      3.3003733E-27
  0.7100000      3.4789698E-27
  0.7200000      3.6587507E-27
  0.7300000      3.8393949E-27
  0.7400000      4.0206688E-27
  0.7500000      4.2024450E-27
  0.7600000      4.3847162E-27
  0.7700000      4.5676133E-27
  0.7800000      4.7514179E-27
  0.7900000      4.9365691E-27
  0.8000000      5.1236793E-27
  0.8100000      5.3135302E-27
  0.8200000      5.5070803E-27
  0.8300000      5.7054615E-27
  0.8400000      5.9099799E-27
  0.8500000      6.1221014E-27
  0.8600000      6.3434466E-27
  0.8700000      6.5757804E-27
  0.8800000      6.8210029E-27
  0.8900000      7.0811298E-27
  0.9000000      7.3582827E-27
  0.9100000      7.6546856E-27
  0.9200000      7.9726435E-27
  0.9300000      8.3145346E-27
  0.9400000      8.6828133E-27
  0.9500000      9.0799993E-27
  0.9600000      9.5086813E-27
  0.9700000      9.9715185E-27
  0.9800000      1.0471244E-26
  0.9900000      1.1010675E-26
   1.000000      1.1592712E-26
   1.010000      1.2220357E-26
   1.020000      1.2896716E-26
   1.030000      1.3625008E-26
   1.040000      1.4408557E-26
   1.050000      1.5250789E-26
   1.060000      1.6155240E-26
   1.070000      1.7125522E-26
   1.080000      1.8165303E-26
   1.090000      1.9278294E-26
   1.100000      2.0468203E-26
   1.110000      2.1738685E-26
   1.120000      2.3093308E-26
   1.130000      2.4535499E-26
   1.140000      2.6068473E-26
   1.150000      2.7695190E-26
   1.160000      2.9418293E-26
   1.170000      3.1240066E-26
   1.180000      3.3162378E-26
   1.190000      3.5186632E-26
   1.200000      3.7313771E-26
   1.210000      3.9544238E-26
   1.220000      4.1877935E-26
   1.230000      4.4314280E-26
   1.240000      4.6852218E-26
   1.250000      4.9490246E-26
   1.260000      5.2226450E-26
   1.270000      5.5058535E-26
   1.280000      5.7983914E-26
   1.290000      6.0999742E-26
   1.300000      6.4102979E-26
   1.310000      6.7290415E-26
   1.320000      7.0558708E-26
   1.330000      7.3904428E-26
   1.340000      7.7324023E-26
   1.350000      8.0813783E-26
   1.360000      8.4369876E-26
   1.370000      8.7988177E-26
   1.380000      9.1664263E-26
   1.390000      9.5393282E-26
   1.400000      9.9169794E-26
   1.410000      1.0298762E-25
   1.420000      1.0683962E-25
   1.430000      1.1071760E-25
   1.440000      1.1461220E-25
   1.450000      1.1851262E-25
   1.460000      1.2240659E-25
   1.470000      1.2628006E-25
   1.480000      1.3011731E-25
   1.490000      1.3390081E-25
   1.500000      1.3761110E-25
   1.510000      1.4122691E-25
   1.520000      1.4472515E-25
   1.530000      1.4808093E-25
   1.540000      1.5126776E-25
   1.550000      1.5425761E-25
   1.560000      1.5702107E-25
   1.570000      1.5952756E-25
   1.580000      1.6174527E-25
   1.590000      1.6364139E-25
   1.600000      1.6518217E-25
   1.610000      1.6633289E-25
   1.620000      1.6705788E-25
   1.630000      1.6732050E-25
   1.640000      1.6708325E-25
   1.650000      1.6630731E-25
   1.660000      1.6495236E-25
   1.670000      1.6297651E-25
   1.680000      1.6033555E-25
   1.690000      1.5698314E-25
   1.700000      1.5287014E-25
   1.710000      1.4794461E-25
   1.720000      1.4215111E-25
   1.730000      1.3543060E-25
   1.740000      1.2772052E-25
   1.750000      1.1895476E-25
   1.760000      1.0906341E-25
   1.770000      9.7972870E-26
   1.780000      8.5606360E-26
   1.790000      7.1883773E-26
   1.800000      5.6722637E-26
   1.810000      4.0038740E-26
   1.820000      2.1746555E-26
   1.830000      1.7604485E-27
   1.840000     -2.0004824E-26
   1.850000     -4.3633813E-26
   1.860000     -6.9208819E-26
   1.870000     -9.6809306E-26
   1.880000     -1.2651142E-25
   1.890000     -1.5838694E-25
   1.900000     -1.9250324E-25
   1.910000     -2.2892290E-25
   1.920000     -2.6770387E-25
   1.930000     -3.0889902E-25
   1.940000     -3.5255587E-25
   1.950000     -3.9871744E-25
   1.960000     -4.4742273E-25
   1.970000     -4.9870648E-25
   1.980000     -5.5259997E-25
   1.990000     -6.0913231E-25
   2.000000     -6.6832937E-25
   2.010000     -7.3021482E-25
   2.020000     -7.9481109E-25
   2.030000     -8.6213829E-25
   2.040000     -9.3221409E-25
   2.050000     -1.0050536E-24
   2.060000     -1.0806682E-24
   2.070000     -1.1590661E-24
   2.080000     -1.2402498E-24
   2.090000     -1.3242161E-24
   2.100000     -1.4109535E-24
   2.110000     -1.5004416E-24
   2.120000     -1.5926493E-24
   2.130000     -1.6875332E-24
   2.140000     -1.7850370E-24
   2.150000     -1.8850904E-24
   2.160000     -1.9876088E-24
   2.170000     -2.0924922E-24
   2.180000     -2.1996246E-24
   2.190000     -2.3088768E-24
   2.200000     -2.4201042E-24
   2.210000     -2.5331513E-24
   2.220000     -2.6478499E-24
   2.230000     -2.7640233E-24
   2.240000     -2.8814886E-24
   2.250000     -3.0000583E-24
   2.260000     -3.1195435E-24
   2.270000     -3.2397555E-24
   2.280000     -3.3605084E-24
   2.290000     -3.4816218E-24
   2.300000     -3.6029234E-24
   2.310000     -3.7242470E-24
   2.320000     -3.8454366E-24
   2.330000     -3.9663449E-24
   2.340000     -4.0868335E-24
   2.350000     -4.2067727E-24
   2.360000     -4.3260418E-24
   2.370000     -4.4445224E-24
   2.380000     -4.5621017E-24
   2.390000     -4.6786678E-24
   2.400000     -4.7941081E-24
   2.410000     -4.9083064E-24
   2.420000     -5.0211423E-24
   2.430000     -5.1324916E-24
   2.440000     -5.2422213E-24
   2.450000     -5.3501935E-24
   2.460000     -5.4562618E-24
   2.470000     -5.5602766E-24
   2.480000     -5.6620850E-24
   2.490000     -5.7615332E-24
   2.500000     -5.8584708E-24
   2.510000     -5.9527543E-24
   2.520000     -6.0442515E-24
   2.530000     -6.1328445E-24
   2.540000     -6.2184320E-24
   2.550000     -6.3009358E-24
   2.560000     -6.3803027E-24
   2.570000     -6.4565058E-24
   2.580000     -6.5295445E-24
   2.590000     -6.5994463E-24
   2.600000     -6.6662620E-24
   2.610000     -6.7300650E-24
   2.620000     -6.7909478E-24
   2.630000     -6.8490111E-24
   2.640000     -6.9043615E-24
   2.650000     -6.9571040E-24
   2.660000     -7.0073315E-24
   2.670000     -7.0551176E-24
   2.680000     -7.1005015E-24
   2.690000     -7.1434858E-24
   2.700000     -7.1840277E-24
   2.710000     -7.2220326E-24
   2.720000     -7.2573468E-24
   2.730000     -7.2897500E-24
   2.740000     -7.3189560E-24
   2.750000     -7.3446098E-24
   2.760000     -7.3662893E-24
   2.770000     -7.3835038E-24
   2.780000     -7.3957004E-24
   2.790000     -7.4022637E-24
   2.800000     -7.4025232E-24
   2.810000     -7.3957595E-24
   2.820000     -7.3811979E-24
   2.830000     -7.3580212E-24
   2.840000     -7.3253718E-24
   2.850000     -7.2823529E-24
   2.860000     -7.2280280E-24
   2.870000     -7.1614158E-24
   2.880000     -7.0814860E-24
   2.890000     -6.9871603E-24
   2.900000     -6.8772965E-24
   2.910000     -6.7506788E-24
   2.920000     -6.6060175E-24
   2.930000     -6.4419332E-24
   2.940000     -6.2569437E-24
   2.950000     -6.0494524E-24
   2.960000     -5.8177466E-24
   2.970000     -5.5599950E-24
   2.980000     -5.2742345E-24
   2.990000     -4.9583809E-24
   3.000000     -4.6102282E-24
   3.010000     -4.2274563E-24
   3.020000     -3.8076494E-24
   3.030000     -3.3483091E-24
   3.040000     -2.8468840E-24
   3.050000     -2.3007917E-24
   3.060000     -1.7074464E-24
   3.070000     -1.0643016E-24
   3.080000     -3.6887454E-25
   3.090000      3.8120722E-25
   3.100000      1.1881647E-24
   3.110000      2.0540402E-24
   3.120000      2.9806579E-24
   3.130000      3.9695828E-24
   3.140000      5.0220869E-24
   3.150000      6.1391203E-24
   3.160000      7.3212776E-24
   3.170000      8.5687783E-24
   3.180000      9.8814350E-24
   3.190000      1.1258630E-23
   3.200000      1.2699301E-23
   3.210000      1.4201907E-23
   3.220000      1.5764409E-23
   3.230000      1.7384245E-23
   3.240000      1.9058307E-23
   3.250000      2.0782899E-23
   3.260000      2.2553697E-23
   3.270000      2.4365723E-23
   3.280000      2.6213280E-23
   3.290000      2.8089904E-23
   3.300000      2.9988314E-23
   3.310000      3.1900336E-23
   3.320000      3.3816826E-23
   3.330000      3.5727621E-23
   3.340000      3.7621442E-23
   3.350000      3.9485839E-23
   3.360000      4.1307114E-23
   3.370000      4.3070253E-23
   3.380000      4.4758870E-23
   3.390000      4.6355139E-23
   3.400000      4.7839763E-23
   3.410000      4.9191952E-23
   3.420000      5.0389380E-23
   3.430000      5.1408181E-23
   3.440000      5.2222977E-23
   3.450000      5.2806870E-23
   3.460000      5.3131505E-23
   3.470000      5.3167086E-23
   3.480000      5.2882424E-23
   3.490000      5.2245071E-23
   3.500000      5.1221341E-23
   3.510000      4.9776438E-23
   3.520000      4.7874504E-23
   3.530000      4.5478778E-23
   3.540000      4.2551675E-23
   3.550000      3.9054916E-23
   3.560000      3.4949637E-23
   3.570000      3.0196532E-23
   3.580000      2.4755990E-23
   3.590000      1.8588223E-23
   3.600000      1.1653461E-23
   3.610000      3.9121060E-24
   3.620000     -4.6751207E-24
   3.630000     -1.4146905E-23
   3.640000     -2.4541150E-23
   3.650000     -3.5894717E-23
   3.660000     -4.8243126E-23
   3.670000     -6.1620254E-23
   3.680000     -7.6058018E-23
   3.690000     -9.1585931E-23
   3.700000     -1.0823072E-22
   3.710000     -1.2601587E-22
   3.720000     -1.4496116E-22
   3.730000     -1.6508208E-22
   3.740000     -1.8638933E-22
   3.750000     -2.0888821E-22
   3.760000     -2.3257808E-22
   3.770000     -2.5745161E-22
   3.780000     -2.8349424E-22
   3.790000     -3.1068344E-22
   3.800000     -3.3898812E-22
   3.810000     -3.6836780E-22
   3.820000     -3.9877207E-22
   3.830000     -4.3013978E-22
   3.840000     -4.6239830E-22
   3.850000     -4.9546311E-22
   3.860000     -5.2923681E-22
   3.870000     -5.6360863E-22
   3.880000     -5.9845351E-22
   3.890000     -6.3363166E-22
   3.900000     -6.6898777E-22
   3.910000     -7.0435040E-22
   3.920000     -7.3953117E-22
   3.930000     -7.7432421E-22
   3.940000     -8.0850549E-22
   3.950000     -8.4183212E-22
   3.960000     -8.7404183E-22
   3.970000     -9.0485208E-22
   3.980000     -9.3395961E-22
   3.990000     -9.6104029E-22
   4.000000     -9.8574736E-22
   4.010000     -1.0077124E-21
   4.020000     -1.0265437E-21
   4.030000     -1.0418268E-21
   4.040000     -1.0531235E-21
   4.050000     -1.0599719E-21
   4.060000     -1.0618862E-21
   4.070000     -1.0583572E-21
   4.080000     -1.0488516E-21
   4.090000     -1.0328125E-21
   4.100000     -1.0096607E-21
   4.110000     -9.7879397E-22
   4.120000     -9.3958882E-22
   4.130000     -8.9140061E-22
   4.140000     -8.3356536E-22
   4.150000     -7.6540061E-22
   4.160000     -6.8620690E-22
   4.170000     -5.9526995E-22
   4.180000     -4.9186227E-22
   4.190000     -3.7524513E-22
   4.200000     -2.4467121E-22
   4.210000     -9.9387052E-23
   4.220000      6.1364108E-23
   4.230000      2.3833949E-22
   4.240000      4.3229315E-22
   4.250000      6.4397232E-22
   4.260000      8.7411413E-22
   4.270000      1.1234412E-21
   4.280000      1.3926572E-21
   4.290000      1.6824421E-21
   4.300000      1.9934471E-21
   4.310000      2.3262894E-21
   4.320000      2.6815467E-21
   4.330000      3.0597516E-21
   4.340000      3.4613837E-21
   4.350000      3.8868647E-21
   4.360000      4.3365501E-21
   4.370000      4.8107229E-21
   4.380000      5.3095839E-21
   4.390000      5.8332458E-21
   4.400000      6.3817239E-21
   4.410000      6.9549273E-21
   4.420000      7.5526485E-21
   4.430000      8.1745567E-21
   4.440000      8.8201857E-21
   4.450000      9.4889240E-21
   4.460000      1.0180009E-20
   4.470000      1.0892510E-20
   4.480000      1.1625322E-20
   4.490000      1.2377154E-20
   4.500000      1.3146518E-20
   4.510000      1.3931720E-20
   4.520000      1.4730846E-20
   4.530000      1.5541754E-20
   4.540000      1.6362065E-20
   4.550000      1.7189144E-20
   4.560000      1.8020099E-20
   4.570000      1.8851768E-20
   4.580000      1.9680704E-20
   4.590000      2.0503172E-20
   4.600000      2.1315136E-20
   4.610000      2.2112250E-20
   4.620000      2.2889853E-20
   4.630000      2.3642959E-20
   4.640000      2.4366246E-20
   4.650000      2.5054052E-20
   4.660000      2.5700376E-20
   4.670000      2.6298860E-20
   4.680000      2.6842798E-20
   4.690000      2.7325123E-20
   4.700000      2.7738416E-20
   4.710000      2.8074894E-20
   4.720000      2.8326422E-20
   4.730000      2.8484514E-20
   4.740000      2.8540332E-20
   4.750000      2.8484695E-20
   4.760000      2.8308092E-20
   4.770000      2.8000684E-20
   4.780000      2.7552320E-20
   4.790000      2.6952566E-20
   4.800000      2.6190695E-20
   4.810000      2.5255729E-20
   4.820000      2.4136455E-20
   4.830000      2.2821446E-20
   4.840000      2.1299096E-20
   4.850000      1.9557644E-20
   4.860000      1.7585217E-20
   4.870000      1.5369858E-20
   4.880000      1.2899568E-20
   4.890000      1.0162361E-20
   4.900000      7.1463001E-21
   4.910000      3.8395547E-21
   4.920000      2.3044909E-22
   4.930000     -3.6924789E-21
   4.940000     -7.9404072E-21
   4.950000     -1.2524175E-20
   4.960000     -1.7454204E-20
   4.970000     -2.2740425E-20
   4.980000     -2.8392206E-20
   4.990000     -3.4418262E-20
   5.000000     -4.0826572E-20
   5.010000     -4.7624300E-20
   5.020000     -5.4817692E-20
   5.030000     -6.2411960E-20
   5.040000     -7.0411216E-20
   5.050000     -7.8818351E-20
   5.060000     -8.7634920E-20
   5.070000     -9.6861034E-20
   5.080000     -1.0649526E-19
   5.090000     -1.1653447E-19
   5.100000     -1.2697375E-19
   5.110000     -1.3780627E-19
   5.120000     -1.4902314E-19
   5.130000     -1.6061332E-19
   5.140000     -1.7256346E-19
   5.150000     -1.8485775E-19
   5.160000     -1.9747788E-19
   5.170000     -2.1040280E-19
   5.180000     -2.2360866E-19
   5.190000     -2.3706867E-19
   5.200000     -2.5075293E-19
   5.210000     -2.6462836E-19
   5.220000     -2.7865851E-19
   5.230000     -2.9280348E-19
   5.240000     -3.0701987E-19
   5.250000     -3.2126048E-19
   5.260000     -3.3547439E-19
   5.270000     -3.4960680E-19
   5.280000     -3.6359884E-19
   5.290000     -3.7738758E-19
   5.300000     -3.9090599E-19
   5.310000     -4.0408274E-19
   5.320000     -4.1684224E-19
   5.330000     -4.2910452E-19
   5.340000     -4.4078532E-19
   5.350000     -4.5179581E-19
   5.360000     -4.6204293E-19
   5.370000     -4.7142910E-19
   5.380000     -4.7985244E-19
   5.390000     -4.8720669E-19
   5.400000     -4.9338134E-19
   5.410000     -4.9826160E-19
   5.420000     -5.0172878E-19
   5.430000     -5.0366009E-19
   5.440000     -5.0392903E-19
   5.450000     -5.0240526E-19
   5.460000     -4.9895524E-19
   5.470000     -4.9344208E-19
   5.480000     -4.8572609E-19
   5.490000     -4.7566478E-19
   5.500000     -4.6311340E-19
   5.510000     -4.4792523E-19
   5.520000     -4.2995186E-19
   5.530000     -4.0904384E-19
   5.540000     -3.8505082E-19
   5.550000     -3.5782223E-19
   5.560000     -3.2720783E-19
   5.570000     -2.9305812E-19
   5.580000     -2.5522518E-19
   5.590000     -2.1356299E-19
   5.600000     -1.6792833E-19
   5.610000     -1.1818134E-19
   5.620000     -6.4186424E-20
   5.630000     -5.8129839E-21
   5.640000      5.7063888E-20
   5.650000      1.2456229E-19
   5.660000      1.9679272E-19
   5.670000      2.7385727E-19
   5.680000      3.5584845E-19
   5.690000      4.4284820E-19
   5.700000      5.3492700E-19
   5.710000      6.3214254E-19
   5.720000      7.3453866E-19
   5.730000      8.4214431E-19
   5.740000      9.5497237E-19
   5.750000      1.0730182E-18
   5.760000      1.1962588E-18
   5.770000      1.3246512E-18
   5.780000      1.4581312E-18
   5.790000      1.5966124E-18
   5.800000      1.7399848E-18
   5.810000      1.8881132E-18
   5.820000      2.0408359E-18
   5.830000      2.1979643E-18
   5.840000      2.3592800E-18
   5.850000      2.5245348E-18
   5.860000      2.6934492E-18
   5.870000      2.8657106E-18
   5.880000      3.0409722E-18
   5.890000      3.2188526E-18
   5.900000      3.3989341E-18
   5.910000      3.5807606E-18
   5.920000      3.7638389E-18
   5.930000      3.9476347E-18
   5.940000      4.1315744E-18
   5.950000      4.3150418E-18
   5.960000      4.4973797E-18
   5.970000      4.6778883E-18
   5.980000      4.8558228E-18
   5.990000      5.0303955E-18
   6.000000      5.2007744E-18
   6.010000      5.3660832E-18
   6.020000      5.5254011E-18
   6.030000      5.6777615E-18
   6.040000      5.8221550E-18
   6.050000      5.9575272E-18
   6.060000      6.0827806E-18
   6.070000      6.1967748E-18
   6.080000      6.2983285E-18
   6.090000      6.3862177E-18
   6.100000      6.4591821E-18
   6.110000      6.5159209E-18
   6.120000      6.5550986E-18
   6.130000      6.5753468E-18
   6.140000      6.5752637E-18
   6.150000      6.5534195E-18
   6.160000      6.5083584E-18
   6.170000      6.4386010E-18
   6.180000      6.3426481E-18
   6.190000      6.2189862E-18
   6.200000      6.0660889E-18
   6.210000      5.8824225E-18
   6.220000      5.6664494E-18
   6.230000      5.4166359E-18
   6.240000      5.1314542E-18
   6.250000      4.8093902E-18
   6.260000      4.4489479E-18
   6.270000      4.0486562E-18
   6.280000      3.6070762E-18
   6.290000      3.1228068E-18
   6.300000      2.5944931E-18
   6.310000      2.0208343E-18
   6.320000      1.4005889E-18
   6.330000      7.3258610E-19
   6.340000      1.5733555E-20
   6.350000     -7.5097479E-19
   6.360000     -1.5684500E-18
   6.370000     -2.4374976E-18
   6.380000     -3.3588084E-18
   6.390000     -4.3329487E-18
   6.400000     -5.3603487E-18
   6.410000     -6.4412947E-18
   6.420000     -7.5759164E-18
   6.430000     -8.7641771E-18
   6.440000     -1.0005865E-17
   6.450000     -1.1300576E-17
   6.460000     -1.2647711E-17
   6.470000     -1.4046457E-17
   6.480000     -1.5495781E-17
   6.490000     -1.6994417E-17
   6.500000     -1.8540856E-17
   6.510000     -2.0133333E-17
   6.520000     -2.1769820E-17
   6.530000     -2.3448009E-17
   6.540000     -2.5165308E-17
   6.550000     -2.6918826E-17
   6.560000     -2.8705368E-17
   6.570000     -3.0521423E-17
   6.580000     -3.2363147E-17
   6.590000     -3.4226375E-17
   6.600000     -3.6106589E-17
   6.610000     -3.7998924E-17
   6.620000     -3.9898163E-17
   6.630000     -4.1798730E-17
   6.640000     -4.3694664E-17
   6.650000     -4.5579650E-17
   6.660000     -4.7446987E-17
   6.670000     -4.9289605E-17
   6.680000     -5.1100048E-17
   6.690000     -5.2870483E-17
   6.700000     -5.4592696E-17
   6.710000     -5.6258102E-17
   6.720000     -5.7857730E-17
   6.730000     -5.9382251E-17
   6.740000     -6.0821982E-17
   6.750000     -6.2166871E-17
   6.760000     -6.3406524E-17
   6.770000     -6.4530219E-17
   6.780000     -6.5526919E-17
   6.790000     -6.6385274E-17
   6.800000     -6.7093645E-17
   6.810000     -6.7640127E-17
   6.820000     -6.8012583E-17
   6.830000     -6.8198633E-17
   6.840000     -6.8185702E-17
   6.850000     -6.7961040E-17
   6.860000     -6.7511755E-17
   6.870000     -6.6824858E-17
   6.880000     -6.5887265E-17
   6.890000     -6.4685861E-17
   6.900000     -6.3207537E-17
   6.910000     -6.1439217E-17
   6.920000     -5.9367904E-17
   6.930000     -5.6980734E-17
   6.940000     -5.4265033E-17
   6.950000     -5.1208343E-17
   6.960000     -4.7798486E-17
   6.970000     -4.4023641E-17
   6.980000     -3.9872365E-17
   6.990000     -3.5333672E-17
   7.000000     -3.0397104E-17
   7.010000     -2.5052776E-17
   7.020000     -1.9291457E-17
   7.030000     -1.3104634E-17
   7.040000     -6.4845898E-18
   7.050000      5.7553862E-19
   7.060000      8.0816745E-18