  -2.600000      0.0000000E+00
  -2.590000      0.0000000E+00
  -2.580000      0.0000000E+00
  -2.570000      0.0000000E+00
  -2.560000      0.0000000E+00
  -2.550000      0.0000000E+00
  -2.540000      0.0000000E+00
  -2.530000      0.0000000E+00
  -2.520000      0.0000000E+00
  -2.510000      0.0000000E+00
  -2.500000      0.0000000E+00
  -2.490000      0.0000000E+00
  -2.480000      0.0000000E+00
  -2.470000      0.0000000E+00
  -2.460000      0.0000000E+00
  -2.450000      0.0000000E+00
  -2.440000      0.0000000E+00
  -2.430000      0.0000000E+00
  -2.420000      0.0000000E+00
  -2.410000      0.0000000E+00
  -2.400000      0.0000000E+00
  -2.390000      0.0000000E+00
  -2.380000      0.0000000E+00
  -2.370000      0.0000000E+00
  -2.360000      0.0000000E+00
  -2.350000      0.0000000E+00
  -2.340000      0.0000000E+00
  -2.330000      0.0000000E+00
  -2.320000      0.0000000E+00
  -2.310000      0.0000000E+00
  -2.300000      0.0000000E+00
  -2.290000      0.0000000E+00
  -2.280000      0.0000000E+00
  -2.270000      0.0000000E+00
  -2.260000      0.0000000E+00
  -2.250000      0.0000000E+00
  -2.240000      0.0000000E+00
  -2.230000      0.0000000E+00
  -2.220000      0.0000000E+00
  -2.210000      0.0000000E+00
  -2.200000      0.0000000E+00
  -2.190000      0.0000000E+00
  -2.180000      0.0000000E+00
  -2.170000      0.0000000E+00
  -2.160000      0.0000000E+00
  -2.150000      0.0000000E+00
  -2.140000      0.0000000E+00
  -2.130000      0.0000000E+00
  -2.120000      0.0000000E+00
  -2.110000      0.0000000E+00
  -2.100000      0.0000000E+00
  -2.090000      0.0000000E+00
  -2.080000      0.0000000E+00
  -2.070000      0.0000000E+00
  -2.060000      0.0000000E+00
  -2.050000      0.0000000E+00
  -2.040000      0.0000000E+00
  -2.030000      0.0000000E+00
  -2.020000      0.0000000E+00
  -2.010000      0.0000000E+00
  -2.000000      0.0000000E+00
  -1.990000      0.0000000E+00
  -1.980000      0.0000000E+00
  -1.970000      0.0000000E+00
  -1.960000      0.0000000E+00
  -1.950000      0.0000000E+00
  -1.940000      0.0000000E+00
  -1.930000      0.0000000E+00
  -1.920000      0.0000000E+00
  -1.910000      0.0000000E+00
  -1.900000      0.0000000E+00
  -1.890000      0.0000000E+00
  -1.880000      0.0000000E+00
  -1.870000      0.0000000E+00
  -1.860000      0.0000000E+00
  -1.850000      0.0000000E+00
  -1.840000      0.0000000E+00
  -1.830000      0.0000000E+00
  -1.820000      0.0000000E+00
  -1.810000      0.0000000E+00
  -1.800000      0.0000000E+00
  -1.790000      0.0000000E+00
  -1.780000      0.0000000E+00
  -1.770000      0.0000000E+00
  -1.760000      0.0000000E+00
  -1.750000      0.0000000E+00
  -1.740000      0.0000000E+00
  -1.730000      0.0000000E+00
  -1.720000      0.0000000E+00
  -1.710000      0.0000000E+00
  -1.700000      0.0000000E+00
  -1.690000      0.0000000E+00
  -1.680000      0.0000000E+00
  -1.670000      0.0000000E+00
  -1.660000      0.0000000E+00
  -1.650000      0.0000000E+00
  -1.640000      0.0000000E+00
  -1.630000      0.0000000E+00
  -1.620000      0.0000000E+00
  -1.610000      0.0000000E+00
  -1.600000      0.0000000E+00
  -1.590000      0.0000000E+00
  -1.580000      0.0000000E+00
  -1.570000      0.0000000E+00
  -1.560000      0.0000000E+00
  -1.550000      0.0000000E+00
  -1.540000      0.0000000E+00
  -1.530000      0.0000000E+00
  -1.520000      0.0000000E+00
  -1.510000      0.0000000E+00
  -1.500000      0.0000000E+00
  -1.490000      0.0000000E+00
  -1.480000      0.0000000E+00
  -1.470000      0.0000000E+00
  -1.460000      0.0000000E+00
  -1.450000      0.0000000E+00
  -1.440000      0.0000000E+00
  -1.430000      0.0000000E+00
  -1.420000      0.0000000E+00
  -1.410000      0.0000000E+00
  -1.400000      0.0000000E+00
  -1.390000      0.0000000E+00
  -1.380000      0.0000000E+00
  -1.370000      0.0000000E+00
  -1.360000      0.0000000E+00
  -1.350000      0.0000000E+00
  -1.340000      0.0000000E+00
  -1.330000      0.0000000E+00
  -1.320000      0.0000000E+00
  -1.310000      0.0000000E+00
  -1.300000      0.0000000E+00
  -1.290000      0.0000000E+00
  -1.280000      0.0000000E+00
  -1.270000      0.0000000E+00
  -1.260000      0.0000000E+00
  -1.250000      0.0000000E+00
  -1.240000      0.0000000E+00
  -1.230000      0.0000000E+00
  -1.220000      0.0000000E+00
  -1.210000      0.0000000E+00
  -1.200000      0.0000000E+00
  -1.190000      0.0000000E+00
  -1.180000      0.0000000E+00
  -1.170000      0.0000000E+00
  -1.160000      0.0000000E+00
  -1.150000      0.0000000E+00
  -1.140000      0.0000000E+00
  -1.130000      0.0000000E+00
  -1.120000      0.0000000E+00
  -1.110000      0.0000000E+00
  -1.100000      0.0000000E+00
  -1.090000      0.0000000E+00
  -1.080000      0.0000000E+00
  -1.070000      0.0000000E+00
  -1.060000      0.0000000E+00
  -1.050000      0.0000000E+00
  -1.040000      0.0000000E+00
  -1.030000      0.0000000E+00
  -1.020000      0.0000000E+00
  -1.010000      0.0000000E+00
  -1.000000      0.0000000E+00
 -0.9900000      0.0000000E+00
 -0.9800000      0.0000000E+00
 -0.9700000      0.0000000E+00
 -0.9600000      0.0000000E+00
 -0.9500000      0.0000000E+00
 -0.9400000      0.0000000E+00
 -0.9300000      0.0000000E+00
 -0.9200000      0.0000000E+00
 -0.9100000      0.0000000E+00
 -0.9000000      0.0000000E+00
 -0.8900000      0.0000000E+00
 -0.8800000      0.0000000E+00
 -0.8700000      0.0000000E+00
 -0.8600000      0.0000000E+00
 -0.8500000      0.0000000E+00
 -0.8400000      0.0000000E+00
 -0.8300000      0.0000000E+00
 -0.8200000      0.0000000E+00
 -0.8100000      0.0000000E+00
 -0.8000000      0.0000000E+00
 -0.7900000      0.0000000E+00
 -0.7800000      0.0000000E+00
 -0.7700000      0.0000000E+00
 -0.7600000      0.0000000E+00
 -0.7500000      0.0000000E+00
 -0.7400000      0.0000000E+00
 -0.7300000      0.0000000E+00
 -0.7200000      0.0000000E+00
 -0.7100000      0.0000000E+00
 -0.7000000      0.0000000E+00
 -0.6900000      0.0000000E+00
 -0.6800000      0.0000000E+00
 -0.6700000      0.0000000E+00
 -0.6600000      0.0000000E+00
 -0.6500000      0.0000000E+00
 -0.6400000      0.0000000E+00
 -0.6300000      0.0000000E+00
 -0.6200000      0.0000000E+00
 -0.6100000      0.0000000E+00
 -0.6000000      0.0000000E+00
 -0.5900000      0.0000000E+00
 -0.5800000      0.0000000E+00
 -0.5700000      0.0000000E+00
 -0.5600000      0.0000000E+00
 -0.5500000      0.0000000E+00
 -0.5400000      0.0000000E+00
 -0.5300000      0.0000000E+00
 -0.5200000      0.0000000E+00
 -0.5100000      0.0000000E+00
 -0.5000000      0.0000000E+00
 -0.4900000      0.0000000E+00
 -0.4800000      0.0000000E+00
 -0.4700000      0.0000000E+00
 -0.4600000      0.0000000E+00
 -0.4500000      0.0000000E+00
 -0.4400000      0.0000000E+00
 -0.4300000      0.0000000E+00
 -0.4200000      0.0000000E+00
 -0.4100000      0.0000000E+00
 -0.4000000      0.0000000E+00
 -0.3900000      0.0000000E+00
 -0.3800000      0.0000000E+00
 -0.3700000      0.0000000E+00
 -0.3600000      0.0000000E+00
 -0.3500000      0.0000000E+00
 -0.3400000      0.0000000E+00
 -0.3300000      0.0000000E+00
 -0.3200000      0.0000000E+00
 -0.3100000      0.0000000E+00
 -0.3000000      0.0000000E+00
 -0.2900000      0.0000000E+00
 -0.2800000      0.0000000E+00
 -0.2700000      0.0000000E+00
 -0.2600000      0.0000000E+00
 -0.2500000      0.0000000E+00
 -0.2400000      0.0000000E+00
 -0.2300000      0.0000000E+00
 -0.2200000      0.0000000E+00
 -0.2100000      0.0000000E+00
 -0.2000000      0.0000000E+00
 -0.1900000      0.0000000E+00
 -0.1800000      0.0000000E+00
 -0.1700000      0.0000000E+00
 -0.1600000      0.0000000E+00
 -0.1500000      0.0000000E+00
 -0.1400000      0.0000000E+00
 -0.1300000      0.0000000E+00
 -0.1200000      0.0000000E+00
 -0.1100000      0.0000000E+00
 -0.1000000      0.0000000E+00
 -9.0000004E-02  0.0000000E+00
 -7.9999998E-02  0.0000000E+00
 -7.0000000E-02  0.0000000E+00
 -5.9999999E-02  0.0000000E+00
 -5.0000001E-02  0.0000000E+00
 -3.9999999E-02  0.0000000E+00
 -2.9999999E-02  0.0000000E+00
 -2.0000000E-02  0.0000000E+00
 -9.9999998E-03  0.0000000E+00
 -3.4694470E-17  0.0000000E+00
  9.9999998E-03  0.0000000E+00
  2.0000000E-02  0.0000000E+00
  2.9999999E-02  0.0000000E+00
  3.9999999E-02  0.0000000E+00
  5.0000001E-02  0.0000000E+00
  5.9999999E-02  0.0000000E+00
  7.0000000E-02  0.0000000E+00
  7.9999998E-02  0.0000000E+00
  9.0000004E-02  0.0000000E+00
  0.1000000      0.0000000E+00
  0.1100000      0.0000000E+00
  0.1200000      0.0000000E+00
  0.1300000      0.0000000E+00
  0.1400000      0.0000000E+00
  0.1500000      0.0000000E+00
  0.1600000      0.0000000E+00
  0.1700000      0.0000000E+00
  0.1800000      0.0000000E+00
  0.1900000      0.0000000E+00
  0.2000000      0.0000000E+00
  0.2100000      0.0000000E+00
  0.2200000      0.0000000E+00
  0.2300000      0.0000000E+00
  0.2400000      0.0000000E+00
  0.2500000      0.0000000E+00
  0.2600000      0.0000000E+00
  0.2700000      0.0000000E+00
  0.2800000      0.0000000E+00
  0.2900000      0.0000000E+00
  0.3000000      0.0000000E+00
  0.3100000      0.0000000E+00
  0.3200000      0.0000000E+00
  0.3300000      0.0000000E+00
  0.3400000      0.0000000E+00
  0.3500000      0.0000000E+00
  0.3600000      1.9773049E-38
  0.3700000      3.9808064E-38
  0.3800000      6.8963015E-38
  0.3900000      1.0657033E-37
  0.4000000      1.5467122E-37
  0.4100000      2.1175916E-37
  0.4200000      2.7571476E-37
  0.4300000      3.3417029E-37
  0.4400000      3.7369395E-37
  0.4500000      3.9989404E-37
  0.4600000      4.0615351E-37
  0.4700000      3.7797428E-37
  0.4800000      3.2878386E-37
  0.4900000      2.6996739E-37
  0.5000000      1.8332177E-37
  0.5100000      5.6827546E-38
  0.5200000     -9.8981165E-38
  0.5300000     -2.8858926E-37
  0.5400000     -5.2413944E-37
  0.5500000     -8.0072284E-37
  0.5600000     -1.1165006E-36
  0.5700000     -1.4712298E-36
  0.5800000     -1.8586362E-36
  0.5900000     -2.2654210E-36
  0.6000000     -2.7271582E-36
  0.6100000     -3.2308997E-36
  0.6200000     -3.7368147E-36
  0.6300000     -4.3125411E-36
  0.6400000     -4.9520971E-36
  0.6500000     -5.6178392E-36
  0.6600000     -6.2815013E-36
  0.6700000     -6.8501359E-36
  0.6800000     -7.3416711E-36
  0.6900000     -7.8214527E-36
  0.7000000     -8.2883150E-36
  0.7100000     -8.7453874E-36
  0.7200000     -9.1819195E-36
  0.7300000     -9.5618638E-36
  0.7400000     -9.8641375E-36
  0.7500000     -1.0067855E-35
  0.7600000     -1.0066507E-35
  0.7700000     -9.8560660E-36
  0.7800000     -9.3489317E-36
  0.7900000     -8.4625836E-36
  0.8000000     -7.2197925E-36
  0.8100000     -5.5543755E-36
  0.8200000     -3.4418236E-36
  0.8300000     -8.5405424E-37
  0.8400000      2.4652104E-36
  0.8500000      6.5787915E-36
  0.8600000      1.0897001E-35
  0.8700000      1.5390270E-35
  0.8800000      1.9983338E-35
  0.8900000      2.4491224E-35
  0.9000000      2.9213279E-35
  0.9100000      3.4193914E-35
  0.9200000      3.9312483E-35
  0.9300000      4.4049903E-35
  0.9400000      4.8630092E-35
  0.9500000      5.3439328E-35
  0.9600000      5.8380198E-35
  0.9700000      6.3646740E-35
  0.9800000      6.9115389E-35
  0.9900000      7.4493683E-35
   1.000000      7.9950485E-35
   1.010000      8.6237681E-35
   1.020000      9.2922966E-35
   1.030000      9.9130667E-35
   1.040000      1.0424115E-34
   1.050000      1.0835487E-34
   1.060000      1.1214678E-34
   1.070000      1.1546254E-34
   1.080000      1.1788041E-34
   1.090000      1.1956800E-34
   1.100000      1.1984126E-34
   1.110000      1.1615112E-34
   1.120000      1.0854710E-34
   1.130000      9.9371356E-35
   1.140000      8.9265434E-35
   1.150000      8.0618083E-35
   1.160000      7.3599601E-35
   1.170000      6.5834830E-35
   1.180000      5.6082055E-35
   1.190000      4.4018412E-35
   1.200000      3.0129582E-35
   1.210000      1.4398090E-35
   1.220000     -2.6609674E-36
   1.230000     -2.5172649E-35
   1.240000     -5.3912700E-35
   1.250000     -8.5640761E-35
   1.260000     -1.1674284E-34
   1.270000     -1.4737630E-34
   1.280000     -1.8038250E-34
   1.290000     -2.1466426E-34
   1.300000     -2.4801271E-34
   1.310000     -2.8230007E-34
   1.320000     -3.1611355E-34
   1.330000     -3.4902902E-34
   1.340000     -3.8576111E-34
   1.350000     -4.2371511E-34
   1.360000     -4.5853886E-34
   1.370000     -4.9108706E-34
   1.380000     -5.2276700E-34
   1.390000     -5.5575518E-34
   1.400000     -5.9240971E-34
   1.410000     -6.3294199E-34
   1.420000     -6.7482261E-34
   1.430000     -7.1341119E-34
   1.440000     -7.5154010E-34
   1.450000     -7.8826842E-34
   1.460000     -8.2418308E-34
   1.470000     -8.6199083E-34
   1.480000     -8.9798392E-34
   1.490000     -9.3210806E-34
   1.500000     -9.6429227E-34
   1.510000     -9.9375255E-34
   1.520000     -1.0222608E-33
   1.530000     -1.0482314E-33
   1.540000     -1.0739003E-33
   1.550000     -1.0940149E-33
   1.560000     -1.1088032E-33
   1.570000     -1.1241033E-33
   1.580000     -1.1344722E-33
   1.590000     -1.1391387E-33
   1.600000     -1.1374698E-33
   1.610000     -1.1272408E-33
   1.620000     -1.1072441E-33
   1.630000     -1.0758359E-33
   1.640000     -1.0316547E-33
   1.650000     -9.7215973E-34
   1.660000     -8.9484875E-34
   1.670000     -7.9872913E-34
   1.680000     -6.7900117E-34
   1.690000     -5.3276448E-34
   1.700000     -3.6038760E-34
   1.710000     -1.5807177E-34
   1.720000      7.7284977E-35
   1.730000      3.4462693E-34
   1.740000      6.4625061E-34
   1.750000      9.8503240E-34
   1.760000      1.3625955E-33
   1.770000      1.7802248E-33
   1.780000      2.2383012E-33
   1.790000      2.7369700E-33
   1.800000      3.2760752E-33
   1.810000      3.8554543E-33
   1.820000      4.4744656E-33
   1.830000      5.1316298E-33
   1.840000      5.8245286E-33
   1.850000      6.5527712E-33
   1.860000      7.3109100E-33
   1.870000      8.0904942E-33
   1.880000      8.8898083E-33
   1.890000      9.7059856E-33
   1.900000      1.0531208E-32
   1.910000      1.1356551E-32
   1.920000      1.2173391E-32
   1.930000      1.2971558E-32
   1.940000      1.3740114E-32
   1.950000      1.4467229E-32
   1.960000      1.5138882E-32
   1.970000      1.5739160E-32
   1.980000      1.6252987E-32
   1.990000      1.6663401E-32
   2.000000      1.6950521E-32
   2.010000      1.7094521E-32
   2.020000      1.7073559E-32
   2.030000      1.6865223E-32
   2.040000      1.6446427E-32
   2.050000      1.5793033E-32
   2.060000      1.4880517E-32
   2.070000      1.3683774E-32
   2.080000      1.2177719E-32
   2.090000      1.0337691E-32
   2.100000      8.1396188E-33
   2.110000      5.5606848E-33
   2.120000      2.5789556E-33
   2.130000     -8.2586119E-34
   2.140000     -4.6715057E-33
   2.150000     -8.9731200E-33
   2.160000     -1.3742256E-32
   2.170000     -1.8987228E-32
   2.180000     -2.4712812E-32
   2.190000     -3.0919090E-32
   2.200000     -3.7600508E-32
   2.210000     -4.4747626E-32
   2.220000     -5.2346033E-32
   2.230000     -6.0372491E-32
   2.240000     -6.8797682E-32
   2.250000     -7.7586577E-32
   2.260000     -8.6696258E-32
   2.270000     -9.6076210E-32
   2.280000     -1.0566747E-31
   2.290000     -1.1540288E-31
   2.300000     -1.2520698E-31
   2.310000     -1.3499510E-31
   2.320000     -1.4467358E-31
   2.330000     -1.5413946E-31
   2.340000     -1.6328039E-31
   2.350000     -1.7197460E-31
   2.360000     -1.8009091E-31
   2.370000     -1.8748880E-31
   2.380000     -1.9401870E-31
   2.390000     -1.9952230E-31
   2.400000     -2.0383284E-31
   2.410000     -2.0677585E-31
   2.420000     -2.0817006E-31
   2.430000     -2.0782797E-31
   2.440000     -2.0555724E-31
   2.450000     -2.0116188E-31
   2.460000     -1.9444362E-31
   2.470000     -1.8520370E-31
   2.480000     -1.7324383E-31
   2.490000     -1.5837075E-31
   2.500000     -1.4039666E-31
   2.510000     -1.1913998E-31
   2.520000     -9.4430229E-32
   2.530000     -6.6109744E-32
   2.540000     -3.4036418E-32
   2.550000      1.9135751E-33
   2.560000      4.1843091E-32
   2.570000      8.5831177E-32
   2.580000      1.3393018E-31
   2.590000      1.8616335E-31
   2.600000      2.4252181E-31
   2.610000      3.0296213E-31
   2.620000      3.6740360E-31
   2.630000      4.3572576E-31
   2.640000      5.0776649E-31
   2.650000      5.8332012E-31
   2.660000      6.6213335E-31
   2.670000      7.4390469E-31
   2.680000      8.2828435E-31
   2.690000      9.1487023E-31
   2.700000      1.0032078E-30
   2.710000      1.0927875E-30
   2.720000      1.1830453E-30
   2.730000      1.2733615E-30
   2.740000      1.3630600E-30
   2.750000      1.4514085E-30
   2.760000      1.5376184E-30
   2.770000      1.6208463E-30
   2.780000      1.7001940E-30
   2.790000      1.7747110E-30
   2.800000      1.8433963E-30
   2.810000      1.9052014E-30
   2.820000      1.9590341E-30
   2.830000      2.0037623E-30
   2.840000      2.0382205E-30
   2.850000      2.0612139E-30
   2.860000      2.0715261E-30
   2.870000      2.0679272E-30
   2.880000      2.0491817E-30
   2.890000      2.0140580E-30
   2.900000      1.9613388E-30
   2.910000      1.8898321E-30
   2.920000      1.7983824E-30
   2.930000      1.6858837E-30
   2.940000      1.5512908E-30
   2.950000      1.3936345E-30
   2.960000      1.2120340E-30
   2.970000      1.0057108E-30
   2.980000      7.7400331E-31
   2.990000      5.1637972E-31
   3.000000      2.3245323E-31
   3.010000     -7.8004730E-32
   3.020000     -4.1505201E-31
   3.030000     -7.7856113E-31
   3.040000     -1.1682069E-30
   3.050000     -1.5834552E-30
   3.060000     -2.0235488E-30
   3.070000     -2.4874976E-30
   3.080000     -2.9740675E-30
   3.090000     -3.4817714E-30
   3.100000     -4.0088574E-30
   3.110000     -4.5533009E-30
   3.120000     -5.1127967E-30
   3.130000     -5.6847539E-30
   3.140000     -6.2662858E-30
   3.150000     -6.8542101E-30
   3.160000     -7.4450403E-30
   3.170000     -8.0349903E-30
   3.180000     -8.6199682E-30
   3.190000     -9.1955790E-30
   3.200000     -9.7571305E-30
   3.210000     -1.0299642E-29
   3.220000     -1.0817848E-29
   3.230000     -1.1306217E-29
   3.240000     -1.1758959E-29
   3.250000     -1.2170053E-29
   3.260000     -1.2533265E-29
   3.270000     -1.2842175E-29
   3.280000     -1.3090203E-29
   3.290000     -1.3270650E-29
   3.300000     -1.3376736E-29
   3.310000     -1.3401633E-29
   3.320000     -1.3338523E-29
   3.330000     -1.3180631E-29
   3.340000     -1.2921299E-29
   3.350000     -1.2554016E-29
   3.360000     -1.2072498E-29
   3.370000     -1.1470739E-29
   3.380000     -1.0743073E-29
   3.390000     -9.8842396E-30
   3.400000     -8.8894547E-30
   3.410000     -7.7544718E-30
   3.420000     -6.4756536E-30
   3.430000     -5.0500377E-30
   3.440000     -3.4754064E-30
   3.450000     -1.7503619E-30
   3.460000      1.2561266E-31
   3.470000      2.1520800E-30
   3.480000      4.3275725E-30
   3.490000      6.6495349E-30
   3.500000      9.1142491E-30
   3.510000      1.1716778E-29
   3.520000      1.4450884E-29
   3.530000      1.7308973E-29
   3.540000      2.0282028E-29
   3.550000      2.3359556E-29
   3.560000      2.6529516E-29
   3.570000      2.9778277E-29
   3.580000      3.3090579E-29
   3.590000      3.6449449E-29
   3.600000      3.9836206E-29
   3.610000      4.3230408E-29
   3.620000      4.6609831E-29
   3.630000      4.9950471E-29
   3.640000      5.3226511E-29
   3.650000      5.6410362E-29
   3.660000      5.9472687E-29
   3.670000      6.2382400E-29
   3.680000      6.5106748E-29
   3.690000      6.7611372E-29
   3.700000      6.9860400E-29
   3.710000      7.1816531E-29
   3.720000      7.3441168E-29
   3.730000      7.4694521E-29
   3.740000      7.5535803E-29
   3.750000      7.5923366E-29
   3.760000      7.5814894E-29
   3.770000      7.5167607E-29
   3.780000      7.3938497E-29
   3.790000      7.2084530E-29
   3.800000      6.9562916E-29
   3.810000      6.6331356E-29
   3.820000      6.2348335E-29
   3.830000      5.7573419E-29
   3.840000      5.1967530E-29
   3.850000      4.5493315E-29
   3.860000      3.8115436E-29
   3.870000      2.9800913E-29
   3.880000      2.0519541E-29
   3.890000      1.0244206E-29
   3.900000     -1.0487123E-30
   3.910000     -1.3378901E-29
   3.920000     -2.6761744E-29
   3.930000     -4.1207871E-29
   3.940000     -5.6722717E-29
   3.950000     -7.3306046E-29
   3.960000     -9.0951554E-29
   3.970000     -1.0964630E-28
   3.980000     -1.2937029E-28
   3.990000     -1.5009599E-28
   4.000000     -1.7178786E-28
   4.010000     -1.9440180E-28
   4.020000     -2.1788472E-28
   4.030000     -2.4217404E-28
   4.040000     -2.6719726E-28
   4.050000     -2.9287152E-28
   4.060000     -3.1910314E-28
   4.070000     -3.4578738E-28
   4.080000     -3.7280792E-28
   4.090000     -4.0003659E-28
   4.100000     -4.2733323E-28
   4.110000     -4.5454508E-28
   4.120000     -4.8150699E-28
   4.130000     -5.0804111E-28
   4.140000     -5.3395685E-28
   4.150000     -5.5905086E-28
   4.160000     -5.8310697E-28
   4.170000     -6.0589645E-28
   4.180000     -6.2717793E-28
   4.190000     -6.4669781E-28
   4.200000     -6.6419040E-28
   4.210000     -6.7937862E-28
   4.220000     -6.9197401E-28
   4.230000     -7.0167738E-28
   4.240000     -7.0817956E-28
   4.250000     -7.1116177E-28
   4.260000     -7.1029673E-28
   4.270000     -7.0524926E-28
   4.280000     -6.9567729E-28
   4.290000     -6.8123305E-28
   4.300000     -6.6156401E-28
   4.310000     -6.3631421E-28
   4.320000     -6.0512603E-28
   4.330000     -5.6764094E-28
   4.340000     -5.2350170E-28
   4.350000     -4.7235449E-28
   4.360000     -4.1384980E-28
   4.370000     -3.4764552E-28
   4.380000     -2.7340846E-28
   4.390000     -1.9081719E-28
   4.400000     -9.9564229E-29
   4.410000      6.4133025E-31
   4.420000      1.1007075E-28
   4.430000      2.2897335E-28
   4.440000      3.5757273E-28
   4.450000      4.9606404E-28
   4.460000      6.4461116E-28
   4.470000      8.0334255E-28
   4.480000      9.7234820E-28
   4.490000      1.1516763E-27
   4.500000      1.3413293E-27
   4.510000      1.5412608E-27
   4.520000      1.7513714E-27
   4.530000      1.9715057E-27
   4.540000      2.2014473E-27
   4.550000      2.4409157E-27
   4.560000      2.6895621E-27
   4.570000      2.9469669E-27
   4.580000      3.2126349E-27
   4.590000      3.4859921E-27
   4.600000      3.7663802E-27
   4.610000      4.0530552E-27
   4.620000      4.3451838E-27
   4.630000      4.6418378E-27
   4.640000      4.9419925E-27
   4.650000      5.2445229E-27
   4.660000      5.5481993E-27
   4.670000      5.8516862E-27
   4.680000      6.1535384E-27
   4.690000      6.4521985E-27
   4.700000      6.7459949E-27
   4.710000      7.0331395E-27
   4.720000      7.3117276E-27
   4.730000      7.5797330E-27
   4.740000      7.8350112E-27
   4.750000      8.0752964E-27
   4.760000      8.2982027E-27
   4.770000      8.5012243E-27
   4.780000      8.6817378E-27
   4.790000      8.8370009E-27
   4.800000      8.9641600E-27
   4.810000      9.0602493E-27
   4.820000      9.1221972E-27
   4.830000      9.1468291E-27
   4.840000      9.1308770E-27
   4.850000      9.0709806E-27
   4.860000      8.9636955E-27
   4.870000      8.8055050E-27
   4.880000      8.5928300E-27
   4.890000      8.3220350E-27
   4.900000      7.9894384E-27
   4.910000      7.5913302E-27
   4.920000      7.1239787E-27
   4.930000      6.5836505E-27
   4.940000      5.9666226E-27
   4.950000      5.2691980E-27
   4.960000      4.4877284E-27
   4.970000      3.6186225E-27
   4.980000      2.6583786E-27
   4.990000      1.6035990E-27
   5.000000      4.5101370E-28
   5.010000     -8.0249716E-28
   5.020000     -2.1598800E-27
   5.030000     -3.6238768E-27
   5.040000     -5.1969968E-27
   5.050000     -6.8814925E-27
   5.060000     -8.6793258E-27
   5.070000     -1.0592140E-26
   5.080000     -1.2621228E-26
   5.090000     -1.4767482E-26
   5.100000     -1.7031390E-26
   5.110000     -1.9412969E-26
   5.120000     -2.1911741E-26
   5.130000     -2.4526701E-26
   5.140000     -2.7256263E-26
   5.150000     -3.0098230E-26
   5.160000     -3.3049762E-26
   5.170000     -3.6107328E-26
   5.180000     -3.9266661E-26
   5.190000     -4.2522712E-26
   5.200000     -4.5869630E-26
   5.210000     -4.9300707E-26
   5.220000     -5.2808352E-26
   5.230000     -5.6384024E-26
   5.240000     -6.0018226E-26
   5.250000     -6.3700456E-26
   5.260000     -6.7419153E-26
   5.270000     -7.1161694E-26
   5.280000     -7.4914330E-26
   5.290000     -7.8662171E-26
   5.300000     -8.2389157E-26
   5.310000     -8.6078024E-26
   5.320000     -8.9710291E-26
   5.330000     -9.3266248E-26
   5.340000     -9.6724898E-26
   5.350000     -1.0006397E-25
   5.360000     -1.0325993E-25
   5.370000     -1.0628794E-25
   5.380000     -1.0912182E-25
   5.390000     -1.1173421E-25
   5.400000     -1.1409638E-25
   5.410000     -1.1617837E-25
   5.420000     -1.1794895E-25
   5.430000     -1.1937573E-25
   5.440000     -1.2042513E-25
   5.450000     -1.2106240E-25
   5.460000     -1.2125179E-25
   5.470000     -1.2095646E-25
   5.480000     -1.2013866E-25
   5.490000     -1.1875977E-25
   5.500000     -1.1678034E-25
   5.510000     -1.1416031E-25
   5.520000     -1.1085901E-25
   5.530000     -1.0683531E-25
   5.540000     -1.0204782E-25
   5.550000     -9.6454972E-26
   5.560000     -9.0015094E-26
   5.570000     -8.2686718E-26
   5.580000     -7.4428700E-26
   5.590000     -6.5200414E-26
   5.600000     -5.4961955E-26
   5.610000     -4.3674316E-26
   5.620000     -3.1299671E-26
   5.630000     -1.7801606E-26
   5.640000     -3.1453764E-27
   5.650000      1.2701852E-26
   5.660000      2.9770828E-26
   5.670000      4.8089685E-26
   5.680000      6.7683791E-26
   5.690000      8.8575441E-26
   5.700000      1.1078341E-25
   5.710000      1.3432281E-25
   5.720000      1.5920469E-25
   5.730000      1.8543555E-25
   5.740000      2.1301705E-25
   5.750000      2.4194566E-25
   5.760000      2.7221223E-25
   5.770000      3.0380163E-25
   5.780000      3.3669247E-25
   5.790000      3.7085645E-25
   5.800000      4.0625819E-25
   5.810000      4.4285468E-25
   5.820000      4.8059492E-25
   5.830000      5.1941945E-25
   5.840000      5.5926013E-25
   5.850000      6.0003960E-25
   5.860000      6.4167085E-25
   5.870000      6.8405709E-25
   5.880000      7.2709098E-25
   5.890000      7.7065474E-25
   5.900000      8.1461948E-25
   5.910000      8.5884500E-25
   5.920000      9.0317947E-25
   5.930000      9.4745922E-25
   5.940000      9.9150823E-25
   5.950000      1.0351383E-24
   5.960000      1.0781487E-24
   5.970000      1.1203257E-24
   5.980000      1.1614432E-24
   5.990000      1.2012619E-24
   6.000000      1.2395295E-24
   6.010000      1.2759810E-24
   6.020000      1.3103385E-24
   6.030000      1.3423118E-24
   6.040000      1.3715975E-24
   6.050000      1.3978804E-24
   6.060000      1.4208332E-24
   6.070000      1.4401170E-24
   6.080000      1.4553819E-24
   6.090000      1.4662674E-24
   6.100000      1.4724028E-24
   6.110000      1.4734085E-24
   6.120000      1.4688959E-24
   6.130000      1.4584689E-24
   6.140000      1.4417250E-24
   6.150000      1.4182554E-24
   6.160000      1.3876473E-24
   6.170000      1.3494843E-24
   6.180000      1.3033481E-24
   6.190000      1.2488197E-24
   6.200000      1.1854814E-24
   6.210000      1.1129187E-24
   6.220000      1.0307209E-24
   6.230000      9.3848396E-25
   6.240000      8.3581184E-25
   6.250000      7.2231926E-25
   6.260000      5.9763348E-25
   6.270000      4.6139705E-25
   6.280000      3.1326907E-25
   6.290000      1.5292854E-25
   6.300000     -1.9922710E-26
   6.310000     -2.0555815E-25
   6.320000     -4.0422236E-25
   6.330000     -6.1613005E-25
   6.340000     -8.4146205E-25
   6.350000     -1.0803622E-24
   6.360000     -1.3329341E-24
   6.370000     -1.5992377E-24
   6.380000     -1.8792874E-24
   6.390000     -2.1730473E-24
   6.400000     -2.4804282E-24
   6.410000     -2.8012841E-24
   6.420000     -3.1354105E-24
   6.430000     -3.4825385E-24
   6.440000     -3.8423328E-24
   6.450000     -4.2143872E-24
   6.460000     -4.5982229E-24
   6.470000     -4.9932832E-24
   6.480000     -5.3989321E-24
   6.490000     -5.8144500E-24
   6.500000     -6.2390307E-24
   6.510000     -6.6717777E-24
   6.520000     -7.1117018E-24
   6.530000     -7.5577206E-24
   6.540000     -8.0086516E-24
   6.550000     -8.4632114E-24
   6.560000     -8.9200171E-24
   6.570000     -9.3775785E-24
   6.580000     -9.8343006E-24
   6.590000     -1.0288481E-23
   6.600000     -1.0738308E-23
   6.610000     -1.1181860E-23
   6.620000     -1.1617105E-23
   6.630000     -1.2041903E-23
   6.640000     -1.2453999E-23
   6.650000     -1.2851034E-23
   6.660000     -1.3230540E-23
   6.670000     -1.3589937E-23
   6.680000     -1.3926543E-23
   6.690000     -1.4237575E-23
   6.700000     -1.4520149E-23
   6.710000     -1.4771291E-23
   6.720000     -1.4987925E-23
   6.730000     -1.5166902E-23
   6.740000     -1.5304981E-23
   6.750000     -1.5398854E-23
   6.760000     -1.5445139E-23
   6.770000     -1.5440400E-23
   6.780000     -1.5381142E-23
   6.790000     -1.5263829E-23
   6.800000     -1.5084895E-23
   6.810000     -1.4840744E-23
   6.820000     -1.4527773E-23
   6.830000     -1.4142375E-23
   6.840000     -1.3680959E-23
   6.850000     -1.3139957E-23
   6.860000     -1.2515846E-23
   6.870000     -1.1805153E-23
   6.880000     -1.1004476E-23
   6.890000     -1.0110499E-23
   6.900000     -9.1200115E-24
   6.910000     -8.0299264E-24
   6.920000     -6.8372981E-24
   6.930000     -5.5393422E-24
   6.940000     -4.1334572E-24
   6.950000     -2.6172427E-24
   6.960000     -9.8851292E-25
   6.970000      7.5465565E-25
   6.980000      2.6139281E-24
   6.990000      4.5906849E-24
   7.000000      6.6859843E-24
   7.010000      8.9005456E-24
   7.020000      1.1234731E-23
   7.030000      1.3688505E-23
   7.040000      1.6261424E-23
   7.050000      1.8952614E-23
   7.060000      2.1760731E-23