  -2.600000      0.0000000E+00
  -2.590000      0.0000000E+00
  -2.580000      0.0000000E+00
  -2.570000      0.0000000E+00
  -2.560000      0.0000000E+00
  -2.550000      0.0000000E+00
  -2.540000      0.0000000E+00
  -2.530000      0.0000000E+00
  -2.520000      0.0000000E+00
  -2.510000      0.0000000E+00
  -2.500000      0.0000000E+00
  -2.490000      0.0000000E+00
  -2.480000      0.0000000E+00
  -2.470000      0.0000000E+00
  -2.460000      0.0000000E+00
  -2.450000      0.0000000E+00
  -2.440000      0.0000000E+00
  -2.430000      0.0000000E+00
  -2.420000      0.0000000E+00
  -2.410000      0.0000000E+00
  -2.400000      0.0000000E+00
  -2.390000      0.0000000E+00
  -2.380000      0.0000000E+00
  -2.370000      0.0000000E+00
  -2.360000      0.0000000E+00
  -2.350000      0.0000000E+00
  -2.340000      0.0000000E+00
  -2.330000      0.0000000E+00
  -2.320000      0.0000000E+00
  -2.310000      0.0000000E+00
  -2.300000      0.0000000E+00
  -2.290000      0.0000000E+00
  -2.280000      0.0000000E+00
  -2.270000      0.0000000E+00
  -2.260000      0.0000000E+00
  -2.250000      0.0000000E+00
  -2.240000      0.0000000E+00
  -2.230000      0.0000000E+00
  -2.220000      0.0000000E+00
  -2.210000      0.0000000E+00
  -2.200000      0.0000000E+00
  -2.190000      0.0000000E+00
  -2.180000      0.0000000E+00
  -2.170000      0.0000000E+00
  -2.160000      0.0000000E+00
  -2.150000      0.0000000E+00
  -2.140000      0.0000000E+00
  -2.130000      0.0000000E+00
  -2.120000      0.0000000E+00
  -2.110000      0.0000000E+00
  -2.100000      0.0000000E+00
  -2.090000      0.0000000E+00
  -2.080000      0.0000000E+00
  -2.070000      0.0000000E+00
  -2.060000      0.0000000E+00
  -2.050000      0.0000000E+00
  -2.040000      0.0000000E+00
  -2.030000      0.0000000E+00
  -2.020000      0.0000000E+00
  -2.010000      0.0000000E+00
  -2.000000      0.0000000E+00
  -1.990000      0.0000000E+00
  -1.980000      0.0000000E+00
  -1.970000      0.0000000E+00
  -1.960000      0.0000000E+00
  -1.950000      0.0000000E+00
  -1.940000      0.0000000E+00
  -1.930000      0.0000000E+00
  -1.920000      0.0000000E+00
  -1.910000      0.0000000E+00
  -1.900000      0.0000000E+00
  -1.890000      0.0000000E+00
  -1.880000      0.0000000E+00
  -1.870000      0.0000000E+00
  -1.860000      0.0000000E+00
  -1.850000      0.0000000E+00
  -1.840000      0.0000000E+00
  -1.830000      0.0000000E+00
  -1.820000      0.0000000E+00
  -1.810000      0.0000000E+00
  -1.800000      0.0000000E+00
  -1.790000      0.0000000E+00
  -1.780000      0.0000000E+00
  -1.770000      0.0000000E+00
  -1.760000      0.0000000E+00
  -1.750000      0.0000000E+00
  -1.740000      0.0000000E+00
  -1.730000      0.0000000E+00
  -1.720000      0.0000000E+00
  -1.710000      0.0000000E+00
  -1.700000      0.0000000E+00
  -1.690000      0.0000000E+00
  -1.680000      0.0000000E+00
  -1.670000      0.0000000E+00
  -1.660000      0.0000000E+00
  -1.650000      0.0000000E+00
  -1.640000      0.0000000E+00
  -1.630000      0.0000000E+00
  -1.620000      0.0000000E+00
  -1.610000      0.0000000E+00
  -1.600000      0.0000000E+00
  -1.590000      0.0000000E+00
  -1.580000      0.0000000E+00
  -1.570000      0.0000000E+00
  -1.560000      0.0000000E+00
  -1.550000      0.0000000E+00
  -1.540000      0.0000000E+00
  -1.530000      0.0000000E+00
  -1.520000      0.0000000E+00
  -1.510000      0.0000000E+00
  -1.500000      0.0000000E+00
  -1.490000      0.0000000E+00
  -1.480000      0.0000000E+00
  -1.470000      0.0000000E+00
  -1.460000      0.0000000E+00
  -1.450000      0.0000000E+00
  -1.440000      0.0000000E+00
  -1.430000      0.0000000E+00
  -1.420000      0.0000000E+00
  -1.410000      0.0000000E+00
  -1.400000      0.0000000E+00
  -1.390000      0.0000000E+00
  -1.380000      0.0000000E+00
  -1.370000      0.0000000E+00
  -1.360000      0.0000000E+00
  -1.350000      0.0000000E+00
  -1.340000      0.0000000E+00
  -1.330000      0.0000000E+00
  -1.320000      0.0000000E+00
  -1.310000      0.0000000E+00
  -1.300000      0.0000000E+00
  -1.290000      0.0000000E+00
  -1.280000      0.0000000E+00
  -1.270000      0.0000000E+00
  -1.260000      0.0000000E+00
  -1.250000      0.0000000E+00
  -1.240000      0.0000000E+00
  -1.230000      0.0000000E+00
  -1.220000      0.0000000E+00
  -1.210000      0.0000000E+00
  -1.200000      2.0746351E-38
  -1.190000      3.1308943E-38
  -1.180000      3.9724197E-38
  -1.170000      4.6002401E-38
  -1.160000      2.6796554E-38
  -1.150000     -3.3620303E-38
  -1.140000     -1.1796699E-37
  -1.130000     -2.1391211E-37
  -1.120000     -2.9204567E-37
  -1.110000     -3.0447480E-37
  -1.100000     -2.7201775E-37
  -1.090000     -2.3378573E-37
  -1.080000     -1.4253529E-37
  -1.070000      2.0978169E-38
  -1.060000      2.5040365E-37
  -1.050000      5.2280235E-37
  -1.040000      7.6819101E-37
  -1.030000      9.4670980E-37
  -1.020000      1.0283313E-36
  -1.010000      1.0266589E-36
  -1.000000      9.4200646E-37
 -0.9900000      7.2770649E-37
 -0.9800000      3.6108666E-37
 -0.9700000     -9.7115084E-38
 -0.9600000     -5.9935038E-37
 -0.9500000     -1.1829326E-36
 -0.9400000     -1.8456621E-36
 -0.9300000     -2.5833004E-36
 -0.9200000     -3.4616902E-36
 -0.9100000     -4.6847557E-36
 -0.9000000     -6.3214433E-36
 -0.8900000     -8.2607385E-36
 -0.8800000     -9.9842188E-36
 -0.8700000     -1.0182785E-35
 -0.8600000     -8.5838588E-36
 -0.8500000     -5.4221011E-36
 -0.8400000     -1.2709430E-36
 -0.8300000      3.6243456E-36
 -0.8200000      9.5783612E-36
 -0.8100000      1.5500908E-35
 -0.8000000      2.1825429E-35
 -0.7900000      2.8646823E-35
 -0.7800000      3.5648958E-35
 -0.7700000      4.2442971E-35
 -0.7600000      4.8521491E-35
 -0.7500000      5.3020047E-35
 -0.7400000      5.5041467E-35
 -0.7300000      5.5193937E-35
 -0.7200000      5.2678419E-35
 -0.7100000      4.5987061E-35
 -0.7000000      3.3275903E-35
 -0.6900000      1.3392497E-35
 -0.6800000     -1.4187562E-35
 -0.6700000     -5.6116275E-35
 -0.6600000     -1.1376129E-34
 -0.6500000     -1.7879481E-34
 -0.6400000     -2.4288744E-34
 -0.6300000     -3.0787125E-34
 -0.6200000     -3.7608854E-34
 -0.6100000     -4.3186551E-34
 -0.6000000     -4.6627751E-34
 -0.5900000     -4.7574984E-34
 -0.5800000     -4.5004568E-34
 -0.5700000     -3.8906889E-34
 -0.5600000     -2.9167463E-34
 -0.5500000     -1.5128113E-34
 -0.5400000      3.7526366E-35
 -0.5300000      2.7404814E-34
 -0.5200000      5.5866347E-34
 -0.5100000      8.8764526E-34
 -0.5000000      1.2600594E-33
 -0.4900000      1.6628145E-33
 -0.4800000      2.0664750E-33
 -0.4700000      2.4520415E-33
 -0.4600000      2.7885606E-33
 -0.4500000      3.0410515E-33
 -0.4400000      3.1672145E-33
 -0.4300000      3.1155390E-33
 -0.4200000      2.8383591E-33
 -0.4100000      2.2888346E-33
 -0.4000000      1.4295497E-33
 -0.3900000      2.3330994E-34
 -0.3800000     -1.3145690E-33
 -0.3700000     -3.2113165E-33
 -0.3600000     -5.4307707E-33
 -0.3500000     -7.9164115E-33
 -0.3400000     -1.0577562E-32
 -0.3300000     -1.3289022E-32
 -0.3200000     -1.5893897E-32
 -0.3100000     -1.8197370E-32
 -0.3000000     -1.9974683E-32
 -0.2900000     -2.0975524E-32
 -0.2800000     -2.0929136E-32
 -0.2700000     -1.9560980E-32
 -0.2600000     -1.6603736E-32
 -0.2500000     -1.1815756E-32
 -0.2400000     -5.0050544E-33
 -0.2300000      3.9502076E-33
 -0.2200000      1.5081925E-32
 -0.2100000      2.8302225E-32
 -0.2000000      4.3380787E-32
 -0.1900000      5.9927913E-32
 -0.1800000      7.7374429E-32
 -0.1700000      9.4961647E-32
 -0.1600000      1.1173804E-31
 -0.1500000      1.2656650E-31
 -0.1400000      1.3814146E-31
 -0.1300000      1.4502109E-31
 -0.1200000      1.4567376E-31
 -0.1100000      1.3853753E-31
 -0.1000000      1.2209473E-31
 -9.0000004E-02  9.4964262E-32
 -7.9999998E-02  5.6002749E-32
 -7.0000000E-02  4.4143461E-33
 -5.9999999E-02 -6.0126971E-32
 -5.0000001E-02 -1.3736138E-31
 -3.9999999E-02 -2.2632496E-31
 -2.9999999E-02 -3.2524180E-31
 -2.0000000E-02 -4.3143995E-31
 -9.9999998E-03 -5.4128901E-31
 -3.4694470E-17 -6.5017303E-31
  9.9999998E-03 -7.5250700E-31
  2.0000000E-02 -8.4180395E-31
  2.9999999E-02 -9.1080152E-31
  3.9999999E-02 -9.5165493E-31
  5.0000001E-02 -9.5620118E-31
  5.9999999E-02 -9.1629926E-31
  7.0000000E-02 -8.2424996E-31
  7.9999998E-02 -6.7329180E-31
  9.0000004E-02 -4.5817295E-31
  0.1000000     -1.7579656E-31
  0.1100000      1.7406928E-31
  0.1200000      5.8802854E-31
  0.1300000      1.0582516E-30
  0.1400000      1.5716311E-30
  0.1500000      2.1089347E-30
  0.1600000      2.6439578E-30
  0.1700000      3.1426819E-30
  0.1800000      3.5624799E-30
  0.1900000      3.8513731E-30
  0.2000000      3.9473409E-30
  0.2100000      3.7777221E-30
  0.2200000      3.2587141E-30
  0.2300000      2.2949582E-30
  0.2400000      7.7924752E-31
  0.2500000     -1.4076571E-30
  0.2600000     -4.3970978E-30
  0.2700000     -8.3324554E-30
  0.2800000     -1.3368968E-29
  0.2900000     -1.9673441E-29
  0.3000000     -2.7423816E-29
  0.3100000     -3.6808635E-29
  0.3200000     -4.8026331E-29
  0.3300000     -6.1284469E-29
  0.3400000     -7.6798762E-29
  0.3500000     -9.4791949E-29
  0.3600000     -1.1549251E-28
  0.3700000     -1.3913319E-28
  0.3800000     -1.6594933E-28
  0.3900000     -1.9617691E-28
  0.4000000     -2.3005038E-28
  0.4100000     -2.6780017E-28
  0.4200000     -3.0965003E-28
  0.4300000     -3.5581404E-28
  0.4400000     -4.0649332E-28
  0.4500000     -4.6187223E-28
  0.4600000     -5.2211503E-28
  0.4700000     -5.8736140E-28
  0.4800000     -6.5772304E-28
  0.4900000     -7.3327905E-28
  0.5000000     -8.1407248E-28
  0.5100000     -9.0010637E-28
  0.5200000     -9.9134037E-28
  0.5300000     -1.0876881E-27
  0.5400000     -1.1890150E-27
  0.5500000     -1.2951378E-27
  0.5600000     -1.4058228E-27
  0.5700000     -1.5207889E-27
  0.5800000     -1.6397090E-27
  0.5900000     -1.7622140E-27
  0.6000000     -1.8878978E-27
  0.6100000     -2.0163258E-27
  0.6200000     -2.1470417E-27
  0.6300000     -2.2795781E-27
  0.6400000     -2.4134679E-27
  0.6500000     -2.5482578E-27
  0.6600000     -2.6835209E-27
  0.6700000     -2.8188704E-27
  0.6800000     -2.9539765E-27
  0.6900000     -3.0885792E-27
  0.7000000     -3.2225032E-27
  0.7100000     -3.3556737E-27
  0.7200000     -3.4881272E-27
  0.7300000     -3.6200234E-27
  0.7400000     -3.7516561E-27
  0.7500000     -3.8834594E-27
  0.7600000     -4.0160169E-27
  0.7700000     -4.1500620E-27
  0.7800000     -4.2864818E-27
  0.7900000     -4.4263163E-27
  0.8000000     -4.5707564E-27
  0.8100000     -4.7211365E-27
  0.8200000     -4.8789291E-27
  0.8300000     -5.0457435E-27
  0.8400000     -5.2233131E-27
  0.8500000     -5.4134852E-27
  0.8600000     -5.6182158E-27
  0.8700000     -5.8395559E-27
  0.8800000     -6.0796482E-27
  0.8900000     -6.3407172E-27
  0.9000000     -6.6250573E-27
  0.9100000     -6.9350280E-27
  0.9200000     -7.2730464E-27
  0.9300000     -7.6415770E-27
  0.9400000     -8.0431272E-27
  0.9500000     -8.4802501E-27
  0.9600000     -8.9555203E-27
  0.9700000     -9.4715263E-27
  0.9800000     -1.0030862E-26
  0.9900000     -1.0636097E-26
   1.000000     -1.1289768E-26
   1.010000     -1.1994353E-26
   1.020000     -1.2752240E-26
   1.030000     -1.3565710E-26
   1.040000     -1.4436885E-26
   1.050000     -1.5367679E-26
   1.060000     -1.6359795E-26
   1.070000     -1.7414664E-26
   1.080000     -1.8533410E-26
   1.090000     -1.9716797E-26
   1.100000     -2.0965196E-26
   1.110000     -2.2278571E-26
   1.120000     -2.3656418E-26
   1.130000     -2.5097771E-26
   1.140000     -2.6601194E-26
   1.150000     -2.8164750E-26
   1.160000     -2.9786017E-26
   1.170000     -3.1462130E-26
   1.180000     -3.3189782E-26
   1.190000     -3.4965252E-26
   1.200000     -3.6784442E-26
   1.210000     -3.8642928E-26
   1.220000     -4.0536021E-26
   1.230000     -4.2458836E-26
   1.240000     -4.4406339E-26
   1.250000     -4.6373355E-26
   1.260000     -4.8354570E-26
   1.270000     -5.0344662E-26
   1.280000     -5.2338259E-26
   1.290000     -5.4329948E-26
   1.300000     -5.6314296E-26
   1.310000     -5.8285752E-26
   1.320000     -6.0238645E-26
   1.330000     -6.2167127E-26
   1.340000     -6.4065132E-26
   1.350000     -6.5926338E-26
   1.360000     -6.7743985E-26
   1.370000     -6.9510805E-26
   1.380000     -7.1218973E-26
   1.390000     -7.2860019E-26
   1.400000     -7.4424768E-26
   1.410000     -7.5903340E-26
   1.420000     -7.7285159E-26
   1.430000     -7.8558676E-26
   1.440000     -7.9711467E-26
   1.450000     -8.0730343E-26
   1.460000     -8.1601208E-26
   1.470000     -8.2309291E-26
   1.480000     -8.2839251E-26
   1.490000     -8.3174979E-26
   1.500000     -8.3299798E-26
   1.510000     -8.3196513E-26
   1.520000     -8.2847516E-26
   1.530000     -8.2234941E-26
   1.540000     -8.1340551E-26
   1.550000     -8.0145636E-26
   1.560000     -7.8631048E-26
   1.570000     -7.6777034E-26
   1.580000     -7.4563231E-26
   1.590000     -7.1968532E-26
   1.600000     -6.8970497E-26
   1.610000     -6.5545719E-26
   1.620000     -6.1669398E-26
   1.630000     -5.7314769E-26
   1.640000     -5.2452896E-26
   1.650000     -4.7052465E-26
   1.660000     -4.1079768E-26
   1.670000     -3.4498083E-26
   1.680000     -2.7267732E-26
   1.690000     -1.9346424E-26
   1.700000     -1.0688496E-26
   1.710000     -1.2450869E-27
   1.720000      9.0356698E-27
   1.730000      2.0208342E-26
   1.740000      3.2330093E-26
   1.750000      4.5460162E-26
   1.760000      5.9660145E-26
   1.770000      7.4993537E-26
   1.780000      9.1524536E-26
   1.790000      1.0931816E-25
   1.800000      1.2844088E-25
   1.810000      1.4895929E-25
   1.820000      1.7093979E-25
   1.830000      1.9444849E-25
   1.840000      2.1955172E-25
   1.850000      2.4631627E-25
   1.860000      2.7480837E-25
   1.870000      3.0509395E-25
   1.880000      3.3723949E-25
   1.890000      3.7131320E-25
   1.900000      4.0738365E-25
   1.910000      4.4552078E-25
   1.920000      4.8579716E-25
   1.930000      5.2828763E-25
   1.940000      5.7306879E-25
   1.950000      6.2021970E-25
   1.960000      6.6982411E-25
   1.970000      7.2196668E-25
   1.980000      7.7673340E-25
   1.990000      8.3421281E-25
   2.000000      8.9449510E-25
   2.010000      9.5767122E-25
   2.020000      1.0238311E-24
   2.030000      1.0930634E-24
   2.040000      1.1654537E-24
   2.050000      1.2410835E-24
   2.060000      1.3200297E-24
   2.070000      1.4023634E-24
   2.080000      1.4881485E-24
   2.090000      1.5774411E-24
   2.100000      1.6702862E-24
   2.110000      1.7667183E-24
   2.120000      1.8667644E-24
   2.130000      1.9704394E-24
   2.140000      2.0777466E-24
   2.150000      2.1886792E-24
   2.160000      2.3032196E-24
   2.170000      2.4213370E-24
   2.180000      2.5429915E-24
   2.190000      2.6681349E-24
   2.200000      2.7967081E-24
   2.210000      2.9286428E-24
   2.220000      3.0638575E-24
   2.230000      3.2022617E-24
   2.240000      3.3437550E-24
   2.250000      3.4882242E-24
   2.260000      3.6355416E-24
   2.270000      3.7855656E-24
   2.280000      3.9381325E-24
   2.290000      4.0930581E-24
   2.300000      4.2501364E-24
   2.310000      4.4091321E-24
   2.320000      4.5697805E-24
   2.330000      4.7317837E-24
   2.340000      4.8948074E-24
   2.350000      5.0584798E-24
   2.360000      5.2223878E-24
   2.370000      5.3860740E-24
   2.380000      5.5490369E-24
   2.390000      5.7107278E-24
   2.400000      5.8705518E-24
   2.410000      6.0278688E-24
   2.420000      6.1819925E-24
   2.430000      6.3321971E-24
   2.440000      6.4777144E-24
   2.450000      6.6177352E-24
   2.460000      6.7514148E-24
   2.470000      6.8778739E-24
   2.480000      6.9962054E-24
   2.490000      7.1054690E-24
   2.500000      7.2046982E-24
   2.510000      7.2929039E-24
   2.520000      7.3690747E-24
   2.530000      7.4321820E-24
   2.540000      7.4811742E-24
   2.550000      7.5149817E-24
   2.560000      7.5325149E-24
   2.570000      7.5326655E-24
   2.580000      7.5143088E-24
   2.590000      7.4762975E-24
   2.600000      7.4174658E-24
   2.610000      7.3366328E-24
   2.620000      7.2325971E-24
   2.630000      7.1041460E-24
   2.640000      6.9500539E-24
   2.650000      6.7690892E-24
   2.660000      6.5600202E-24
   2.670000      6.3216280E-24
   2.680000      6.0527104E-24
   2.690000      5.7520937E-24
   2.700000      5.4186457E-24
   2.710000      5.0512917E-24
   2.720000      4.6490232E-24
   2.730000      4.2109107E-24
   2.740000      3.7361285E-24
   2.750000      3.2239597E-24
   2.760000      2.6738121E-24
   2.770000      2.0852380E-24
   2.780000      1.4579427E-24
   2.790000      7.9179162E-25
   2.800000      8.6828441E-26
   2.810000     -6.5671566E-25
   2.820000     -1.4384158E-24
   2.830000     -2.2576523E-24
   2.840000     -3.1136032E-24
   2.850000     -4.0052346E-24
   2.860000     -4.9313028E-24
   2.870000     -5.8903538E-24
   2.880000     -6.8807186E-24
   2.890000     -7.9005106E-24
   2.900000     -8.9476233E-24
   2.910000     -1.0019732E-23
   2.920000     -1.1114283E-23
   2.930000     -1.2228493E-23
   2.940000     -1.3359331E-23
   2.950000     -1.4503520E-23
   2.960000     -1.5657532E-23
   2.970000     -1.6817585E-23
   2.980000     -1.7979628E-23
   2.990000     -1.9139318E-23
   3.000000     -2.0292039E-23
   3.010000     -2.1432882E-23
   3.020000     -2.2556638E-23
   3.030000     -2.3657814E-23
   3.040000     -2.4730616E-23
   3.050000     -2.5768971E-23
   3.060000     -2.6766533E-23
   3.070000     -2.7716694E-23
   3.080000     -2.8612603E-23
   3.090000     -2.9447221E-23
   3.100000     -3.0213341E-23
   3.110000     -3.0903601E-23
   3.120000     -3.1510550E-23
   3.130000     -3.2026696E-23
   3.140000     -3.2444555E-23
   3.150000     -3.2756711E-23
   3.160000     -3.2955867E-23
   3.170000     -3.3034891E-23
   3.180000     -3.2986891E-23
   3.190000     -3.2805260E-23
   3.200000     -3.2483755E-23
   3.210000     -3.2016548E-23
   3.220000     -3.1398270E-23
   3.230000     -3.0624085E-23
   3.240000     -2.9689749E-23
   3.250000     -2.8591667E-23
   3.260000     -2.7326943E-23
   3.270000     -2.5893439E-23
   3.280000     -2.4289846E-23
   3.290000     -2.2515739E-23
   3.300000     -2.0571661E-23
   3.310000     -1.8459192E-23
   3.320000     -1.6181023E-23
   3.330000     -1.3741042E-23
   3.340000     -1.1144422E-23
   3.350000     -8.3977430E-24
   3.360000     -5.5090673E-24
   3.370000     -2.4880399E-24
   3.380000      6.5397846E-25
   3.390000      3.9038020E-24
   3.400000      7.2463264E-24
   3.410000      1.0664409E-23
   3.420000      1.4138773E-23
   3.430000      1.7647874E-23
   3.440000      2.1167827E-23
   3.450000      2.4672302E-23
   3.460000      2.8132465E-23
   3.470000      3.1516921E-23
   3.480000      3.4791625E-23
   3.490000      3.7919878E-23
   3.500000      4.0862279E-23
   3.510000      4.3576749E-23
   3.520000      4.6018523E-23
   3.530000      4.8140167E-23
   3.540000      4.9891640E-23
   3.550000      5.1220360E-23
   3.560000      5.2071276E-23
   3.570000      5.2386943E-23
   3.580000      5.2107623E-23
   3.590000      5.1171419E-23
   3.600000      4.9514395E-23
   3.610000      4.7070718E-23
   3.620000      4.3772847E-23
   3.630000      3.9551656E-23
   3.640000      3.4336651E-23
   3.650000      2.8056176E-23
   3.660000      2.0637625E-23
   3.670000      1.2007715E-23
   3.680000      2.0927551E-24
   3.690000     -9.1810306E-24
   3.700000     -2.1887205E-23
   3.710000     -3.6098666E-23
   3.720000     -5.1887260E-23
   3.730000     -6.9323329E-23
   3.740000     -8.8475238E-23
   3.750000     -1.0940880E-22
   3.760000     -1.3218667E-22
   3.770000     -1.5686768E-22
   3.780000     -1.8350621E-22
   3.790000     -2.1215146E-22
   3.800000     -2.4284660E-22
   3.810000     -2.7562808E-22
   3.820000     -3.1052466E-22
   3.830000     -3.4755659E-22
   3.840000     -3.8673475E-22
   3.850000     -4.2805961E-22
   3.860000     -4.7152036E-22
   3.870000     -5.1709391E-22
   3.880000     -5.6474373E-22
   3.890000     -6.1441925E-22
   3.900000     -6.6605432E-22
   3.910000     -7.1956661E-22
   3.920000     -7.7485639E-22
   3.930000     -8.3180563E-22
   3.940000     -8.9027676E-22
   3.950000     -9.5011175E-22
   3.960000     -1.0111312E-21
   3.970000     -1.0731329E-21
   3.980000     -1.1358913E-21
   3.990000     -1.1991562E-21
   4.000000     -1.2626515E-21
   4.010000     -1.3260745E-21
   4.020000     -1.3890951E-21
   4.030000     -1.4513542E-21
   4.040000     -1.5124633E-21
   4.050000     -1.5720028E-21
   4.060000     -1.6295223E-21
   4.070000     -1.6845390E-21
   4.080000     -1.7365371E-21
   4.090000     -1.7849669E-21
   4.100000     -1.8292453E-21
   4.110000     -1.8687537E-21
   4.120000     -1.9028391E-21
   4.130000     -1.9308126E-21
   4.140000     -1.9519512E-21
   4.150000     -1.9654960E-21
   4.160000     -1.9706534E-21
   4.170000     -1.9665967E-21
   4.180000     -1.9524649E-21
   4.190000     -1.9273646E-21
   4.200000     -1.8903710E-21
   4.210000     -1.8405296E-21
   4.220000     -1.7768577E-21
   4.230000     -1.6983460E-21
   4.240000     -1.6039612E-21
   4.250000     -1.4926478E-21
   4.260000     -1.3633314E-21
   4.270000     -1.2149213E-21
   4.280000     -1.0463144E-21
   4.290000     -8.5639820E-22
   4.300000     -6.4405401E-22
   4.310000     -4.0816259E-22
   4.320000     -1.4760842E-22
   4.330000      1.3871617E-22
   4.340000      4.5190522E-22
   4.350000      7.9303452E-22
   4.360000      1.1631549E-21
   4.370000      1.5632858E-21
   4.380000      1.9944088E-21
   4.390000      2.4574587E-21
   4.400000      2.9533175E-21
   4.410000      3.4828080E-21
   4.420000      4.0466835E-21
   4.430000      4.6456160E-21
   4.440000      5.2801911E-21
   4.450000      5.9508969E-21
   4.460000      6.6581141E-21
   4.470000      7.4021033E-21
   4.480000      8.1829973E-21
   4.490000      9.0007873E-21
   4.500000      9.8553142E-21
   4.510000      1.0746253E-20
   4.520000      1.1673101E-20
   4.530000      1.2635168E-20
   4.540000      1.3631562E-20
   4.550000      1.4661172E-20
   4.560000      1.5722666E-20
   4.570000      1.6814467E-20
   4.580000      1.7934741E-20
   4.590000      1.9081393E-20
   4.600000      2.0252042E-20
   4.610000      2.1444016E-20
   4.620000      2.2654335E-20
   4.630000      2.3879704E-20
   4.640000      2.5116490E-20
   4.650000      2.6360716E-20
   4.660000      2.7608054E-20
   4.670000      2.8853811E-20
   4.680000      3.0092905E-20
   4.690000      3.1319866E-20
   4.700000      3.2528836E-20
   4.710000      3.3713536E-20
   4.720000      3.4867285E-20
   4.730000      3.5982964E-20
   4.740000      3.7053032E-20
   4.750000      3.8069514E-20
   4.760000      3.9023993E-20
   4.770000      3.9907623E-20
   4.780000      4.0711099E-20
   4.790000      4.1424682E-20
   4.800000      4.2038204E-20
   4.810000      4.2541062E-20
   4.820000      4.2922221E-20
   4.830000      4.3170233E-20
   4.840000      4.3273243E-20
   4.850000      4.3219008E-20
   4.860000      4.2994903E-20
   4.870000      4.2587959E-20
   4.880000      4.1984861E-20
   4.890000      4.1171991E-20
   4.900000      4.0135433E-20
   4.910000      3.8861036E-20
   4.920000      3.7334432E-20
   4.930000      3.5541072E-20
   4.940000      3.3466264E-20
   4.950000      3.1095222E-20
   4.960000      2.8413121E-20
   4.970000      2.5405134E-20
   4.980000      2.2056482E-20
   4.990000      1.8352522E-20
   5.000000      1.4278811E-20
   5.010000      9.8211566E-21
   5.020000      4.9656872E-21
   5.030000     -3.0106926E-22
   5.040000     -5.9921040E-21
   5.050000     -1.2119836E-20
   5.060000     -1.8696019E-20
   5.070000     -2.5731660E-20
   5.080000     -3.3236928E-20
   5.090000     -4.1221053E-20
   5.100000     -4.9692200E-20
   5.110000     -5.8657361E-20
   5.120000     -6.8122253E-20
   5.130000     -7.8091233E-20
   5.140000     -8.8567126E-20
   5.150000     -9.9551122E-20
   5.160000     -1.1104261E-19
   5.170000     -1.2303912E-19
   5.180000     -1.3553617E-19
   5.190000     -1.4852708E-19
   5.200000     -1.6200288E-19
   5.210000     -1.7595216E-19
   5.220000     -1.9036092E-19
   5.230000     -2.0521250E-19
   5.240000     -2.2048732E-19
   5.250000     -2.3616286E-19
   5.260000     -2.5221342E-19
   5.270000     -2.6861010E-19
   5.280000     -2.8532055E-19
   5.290000     -3.0230882E-19
   5.300000     -3.1953540E-19
   5.310000     -3.3695696E-19
   5.320000     -3.5452622E-19
   5.330000     -3.7219188E-19
   5.340000     -3.8989854E-19
   5.350000     -4.0758647E-19
   5.360000     -4.2519167E-19
   5.370000     -4.4264565E-19
   5.380000     -4.5987546E-19
   5.390000     -4.7680360E-19
   5.400000     -4.9334794E-19
   5.410000     -5.0942166E-19
   5.420000     -5.2493321E-19
   5.430000     -5.3978653E-19
   5.440000     -5.5388060E-19
   5.450000     -5.6710996E-19
   5.460000     -5.7936423E-19
   5.470000     -5.9052869E-19
   5.480000     -6.0048391E-19
   5.490000     -6.0910613E-19
   5.500000     -6.1626734E-19
   5.510000     -6.2183540E-19
   5.520000     -6.2567409E-19
   5.530000     -6.2764350E-19
   5.540000     -6.2760018E-19
   5.550000     -6.2539719E-19
   5.560000     -6.2088487E-19
   5.570000     -6.1391065E-19
   5.580000     -6.0431970E-19
   5.590000     -5.9195505E-19
   5.600000     -5.7665842E-19
   5.610000     -5.5827004E-19
   5.620000     -5.3662970E-19
   5.630000     -5.1157714E-19
   5.640000     -4.8295240E-19
   5.650000     -4.5059630E-19
   5.660000     -4.1435147E-19
   5.670000     -3.7406258E-19
   5.680000     -3.2957729E-19
   5.690000     -2.8074709E-19
   5.700000     -2.2742773E-19
   5.710000     -1.6948018E-19
   5.720000     -1.0677165E-19
   5.730000     -3.9176243E-20
   5.740000      3.3424081E-20
   5.750000      1.1113855E-19
   5.760000      1.9406647E-19
   5.770000      2.8229632E-19
   5.780000      3.7590484E-19
   5.790000      4.7495568E-19
   5.800000      5.7949854E-19
   5.810000      6.8956790E-19
   5.820000      8.0518180E-19
   5.830000      9.2634054E-19
   5.840000      1.0530261E-18
   5.850000      1.1852006E-18
   5.860000      1.3228045E-18
   5.870000      1.4657560E-18
   5.880000      1.6139504E-18
   5.890000      1.7672575E-18
   5.900000      1.9255212E-18
   5.910000      2.0885578E-18
   5.920000      2.2561554E-18
   5.930000      2.4280723E-18
   5.940000      2.6040351E-18
   5.950000      2.7837390E-18
   5.960000      2.9668460E-18
   5.970000      3.1529830E-18
   5.980000      3.3417418E-18
   5.990000      3.5326787E-18
   6.000000      3.7253121E-18
   6.010000      3.9191214E-18
   6.020000      4.1135489E-18
   6.030000      4.3079959E-18
   6.040000      4.5018238E-18
   6.050000      4.6943530E-18
   6.060000      4.8848630E-18
   6.070000      5.0725920E-18
   6.080000      5.2567357E-18
   6.090000      5.4364485E-18
   6.100000      5.6108422E-18
   6.110000      5.7789873E-18
   6.120000      5.9399137E-18
   6.130000      6.0926096E-18
   6.140000      6.2360236E-18
   6.150000      6.3690657E-18
   6.160000      6.4906067E-18
   6.170000      6.5994818E-18
   6.180000      6.6944889E-18
   6.190000      6.7743933E-18
   6.200000      6.8379291E-18
   6.210000      6.8838008E-18
   6.220000      6.9106854E-18
   6.230000      6.9172342E-18
   6.240000      6.9020769E-18
   6.250000      6.8638252E-18
   6.260000      6.8010744E-18
   6.270000      6.7124081E-18
   6.280000      6.5964002E-18
   6.290000      6.4516233E-18
   6.300000      6.2766494E-18
   6.310000      6.0700552E-18
   6.320000      5.8304272E-18
   6.330000      5.5563674E-18
   6.340000      5.2465010E-18
   6.350000      4.8994801E-18
   6.360000      4.5139891E-18
   6.370000      4.0887529E-18
   6.380000      3.6225415E-18
   6.390000      3.1141760E-18
   6.400000      2.5625377E-18
   6.410000      1.9665770E-18
   6.420000      1.3253192E-18
   6.430000      6.3787221E-19
   6.440000     -9.6563423E-20
   6.450000     -8.7868905E-19
   6.460000     -1.7090977E-18
   6.470000     -2.5882651E-18
   6.480000     -3.5165429E-18
   6.490000     -4.4941442E-18
   6.500000     -5.5211402E-18
   6.510000     -6.5974482E-18
   6.520000     -7.7228270E-18
   6.530000     -8.8968635E-18
   6.540000     -1.0118959E-17
   6.550000     -1.1388327E-17
   6.560000     -1.2703980E-17
   6.570000     -1.4064726E-17
   6.580000     -1.5469151E-17
   6.590000     -1.6915615E-17
   6.600000     -1.8402249E-17
   6.610000     -1.9926932E-17
   6.620000     -2.1487289E-17
   6.630000     -2.3080690E-17
   6.640000     -2.4704235E-17
   6.650000     -2.6354752E-17
   6.660000     -2.8028780E-17
   6.670000     -2.9722578E-17
   6.680000     -3.1432106E-17
   6.690000     -3.3153022E-17
   6.700000     -3.4880681E-17
   6.710000     -3.6610134E-17
   6.720000     -3.8336122E-17
   6.730000     -4.0053075E-17
   6.740000     -4.1755108E-17
   6.750000     -4.3436018E-17
   6.760000     -4.5089298E-17
   6.770000     -4.6708123E-17
   6.780000     -4.8285351E-17
   6.790000     -4.9813551E-17
   6.800000     -5.1284976E-17
   6.810000     -5.2691600E-17
   6.820000     -5.4025091E-17
   6.830000     -5.5276844E-17
   6.840000     -5.6437991E-17
   6.850000     -5.7499402E-17
   6.860000     -5.8451712E-17
   6.870000     -5.9285325E-17
   6.880000     -5.9990434E-17
   6.890000     -6.0557032E-17
   6.900000     -6.0974957E-17
   6.910000     -6.1233871E-17
   6.920000     -6.1323319E-17
   6.930000     -6.1232766E-17
   6.940000     -6.0951584E-17
   6.950000     -6.0469073E-17
   6.960000     -5.9774533E-17
   6.970000     -5.8857289E-17
   6.980000     -5.7706674E-17
   6.990000     -5.6312133E-17
   7.000000     -5.4663228E-17
   7.010000     -5.2749668E-17
   7.020000     -5.0561388E-17
   7.030000     -4.8088565E-17
   7.040000     -4.5321653E-17
   7.050000     -4.2251439E-17
   7.060000     -3.8869108E-17