  -2.600000      0.0000000E+00
  -2.590000      0.0000000E+00
  -2.580000      0.0000000E+00
  -2.570000      0.0000000E+00
  -2.560000      0.0000000E+00
  -2.550000      0.0000000E+00
  -2.540000      0.0000000E+00
  -2.530000      0.0000000E+00
  -2.520000      0.0000000E+00
  -2.510000      0.0000000E+00
  -2.500000      0.0000000E+00
  -2.490000      0.0000000E+00
  -2.480000      0.0000000E+00
  -2.470000      0.0000000E+00
  -2.460000      0.0000000E+00
  -2.450000      0.0000000E+00
  -2.440000      0.0000000E+00
  -2.430000      0.0000000E+00
  -2.420000      0.0000000E+00
  -2.410000      0.0000000E+00
  -2.400000      0.0000000E+00
  -2.390000      0.0000000E+00
  -2.380000      0.0000000E+00
  -2.370000      0.0000000E+00
  -2.360000      0.0000000E+00
  -2.350000      0.0000000E+00
  -2.340000      0.0000000E+00
  -2.330000      0.0000000E+00
  -2.320000      0.0000000E+00
  -2.310000      0.0000000E+00
  -2.300000      0.0000000E+00
  -2.290000      0.0000000E+00
  -2.280000      0.0000000E+00
  -2.270000      0.0000000E+00
  -2.260000      0.0000000E+00
  -2.250000      0.0000000E+00
  -2.240000      0.0000000E+00
  -2.230000      0.0000000E+00
  -2.220000      0.0000000E+00
  -2.210000      0.0000000E+00
  -2.200000      0.0000000E+00
  -2.190000      0.0000000E+00
  -2.180000      0.0000000E+00
  -2.170000      0.0000000E+00
  -2.160000      0.0000000E+00
  -2.150000      0.0000000E+00
  -2.140000      0.0000000E+00
  -2.130000      0.0000000E+00
  -2.120000      0.0000000E+00
  -2.110000      0.0000000E+00
  -2.100000      0.0000000E+00
  -2.090000      0.0000000E+00
  -2.080000      0.0000000E+00
  -2.070000      0.0000000E+00
  -2.060000      0.0000000E+00
  -2.050000      0.0000000E+00
  -2.040000      0.0000000E+00
  -2.030000      0.0000000E+00
  -2.020000      0.0000000E+00
  -2.010000      0.0000000E+00
  -2.000000      0.0000000E+00
  -1.990000      0.0000000E+00
  -1.980000      0.0000000E+00
  -1.970000      0.0000000E+00
  -1.960000      0.0000000E+00
  -1.950000      0.0000000E+00
  -1.940000      0.0000000E+00
  -1.930000      0.0000000E+00
  -1.920000      0.0000000E+00
  -1.910000      0.0000000E+00
  -1.900000      0.0000000E+00
  -1.890000      0.0000000E+00
  -1.880000      0.0000000E+00
  -1.870000      0.0000000E+00
  -1.860000      0.0000000E+00
  -1.850000      0.0000000E+00
  -1.840000      0.0000000E+00
  -1.830000      0.0000000E+00
  -1.820000      0.0000000E+00
  -1.810000      0.0000000E+00
  -1.800000      0.0000000E+00
  -1.790000      0.0000000E+00
  -1.780000      0.0000000E+00
  -1.770000      0.0000000E+00
  -1.760000      0.0000000E+00
  -1.750000      0.0000000E+00
  -1.740000      0.0000000E+00
  -1.730000      0.0000000E+00
  -1.720000      0.0000000E+00
  -1.710000      0.0000000E+00
  -1.700000      0.0000000E+00
  -1.690000      0.0000000E+00
  -1.680000      0.0000000E+00
  -1.670000      0.0000000E+00
  -1.660000      0.0000000E+00
  -1.650000      0.0000000E+00
  -1.640000      0.0000000E+00
  -1.630000      0.0000000E+00
  -1.620000      0.0000000E+00
  -1.610000      0.0000000E+00
  -1.600000      0.0000000E+00
  -1.590000      0.0000000E+00
  -1.580000      0.0000000E+00
  -1.570000      0.0000000E+00
  -1.560000      0.0000000E+00
  -1.550000      0.0000000E+00
  -1.540000      0.0000000E+00
  -1.530000      0.0000000E+00
  -1.520000      0.0000000E+00
  -1.510000      0.0000000E+00
  -1.500000      0.0000000E+00
  -1.490000      0.0000000E+00
  -1.480000      0.0000000E+00
  -1.470000      0.0000000E+00
  -1.460000      0.0000000E+00
  -1.450000      0.0000000E+00
  -1.440000      0.0000000E+00
  -1.430000      0.0000000E+00
  -1.420000      0.0000000E+00
  -1.410000      0.0000000E+00
  -1.400000      0.0000000E+00
  -1.390000      0.0000000E+00
  -1.380000      0.0000000E+00
  -1.370000      0.0000000E+00
  -1.360000      0.0000000E+00
  -1.350000      0.0000000E+00
  -1.340000      0.0000000E+00
  -1.330000      0.0000000E+00
  -1.320000      0.0000000E+00
  -1.310000      0.0000000E+00
  -1.300000      0.0000000E+00
  -1.290000      0.0000000E+00
  -1.280000      0.0000000E+00
  -1.270000      0.0000000E+00
  -1.260000      0.0000000E+00
  -1.250000      0.0000000E+00
  -1.240000      0.0000000E+00
  -1.230000      0.0000000E+00
  -1.220000      0.0000000E+00
  -1.210000      0.0000000E+00
  -1.200000      0.0000000E+00
  -1.190000      0.0000000E+00
  -1.180000      0.0000000E+00
  -1.170000      0.0000000E+00
  -1.160000      0.0000000E+00
  -1.150000      0.0000000E+00
  -1.140000      0.0000000E+00
  -1.130000      0.0000000E+00
  -1.120000      0.0000000E+00
  -1.110000      0.0000000E+00
  -1.100000      0.0000000E+00
  -1.090000      0.0000000E+00
  -1.080000      0.0000000E+00
  -1.070000      0.0000000E+00
  -1.060000      0.0000000E+00
  -1.050000      0.0000000E+00
  -1.040000      0.0000000E+00
  -1.030000      0.0000000E+00
  -1.020000      0.0000000E+00
  -1.010000      0.0000000E+00
  -1.000000      0.0000000E+00
 -0.9900000      0.0000000E+00
 -0.9800000      0.0000000E+00
 -0.9700000      0.0000000E+00
 -0.9600000      0.0000000E+00
 -0.9500000      0.0000000E+00
 -0.9400000      0.0000000E+00
 -0.9300000      0.0000000E+00
 -0.9200000      0.0000000E+00
 -0.9100000      0.0000000E+00
 -0.9000000      0.0000000E+00
 -0.8900000      0.0000000E+00
 -0.8800000      0.0000000E+00
 -0.8700000      0.0000000E+00
 -0.8600000      0.0000000E+00
 -0.8500000      0.0000000E+00
 -0.8400000      0.0000000E+00
 -0.8300000      0.0000000E+00
 -0.8200000      0.0000000E+00
 -0.8100000      0.0000000E+00
 -0.8000000      0.0000000E+00
 -0.7900000      0.0000000E+00
 -0.7800000      0.0000000E+00
 -0.7700000      0.0000000E+00
 -0.7600000      0.0000000E+00
 -0.7500000      0.0000000E+00
 -0.7400000      0.0000000E+00
 -0.7300000      0.0000000E+00
 -0.7200000      0.0000000E+00
 -0.7100000      0.0000000E+00
 -0.7000000      0.0000000E+00
 -0.6900000      0.0000000E+00
 -0.6800000      0.0000000E+00
 -0.6700000      0.0000000E+00
 -0.6600000      0.0000000E+00
 -0.6500000      0.0000000E+00
 -0.6400000      0.0000000E+00
 -0.6300000      0.0000000E+00
 -0.6200000      0.0000000E+00
 -0.6100000      0.0000000E+00
 -0.6000000      0.0000000E+00
 -0.5900000      0.0000000E+00
 -0.5800000      0.0000000E+00
 -0.5700000      0.0000000E+00
 -0.5600000      0.0000000E+00
 -0.5500000      0.0000000E+00
 -0.5400000      0.0000000E+00
 -0.5300000      0.0000000E+00
 -0.5200000      0.0000000E+00
 -0.5100000      0.0000000E+00
 -0.5000000      0.0000000E+00
 -0.4900000      0.0000000E+00
 -0.4800000      0.0000000E+00
 -0.4700000      0.0000000E+00
 -0.4600000      0.0000000E+00
 -0.4500000      0.0000000E+00
 -0.4400000      0.0000000E+00
 -0.4300000      0.0000000E+00
 -0.4200000      0.0000000E+00
 -0.4100000      0.0000000E+00
 -0.4000000      0.0000000E+00
 -0.3900000      0.0000000E+00
 -0.3800000      0.0000000E+00
 -0.3700000      0.0000000E+00
 -0.3600000      0.0000000E+00
 -0.3500000      0.0000000E+00
 -0.3400000      0.0000000E+00
 -0.3300000      0.0000000E+00
 -0.3200000      0.0000000E+00
 -0.3100000      0.0000000E+00
 -0.3000000      0.0000000E+00
 -0.2900000      0.0000000E+00
 -0.2800000      0.0000000E+00
 -0.2700000      0.0000000E+00
 -0.2600000      0.0000000E+00
 -0.2500000      0.0000000E+00
 -0.2400000      0.0000000E+00
 -0.2300000      0.0000000E+00
 -0.2200000      0.0000000E+00
 -0.2100000      0.0000000E+00
 -0.2000000      0.0000000E+00
 -0.1900000      0.0000000E+00
 -0.1800000      0.0000000E+00
 -0.1700000      0.0000000E+00
 -0.1600000      0.0000000E+00
 -0.1500000      0.0000000E+00
 -0.1400000      0.0000000E+00
 -0.1300000      0.0000000E+00
 -0.1200000      0.0000000E+00
 -0.1100000      0.0000000E+00
 -0.1000000      0.0000000E+00
 -9.0000004E-02  0.0000000E+00
 -7.9999998E-02  0.0000000E+00
 -7.0000000E-02  0.0000000E+00
 -5.9999999E-02  0.0000000E+00
 -5.0000001E-02  0.0000000E+00
 -3.9999999E-02  0.0000000E+00
 -2.9999999E-02  0.0000000E+00
 -2.0000000E-02  0.0000000E+00
 -9.9999998E-03  0.0000000E+00
 -3.4694470E-17  0.0000000E+00
  9.9999998E-03  0.0000000E+00
  2.0000000E-02  0.0000000E+00
  2.9999999E-02  0.0000000E+00
  3.9999999E-02  0.0000000E+00
  5.0000001E-02  0.0000000E+00
  5.9999999E-02  0.0000000E+00
  7.0000000E-02  0.0000000E+00
  7.9999998E-02  0.0000000E+00
  9.0000004E-02  0.0000000E+00
  0.1000000      0.0000000E+00
  0.1100000      0.0000000E+00
  0.1200000      0.0000000E+00
  0.1300000      0.0000000E+00
  0.1400000      0.0000000E+00
  0.1500000      0.0000000E+00
  0.1600000      0.0000000E+00
  0.1700000      0.0000000E+00
  0.1800000      0.0000000E+00
  0.1900000      0.0000000E+00
  0.2000000      0.0000000E+00
  0.2100000      0.0000000E+00
  0.2200000      0.0000000E+00
  0.2300000      0.0000000E+00
  0.2400000      0.0000000E+00
  0.2500000      0.0000000E+00
  0.2600000      0.0000000E+00
  0.2700000      0.0000000E+00
  0.2800000      0.0000000E+00
  0.2900000      0.0000000E+00
  0.3000000      0.0000000E+00
  0.3100000      0.0000000E+00
  0.3200000      0.0000000E+00
  0.3300000      0.0000000E+00
  0.3400000      0.0000000E+00
  0.3500000      0.0000000E+00
  0.3600000      0.0000000E+00
  0.3700000      0.0000000E+00
  0.3800000      0.0000000E+00
  0.3900000      0.0000000E+00
  0.4000000      0.0000000E+00
  0.4100000      0.0000000E+00
  0.4200000      0.0000000E+00
  0.4300000      0.0000000E+00
  0.4400000      0.0000000E+00
  0.4500000      0.0000000E+00
  0.4600000      0.0000000E+00
  0.4700000      0.0000000E+00
  0.4800000      0.0000000E+00
  0.4900000      0.0000000E+00
  0.5000000      0.0000000E+00
  0.5100000      0.0000000E+00
  0.5200000      0.0000000E+00
  0.5300000      0.0000000E+00
  0.5400000      0.0000000E+00
  0.5500000      0.0000000E+00
  0.5600000      0.0000000E+00
  0.5700000      0.0000000E+00
  0.5800000      0.0000000E+00
  0.5900000      0.0000000E+00
  0.6000000      0.0000000E+00
  0.6100000      0.0000000E+00
  0.6200000      0.0000000E+00
  0.6300000      0.0000000E+00
  0.6400000      0.0000000E+00
  0.6500000      0.0000000E+00
  0.6600000      0.0000000E+00
  0.6700000      0.0000000E+00
  0.6800000      0.0000000E+00
  0.6900000      0.0000000E+00
  0.7000000      0.0000000E+00
  0.7100000      0.0000000E+00
  0.7200000      0.0000000E+00
  0.7300000      0.0000000E+00
  0.7400000      0.0000000E+00
  0.7500000      0.0000000E+00
  0.7600000      0.0000000E+00
  0.7700000      0.0000000E+00
  0.7800000      0.0000000E+00
  0.7900000      0.0000000E+00
  0.8000000      0.0000000E+00
  0.8100000      0.0000000E+00
  0.8200000      0.0000000E+00
  0.8300000      0.0000000E+00
  0.8400000      0.0000000E+00
  0.8500000      0.0000000E+00
  0.8600000      0.0000000E+00
  0.8700000      0.0000000E+00
  0.8800000      0.0000000E+00
  0.8900000      0.0000000E+00
  0.9000000      0.0000000E+00
  0.9100000      0.0000000E+00
  0.9200000      0.0000000E+00
  0.9300000      0.0000000E+00
  0.9400000      0.0000000E+00
  0.9500000      0.0000000E+00
  0.9600000      0.0000000E+00
  0.9700000      0.0000000E+00
  0.9800000      0.0000000E+00
  0.9900000      0.0000000E+00
   1.000000      0.0000000E+00
   1.010000      0.0000000E+00
   1.020000      0.0000000E+00
   1.030000      0.0000000E+00
   1.040000      0.0000000E+00
   1.050000      0.0000000E+00
   1.060000      0.0000000E+00
   1.070000      0.0000000E+00
   1.080000      0.0000000E+00
   1.090000      0.0000000E+00
   1.100000      0.0000000E+00
   1.110000      0.0000000E+00
   1.120000      0.0000000E+00
   1.130000      0.0000000E+00
   1.140000      0.0000000E+00
   1.150000      0.0000000E+00
   1.160000      0.0000000E+00
   1.170000      0.0000000E+00
   1.180000      0.0000000E+00
   1.190000      0.0000000E+00
   1.200000      0.0000000E+00
   1.210000      0.0000000E+00
   1.220000      0.0000000E+00
   1.230000      0.0000000E+00
   1.240000      0.0000000E+00
   1.250000      0.0000000E+00
   1.260000      0.0000000E+00
   1.270000      0.0000000E+00
   1.280000      0.0000000E+00
   1.290000      0.0000000E+00
   1.300000      0.0000000E+00
   1.310000      0.0000000E+00
   1.320000      0.0000000E+00
   1.330000      0.0000000E+00
   1.340000      0.0000000E+00
   1.350000      0.0000000E+00
   1.360000      0.0000000E+00
   1.370000      0.0000000E+00
   1.380000      0.0000000E+00
   1.390000      0.0000000E+00
   1.400000      0.0000000E+00
   1.410000      0.0000000E+00
   1.420000      0.0000000E+00
   1.430000      0.0000000E+00
   1.440000      0.0000000E+00
   1.450000      0.0000000E+00
   1.460000      0.0000000E+00
   1.470000      0.0000000E+00
   1.480000      0.0000000E+00
   1.490000      0.0000000E+00
   1.500000      0.0000000E+00
   1.510000      0.0000000E+00
   1.520000      0.0000000E+00
   1.530000      0.0000000E+00
   1.540000      0.0000000E+00
   1.550000      0.0000000E+00
   1.560000      0.0000000E+00
   1.570000      0.0000000E+00
   1.580000      0.0000000E+00
   1.590000      0.0000000E+00
   1.600000      0.0000000E+00
   1.610000      0.0000000E+00
   1.620000      0.0000000E+00
   1.630000      0.0000000E+00
   1.640000      0.0000000E+00
   1.650000      0.0000000E+00
   1.660000      0.0000000E+00
   1.670000      0.0000000E+00
   1.680000      0.0000000E+00
   1.690000      0.0000000E+00
   1.700000      0.0000000E+00
   1.710000      0.0000000E+00
   1.720000      0.0000000E+00
   1.730000      0.0000000E+00
   1.740000      0.0000000E+00
   1.750000      0.0000000E+00
   1.760000      0.0000000E+00
   1.770000      0.0000000E+00
   1.780000      0.0000000E+00
   1.790000      0.0000000E+00
   1.800000      0.0000000E+00
   1.810000      0.0000000E+00
   1.820000      0.0000000E+00
   1.830000      0.0000000E+00
   1.840000      0.0000000E+00
   1.850000      0.0000000E+00
   1.860000      0.0000000E+00
   1.870000      0.0000000E+00
   1.880000      0.0000000E+00
   1.890000      0.0000000E+00
   1.900000      0.0000000E+00
   1.910000      0.0000000E+00
   1.920000      0.0000000E+00
   1.930000      0.0000000E+00
   1.940000      0.0000000E+00
   1.950000      0.0000000E+00
   1.960000      0.0000000E+00
   1.970000      0.0000000E+00
   1.980000      0.0000000E+00
   1.990000      0.0000000E+00
   2.000000      0.0000000E+00
   2.010000      0.0000000E+00
   2.020000      0.0000000E+00
   2.030000      0.0000000E+00
   2.040000      0.0000000E+00
   2.050000      0.0000000E+00
   2.060000      0.0000000E+00
   2.070000      0.0000000E+00
   2.080000      0.0000000E+00
   2.090000      0.0000000E+00
   2.100000      0.0000000E+00
   2.110000      0.0000000E+00
   2.120000      0.0000000E+00
   2.130000      0.0000000E+00
   2.140000      0.0000000E+00
   2.150000      0.0000000E+00
   2.160000      0.0000000E+00
   2.170000      0.0000000E+00
   2.180000      0.0000000E+00
   2.190000      0.0000000E+00
   2.200000      0.0000000E+00
   2.210000      0.0000000E+00
   2.220000      0.0000000E+00
   2.230000      0.0000000E+00
   2.240000      0.0000000E+00
   2.250000      0.0000000E+00
   2.260000      0.0000000E+00
   2.270000      0.0000000E+00
   2.280000      0.0000000E+00
   2.290000      0.0000000E+00
   2.300000      0.0000000E+00
   2.310000      0.0000000E+00
   2.320000      0.0000000E+00
   2.330000      0.0000000E+00
   2.340000      0.0000000E+00
   2.350000      0.0000000E+00
   2.360000      0.0000000E+00
   2.370000      0.0000000E+00
   2.380000      0.0000000E+00
   2.390000      0.0000000E+00
   2.400000      0.0000000E+00
   2.410000      0.0000000E+00
   2.420000      0.0000000E+00
   2.430000      0.0000000E+00
   2.440000      0.0000000E+00
   2.450000      0.0000000E+00
   2.460000      0.0000000E+00
   2.470000      0.0000000E+00
   2.480000      0.0000000E+00
   2.490000      0.0000000E+00
   2.500000      0.0000000E+00
   2.510000      0.0000000E+00
   2.520000      0.0000000E+00
   2.530000      0.0000000E+00
   2.540000      0.0000000E+00
   2.550000      0.0000000E+00
   2.560000      0.0000000E+00
   2.570000      0.0000000E+00
   2.580000      0.0000000E+00
   2.590000      0.0000000E+00
   2.600000      0.0000000E+00
   2.610000      0.0000000E+00
   2.620000      0.0000000E+00
   2.630000      0.0000000E+00
   2.640000      0.0000000E+00
   2.650000      0.0000000E+00
   2.660000      0.0000000E+00
   2.670000      0.0000000E+00
   2.680000      0.0000000E+00
   2.690000      0.0000000E+00
   2.700000      0.0000000E+00
   2.710000      0.0000000E+00
   2.720000      0.0000000E+00
   2.730000      0.0000000E+00
   2.740000      0.0000000E+00
   2.750000      0.0000000E+00
   2.760000      0.0000000E+00
   2.770000      0.0000000E+00
   2.780000      0.0000000E+00
   2.790000      0.0000000E+00
   2.800000      0.0000000E+00
   2.810000      0.0000000E+00
   2.820000      0.0000000E+00
   2.830000      0.0000000E+00
   2.840000      0.0000000E+00
   2.850000      0.0000000E+00
   2.860000      0.0000000E+00
   2.870000      0.0000000E+00
   2.880000      0.0000000E+00
   2.890000      0.0000000E+00
   2.900000      0.0000000E+00
   2.910000      0.0000000E+00
   2.920000      0.0000000E+00
   2.930000      0.0000000E+00
   2.940000      0.0000000E+00
   2.950000      0.0000000E+00
   2.960000      0.0000000E+00
   2.970000      0.0000000E+00
   2.980000      0.0000000E+00
   2.990000      0.0000000E+00
   3.000000      0.0000000E+00
   3.010000      0.0000000E+00
   3.020000      0.0000000E+00
   3.030000      0.0000000E+00
   3.040000      0.0000000E+00
   3.050000      0.0000000E+00
   3.060000      0.0000000E+00
   3.070000      0.0000000E+00
   3.080000      0.0000000E+00
   3.090000      0.0000000E+00
   3.100000      0.0000000E+00
   3.110000      0.0000000E+00
   3.120000      0.0000000E+00
   3.130000      0.0000000E+00
   3.140000      0.0000000E+00
   3.150000      0.0000000E+00
   3.160000      0.0000000E+00
   3.170000      0.0000000E+00
   3.180000      0.0000000E+00
   3.190000      0.0000000E+00
   3.200000      0.0000000E+00
   3.210000      0.0000000E+00
   3.220000      0.0000000E+00
   3.230000      0.0000000E+00
   3.240000      0.0000000E+00
   3.250000      0.0000000E+00
   3.260000      0.0000000E+00
   3.270000      0.0000000E+00
   3.280000      0.0000000E+00
   3.290000      0.0000000E+00
   3.300000      0.0000000E+00
   3.310000      0.0000000E+00
   3.320000      0.0000000E+00
   3.330000      0.0000000E+00
   3.340000      0.0000000E+00
   3.350000      0.0000000E+00
   3.360000      0.0000000E+00
   3.370000      0.0000000E+00
   3.380000      0.0000000E+00
   3.390000      0.0000000E+00
   3.400000      0.0000000E+00
   3.410000      0.0000000E+00
   3.420000      0.0000000E+00
   3.430000      0.0000000E+00
   3.440000      0.0000000E+00
   3.450000      0.0000000E+00
   3.460000      0.0000000E+00
   3.470000      0.0000000E+00
   3.480000      0.0000000E+00
   3.490000      0.0000000E+00
   3.500000      0.0000000E+00
   3.510000      0.0000000E+00
   3.520000      0.0000000E+00
   3.530000      0.0000000E+00
   3.540000      0.0000000E+00
   3.550000      0.0000000E+00
   3.560000      0.0000000E+00
   3.570000      0.0000000E+00
   3.580000      0.0000000E+00
   3.590000      0.0000000E+00
   3.600000     -1.4637682E-38
   3.610000     -1.8366153E-38
   3.620000     -2.2216109E-38
   3.630000     -2.6111089E-38
   3.640000     -2.9972785E-38
   3.650000     -3.3701971E-38
   3.660000     -3.7217915E-38
   3.670000     -4.0459388E-38
   3.680000     -4.3333661E-38
   3.690000     -4.4626393E-38
   3.700000     -4.4548088E-38
   3.710000     -4.4465193E-38
   3.720000     -4.4296880E-38
   3.730000     -4.4016822E-38
   3.740000     -4.3680068E-38
   3.750000     -4.3289377E-38
   3.760000     -4.2850530E-38
   3.770000     -4.1111732E-38
   3.780000     -3.7762099E-38
   3.790000     -3.3763191E-38
   3.800000     -2.9152955E-38
   3.810000     -2.3973111E-38
   3.820000     -1.8269263E-38
   3.830000     -1.2113715E-38
   3.840000      0.0000000E+00
   3.850000      0.0000000E+00
   3.860000      0.0000000E+00
   3.870000      1.5409777E-38
   3.880000      2.2676917E-38
   3.890000      2.9928641E-38
   3.900000      3.7141612E-38
   3.910000      4.4345261E-38
   3.920000      5.1493195E-38
   3.930000      5.8546407E-38
   3.940000      6.5414019E-38
   3.950000      7.2058506E-38
   3.960000      7.8516076E-38
   3.970000      8.4815400E-38
   3.980000      9.1039110E-38
   3.990000      9.7346119E-38
   4.000000      1.0383513E-37
   4.010000      1.1053605E-37
   4.020000      1.1752797E-37
   4.030000      1.2487067E-37
   4.040000      1.3258065E-37
   4.050000      1.4063211E-37
   4.060000      1.4897788E-37
   4.070000      1.5756415E-37
   4.080000      1.6632978E-37
   4.090000      1.7519986E-37
   4.100000      1.8396706E-37
   4.110000      1.9247480E-37
   4.120000      2.0057958E-37
   4.130000      2.0801435E-37
   4.140000      2.1451951E-37
   4.150000      2.1982624E-37
   4.160000      2.2369356E-37
   4.170000      2.2592413E-37
   4.180000      2.2477930E-37
   4.190000      2.2081986E-37
   4.200000      2.1491504E-37
   4.210000      2.0614677E-37
   4.220000      1.9487290E-37
   4.230000      1.8113656E-37
   4.240000      1.6496720E-37
   4.250000      1.4623473E-37
   4.260000      1.2495047E-37
   4.270000      1.0124903E-37
   4.280000      7.5218860E-38
   4.290000      4.6951962E-38
   4.300000      1.6550234E-38
   4.310000     -1.5889266E-38
   4.320000     -5.0273247E-38
   4.330000     -8.4289072E-38
   4.340000     -1.1777553E-37
   4.350000     -1.5283193E-37
   4.360000     -1.8946434E-37
   4.370000     -2.2763479E-37
   4.380000     -2.6412391E-37
   4.390000     -2.9893615E-37
   4.400000     -3.3523070E-37
   4.410000     -3.7294186E-37
   4.420000     -4.1201753E-37
   4.430000     -4.5319122E-37
   4.440000     -5.0995637E-37
   4.450000     -5.8618866E-37
   4.460000     -6.6830444E-37
   4.470000     -7.5029632E-37
   4.480000     -8.3260446E-37
   4.490000     -9.0558292E-37
   4.500000     -9.6840477E-37
   4.510000     -1.0313700E-36
   4.520000     -1.0937735E-36
   4.530000     -1.1549217E-36
   4.540000     -1.2129781E-36
   4.550000     -1.2646385E-36
   4.560000     -1.3177437E-36
   4.570000     -1.3596279E-36
   4.580000     -1.3823629E-36
   4.590000     -1.3985240E-36
   4.600000     -1.4234091E-36
   4.610000     -1.4586339E-36
   4.620000     -1.4913407E-36
   4.630000     -1.5354795E-36
   4.640000     -1.5753526E-36
   4.650000     -1.5958093E-36
   4.660000     -1.5615907E-36
   4.670000     -1.4700103E-36
   4.680000     -1.3625796E-36
   4.690000     -1.5363707E-36
   4.700000     -2.0314064E-36
   4.710000     -2.6018592E-36
   4.720000     -3.1909628E-36
   4.730000     -3.8079886E-36
   4.740000     -4.5025591E-36
   4.750000     -4.5638475E-36
   4.760000     -3.8089199E-36
   4.770000     -2.7459416E-36
   4.780000     -1.4703181E-36
   4.790000     -1.3777304E-37
   4.800000      1.1857919E-36
   4.810000      2.3745904E-36
   4.820000      3.3484929E-36
   4.830000      4.1322730E-36
   4.840000      4.7199097E-36
   4.850000      5.1888537E-36
   4.860000      6.3235749E-36
   4.870000      7.3889821E-36
   4.880000      7.6545661E-36
   4.890000      7.8548851E-36
   4.900000      8.0109761E-36
   4.910000      8.1650344E-36
   4.920000      8.3562338E-36
   4.930000      9.3505539E-36
   4.940000      1.0965389E-35
   4.950000      1.2468358E-35
   4.960000      1.3970087E-35
   4.970000      1.5341648E-35
   4.980000      1.5983054E-35
   4.990000      1.5898333E-35
   5.000000      1.6439365E-35
   5.010000      1.7990390E-35
   5.020000      1.9906460E-35
   5.030000      2.1104562E-35
   5.040000      2.1575180E-35
   5.050000      2.2368073E-35
   5.060000      2.3545930E-35
   5.070000      2.5101129E-35
   5.080000      2.6954217E-35
   5.090000      2.8883302E-35
   5.100000      3.0745844E-35
   5.110000      3.2217103E-35
   5.120000      3.2851962E-35
   5.130000      3.3058250E-35
   5.140000      3.3459468E-35
   5.150000      3.3962316E-35
   5.160000      3.2930077E-35
   5.170000      3.0199624E-35
   5.180000      2.7182621E-35
   5.190000      2.4021464E-35
   5.200000      2.0786571E-35
   5.210000      1.7645673E-35
   5.220000      1.5003594E-35
   5.230000      1.3364336E-35
   5.240000      1.2440019E-35
   5.250000      1.1579193E-35
   5.260000      1.0970864E-35
   5.270000      9.8005600E-36
   5.280000      7.5271845E-36
   5.290000      4.5785308E-36
   5.300000      6.7674299E-37
   5.310000     -4.5367169E-36
   5.320000     -1.0917740E-35
   5.330000     -1.5237328E-35
   5.340000     -1.7235986E-35
   5.350000     -1.9305899E-35
   5.360000     -2.0882212E-35
   5.370000     -2.1742621E-35
   5.380000     -2.1574973E-35
   5.390000     -2.0110489E-35
   5.400000     -2.5880118E-35
   5.410000     -4.0841099E-35
   5.420000     -5.7953266E-35
   5.430000     -7.6755895E-35
   5.440000     -9.5962991E-35
   5.450000     -1.1351098E-34
   5.460000     -1.2153815E-34
   5.470000     -1.2178552E-34
   5.480000     -1.2300528E-34
   5.490000     -1.2560132E-34
   5.500000     -1.2950575E-34
   5.510000     -1.3242145E-34
   5.520000     -1.3394623E-34
   5.530000     -1.3640101E-34
   5.540000     -1.3978381E-34
   5.550000     -1.4310304E-34
   5.560000     -1.4694670E-34
   5.570000     -1.5040431E-34
   5.580000     -1.5188340E-34
   5.590000     -1.5062449E-34
   5.600000     -1.5087705E-34
   5.610000     -1.6438446E-34
   5.620000     -1.8877909E-34
   5.630000     -2.1283035E-34
   5.640000     -2.3543806E-34
   5.650000     -2.4966625E-34
   5.660000     -2.5589906E-34
   5.670000     -2.6630944E-34
   5.680000     -2.8406365E-34
   5.690000     -3.0678433E-34
   5.700000     -3.3125846E-34
   5.710000     -3.4662011E-34
   5.720000     -3.4906553E-34
   5.730000     -3.3001322E-34
   5.740000     -2.8802027E-34
   5.750000     -2.3821083E-34
   5.760000     -1.8279662E-34
   5.770000     -1.3320948E-34
   5.780000     -9.5460852E-35
   5.790000     -6.7785496E-35
   5.800000     -5.8970649E-35
   5.810000     -6.2818154E-35
   5.820000     -6.8728566E-35
   5.830000     -6.7602261E-35
   5.840000     -5.3760167E-35
   5.850000     -2.8466366E-35
   5.860000      5.8928607E-36
   5.870000      4.6352299E-35
   5.880000      9.0020523E-35
   5.890000      1.3064434E-34
   5.900000      1.7018587E-34
   5.910000      2.1012090E-34
   5.920000      2.4505336E-34
   5.930000      2.7459883E-34
   5.940000      3.0223886E-34
   5.950000      3.2917332E-34
   5.960000      3.5622631E-34
   5.970000      3.8547408E-34
   5.980000      4.1992938E-34
   5.990000      4.6700444E-34
   6.000000      5.3077753E-34
   6.010000      6.0551225E-34
   6.020000      6.8401295E-34
   6.030000      7.6305632E-34
   6.040000      8.4227935E-34
   6.050000      9.1757115E-34
   6.060000      9.8670858E-34
   6.070000      1.0393622E-33
   6.080000      1.0804469E-33
   6.090000      1.1262007E-33
   6.100000      1.1772291E-33
   6.110000      1.2344550E-33
   6.120000      1.2981590E-33
   6.130000      1.3724896E-33
   6.140000      1.4478784E-33
   6.150000      1.5154151E-33
   6.160000      1.5861493E-33
   6.170000      1.6557551E-33
   6.180000      1.7128268E-33
   6.190000      1.7639397E-33
   6.200000      1.8155022E-33
   6.210000      1.8664182E-33
   6.220000      1.9154328E-33
   6.230000      1.9605492E-33
   6.240000      1.9903410E-33
   6.250000      2.0103159E-33
   6.260000      2.0319322E-33
   6.270000      2.0570727E-33
   6.280000      2.0781168E-33
   6.290000      2.0865403E-33
   6.300000      2.0883339E-33
   6.310000      2.0820376E-33
   6.320000      2.0672883E-33
   6.330000      2.0447676E-33
   6.340000      2.0138571E-33
   6.350000      1.9736862E-33
   6.360000      1.9242033E-33
   6.370000      1.8659988E-33
   6.380000      1.7985054E-33
   6.390000      1.7202067E-33
   6.400000      1.6281877E-33
   6.410000      1.5212001E-33
   6.420000      1.3991913E-33
   6.430000      1.2610094E-33
   6.440000      1.1050291E-33
   6.450000      9.3025629E-34
   6.460000      7.3789688E-34
   6.470000      5.2930247E-34
   6.480000      3.0239087E-34
   6.490000      5.7199664E-35
   6.500000     -2.0555006E-34
   6.510000     -4.8636712E-34
   6.520000     -7.8385692E-34
   6.530000     -1.0976036E-33
   6.540000     -1.4291703E-33
   6.550000     -1.7782307E-33
   6.560000     -2.1439072E-33
   6.570000     -2.5279002E-33
   6.580000     -2.9302933E-33
   6.590000     -3.3513656E-33
   6.600000     -3.7923894E-33
   6.610000     -4.2539469E-33
   6.620000     -4.7359161E-33
   6.630000     -5.2383029E-33
   6.640000     -5.7612271E-33
   6.650000     -6.3031917E-33
   6.660000     -6.8628879E-33
   6.670000     -7.4371015E-33
   6.680000     -8.0217285E-33
   6.690000     -8.6207935E-33
   6.700000     -9.2353052E-33
   6.710000     -9.8641050E-33
   6.720000     -1.0502445E-32
   6.730000     -1.1144969E-32
   6.740000     -1.1792961E-32
   6.750000     -1.2445576E-32
   6.760000     -1.3102374E-32
   6.770000     -1.3760869E-32
   6.780000     -1.4417648E-32
   6.790000     -1.5069303E-32
   6.800000     -1.5714255E-32
   6.810000     -1.6346996E-32
   6.820000     -1.6960907E-32
   6.830000     -1.7553111E-32
   6.840000     -1.8119791E-32
   6.850000     -1.8657055E-32
   6.860000     -1.9158517E-32
   6.870000     -1.9618877E-32
   6.880000     -2.0034791E-32
   6.890000     -2.0402504E-32
   6.900000     -2.0718255E-32
   6.910000     -2.0980360E-32
   6.920000     -2.1183111E-32
   6.930000     -2.1320185E-32
   6.940000     -2.1389173E-32
   6.950000     -2.1385509E-32
   6.960000     -2.1304172E-32
   6.970000     -2.1139798E-32
   6.980000     -2.0886898E-32
   6.990000     -2.0539563E-32
   7.000000     -2.0091865E-32
   7.010000     -1.9537934E-32
   7.020000     -1.8872215E-32
   7.030000     -1.8089622E-32
   7.040000     -1.7184556E-32
   7.050000     -1.6152278E-32
   7.060000     -1.4988996E-32