  -2.600000      0.0000000E+00
  -2.590000      0.0000000E+00
  -2.580000      0.0000000E+00
  -2.570000      0.0000000E+00
  -2.560000      0.0000000E+00
  -2.550000      0.0000000E+00
  -2.540000      0.0000000E+00
  -2.530000      0.0000000E+00
  -2.520000      0.0000000E+00
  -2.510000      0.0000000E+00
  -2.500000      0.0000000E+00
  -2.490000      0.0000000E+00
  -2.480000      0.0000000E+00
  -2.470000      0.0000000E+00
  -2.460000      0.0000000E+00
  -2.450000      0.0000000E+00
  -2.440000      0.0000000E+00
  -2.430000      0.0000000E+00
  -2.420000      0.0000000E+00
  -2.410000      0.0000000E+00
  -2.400000      0.0000000E+00
  -2.390000      0.0000000E+00
  -2.380000      0.0000000E+00
  -2.370000      0.0000000E+00
  -2.360000      0.0000000E+00
  -2.350000      0.0000000E+00
  -2.340000      0.0000000E+00
  -2.330000      0.0000000E+00
  -2.320000      0.0000000E+00
  -2.310000      0.0000000E+00
  -2.300000      0.0000000E+00
  -2.290000      0.0000000E+00
  -2.280000      0.0000000E+00
  -2.270000      0.0000000E+00
  -2.260000      0.0000000E+00
  -2.250000      0.0000000E+00
  -2.240000      0.0000000E+00
  -2.230000      0.0000000E+00
  -2.220000      0.0000000E+00
  -2.210000      0.0000000E+00
  -2.200000      0.0000000E+00
  -2.190000      0.0000000E+00
  -2.180000      0.0000000E+00
  -2.170000      0.0000000E+00
  -2.160000      0.0000000E+00
  -2.150000      0.0000000E+00
  -2.140000      0.0000000E+00
  -2.130000      0.0000000E+00
  -2.120000      0.0000000E+00
  -2.110000      0.0000000E+00
  -2.100000      0.0000000E+00
  -2.090000      0.0000000E+00
  -2.080000      0.0000000E+00
  -2.070000      0.0000000E+00
  -2.060000      0.0000000E+00
  -2.050000      0.0000000E+00
  -2.040000      0.0000000E+00
  -2.030000      0.0000000E+00
  -2.020000      0.0000000E+00
  -2.010000      0.0000000E+00
  -2.000000      0.0000000E+00
  -1.990000      0.0000000E+00
  -1.980000      0.0000000E+00
  -1.970000      0.0000000E+00
  -1.960000      0.0000000E+00
  -1.950000      0.0000000E+00
  -1.940000      0.0000000E+00
  -1.930000      0.0000000E+00
  -1.920000      0.0000000E+00
  -1.910000      0.0000000E+00
  -1.900000      0.0000000E+00
  -1.890000      0.0000000E+00
  -1.880000      0.0000000E+00
  -1.870000      0.0000000E+00
  -1.860000      0.0000000E+00
  -1.850000      0.0000000E+00
  -1.840000      0.0000000E+00
  -1.830000      0.0000000E+00
  -1.820000      0.0000000E+00
  -1.810000      0.0000000E+00
  -1.800000      0.0000000E+00
  -1.790000      0.0000000E+00
  -1.780000      0.0000000E+00
  -1.770000      0.0000000E+00
  -1.760000      0.0000000E+00
  -1.750000      0.0000000E+00
  -1.740000      0.0000000E+00
  -1.730000      0.0000000E+00
  -1.720000      0.0000000E+00
  -1.710000      0.0000000E+00
  -1.700000      0.0000000E+00
  -1.690000      0.0000000E+00
  -1.680000      0.0000000E+00
  -1.670000      0.0000000E+00
  -1.660000      0.0000000E+00
  -1.650000      0.0000000E+00
  -1.640000      0.0000000E+00
  -1.630000      0.0000000E+00
  -1.620000      0.0000000E+00
  -1.610000      0.0000000E+00
  -1.600000      0.0000000E+00
  -1.590000      0.0000000E+00
  -1.580000      0.0000000E+00
  -1.570000      0.0000000E+00
  -1.560000      0.0000000E+00
  -1.550000      0.0000000E+00
  -1.540000      0.0000000E+00
  -1.530000      0.0000000E+00
  -1.520000      0.0000000E+00
  -1.510000      0.0000000E+00
  -1.500000      0.0000000E+00
  -1.490000      0.0000000E+00
  -1.480000      0.0000000E+00
  -1.470000      0.0000000E+00
  -1.460000      0.0000000E+00
  -1.450000      0.0000000E+00
  -1.440000      0.0000000E+00
  -1.430000      0.0000000E+00
  -1.420000      0.0000000E+00
  -1.410000      0.0000000E+00
  -1.400000      0.0000000E+00
  -1.390000      0.0000000E+00
  -1.380000      0.0000000E+00
  -1.370000      0.0000000E+00
  -1.360000      0.0000000E+00
  -1.350000      0.0000000E+00
  -1.340000      0.0000000E+00
  -1.330000      0.0000000E+00
  -1.320000      0.0000000E+00
  -1.310000      0.0000000E+00
  -1.300000      0.0000000E+00
  -1.290000      0.0000000E+00
  -1.280000      0.0000000E+00
  -1.270000      0.0000000E+00
  -1.260000      0.0000000E+00
  -1.250000      0.0000000E+00
  -1.240000      0.0000000E+00
  -1.230000      0.0000000E+00
  -1.220000      0.0000000E+00
  -1.210000      0.0000000E+00
  -1.200000      0.0000000E+00
  -1.190000      0.0000000E+00
  -1.180000      0.0000000E+00
  -1.170000      0.0000000E+00
  -1.160000      0.0000000E+00
  -1.150000      0.0000000E+00
  -1.140000      0.0000000E+00
  -1.130000      0.0000000E+00
  -1.120000      0.0000000E+00
  -1.110000      0.0000000E+00
  -1.100000      0.0000000E+00
  -1.090000      0.0000000E+00
  -1.080000      0.0000000E+00
  -1.070000      0.0000000E+00
  -1.060000      0.0000000E+00
  -1.050000      0.0000000E+00
  -1.040000      0.0000000E+00
  -1.030000      0.0000000E+00
  -1.020000      0.0000000E+00
  -1.010000      0.0000000E+00
  -1.000000      0.0000000E+00
 -0.9900000      0.0000000E+00
 -0.9800000      0.0000000E+00
 -0.9700000      0.0000000E+00
 -0.9600000      0.0000000E+00
 -0.9500000      0.0000000E+00
 -0.9400000      0.0000000E+00
 -0.9300000      0.0000000E+00
 -0.9200000      0.0000000E+00
 -0.9100000      0.0000000E+00
 -0.9000000      0.0000000E+00
 -0.8900000      0.0000000E+00
 -0.8800000      0.0000000E+00
 -0.8700000      0.0000000E+00
 -0.8600000      0.0000000E+00
 -0.8500000      0.0000000E+00
 -0.8400000      0.0000000E+00
 -0.8300000      0.0000000E+00
 -0.8200000      0.0000000E+00
 -0.8100000      0.0000000E+00
 -0.8000000      0.0000000E+00
 -0.7900000      0.0000000E+00
 -0.7800000      0.0000000E+00
 -0.7700000      0.0000000E+00
 -0.7600000      0.0000000E+00
 -0.7500000      0.0000000E+00
 -0.7400000      0.0000000E+00
 -0.7300000      0.0000000E+00
 -0.7200000      0.0000000E+00
 -0.7100000      0.0000000E+00
 -0.7000000      0.0000000E+00
 -0.6900000      0.0000000E+00
 -0.6800000      0.0000000E+00
 -0.6700000      0.0000000E+00
 -0.6600000      0.0000000E+00
 -0.6500000      0.0000000E+00
 -0.6400000      0.0000000E+00
 -0.6300000      0.0000000E+00
 -0.6200000      0.0000000E+00
 -0.6100000      0.0000000E+00
 -0.6000000      0.0000000E+00
 -0.5900000      0.0000000E+00
 -0.5800000      0.0000000E+00
 -0.5700000      0.0000000E+00
 -0.5600000      0.0000000E+00
 -0.5500000      0.0000000E+00
 -0.5400000      0.0000000E+00
 -0.5300000      0.0000000E+00
 -0.5200000      0.0000000E+00
 -0.5100000      0.0000000E+00
 -0.5000000      0.0000000E+00
 -0.4900000      0.0000000E+00
 -0.4800000      0.0000000E+00
 -0.4700000      0.0000000E+00
 -0.4600000      0.0000000E+00
 -0.4500000      0.0000000E+00
 -0.4400000      0.0000000E+00
 -0.4300000      0.0000000E+00
 -0.4200000      0.0000000E+00
 -0.4100000      0.0000000E+00
 -0.4000000      0.0000000E+00
 -0.3900000      0.0000000E+00
 -0.3800000      0.0000000E+00
 -0.3700000      0.0000000E+00
 -0.3600000      0.0000000E+00
 -0.3500000      0.0000000E+00
 -0.3400000      0.0000000E+00
 -0.3300000      0.0000000E+00
 -0.3200000      0.0000000E+00
 -0.3100000      0.0000000E+00
 -0.3000000      0.0000000E+00
 -0.2900000      0.0000000E+00
 -0.2800000      0.0000000E+00
 -0.2700000      0.0000000E+00
 -0.2600000      0.0000000E+00
 -0.2500000      0.0000000E+00
 -0.2400000      0.0000000E+00
 -0.2300000      0.0000000E+00
 -0.2200000      0.0000000E+00
 -0.2100000      0.0000000E+00
 -0.2000000      0.0000000E+00
 -0.1900000      0.0000000E+00
 -0.1800000      0.0000000E+00
 -0.1700000      0.0000000E+00
 -0.1600000      0.0000000E+00
 -0.1500000      0.0000000E+00
 -0.1400000      0.0000000E+00
 -0.1300000      0.0000000E+00
 -0.1200000      0.0000000E+00
 -0.1100000      0.0000000E+00
 -0.1000000      0.0000000E+00
 -9.0000004E-02  0.0000000E+00
 -7.9999998E-02  0.0000000E+00
 -7.0000000E-02  0.0000000E+00
 -5.9999999E-02  0.0000000E+00
 -5.0000001E-02  0.0000000E+00
 -3.9999999E-02  0.0000000E+00
 -2.9999999E-02  0.0000000E+00
 -2.0000000E-02  0.0000000E+00
 -9.9999998E-03  0.0000000E+00
 -3.4694470E-17  0.0000000E+00
  9.9999998E-03  0.0000000E+00
  2.0000000E-02  0.0000000E+00
  2.9999999E-02  0.0000000E+00
  3.9999999E-02  0.0000000E+00
  5.0000001E-02  0.0000000E+00
  5.9999999E-02  0.0000000E+00
  7.0000000E-02  0.0000000E+00
  7.9999998E-02  0.0000000E+00
  9.0000004E-02  0.0000000E+00
  0.1000000      0.0000000E+00
  0.1100000      0.0000000E+00
  0.1200000      0.0000000E+00
  0.1300000      0.0000000E+00
  0.1400000      0.0000000E+00
  0.1500000      0.0000000E+00
  0.1600000      0.0000000E+00
  0.1700000      0.0000000E+00
  0.1800000      0.0000000E+00
  0.1900000      0.0000000E+00
  0.2000000      0.0000000E+00
  0.2100000      0.0000000E+00
  0.2200000      0.0000000E+00
  0.2300000      0.0000000E+00
  0.2400000      0.0000000E+00
  0.2500000      0.0000000E+00
  0.2600000      0.0000000E+00
  0.2700000      1.2122072E-38
  0.2800000      1.3938506E-38
  0.2900000      1.5099645E-38
  0.3000000      1.5867305E-38
  0.3100000      1.7346466E-38
  0.3200000      1.9295004E-38
  0.3300000      2.0644799E-38
  0.3400000      2.1098936E-38
  0.3500000      2.1073916E-38
  0.3600000      2.1243445E-38
  0.3700000      2.1629693E-38
  0.3800000      1.6064298E-38
  0.3900000      0.0000000E+00
  0.4000000     -1.6452487E-38
  0.4100000     -4.0646551E-38
  0.4200000     -6.9277416E-38
  0.4300000     -1.0260671E-37
  0.4400000     -1.4549422E-37
  0.4500000     -1.9666098E-37
  0.4600000     -2.5268972E-37
  0.4700000     -3.1414269E-37
  0.4800000     -3.7124020E-37
  0.4900000     -4.1573714E-37
  0.5000000     -4.4644961E-37
  0.5100000     -4.4901477E-37
  0.5200000     -4.1474130E-37
  0.5300000     -3.4865622E-37
  0.5400000     -2.5346388E-37
  0.5500000     -1.1849097E-37
  0.5600000      5.7800445E-38
  0.5700000      2.7275317E-37
  0.5800000      5.1901575E-37
  0.5900000      7.6230735E-37
  0.6000000      1.0116835E-36
  0.6100000      1.2848154E-36
  0.6200000      1.5743108E-36
  0.6300000      1.8819450E-36
  0.6400000      2.1886890E-36
  0.6500000      2.5396742E-36
  0.6600000      2.9349145E-36
  0.6700000      3.3984120E-36
  0.6800000      4.0184885E-36
  0.6900000      4.7288576E-36
  0.7000000      5.4280593E-36
  0.7100000      5.9983244E-36
  0.7200000      6.3862985E-36
  0.7300000      6.6684903E-36
  0.7400000      6.7777990E-36
  0.7500000      6.6993191E-36
  0.7600000      6.4190271E-36
  0.7700000      5.8588270E-36
  0.7800000      5.0452420E-36
  0.7900000      3.8500547E-36
  0.8000000      2.1109022E-36
  0.8100000     -1.0714213E-37
  0.8200000     -2.6962564E-36
  0.8300000     -5.7350740E-36
  0.8400000     -9.2835556E-36
  0.8500000     -1.3012095E-35
  0.8600000     -1.6589487E-35
  0.8700000     -2.0093109E-35
  0.8800000     -2.3640018E-35
  0.8900000     -2.7173409E-35
  0.9000000     -3.0695567E-35
  0.9100000     -3.4318365E-35
  0.9200000     -3.7675113E-35
  0.9300000     -4.0495935E-35
  0.9400000     -4.3287668E-35
  0.9500000     -4.6072187E-35
  0.9600000     -4.8556716E-35
  0.9700000     -5.0629087E-35
  0.9800000     -5.2247888E-35
  0.9900000     -5.3656461E-35
   1.000000     -5.4593137E-35
   1.010000     -5.4450804E-35
   1.020000     -5.3276854E-35
   1.030000     -5.1219119E-35
   1.040000     -4.8785306E-35
   1.050000     -4.6240151E-35
   1.060000     -4.3072524E-35
   1.070000     -3.9115788E-35
   1.080000     -3.3728589E-35
   1.090000     -2.7075211E-35
   1.100000     -1.9588513E-35
   1.110000     -1.0968266E-35
   1.120000     -1.3278919E-36
   1.130000      9.3403006E-36
   1.140000      2.1394969E-35
   1.150000      3.4842755E-35
   1.160000      4.9515869E-35
   1.170000      6.6290879E-35
   1.180000      8.2739724E-35
   1.190000      9.7851410E-35
   1.200000      1.1391986E-34
   1.210000      1.3120692E-34
   1.220000      1.5036546E-34
   1.230000      1.7297209E-34
   1.240000      1.9745518E-34
   1.250000      2.2117179E-34
   1.260000      2.3877153E-34
   1.270000      2.5007361E-34
   1.280000      2.5964388E-34
   1.290000      2.6578485E-34
   1.300000      2.6813850E-34
   1.310000      2.6891298E-34
   1.320000      2.7299059E-34
   1.330000      2.7852891E-34
   1.340000      2.7989852E-34
   1.350000      2.7974552E-34
   1.360000      2.7975505E-34
   1.370000      2.7805031E-34
   1.380000      2.7370215E-34
   1.390000      2.6705269E-34
   1.400000      2.5803318E-34
   1.410000      2.4613630E-34
   1.420000      2.3441302E-34
   1.430000      2.2095478E-34
   1.440000      2.0078419E-34
   1.450000      1.7530224E-34
   1.460000      1.4411422E-34
   1.470000      1.0571764E-34
   1.480000      6.0827826E-35
   1.490000      7.8079543E-36
   1.500000     -5.2538577E-35
   1.510000     -1.1678070E-34
   1.520000     -1.8651019E-34
   1.530000     -2.6261380E-34
   1.540000     -3.4049631E-34
   1.550000     -4.1753839E-34
   1.560000     -4.9790928E-34
   1.570000     -5.8276818E-34
   1.580000     -6.6748886E-34
   1.590000     -7.4971661E-34
   1.600000     -8.2747354E-34
   1.610000     -8.9438516E-34
   1.620000     -9.5030738E-34
   1.630000     -9.9781994E-34
   1.640000     -1.0302705E-33
   1.650000     -1.0480921E-33
   1.660000     -1.0525139E-33
   1.670000     -1.0372351E-33
   1.680000     -1.0010072E-33
   1.690000     -9.4498670E-34
   1.700000     -8.6829699E-34
   1.710000     -7.6790293E-34
   1.720000     -6.4352512E-34
   1.730000     -4.9643386E-34
   1.740000     -3.2559726E-34
   1.750000     -1.2839235E-34
   1.760000      9.6510336E-35
   1.770000      3.4816044E-34
   1.780000      6.2631473E-34
   1.790000      9.3103405E-34
   1.800000      1.2613321E-33
   1.810000      1.6170098E-33
   1.820000      1.9970929E-33
   1.830000      2.3990078E-33
   1.840000      2.8206194E-33
   1.850000      3.2590581E-33
   1.860000      3.7121744E-33
   1.870000      4.1775321E-33
   1.880000      4.6511505E-33
   1.890000      5.1274101E-33
   1.900000      5.6009242E-33
   1.910000      6.0661761E-33
   1.920000      6.5163786E-33
   1.930000      6.9440242E-33
   1.940000      7.3408983E-33
   1.950000      7.6977997E-33
   1.960000      8.0044134E-33
   1.970000      8.2502034E-33
   1.980000      8.4248407E-33
   1.990000      8.5170318E-33
   2.000000      8.5145934E-33
   2.010000      8.4052585E-33
   2.020000      8.1766101E-33
   2.030000      7.8164688E-33
   2.040000      7.3126526E-33
   2.050000      6.6531592E-33
   2.060000      5.8264873E-33
   2.070000      4.8217254E-33
   2.080000      3.6287753E-33
   2.090000      2.2383855E-33
   2.100000      6.4222183E-34
   2.110000     -1.1667145E-33
   2.120000     -3.1939133E-33
   2.130000     -5.4433756E-33
   2.140000     -7.9173850E-33
   2.150000     -1.0616223E-32
   2.160000     -1.3538016E-32
   2.170000     -1.6678538E-32
   2.180000     -2.0031131E-32
   2.190000     -2.3586213E-32
   2.200000     -2.7331231E-32
   2.210000     -3.1250852E-32
   2.220000     -3.5326024E-32
   2.230000     -3.9534896E-32
   2.240000     -4.3852119E-32
   2.250000     -4.8247925E-32
   2.260000     -5.2689089E-32
   2.270000     -5.7138476E-32
   2.280000     -6.1553698E-32
   2.290000     -6.5891002E-32
   2.300000     -7.0102657E-32
   2.310000     -7.4134297E-32
   2.320000     -7.7928945E-32
   2.330000     -8.1425912E-32
   2.340000     -8.4560920E-32
   2.350000     -8.7266408E-32
   2.360000     -8.9471824E-32
   2.370000     -9.1103974E-32
   2.380000     -9.2087540E-32
   2.390000     -9.2345590E-32
   2.400000     -9.1800090E-32
   2.410000     -9.0372576E-32
   2.420000     -8.7984976E-32
   2.430000     -8.4560197E-32
   2.440000     -8.0023024E-32
   2.450000     -7.4300953E-32
   2.460000     -6.7325069E-32
   2.470000     -5.9030975E-32
   2.480000     -4.9359713E-32
   2.490000     -3.8258741E-32
   2.500000     -2.5682994E-32
   2.510000     -1.1595874E-32
   2.520000      4.0297603E-33
   2.530000      2.1210495E-32
   2.540000      3.9951247E-32
   2.550000      6.0244180E-32
   2.560000      8.2067608E-32
   2.570000      1.0538497E-31
   2.580000      1.3014351E-31
   2.590000      1.5627329E-31
   2.600000      1.8368611E-31
   2.610000      2.1227446E-31
   2.620000      2.4191039E-31
   2.630000      2.7244456E-31
   2.640000      3.0370549E-31
   2.650000      3.3549878E-31
   2.660000      3.6760635E-31
   2.670000      3.9978591E-31
   2.680000      4.3177078E-31
   2.690000      4.6326952E-31
   2.700000      4.9396624E-31
   2.710000      5.2352080E-31
   2.720000      5.5156917E-31
   2.730000      5.7772444E-31
   2.740000      6.0157809E-31
   2.750000      6.2270106E-31
   2.760000      6.4064593E-31
   2.770000      6.5494873E-31
   2.780000      6.6513138E-31
   2.790000      6.7070477E-31
   2.800000      6.7117149E-31
   2.810000      6.6602964E-31
   2.820000      6.5477612E-31
   2.830000      6.3691119E-31
   2.840000      6.1194256E-31
   2.850000      5.7939002E-31
   2.860000      5.3879033E-31
   2.870000      4.8970225E-31
   2.880000      4.3171224E-31
   2.890000      3.6443943E-31
   2.900000      2.8754151E-31
   2.910000      2.0072067E-31
   2.920000      1.0372971E-31
   2.930000     -3.6221455E-33
   2.940000     -1.2146295E-31
   2.950000     -2.4985151E-31
   2.960000     -3.8877082E-31
   2.970000     -5.3812142E-31
   2.980000     -6.9771486E-31
   2.990000     -8.6726722E-31
   3.000000     -1.0463926E-30
   3.010000     -1.2345969E-30
   3.020000     -1.4312702E-30
   3.030000     -1.6356812E-30
   3.040000     -1.8469717E-30
   3.050000     -2.0641504E-30
   3.060000     -2.2860877E-30
   3.070000     -2.5115116E-30
   3.080000     -2.7390034E-30
   3.090000     -2.9669946E-30
   3.100000     -3.1937644E-30
   3.110000     -3.4174389E-30
   3.120000     -3.6359917E-30
   3.130000     -3.8472429E-30
   3.140000     -4.0488626E-30
   3.150000     -4.2383752E-30
   3.160000     -4.4131643E-30
   3.170000     -4.5704793E-30
   3.180000     -4.7074445E-30
   3.190000     -4.8210698E-30
   3.200000     -4.9082603E-30
   3.210000     -4.9658317E-30
   3.220000     -4.9905253E-30
   3.230000     -4.9790254E-30
   3.240000     -4.9279766E-30
   3.250000     -4.8340037E-30
   3.260000     -4.6937365E-30
   3.270000     -4.5038301E-30
   3.280000     -4.2609899E-30
   3.290000     -3.9620001E-30
   3.300000     -3.6037505E-30
   3.310000     -3.1832643E-30
   3.320000     -2.6977293E-30
   3.330000     -2.1445315E-30
   3.340000     -1.5212879E-30
   3.350000     -8.2588033E-31
   3.360000     -5.6491055E-32
   3.370000      7.8835991E-31
   3.380000      1.7097735E-30
   3.390000      2.7084364E-30
   3.400000      3.7845814E-30
   3.410000      4.9379414E-30
   3.420000      6.1677109E-30
   3.430000      7.4725029E-30
   3.440000      8.8503041E-30
   3.450000      1.0298439E-29
   3.460000      1.1813521E-29
   3.470000      1.3391415E-29
   3.480000      1.5027198E-29
   3.490000      1.6715122E-29
   3.500000      1.8448572E-29
   3.510000      2.0220041E-29
   3.520000      2.2021095E-29
   3.530000      2.3842346E-29
   3.540000      2.5673429E-29
   3.550000      2.7502993E-29
   3.560000      2.9318675E-29
   3.570000      3.1107109E-29
   3.580000      3.2853900E-29
   3.590000      3.4543666E-29
   3.600000      3.6160018E-29
   3.610000      3.7685589E-29
   3.620000      3.9102071E-29
   3.630000      4.0390227E-29
   3.640000      4.1529956E-29
   3.650000      4.2500333E-29
   3.660000      4.3279654E-29
   3.670000      4.3845523E-29
   3.680000      4.4174911E-29
   3.690000      4.4244238E-29
   3.700000      4.4029485E-29
   3.710000      4.3506282E-29
   3.720000      4.2650001E-29
   3.730000      4.1435910E-29
   3.740000      3.9839278E-29
   3.750000      3.7835517E-29
   3.760000      3.5400344E-29
   3.770000      3.2509941E-29
   3.780000      2.9141114E-29
   3.790000      2.5271499E-29
   3.800000      2.0879739E-29
   3.810000      1.5945687E-29
   3.820000      1.0450640E-29
   3.830000      4.3775436E-30
   3.840000     -2.2887417E-30
   3.850000     -9.5612228E-30
   3.860000     -1.7450502E-29
   3.870000     -2.5964497E-29
   3.880000     -3.5108213E-29
   3.890000     -4.4883406E-29
   3.900000     -5.5288309E-29
   3.910000     -6.6317412E-29
   3.920000     -7.7961121E-29
   3.930000     -9.0205455E-29
   3.940000     -1.0303176E-28
   3.950000     -1.1641646E-28
   3.960000     -1.3033075E-28
   3.970000     -1.4474033E-28
   3.980000     -1.5960517E-28
   3.990000     -1.7487919E-28
   4.000000     -1.9051007E-28
   4.010000     -2.0643901E-28
   4.020000     -2.2260055E-28
   4.030000     -2.3892220E-28
   4.040000     -2.5532458E-28
   4.050000     -2.7172101E-28
   4.060000     -2.8801743E-28
   4.070000     -3.0411243E-28
   4.080000     -3.1989687E-28
   4.090000     -3.3525418E-28
   4.100000     -3.5006011E-28
   4.110000     -3.6418283E-28
   4.120000     -3.7748297E-28
   4.130000     -3.8981366E-28
   4.140000     -4.0102067E-28
   4.150000     -4.1094265E-28
   4.160000     -4.1941130E-28
   4.170000     -4.2625173E-28
   4.180000     -4.3128254E-28
   4.190000     -4.3431646E-28
   4.200000     -4.3516074E-28
   4.210000     -4.3361764E-28
   4.220000     -4.2948512E-28
   4.230000     -4.2255726E-28
   4.240000     -4.1262505E-28
   4.250000     -3.9947726E-28
   4.260000     -3.8290135E-28
   4.270000     -3.6268451E-28
   4.280000     -3.3861443E-28
   4.290000     -3.1048066E-28
   4.300000     -2.7807554E-28
   4.310000     -2.4119569E-28
   4.320000     -1.9964344E-28
   4.330000     -1.5322795E-28
   4.340000     -1.0176710E-28
   4.350000     -4.5088834E-29
   4.360000      1.6967119E-29
   4.370000      8.4547632E-29
   4.380000      1.5778398E-28
   4.390000      2.3679029E-28
   4.400000      3.2166160E-28
   4.410000      4.1247179E-28
   4.420000      5.0927158E-28
   4.430000      6.1208634E-28
   4.440000      7.2091366E-28
   4.450000      8.3572196E-28
   4.460000      9.5644734E-28
   4.470000      1.0829917E-27
   4.480000      1.2152207E-27
   4.490000      1.3529606E-27
   4.500000      1.4959966E-27
   4.510000      1.6440701E-27
   4.520000      1.7968768E-27
   4.530000      1.9540637E-27
   4.540000      2.1152273E-27
   4.550000      2.2799111E-27
   4.560000      2.4476031E-27
   4.570000      2.6177336E-27
   4.580000      2.7896735E-27
   4.590000      2.9627326E-27
   4.600000      3.1361570E-27
   4.610000      3.3091271E-27
   4.620000      3.4807563E-27
   4.630000      3.6500906E-27
   4.640000      3.8161058E-27
   4.650000      3.9777079E-27
   4.660000      4.1337301E-27
   4.670000      4.2829354E-27
   4.680000      4.4240140E-27
   4.690000      4.5555835E-27
   4.700000      4.6761914E-27
   4.710000      4.7843135E-27
   4.720000      4.8783559E-27
   4.730000      4.9566565E-27
   4.740000      5.0174862E-27
   4.750000      5.0590532E-27
   4.760000      5.0795035E-27
   4.770000      5.0769258E-27
   4.780000      5.0493538E-27
   4.790000      4.9947722E-27
   4.800000      4.9111206E-27
   4.810000      4.7962990E-27
   4.820000      4.6481730E-27
   4.830000      4.4645814E-27
   4.840000      4.2433433E-27
   4.850000      3.9822665E-27
   4.860000      3.6791552E-27
   4.870000      3.3318187E-27
   4.880000      2.9380841E-27
   4.890000      2.4958038E-27
   4.900000      2.0028678E-27
   4.910000      1.4572185E-27
   4.920000      8.5686058E-28
   4.930000      1.9987669E-28
   4.940000     -5.1555859E-28
   4.950000     -1.2911630E-27
   4.960000     -2.1285308E-27
   4.970000     -3.0291151E-27
   4.980000     -3.9942085E-27
   4.990000     -5.0249296E-27
   5.000000     -6.1221985E-27
   5.010000     -7.2867174E-27
   5.020000     -8.5189574E-27
   5.030000     -9.8191266E-27
   5.040000     -1.1187152E-26
   5.050000     -1.2622660E-26
   5.060000     -1.4124950E-26
   5.070000     -1.5692978E-26
   5.080000     -1.7325318E-26
   5.090000     -1.9020154E-26
   5.100000     -2.0775251E-26
   5.110000     -2.2587924E-26
   5.120000     -2.4455022E-26
   5.130000     -2.6372896E-26
   5.140000     -2.8337381E-26
   5.150000     -3.0343772E-26
   5.160000     -3.2386795E-26
   5.170000     -3.4460587E-26
   5.180000     -3.6558680E-26
   5.190000     -3.8673955E-26
   5.200000     -4.0798657E-26
   5.210000     -4.2924341E-26
   5.220000     -4.5041872E-26
   5.230000     -4.7141409E-26
   5.240000     -4.9212379E-26
   5.250000     -5.1243458E-26
   5.260000     -5.3222578E-26
   5.270000     -5.5136909E-26
   5.280000     -5.6972829E-26
   5.290000     -5.8715953E-26
   5.300000     -6.0351126E-26
   5.310000     -6.1862386E-26
   5.320000     -6.3233007E-26
   5.330000     -6.4445499E-26
   5.340000     -6.5481606E-26
   5.350000     -6.6322340E-26
   5.360000     -6.6947975E-26
   5.370000     -6.7338104E-26
   5.380000     -6.7471618E-26
   5.390000     -6.7326807E-26
   5.400000     -6.6881347E-26
   5.410000     -6.6112356E-26
   5.420000     -6.4996444E-26
   5.430000     -6.3509805E-26
   5.440000     -6.1628217E-26
   5.450000     -5.9327141E-26
   5.460000     -5.6581837E-26
   5.470000     -5.3367371E-26
   5.480000     -4.9658757E-26
   5.490000     -4.5431033E-26
   5.500000     -4.0659367E-26
   5.510000     -3.5319182E-26
   5.520000     -2.9386252E-26
   5.530000     -2.2836850E-26
   5.540000     -1.5647870E-26
   5.550000     -7.7969718E-27
   5.560000      7.3724940E-28
   5.570000      9.9751469E-27
   5.580000      1.9935823E-26
   5.590000      3.0636948E-26
   5.600000      4.2094610E-26
   5.610000      5.4323094E-26
   5.620000      6.7334714E-26
   5.630000      8.1139601E-26
   5.640000      9.5745459E-26
   5.650000      1.1115738E-25
   5.660000      1.2737762E-25
   5.670000      1.4440535E-25
   5.680000      1.6223641E-25
   5.690000      1.8086309E-25
   5.700000      2.0027390E-25
   5.710000      2.2045327E-25
   5.720000      2.4138135E-25
   5.730000      2.6303371E-25
   5.740000      2.8538121E-25
   5.750000      3.0838957E-25
   5.760000      3.3201916E-25
   5.770000      3.5622481E-25
   5.780000      3.8095565E-25
   5.790000      4.0615463E-25
   5.800000      4.3175841E-25
   5.810000      4.5769710E-25
   5.820000      4.8389413E-25
   5.830000      5.1026590E-25
   5.840000      5.3672168E-25
   5.850000      5.6316336E-25
   5.860000      5.8948519E-25
   5.870000      6.1557390E-25
   5.880000      6.4130817E-25
   5.890000      6.6655902E-25
   5.900000      6.9118913E-25
   5.910000      7.1505316E-25
   5.920000      7.3799762E-25
   5.930000      7.5986080E-25
   5.940000      7.8047275E-25
   5.950000      7.9965538E-25
   5.960000      8.1722262E-25
   5.970000      8.3298052E-25
   5.980000      8.4672701E-25
   5.990000      8.5825256E-25
   6.000000      8.6734054E-25
   6.010000      8.7376660E-25
   6.020000      8.7730020E-25
   6.030000      8.7770429E-25
   6.040000      8.7473571E-25
   6.050000      8.6814626E-25
   6.060000      8.5768241E-25
   6.070000      8.4308661E-25
   6.080000      8.2409769E-25
   6.090000      8.0045154E-25
   6.100000      7.7188205E-25
   6.110000      7.3812201E-25
   6.120000      6.9890369E-25
   6.130000      6.5396007E-25
   6.140000      6.0302613E-25
   6.150000      5.4583973E-25
   6.160000      4.8214276E-25
   6.170000      4.1168274E-25
   6.180000      3.3421377E-25
   6.190000      2.4949854E-25
   6.200000      1.5730946E-25
   6.210000      5.7429715E-26
   6.220000     -5.0344447E-26
   6.230000     -1.6620207E-25
   6.240000     -2.9031558E-25
   6.250000     -4.2283921E-25
   6.260000     -5.6390696E-25
   6.270000     -7.1363099E-25
   6.280000     -8.7209904E-25
   6.290000     -1.0393725E-24
   6.300000     -1.2154851E-24
   6.310000     -1.4004399E-24
   6.320000     -1.5942066E-24
   6.330000     -1.7967206E-24
   6.340000     -2.0078796E-24
   6.350000     -2.2275412E-24
   6.360000     -2.4555226E-24
   6.370000     -2.6915958E-24
   6.380000     -2.9354859E-24
   6.390000     -3.1868705E-24
   6.400000     -3.4453752E-24
   6.410000     -3.7105733E-24
   6.420000     -3.9819809E-24
   6.430000     -4.2590577E-24
   6.440000     -4.5412032E-24
   6.450000     -4.8277542E-24
   6.460000     -5.1179844E-24
   6.470000     -5.4111022E-24
   6.480000     -5.7062478E-24
   6.490000     -6.0024935E-24
   6.500000     -6.2988402E-24
   6.510000     -6.5942173E-24
   6.520000     -6.8874822E-24
   6.530000     -7.1774154E-24
   6.540000     -7.4627259E-24
   6.550000     -7.7420466E-24
   6.560000     -8.0139338E-24
   6.570000     -8.2768690E-24
   6.580000     -8.5292588E-24
   6.590000     -8.7694362E-24
   6.600000     -8.9956570E-24
   6.610000     -9.2061085E-24
   6.620000     -9.3989046E-24
   6.630000     -9.5720895E-24
   6.640000     -9.7236407E-24
   6.650000     -9.8514709E-24
   6.660000     -9.9534312E-24
   6.670000     -1.0027315E-23
   6.680000     -1.0070861E-23
   6.690000     -1.0081760E-23
   6.700000     -1.0057655E-23
   6.710000     -9.9961519E-24
   6.720000     -9.8948196E-24
   6.730000     -9.7511996E-24
   6.740000     -9.5628172E-24
   6.750000     -9.3271813E-24
   6.760000     -9.0417951E-24
   6.770000     -8.7041634E-24
   6.780000     -8.3118053E-24
   6.790000     -7.8622611E-24
   6.800000     -7.3531011E-24
   6.810000     -6.7819398E-24
   6.820000     -6.1464452E-24
   6.830000     -5.4443508E-24
   6.840000     -4.6734652E-24
   6.850000     -3.8316911E-24
   6.860000     -2.9170331E-24
   6.870000     -1.9276163E-24
   6.880000     -8.6169821E-25
   6.890000      2.8231870E-25
   6.900000      1.5058673E-24
   6.910000      2.8102036E-24
   6.920000      4.1963906E-24
   6.930000      5.6652748E-24
   6.940000      7.2174762E-24
   6.950000      8.8533725E-24
   6.960000      1.0573074E-23
   6.970000      1.2376411E-23
   6.980000      1.4262914E-23
   6.990000      1.6231806E-23
   7.000000      1.8281965E-23
   7.010000      2.0411918E-23
   7.020000      2.2619817E-23
   7.030000      2.4903430E-23
   7.040000      2.7260111E-23
   7.050000      2.9686805E-23
   7.060000      3.2180000E-23