  -2.600000      0.0000000E+00
  -2.590000      0.0000000E+00
  -2.580000      0.0000000E+00
  -2.570000      0.0000000E+00
  -2.560000      0.0000000E+00
  -2.550000      0.0000000E+00
  -2.540000      0.0000000E+00
  -2.530000      0.0000000E+00
  -2.520000      0.0000000E+00
  -2.510000      0.0000000E+00
  -2.500000      0.0000000E+00
  -2.490000      0.0000000E+00
  -2.480000      0.0000000E+00
  -2.470000      0.0000000E+00
  -2.460000      0.0000000E+00
  -2.450000      0.0000000E+00
  -2.440000      0.0000000E+00
  -2.430000      0.0000000E+00
  -2.420000      0.0000000E+00
  -2.410000      0.0000000E+00
  -2.400000      0.0000000E+00
  -2.390000      0.0000000E+00
  -2.380000      0.0000000E+00
  -2.370000      0.0000000E+00
  -2.360000      0.0000000E+00
  -2.350000      0.0000000E+00
  -2.340000      0.0000000E+00
  -2.330000      0.0000000E+00
  -2.320000      0.0000000E+00
  -2.310000      0.0000000E+00
  -2.300000      0.0000000E+00
  -2.290000      0.0000000E+00
  -2.280000      0.0000000E+00
  -2.270000      0.0000000E+00
  -2.260000      0.0000000E+00
  -2.250000      0.0000000E+00
  -2.240000      0.0000000E+00
  -2.230000      0.0000000E+00
  -2.220000      0.0000000E+00
  -2.210000      0.0000000E+00
  -2.200000      0.0000000E+00
  -2.190000      0.0000000E+00
  -2.180000      0.0000000E+00
  -2.170000      0.0000000E+00
  -2.160000      0.0000000E+00
  -2.150000      0.0000000E+00
  -2.140000      0.0000000E+00
  -2.130000      0.0000000E+00
  -2.120000      0.0000000E+00
  -2.110000      0.0000000E+00
  -2.100000      0.0000000E+00
  -2.090000      0.0000000E+00
  -2.080000      0.0000000E+00
  -2.070000      0.0000000E+00
  -2.060000      0.0000000E+00
  -2.050000      0.0000000E+00
  -2.040000      0.0000000E+00
  -2.030000      0.0000000E+00
  -2.020000      0.0000000E+00
  -2.010000      0.0000000E+00
  -2.000000      0.0000000E+00
  -1.990000      0.0000000E+00
  -1.980000      0.0000000E+00
  -1.970000      0.0000000E+00
  -1.960000      0.0000000E+00
  -1.950000      0.0000000E+00
  -1.940000      0.0000000E+00
  -1.930000      0.0000000E+00
  -1.920000      0.0000000E+00
  -1.910000      0.0000000E+00
  -1.900000      0.0000000E+00
  -1.890000      0.0000000E+00
  -1.880000      0.0000000E+00
  -1.870000      0.0000000E+00
  -1.860000      0.0000000E+00
  -1.850000      0.0000000E+00
  -1.840000      0.0000000E+00
  -1.830000      0.0000000E+00
  -1.820000      0.0000000E+00
  -1.810000      0.0000000E+00
  -1.800000      0.0000000E+00
  -1.790000      0.0000000E+00
  -1.780000      0.0000000E+00
  -1.770000      0.0000000E+00
  -1.760000      0.0000000E+00
  -1.750000      0.0000000E+00
  -1.740000      0.0000000E+00
  -1.730000      0.0000000E+00
  -1.720000      0.0000000E+00
  -1.710000      0.0000000E+00
  -1.700000      0.0000000E+00
  -1.690000      0.0000000E+00
  -1.680000      0.0000000E+00
  -1.670000      0.0000000E+00
  -1.660000      0.0000000E+00
  -1.650000      0.0000000E+00
  -1.640000      0.0000000E+00
  -1.630000      0.0000000E+00
  -1.620000      0.0000000E+00
  -1.610000      0.0000000E+00
  -1.600000      0.0000000E+00
  -1.590000      0.0000000E+00
  -1.580000      0.0000000E+00
  -1.570000      0.0000000E+00
  -1.560000      0.0000000E+00
  -1.550000      0.0000000E+00
  -1.540000      0.0000000E+00
  -1.530000      0.0000000E+00
  -1.520000      0.0000000E+00
  -1.510000      0.0000000E+00
  -1.500000      0.0000000E+00
  -1.490000      0.0000000E+00
  -1.480000      0.0000000E+00
  -1.470000      0.0000000E+00
  -1.460000      0.0000000E+00
  -1.450000      0.0000000E+00
  -1.440000      0.0000000E+00
  -1.430000      0.0000000E+00
  -1.420000      0.0000000E+00
  -1.410000      0.0000000E+00
  -1.400000      0.0000000E+00
  -1.390000      0.0000000E+00
  -1.380000      0.0000000E+00
  -1.370000      0.0000000E+00
  -1.360000      0.0000000E+00
  -1.350000      0.0000000E+00
  -1.340000      0.0000000E+00
  -1.330000      0.0000000E+00
  -1.320000      0.0000000E+00
  -1.310000      0.0000000E+00
  -1.300000      0.0000000E+00
  -1.290000      0.0000000E+00
  -1.280000      0.0000000E+00
  -1.270000      0.0000000E+00
  -1.260000      0.0000000E+00
  -1.250000      0.0000000E+00
  -1.240000      0.0000000E+00
  -1.230000      0.0000000E+00
  -1.220000      0.0000000E+00
  -1.210000      0.0000000E+00
  -1.200000      0.0000000E+00
  -1.190000      0.0000000E+00
  -1.180000      0.0000000E+00
  -1.170000      0.0000000E+00
  -1.160000      0.0000000E+00
  -1.150000      0.0000000E+00
  -1.140000      0.0000000E+00
  -1.130000      0.0000000E+00
  -1.120000      0.0000000E+00
  -1.110000      0.0000000E+00
  -1.100000      0.0000000E+00
  -1.090000      0.0000000E+00
  -1.080000      0.0000000E+00
  -1.070000      0.0000000E+00
  -1.060000      0.0000000E+00
  -1.050000      0.0000000E+00
  -1.040000      0.0000000E+00
  -1.030000      0.0000000E+00
  -1.020000      0.0000000E+00
  -1.010000      0.0000000E+00
  -1.000000      0.0000000E+00
 -0.9900000      0.0000000E+00
 -0.9800000      0.0000000E+00
 -0.9700000      0.0000000E+00
 -0.9600000      0.0000000E+00
 -0.9500000      0.0000000E+00
 -0.9400000      0.0000000E+00
 -0.9300000      0.0000000E+00
 -0.9200000      0.0000000E+00
 -0.9100000      0.0000000E+00
 -0.9000000      0.0000000E+00
 -0.8900000      0.0000000E+00
 -0.8800000      0.0000000E+00
 -0.8700000      0.0000000E+00
 -0.8600000      0.0000000E+00
 -0.8500000      0.0000000E+00
 -0.8400000      0.0000000E+00
 -0.8300000      0.0000000E+00
 -0.8200000      0.0000000E+00
 -0.8100000      0.0000000E+00
 -0.8000000      0.0000000E+00
 -0.7900000      0.0000000E+00
 -0.7800000      0.0000000E+00
 -0.7700000      0.0000000E+00
 -0.7600000      0.0000000E+00
 -0.7500000      0.0000000E+00
 -0.7400000      0.0000000E+00
 -0.7300000      0.0000000E+00
 -0.7200000      0.0000000E+00
 -0.7100000      0.0000000E+00
 -0.7000000      0.0000000E+00
 -0.6900000      0.0000000E+00
 -0.6800000      0.0000000E+00
 -0.6700000      0.0000000E+00
 -0.6600000      0.0000000E+00
 -0.6500000      0.0000000E+00
 -0.6400000      0.0000000E+00
 -0.6300000      0.0000000E+00
 -0.6200000      0.0000000E+00
 -0.6100000      0.0000000E+00
 -0.6000000      0.0000000E+00
 -0.5900000      0.0000000E+00
 -0.5800000      0.0000000E+00
 -0.5700000      0.0000000E+00
 -0.5600000      0.0000000E+00
 -0.5500000      0.0000000E+00
 -0.5400000      0.0000000E+00
 -0.5300000      0.0000000E+00
 -0.5200000      0.0000000E+00
 -0.5100000      0.0000000E+00
 -0.5000000      0.0000000E+00
 -0.4900000      0.0000000E+00
 -0.4800000      0.0000000E+00
 -0.4700000      0.0000000E+00
 -0.4600000      0.0000000E+00
 -0.4500000      0.0000000E+00
 -0.4400000      0.0000000E+00
 -0.4300000      0.0000000E+00
 -0.4200000      0.0000000E+00
 -0.4100000      0.0000000E+00
 -0.4000000      0.0000000E+00
 -0.3900000      0.0000000E+00
 -0.3800000      0.0000000E+00
 -0.3700000      0.0000000E+00
 -0.3600000      0.0000000E+00
 -0.3500000      0.0000000E+00
 -0.3400000      0.0000000E+00
 -0.3300000      0.0000000E+00
 -0.3200000      0.0000000E+00
 -0.3100000      0.0000000E+00
 -0.3000000      0.0000000E+00
 -0.2900000      0.0000000E+00
 -0.2800000      0.0000000E+00
 -0.2700000      0.0000000E+00
 -0.2600000      0.0000000E+00
 -0.2500000      0.0000000E+00
 -0.2400000      0.0000000E+00
 -0.2300000      0.0000000E+00
 -0.2200000      0.0000000E+00
 -0.2100000      0.0000000E+00
 -0.2000000      0.0000000E+00
 -0.1900000      0.0000000E+00
 -0.1800000      0.0000000E+00
 -0.1700000      0.0000000E+00
 -0.1600000      0.0000000E+00
 -0.1500000      0.0000000E+00
 -0.1400000      0.0000000E+00
 -0.1300000      0.0000000E+00
 -0.1200000      0.0000000E+00
 -0.1100000      0.0000000E+00
 -0.1000000      0.0000000E+00
 -9.0000004E-02  0.0000000E+00
 -7.9999998E-02  0.0000000E+00
 -7.0000000E-02  0.0000000E+00
 -5.9999999E-02  0.0000000E+00
 -5.0000001E-02  0.0000000E+00
 -3.9999999E-02  0.0000000E+00
 -2.9999999E-02  0.0000000E+00
 -2.0000000E-02  0.0000000E+00
 -9.9999998E-03  0.0000000E+00
 -3.4694470E-17  0.0000000E+00
  9.9999998E-03  0.0000000E+00
  2.0000000E-02  0.0000000E+00
  2.9999999E-02  0.0000000E+00
  3.9999999E-02  0.0000000E+00
  5.0000001E-02  0.0000000E+00
  5.9999999E-02  0.0000000E+00
  7.0000000E-02  0.0000000E+00
  7.9999998E-02  0.0000000E+00
  9.0000004E-02  0.0000000E+00
  0.1000000      0.0000000E+00
  0.1100000      0.0000000E+00
  0.1200000      0.0000000E+00
  0.1300000      0.0000000E+00
  0.1400000      0.0000000E+00
  0.1500000      0.0000000E+00
  0.1600000      0.0000000E+00
  0.1700000      0.0000000E+00
  0.1800000      0.0000000E+00
  0.1900000      0.0000000E+00
  0.2000000      0.0000000E+00
  0.2100000      0.0000000E+00
  0.2200000      0.0000000E+00
  0.2300000      0.0000000E+00
  0.2400000      0.0000000E+00
  0.2500000      0.0000000E+00
  0.2600000      1.4504063E-38
  0.2700000      2.0970751E-38
  0.2800000      2.6991293E-38
  0.2900000      3.2306345E-38
  0.3000000      4.0563919E-38
  0.3100000      5.1846519E-38
  0.3200000      6.3358017E-38
  0.3300000      7.3936986E-38
  0.3400000      7.4021361E-38
  0.3500000      6.5769254E-38
  0.3600000      5.8074842E-38
  0.3700000      2.9962993E-38
  0.3800000      0.0000000E+00
  0.3900000      0.0000000E+00
  0.4000000      1.2012271E-38
  0.4100000      4.2431788E-38
  0.4200000      7.3255035E-38
  0.4300000      1.1251142E-37
  0.4400000      1.5683053E-37
  0.4500000      2.0090051E-37
  0.4600000      2.5064046E-37
  0.4700000      2.6635516E-37
  0.4800000      1.9615313E-37
  0.4900000      3.9749857E-38
  0.5000000     -1.6465556E-37
  0.5100000     -3.8991128E-37
  0.5200000     -6.2858518E-37
  0.5300000     -8.7675653E-37
  0.5400000     -1.0797390E-36
  0.5500000     -1.2418886E-36
  0.5600000     -1.4257300E-36
  0.5700000     -1.6412343E-36
  0.5800000     -1.8959176E-36
  0.5900000     -2.1554517E-36
  0.6000000     -2.3914941E-36
  0.6100000     -2.6398486E-36
  0.6200000     -2.8258781E-36
  0.6300000     -2.9254712E-36
  0.6400000     -2.9951830E-36
  0.6500000     -2.9856418E-36
  0.6600000     -2.9166354E-36
  0.6700000     -2.8253138E-36
  0.6800000     -2.7173515E-36
  0.6900000     -2.8971624E-36
  0.7000000     -3.4564979E-36
  0.7100000     -4.1091882E-36
  0.7200000     -4.7265699E-36
  0.7300000     -5.2653566E-36
  0.7400000     -5.4955706E-36
  0.7500000     -5.4318077E-36
  0.7600000     -5.3222286E-36
  0.7700000     -4.9144252E-36
  0.7800000     -4.0499429E-36
  0.7900000     -2.4782289E-36
  0.8000000      1.8683606E-38
  0.8100000      3.5381770E-36
  0.8200000      7.7980397E-36
  0.8300000      1.2215972E-35
  0.8400000      1.6770291E-35
  0.8500000      2.1320631E-35
  0.8600000      2.5732495E-35
  0.8700000      2.9786045E-35
  0.8800000      3.3476862E-35
  0.8900000      3.7006367E-35
  0.9000000      4.0662212E-35
  0.9100000      4.3774110E-35
  0.9200000      4.4387399E-35
  0.9300000      4.2954656E-35
  0.9400000      4.1309173E-35
  0.9500000      3.9078894E-35
  0.9600000      3.7808183E-35
  0.9700000      3.7857160E-35
  0.9800000      3.6875817E-35
  0.9900000      3.6285404E-35
   1.000000      3.7170991E-35
   1.010000      3.8082596E-35
   1.020000      4.0182119E-35
   1.030000      4.5319718E-35
   1.040000      5.2536659E-35
   1.050000      6.0372162E-35
   1.060000      6.7073007E-35
   1.070000      7.1342405E-35
   1.080000      7.1769767E-35
   1.090000      6.8322096E-35
   1.100000      6.0309851E-35
   1.110000      4.7443842E-35
   1.120000      3.0871119E-35
   1.130000      1.0257713E-35
   1.140000     -1.3598266E-35
   1.150000     -4.4319452E-35
   1.160000     -7.9321940E-35
   1.170000     -1.1258710E-34
   1.180000     -1.4126879E-34
   1.190000     -1.5439799E-34
   1.200000     -1.5229014E-34
   1.210000     -1.4432135E-34
   1.220000     -1.3428466E-34
   1.230000     -1.2452340E-34
   1.240000     -1.1651664E-34
   1.250000     -1.1677876E-34
   1.260000     -1.2855288E-34
   1.270000     -1.4850267E-34
   1.280000     -1.7793659E-34
   1.290000     -2.1760611E-34
   1.300000     -2.6263751E-34
   1.310000     -3.0742454E-34
   1.320000     -3.4522970E-34
   1.330000     -3.6948331E-34
   1.340000     -3.8447532E-34
   1.350000     -4.0222078E-34
   1.360000     -4.2179107E-34
   1.370000     -4.3582817E-34
   1.380000     -4.4693319E-34
   1.390000     -4.5287646E-34
   1.400000     -4.3929041E-34
   1.410000     -4.0375099E-34
   1.420000     -3.6491817E-34
   1.430000     -3.3373288E-34
   1.440000     -3.1816534E-34
   1.450000     -3.1596524E-34
   1.460000     -3.1183450E-34
   1.470000     -3.1833668E-34
   1.480000     -3.4351605E-34
   1.490000     -3.7274676E-34
   1.500000     -4.0128787E-34
   1.510000     -4.2977474E-34
   1.520000     -4.5682938E-34
   1.530000     -4.7720337E-34
   1.540000     -4.8495566E-34
   1.550000     -4.8239708E-34
   1.560000     -4.7010903E-34
   1.570000     -4.4543848E-34
   1.580000     -4.0891761E-34
   1.590000     -3.6072048E-34
   1.600000     -3.0331446E-34
   1.610000     -2.4418790E-34
   1.620000     -1.8747668E-34
   1.630000     -1.3482490E-34
   1.640000     -8.5048365E-35
   1.650000     -3.3947755E-35
   1.660000      2.3264883E-35
   1.670000      9.4142490E-35
   1.680000      1.8654309E-34
   1.690000      3.0585080E-34
   1.700000      4.5568553E-34
   1.710000      6.3909869E-34
   1.720000      8.5787532E-34
   1.730000      1.1113547E-33
   1.740000      1.3971985E-33
   1.750000      1.7129936E-33
   1.760000      2.0578718E-33
   1.770000      2.4269662E-33
   1.780000      2.8113613E-33
   1.790000      3.2064628E-33
   1.800000      3.6080947E-33
   1.810000      4.0143474E-33
   1.820000      4.4245189E-33
   1.830000      4.8380780E-33
   1.840000      5.2584693E-33
   1.850000      5.6890011E-33
   1.860000      6.1270770E-33
   1.870000      6.5719340E-33
   1.880000      7.0235751E-33
   1.890000      7.4769853E-33
   1.900000      7.9252226E-33
   1.910000      8.3537314E-33
   1.920000      8.7470092E-33
   1.930000      9.0918464E-33
   1.940000      9.3721577E-33
   1.950000      9.5715223E-33
   1.960000      9.6730622E-33
   1.970000      9.6624240E-33
   1.980000      9.5270526E-33
   1.990000      9.2545348E-33
   2.000000      8.8339304E-33
   2.010000      8.2563307E-33
   2.020000      7.5126270E-33
   2.030000      6.5939782E-33
   2.040000      5.4917337E-33
   2.050000      4.1952424E-33
   2.060000      2.6940892E-33
   2.070000      9.7618322E-34
   2.080000     -9.7264352E-34
   2.090000     -3.1667010E-33
   2.100000     -5.6233273E-33
   2.110000     -8.3510917E-33
   2.120000     -1.1356089E-32
   2.130000     -1.4649047E-32
   2.140000     -1.8232886E-32
   2.150000     -2.2105869E-32
   2.160000     -2.6260406E-32
   2.170000     -3.0683162E-32
   2.180000     -3.5355870E-32
   2.190000     -4.0255051E-32
   2.200000     -4.5352664E-32
   2.210000     -5.0617151E-32
   2.220000     -5.6013205E-32
   2.230000     -6.1502570E-32
   2.240000     -6.7044943E-32
   2.250000     -7.2597056E-32
   2.260000     -7.8112628E-32
   2.270000     -8.3541637E-32
   2.280000     -8.8829463E-32
   2.290000     -9.3916033E-32
   2.300000     -9.8734719E-32
   2.310000     -1.0321166E-31
   2.320000     -1.0726536E-31
   2.330000     -1.1080644E-31
   2.340000     -1.1373788E-31
   2.350000     -1.1595589E-31
   2.360000     -1.1735071E-31
   2.370000     -1.1780817E-31
   2.380000     -1.1721108E-31
   2.390000     -1.1544083E-31
   2.400000     -1.1237900E-31
   2.410000     -1.0790867E-31
   2.420000     -1.0191565E-31
   2.430000     -9.4289376E-32
   2.440000     -8.4923542E-32
   2.450000     -7.3716585E-32
   2.460000     -6.0572113E-32
   2.470000     -4.5399334E-32
   2.480000     -2.8113614E-32
   2.490000     -8.6373745E-33
   2.500000      1.3098801E-32
   2.510000      3.7154640E-32
   2.520000      6.3578275E-32
   2.530000      9.2403877E-32
   2.540000      1.2364920E-31
   2.550000      1.5731320E-31
   2.560000      1.9337332E-31
   2.570000      2.3178315E-31
   2.580000      2.7247045E-31
   2.590000      3.1533546E-31
   2.600000      3.6024976E-31
   2.610000      4.0705517E-31
   2.620000      4.5556368E-31
   2.630000      5.0555741E-31
   2.640000      5.5678827E-31
   2.650000      6.0897848E-31
   2.660000      6.6182006E-31
   2.670000      7.1497502E-31
   2.680000      7.6807501E-31
   2.690000      8.2072075E-31
   2.700000      8.7248097E-31
   2.710000      9.2289237E-31
   2.720000      9.7145815E-31
   2.730000      1.0176482E-30
   2.740000      1.0608992E-30
   2.750000      1.1006149E-30
   2.760000      1.1361682E-30
   2.770000      1.1669033E-30
   2.780000      1.1921379E-30
   2.790000      1.2111682E-30
   2.800000      1.2232728E-30
   2.810000      1.2277183E-30
   2.820000      1.2237641E-30
   2.830000      1.2106687E-30
   2.840000      1.1876957E-30
   2.850000      1.1541201E-30
   2.860000      1.1092337E-30
   2.870000      1.0523515E-30
   2.880000      9.8281813E-31
   2.890000      9.0001377E-31
   2.900000      8.0336030E-31
   2.910000      6.9232851E-31
   2.920000      5.6644515E-31
   2.930000      4.2530053E-31
   2.940000      2.6855652E-31
   2.950000      9.5955222E-32
   2.960000     -9.2671831E-32
   2.970000     -2.9739549E-31
   2.980000     -5.1817883E-31
   2.990000     -7.5486848E-31
   3.000000     -1.0071860E-30
   3.010000     -1.2747206E-30
   3.020000     -1.5569191E-30
   3.030000     -1.8530816E-30
   3.040000     -2.1623535E-30
   3.050000     -2.4837212E-30
   3.060000     -2.8160064E-30
   3.070000     -3.1578616E-30
   3.080000     -3.5077665E-30
   3.090000     -3.8640248E-30
   3.100000     -4.2247613E-30
   3.110000     -4.5879183E-30
   3.120000     -4.9512559E-30
   3.130000     -5.3123486E-30
   3.140000     -5.6685855E-30
   3.150000     -6.0171705E-30
   3.160000     -6.3551272E-30
   3.170000     -6.6792996E-30
   3.180000     -6.9863635E-30
   3.190000     -7.2728291E-30
   3.200000     -7.5350557E-30
   3.210000     -7.7692631E-30
   3.220000     -7.9715489E-30
   3.230000     -8.1379086E-30
   3.240000     -8.2642527E-30
   3.250000     -8.3464297E-30
   3.260000     -8.3802523E-30
   3.270000     -8.3615272E-30
   3.280000     -8.2860759E-30
   3.290000     -8.1497704E-30
   3.300000     -7.9485642E-30
   3.310000     -7.6785217E-30
   3.320000     -7.3358521E-30
   3.330000     -6.9169488E-30
   3.340000     -6.4184241E-30
   3.350000     -5.8371468E-30
   3.360000     -5.1702857E-30
   3.370000     -4.4153456E-30
   3.380000     -3.5702148E-30
   3.390000     -2.6332082E-30
   3.400000     -1.6031104E-30
   3.410000     -4.7922403E-31
   3.420000      7.3858623E-31
   3.430000      2.0498464E-30
   3.440000      3.4534271E-30
   3.450000      4.9474966E-30
   3.460000      6.5294780E-30
   3.470000      8.1960048E-30
   3.480000      9.9428751E-30
   3.490000      1.1765016E-29
   3.500000      1.3656432E-29
   3.510000      1.5610172E-29
   3.520000      1.7618294E-29
   3.530000      1.9671826E-29
   3.540000      2.1760736E-29
   3.550000      2.3873906E-29
   3.560000      2.5999115E-29
   3.570000      2.8123010E-29
   3.580000      3.0231088E-29
   3.590000      3.2307707E-29
   3.600000      3.4336066E-29
   3.610000      3.6298227E-29
   3.620000      3.8175121E-29
   3.630000      3.9946577E-29
   3.640000      4.1591360E-29
   3.650000      4.3087221E-29
   3.660000      4.4410939E-29
   3.670000      4.5538400E-29
   3.680000      4.6444646E-29
   3.690000      4.7103991E-29
   3.700000      4.7490107E-29
   3.710000      4.7576118E-29
   3.720000      4.7334745E-29
   3.730000      4.6738390E-29
   3.740000      4.5759292E-29
   3.750000      4.4369676E-29
   3.760000      4.2541924E-29
   3.770000      4.0248716E-29
   3.780000      3.7463216E-29
   3.790000      3.4159281E-29
   3.800000      3.0311655E-29
   3.810000      2.5896156E-29
   3.820000      2.0889938E-29
   3.830000      1.5271702E-29
   3.840000      9.0219820E-30
   3.850000      2.1233468E-30
   3.860000     -5.4392873E-30
   3.870000     -1.3678352E-29
   3.880000     -2.2603398E-29
   3.890000     -3.2220730E-29
   3.900000     -4.2533155E-29
   3.910000     -5.3539685E-29
   3.920000     -6.5235135E-29
   3.930000     -7.7609831E-29
   3.940000     -9.0649328E-29
   3.950000     -1.0433398E-28
   3.960000     -1.1863870E-28
   3.970000     -1.3353256E-28
   3.980000     -1.4897852E-28
   3.990000     -1.6493313E-28
   4.000000     -1.8134612E-28
   4.010000     -1.9816016E-28
   4.020000     -2.1531059E-28
   4.030000     -2.3272511E-28
   4.040000     -2.5032356E-28
   4.050000     -2.6801778E-28
   4.060000     -2.8571115E-28
   4.070000     -3.0329870E-28
   4.080000     -3.2066681E-28
   4.090000     -3.3769318E-28
   4.100000     -3.5424672E-28
   4.110000     -3.7018742E-28
   4.120000     -3.8536635E-28
   4.130000     -3.9962589E-28
   4.140000     -4.1279954E-28
   4.150000     -4.2471238E-28
   4.160000     -4.3518072E-28
   4.170000     -4.4401275E-28
   4.180000     -4.5100869E-28
   4.190000     -4.5596122E-28
   4.200000     -4.5865559E-28
   4.210000     -4.5887038E-28
   4.220000     -4.5637784E-28
   4.230000     -4.5094456E-28
   4.240000     -4.4233213E-28
   4.250000     -4.3029806E-28
   4.260000     -4.1459624E-28
   4.270000     -3.9497792E-28
   4.280000     -3.7119327E-28
   4.290000     -3.4299187E-28
   4.300000     -3.1012422E-28
   4.310000     -2.7234272E-28
   4.320000     -2.2940341E-28
   4.330000     -1.8106780E-28
   4.340000     -1.2710368E-28
   4.350000     -6.7286991E-29
   4.360000     -1.4042393E-30
   4.370000      7.0746099E-29
   4.380000      1.4935183E-28
   4.390000      2.3458474E-28
   4.400000      3.2659814E-28
   4.410000      4.2552478E-28
   4.420000      5.3147476E-28
   4.430000      6.4453297E-28
   4.440000      7.6475640E-28
   4.450000      8.9217145E-28
   4.460000      1.0267721E-27
   4.470000      1.1685166E-27
   4.480000      1.3173246E-27
   4.490000      1.4730752E-27
   4.500000      1.6356033E-27
   4.510000      1.8046973E-27
   4.520000      1.9800958E-27
   4.530000      2.1614843E-27
   4.540000      2.3484940E-27
   4.550000      2.5406972E-27
   4.560000      2.7376050E-27
   4.570000      2.9386652E-27
   4.580000      3.1432586E-27
   4.590000      3.3506963E-27
   4.600000      3.5602182E-27
   4.610000      3.7709882E-27
   4.620000      3.9820932E-27
   4.630000      4.1925411E-27
   4.640000      4.4012588E-27
   4.650000      4.6070902E-27
   4.660000      4.8087925E-27
   4.670000      5.0050359E-27
   4.680000      5.1944037E-27
   4.690000      5.3753910E-27
   4.700000      5.5464048E-27
   4.710000      5.7057597E-27
   4.720000      5.8516831E-27
   4.730000      5.9823136E-27
   4.740000      6.0957000E-27
   4.750000      6.1898052E-27
   4.760000      6.2625087E-27
   4.770000      6.3116045E-27
   4.780000      6.3348096E-27
   4.790000      6.3297656E-27
   4.800000      6.2940407E-27
   4.810000      6.2251394E-27
   4.820000      6.1205029E-27
   4.830000      5.9775188E-27
   4.840000      5.7935266E-27
   4.850000      5.5658251E-27
   4.860000      5.2916813E-27
   4.870000      4.9683407E-27
   4.880000      4.5930321E-27
   4.890000      4.1629866E-27
   4.900000      3.6754428E-27
   4.910000      3.1276661E-27
   4.920000      2.5169516E-27
   4.930000      1.8406453E-27
   4.940000      1.0961621E-27
   4.950000      2.8099941E-28
   4.960000     -6.0724802E-28
   4.970000     -1.5708663E-27
   4.980000     -2.6120001E-27
   4.990000     -3.7326371E-27
   5.000000     -4.9345880E-27
   5.010000     -6.2194556E-27
   5.020000     -7.5886208E-27
   5.030000     -9.0432218E-27
   5.040000     -1.0584111E-26
   5.050000     -1.2211843E-26
   5.060000     -1.3926643E-26
   5.070000     -1.5728377E-26
   5.080000     -1.7616531E-26
   5.090000     -1.9590173E-26
   5.100000     -2.1647932E-26
   5.110000     -2.3787962E-26
   5.120000     -2.6007906E-26
   5.130000     -2.8304872E-26
   5.140000     -3.0675417E-26
   5.150000     -3.3115490E-26
   5.160000     -3.5620413E-26
   5.170000     -3.8184852E-26
   5.180000     -4.0802776E-26
   5.190000     -4.3467431E-26
   5.200000     -4.6171317E-26
   5.210000     -4.8906153E-26
   5.220000     -5.1662852E-26
   5.230000     -5.4431483E-26
   5.240000     -5.7201266E-26
   5.250000     -5.9960516E-26
   5.260000     -6.2696656E-26
   5.270000     -6.5396175E-26
   5.280000     -6.8044603E-26
   5.290000     -7.0626538E-26
   5.300000     -7.3125576E-26
   5.310000     -7.5524335E-26
   5.320000     -7.7804433E-26
   5.330000     -7.9946498E-26
   5.340000     -8.1930138E-26
   5.350000     -8.3733980E-26
   5.360000     -8.5335657E-26
   5.370000     -8.6711831E-26
   5.380000     -8.7838183E-26
   5.390000     -8.8689481E-26
   5.400000     -8.9239588E-26
   5.410000     -8.9461517E-26
   5.420000     -8.9327435E-26
   5.430000     -8.8808710E-26
   5.440000     -8.7876023E-26
   5.450000     -8.6499381E-26
   5.460000     -8.4648196E-26
   5.470000     -8.2291363E-26
   5.480000     -7.9397377E-26
   5.490000     -7.5934389E-26
   5.500000     -7.1870288E-26
   5.510000     -6.7172880E-26
   5.520000     -6.1809976E-26
   5.530000     -5.5749515E-26
   5.540000     -4.8959684E-26
   5.550000     -4.1409118E-26
   5.560000     -3.3067012E-26
   5.570000     -2.3903300E-26
   5.580000     -1.3888890E-26
   5.590000     -2.9957663E-27
   5.600000      8.8027633E-27
   5.610000      2.1531804E-26
   5.620000      3.5214757E-26
   5.630000      4.9873059E-26
   5.640000      6.5525905E-26
   5.650000      8.2190031E-26
   5.660000      9.9879423E-26
   5.670000      1.1860513E-25
   5.680000      1.3837487E-25
   5.690000      1.5919288E-25
   5.700000      1.8105961E-25
   5.710000      2.0397139E-25
   5.720000      2.2792001E-25
   5.730000      2.5289254E-25
   5.740000      2.7887106E-25
   5.750000      3.0583220E-25
   5.760000      3.3374686E-25
   5.770000      3.6257995E-25
   5.780000      3.9229010E-25
   5.790000      4.2282920E-25
   5.800000      4.5414219E-25
   5.810000      4.8616664E-25
   5.820000      5.1883278E-25
   5.830000      5.5206256E-25
   5.840000      5.8576980E-25
   5.850000      6.1985998E-25
   5.860000      6.5422971E-25
   5.870000      6.8876663E-25
   5.880000      7.2334926E-25
   5.890000      7.5784615E-25
   5.900000      7.9211644E-25
   5.910000      8.2600945E-25
   5.920000      8.5936446E-25
   5.930000      8.9201029E-25
   5.940000      9.2376568E-25
   5.950000      9.5443886E-25
   5.960000      9.8382778E-25
   5.970000      1.0117198E-24
   5.980000      1.0378923E-24
   5.990000      1.0621120E-24
   6.000000      1.0841358E-24
   6.010000      1.1037108E-24
   6.020000      1.1205739E-24
   6.030000      1.1344526E-24
   6.040000      1.1450654E-24
   6.050000      1.1521222E-24
   6.060000      1.1553246E-24
   6.070000      1.1543664E-24
   6.080000      1.1489345E-24
   6.090000      1.1387089E-24
   6.100000      1.1233643E-24
   6.110000      1.1025703E-24
   6.120000      1.0759925E-24
   6.130000      1.0432932E-24
   6.140000      1.0041333E-24
   6.150000      9.5817195E-25
   6.160000      9.0506929E-25
   6.170000      8.4448733E-25
   6.180000      7.7609112E-25
   6.190000      6.9955061E-25
   6.200000      6.1454099E-25
   6.210000      5.2074562E-25
   6.220000      4.1785809E-25
   6.230000      3.0558258E-25
   6.240000      1.8363701E-25
   6.250000      5.1754237E-26
   6.260000     -9.0316210E-26
   6.270000     -2.4280416E-25
   6.280000     -4.0591691E-25
   6.290000     -5.7983909E-25
   6.300000     -7.6472847E-25
   6.310000     -9.6071258E-25
   6.320000     -1.1678881E-24
   6.330000     -1.3863173E-24
   6.340000     -1.6160254E-24
   6.350000     -1.8569973E-24
   6.360000     -2.1091754E-24
   6.370000     -2.3724572E-24
   6.380000     -2.6466922E-24
   6.390000     -2.9316795E-24
   6.400000     -3.2271641E-24
   6.410000     -3.5328339E-24
   6.420000     -3.8483163E-24
   6.430000     -4.1731779E-24
   6.440000     -4.5069193E-24
   6.450000     -4.8489738E-24
   6.460000     -5.1987022E-24
   6.470000     -5.5553952E-24
   6.480000     -5.9182641E-24
   6.490000     -6.2864424E-24
   6.500000     -6.6589847E-24
   6.510000     -7.0348635E-24
   6.520000     -7.4129646E-24
   6.530000     -7.7920880E-24
   6.540000     -8.1709439E-24
   6.550000     -8.5481544E-24
   6.560000     -8.9222472E-24
   6.570000     -9.2916597E-24
   6.580000     -9.6547377E-24
   6.590000     -1.0009731E-23
   6.600000     -1.0354793E-23
   6.610000     -1.0687988E-23
   6.620000     -1.1007289E-23
   6.630000     -1.1310572E-23
   6.640000     -1.1595623E-23
   6.650000     -1.1860141E-23
   6.660000     -1.2101738E-23
   6.670000     -1.2317939E-23
   6.680000     -1.2506191E-23
   6.690000     -1.2663859E-23
   6.700000     -1.2788234E-23
   6.710000     -1.2876543E-23
   6.720000     -1.2925943E-23
   6.730000     -1.2933532E-23
   6.740000     -1.2896357E-23
   6.750000     -1.2811421E-23
   6.760000     -1.2675684E-23
   6.770000     -1.2486078E-23
   6.780000     -1.2239515E-23
   6.790000     -1.1932892E-23
   6.800000     -1.1563103E-23
   6.810000     -1.1127053E-23
   6.820000     -1.0621667E-23
   6.830000     -1.0043902E-23
   6.840000     -9.3907611E-24
   6.850000     -8.6593056E-24
   6.860000     -7.8466614E-24
   6.870000     -6.9500492E-24
   6.880000     -5.9668027E-24
   6.890000     -4.8943601E-24
   6.900000     -3.7302901E-24
   6.910000     -2.4723222E-24
   6.920000     -1.1183558E-24
   6.930000      3.3351974E-25
   6.940000      1.8850088E-24
   6.950000      3.5375884E-24
   6.960000      5.2924907E-24
   6.970000      7.1506912E-24
   6.980000      9.1128691E-24
   6.990000      1.1179386E-23
   7.000000      1.3350280E-23
   7.010000      1.5625231E-23
   7.020000      1.8003546E-23
   7.030000      2.0484122E-23
   7.040000      2.3065454E-23
   7.050000      2.5745597E-23
   7.060000      2.8522124E-23