  -2.600000      0.0000000E+00
  -2.590000      0.0000000E+00
  -2.580000      0.0000000E+00
  -2.570000      0.0000000E+00
  -2.560000      0.0000000E+00
  -2.550000      0.0000000E+00
  -2.540000      0.0000000E+00
  -2.530000      0.0000000E+00
  -2.520000      0.0000000E+00
  -2.510000      0.0000000E+00
  -2.500000      0.0000000E+00
  -2.490000      0.0000000E+00
  -2.480000      0.0000000E+00
  -2.470000      0.0000000E+00
  -2.460000      0.0000000E+00
  -2.450000      0.0000000E+00
  -2.440000      0.0000000E+00
  -2.430000      0.0000000E+00
  -2.420000      0.0000000E+00
  -2.410000      0.0000000E+00
  -2.400000      0.0000000E+00
  -2.390000      0.0000000E+00
  -2.380000      0.0000000E+00
  -2.370000      0.0000000E+00
  -2.360000      0.0000000E+00
  -2.350000      0.0000000E+00
  -2.340000      0.0000000E+00
  -2.330000      0.0000000E+00
  -2.320000      0.0000000E+00
  -2.310000      0.0000000E+00
  -2.300000      0.0000000E+00
  -2.290000      0.0000000E+00
  -2.280000      0.0000000E+00
  -2.270000      0.0000000E+00
  -2.260000      0.0000000E+00
  -2.250000      0.0000000E+00
  -2.240000      0.0000000E+00
  -2.230000      0.0000000E+00
  -2.220000      0.0000000E+00
  -2.210000      0.0000000E+00
  -2.200000      0.0000000E+00
  -2.190000      0.0000000E+00
  -2.180000      0.0000000E+00
  -2.170000      0.0000000E+00
  -2.160000      0.0000000E+00
  -2.150000      0.0000000E+00
  -2.140000      0.0000000E+00
  -2.130000      0.0000000E+00
  -2.120000      0.0000000E+00
  -2.110000      0.0000000E+00
  -2.100000      0.0000000E+00
  -2.090000      0.0000000E+00
  -2.080000      0.0000000E+00
  -2.070000      0.0000000E+00
  -2.060000      0.0000000E+00
  -2.050000      0.0000000E+00
  -2.040000      0.0000000E+00
  -2.030000      0.0000000E+00
  -2.020000      0.0000000E+00
  -2.010000      0.0000000E+00
  -2.000000      0.0000000E+00
  -1.990000      0.0000000E+00
  -1.980000      0.0000000E+00
  -1.970000      0.0000000E+00
  -1.960000      0.0000000E+00
  -1.950000      0.0000000E+00
  -1.940000      0.0000000E+00
  -1.930000      0.0000000E+00
  -1.920000      0.0000000E+00
  -1.910000      0.0000000E+00
  -1.900000      0.0000000E+00
  -1.890000      0.0000000E+00
  -1.880000      0.0000000E+00
  -1.870000      0.0000000E+00
  -1.860000      0.0000000E+00
  -1.850000      0.0000000E+00
  -1.840000      0.0000000E+00
  -1.830000      0.0000000E+00
  -1.820000      0.0000000E+00
  -1.810000      0.0000000E+00
  -1.800000      0.0000000E+00
  -1.790000      0.0000000E+00
  -1.780000      0.0000000E+00
  -1.770000      0.0000000E+00
  -1.760000      0.0000000E+00
  -1.750000      0.0000000E+00
  -1.740000      0.0000000E+00
  -1.730000      0.0000000E+00
  -1.720000      0.0000000E+00
  -1.710000      0.0000000E+00
  -1.700000      0.0000000E+00
  -1.690000      0.0000000E+00
  -1.680000      0.0000000E+00
  -1.670000      0.0000000E+00
  -1.660000      0.0000000E+00
  -1.650000      0.0000000E+00
  -1.640000      0.0000000E+00
  -1.630000      0.0000000E+00
  -1.620000      0.0000000E+00
  -1.610000      0.0000000E+00
  -1.600000      0.0000000E+00
  -1.590000      0.0000000E+00
  -1.580000      0.0000000E+00
  -1.570000      0.0000000E+00
  -1.560000      0.0000000E+00
  -1.550000      0.0000000E+00
  -1.540000      0.0000000E+00
  -1.530000      0.0000000E+00
  -1.520000      0.0000000E+00
  -1.510000      0.0000000E+00
  -1.500000      0.0000000E+00
  -1.490000      0.0000000E+00
  -1.480000      0.0000000E+00
  -1.470000      0.0000000E+00
  -1.460000      0.0000000E+00
  -1.450000      0.0000000E+00
  -1.440000      0.0000000E+00
  -1.430000      0.0000000E+00
  -1.420000      0.0000000E+00
  -1.410000      0.0000000E+00
  -1.400000      0.0000000E+00
  -1.390000      0.0000000E+00
  -1.380000      0.0000000E+00
  -1.370000      0.0000000E+00
  -1.360000      0.0000000E+00
  -1.350000      0.0000000E+00
  -1.340000      0.0000000E+00
  -1.330000      0.0000000E+00
  -1.320000      0.0000000E+00
  -1.310000      0.0000000E+00
  -1.300000      0.0000000E+00
  -1.290000      0.0000000E+00
  -1.280000      0.0000000E+00
  -1.270000      0.0000000E+00
  -1.260000      0.0000000E+00
  -1.250000      0.0000000E+00
  -1.240000      0.0000000E+00
  -1.230000      0.0000000E+00
  -1.220000      0.0000000E+00
  -1.210000      0.0000000E+00
  -1.200000      0.0000000E+00
  -1.190000      0.0000000E+00
  -1.180000      0.0000000E+00
  -1.170000      0.0000000E+00
  -1.160000      0.0000000E+00
  -1.150000      0.0000000E+00
  -1.140000      0.0000000E+00
  -1.130000      0.0000000E+00
  -1.120000      0.0000000E+00
  -1.110000      0.0000000E+00
  -1.100000      0.0000000E+00
  -1.090000      0.0000000E+00
  -1.080000      0.0000000E+00
  -1.070000      0.0000000E+00
  -1.060000      0.0000000E+00
  -1.050000      0.0000000E+00
  -1.040000      0.0000000E+00
  -1.030000      0.0000000E+00
  -1.020000      0.0000000E+00
  -1.010000      0.0000000E+00
  -1.000000      0.0000000E+00
 -0.9900000      0.0000000E+00
 -0.9800000      0.0000000E+00
 -0.9700000      0.0000000E+00
 -0.9600000      0.0000000E+00
 -0.9500000      0.0000000E+00
 -0.9400000      0.0000000E+00
 -0.9300000      0.0000000E+00
 -0.9200000      0.0000000E+00
 -0.9100000      0.0000000E+00
 -0.9000000      0.0000000E+00
 -0.8900000      0.0000000E+00
 -0.8800000      0.0000000E+00
 -0.8700000      0.0000000E+00
 -0.8600000      0.0000000E+00
 -0.8500000      0.0000000E+00
 -0.8400000      0.0000000E+00
 -0.8300000      0.0000000E+00
 -0.8200000      0.0000000E+00
 -0.8100000      0.0000000E+00
 -0.8000000      0.0000000E+00
 -0.7900000      0.0000000E+00
 -0.7800000      0.0000000E+00
 -0.7700000      0.0000000E+00
 -0.7600000      0.0000000E+00
 -0.7500000      0.0000000E+00
 -0.7400000      0.0000000E+00
 -0.7300000      0.0000000E+00
 -0.7200000      0.0000000E+00
 -0.7100000      0.0000000E+00
 -0.7000000      0.0000000E+00
 -0.6900000      0.0000000E+00
 -0.6800000      0.0000000E+00
 -0.6700000      0.0000000E+00
 -0.6600000      0.0000000E+00
 -0.6500000      0.0000000E+00
 -0.6400000      0.0000000E+00
 -0.6300000      0.0000000E+00
 -0.6200000      0.0000000E+00
 -0.6100000      0.0000000E+00
 -0.6000000      0.0000000E+00
 -0.5900000      0.0000000E+00
 -0.5800000      0.0000000E+00
 -0.5700000      0.0000000E+00
 -0.5600000      0.0000000E+00
 -0.5500000      0.0000000E+00
 -0.5400000      0.0000000E+00
 -0.5300000      0.0000000E+00
 -0.5200000      0.0000000E+00
 -0.5100000      0.0000000E+00
 -0.5000000      0.0000000E+00
 -0.4900000      0.0000000E+00
 -0.4800000      0.0000000E+00
 -0.4700000      0.0000000E+00
 -0.4600000      0.0000000E+00
 -0.4500000      0.0000000E+00
 -0.4400000      0.0000000E+00
 -0.4300000      0.0000000E+00
 -0.4200000      0.0000000E+00
 -0.4100000      0.0000000E+00
 -0.4000000      0.0000000E+00
 -0.3900000      0.0000000E+00
 -0.3800000      0.0000000E+00
 -0.3700000      0.0000000E+00
 -0.3600000      0.0000000E+00
 -0.3500000      0.0000000E+00
 -0.3400000      0.0000000E+00
 -0.3300000      0.0000000E+00
 -0.3200000      0.0000000E+00
 -0.3100000      0.0000000E+00
 -0.3000000      0.0000000E+00
 -0.2900000      0.0000000E+00
 -0.2800000      0.0000000E+00
 -0.2700000      0.0000000E+00
 -0.2600000      0.0000000E+00
 -0.2500000      0.0000000E+00
 -0.2400000      0.0000000E+00
 -0.2300000      0.0000000E+00
 -0.2200000      0.0000000E+00
 -0.2100000      0.0000000E+00
 -0.2000000      0.0000000E+00
 -0.1900000      0.0000000E+00
 -0.1800000      0.0000000E+00
 -0.1700000      0.0000000E+00
 -0.1600000      0.0000000E+00
 -0.1500000      0.0000000E+00
 -0.1400000      0.0000000E+00
 -0.1300000      0.0000000E+00
 -0.1200000      0.0000000E+00
 -0.1100000      0.0000000E+00
 -0.1000000      0.0000000E+00
 -9.0000004E-02  0.0000000E+00
 -7.9999998E-02  0.0000000E+00
 -7.0000000E-02  0.0000000E+00
 -5.9999999E-02  0.0000000E+00
 -5.0000001E-02  0.0000000E+00
 -3.9999999E-02  0.0000000E+00
 -2.9999999E-02  0.0000000E+00
 -2.0000000E-02  0.0000000E+00
 -9.9999998E-03  0.0000000E+00
 -3.4694470E-17  0.0000000E+00
  9.9999998E-03  0.0000000E+00
  2.0000000E-02  0.0000000E+00
  2.9999999E-02  0.0000000E+00
  3.9999999E-02  0.0000000E+00
  5.0000001E-02  0.0000000E+00
  5.9999999E-02  0.0000000E+00
  7.0000000E-02  0.0000000E+00
  7.9999998E-02  0.0000000E+00
  9.0000004E-02  0.0000000E+00
  0.1000000      0.0000000E+00
  0.1100000      0.0000000E+00
  0.1200000      0.0000000E+00
  0.1300000      0.0000000E+00
  0.1400000      0.0000000E+00
  0.1500000      0.0000000E+00
  0.1600000      0.0000000E+00
  0.1700000      0.0000000E+00
  0.1800000      0.0000000E+00
  0.1900000      0.0000000E+00
  0.2000000      0.0000000E+00
  0.2100000      0.0000000E+00
  0.2200000      0.0000000E+00
  0.2300000      0.0000000E+00
  0.2400000      0.0000000E+00
  0.2500000      0.0000000E+00
  0.2600000      0.0000000E+00
  0.2700000      0.0000000E+00
  0.2800000      0.0000000E+00
  0.2900000      0.0000000E+00
  0.3000000      0.0000000E+00
  0.3100000      0.0000000E+00
  0.3200000      0.0000000E+00
  0.3300000      0.0000000E+00
  0.3400000      0.0000000E+00
  0.3500000      0.0000000E+00
  0.3600000      0.0000000E+00
  0.3700000      0.0000000E+00
  0.3800000      0.0000000E+00
  0.3900000      0.0000000E+00
  0.4000000      0.0000000E+00
  0.4100000      0.0000000E+00
  0.4200000      0.0000000E+00
  0.4300000      0.0000000E+00
  0.4400000      0.0000000E+00
  0.4500000      0.0000000E+00
  0.4600000      0.0000000E+00
  0.4700000      0.0000000E+00
  0.4800000      0.0000000E+00
  0.4900000      0.0000000E+00
  0.5000000      0.0000000E+00
  0.5100000      0.0000000E+00
  0.5200000      0.0000000E+00
  0.5300000      0.0000000E+00
  0.5400000      0.0000000E+00
  0.5500000      0.0000000E+00
  0.5600000      0.0000000E+00
  0.5700000      0.0000000E+00
  0.5800000      0.0000000E+00
  0.5900000      0.0000000E+00
  0.6000000      0.0000000E+00
  0.6100000      0.0000000E+00
  0.6200000      0.0000000E+00
  0.6300000      0.0000000E+00
  0.6400000      0.0000000E+00
  0.6500000      0.0000000E+00
  0.6600000      0.0000000E+00
  0.6700000      0.0000000E+00
  0.6800000      0.0000000E+00
  0.6900000      0.0000000E+00
  0.7000000      0.0000000E+00
  0.7100000      0.0000000E+00
  0.7200000      0.0000000E+00
  0.7300000      0.0000000E+00
  0.7400000      0.0000000E+00
  0.7500000      0.0000000E+00
  0.7600000      0.0000000E+00
  0.7700000      0.0000000E+00
  0.7800000      0.0000000E+00
  0.7900000      0.0000000E+00
  0.8000000      0.0000000E+00
  0.8100000      0.0000000E+00
  0.8200000      0.0000000E+00
  0.8300000      0.0000000E+00
  0.8400000      0.0000000E+00
  0.8500000      0.0000000E+00
  0.8600000      0.0000000E+00
  0.8700000      0.0000000E+00
  0.8800000      0.0000000E+00
  0.8900000      0.0000000E+00
  0.9000000      0.0000000E+00
  0.9100000      0.0000000E+00
  0.9200000      0.0000000E+00
  0.9300000      0.0000000E+00
  0.9400000      0.0000000E+00
  0.9500000      0.0000000E+00
  0.9600000      0.0000000E+00
  0.9700000      0.0000000E+00
  0.9800000      0.0000000E+00
  0.9900000      0.0000000E+00
   1.000000      0.0000000E+00
   1.010000      0.0000000E+00
   1.020000      0.0000000E+00
   1.030000      0.0000000E+00
   1.040000      0.0000000E+00
   1.050000      0.0000000E+00
   1.060000      0.0000000E+00
   1.070000      0.0000000E+00
   1.080000      0.0000000E+00
   1.090000      0.0000000E+00
   1.100000      0.0000000E+00
   1.110000      0.0000000E+00
   1.120000      0.0000000E+00
   1.130000      0.0000000E+00
   1.140000      0.0000000E+00
   1.150000      0.0000000E+00
   1.160000      0.0000000E+00
   1.170000      0.0000000E+00
   1.180000      0.0000000E+00
   1.190000      0.0000000E+00
   1.200000      0.0000000E+00
   1.210000      0.0000000E+00
   1.220000      0.0000000E+00
   1.230000      0.0000000E+00
   1.240000      0.0000000E+00
   1.250000      0.0000000E+00
   1.260000      0.0000000E+00
   1.270000      0.0000000E+00
   1.280000      0.0000000E+00
   1.290000      0.0000000E+00
   1.300000      0.0000000E+00
   1.310000      0.0000000E+00
   1.320000      0.0000000E+00
   1.330000      0.0000000E+00
   1.340000      0.0000000E+00
   1.350000      0.0000000E+00
   1.360000      0.0000000E+00
   1.370000      0.0000000E+00
   1.380000      0.0000000E+00
   1.390000      0.0000000E+00
   1.400000      0.0000000E+00
   1.410000      0.0000000E+00
   1.420000      0.0000000E+00
   1.430000      0.0000000E+00
   1.440000      0.0000000E+00
   1.450000      0.0000000E+00
   1.460000      0.0000000E+00
   1.470000      0.0000000E+00
   1.480000      0.0000000E+00
   1.490000      0.0000000E+00
   1.500000      0.0000000E+00
   1.510000      0.0000000E+00
   1.520000      0.0000000E+00
   1.530000      0.0000000E+00
   1.540000      0.0000000E+00
   1.550000      0.0000000E+00
   1.560000      0.0000000E+00
   1.570000      0.0000000E+00
   1.580000      0.0000000E+00
   1.590000      0.0000000E+00
   1.600000      0.0000000E+00
   1.610000      0.0000000E+00
   1.620000      0.0000000E+00
   1.630000      0.0000000E+00
   1.640000      0.0000000E+00
   1.650000      0.0000000E+00
   1.660000      0.0000000E+00
   1.670000      0.0000000E+00
   1.680000      0.0000000E+00
   1.690000      0.0000000E+00
   1.700000      0.0000000E+00
   1.710000      0.0000000E+00
   1.720000      0.0000000E+00
   1.730000      0.0000000E+00
   1.740000      0.0000000E+00
   1.750000      0.0000000E+00
   1.760000      0.0000000E+00
   1.770000      0.0000000E+00
   1.780000      0.0000000E+00
   1.790000      0.0000000E+00
   1.800000      0.0000000E+00
   1.810000      0.0000000E+00
   1.820000      0.0000000E+00
   1.830000      0.0000000E+00
   1.840000      0.0000000E+00
   1.850000      0.0000000E+00
   1.860000      0.0000000E+00
   1.870000      0.0000000E+00
   1.880000      0.0000000E+00
   1.890000      0.0000000E+00
   1.900000      0.0000000E+00
   1.910000      0.0000000E+00
   1.920000      0.0000000E+00
   1.930000      0.0000000E+00
   1.940000      0.0000000E+00
   1.950000      0.0000000E+00
   1.960000      0.0000000E+00
   1.970000      0.0000000E+00
   1.980000      0.0000000E+00
   1.990000      0.0000000E+00
   2.000000      0.0000000E+00
   2.010000      0.0000000E+00
   2.020000      0.0000000E+00
   2.030000      0.0000000E+00
   2.040000      0.0000000E+00
   2.050000      0.0000000E+00
   2.060000     -1.2034872E-38
   2.070000     -1.4612156E-38
   2.080000     -1.7061069E-38
   2.090000     -1.9333331E-38
   2.100000     -2.1376456E-38
   2.110000     -2.2333758E-38
   2.120000     -2.3203447E-38
   2.130000     -2.5015753E-38
   2.140000     -2.6961495E-38
   2.150000     -2.9015028E-38
   2.160000     -3.1147093E-38
   2.170000     -3.3322222E-38
   2.180000     -3.4611963E-38
   2.190000     -3.4642248E-38
   2.200000     -3.3906670E-38
   2.210000     -3.2317401E-38
   2.220000     -2.9779254E-38
   2.230000     -2.5466237E-38
   2.240000     -1.9432548E-38
   2.250000     -1.2494187E-38
   2.260000      0.0000000E+00
   2.270000      0.0000000E+00
   2.280000      1.4465603E-38
   2.290000      2.4176975E-38
   2.300000      3.3718528E-38
   2.310000      4.5091086E-38
   2.320000      5.8574298E-38
   2.330000      7.3449552E-38
   2.340000      8.9705792E-38
   2.350000      1.0731813E-37
   2.360000      1.2624270E-37
   2.370000      1.5063503E-37
   2.380000      1.8061746E-37
   2.390000      2.1203751E-37
   2.400000      2.4697130E-37
   2.410000      2.8660488E-37
   2.420000      3.2842914E-37
   2.430000      3.7230915E-37
   2.440000      4.1772008E-37
   2.450000      4.6050506E-37
   2.460000      5.0055830E-37
   2.470000      5.3976990E-37
   2.480000      5.6384578E-37
   2.490000      5.7152767E-37
   2.500000      5.7652594E-37
   2.510000      5.7901101E-37
   2.520000      5.8051096E-37
   2.530000      5.8255425E-37
   2.540000      5.9288638E-37
   2.550000      6.0985796E-37
   2.560000      6.2309214E-37
   2.570000      6.1742358E-37
   2.580000      5.8776915E-37
   2.590000      5.4558437E-37
   2.600000      4.8619582E-37
   2.610000      4.0959524E-37
   2.620000      3.1478966E-37
   2.630000      1.9905263E-37
   2.640000      6.7047429E-38
   2.650000     -9.7207648E-38
   2.660000     -2.8530271E-37
   2.670000     -4.4444313E-37
   2.680000     -5.7911688E-37
   2.690000     -7.0458959E-37
   2.700000     -8.4428192E-37
   2.710000     -1.0273131E-36
   2.720000     -1.2467733E-36
   2.730000     -1.4983555E-36
   2.740000     -1.8055684E-36
   2.750000     -2.1638997E-36
   2.760000     -2.5348389E-36
   2.770000     -2.8993602E-36
   2.780000     -3.2566521E-36
   2.790000     -3.5999762E-36
   2.800000     -3.9015521E-36
   2.810000     -4.1358004E-36
   2.820000     -4.3183213E-36
   2.830000     -4.4685983E-36
   2.840000     -4.5938827E-36
   2.850000     -4.6908624E-36
   2.860000     -4.8012505E-36
   2.870000     -5.0018827E-36
   2.880000     -5.2382275E-36
   2.890000     -5.0798450E-36
   2.900000     -4.1691199E-36
   2.910000     -3.1411295E-36
   2.920000     -2.3559166E-36
   2.930000     -1.5082111E-36
   2.940000     -5.0189300E-37
   2.950000      6.8853560E-37
   2.960000      2.0355356E-36
   2.970000      3.9570541E-36
   2.980000      6.0428539E-36
   2.990000      7.8341210E-36
   3.000000      9.2145857E-36
   3.010000      9.9401493E-36
   3.020000      1.0525839E-35
   3.030000      1.1429811E-35
   3.040000      1.2388145E-35
   3.050000      1.3057060E-35
   3.060000      1.3511056E-35
   3.070000      1.3763392E-35
   3.080000      1.3817529E-35
   3.090000      1.3514685E-35
   3.100000      1.2971411E-35
   3.110000      1.2404146E-35
   3.120000      1.1307116E-35
   3.130000      9.5794926E-36
   3.140000      7.7604503E-36
   3.150000      6.0387370E-36
   3.160000      4.2686839E-36
   3.170000      2.6458228E-36
   3.180000      1.1682481E-36
   3.190000     -4.3994467E-37
   3.200000     -2.1279999E-36
   3.210000     -3.4711106E-36
   3.220000     -4.2359323E-36
   3.230000     -4.8104344E-36
   3.240000     -5.1106407E-36
   3.250000     -5.0359960E-36
   3.260000     -4.7782052E-36
   3.270000     -4.3490830E-36
   3.280000     -3.6725162E-36
   3.290000     -3.0463502E-36
   3.300000     -2.7399739E-36
   3.310000     -2.6954129E-36
   3.320000     -3.2563063E-36
   3.330000     -4.6027631E-36
   3.340000     -6.6739237E-36
   3.350000     -9.3620606E-36
   3.360000     -1.2611754E-35
   3.370000     -1.6465500E-35
   3.380000     -2.0859569E-35
   3.390000     -2.5719056E-35
   3.400000     -3.1235651E-35
   3.410000     -3.7603433E-35
   3.420000     -4.4903066E-35
   3.430000     -5.3783412E-35
   3.440000     -6.3997528E-35
   3.450000     -7.4360068E-35
   3.460000     -8.4396258E-35
   3.470000     -9.3894913E-35
   3.480000     -1.0204625E-34
   3.490000     -1.0784217E-34
   3.500000     -1.1130789E-34
   3.510000     -1.1229029E-34
   3.520000     -1.1116609E-34
   3.530000     -1.0807461E-34
   3.540000     -1.0223765E-34
   3.550000     -9.4420017E-35
   3.560000     -8.5389815E-35
   3.570000     -7.5067930E-35
   3.580000     -6.3917316E-35
   3.590000     -5.2231329E-35
   3.600000     -3.9927238E-35
   3.610000     -2.7422214E-35
   3.620000     -1.4931421E-35
   3.630000     -3.9632878E-36
   3.640000      5.8528175E-36
   3.650000      1.6096647E-35
   3.660000      2.5609806E-35
   3.670000      3.3894123E-35
   3.680000      4.1163071E-35
   3.690000      4.7008516E-35
   3.700000      5.1758354E-35
   3.710000      5.6408656E-35
   3.720000      6.0927428E-35
   3.730000      6.4446260E-35
   3.740000      6.9299559E-35
   3.750000      7.6977477E-35
   3.760000      8.5617831E-35
   3.770000      9.5080699E-35
   3.780000      1.0551423E-34
   3.790000      1.1803701E-34
   3.800000      1.3397691E-34
   3.810000      1.5273041E-34
   3.820000      1.7393488E-34
   3.830000      1.9707429E-34
   3.840000      2.2158702E-34
   3.850000      2.4764236E-34
   3.860000      2.7396214E-34
   3.870000      3.0011328E-34
   3.880000      3.2723949E-34
   3.890000      3.5437417E-34
   3.900000      3.8193494E-34
   3.910000      4.1054048E-34
   3.920000      4.3809173E-34
   3.930000      4.6117963E-34
   3.940000      4.8010523E-34
   3.950000      4.9691034E-34
   3.960000      5.1107606E-34
   3.970000      5.2187045E-34
   3.980000      5.2939981E-34
   3.990000      5.3498525E-34
   4.000000      5.3990616E-34
   4.010000      5.4088297E-34
   4.020000      5.3547189E-34
   4.030000      5.2541682E-34
   4.040000      5.1253170E-34
   4.050000      4.9877433E-34
   4.060000      4.8309149E-34
   4.070000      4.6406221E-34
   4.080000      4.4292081E-34
   4.090000      4.2030127E-34
   4.100000      3.9558939E-34
   4.110000      3.6861639E-34
   4.120000      3.3940751E-34
   4.130000      3.0779782E-34
   4.140000      2.7319933E-34
   4.150000      2.3727135E-34
   4.160000      1.9944819E-34
   4.170000      1.5750179E-34
   4.180000      1.1180200E-34
   4.190000      6.4054197E-35
   4.200000      1.5457953E-35
   4.210000     -3.8120326E-35
   4.220000     -9.6919452E-35
   4.230000     -1.6419008E-34
   4.240000     -2.4434367E-34
   4.250000     -3.3465410E-34
   4.260000     -4.3458733E-34
   4.270000     -5.4668840E-34
   4.280000     -6.7092796E-34
   4.290000     -8.0498147E-34
   4.300000     -9.5024833E-34
   4.310000     -1.1055125E-33
   4.320000     -1.2693102E-33
   4.330000     -1.4413557E-33
   4.340000     -1.6194661E-33
   4.350000     -1.8027875E-33
   4.360000     -1.9908720E-33
   4.370000     -2.1807979E-33
   4.380000     -2.3709117E-33
   4.390000     -2.5625004E-33
   4.400000     -2.7533685E-33
   4.410000     -2.9414654E-33
   4.420000     -3.1268715E-33
   4.430000     -3.3067402E-33
   4.440000     -3.4770855E-33
   4.450000     -3.6381763E-33
   4.460000     -3.7966355E-33
   4.470000     -3.9493146E-33
   4.480000     -4.0917269E-33
   4.490000     -4.2269565E-33
   4.500000     -4.3553013E-33
   4.510000     -4.4741927E-33
   4.520000     -4.5835214E-33
   4.530000     -4.6853769E-33
   4.540000     -4.7784003E-33
   4.550000     -4.8610346E-33
   4.560000     -4.9324110E-33
   4.570000     -4.9911134E-33
   4.580000     -5.0348543E-33
   4.590000     -5.0640679E-33
   4.600000     -5.0744214E-33
   4.610000     -5.0598115E-33
   4.620000     -5.0201404E-33
   4.630000     -4.9549633E-33
   4.640000     -4.8604421E-33
   4.650000     -4.7298447E-33
   4.660000     -4.5635178E-33
   4.670000     -4.3596400E-33
   4.680000     -4.1128979E-33
   4.690000     -3.8233428E-33
   4.700000     -3.4864512E-33
   4.710000     -3.0982857E-33
   4.720000     -2.6581733E-33
   4.730000     -2.1643005E-33
   4.740000     -1.6148921E-33
   4.750000     -1.0098542E-33
   4.760000     -3.4917548E-34
   4.770000      3.6905986E-34
   4.780000      1.1459099E-33
   4.790000      1.9815674E-33
   4.800000      2.8762729E-33
   4.810000      3.8299241E-33
   4.820000      4.8419097E-33
   4.830000      5.9116331E-33
   4.840000      7.0385119E-33
   4.850000      8.2228247E-33
   4.860000      9.4631747E-33
   4.870000      1.0758377E-32
   4.880000      1.2107728E-32
   4.890000      1.3509630E-32
   4.900000      1.4962202E-32
   4.910000      1.6465044E-32
   4.920000      1.8018049E-32
   4.930000      1.9617865E-32
   4.940000      2.1262036E-32
   4.950000      2.2948903E-32
   4.960000      2.4674808E-32
   4.970000      2.6435590E-32
   4.980000      2.8227316E-32
   4.990000      3.0045204E-32
   5.000000      3.1884250E-32
   5.010000      3.3738431E-32
   5.020000      3.5600490E-32
   5.030000      3.7462911E-32
   5.040000      3.9317444E-32
   5.050000      4.1156361E-32
   5.060000      4.2969573E-32
   5.070000      4.4745410E-32
   5.080000      4.6473063E-32
   5.090000      4.8140511E-32
   5.100000      4.9735607E-32
   5.110000      5.1245094E-32
   5.120000      5.2655065E-32
   5.130000      5.3950495E-32
   5.140000      5.5116156E-32
   5.150000      5.6136920E-32
   5.160000      5.6997182E-32
   5.170000      5.7680356E-32
   5.180000      5.8168356E-32
   5.190000      5.8443933E-32
   5.200000      5.8490048E-32
   5.210000      5.8288357E-32
   5.220000      5.7820516E-32
   5.230000      5.7068217E-32
   5.240000      5.6012353E-32
   5.250000      5.4632422E-32
   5.260000      5.2909841E-32
   5.270000      5.0826154E-32
   5.280000      4.8361521E-32
   5.290000      4.5496471E-32
   5.300000      4.2211241E-32
   5.310000      3.8484324E-32
   5.320000      3.4294760E-32
   5.330000      2.9623574E-32
   5.340000      2.4450807E-32
   5.350000      1.8756986E-32
   5.360000      1.2523045E-32
   5.370000      5.7303770E-33
   5.380000     -1.6382472E-33
   5.390000     -9.6003652E-33
   5.400000     -1.8171700E-32
   5.410000     -2.7365738E-32
   5.420000     -3.7196353E-32
   5.430000     -4.7675065E-32
   5.440000     -5.8810929E-32
   5.450000     -7.0611346E-32
   5.460000     -8.3081302E-32
   5.470000     -9.6223452E-32
   5.480000     -1.1003769E-31
   5.490000     -1.2452086E-31
   5.500000     -1.3966687E-31
   5.510000     -1.5546623E-31
   5.520000     -1.7190592E-31
   5.530000     -1.8896923E-31
   5.540000     -2.0663550E-31
   5.550000     -2.2487999E-31
   5.560000     -2.4367361E-31
   5.570000     -2.6298289E-31
   5.580000     -2.8276963E-31
   5.590000     -3.0299082E-31
   5.600000     -3.2359838E-31
   5.610000     -3.4453911E-31
   5.620000     -3.6575417E-31
   5.630000     -3.8717930E-31
   5.640000     -4.0874464E-31
   5.650000     -4.3037439E-31
   5.660000     -4.5198661E-31
   5.670000     -4.7349340E-31
   5.680000     -4.9480013E-31
   5.690000     -5.1580575E-31
   5.700000     -5.3640257E-31
   5.710000     -5.5647620E-31
   5.720000     -5.7590529E-31
   5.730000     -5.9456156E-31
   5.740000     -6.1230969E-31
   5.750000     -6.2900750E-31
   5.760000     -6.4450564E-31
   5.770000     -6.5864792E-31
   5.780000     -6.7127122E-31
   5.790000     -6.8220600E-31
   5.800000     -6.9127597E-31
   5.810000     -6.9829866E-31
   5.820000     -7.0308579E-31
   5.830000     -7.0544308E-31
   5.840000     -7.0517135E-31
   5.850000     -7.0206635E-31
   5.860000     -6.9591960E-31
   5.870000     -6.8651879E-31
   5.880000     -6.7364859E-31
   5.890000     -6.5709062E-31
   5.900000     -6.3662479E-31
   5.910000     -6.1203030E-31
   5.920000     -5.8308596E-31
   5.930000     -5.4957093E-31
   5.940000     -5.1126594E-31
   5.950000     -4.6795452E-31
   5.960000     -4.1942367E-31
   5.970000     -3.6546510E-31
   5.980000     -3.0587637E-31
   5.990000     -2.4046227E-31
   6.000000     -1.6903584E-31
   6.010000     -9.1419953E-32
   6.020000     -7.4485978E-33
   6.030000      8.3031655E-32
   6.040000      1.8016008E-31
   6.050000      2.8406037E-31
   6.060000      3.9483887E-31
   6.070000      5.1258325E-31
   6.080000      6.3736023E-31
   6.090000      7.6921407E-31
   6.100000      9.0816484E-31
   6.110000      1.0542064E-30
   6.120000      1.2073044E-30
   6.130000      1.3673947E-30
   6.140000      1.5343814E-30
   6.150000      1.7081344E-30
   6.160000      1.8884875E-30
   6.170000      2.0752369E-30
   6.180000      2.2681391E-30
   6.190000      2.4669082E-30
   6.200000      2.6712150E-30
   6.210000      2.8806847E-30
   6.220000      3.0948953E-30
   6.230000      3.3133751E-30
   6.240000      3.5356015E-30
   6.250000      3.7609996E-30
   6.260000      3.9889417E-30
   6.270000      4.2187435E-30
   6.280000      4.4496644E-30
   6.290000      4.6809058E-30
   6.300000      4.9116111E-30
   6.310000      5.1408637E-30
   6.320000      5.3676867E-30
   6.330000      5.5910431E-30
   6.340000      5.8098340E-30
   6.350000      6.0229002E-30
   6.360000      6.2290221E-30
   6.370000      6.4269193E-30
   6.380000      6.6152519E-30
   6.390000      6.7926218E-30
   6.400000      6.9575739E-30
   6.410000      7.1085954E-30
   6.420000      7.2441214E-30
   6.430000      7.3625353E-30
   6.440000      7.4621698E-30
   6.450000      7.5413120E-30
   6.460000      7.5982074E-30
   6.470000      7.6310596E-30
   6.480000      7.6380388E-30
   6.490000      7.6172831E-30
   6.500000      7.5669043E-30
   6.510000      7.4849936E-30
   6.520000      7.3696259E-30
   6.530000      7.2188669E-30
   6.540000      7.0307810E-30
   6.550000      6.8034355E-30
   6.560000      6.5349098E-30
   6.570000      6.2233026E-30
   6.580000      5.8667418E-30
   6.590000      5.4633915E-30
   6.600000      5.0114601E-30
   6.610000      4.5092136E-30
   6.620000      3.9549822E-30
   6.630000      3.3471726E-30
   6.640000      2.6842788E-30
   6.650000      1.9648930E-30
   6.660000      1.1877167E-30
   6.670000      3.5157442E-31
   6.680000     -5.4457545E-31
   6.690000     -1.5016291E-30
   6.700000     -2.5203214E-30
   6.710000     -3.6012159E-30
   6.720000     -4.7446879E-30
   6.730000     -5.9509148E-30
   6.740000     -7.2198615E-30
   6.750000     -8.5512666E-30
   6.760000     -9.9446243E-30
   6.770000     -1.1399174E-29
   6.780000     -1.2913890E-29
   6.790000     -1.4487463E-29
   6.800000     -1.6118291E-29
   6.810000     -1.7804455E-29
   6.820000     -1.9543717E-29
   6.830000     -2.1333514E-29
   6.840000     -2.3170925E-29
   6.850000     -2.5052668E-29
   6.860000     -2.6975095E-29
   6.870000     -2.8934184E-29
   6.880000     -3.0925515E-29
   6.890000     -3.2944256E-29
   6.900000     -3.4985182E-29
   6.910000     -3.7042638E-29
   6.920000     -3.9110552E-29
   6.930000     -4.1182422E-29
   6.940000     -4.3251304E-29
   6.950000     -4.5309825E-29
   6.960000     -4.7350170E-29
   6.970000     -4.9364073E-29
   6.980000     -5.1342843E-29
   6.990000     -5.3277343E-29
   7.000000     -5.5158002E-29
   7.010000     -5.6974828E-29
   7.020000     -5.8717391E-29
   7.030000     -6.0374876E-29
   7.040000     -6.1936053E-29
   7.050000     -6.3389306E-29
   7.060000     -6.4722657E-29