  -2.600000      0.0000000E+00
  -2.590000      0.0000000E+00
  -2.580000      0.0000000E+00
  -2.570000      0.0000000E+00
  -2.560000      0.0000000E+00
  -2.550000      0.0000000E+00
  -2.540000      0.0000000E+00
  -2.530000      0.0000000E+00
  -2.520000      0.0000000E+00
  -2.510000      0.0000000E+00
  -2.500000      0.0000000E+00
  -2.490000      0.0000000E+00
  -2.480000      0.0000000E+00
  -2.470000      0.0000000E+00
  -2.460000      0.0000000E+00
  -2.450000      0.0000000E+00
  -2.440000      0.0000000E+00
  -2.430000      0.0000000E+00
  -2.420000      0.0000000E+00
  -2.410000      0.0000000E+00
  -2.400000      0.0000000E+00
  -2.390000      0.0000000E+00
  -2.380000      0.0000000E+00
  -2.370000      0.0000000E+00
  -2.360000      0.0000000E+00
  -2.350000      0.0000000E+00
  -2.340000      0.0000000E+00
  -2.330000      0.0000000E+00
  -2.320000      0.0000000E+00
  -2.310000      0.0000000E+00
  -2.300000      0.0000000E+00
  -2.290000      0.0000000E+00
  -2.280000      0.0000000E+00
  -2.270000      0.0000000E+00
  -2.260000      0.0000000E+00
  -2.250000      0.0000000E+00
  -2.240000      0.0000000E+00
  -2.230000      0.0000000E+00
  -2.220000      0.0000000E+00
  -2.210000      0.0000000E+00
  -2.200000      0.0000000E+00
  -2.190000      0.0000000E+00
  -2.180000      0.0000000E+00
  -2.170000      0.0000000E+00
  -2.160000      0.0000000E+00
  -2.150000      0.0000000E+00
  -2.140000      0.0000000E+00
  -2.130000      0.0000000E+00
  -2.120000      0.0000000E+00
  -2.110000      0.0000000E+00
  -2.100000      0.0000000E+00
  -2.090000      0.0000000E+00
  -2.080000      0.0000000E+00
  -2.070000      0.0000000E+00
  -2.060000      0.0000000E+00
  -2.050000      0.0000000E+00
  -2.040000      0.0000000E+00
  -2.030000      0.0000000E+00
  -2.020000      0.0000000E+00
  -2.010000      0.0000000E+00
  -2.000000      0.0000000E+00
  -1.990000      0.0000000E+00
  -1.980000      0.0000000E+00
  -1.970000      0.0000000E+00
  -1.960000      0.0000000E+00
  -1.950000      0.0000000E+00
  -1.940000      0.0000000E+00
  -1.930000      0.0000000E+00
  -1.920000      0.0000000E+00
  -1.910000      0.0000000E+00
  -1.900000      0.0000000E+00
  -1.890000      0.0000000E+00
  -1.880000      0.0000000E+00
  -1.870000      0.0000000E+00
  -1.860000      0.0000000E+00
  -1.850000      0.0000000E+00
  -1.840000      0.0000000E+00
  -1.830000      0.0000000E+00
  -1.820000      0.0000000E+00
  -1.810000      0.0000000E+00
  -1.800000      0.0000000E+00
  -1.790000      0.0000000E+00
  -1.780000      0.0000000E+00
  -1.770000      0.0000000E+00
  -1.760000      0.0000000E+00
  -1.750000      0.0000000E+00
  -1.740000      0.0000000E+00
  -1.730000      0.0000000E+00
  -1.720000      0.0000000E+00
  -1.710000      0.0000000E+00
  -1.700000      0.0000000E+00
  -1.690000      0.0000000E+00
  -1.680000      0.0000000E+00
  -1.670000      0.0000000E+00
  -1.660000      0.0000000E+00
  -1.650000      0.0000000E+00
  -1.640000      0.0000000E+00
  -1.630000      0.0000000E+00
  -1.620000      0.0000000E+00
  -1.610000      0.0000000E+00
  -1.600000      0.0000000E+00
  -1.590000      0.0000000E+00
  -1.580000      0.0000000E+00
  -1.570000      0.0000000E+00
  -1.560000      0.0000000E+00
  -1.550000      0.0000000E+00
  -1.540000      0.0000000E+00
  -1.530000      0.0000000E+00
  -1.520000      0.0000000E+00
  -1.510000      0.0000000E+00
  -1.500000      0.0000000E+00
  -1.490000      0.0000000E+00
  -1.480000      0.0000000E+00
  -1.470000      0.0000000E+00
  -1.460000      0.0000000E+00
  -1.450000      0.0000000E+00
  -1.440000      0.0000000E+00
  -1.430000      0.0000000E+00
  -1.420000      0.0000000E+00
  -1.410000      0.0000000E+00
  -1.400000      0.0000000E+00
  -1.390000      0.0000000E+00
  -1.380000      0.0000000E+00
  -1.370000      0.0000000E+00
  -1.360000      0.0000000E+00
  -1.350000      0.0000000E+00
  -1.340000      0.0000000E+00
  -1.330000      0.0000000E+00
  -1.320000      0.0000000E+00
  -1.310000      0.0000000E+00
  -1.300000      0.0000000E+00
  -1.290000      0.0000000E+00
  -1.280000      0.0000000E+00
  -1.270000      0.0000000E+00
  -1.260000      0.0000000E+00
  -1.250000      0.0000000E+00
  -1.240000      0.0000000E+00
  -1.230000      0.0000000E+00
  -1.220000      0.0000000E+00
  -1.210000      0.0000000E+00
  -1.200000      0.0000000E+00
  -1.190000      0.0000000E+00
  -1.180000      0.0000000E+00
  -1.170000      0.0000000E+00
  -1.160000      0.0000000E+00
  -1.150000      0.0000000E+00
  -1.140000      0.0000000E+00
  -1.130000      0.0000000E+00
  -1.120000      0.0000000E+00
  -1.110000      0.0000000E+00
  -1.100000      0.0000000E+00
  -1.090000      0.0000000E+00
  -1.080000      0.0000000E+00
  -1.070000      0.0000000E+00
  -1.060000      0.0000000E+00
  -1.050000      0.0000000E+00
  -1.040000      0.0000000E+00
  -1.030000      0.0000000E+00
  -1.020000      0.0000000E+00
  -1.010000      0.0000000E+00
  -1.000000      0.0000000E+00
 -0.9900000      0.0000000E+00
 -0.9800000      0.0000000E+00
 -0.9700000      0.0000000E+00
 -0.9600000      0.0000000E+00
 -0.9500000      0.0000000E+00
 -0.9400000      0.0000000E+00
 -0.9300000      0.0000000E+00
 -0.9200000      0.0000000E+00
 -0.9100000      0.0000000E+00
 -0.9000000      0.0000000E+00
 -0.8900000      0.0000000E+00
 -0.8800000      0.0000000E+00
 -0.8700000      0.0000000E+00
 -0.8600000      0.0000000E+00
 -0.8500000      0.0000000E+00
 -0.8400000      0.0000000E+00
 -0.8300000      0.0000000E+00
 -0.8200000      0.0000000E+00
 -0.8100000      0.0000000E+00
 -0.8000000      0.0000000E+00
 -0.7900000      0.0000000E+00
 -0.7800000      0.0000000E+00
 -0.7700000      0.0000000E+00
 -0.7600000      0.0000000E+00
 -0.7500000      0.0000000E+00
 -0.7400000      0.0000000E+00
 -0.7300000      0.0000000E+00
 -0.7200000      0.0000000E+00
 -0.7100000      0.0000000E+00
 -0.7000000      0.0000000E+00
 -0.6900000      0.0000000E+00
 -0.6800000      0.0000000E+00
 -0.6700000      0.0000000E+00
 -0.6600000      0.0000000E+00
 -0.6500000      0.0000000E+00
 -0.6400000      0.0000000E+00
 -0.6300000      0.0000000E+00
 -0.6200000      0.0000000E+00
 -0.6100000      0.0000000E+00
 -0.6000000      0.0000000E+00
 -0.5900000      0.0000000E+00
 -0.5800000      0.0000000E+00
 -0.5700000      0.0000000E+00
 -0.5600000      0.0000000E+00
 -0.5500000      0.0000000E+00
 -0.5400000      0.0000000E+00
 -0.5300000      0.0000000E+00
 -0.5200000      0.0000000E+00
 -0.5100000      0.0000000E+00
 -0.5000000      0.0000000E+00
 -0.4900000      0.0000000E+00
 -0.4800000      0.0000000E+00
 -0.4700000      0.0000000E+00
 -0.4600000      0.0000000E+00
 -0.4500000      0.0000000E+00
 -0.4400000      0.0000000E+00
 -0.4300000      0.0000000E+00
 -0.4200000      0.0000000E+00
 -0.4100000      0.0000000E+00
 -0.4000000      0.0000000E+00
 -0.3900000      0.0000000E+00
 -0.3800000      0.0000000E+00
 -0.3700000      0.0000000E+00
 -0.3600000      0.0000000E+00
 -0.3500000      0.0000000E+00
 -0.3400000      0.0000000E+00
 -0.3300000      0.0000000E+00
 -0.3200000      0.0000000E+00
 -0.3100000      0.0000000E+00
 -0.3000000      0.0000000E+00
 -0.2900000      0.0000000E+00
 -0.2800000      0.0000000E+00
 -0.2700000      0.0000000E+00
 -0.2600000      0.0000000E+00
 -0.2500000      0.0000000E+00
 -0.2400000      0.0000000E+00
 -0.2300000      0.0000000E+00
 -0.2200000      0.0000000E+00
 -0.2100000      0.0000000E+00
 -0.2000000      0.0000000E+00
 -0.1900000      0.0000000E+00
 -0.1800000      0.0000000E+00
 -0.1700000      0.0000000E+00
 -0.1600000      0.0000000E+00
 -0.1500000      0.0000000E+00
 -0.1400000      0.0000000E+00
 -0.1300000      0.0000000E+00
 -0.1200000      0.0000000E+00
 -0.1100000      0.0000000E+00
 -0.1000000      0.0000000E+00
 -9.0000004E-02  0.0000000E+00
 -7.9999998E-02  0.0000000E+00
 -7.0000000E-02  0.0000000E+00
 -5.9999999E-02  0.0000000E+00
 -5.0000001E-02  0.0000000E+00
 -3.9999999E-02  0.0000000E+00
 -2.9999999E-02  0.0000000E+00
 -2.0000000E-02  0.0000000E+00
 -9.9999998E-03  0.0000000E+00
 -3.4694470E-17  0.0000000E+00
  9.9999998E-03  0.0000000E+00
  2.0000000E-02  0.0000000E+00
  2.9999999E-02  0.0000000E+00
  3.9999999E-02  0.0000000E+00
  5.0000001E-02  0.0000000E+00
  5.9999999E-02  0.0000000E+00
  7.0000000E-02  0.0000000E+00
  7.9999998E-02  0.0000000E+00
  9.0000004E-02  0.0000000E+00
  0.1000000      0.0000000E+00
  0.1100000      0.0000000E+00
  0.1200000      0.0000000E+00
  0.1300000      0.0000000E+00
  0.1400000      0.0000000E+00
  0.1500000      0.0000000E+00
  0.1600000      0.0000000E+00
  0.1700000      0.0000000E+00
  0.1800000      0.0000000E+00
  0.1900000      0.0000000E+00
  0.2000000      0.0000000E+00
  0.2100000      0.0000000E+00
  0.2200000      0.0000000E+00
  0.2300000      0.0000000E+00
  0.2400000      0.0000000E+00
  0.2500000      0.0000000E+00
  0.2600000      0.0000000E+00
  0.2700000      0.0000000E+00
  0.2800000      0.0000000E+00
  0.2900000      0.0000000E+00
  0.3000000      0.0000000E+00
  0.3100000      0.0000000E+00
  0.3200000      0.0000000E+00
  0.3300000      0.0000000E+00
  0.3400000      0.0000000E+00
  0.3500000      0.0000000E+00
  0.3600000      0.0000000E+00
  0.3700000      0.0000000E+00
  0.3800000      0.0000000E+00
  0.3900000      0.0000000E+00
  0.4000000      0.0000000E+00
  0.4100000      0.0000000E+00
  0.4200000      0.0000000E+00
  0.4300000      0.0000000E+00
  0.4400000      0.0000000E+00
  0.4500000      0.0000000E+00
  0.4600000      0.0000000E+00
  0.4700000      0.0000000E+00
  0.4800000      0.0000000E+00
  0.4900000      0.0000000E+00
  0.5000000      0.0000000E+00
  0.5100000      0.0000000E+00
  0.5200000      0.0000000E+00
  0.5300000      0.0000000E+00
  0.5400000      0.0000000E+00
  0.5500000      0.0000000E+00
  0.5600000      0.0000000E+00
  0.5700000      0.0000000E+00
  0.5800000      0.0000000E+00
  0.5900000      0.0000000E+00
  0.6000000      0.0000000E+00
  0.6100000      0.0000000E+00
  0.6200000      0.0000000E+00
  0.6300000      0.0000000E+00
  0.6400000      0.0000000E+00
  0.6500000      0.0000000E+00
  0.6600000      0.0000000E+00
  0.6700000      0.0000000E+00
  0.6800000      0.0000000E+00
  0.6900000      0.0000000E+00
  0.7000000      0.0000000E+00
  0.7100000      0.0000000E+00
  0.7200000      0.0000000E+00
  0.7300000      0.0000000E+00
  0.7400000      0.0000000E+00
  0.7500000      0.0000000E+00
  0.7600000      0.0000000E+00
  0.7700000      0.0000000E+00
  0.7800000      0.0000000E+00
  0.7900000      0.0000000E+00
  0.8000000      0.0000000E+00
  0.8100000      0.0000000E+00
  0.8200000      0.0000000E+00
  0.8300000      0.0000000E+00
  0.8400000      0.0000000E+00
  0.8500000      0.0000000E+00
  0.8600000      0.0000000E+00
  0.8700000      0.0000000E+00
  0.8800000      0.0000000E+00
  0.8900000      0.0000000E+00
  0.9000000      0.0000000E+00
  0.9100000      0.0000000E+00
  0.9200000      0.0000000E+00
  0.9300000      0.0000000E+00
  0.9400000      0.0000000E+00
  0.9500000      0.0000000E+00
  0.9600000      0.0000000E+00
  0.9700000      0.0000000E+00
  0.9800000      0.0000000E+00
  0.9900000      0.0000000E+00
   1.000000      0.0000000E+00
   1.010000      0.0000000E+00
   1.020000      0.0000000E+00
   1.030000      0.0000000E+00
   1.040000      0.0000000E+00
   1.050000      0.0000000E+00
   1.060000      0.0000000E+00
   1.070000      0.0000000E+00
   1.080000      0.0000000E+00
   1.090000      0.0000000E+00
   1.100000      0.0000000E+00
   1.110000      0.0000000E+00
   1.120000      0.0000000E+00
   1.130000      0.0000000E+00
   1.140000      0.0000000E+00
   1.150000      0.0000000E+00
   1.160000      0.0000000E+00
   1.170000      0.0000000E+00
   1.180000      0.0000000E+00
   1.190000      0.0000000E+00
   1.200000      0.0000000E+00
   1.210000      0.0000000E+00
   1.220000      0.0000000E+00
   1.230000      0.0000000E+00
   1.240000      0.0000000E+00
   1.250000      0.0000000E+00
   1.260000      0.0000000E+00
   1.270000      0.0000000E+00
   1.280000      0.0000000E+00
   1.290000      0.0000000E+00
   1.300000      0.0000000E+00
   1.310000      0.0000000E+00
   1.320000      0.0000000E+00
   1.330000      0.0000000E+00
   1.340000      0.0000000E+00
   1.350000      0.0000000E+00
   1.360000      0.0000000E+00
   1.370000      0.0000000E+00
   1.380000      0.0000000E+00
   1.390000      0.0000000E+00
   1.400000      0.0000000E+00
   1.410000      0.0000000E+00
   1.420000      0.0000000E+00
   1.430000      0.0000000E+00
   1.440000      0.0000000E+00
   1.450000      0.0000000E+00
   1.460000      0.0000000E+00
   1.470000      0.0000000E+00
   1.480000      0.0000000E+00
   1.490000      0.0000000E+00
   1.500000      0.0000000E+00
   1.510000      0.0000000E+00
   1.520000      0.0000000E+00
   1.530000      0.0000000E+00
   1.540000      0.0000000E+00
   1.550000      0.0000000E+00
   1.560000      0.0000000E+00
   1.570000      0.0000000E+00
   1.580000      0.0000000E+00
   1.590000      0.0000000E+00
   1.600000      0.0000000E+00
   1.610000      0.0000000E+00
   1.620000      0.0000000E+00
   1.630000      0.0000000E+00
   1.640000      0.0000000E+00
   1.650000      0.0000000E+00
   1.660000      0.0000000E+00
   1.670000      0.0000000E+00
   1.680000      0.0000000E+00
   1.690000      0.0000000E+00
   1.700000      0.0000000E+00
   1.710000      0.0000000E+00
   1.720000      0.0000000E+00
   1.730000      0.0000000E+00
   1.740000      0.0000000E+00
   1.750000      0.0000000E+00
   1.760000      0.0000000E+00
   1.770000      0.0000000E+00
   1.780000      0.0000000E+00
   1.790000      0.0000000E+00
   1.800000      0.0000000E+00
   1.810000      0.0000000E+00
   1.820000      0.0000000E+00
   1.830000      0.0000000E+00
   1.840000      0.0000000E+00
   1.850000      0.0000000E+00
   1.860000      0.0000000E+00
   1.870000      0.0000000E+00
   1.880000      0.0000000E+00
   1.890000      0.0000000E+00
   1.900000      0.0000000E+00
   1.910000      0.0000000E+00
   1.920000      0.0000000E+00
   1.930000      0.0000000E+00
   1.940000      0.0000000E+00
   1.950000     -1.2436406E-38
   1.960000     -1.8366383E-38
   1.970000     -2.4349996E-38
   1.980000     -3.0026648E-38
   1.990000     -3.5071294E-38
   2.000000     -3.9220164E-38
   2.010000     -4.1042499E-38
   2.020000     -4.1042499E-38
   2.030000     -4.1042499E-38
   2.040000     -4.1042499E-38
   2.050000     -4.1042499E-38
   2.060000     -4.1042499E-38
   2.070000     -4.1042499E-38
   2.080000     -4.3093877E-38
   2.090000     -4.7581992E-38
   2.100000     -5.2697499E-38
   2.110000     -5.5993028E-38
   2.120000     -5.6479856E-38
   2.130000     -5.5405520E-38
   2.140000     -5.2646649E-38
   2.150000     -4.1155794E-38
   2.160000     -2.1253417E-38
   2.170000      0.0000000E+00
   2.180000      2.0681415E-38
   2.190000      4.1874282E-38
   2.200000      6.2788104E-38
   2.210000      8.3221126E-38
   2.220000      1.0104123E-37
   2.230000      1.1619046E-37
   2.240000      1.3299911E-37
   2.250000      1.5170355E-37
   2.260000      1.7029253E-37
   2.270000      1.8895781E-37
   2.280000      2.0318068E-37
   2.290000      2.1660597E-37
   2.300000      2.3610996E-37
   2.310000      2.6580668E-37
   2.320000      3.0521359E-37
   2.330000      3.4906289E-37
   2.340000      3.9626375E-37
   2.350000      4.4483742E-37
   2.360000      4.9224337E-37
   2.370000      5.3162878E-37
   2.380000      5.5979699E-37
   2.390000      5.7761020E-37
   2.400000      5.8387067E-37
   2.410000      5.8170007E-37
   2.420000      5.7091491E-37
   2.430000      5.5089092E-37
   2.440000      5.2398025E-37
   2.450000      5.0686149E-37
   2.460000      5.0196291E-37
   2.470000      4.9555927E-37
   2.480000      4.8102514E-37
   2.490000      4.5744314E-37
   2.500000      4.3045046E-37
   2.510000      3.9925921E-37
   2.520000      3.6214774E-37
   2.530000      2.6589192E-37
   2.540000      1.0105140E-37
   2.550000     -8.5801796E-38
   2.560000     -2.9602228E-37
   2.570000     -5.3115956E-37
   2.580000     -7.8607597E-37
   2.590000     -1.0531570E-36
   2.600000     -1.2781972E-36
   2.610000     -1.4617066E-36
   2.620000     -1.6509802E-36
   2.630000     -1.8289538E-36
   2.640000     -1.9920455E-36
   2.650000     -2.1031963E-36
   2.660000     -2.1526922E-36
   2.670000     -2.4075814E-36
   2.680000     -2.9272064E-36
   2.690000     -3.7520881E-36
   2.700000     -4.9693966E-36
   2.710000     -6.3466471E-36
   2.720000     -7.7682096E-36
   2.730000     -9.2796820E-36
   2.740000     -1.0915302E-35
   2.750000     -1.2291540E-35
   2.760000     -1.3281618E-35
   2.770000     -1.3760657E-35
   2.780000     -1.3523919E-35
   2.790000     -1.2936363E-35
   2.800000     -1.2166573E-35
   2.810000     -1.1130669E-35
   2.820000     -9.8133280E-36
   2.830000     -8.2210003E-36
   2.840000     -6.3498334E-36
   2.850000     -4.2144758E-36
   2.860000     -2.1454393E-36
   2.870000     -2.9453453E-37
   2.880000      1.2647251E-36
   2.890000      2.5078945E-36
   2.900000      3.3718966E-36
   2.910000      3.7088852E-36
   2.920000      3.5868925E-36
   2.930000      2.7883635E-36
   2.940000      1.6300734E-36
   2.950000      1.3247150E-36
   2.960000      1.8988730E-36
   2.970000      3.1989170E-36
   2.980000      5.2706809E-36
   2.990000      7.3910929E-36
   3.000000      9.4372602E-36
   3.010000      1.1514307E-35
   3.020000      1.3492247E-35
   3.030000      1.5520756E-35
   3.040000      1.7842852E-35
   3.050000      2.0777584E-35
   3.060000      2.4590762E-35
   3.070000      2.9070291E-35
   3.080000      3.3242134E-35
   3.090000      3.6559573E-35
   3.100000      3.9821099E-35
   3.110000      4.3173018E-35
   3.120000      4.6243348E-35
   3.130000      4.9121550E-35
   3.140000      5.1779235E-35
   3.150000      5.4114026E-35
   3.160000      5.5772541E-35
   3.170000      5.6711708E-35
   3.180000      5.7323533E-35
   3.190000      5.7725675E-35
   3.200000      5.8067665E-35
   3.210000      5.8452409E-35
   3.220000      5.8521120E-35
   3.230000      5.8029811E-35
   3.240000      5.7114039E-35
   3.250000      5.5619755E-35
   3.260000      5.3836000E-35
   3.270000      5.1393055E-35
   3.280000      4.7965550E-35
   3.290000      4.3998619E-35
   3.300000      3.9459141E-35
   3.310000      3.3811709E-35
   3.320000      2.6761231E-35
   3.330000      1.8494957E-35
   3.340000      9.4849021E-36
   3.350000      2.6823678E-37
   3.360000     -9.0139797E-36
   3.370000     -1.8594922E-35
   3.380000     -2.8377539E-35
   3.390000     -3.8101709E-35
   3.400000     -4.9566246E-35
   3.410000     -6.2473237E-35
   3.420000     -7.5344338E-35
   3.430000     -8.4773117E-35
   3.440000     -9.0371828E-35
   3.450000     -9.5525986E-35
   3.460000     -1.0235927E-34
   3.470000     -1.1104666E-34
   3.480000     -1.1978640E-34
   3.490000     -1.2851473E-34
   3.500000     -1.3711936E-34
   3.510000     -1.4568055E-34
   3.520000     -1.5386950E-34
   3.530000     -1.6181152E-34
   3.540000     -1.6984950E-34
   3.550000     -1.7817358E-34
   3.560000     -1.8641703E-34
   3.570000     -1.9427829E-34
   3.580000     -2.0176534E-34
   3.590000     -2.0852094E-34
   3.600000     -2.1449259E-34
   3.610000     -2.1966580E-34
   3.620000     -2.2529679E-34
   3.630000     -2.3297731E-34
   3.640000     -2.4150685E-34
   3.650000     -2.4930203E-34
   3.660000     -2.5283699E-34
   3.670000     -2.5172300E-34
   3.680000     -2.5076318E-34
   3.690000     -2.4923545E-34
   3.700000     -2.4475280E-34
   3.710000     -2.3846877E-34
   3.720000     -2.2823970E-34
   3.730000     -2.1086160E-34
   3.740000     -1.8695993E-34
   3.750000     -1.5953815E-34
   3.760000     -1.3003138E-34
   3.770000     -9.8714319E-35
   3.780000     -6.1398567E-35
   3.790000     -1.7585582E-35
   3.800000      2.6448884E-35
   3.810000      7.0477923E-35
   3.820000      1.1578367E-34
   3.830000      1.6117655E-34
   3.840000      2.0481058E-34
   3.850000      2.4847882E-34
   3.860000      2.9322312E-34
   3.870000      3.3686885E-34
   3.880000      3.7716838E-34
   3.890000      4.1535413E-34
   3.900000      4.5255013E-34
   3.910000      4.8740161E-34
   3.920000      5.2117852E-34
   3.930000      5.5756521E-34
   3.940000      5.9656398E-34
   3.950000      6.3475896E-34
   3.960000      6.7342620E-34
   3.970000      7.1301240E-34
   3.980000      7.5518124E-34
   3.990000      8.0149328E-34
   4.000000      8.5199730E-34
   4.010000      9.0889563E-34
   4.020000      9.6792519E-34
   4.030000      1.0250857E-33
   4.040000      1.0841736E-33
   4.050000      1.1497514E-33
   4.060000      1.2158100E-33
   4.070000      1.2756243E-33
   4.080000      1.3300615E-33
   4.090000      1.3790204E-33
   4.100000      1.4206760E-33
   4.110000      1.4546645E-33
   4.120000      1.4796361E-33
   4.130000      1.4960413E-33
   4.140000      1.5058826E-33
   4.150000      1.5054303E-33
   4.160000      1.4916256E-33
   4.170000      1.4644295E-33
   4.180000      1.4239415E-33
   4.190000      1.3697560E-33
   4.200000      1.3018350E-33
   4.210000      1.2259807E-33
   4.220000      1.1421636E-33
   4.230000      1.0486743E-33
   4.240000      9.4821334E-34
   4.250000      8.3715741E-34
   4.260000      7.1567912E-34
   4.270000      5.8813513E-34
   4.280000      4.5245622E-34
   4.290000      3.0638142E-34
   4.300000      1.5037674E-34
   4.310000     -1.5262214E-35
   4.320000     -1.9128865E-34
   4.330000     -3.7931915E-34
   4.340000     -5.7999750E-34
   4.350000     -7.9419594E-34
   4.360000     -1.0218457E-33
   4.370000     -1.2625660E-33
   4.380000     -1.5163923E-33
   4.390000     -1.7845734E-33
   4.400000     -2.0688649E-33
   4.410000     -2.3706224E-33
   4.420000     -2.6902186E-33
   4.430000     -3.0255718E-33
   4.440000     -3.3744251E-33
   4.450000     -3.7362353E-33
   4.460000     -4.1124534E-33
   4.470000     -4.5024108E-33
   4.480000     -4.9033271E-33
   4.490000     -5.3145683E-33
   4.500000     -5.7345015E-33
   4.510000     -6.1603982E-33
   4.520000     -6.5911945E-33
   4.530000     -7.0250533E-33
   4.540000     -7.4584595E-33
   4.550000     -7.8900944E-33
   4.560000     -8.3176893E-33
   4.570000     -8.7401825E-33
   4.580000     -9.1558476E-33
   4.590000     -9.5605071E-33
   4.600000     -9.9530157E-33
   4.610000     -1.0329630E-32
   4.620000     -1.0687058E-32
   4.630000     -1.1024966E-32
   4.640000     -1.1341074E-32
   4.650000     -1.1632629E-32
   4.660000     -1.1897529E-32
   4.670000     -1.2132567E-32
   4.680000     -1.2334170E-32
   4.690000     -1.2500083E-32
   4.700000     -1.2627266E-32
   4.710000     -1.2712335E-32
   4.720000     -1.2751695E-32
   4.730000     -1.2741273E-32
   4.740000     -1.2678262E-32
   4.750000     -1.2557671E-32
   4.760000     -1.2374416E-32
   4.770000     -1.2125278E-32
   4.780000     -1.1805323E-32
   4.790000     -1.1410153E-32
   4.800000     -1.0934890E-32
   4.810000     -1.0374126E-32
   4.820000     -9.7228356E-33
   4.830000     -8.9758655E-33
   4.840000     -8.1281636E-33
   4.850000     -7.1749229E-33
   4.860000     -6.1111806E-33
   4.870000     -4.9318821E-33
   4.880000     -3.6322937E-33
   4.890000     -2.2087647E-33
   4.900000     -6.5712853E-34
   4.910000      1.0267063E-33
   4.920000      2.8454441E-33
   4.930000      4.8023106E-33
   4.940000      6.9000600E-33
   4.950000      9.1408880E-33
   4.960000      1.1526266E-32
   4.970000      1.4057393E-32
   4.980000      1.6735972E-32
   4.990000      1.9562384E-32
   5.000000      2.2535887E-32
   5.010000      2.5655814E-32
   5.020000      2.8922001E-32
   5.030000      3.2332533E-32
   5.040000      3.5884686E-32
   5.050000      3.9576291E-32
   5.060000      4.3402616E-32
   5.070000      4.7358878E-32
   5.080000      5.1440538E-32
   5.090000      5.5641238E-32
   5.100000      5.9954015E-32
   5.110000      6.4370823E-32
   5.120000      6.8882517E-32
   5.130000      7.3478747E-32
   5.140000      7.8147611E-32
   5.150000      8.2875825E-32
   5.160000      8.7649614E-32
   5.170000      9.2454606E-32
   5.180000      9.7272334E-32
   5.190000      1.0208307E-31
   5.200000      1.0686741E-31
   5.210000      1.1160314E-31
   5.220000      1.1626611E-31
   5.230000      1.2083104E-31
   5.240000      1.2527110E-31
   5.250000      1.2955760E-31
   5.260000      1.3365928E-31
   5.270000      1.3754310E-31
   5.280000      1.4117514E-31
   5.290000      1.4451955E-31
   5.300000      1.4753864E-31
   5.310000      1.5019291E-31
   5.320000      1.5244145E-31
   5.330000      1.5424206E-31
   5.340000      1.5555095E-31
   5.350000      1.5632282E-31
   5.360000      1.5651109E-31
   5.370000      1.5606792E-31
   5.380000      1.5494428E-31
   5.390000      1.5309011E-31
   5.400000      1.5045427E-31
   5.410000      1.4698481E-31
   5.420000      1.4262902E-31
   5.430000      1.3733372E-31
   5.440000      1.3104470E-31
   5.450000      1.2370766E-31
   5.460000      1.1526873E-31
   5.470000      1.0567358E-31
   5.480000      9.4868307E-32
   5.490000      8.2799530E-32
   5.500000      6.9414740E-32
   5.510000      5.4662580E-32
   5.520000      3.8493182E-32
   5.530000      2.0858430E-32
   5.540000      1.7121191E-33
   5.550000     -1.8989566E-32
   5.560000     -4.1287282E-32
   5.570000     -6.5218472E-32
   5.580000     -9.0817071E-32
   5.590000     -1.1811281E-31
   5.600000     -1.4713068E-31
   5.610000     -1.7789066E-31
   5.620000     -2.1040721E-31
   5.630000     -2.4468827E-31
   5.640000     -2.8073539E-31
   5.650000     -3.1854317E-31
   5.660000     -3.5809820E-31
   5.670000     -3.9937886E-31
   5.680000     -4.4235465E-31
   5.690000     -4.8698573E-31
   5.700000     -5.3322248E-31
   5.710000     -5.8100473E-31
   5.720000     -6.3026123E-31
   5.730000     -6.8090948E-31
   5.740000     -7.3285476E-31
   5.750000     -7.8598974E-31
   5.760000     -8.4019427E-31
   5.770000     -8.9533446E-31
   5.780000     -9.5126269E-31
   5.790000     -1.0078167E-30
   5.800000     -1.0648193E-30
   5.810000     -1.1220781E-30
   5.820000     -1.1793849E-30
   5.830000     -1.2365154E-30
   5.840000     -1.2932288E-30
   5.850000     -1.3492679E-30
   5.860000     -1.4043585E-30
   5.870000     -1.4582093E-30
   5.880000     -1.5105121E-30
   5.890000     -1.5609412E-30
   5.900000     -1.6091536E-30
   5.910000     -1.6547893E-30
   5.920000     -1.6974714E-30
   5.930000     -1.7368061E-30
   5.940000     -1.7723833E-30
   5.950000     -1.8037769E-30
   5.960000     -1.8305456E-30
   5.970000     -1.8522328E-30
   5.980000     -1.8683687E-30
   5.990000     -1.8784693E-30
   6.000000     -1.8820391E-30
   6.010000     -1.8785707E-30
   6.020000     -1.8675472E-30
   6.030000     -1.8484438E-30
   6.040000     -1.8207277E-30
   6.050000     -1.7838610E-30
   6.060000     -1.7373024E-30
   6.070000     -1.6805084E-30
   6.080000     -1.6129362E-30
   6.090000     -1.5340455E-30
   6.100000     -1.4433006E-30
   6.110000     -1.3401729E-30
   6.120000     -1.2241443E-30
   6.130000     -1.0947084E-30
   6.140000     -9.5137479E-31
   6.150000     -7.9367112E-31
   6.160000     -6.2114739E-31
   6.170000     -4.3337754E-31
   6.180000     -2.2996363E-31
   6.190000     -1.0539705E-32
   6.200000      2.2522481E-31
   6.210000      4.7762207E-31
   6.220000      7.4690178E-31
   6.230000      1.0332661E-30
   6.240000      1.3368673E-30
   6.250000      1.6578027E-30
   6.260000      1.9961115E-30
   6.270000      2.3517679E-30
   6.280000      2.7246797E-30
   6.290000      3.1146841E-30
   6.300000      3.5215418E-30
   6.310000      3.9449342E-30
   6.320000      4.3844574E-30
   6.330000      4.8396190E-30
   6.340000      5.3098347E-30
   6.350000      5.7944220E-30
   6.360000      6.2925999E-30
   6.370000      6.8034807E-30
   6.380000      7.3260690E-30
   6.390000      7.8592574E-30
   6.400000      8.4018257E-30
   6.410000      8.9524318E-30
   6.420000      9.5096139E-30
   6.430000      1.0071787E-29
   6.440000      1.0637240E-29
   6.450000      1.1204131E-29
   6.460000      1.1770493E-29
   6.470000      1.2334225E-29
   6.480000      1.2893094E-29
   6.490000      1.3444736E-29
   6.500000      1.3986652E-29
   6.510000      1.4516217E-29
   6.520000      1.5030667E-29
   6.530000      1.5527117E-29
   6.540000      1.6002549E-29
   6.550000      1.6453823E-29
   6.560000      1.6877678E-29
   6.570000      1.7270736E-29
   6.580000      1.7629510E-29
   6.590000      1.7950398E-29
   6.600000      1.8229700E-29
   6.610000      1.8463624E-29
   6.620000      1.8648285E-29
   6.630000      1.8779720E-29
   6.640000      1.8853900E-29
   6.650000      1.8866732E-29
   6.660000      1.8814070E-29
   6.670000      1.8691732E-29
   6.680000      1.8495507E-29
   6.690000      1.8221174E-29
   6.700000      1.7864506E-29
   6.710000      1.7421297E-29
   6.720000      1.6887366E-29
   6.730000      1.6258577E-29
   6.740000      1.5530859E-29
   6.750000      1.4700223E-29
   6.760000      1.3762781E-29
   6.770000      1.2714765E-29
   6.780000      1.1552543E-29
   6.790000      1.0272643E-29
   6.800000      8.8717812E-30
   6.810000      7.3468766E-30
   6.820000      5.6950715E-30
   6.830000      3.9137609E-30
   6.840000      2.0006195E-30
   6.850000     -4.6375339E-32
   6.860000     -2.2289237E-30
   6.870000     -4.5483788E-30
   6.880000     -7.0057101E-30
   6.890000     -9.6014830E-30
   6.900000     -1.2335836E-29
   6.910000     -1.5208449E-29
   6.920000     -1.8218518E-29
   6.930000     -2.1364728E-29
   6.940000     -2.4645229E-29
   6.950000     -2.8057612E-29
   6.960000     -3.1598886E-29
   6.970000     -3.5265435E-29
   6.980000     -3.9053005E-29
   6.990000     -4.2956685E-29
   7.000000     -4.6970873E-29
   7.010000     -5.1089258E-29
   7.020000     -5.5304800E-29
   7.030000     -5.9609704E-29
   7.040000     -6.3995402E-29
   7.050000     -6.8452522E-29
   7.060000     -7.2970910E-29