  -2.600000      0.0000000E+00
  -2.590000      0.0000000E+00
  -2.580000      0.0000000E+00
  -2.570000      0.0000000E+00
  -2.560000      0.0000000E+00
  -2.550000      0.0000000E+00
  -2.540000      0.0000000E+00
  -2.530000      0.0000000E+00
  -2.520000      0.0000000E+00
  -2.510000      0.0000000E+00
  -2.500000      0.0000000E+00
  -2.490000      0.0000000E+00
  -2.480000      0.0000000E+00
  -2.470000      0.0000000E+00
  -2.460000      0.0000000E+00
  -2.450000      0.0000000E+00
  -2.440000      0.0000000E+00
  -2.430000      0.0000000E+00
  -2.420000      0.0000000E+00
  -2.410000      0.0000000E+00
  -2.400000      0.0000000E+00
  -2.390000      0.0000000E+00
  -2.380000      0.0000000E+00
  -2.370000      0.0000000E+00
  -2.360000      0.0000000E+00
  -2.350000      0.0000000E+00
  -2.340000      0.0000000E+00
  -2.330000      0.0000000E+00
  -2.320000      0.0000000E+00
  -2.310000      0.0000000E+00
  -2.300000      0.0000000E+00
  -2.290000      0.0000000E+00
  -2.280000      0.0000000E+00
  -2.270000      0.0000000E+00
  -2.260000      0.0000000E+00
  -2.250000      0.0000000E+00
  -2.240000      0.0000000E+00
  -2.230000      0.0000000E+00
  -2.220000      0.0000000E+00
  -2.210000      0.0000000E+00
  -2.200000      0.0000000E+00
  -2.190000      0.0000000E+00
  -2.180000      0.0000000E+00
  -2.170000      0.0000000E+00
  -2.160000      0.0000000E+00
  -2.150000      0.0000000E+00
  -2.140000      0.0000000E+00
  -2.130000      0.0000000E+00
  -2.120000      0.0000000E+00
  -2.110000      0.0000000E+00
  -2.100000      0.0000000E+00
  -2.090000      0.0000000E+00
  -2.080000      0.0000000E+00
  -2.070000      0.0000000E+00
  -2.060000      0.0000000E+00
  -2.050000      0.0000000E+00
  -2.040000      0.0000000E+00
  -2.030000      0.0000000E+00
  -2.020000      0.0000000E+00
  -2.010000      0.0000000E+00
  -2.000000      0.0000000E+00
  -1.990000      0.0000000E+00
  -1.980000      0.0000000E+00
  -1.970000      0.0000000E+00
  -1.960000      0.0000000E+00
  -1.950000      0.0000000E+00
  -1.940000      0.0000000E+00
  -1.930000      0.0000000E+00
  -1.920000      0.0000000E+00
  -1.910000      0.0000000E+00
  -1.900000      0.0000000E+00
  -1.890000      0.0000000E+00
  -1.880000      0.0000000E+00
  -1.870000      0.0000000E+00
  -1.860000      0.0000000E+00
  -1.850000      0.0000000E+00
  -1.840000      0.0000000E+00
  -1.830000      0.0000000E+00
  -1.820000      0.0000000E+00
  -1.810000      0.0000000E+00
  -1.800000      0.0000000E+00
  -1.790000      0.0000000E+00
  -1.780000      0.0000000E+00
  -1.770000      0.0000000E+00
  -1.760000      0.0000000E+00
  -1.750000      0.0000000E+00
  -1.740000      0.0000000E+00
  -1.730000      0.0000000E+00
  -1.720000      0.0000000E+00
  -1.710000      0.0000000E+00
  -1.700000      0.0000000E+00
  -1.690000      0.0000000E+00
  -1.680000      0.0000000E+00
  -1.670000      0.0000000E+00
  -1.660000      0.0000000E+00
  -1.650000      0.0000000E+00
  -1.640000      0.0000000E+00
  -1.630000      0.0000000E+00
  -1.620000      0.0000000E+00
  -1.610000      0.0000000E+00
  -1.600000      0.0000000E+00
  -1.590000      0.0000000E+00
  -1.580000      0.0000000E+00
  -1.570000      0.0000000E+00
  -1.560000      0.0000000E+00
  -1.550000      0.0000000E+00
  -1.540000      0.0000000E+00
  -1.530000      0.0000000E+00
  -1.520000      0.0000000E+00
  -1.510000      0.0000000E+00
  -1.500000      0.0000000E+00
  -1.490000      0.0000000E+00
  -1.480000      0.0000000E+00
  -1.470000      0.0000000E+00
  -1.460000      0.0000000E+00
  -1.450000      0.0000000E+00
  -1.440000      0.0000000E+00
  -1.430000      0.0000000E+00
  -1.420000      0.0000000E+00
  -1.410000      0.0000000E+00
  -1.400000      0.0000000E+00
  -1.390000      0.0000000E+00
  -1.380000      0.0000000E+00
  -1.370000      0.0000000E+00
  -1.360000      0.0000000E+00
  -1.350000      0.0000000E+00
  -1.340000      0.0000000E+00
  -1.330000      0.0000000E+00
  -1.320000      0.0000000E+00
  -1.310000      0.0000000E+00
  -1.300000      0.0000000E+00
  -1.290000      0.0000000E+00
  -1.280000      0.0000000E+00
  -1.270000      0.0000000E+00
  -1.260000      0.0000000E+00
  -1.250000      0.0000000E+00
  -1.240000      0.0000000E+00
  -1.230000      0.0000000E+00
  -1.220000      0.0000000E+00
  -1.210000      0.0000000E+00
  -1.200000      0.0000000E+00
  -1.190000      0.0000000E+00
  -1.180000      0.0000000E+00
  -1.170000      0.0000000E+00
  -1.160000      0.0000000E+00
  -1.150000      0.0000000E+00
  -1.140000      0.0000000E+00
  -1.130000      0.0000000E+00
  -1.120000      0.0000000E+00
  -1.110000      0.0000000E+00
  -1.100000      0.0000000E+00
  -1.090000      0.0000000E+00
  -1.080000      0.0000000E+00
  -1.070000      0.0000000E+00
  -1.060000      0.0000000E+00
  -1.050000      0.0000000E+00
  -1.040000      0.0000000E+00
  -1.030000      0.0000000E+00
  -1.020000      0.0000000E+00
  -1.010000      0.0000000E+00
  -1.000000      0.0000000E+00
 -0.9900000      0.0000000E+00
 -0.9800000      0.0000000E+00
 -0.9700000      0.0000000E+00
 -0.9600000      0.0000000E+00
 -0.9500000      0.0000000E+00
 -0.9400000      0.0000000E+00
 -0.9300000      0.0000000E+00
 -0.9200000      0.0000000E+00
 -0.9100000      0.0000000E+00
 -0.9000000      0.0000000E+00
 -0.8900000      0.0000000E+00
 -0.8800000      0.0000000E+00
 -0.8700000      0.0000000E+00
 -0.8600000      0.0000000E+00
 -0.8500000      0.0000000E+00
 -0.8400000      0.0000000E+00
 -0.8300000      0.0000000E+00
 -0.8200000      0.0000000E+00
 -0.8100000      0.0000000E+00
 -0.8000000      0.0000000E+00
 -0.7900000      0.0000000E+00
 -0.7800000      0.0000000E+00
 -0.7700000      0.0000000E+00
 -0.7600000      0.0000000E+00
 -0.7500000      0.0000000E+00
 -0.7400000      0.0000000E+00
 -0.7300000      0.0000000E+00
 -0.7200000      0.0000000E+00
 -0.7100000      0.0000000E+00
 -0.7000000      0.0000000E+00
 -0.6900000      0.0000000E+00
 -0.6800000      0.0000000E+00
 -0.6700000      0.0000000E+00
 -0.6600000      0.0000000E+00
 -0.6500000      0.0000000E+00
 -0.6400000      0.0000000E+00
 -0.6300000      0.0000000E+00
 -0.6200000      0.0000000E+00
 -0.6100000      0.0000000E+00
 -0.6000000      0.0000000E+00
 -0.5900000      0.0000000E+00
 -0.5800000      0.0000000E+00
 -0.5700000      0.0000000E+00
 -0.5600000      0.0000000E+00
 -0.5500000      0.0000000E+00
 -0.5400000      0.0000000E+00
 -0.5300000      0.0000000E+00
 -0.5200000      0.0000000E+00
 -0.5100000      0.0000000E+00
 -0.5000000      0.0000000E+00
 -0.4900000      0.0000000E+00
 -0.4800000      0.0000000E+00
 -0.4700000      0.0000000E+00
 -0.4600000      0.0000000E+00
 -0.4500000      0.0000000E+00
 -0.4400000      0.0000000E+00
 -0.4300000      0.0000000E+00
 -0.4200000      0.0000000E+00
 -0.4100000      0.0000000E+00
 -0.4000000      0.0000000E+00
 -0.3900000      0.0000000E+00
 -0.3800000      0.0000000E+00
 -0.3700000      0.0000000E+00
 -0.3600000      0.0000000E+00
 -0.3500000      0.0000000E+00
 -0.3400000      0.0000000E+00
 -0.3300000      0.0000000E+00
 -0.3200000      0.0000000E+00
 -0.3100000      0.0000000E+00
 -0.3000000      0.0000000E+00
 -0.2900000      0.0000000E+00
 -0.2800000      0.0000000E+00
 -0.2700000      0.0000000E+00
 -0.2600000      0.0000000E+00
 -0.2500000      0.0000000E+00
 -0.2400000      0.0000000E+00
 -0.2300000      0.0000000E+00
 -0.2200000      0.0000000E+00
 -0.2100000      0.0000000E+00
 -0.2000000      0.0000000E+00
 -0.1900000      0.0000000E+00
 -0.1800000      0.0000000E+00
 -0.1700000      0.0000000E+00
 -0.1600000      0.0000000E+00
 -0.1500000      0.0000000E+00
 -0.1400000      0.0000000E+00
 -0.1300000      0.0000000E+00
 -0.1200000      0.0000000E+00
 -0.1100000      0.0000000E+00
 -0.1000000      0.0000000E+00
 -9.0000004E-02  0.0000000E+00
 -7.9999998E-02  0.0000000E+00
 -7.0000000E-02  0.0000000E+00
 -5.9999999E-02  0.0000000E+00
 -5.0000001E-02  0.0000000E+00
 -3.9999999E-02  0.0000000E+00
 -2.9999999E-02  0.0000000E+00
 -2.0000000E-02  0.0000000E+00
 -9.9999998E-03  0.0000000E+00
 -3.4694470E-17  0.0000000E+00
  9.9999998E-03  0.0000000E+00
  2.0000000E-02  0.0000000E+00
  2.9999999E-02  0.0000000E+00
  3.9999999E-02  0.0000000E+00
  5.0000001E-02  0.0000000E+00
  5.9999999E-02  0.0000000E+00
  7.0000000E-02  0.0000000E+00
  7.9999998E-02  0.0000000E+00
  9.0000004E-02  0.0000000E+00
  0.1000000      0.0000000E+00
  0.1100000      0.0000000E+00
  0.1200000      0.0000000E+00
  0.1300000      0.0000000E+00
  0.1400000      0.0000000E+00
  0.1500000      0.0000000E+00
  0.1600000      0.0000000E+00
  0.1700000      0.0000000E+00
  0.1800000      0.0000000E+00
  0.1900000      0.0000000E+00
  0.2000000      0.0000000E+00
  0.2100000      0.0000000E+00
  0.2200000      0.0000000E+00
  0.2300000      0.0000000E+00
  0.2400000      0.0000000E+00
  0.2500000      0.0000000E+00
  0.2600000      0.0000000E+00
  0.2700000      0.0000000E+00
  0.2800000      0.0000000E+00
  0.2900000      0.0000000E+00
  0.3000000      0.0000000E+00
  0.3100000      0.0000000E+00
  0.3200000      0.0000000E+00
  0.3300000      0.0000000E+00
  0.3400000      0.0000000E+00
  0.3500000      0.0000000E+00
  0.3600000      0.0000000E+00
  0.3700000      0.0000000E+00
  0.3800000      0.0000000E+00
  0.3900000      0.0000000E+00
  0.4000000      0.0000000E+00
  0.4100000      0.0000000E+00
  0.4200000      0.0000000E+00
  0.4300000      0.0000000E+00
  0.4400000      0.0000000E+00
  0.4500000      0.0000000E+00
  0.4600000      0.0000000E+00
  0.4700000      0.0000000E+00
  0.4800000      0.0000000E+00
  0.4900000      0.0000000E+00
  0.5000000      0.0000000E+00
  0.5100000      0.0000000E+00
  0.5200000      0.0000000E+00
  0.5300000      0.0000000E+00
  0.5400000      0.0000000E+00
  0.5500000      0.0000000E+00
  0.5600000      0.0000000E+00
  0.5700000      0.0000000E+00
  0.5800000      0.0000000E+00
  0.5900000      0.0000000E+00
  0.6000000      0.0000000E+00
  0.6100000      0.0000000E+00
  0.6200000      0.0000000E+00
  0.6300000      0.0000000E+00
  0.6400000      0.0000000E+00
  0.6500000      0.0000000E+00
  0.6600000      0.0000000E+00
  0.6700000      0.0000000E+00
  0.6800000      0.0000000E+00
  0.6900000      0.0000000E+00
  0.7000000      0.0000000E+00
  0.7100000      0.0000000E+00
  0.7200000      0.0000000E+00
  0.7300000      0.0000000E+00
  0.7400000      0.0000000E+00
  0.7500000      0.0000000E+00
  0.7600000      0.0000000E+00
  0.7700000      0.0000000E+00
  0.7800000      0.0000000E+00
  0.7900000      0.0000000E+00
  0.8000000      0.0000000E+00
  0.8100000      0.0000000E+00
  0.8200000      0.0000000E+00
  0.8300000      0.0000000E+00
  0.8400000      0.0000000E+00
  0.8500000      0.0000000E+00
  0.8600000      0.0000000E+00
  0.8700000      0.0000000E+00
  0.8800000      0.0000000E+00
  0.8900000      0.0000000E+00
  0.9000000      0.0000000E+00
  0.9100000      0.0000000E+00
  0.9200000      0.0000000E+00
  0.9300000      0.0000000E+00
  0.9400000      0.0000000E+00
  0.9500000      0.0000000E+00
  0.9600000      0.0000000E+00
  0.9700000      0.0000000E+00
  0.9800000      0.0000000E+00
  0.9900000      0.0000000E+00
   1.000000      0.0000000E+00
   1.010000      0.0000000E+00
   1.020000      0.0000000E+00
   1.030000      0.0000000E+00
   1.040000      0.0000000E+00
   1.050000      0.0000000E+00
   1.060000      0.0000000E+00
   1.070000      0.0000000E+00
   1.080000      0.0000000E+00
   1.090000      0.0000000E+00
   1.100000      0.0000000E+00
   1.110000      0.0000000E+00
   1.120000      0.0000000E+00
   1.130000      0.0000000E+00
   1.140000      0.0000000E+00
   1.150000      0.0000000E+00
   1.160000      0.0000000E+00
   1.170000      0.0000000E+00
   1.180000      0.0000000E+00
   1.190000      0.0000000E+00
   1.200000      0.0000000E+00
   1.210000      0.0000000E+00
   1.220000      0.0000000E+00
   1.230000      0.0000000E+00
   1.240000      0.0000000E+00
   1.250000      0.0000000E+00
   1.260000      0.0000000E+00
   1.270000      0.0000000E+00
   1.280000      0.0000000E+00
   1.290000      0.0000000E+00
   1.300000      0.0000000E+00
   1.310000      0.0000000E+00
   1.320000      0.0000000E+00
   1.330000      0.0000000E+00
   1.340000      0.0000000E+00
   1.350000      0.0000000E+00
   1.360000      0.0000000E+00
   1.370000      0.0000000E+00
   1.380000      0.0000000E+00
   1.390000      0.0000000E+00
   1.400000      0.0000000E+00
   1.410000      0.0000000E+00
   1.420000      0.0000000E+00
   1.430000      0.0000000E+00
   1.440000      0.0000000E+00
   1.450000      0.0000000E+00
   1.460000      0.0000000E+00
   1.470000      0.0000000E+00
   1.480000      0.0000000E+00
   1.490000      0.0000000E+00
   1.500000      0.0000000E+00
   1.510000      0.0000000E+00
   1.520000      0.0000000E+00
   1.530000      0.0000000E+00
   1.540000      0.0000000E+00
   1.550000      0.0000000E+00
   1.560000      0.0000000E+00
   1.570000      0.0000000E+00
   1.580000      0.0000000E+00
   1.590000      0.0000000E+00
   1.600000      0.0000000E+00
   1.610000      0.0000000E+00
   1.620000      0.0000000E+00
   1.630000      0.0000000E+00
   1.640000      0.0000000E+00
   1.650000      0.0000000E+00
   1.660000      0.0000000E+00
   1.670000      0.0000000E+00
   1.680000      0.0000000E+00
   1.690000      0.0000000E+00
   1.700000      0.0000000E+00
   1.710000      0.0000000E+00
   1.720000      0.0000000E+00
   1.730000      0.0000000E+00
   1.740000      0.0000000E+00
   1.750000      0.0000000E+00
   1.760000      0.0000000E+00
   1.770000      0.0000000E+00
   1.780000      0.0000000E+00
   1.790000      0.0000000E+00
   1.800000      0.0000000E+00
   1.810000      0.0000000E+00
   1.820000      0.0000000E+00
   1.830000      0.0000000E+00
   1.840000      0.0000000E+00
   1.850000      0.0000000E+00
   1.860000      0.0000000E+00
   1.870000      0.0000000E+00
   1.880000      0.0000000E+00
   1.890000      0.0000000E+00
   1.900000      0.0000000E+00
   1.910000      0.0000000E+00
   1.920000      0.0000000E+00
   1.930000     -1.4553104E-38
   1.940000     -1.9774924E-38
   1.950000     -2.5356350E-38
   1.960000     -3.1203562E-38
   1.970000     -3.7195652E-38
   1.980000     -4.3141630E-38
   1.990000     -4.8792254E-38
   2.000000     -5.3899987E-38
   2.010000     -5.8195023E-38
   2.020000     -6.0102672E-38
   2.030000     -6.0102672E-38
   2.040000     -6.0102672E-38
   2.050000     -6.0102672E-38
   2.060000     -5.8214243E-38
   2.070000     -5.5222874E-38
   2.080000     -5.2149020E-38
   2.090000     -4.7245041E-38
   2.100000     -4.0336460E-38
   2.110000     -3.1325307E-38
   2.120000     -2.0232726E-38
   2.130000      0.0000000E+00
   2.140000      0.0000000E+00
   2.150000      2.4789006E-38
   2.160000      4.3230795E-38
   2.170000      6.3042366E-38
   2.180000      8.5695488E-38
   2.190000      1.1047639E-37
   2.200000      1.3492986E-37
   2.210000      1.5872956E-37
   2.220000      1.8157524E-37
   2.230000      2.0371945E-37
   2.240000      2.2777683E-37
   2.250000      2.5421653E-37
   2.260000      2.8126710E-37
   2.270000      3.0882107E-37
   2.280000      3.3667725E-37
   2.290000      3.6458988E-37
   2.300000      3.9222815E-37
   2.310000      4.1920218E-37
   2.320000      4.4484504E-37
   2.330000      4.7015169E-37
   2.340000      4.9192352E-37
   2.350000      5.0935397E-37
   2.360000      5.2413648E-37
   2.370000      5.3220876E-37
   2.380000      5.3278049E-37
   2.390000      5.2606699E-37
   2.400000      5.1160828E-37
   2.410000      4.8924388E-37
   2.420000      4.5831388E-37
   2.430000      4.2333742E-37
   2.440000      3.8372081E-37
   2.450000      3.3452380E-37
   2.460000      2.7586661E-37
   2.470000      2.0759587E-37
   2.480000      1.2353945E-37
   2.490000      2.3589646E-38
   2.500000     -8.6444045E-38
   2.510000     -2.0636389E-37
   2.520000     -3.3591050E-37
   2.530000     -3.0446149E-37
   2.540000     -1.0685597E-37
   2.550000      9.0828921E-38
   2.560000      2.8194491E-37
   2.570000      4.6231419E-37
   2.580000      6.3343789E-37
   2.590000      8.7941564E-37
   2.600000      1.0394410E-36
   2.610000      1.0460384E-36
   2.620000      1.0737290E-36
   2.630000      1.1227364E-36
   2.640000      1.1915824E-36
   2.650000      1.6379622E-37
   2.660000     -2.0626810E-36
   2.670000     -4.3754656E-36
   2.680000     -6.5664546E-36
   2.690000     -7.5216163E-36
   2.700000     -7.1518091E-36
   2.710000     -6.5643094E-36
   2.720000     -6.1254828E-36
   2.730000     -5.9733487E-36
   2.740000     -6.2404322E-36
   2.750000     -6.8136328E-36
   2.760000     -7.4663693E-36
   2.770000     -8.2562098E-36
   2.780000     -9.2190699E-36
   2.790000     -9.0877422E-36
   2.800000     -7.6542963E-36
   2.810000     -7.1437893E-36
   2.820000     -7.7254817E-36
   2.830000     -8.7579107E-36
   2.840000     -1.0189610E-35
   2.850000     -1.1585859E-35
   2.860000     -1.0566203E-35
   2.870000     -7.3722301E-36
   2.880000     -4.6612738E-36
   2.890000     -3.4329701E-36
   2.900000     -3.4002046E-36
   2.910000     -3.4052602E-36
   2.920000     -3.4539918E-36
   2.930000     -4.6456055E-36
   2.940000     -6.1227400E-36
   2.950000     -5.6206685E-36
   2.960000     -3.7850653E-36
   2.970000     -1.5032579E-36
   2.980000      1.1717271E-36
   2.990000      2.8128117E-36
   3.000000      4.3242655E-36
   3.010000      7.6345854E-36
   3.020000      1.1275564E-35
   3.030000      1.4443888E-35
   3.040000      1.9148367E-35
   3.050000      2.4246807E-35
   3.060000      2.8515883E-35
   3.070000      3.3234818E-35
   3.080000      3.7907440E-35
   3.090000      4.0674291E-35
   3.100000      3.9955615E-35
   3.110000      3.7180809E-35
   3.120000      3.3250565E-35
   3.130000      2.6900795E-35
   3.140000      2.1585263E-35
   3.150000      1.9394704E-35
   3.160000      1.8265961E-35
   3.170000      1.8121294E-35
   3.180000      1.8962862E-35
   3.190000      2.0770889E-35
   3.200000      2.1497931E-35
   3.210000      2.0736657E-35
   3.220000      1.9989967E-35
   3.230000      1.8975420E-35
   3.240000      1.7658445E-35
   3.250000      1.5709653E-35
   3.260000      1.2379383E-35
   3.270000      7.0399233E-36
   3.280000     -1.1510982E-37
   3.290000     -6.5884844E-36
   3.300000     -1.1904602E-35
   3.310000     -1.6694636E-35
   3.320000     -2.0815627E-35
   3.330000     -2.4570659E-35
   3.340000     -2.8936461E-35
   3.350000     -3.5601895E-35
   3.360000     -4.4136920E-35
   3.370000     -5.2258065E-35
   3.380000     -5.9971604E-35
   3.390000     -6.8776476E-35
   3.400000     -7.8621797E-35
   3.410000     -8.7210816E-35
   3.420000     -9.2645898E-35
   3.430000     -9.5901071E-35
   3.440000     -9.8115552E-35
   3.450000     -1.0032895E-34
   3.460000     -1.0289927E-34
   3.470000     -1.0531929E-34
   3.480000     -1.0726924E-34
   3.490000     -1.1020778E-34
   3.500000     -1.1378890E-34
   3.510000     -1.1721418E-34
   3.520000     -1.2119835E-34
   3.530000     -1.2218104E-34
   3.540000     -1.1849023E-34
   3.550000     -1.1731804E-34
   3.560000     -1.1646327E-34
   3.570000     -1.1081745E-34
   3.580000     -1.0215447E-34
   3.590000     -9.0358121E-35
   3.600000     -7.6605480E-35
   3.610000     -6.2134232E-35
   3.620000     -5.1709813E-35
   3.630000     -4.3729271E-35
   3.640000     -3.2368055E-35
   3.650000     -1.6562160E-35
   3.660000     -4.2835874E-36
   3.670000     -1.5519944E-36
   3.680000     -2.7893332E-36
   3.690000     -4.2835430E-36
   3.700000     -4.9449756E-36
   3.710000      6.0348858E-37
   3.720000      1.5866907E-35
   3.730000      3.6431141E-35
   3.740000      5.3938465E-35
   3.750000      7.5787065E-35
   3.760000      1.0765203E-34
   3.770000      1.4094203E-34
   3.780000      1.7540070E-34
   3.790000      2.1084569E-34
   3.800000      2.4697641E-34
   3.810000      2.8277423E-34
   3.820000      3.1738070E-34
   3.830000      3.4648483E-34
   3.840000      3.6057931E-34
   3.850000      3.5985893E-34
   3.860000      3.5744561E-34
   3.870000      3.6317656E-34
   3.880000      3.7727631E-34
   3.890000      3.9879472E-34
   3.900000      4.2854309E-34
   3.910000      4.6637146E-34
   3.920000      5.0871144E-34
   3.930000      5.5736101E-34
   3.940000      6.1013525E-34
   3.950000      6.6077352E-34
   3.960000      7.0177738E-34
   3.970000      7.2833134E-34
   3.980000      7.4266562E-34
   3.990000      7.4471061E-34
   4.000000      7.3454980E-34
   4.010000      7.1514643E-34
   4.020000      6.9081746E-34
   4.030000      6.6575091E-34
   4.040000      6.4470653E-34
   4.050000      6.3140141E-34
   4.060000      6.2196559E-34
   4.070000      6.1319984E-34
   4.080000      6.0905214E-34
   4.090000      6.0293980E-34
   4.100000      5.8639021E-34
   4.110000      5.6933104E-34
   4.120000      5.5412854E-34
   4.130000      5.3163899E-34
   4.140000      4.9790093E-34
   4.150000      4.4958641E-34
   4.160000      3.8776142E-34
   4.170000      3.0595335E-34
   4.180000      2.0869580E-34
   4.190000      1.0950522E-34
   4.200000      6.9928799E-36
   4.210000     -1.0111325E-34
   4.220000     -2.1164301E-34
   4.230000     -3.2172578E-34
   4.240000     -4.3537675E-34
   4.250000     -5.5284262E-34
   4.260000     -6.7257039E-34
   4.270000     -7.9522367E-34
   4.280000     -9.2172578E-34
   4.290000     -1.0582606E-33
   4.300000     -1.2080655E-33
   4.310000     -1.3651819E-33
   4.320000     -1.5332389E-33
   4.330000     -1.7173686E-33
   4.340000     -1.9108353E-33
   4.350000     -2.1114782E-33
   4.360000     -2.3176036E-33
   4.370000     -2.5287108E-33
   4.380000     -2.7435761E-33
   4.390000     -2.9595227E-33
   4.400000     -3.1741360E-33
   4.410000     -3.3842042E-33
   4.420000     -3.5907727E-33
   4.430000     -3.7928956E-33
   4.440000     -3.9892895E-33
   4.450000     -4.1824438E-33
   4.460000     -4.3749736E-33
   4.470000     -4.5670553E-33
   4.480000     -4.7607473E-33
   4.490000     -4.9551910E-33
   4.500000     -5.1449173E-33
   4.510000     -5.3322676E-33
   4.520000     -5.5089723E-33
   4.530000     -5.6704150E-33
   4.540000     -5.8188701E-33
   4.550000     -5.9491938E-33
   4.560000     -6.0589031E-33
   4.570000     -6.1423448E-33
   4.580000     -6.1946936E-33
   4.590000     -6.2164939E-33
   4.600000     -6.2093572E-33
   4.610000     -6.1723915E-33
   4.620000     -6.1047459E-33
   4.630000     -6.0062192E-33
   4.640000     -5.8793606E-33
   4.650000     -5.7281987E-33
   4.660000     -5.5449788E-33
   4.670000     -5.3233790E-33
   4.680000     -5.0658520E-33
   4.690000     -4.7676945E-33
   4.700000     -4.4243874E-33
   4.710000     -4.0372467E-33
   4.720000     -3.5973779E-33
   4.730000     -3.0975268E-33
   4.740000     -2.5372144E-33
   4.750000     -1.9144206E-33
   4.760000     -1.2302026E-33
   4.770000     -4.8397986E-34
   4.780000      3.2458407E-34
   4.790000      1.1956269E-33
   4.800000      2.1274960E-33
   4.810000      3.1222992E-33
   4.820000      4.1811489E-33
   4.830000      5.3029243E-33
   4.840000      6.4895252E-33
   4.850000      7.7445565E-33
   4.860000      9.0701519E-33
   4.870000      1.0464702E-32
   4.880000      1.1930546E-32
   4.890000      1.3471248E-32
   4.900000      1.5087125E-32
   4.910000      1.6777828E-32
   4.920000      1.8542066E-32
   4.930000      2.0377228E-32
   4.940000      2.2279603E-32
   4.950000      2.4244837E-32
   4.960000      2.6267141E-32
   4.970000      2.8340428E-32
   4.980000      3.0458457E-32
   4.990000      3.2615713E-32
   5.000000      3.4806197E-32
   5.010000      3.7023905E-32
   5.020000      3.9263848E-32
   5.030000      4.1519463E-32
   5.040000      4.3783888E-32
   5.050000      4.6051228E-32
   5.060000      4.8315463E-32
   5.070000      5.0565541E-32
   5.080000      5.2790188E-32
   5.090000      5.4979234E-32
   5.100000      5.7118763E-32
   5.110000      5.9195968E-32
   5.120000      6.1197406E-32
   5.130000      6.3105615E-32
   5.140000      6.4901935E-32
   5.150000      6.6568915E-32
   5.160000      6.8089012E-32
   5.170000      6.9443551E-32
   5.180000      7.0614561E-32
   5.190000      7.1583850E-32
   5.200000      7.2332411E-32
   5.210000      7.2840812E-32
   5.220000      7.3088977E-32
   5.230000      7.3056045E-32
   5.240000      7.2719977E-32
   5.250000      7.2057457E-32
   5.260000      7.1042935E-32
   5.270000      6.9651790E-32
   5.280000      6.7858497E-32
   5.290000      6.5635226E-32
   5.300000      6.2953453E-32
   5.310000      5.9783462E-32
   5.320000      5.6099974E-32
   5.330000      5.1877134E-32
   5.340000      4.7086498E-32
   5.350000      4.1702190E-32
   5.360000      3.5699267E-32
   5.370000      2.9053607E-32
   5.380000      2.1741845E-32
   5.390000      1.3741323E-32
   5.400000      5.0300593E-33
   5.410000     -4.4131412E-33
   5.420000     -1.4608979E-32
   5.430000     -2.5577082E-32
   5.440000     -3.7336348E-32
   5.450000     -4.9904314E-32
   5.460000     -6.3296362E-32
   5.470000     -7.7526151E-32
   5.480000     -9.2604540E-32
   5.490000     -1.0853939E-31
   5.500000     -1.2533522E-31
   5.510000     -1.4299272E-31
   5.520000     -1.6150873E-31
   5.530000     -1.8087590E-31
   5.540000     -2.0108251E-31
   5.550000     -2.2211253E-31
   5.560000     -2.4394555E-31
   5.570000     -2.6655625E-31
   5.580000     -2.8991462E-31
   5.590000     -3.1398594E-31
   5.600000     -3.3873029E-31
   5.610000     -3.6410216E-31
   5.620000     -3.9005023E-31
   5.630000     -4.1651691E-31
   5.640000     -4.4343742E-31
   5.650000     -4.7074025E-31
   5.660000     -4.9834599E-31
   5.670000     -5.2616693E-31
   5.680000     -5.5410735E-31
   5.690000     -5.8206267E-31
   5.700000     -6.0991991E-31
   5.710000     -6.3755748E-31
   5.720000     -6.6484508E-31
   5.730000     -6.9164400E-31
   5.740000     -7.1780707E-31
   5.750000     -7.4317823E-31
   5.760000     -7.6759410E-31
   5.770000     -7.9088276E-31
   5.780000     -8.1286262E-31
   5.790000     -8.3334453E-31
   5.800000     -8.5213034E-31
   5.810000     -8.6901335E-31
   5.820000     -8.8377775E-31
   5.830000     -8.9619971E-31
   5.840000     -9.0604678E-31
   5.850000     -9.1307812E-31
   5.860000     -9.1704584E-31
   5.870000     -9.1769480E-31
   5.880000     -9.1476359E-31
   5.890000     -9.0798513E-31
   5.900000     -8.9708792E-31
   5.910000     -8.8179652E-31
   5.920000     -8.6183268E-31
   5.930000     -8.3691624E-31
   5.940000     -8.0676613E-31
   5.950000     -7.7110116E-31
   5.960000     -7.2964072E-31
   5.970000     -6.8210608E-31
   5.980000     -6.2822147E-31
   5.990000     -5.6771515E-31
   6.000000     -5.0032049E-31
   6.010000     -4.2577783E-31
   6.020000     -3.4383539E-31
   6.030000     -2.5425134E-31
   6.040000     -1.5679603E-31
   6.050000     -5.1253452E-32
   6.060000      6.2576302E-32
   6.070000      1.8487486E-31
   6.080000      3.1580370E-31
   6.090000      4.5550195E-31
   6.100000      6.0408382E-31
   6.110000      7.6163683E-31
   6.120000      9.2822027E-31
   6.130000      1.1038626E-30
   6.140000      1.2885599E-30
   6.150000      1.4822723E-30
   6.160000      1.6849231E-30
   6.170000      1.8963963E-30
   6.180000      2.1165351E-30
   6.190000      2.3451385E-30
   6.200000      2.5819579E-30
   6.210000      2.8266958E-30
   6.220000      3.0790032E-30
   6.230000      3.3384762E-30
   6.240000      3.6046551E-30
   6.250000      3.8770219E-30
   6.260000      4.1549964E-30
   6.270000      4.4379365E-30
   6.280000      4.7251360E-30
   6.290000      5.0158201E-30
   6.300000      5.3091494E-30
   6.310000      5.6042154E-30
   6.320000      5.9000390E-30
   6.330000      6.1955707E-30
   6.340000      6.4896895E-30
   6.350000      6.7812023E-30
   6.360000      7.0688437E-30
   6.370000      7.3512754E-30
   6.380000      7.6270858E-30
   6.390000      7.8947908E-30
   6.400000      8.1528346E-30
   6.410000      8.3995876E-30
   6.420000      8.6333504E-30
   6.430000      8.8523534E-30
   6.440000      9.0547589E-30
   6.450000      9.2386656E-30
   6.460000      9.4021124E-30
   6.470000      9.5430784E-30
   6.480000      9.6594873E-30
   6.490000      9.7492116E-30
   6.500000      9.8100785E-30
   6.510000      9.8398748E-30
   6.520000      9.8363517E-30
   6.530000      9.7972267E-30
   6.540000      9.7201955E-30
   6.550000      9.6029335E-30
   6.560000      9.4431038E-30
   6.570000      9.2383700E-30
   6.580000      8.9863951E-30
   6.590000      8.6848562E-30
   6.600000      8.3314503E-30
   6.610000      7.9239077E-30
   6.620000      7.4599964E-30
   6.630000      6.9375374E-30
   6.640000      6.3544118E-30
   6.650000      5.7085763E-30
   6.660000      4.9980752E-30
   6.670000      4.2210490E-30
   6.680000      3.3757531E-30
   6.690000      2.4605649E-30
   6.700000      1.4739993E-30
   6.710000      4.1472470E-31
   6.720000     -7.1842984E-31
   6.730000     -1.9264534E-30
   6.740000     -3.2101408E-30
   6.750000     -4.5700764E-30
   6.760000     -6.0066302E-30
   6.770000     -7.5199304E-30
   6.780000     -9.1098472E-30
   6.790000     -1.0775990E-29
   6.800000     -1.2517683E-29
   6.810000     -1.4333953E-29
   6.820000     -1.6223510E-29
   6.830000     -1.8184730E-29
   6.840000     -2.0215638E-29
   6.850000     -2.2313912E-29
   6.860000     -2.4476841E-29
   6.870000     -2.6701333E-29
   6.880000     -2.8983898E-29
   6.890000     -3.1320625E-29
   6.900000     -3.3707178E-29
   6.910000     -3.6138775E-29
   6.920000     -3.8610183E-29
   6.930000     -4.1115715E-29
   6.940000     -4.3649207E-29
   6.950000     -4.6204022E-29
   6.960000     -4.8773047E-29
   6.970000     -5.1348675E-29
   6.980000     -5.3922800E-29
   6.990000     -5.6486827E-29
   7.000000     -5.9031631E-29
   7.010000     -6.1547587E-29
   7.020000     -6.4024586E-29
   7.030000     -6.6451998E-29
   7.040000     -6.8818701E-29
   7.050000     -7.1113079E-29
   7.060000     -7.3323036E-29