  -2.600000      0.0000000E+00
  -2.590000      0.0000000E+00
  -2.580000      0.0000000E+00
  -2.570000      0.0000000E+00
  -2.560000      0.0000000E+00
  -2.550000      0.0000000E+00
  -2.540000      0.0000000E+00
  -2.530000      0.0000000E+00
  -2.520000      0.0000000E+00
  -2.510000      0.0000000E+00
  -2.500000      0.0000000E+00
  -2.490000      0.0000000E+00
  -2.480000      0.0000000E+00
  -2.470000      0.0000000E+00
  -2.460000      0.0000000E+00
  -2.450000      0.0000000E+00
  -2.440000      0.0000000E+00
  -2.430000      0.0000000E+00
  -2.420000      0.0000000E+00
  -2.410000      0.0000000E+00
  -2.400000      0.0000000E+00
  -2.390000      0.0000000E+00
  -2.380000      0.0000000E+00
  -2.370000      0.0000000E+00
  -2.360000      0.0000000E+00
  -2.350000      0.0000000E+00
  -2.340000      0.0000000E+00
  -2.330000      0.0000000E+00
  -2.320000      0.0000000E+00
  -2.310000      0.0000000E+00
  -2.300000      0.0000000E+00
  -2.290000      0.0000000E+00
  -2.280000      0.0000000E+00
  -2.270000      0.0000000E+00
  -2.260000      0.0000000E+00
  -2.250000      0.0000000E+00
  -2.240000      0.0000000E+00
  -2.230000      0.0000000E+00
  -2.220000      0.0000000E+00
  -2.210000      0.0000000E+00
  -2.200000      0.0000000E+00
  -2.190000      0.0000000E+00
  -2.180000      0.0000000E+00
  -2.170000      0.0000000E+00
  -2.160000      0.0000000E+00
  -2.150000      0.0000000E+00
  -2.140000      0.0000000E+00
  -2.130000      0.0000000E+00
  -2.120000      0.0000000E+00
  -2.110000      0.0000000E+00
  -2.100000      0.0000000E+00
  -2.090000      0.0000000E+00
  -2.080000      0.0000000E+00
  -2.070000      0.0000000E+00
  -2.060000      0.0000000E+00
  -2.050000      0.0000000E+00
  -2.040000      0.0000000E+00
  -2.030000      0.0000000E+00
  -2.020000      0.0000000E+00
  -2.010000      0.0000000E+00
  -2.000000      0.0000000E+00
  -1.990000      0.0000000E+00
  -1.980000      0.0000000E+00
  -1.970000      0.0000000E+00
  -1.960000      0.0000000E+00
  -1.950000      0.0000000E+00
  -1.940000      0.0000000E+00
  -1.930000      0.0000000E+00
  -1.920000      0.0000000E+00
  -1.910000      0.0000000E+00
  -1.900000      0.0000000E+00
  -1.890000      0.0000000E+00
  -1.880000      0.0000000E+00
  -1.870000      0.0000000E+00
  -1.860000      0.0000000E+00
  -1.850000      0.0000000E+00
  -1.840000      0.0000000E+00
  -1.830000      0.0000000E+00
  -1.820000      0.0000000E+00
  -1.810000      0.0000000E+00
  -1.800000      0.0000000E+00
  -1.790000      0.0000000E+00
  -1.780000      0.0000000E+00
  -1.770000      0.0000000E+00
  -1.760000      0.0000000E+00
  -1.750000      0.0000000E+00
  -1.740000      0.0000000E+00
  -1.730000      0.0000000E+00
  -1.720000      0.0000000E+00
  -1.710000      0.0000000E+00
  -1.700000      0.0000000E+00
  -1.690000      0.0000000E+00
  -1.680000      0.0000000E+00
  -1.670000      0.0000000E+00
  -1.660000      0.0000000E+00
  -1.650000      0.0000000E+00
  -1.640000      0.0000000E+00
  -1.630000      0.0000000E+00
  -1.620000      0.0000000E+00
  -1.610000      0.0000000E+00
  -1.600000      0.0000000E+00
  -1.590000      0.0000000E+00
  -1.580000      0.0000000E+00
  -1.570000      0.0000000E+00
  -1.560000      0.0000000E+00
  -1.550000      0.0000000E+00
  -1.540000      0.0000000E+00
  -1.530000      0.0000000E+00
  -1.520000      0.0000000E+00
  -1.510000      0.0000000E+00
  -1.500000      0.0000000E+00
  -1.490000      0.0000000E+00
  -1.480000      0.0000000E+00
  -1.470000      0.0000000E+00
  -1.460000      0.0000000E+00
  -1.450000      0.0000000E+00
  -1.440000      0.0000000E+00
  -1.430000      0.0000000E+00
  -1.420000      0.0000000E+00
  -1.410000      0.0000000E+00
  -1.400000      0.0000000E+00
  -1.390000      0.0000000E+00
  -1.380000      0.0000000E+00
  -1.370000      0.0000000E+00
  -1.360000      0.0000000E+00
  -1.350000      0.0000000E+00
  -1.340000      0.0000000E+00
  -1.330000      0.0000000E+00
  -1.320000      0.0000000E+00
  -1.310000      0.0000000E+00
  -1.300000      0.0000000E+00
  -1.290000      0.0000000E+00
  -1.280000      0.0000000E+00
  -1.270000      0.0000000E+00
  -1.260000      0.0000000E+00
  -1.250000      0.0000000E+00
  -1.240000      0.0000000E+00
  -1.230000      0.0000000E+00
  -1.220000      0.0000000E+00
  -1.210000      0.0000000E+00
  -1.200000      0.0000000E+00
  -1.190000      0.0000000E+00
  -1.180000      0.0000000E+00
  -1.170000      0.0000000E+00
  -1.160000      0.0000000E+00
  -1.150000      0.0000000E+00
  -1.140000      0.0000000E+00
  -1.130000      0.0000000E+00
  -1.120000      0.0000000E+00
  -1.110000      0.0000000E+00
  -1.100000      0.0000000E+00
  -1.090000      0.0000000E+00
  -1.080000      0.0000000E+00
  -1.070000      0.0000000E+00
  -1.060000      0.0000000E+00
  -1.050000      0.0000000E+00
  -1.040000      0.0000000E+00
  -1.030000      0.0000000E+00
  -1.020000      0.0000000E+00
  -1.010000      0.0000000E+00
  -1.000000      0.0000000E+00
 -0.9900000      0.0000000E+00
 -0.9800000      0.0000000E+00
 -0.9700000      0.0000000E+00
 -0.9600000      0.0000000E+00
 -0.9500000      0.0000000E+00
 -0.9400000      0.0000000E+00
 -0.9300000      0.0000000E+00
 -0.9200000      0.0000000E+00
 -0.9100000      0.0000000E+00
 -0.9000000      0.0000000E+00
 -0.8900000      0.0000000E+00
 -0.8800000      0.0000000E+00
 -0.8700000      0.0000000E+00
 -0.8600000      0.0000000E+00
 -0.8500000      0.0000000E+00
 -0.8400000      0.0000000E+00
 -0.8300000      0.0000000E+00
 -0.8200000      0.0000000E+00
 -0.8100000      0.0000000E+00
 -0.8000000      0.0000000E+00
 -0.7900000      0.0000000E+00
 -0.7800000      0.0000000E+00
 -0.7700000      0.0000000E+00
 -0.7600000      0.0000000E+00
 -0.7500000      0.0000000E+00
 -0.7400000      0.0000000E+00
 -0.7300000      0.0000000E+00
 -0.7200000      0.0000000E+00
 -0.7100000      0.0000000E+00
 -0.7000000      0.0000000E+00
 -0.6900000      0.0000000E+00
 -0.6800000      0.0000000E+00
 -0.6700000      0.0000000E+00
 -0.6600000      0.0000000E+00
 -0.6500000      0.0000000E+00
 -0.6400000      0.0000000E+00
 -0.6300000      0.0000000E+00
 -0.6200000      0.0000000E+00
 -0.6100000      0.0000000E+00
 -0.6000000      0.0000000E+00
 -0.5900000      0.0000000E+00
 -0.5800000      0.0000000E+00
 -0.5700000      0.0000000E+00
 -0.5600000      0.0000000E+00
 -0.5500000      0.0000000E+00
 -0.5400000      0.0000000E+00
 -0.5300000      0.0000000E+00
 -0.5200000      0.0000000E+00
 -0.5100000      0.0000000E+00
 -0.5000000      0.0000000E+00
 -0.4900000      0.0000000E+00
 -0.4800000      0.0000000E+00
 -0.4700000      0.0000000E+00
 -0.4600000      0.0000000E+00
 -0.4500000      0.0000000E+00
 -0.4400000      0.0000000E+00
 -0.4300000      0.0000000E+00
 -0.4200000      0.0000000E+00
 -0.4100000      0.0000000E+00
 -0.4000000      0.0000000E+00
 -0.3900000      0.0000000E+00
 -0.3800000      0.0000000E+00
 -0.3700000      0.0000000E+00
 -0.3600000      0.0000000E+00
 -0.3500000      0.0000000E+00
 -0.3400000      0.0000000E+00
 -0.3300000      0.0000000E+00
 -0.3200000      0.0000000E+00
 -0.3100000      0.0000000E+00
 -0.3000000      0.0000000E+00
 -0.2900000      0.0000000E+00
 -0.2800000      0.0000000E+00
 -0.2700000      0.0000000E+00
 -0.2600000      0.0000000E+00
 -0.2500000      0.0000000E+00
 -0.2400000      0.0000000E+00
 -0.2300000      0.0000000E+00
 -0.2200000      0.0000000E+00
 -0.2100000      0.0000000E+00
 -0.2000000      0.0000000E+00
 -0.1900000      0.0000000E+00
 -0.1800000      0.0000000E+00
 -0.1700000      0.0000000E+00
 -0.1600000      0.0000000E+00
 -0.1500000      0.0000000E+00
 -0.1400000      0.0000000E+00
 -0.1300000      0.0000000E+00
 -0.1200000      0.0000000E+00
 -0.1100000      0.0000000E+00
 -0.1000000      0.0000000E+00
 -9.0000004E-02  0.0000000E+00
 -7.9999998E-02  0.0000000E+00
 -7.0000000E-02  0.0000000E+00
 -5.9999999E-02  0.0000000E+00
 -5.0000001E-02  0.0000000E+00
 -3.9999999E-02  0.0000000E+00
 -2.9999999E-02  0.0000000E+00
 -2.0000000E-02  0.0000000E+00
 -9.9999998E-03  0.0000000E+00
 -3.4694470E-17  0.0000000E+00
  9.9999998E-03  0.0000000E+00
  2.0000000E-02  0.0000000E+00
  2.9999999E-02  0.0000000E+00
  3.9999999E-02  0.0000000E+00
  5.0000001E-02  0.0000000E+00
  5.9999999E-02  0.0000000E+00
  7.0000000E-02  0.0000000E+00
  7.9999998E-02  0.0000000E+00
  9.0000004E-02  0.0000000E+00
  0.1000000      0.0000000E+00
  0.1100000      0.0000000E+00
  0.1200000      0.0000000E+00
  0.1300000      0.0000000E+00
  0.1400000      0.0000000E+00
  0.1500000      0.0000000E+00
  0.1600000      0.0000000E+00
  0.1700000      0.0000000E+00
  0.1800000      0.0000000E+00
  0.1900000      0.0000000E+00
  0.2000000      0.0000000E+00
  0.2100000      0.0000000E+00
  0.2200000      0.0000000E+00
  0.2300000      0.0000000E+00
  0.2400000      0.0000000E+00
  0.2500000      0.0000000E+00
  0.2600000      0.0000000E+00
  0.2700000      0.0000000E+00
  0.2800000      0.0000000E+00
  0.2900000      0.0000000E+00
  0.3000000      0.0000000E+00
  0.3100000      0.0000000E+00
  0.3200000      0.0000000E+00
  0.3300000      0.0000000E+00
  0.3400000      0.0000000E+00
  0.3500000      0.0000000E+00
  0.3600000      0.0000000E+00
  0.3700000      0.0000000E+00
  0.3800000      0.0000000E+00
  0.3900000      0.0000000E+00
  0.4000000      0.0000000E+00
  0.4100000      0.0000000E+00
  0.4200000      0.0000000E+00
  0.4300000      0.0000000E+00
  0.4400000      0.0000000E+00
  0.4500000      0.0000000E+00
  0.4600000      0.0000000E+00
  0.4700000      0.0000000E+00
  0.4800000      0.0000000E+00
  0.4900000      0.0000000E+00
  0.5000000      0.0000000E+00
  0.5100000      0.0000000E+00
  0.5200000      0.0000000E+00
  0.5300000      0.0000000E+00
  0.5400000      0.0000000E+00
  0.5500000      0.0000000E+00
  0.5600000      0.0000000E+00
  0.5700000      0.0000000E+00
  0.5800000      0.0000000E+00
  0.5900000      0.0000000E+00
  0.6000000      0.0000000E+00
  0.6100000      0.0000000E+00
  0.6200000      0.0000000E+00
  0.6300000      0.0000000E+00
  0.6400000     -1.3724492E-38
  0.6500000     -2.0931526E-38
  0.6600000     -2.8783500E-38
  0.6700000     -3.6947574E-38
  0.6800000     -4.4319057E-38
  0.6900000     -5.0946504E-38
  0.7000000     -5.7296488E-38
  0.7100000     -6.3756137E-38
  0.7200000     -6.9757108E-38
  0.7300000     -7.3480471E-38
  0.7400000     -7.4973717E-38
  0.7500000     -7.5149832E-38
  0.7600000     -7.4607311E-38
  0.7700000     -7.2662701E-38
  0.7800000     -6.8680760E-38
  0.7900000     -6.2796186E-38
  0.8000000     -5.4148415E-38
  0.8100000     -4.4208666E-38
  0.8200000     -3.3808150E-38
  0.8300000     -2.2144536E-38
  0.8400000      0.0000000E+00
  0.8500000      0.0000000E+00
  0.8600000      2.9087268E-38
  0.8700000      5.4361373E-38
  0.8800000      8.4049114E-38
  0.8900000      1.1947767E-37
  0.9000000      1.6504565E-37
  0.9100000      2.1804747E-37
  0.9200000      2.8396975E-37
  0.9300000      3.5670828E-37
  0.9400000      4.2606379E-37
  0.9500000      4.9847711E-37
  0.9600000      5.7682104E-37
  0.9700000      6.6268077E-37
  0.9800000      7.3580958E-37
  0.9900000      7.7813839E-37
   1.000000      7.9536652E-37
   1.010000      7.4730059E-37
   1.020000      6.0298850E-37
   1.030000      3.7435662E-37
   1.040000      8.6836571E-38
   1.050000     -2.5225675E-37
   1.060000     -6.5423150E-37
   1.070000     -1.1978151E-36
   1.080000     -1.9557574E-36
   1.090000     -2.8328418E-36
   1.100000     -3.7136262E-36
   1.110000     -4.5320545E-36
   1.120000     -5.2910985E-36
   1.130000     -6.0499388E-36
   1.140000     -6.7272005E-36
   1.150000     -7.1829284E-36
   1.160000     -7.3851007E-36
   1.170000     -7.3838056E-36
   1.180000     -7.1932161E-36
   1.190000     -6.6658723E-36
   1.200000     -5.6578525E-36
   1.210000     -4.2605970E-36
   1.220000     -2.6068456E-36
   1.230000     -6.8762173E-37
   1.240000      1.5264383E-36
   1.250000      3.9804116E-36
   1.260000      6.6726344E-36
   1.270000      9.5037951E-36
   1.280000      1.2417732E-35
   1.290000      1.5448560E-35
   1.300000      1.8517943E-35
   1.310000      2.1498730E-35
   1.320000      2.4360209E-35
   1.330000      2.7086423E-35
   1.340000      2.9564280E-35
   1.350000      3.1760552E-35
   1.360000      3.3743719E-35
   1.370000      3.5374712E-35
   1.380000      3.6588226E-35
   1.390000      3.7586397E-35
   1.400000      3.8233711E-35
   1.410000      3.8574542E-35
   1.420000      3.8613798E-35
   1.430000      3.8020481E-35
   1.440000      3.6718830E-35
   1.450000      3.4631203E-35
   1.460000      3.1791078E-35
   1.470000      2.8177139E-35
   1.480000      2.3779357E-35
   1.490000      1.7983708E-35
   1.500000      1.0239656E-35
   1.510000      9.4114676E-37
   1.520000     -1.0506997E-35
   1.530000     -2.4442947E-35
   1.540000     -4.1004641E-35
   1.550000     -6.0179347E-35
   1.560000     -8.0770266E-35
   1.570000     -1.0247013E-34
   1.580000     -1.2591541E-34
   1.590000     -1.5109915E-34
   1.600000     -1.7728378E-34
   1.610000     -2.0453292E-34
   1.620000     -2.3270263E-34
   1.630000     -2.5968282E-34
   1.640000     -2.8320912E-34
   1.650000     -3.0419810E-34
   1.660000     -3.2282751E-34
   1.670000     -3.3783327E-34
   1.680000     -3.4755536E-34
   1.690000     -3.5162611E-34
   1.700000     -3.5088945E-34
   1.710000     -3.4611763E-34
   1.720000     -3.3826859E-34
   1.730000     -3.2267543E-34
   1.740000     -2.9899567E-34
   1.750000     -2.6901471E-34
   1.760000     -2.2881813E-34
   1.770000     -1.7864191E-34
   1.780000     -1.2288218E-34
   1.790000     -6.1303919E-35
   1.800000      6.7830006E-36
   1.810000      8.0590240E-35
   1.820000      1.5939887E-34
   1.830000      2.4433376E-34
   1.840000      3.3555708E-34
   1.850000      4.2840152E-34
   1.860000      5.2392982E-34
   1.870000      6.2459888E-34
   1.880000      7.3273343E-34
   1.890000      8.4756495E-34
   1.900000      9.6635150E-34
   1.910000      1.0848872E-33
   1.920000      1.2006391E-33
   1.930000      1.3145100E-33
   1.940000      1.4276095E-33
   1.950000      1.5400121E-33
   1.960000      1.6488307E-33
   1.970000      1.7525954E-33
   1.980000      1.8477969E-33
   1.990000      1.9359870E-33
   2.000000      2.0157654E-33
   2.010000      2.0804931E-33
   2.020000      2.1313839E-33
   2.030000      2.1660520E-33
   2.040000      2.1819533E-33
   2.050000      2.1764225E-33
   2.060000      2.1444628E-33
   2.070000      2.0847064E-33
   2.080000      1.9952571E-33
   2.090000      1.8741582E-33
   2.100000      1.7187358E-33
   2.110000      1.5275156E-33
   2.120000      1.2989982E-33
   2.130000      1.0300354E-33
   2.140000      7.1906854E-34
   2.150000      3.6616858E-34
   2.160000     -2.8007904E-35
   2.170000     -4.6412007E-34
   2.180000     -9.4234469E-34
   2.190000     -1.4608389E-33
   2.200000     -2.0179974E-33
   2.210000     -2.6117176E-33
   2.220000     -3.2414694E-33
   2.230000     -3.9014184E-33
   2.240000     -4.5875754E-33
   2.250000     -5.2972771E-33
   2.260000     -6.0236819E-33
   2.270000     -6.7619196E-33
   2.280000     -7.5062962E-33
   2.290000     -8.2508617E-33
   2.300000     -8.9884389E-33
   2.310000     -9.7111651E-33
   2.320000     -1.0411445E-32
   2.330000     -1.1080790E-32
   2.340000     -1.1710591E-32
   2.350000     -1.2291684E-32
   2.360000     -1.2814176E-32
   2.370000     -1.3268597E-32
   2.380000     -1.3644461E-32
   2.390000     -1.3930844E-32
   2.400000     -1.4118181E-32
   2.410000     -1.4196000E-32
   2.420000     -1.4153186E-32
   2.430000     -1.3979520E-32
   2.440000     -1.3664682E-32
   2.450000     -1.3199137E-32
   2.460000     -1.2573386E-32
   2.470000     -1.1778578E-32
   2.480000     -1.0807076E-32
   2.490000     -9.6509849E-33
   2.500000     -8.3047780E-33
   2.510000     -6.7621767E-33
   2.520000     -5.0178911E-33
   2.530000     -3.0703446E-33
   2.540000     -9.1854396E-34
   2.550000      1.4368239E-33
   2.560000      3.9934004E-33
   2.570000      6.7467799E-33
   2.580000      9.6904389E-33
   2.590000      1.2815605E-32
   2.600000      1.6111221E-32
   2.610000      1.9563845E-32
   2.620000      2.3157519E-32
   2.630000      2.6873917E-32
   2.640000      3.0693104E-32
   2.650000      3.4590555E-32
   2.660000      3.8539132E-32
   2.670000      4.2511542E-32
   2.680000      4.6476619E-32
   2.690000      5.0400613E-32
   2.700000      5.4248430E-32
   2.710000      5.7982376E-32
   2.720000      6.1562685E-32
   2.730000      6.4948020E-32
   2.740000      6.8095383E-32
   2.750000      7.0960321E-32
   2.760000      7.3497396E-32
   2.770000      7.5660224E-32
   2.780000      7.7401754E-32
   2.790000      7.8674838E-32
   2.800000      7.9432332E-32
   2.810000      7.9627558E-32
   2.820000      7.9214695E-32
   2.830000      7.8149051E-32
   2.840000      7.6387561E-32
   2.850000      7.3889289E-32
   2.860000      7.0615737E-32
   2.870000      6.6531411E-32
   2.880000      6.1604203E-32
   2.890000      5.5805901E-32
   2.900000      4.9112645E-32
   2.910000      4.1505418E-32
   2.920000      3.2970515E-32
   2.930000      2.3500011E-32
   2.940000      1.3092223E-32
   2.950000      1.7521641E-33
   2.960000     -1.0508041E-32
   2.970000     -2.3668721E-32
   2.980000     -3.7702294E-32
   2.990000     -5.2572909E-32
   3.000000     -6.8236142E-32
   3.010000     -8.4638738E-32
   3.020000     -1.0171836E-31
   3.030000     -1.1940346E-31
   3.040000     -1.3761314E-31
   3.050000     -1.5625708E-31
   3.060000     -1.7523560E-31
   3.070000     -1.9443968E-31
   3.080000     -2.1375128E-31
   3.090000     -2.3304345E-31
   3.100000     -2.5218043E-31
   3.110000     -2.7101824E-31
   3.120000     -2.8940511E-31
   3.130000     -3.0718192E-31
   3.140000     -3.2418272E-31
   3.150000     -3.4023553E-31
   3.160000     -3.5516295E-31
   3.170000     -3.6878288E-31
   3.180000     -3.8090954E-31
   3.190000     -3.9135421E-31
   3.200000     -3.9992636E-31
   3.210000     -4.0643451E-31
   3.220000     -4.1068754E-31
   3.230000     -4.1249564E-31
   3.240000     -4.1167166E-31
   3.250000     -4.0803224E-31
   3.260000     -4.0139925E-31
   3.270000     -3.9160116E-31
   3.280000     -3.7847410E-31
   3.290000     -3.6186378E-31
   3.300000     -3.4162649E-31
   3.310000     -3.1763085E-31
   3.320000     -2.8975903E-31
   3.330000     -2.5790852E-31
   3.340000     -2.2199345E-31
   3.350000     -1.8194607E-31
   3.360000     -1.3771831E-31
   3.370000     -8.9283110E-32
   3.380000     -3.6636006E-32
   3.390000      2.0203656E-32
   3.400000      8.1191354E-32
   3.410000      1.4625611E-31
   3.420000      2.1529927E-31
   3.430000      2.8819346E-31
   3.440000      3.6478152E-31
   3.450000      4.4487571E-31
   3.460000      5.2825682E-31
   3.470000      6.1467357E-31
   3.480000      7.0384210E-31
   3.490000      7.9544555E-31
   3.500000      8.8913377E-31
   3.510000      9.8452335E-31
   3.520000      1.0811975E-30
   3.530000      1.1787063E-30
   3.540000      1.2765674E-30
   3.550000      1.3742661E-30
   3.560000      1.4712561E-30
   3.570000      1.5669605E-30
   3.580000      1.6607725E-30
   3.590000      1.7520570E-30
   3.600000      1.8401514E-30
   3.610000      1.9243676E-30
   3.620000      2.0039925E-30
   3.630000      2.0782917E-30
   3.640000      2.1465093E-30
   3.650000      2.2078716E-30
   3.660000      2.2615885E-30
   3.670000      2.3068567E-30
   3.680000      2.3428611E-30
   3.690000      2.3687791E-30
   3.700000      2.3837824E-30
   3.710000      2.3870408E-30
   3.720000      2.3777247E-30
   3.730000      2.3550095E-30
   3.740000      2.3180788E-30
   3.750000      2.2661278E-30
   3.760000      2.1983676E-30
   3.770000      2.1140294E-30
   3.780000      2.0123687E-30
   3.790000      1.8926687E-30
   3.800000      1.7542465E-30
   3.810000      1.5964558E-30
   3.820000      1.4186932E-30
   3.830000      1.2204017E-30
   3.840000      1.0010759E-30
   3.850000      7.6026710E-31
   3.860000      4.9758793E-31
   3.870000      2.1271755E-31
   3.880000     -9.4593370E-32
   3.890000     -4.2451775E-31
   3.900000     -7.7714743E-31
   3.910000     -1.1524876E-30
   3.920000     -1.5504519E-30
   3.930000     -1.9708577E-30
   3.940000     -2.4134216E-30
   3.950000     -2.8777520E-30
   3.960000     -3.3633474E-30
   3.970000     -3.8695894E-30
   3.980000     -4.3957376E-30
   3.990000     -4.9409259E-30
   4.000000     -5.5041558E-30
   4.010000     -6.0842926E-30
   4.020000     -6.6800594E-30
   4.030000     -7.2900353E-30
   4.040000     -7.9126463E-30
   4.050000     -8.5461622E-30
   4.060000     -9.1886938E-30
   4.070000     -9.8381851E-30
   4.080000     -1.0492414E-29
   4.090000     -1.1148981E-29
   4.100000     -1.1805314E-29
   4.110000     -1.2458656E-29
   4.120000     -1.3106072E-29
   4.130000     -1.3744435E-29
   4.140000     -1.4370435E-29
   4.150000     -1.4980566E-29
   4.160000     -1.5571136E-29
   4.170000     -1.6138256E-29
   4.180000     -1.6677845E-29
   4.190000     -1.7185631E-29
   4.200000     -1.7657151E-29
   4.210000     -1.8087750E-29
   4.220000     -1.8472592E-29
   4.230000     -1.8806650E-29
   4.240000     -1.9084726E-29
   4.250000     -1.9301446E-29
   4.260000     -1.9451262E-29
   4.270000     -1.9528475E-29
   4.280000     -1.9527229E-29
   4.290000     -1.9441527E-29
   4.300000     -1.9265237E-29
   4.310000     -1.8992111E-29
   4.320000     -1.8615792E-29
   4.330000     -1.8129833E-29
   4.340000     -1.7527709E-29
   4.350000     -1.6802839E-29
   4.360000     -1.5948600E-29
   4.370000     -1.4958359E-29
   4.380000     -1.3825485E-29
   4.390000     -1.2543382E-29
   4.400000     -1.1105509E-29
   4.410000     -9.5054182E-30
   4.420000     -7.7367856E-30
   4.430000     -5.7934403E-30
   4.440000     -3.6694006E-30
   4.450000     -1.3589203E-30
   4.460000      1.1434710E-30
   4.470000      3.8429295E-30
   4.480000      6.7442486E-30
   4.490000      9.8518080E-30
   4.500000      1.3169527E-29
   4.510000      1.6700805E-29
   4.520000      2.0448471E-29
   4.530000      2.4414719E-29
   4.540000      2.8601056E-29
   4.550000      3.3008230E-29
   4.560000      3.7636171E-29
   4.570000      4.2483920E-29
   4.580000      4.7549564E-29
   4.590000      5.2830172E-29
   4.600000      5.8321715E-29
   4.610000      6.4018971E-29
   4.620000      6.9915500E-29
   4.630000      7.6003515E-29
   4.640000      8.2273855E-29
   4.650000      8.8715838E-29
   4.660000      9.5317252E-29
   4.670000      1.0206424E-28
   4.680000      1.0894123E-28
   4.690000      1.1593082E-28
   4.700000      1.2301379E-28
   4.710000      1.3016892E-28
   4.720000      1.3737296E-28
   4.730000      1.4460055E-28
   4.740000      1.5182420E-28
   4.750000      1.5901409E-28
   4.760000      1.6613816E-28
   4.770000      1.7316193E-28
   4.780000      1.8004852E-28
   4.790000      1.8675856E-28
   4.800000      1.9325015E-28
   4.810000      1.9947886E-28
   4.820000      2.0539764E-28
   4.830000      2.1095683E-28
   4.840000      2.1610424E-28
   4.850000      2.2078495E-28
   4.860000      2.2494152E-28
   4.870000      2.2851392E-28
   4.880000      2.3143958E-28
   4.890000      2.3365346E-28
   4.900000      2.3508811E-28
   4.910000      2.3567371E-28
   4.920000      2.3533829E-28
   4.930000      2.3400773E-28
   4.940000      2.3160591E-28
   4.950000      2.2805495E-28
   4.960000      2.2327530E-28
   4.970000      2.1718601E-28
   4.980000      2.0970488E-28
   4.990000      2.0074879E-28
   5.000000      1.9023387E-28
   5.010000      1.7807588E-28
   5.020000      1.6419049E-28
   5.030000      1.4849364E-28
   5.040000      1.3090190E-28
   5.050000      1.1133288E-28
   5.060000      8.9705646E-29
   5.070000      6.5941205E-29
   5.080000      3.9963010E-29
   5.090000      1.1697398E-29
   5.100000     -1.8925804E-29
   5.110000     -5.1972688E-29
   5.120000     -8.7504657E-29
   5.130000     -1.2557782E-28
   5.140000     -1.6624238E-28
   5.150000     -2.0954185E-28
   5.160000     -2.5551231E-28
   5.170000     -3.0418181E-28
   5.180000     -3.5556950E-28
   5.190000     -4.0968488E-28
   5.200000     -4.6652706E-28
   5.210000     -5.2608380E-28
   5.220000     -5.8833053E-28
   5.230000     -6.5322994E-28
   5.240000     -7.2073089E-28
   5.250000     -7.9076748E-28
   5.260000     -8.6325813E-28
   5.270000     -9.3810488E-28
   5.280000     -1.0151923E-27
   5.290000     -1.0943871E-27
   5.300000     -1.1755365E-27
   5.310000     -1.2584681E-27
   5.320000     -1.3429887E-27
   5.330000     -1.4288834E-27
   5.340000     -1.5159153E-27
   5.350000     -1.6038240E-27
   5.360000     -1.6923260E-27
   5.370000     -1.7811129E-27
   5.380000     -1.8698517E-27
   5.390000     -1.9581835E-27
   5.400000     -2.0457236E-27
   5.410000     -2.1320609E-27
   5.420000     -2.2167577E-27
   5.430000     -2.2993489E-27
   5.440000     -2.3793430E-27
   5.450000     -2.4562205E-27
   5.460000     -2.5294357E-27
   5.470000     -2.5984152E-27
   5.480000     -2.6625592E-27
   5.490000     -2.7212419E-27
   5.500000     -2.7738121E-27
   5.510000     -2.8195932E-27
   5.520000     -2.8578846E-27
   5.530000     -2.8879632E-27
   5.540000     -2.9090839E-27
   5.550000     -2.9204807E-27
   5.560000     -2.9213692E-27
   5.570000     -2.9109482E-27
   5.580000     -2.8884007E-27
   5.590000     -2.8528966E-27
   5.600000     -2.8035955E-27
   5.610000     -2.7396486E-27
   5.620000     -2.6602019E-27
   5.630000     -2.5643984E-27
   5.640000     -2.4513822E-27
   5.650000     -2.3203020E-27
   5.660000     -2.1703131E-27
   5.670000     -2.0005834E-27
   5.680000     -1.8102960E-27
   5.690000     -1.5986541E-27
   5.700000     -1.3648856E-27
   5.710000     -1.1082469E-27
   5.720000     -8.2802922E-28
   5.730000     -5.2356242E-28
   5.740000     -1.9422125E-28
   5.750000      1.6056946E-28
   5.760000      5.4132888E-28
   5.770000      9.4851433E-28
   5.780000      1.3825152E-27
   5.790000      1.8436471E-27
   5.800000      2.3321452E-27
   5.810000      2.8481573E-27
   5.820000      3.3917379E-27
   5.830000      3.9628416E-27
   5.840000      4.5613155E-27
   5.850000      5.1868922E-27
   5.860000      5.8391846E-27
   5.870000      6.5176782E-27
   5.880000      7.2217242E-27
   5.890000      7.9505323E-27
   5.900000      8.7031649E-27
   5.910000      9.4785289E-27
   5.920000      1.0275372E-26
   5.930000      1.1092273E-26
   5.940000      1.1927639E-26
   5.950000      1.2779698E-26
   5.960000      1.3646494E-26
   5.970000      1.4525883E-26
   5.980000      1.5415522E-26
   5.990000      1.6312875E-26
   6.000000      1.7215199E-26
   6.010000      1.8119548E-26
   6.020000      1.9022766E-26
   6.030000      1.9921482E-26
   6.040000      2.0812117E-26
   6.050000      2.1690872E-26
   6.060000      2.2553738E-26
   6.070000      2.3396491E-26
   6.080000      2.4214689E-26
   6.090000      2.5003686E-26
   6.100000      2.5758623E-26
   6.110000      2.6474434E-26
   6.120000      2.7145862E-26
   6.130000      2.7767448E-26
   6.140000      2.8333548E-26
   6.150000      2.8838336E-26
   6.160000      2.9275827E-26
   6.170000      2.9639862E-26
   6.180000      2.9924144E-26
   6.190000      3.0122235E-26
   6.200000      3.0227581E-26
   6.210000      3.0233516E-26
   6.220000      3.0133288E-26
   6.230000      2.9920074E-26
   6.240000      2.9586999E-26
   6.250000      2.9127161E-26
   6.260000      2.8533638E-26
   6.270000      2.7799538E-26
   6.280000      2.6917999E-26
   6.290000      2.5882227E-26
   6.300000      2.4685528E-26
   6.310000      2.3321329E-26
   6.320000      2.1783211E-26
   6.330000      2.0064945E-26
   6.340000      1.8160519E-26
   6.350000      1.6064177E-26
   6.360000      1.3770453E-26
   6.370000      1.1274206E-26
   6.380000      8.5706679E-27
   6.390000      5.6554713E-27
   6.400000      2.5246927E-27
   6.410000     -8.2509997E-28
   6.420000     -4.3968141E-27
   6.430000     -8.1927858E-27
   6.440000     -1.2214741E-26
   6.450000     -1.6463741E-26
   6.460000     -2.0940145E-26
   6.470000     -2.5643568E-26
   6.480000     -3.0572825E-26
   6.490000     -3.5725902E-26
   6.500000     -4.1099894E-26
   6.510000     -4.6690967E-26
   6.520000     -5.2494336E-26
   6.530000     -5.8504187E-26
   6.540000     -6.4713662E-26
   6.550000     -7.1114788E-26
   6.560000     -7.7698479E-26
   6.570000     -8.4454444E-26
   6.580000     -9.1371201E-26
   6.590000     -9.8436011E-26
   6.600000     -1.0563486E-25
   6.610000     -1.1295240E-25
   6.620000     -1.2037197E-25
   6.630000     -1.2787551E-25
   6.640000     -1.3544361E-25
   6.650000     -1.4305543E-25
   6.660000     -1.5068869E-25
   6.670000     -1.5831969E-25
   6.680000     -1.6592328E-25
   6.690000     -1.7347289E-25
   6.700000     -1.8094046E-25
   6.710000     -1.8829648E-25
   6.720000     -1.9551005E-25
   6.730000     -2.0254884E-25
   6.740000     -2.0937909E-25
   6.750000     -2.1596576E-25
   6.760000     -2.2227238E-25
   6.770000     -2.2826124E-25
   6.780000     -2.3389334E-25
   6.790000     -2.3912854E-25
   6.800000     -2.4392548E-25
   6.810000     -2.4824183E-25
   6.820000     -2.5203418E-25
   6.830000     -2.5525823E-25
   6.840000     -2.5786889E-25
   6.850000     -2.5982031E-25
   6.860000     -2.6106595E-25
   6.870000     -2.6155884E-25
   6.880000     -2.6125158E-25
   6.890000     -2.6009649E-25
   6.900000     -2.5804577E-25
   6.910000     -2.5505162E-25
   6.920000     -2.5106642E-25
   6.930000     -2.4604283E-25
   6.940000     -2.3993407E-25
   6.950000     -2.3269395E-25
   6.960000     -2.2427717E-25
   6.970000     -2.1463946E-25
   6.980000     -2.0373780E-25
   6.990000     -1.9153060E-25
   7.000000     -1.7797793E-25
   7.010000     -1.6304173E-25
   7.020000     -1.4668604E-25
   7.030000     -1.2887717E-25
   7.040000     -1.0958409E-25
   7.050000     -8.8778536E-26
   7.060000     -6.6435265E-26