  -2.600000      0.0000000E+00
  -2.590000      0.0000000E+00
  -2.580000      0.0000000E+00
  -2.570000      0.0000000E+00
  -2.560000      0.0000000E+00
  -2.550000      0.0000000E+00
  -2.540000      0.0000000E+00
  -2.530000      0.0000000E+00
  -2.520000      0.0000000E+00
  -2.510000      0.0000000E+00
  -2.500000      0.0000000E+00
  -2.490000      0.0000000E+00
  -2.480000      0.0000000E+00
  -2.470000      0.0000000E+00
  -2.460000      0.0000000E+00
  -2.450000      0.0000000E+00
  -2.440000      0.0000000E+00
  -2.430000      0.0000000E+00
  -2.420000      0.0000000E+00
  -2.410000      0.0000000E+00
  -2.400000      0.0000000E+00
  -2.390000      0.0000000E+00
  -2.380000      0.0000000E+00
  -2.370000      0.0000000E+00
  -2.360000      0.0000000E+00
  -2.350000      0.0000000E+00
  -2.340000      0.0000000E+00
  -2.330000      0.0000000E+00
  -2.320000      0.0000000E+00
  -2.310000      0.0000000E+00
  -2.300000      0.0000000E+00
  -2.290000      0.0000000E+00
  -2.280000      0.0000000E+00
  -2.270000      0.0000000E+00
  -2.260000      0.0000000E+00
  -2.250000      0.0000000E+00
  -2.240000      0.0000000E+00
  -2.230000      0.0000000E+00
  -2.220000      0.0000000E+00
  -2.210000      0.0000000E+00
  -2.200000      0.0000000E+00
  -2.190000      0.0000000E+00
  -2.180000      0.0000000E+00
  -2.170000      0.0000000E+00
  -2.160000      0.0000000E+00
  -2.150000      0.0000000E+00
  -2.140000      0.0000000E+00
  -2.130000      0.0000000E+00
  -2.120000      0.0000000E+00
  -2.110000      0.0000000E+00
  -2.100000      0.0000000E+00
  -2.090000      0.0000000E+00
  -2.080000      0.0000000E+00
  -2.070000      0.0000000E+00
  -2.060000      0.0000000E+00
  -2.050000      0.0000000E+00
  -2.040000      0.0000000E+00
  -2.030000      0.0000000E+00
  -2.020000      0.0000000E+00
  -2.010000      0.0000000E+00
  -2.000000      0.0000000E+00
  -1.990000      0.0000000E+00
  -1.980000      0.0000000E+00
  -1.970000      0.0000000E+00
  -1.960000      0.0000000E+00
  -1.950000      0.0000000E+00
  -1.940000      0.0000000E+00
  -1.930000      0.0000000E+00
  -1.920000      0.0000000E+00
  -1.910000      0.0000000E+00
  -1.900000      0.0000000E+00
  -1.890000      0.0000000E+00
  -1.880000      0.0000000E+00
  -1.870000      0.0000000E+00
  -1.860000      0.0000000E+00
  -1.850000      0.0000000E+00
  -1.840000      0.0000000E+00
  -1.830000      0.0000000E+00
  -1.820000      0.0000000E+00
  -1.810000      0.0000000E+00
  -1.800000      0.0000000E+00
  -1.790000      0.0000000E+00
  -1.780000      0.0000000E+00
  -1.770000      0.0000000E+00
  -1.760000      0.0000000E+00
  -1.750000      0.0000000E+00
  -1.740000      0.0000000E+00
  -1.730000      0.0000000E+00
  -1.720000      0.0000000E+00
  -1.710000      0.0000000E+00
  -1.700000      0.0000000E+00
  -1.690000      0.0000000E+00
  -1.680000      0.0000000E+00
  -1.670000      0.0000000E+00
  -1.660000      0.0000000E+00
  -1.650000      0.0000000E+00
  -1.640000      0.0000000E+00
  -1.630000      0.0000000E+00
  -1.620000      0.0000000E+00
  -1.610000      0.0000000E+00
  -1.600000      0.0000000E+00
  -1.590000      0.0000000E+00
  -1.580000      0.0000000E+00
  -1.570000      0.0000000E+00
  -1.560000      0.0000000E+00
  -1.550000      0.0000000E+00
  -1.540000      0.0000000E+00
  -1.530000      0.0000000E+00
  -1.520000      0.0000000E+00
  -1.510000      0.0000000E+00
  -1.500000      0.0000000E+00
  -1.490000      0.0000000E+00
  -1.480000      0.0000000E+00
  -1.470000      0.0000000E+00
  -1.460000      0.0000000E+00
  -1.450000      0.0000000E+00
  -1.440000      0.0000000E+00
  -1.430000      0.0000000E+00
  -1.420000      0.0000000E+00
  -1.410000      0.0000000E+00
  -1.400000      0.0000000E+00
  -1.390000      0.0000000E+00
  -1.380000      0.0000000E+00
  -1.370000      0.0000000E+00
  -1.360000      0.0000000E+00
  -1.350000      0.0000000E+00
  -1.340000      0.0000000E+00
  -1.330000      0.0000000E+00
  -1.320000      0.0000000E+00
  -1.310000      0.0000000E+00
  -1.300000      0.0000000E+00
  -1.290000      0.0000000E+00
  -1.280000      0.0000000E+00
  -1.270000      0.0000000E+00
  -1.260000      0.0000000E+00
  -1.250000      0.0000000E+00
  -1.240000      0.0000000E+00
  -1.230000      0.0000000E+00
  -1.220000      0.0000000E+00
  -1.210000      0.0000000E+00
  -1.200000      0.0000000E+00
  -1.190000      0.0000000E+00
  -1.180000      0.0000000E+00
  -1.170000      0.0000000E+00
  -1.160000      0.0000000E+00
  -1.150000      0.0000000E+00
  -1.140000      0.0000000E+00
  -1.130000      0.0000000E+00
  -1.120000      0.0000000E+00
  -1.110000      0.0000000E+00
  -1.100000      0.0000000E+00
  -1.090000      0.0000000E+00
  -1.080000      0.0000000E+00
  -1.070000      0.0000000E+00
  -1.060000      0.0000000E+00
  -1.050000      0.0000000E+00
  -1.040000      0.0000000E+00
  -1.030000      0.0000000E+00
  -1.020000      0.0000000E+00
  -1.010000      0.0000000E+00
  -1.000000      0.0000000E+00
 -0.9900000      0.0000000E+00
 -0.9800000      0.0000000E+00
 -0.9700000      0.0000000E+00
 -0.9600000      0.0000000E+00
 -0.9500000      0.0000000E+00
 -0.9400000      0.0000000E+00
 -0.9300000      0.0000000E+00
 -0.9200000      0.0000000E+00
 -0.9100000      0.0000000E+00
 -0.9000000      0.0000000E+00
 -0.8900000      0.0000000E+00
 -0.8800000      0.0000000E+00
 -0.8700000      0.0000000E+00
 -0.8600000      0.0000000E+00
 -0.8500000      0.0000000E+00
 -0.8400000      0.0000000E+00
 -0.8300000      0.0000000E+00
 -0.8200000      0.0000000E+00
 -0.8100000      0.0000000E+00
 -0.8000000      0.0000000E+00
 -0.7900000      0.0000000E+00
 -0.7800000      0.0000000E+00
 -0.7700000      0.0000000E+00
 -0.7600000      0.0000000E+00
 -0.7500000      0.0000000E+00
 -0.7400000      0.0000000E+00
 -0.7300000      0.0000000E+00
 -0.7200000      0.0000000E+00
 -0.7100000      0.0000000E+00
 -0.7000000      0.0000000E+00
 -0.6900000      0.0000000E+00
 -0.6800000      0.0000000E+00
 -0.6700000      0.0000000E+00
 -0.6600000      0.0000000E+00
 -0.6500000      0.0000000E+00
 -0.6400000      0.0000000E+00
 -0.6300000      0.0000000E+00
 -0.6200000      0.0000000E+00
 -0.6100000      0.0000000E+00
 -0.6000000      0.0000000E+00
 -0.5900000      0.0000000E+00
 -0.5800000      0.0000000E+00
 -0.5700000      0.0000000E+00
 -0.5600000      0.0000000E+00
 -0.5500000      0.0000000E+00
 -0.5400000      0.0000000E+00
 -0.5300000      0.0000000E+00
 -0.5200000      0.0000000E+00
 -0.5100000      0.0000000E+00
 -0.5000000      0.0000000E+00
 -0.4900000      0.0000000E+00
 -0.4800000      0.0000000E+00
 -0.4700000      0.0000000E+00
 -0.4600000      0.0000000E+00
 -0.4500000      0.0000000E+00
 -0.4400000      0.0000000E+00
 -0.4300000      0.0000000E+00
 -0.4200000      0.0000000E+00
 -0.4100000      0.0000000E+00
 -0.4000000      0.0000000E+00
 -0.3900000      0.0000000E+00
 -0.3800000      0.0000000E+00
 -0.3700000      0.0000000E+00
 -0.3600000      0.0000000E+00
 -0.3500000      0.0000000E+00
 -0.3400000      0.0000000E+00
 -0.3300000      0.0000000E+00
 -0.3200000      0.0000000E+00
 -0.3100000      0.0000000E+00
 -0.3000000      0.0000000E+00
 -0.2900000      0.0000000E+00
 -0.2800000      0.0000000E+00
 -0.2700000      0.0000000E+00
 -0.2600000      0.0000000E+00
 -0.2500000      0.0000000E+00
 -0.2400000      0.0000000E+00
 -0.2300000      0.0000000E+00
 -0.2200000      0.0000000E+00
 -0.2100000      0.0000000E+00
 -0.2000000      0.0000000E+00
 -0.1900000      0.0000000E+00
 -0.1800000      0.0000000E+00
 -0.1700000      0.0000000E+00
 -0.1600000      0.0000000E+00
 -0.1500000      0.0000000E+00
 -0.1400000      0.0000000E+00
 -0.1300000      0.0000000E+00
 -0.1200000      0.0000000E+00
 -0.1100000      0.0000000E+00
 -0.1000000      0.0000000E+00
 -9.0000004E-02  0.0000000E+00
 -7.9999998E-02  0.0000000E+00
 -7.0000000E-02  0.0000000E+00
 -5.9999999E-02  0.0000000E+00
 -5.0000001E-02  0.0000000E+00
 -3.9999999E-02  0.0000000E+00
 -2.9999999E-02  0.0000000E+00
 -2.0000000E-02  0.0000000E+00
 -9.9999998E-03  0.0000000E+00
 -3.4694470E-17  0.0000000E+00
  9.9999998E-03  0.0000000E+00
  2.0000000E-02  0.0000000E+00
  2.9999999E-02  0.0000000E+00
  3.9999999E-02  0.0000000E+00
  5.0000001E-02  0.0000000E+00
  5.9999999E-02  0.0000000E+00
  7.0000000E-02  0.0000000E+00
  7.9999998E-02  0.0000000E+00
  9.0000004E-02  0.0000000E+00
  0.1000000      0.0000000E+00
  0.1100000      0.0000000E+00
  0.1200000      0.0000000E+00
  0.1300000      0.0000000E+00
  0.1400000      0.0000000E+00
  0.1500000      0.0000000E+00
  0.1600000      0.0000000E+00
  0.1700000      0.0000000E+00
  0.1800000      0.0000000E+00
  0.1900000      0.0000000E+00
  0.2000000      0.0000000E+00
  0.2100000      0.0000000E+00
  0.2200000      0.0000000E+00
  0.2300000      0.0000000E+00
  0.2400000      0.0000000E+00
  0.2500000      0.0000000E+00
  0.2600000      0.0000000E+00
  0.2700000      0.0000000E+00
  0.2800000      0.0000000E+00
  0.2900000      0.0000000E+00
  0.3000000      0.0000000E+00
  0.3100000      0.0000000E+00
  0.3200000      0.0000000E+00
  0.3300000      0.0000000E+00
  0.3400000      0.0000000E+00
  0.3500000      0.0000000E+00
  0.3600000      0.0000000E+00
  0.3700000      0.0000000E+00
  0.3800000      0.0000000E+00
  0.3900000      0.0000000E+00
  0.4000000      0.0000000E+00
  0.4100000      0.0000000E+00
  0.4200000      0.0000000E+00
  0.4300000      0.0000000E+00
  0.4400000      0.0000000E+00
  0.4500000      0.0000000E+00
  0.4600000      0.0000000E+00
  0.4700000      0.0000000E+00
  0.4800000      0.0000000E+00
  0.4900000      0.0000000E+00
  0.5000000      0.0000000E+00
  0.5100000      0.0000000E+00
  0.5200000      0.0000000E+00
  0.5300000      0.0000000E+00
  0.5400000      0.0000000E+00
  0.5500000      0.0000000E+00
  0.5600000      0.0000000E+00
  0.5700000      0.0000000E+00
  0.5800000      0.0000000E+00
  0.5900000      0.0000000E+00
  0.6000000     -1.4064204E-38
  0.6100000     -2.6801304E-38
  0.6200000     -4.1990931E-38
  0.6300000     -6.3189727E-38
  0.6400000     -8.9742528E-38
  0.6500000     -1.1959779E-37
  0.6600000     -1.5224536E-37
  0.6700000     -1.7701162E-37
  0.6800000     -1.8671449E-37
  0.6900000     -1.8674051E-37
  0.7000000     -1.7624058E-37
  0.7100000     -1.5330404E-37
  0.7200000     -1.0795591E-37
  0.7300000     -4.0318529E-38
  0.7400000      4.1574348E-38
  0.7500000      1.3998784E-37
  0.7600000      2.5648699E-37
  0.7700000      3.8865020E-37
  0.7800000      5.3167654E-37
  0.7900000      6.8646410E-37
  0.8000000      8.4434210E-37
  0.8100000      9.9349936E-37
  0.8200000      1.1279387E-36
  0.8300000      1.2100170E-36
  0.8400000      1.2212480E-36
  0.8500000      1.1849809E-36
  0.8600000      1.1160781E-36
  0.8700000      1.0018199E-36
  0.8800000      8.2315025E-37
  0.8900000      5.8841101E-37
  0.9000000      3.1102142E-37
  0.9100000     -3.0855471E-38
  0.9200000     -4.6407373E-37
  0.9300000     -9.9371011E-37
  0.9400000     -1.6134444E-36
  0.9500000     -2.2713166E-36
  0.9600000     -2.8857920E-36
  0.9700000     -3.4151695E-36
  0.9800000     -3.9066167E-36
  0.9900000     -4.3792990E-36
   1.000000     -4.7825803E-36
   1.010000     -5.0925193E-36
   1.020000     -5.2648526E-36
   1.030000     -5.2285313E-36
   1.040000     -5.0357083E-36
   1.050000     -4.7816286E-36
   1.060000     -4.4176777E-36
   1.070000     -3.9024870E-36
   1.080000     -3.5223149E-36
   1.090000     -3.3335822E-36
   1.100000     -3.0627138E-36
   1.110000     -2.6496575E-36
   1.120000     -2.2167196E-36
   1.130000     -1.6547176E-36
   1.140000     -7.7416956E-37
   1.150000      8.6141480E-37
   1.160000      3.1915188E-36
   1.170000      5.7365631E-36
   1.180000      8.4615038E-36
   1.190000      1.1336837E-35
   1.200000      1.4406253E-35
   1.210000      1.7592243E-35
   1.220000      2.0913412E-35
   1.230000      2.4511763E-35
   1.240000      2.8302351E-35
   1.250000      3.2035341E-35
   1.260000      3.5831312E-35
   1.270000      3.9615184E-35
   1.280000      4.3093281E-35
   1.290000      4.5736869E-35
   1.300000      4.7496435E-35
   1.310000      4.8614532E-35
   1.320000      4.8948027E-35
   1.330000      4.7346542E-35
   1.340000      4.3169086E-35
   1.350000      3.7362778E-35
   1.360000      3.0211069E-35
   1.370000      2.1277749E-35
   1.380000      1.0329849E-35
   1.390000     -2.2934656E-36
   1.400000     -1.6702092E-35
   1.410000     -3.3125583E-35
   1.420000     -5.0911814E-35
   1.430000     -6.9908216E-35
   1.440000     -9.1052535E-35
   1.450000     -1.1360168E-34
   1.460000     -1.3574672E-34
   1.470000     -1.5724894E-34
   1.480000     -1.7976756E-34
   1.490000     -2.0389973E-34
   1.500000     -2.2774634E-34
   1.510000     -2.4998586E-34
   1.520000     -2.7079018E-34
   1.530000     -2.8968582E-34
   1.540000     -3.0150353E-34
   1.550000     -3.0325119E-34
   1.560000     -2.9764164E-34
   1.570000     -2.8492420E-34
   1.580000     -2.6595700E-34
   1.590000     -2.4061047E-34
   1.600000     -2.1315448E-34
   1.610000     -1.8436891E-34
   1.620000     -1.4726870E-34
   1.630000     -1.0393420E-34
   1.640000     -5.3630811E-35
   1.650000      6.0704282E-36
   1.660000      7.4494383E-35
   1.670000      1.5169123E-34
   1.680000      2.3617468E-34
   1.690000      3.2899740E-34
   1.700000      4.2626543E-34
   1.710000      5.2481961E-34
   1.720000      6.2596773E-34
   1.730000      7.3246637E-34
   1.740000      8.4289144E-34
   1.750000      9.5365184E-34
   1.760000      1.0666559E-33
   1.770000      1.1824681E-33
   1.780000      1.2961914E-33
   1.790000      1.4045776E-33
   1.800000      1.5081870E-33
   1.810000      1.6054538E-33
   1.820000      1.6903634E-33
   1.830000      1.7628599E-33
   1.840000      1.8231469E-33
   1.850000      1.8638297E-33
   1.860000      1.8834171E-33
   1.870000      1.8772687E-33
   1.880000      1.8422144E-33
   1.890000      1.7761696E-33
   1.900000      1.6746557E-33
   1.910000      1.5377666E-33
   1.920000      1.3632086E-33
   1.930000      1.1471215E-33
   1.940000      8.8703290E-34
   1.950000      5.8147656E-34
   1.960000      2.2804765E-34
   1.970000     -1.7448671E-34
   1.980000     -6.2596006E-34
   1.990000     -1.1246200E-33
   2.000000     -1.6686216E-33
   2.010000     -2.2587511E-33
   2.020000     -2.8942394E-33
   2.030000     -3.5708708E-33
   2.040000     -4.2819431E-33
   2.050000     -5.0227599E-33
   2.060000     -5.7896315E-33
   2.070000     -6.5753223E-33
   2.080000     -7.3700807E-33
   2.090000     -8.1651270E-33
   2.100000     -8.9512352E-33
   2.110000     -9.7179279E-33
   2.120000     -1.0454341E-32
   2.130000     -1.1147204E-32
   2.140000     -1.1782463E-32
   2.150000     -1.2346834E-32
   2.160000     -1.2825631E-32
   2.170000     -1.3205518E-32
   2.180000     -1.3472206E-32
   2.190000     -1.3609734E-32
   2.200000     -1.3603341E-32
   2.210000     -1.3438287E-32
   2.220000     -1.3100119E-32
   2.230000     -1.2575089E-32
   2.240000     -1.1850289E-32
   2.250000     -1.0913208E-32
   2.260000     -9.7536019E-33
   2.270000     -8.3622045E-33
   2.280000     -6.7304002E-33
   2.290000     -4.8522170E-33
   2.300000     -2.7236340E-33
   2.310000     -3.4299272E-34
   2.320000      2.2893326E-33
   2.330000      5.1690289E-33
   2.340000      8.2896986E-33
   2.350000      1.1642889E-32
   2.360000      1.5215531E-32
   2.370000      1.8991619E-32
   2.380000      2.2951862E-32
   2.390000      2.7073328E-32
   2.400000      3.1329546E-32
   2.410000      3.5690339E-32
   2.420000      4.0121917E-32
   2.430000      4.4586853E-32
   2.440000      4.9044069E-32
   2.450000      5.3449129E-32
   2.460000      5.7754224E-32
   2.470000      6.1909367E-32
   2.480000      6.5859410E-32
   2.490000      6.9547265E-32
   2.500000      7.2915186E-32
   2.510000      7.5901870E-32
   2.520000      7.8445076E-32
   2.530000      8.0481049E-32
   2.540000      8.1945427E-32
   2.550000      8.2773522E-32
   2.560000      8.2901892E-32
   2.570000      8.2268165E-32
   2.580000      8.0810740E-32
   2.590000      7.8471248E-32
   2.600000      7.5194452E-32
   2.610000      7.0928765E-32
   2.620000      6.5627485E-32
   2.630000      5.9249353E-32
   2.640000      5.1759391E-32
   2.650000      4.3129719E-32
   2.660000      3.3340364E-32
   2.670000      2.2379931E-32
   2.680000      1.0246435E-32
   2.690000     -3.0519132E-33
   2.700000     -1.7495973E-32
   2.710000     -3.3055174E-32
   2.720000     -4.9686959E-32
   2.730000     -6.7336043E-32
   2.740000     -8.5934091E-32
   2.750000     -1.0539936E-31
   2.760000     -1.2563640E-31
   2.770000     -1.4653583E-31
   2.780000     -1.6797245E-31
   2.790000     -1.8981085E-31
   2.800000     -2.1190232E-31
   2.810000     -2.3408080E-31
   2.820000     -2.5616852E-31
   2.830000     -2.7797543E-31
   2.840000     -2.9929955E-31
   2.850000     -3.1992804E-31
   2.860000     -3.3963786E-31
   2.870000     -3.5819687E-31
   2.880000     -3.7536499E-31
   2.890000     -3.9089569E-31
   2.900000     -4.0453740E-31
   2.910000     -4.1603491E-31
   2.920000     -4.2513145E-31
   2.930000     -4.3157010E-31
   2.940000     -4.3509602E-31
   2.950000     -4.3545845E-31
   2.960000     -4.3241227E-31
   2.970000     -4.2572174E-31
   2.980000     -4.1516166E-31
   2.990000     -4.0051918E-31
   3.000000     -3.8159725E-31
   3.010000     -3.5821688E-31
   3.020000     -3.3021959E-31
   3.030000     -2.9746966E-31
   3.040000     -2.5985678E-31
   3.050000     -2.1729881E-31
   3.060000     -1.6974384E-31
   3.070000     -1.1717277E-31
   3.080000     -5.9601531E-32
   3.090000      2.9167899E-33
   3.100000      7.0289813E-32
   3.110000      1.4238347E-31
   3.120000      2.1902180E-31
   3.130000      2.9998447E-31
   3.140000      3.8500430E-31
   3.150000      4.7376786E-31
   3.160000      5.6591397E-31
   3.170000      6.6103332E-31
   3.180000      7.5866838E-31
   3.190000      8.5831306E-31
   3.200000      9.5941366E-31
   3.210000      1.0613691E-30
   3.220000      1.1635325E-30
   3.230000      1.2652122E-30
   3.240000      1.3656739E-30
   3.250000      1.4641427E-30
   3.260000      1.5598054E-30
   3.270000      1.6518137E-30
   3.280000      1.7392874E-30
   3.290000      1.8213173E-30
   3.300000      1.8969701E-30
   3.310000      1.9652917E-30
   3.320000      2.0253126E-30
   3.330000      2.0760519E-30
   3.340000      2.1165229E-30
   3.350000      2.1457385E-30
   3.360000      2.1627166E-30
   3.370000      2.1664865E-30
   3.380000      2.1560944E-30
   3.390000      2.1306102E-30
   3.400000      2.0891339E-30
   3.410000      2.0308027E-30
   3.420000      1.9547973E-30
   3.430000      1.8603496E-30
   3.440000      1.7467489E-30
   3.450000      1.6133500E-30
   3.460000      1.4595802E-30
   3.470000      1.2849464E-30
   3.480000      1.0890424E-30
   3.490000      8.7155590E-31
   3.500000      6.3227626E-31
   3.510000      3.7110086E-31
   3.520000      8.8041876E-32
   3.530000     -2.1676666E-31
   3.540000     -5.4306283E-31
   3.550000     -8.9045070E-31
   3.560000     -1.2583948E-30
   3.570000     -1.6462146E-30
   3.580000     -2.0530803E-30
   3.590000     -2.4780072E-30
   3.600000     -2.9198533E-30
   3.610000     -3.3773149E-30
   3.620000     -3.8489240E-30
   3.630000     -4.3330452E-30
   3.640000     -4.8278776E-30
   3.650000     -5.3314480E-30
   3.660000     -5.8416164E-30
   3.670000     -6.3560721E-30
   3.680000     -6.8723380E-30
   3.690000     -7.3877680E-30
   3.700000     -7.8995538E-30
   3.710000     -8.4047259E-30
   3.720000     -8.9001564E-30
   3.730000     -9.3825665E-30
   3.740000     -9.8485279E-30
   3.750000     -1.0294472E-29
   3.760000     -1.0716698E-29
   3.770000     -1.1111374E-29
   3.780000     -1.1474552E-29
   3.790000     -1.1802179E-29
   3.800000     -1.2090100E-29
   3.810000     -1.2334072E-29
   3.820000     -1.2529781E-29
   3.830000     -1.2672851E-29
   3.840000     -1.2758857E-29
   3.850000     -1.2783342E-29
   3.860000     -1.2741837E-29
   3.870000     -1.2629869E-29
   3.880000     -1.2442992E-29
   3.890000     -1.2176791E-29
   3.900000     -1.1826918E-29
   3.910000     -1.1389102E-29
   3.920000     -1.0859175E-29
   3.930000     -1.0233096E-29
   3.940000     -9.5069748E-30
   3.950000     -8.6770953E-30
   3.960000     -7.7399423E-30
   3.970000     -6.6922274E-30
   3.980000     -5.5309150E-30
   3.990000     -4.2532530E-30
   4.000000     -2.8567975E-30
   4.010000     -1.3394415E-30
   4.020000      3.0055324E-31
   4.030000      2.0645298E-30
   4.040000      3.9534064E-30
   4.050000      5.9676436E-30
   4.060000      8.1072164E-30
   4.070000      1.0371585E-29
   4.080000      1.2759661E-29
   4.090000      1.5269776E-29
   4.100000      1.7899659E-29
   4.110000      2.0646398E-29
   4.120000      2.3506408E-29
   4.130000      2.6475413E-29
   4.140000      2.9548394E-29
   4.150000      3.2719585E-29
   4.160000      3.5982420E-29
   4.170000      3.9329524E-29
   4.180000      4.2752669E-29
   4.190000      4.6242755E-29
   4.200000      4.9789785E-29
   4.210000      5.3382836E-29
   4.220000      5.7010042E-29
   4.230000      6.0658548E-29
   4.240000      6.4314535E-29
   4.250000      6.7963149E-29
   4.260000      7.1588531E-29
   4.270000      7.5173764E-29
   4.280000      7.8700894E-29
   4.290000      8.2150897E-29
   4.300000      8.5503694E-29
   4.310000      8.8738113E-29
   4.320000      9.1831951E-29
   4.330000      9.4761904E-29
   4.340000      9.7503634E-29
   4.350000      1.0003175E-28
   4.360000      1.0231984E-28
   4.370000      1.0434048E-28
   4.380000      1.0606524E-28
   4.390000      1.0746475E-28
   4.400000      1.0850872E-28
   4.410000      1.0916598E-28
   4.420000      1.0940454E-28
   4.430000      1.0919159E-28
   4.440000      1.0849358E-28
   4.450000      1.0727633E-28
   4.460000      1.0550505E-28
   4.470000      1.0314445E-28
   4.480000      1.0015878E-28
   4.490000      9.6511961E-29
   4.500000      9.2167713E-29
   4.510000      8.7089601E-29
   4.520000      8.1241208E-29
   4.530000      7.4586235E-29
   4.540000      6.7088686E-29
   4.550000      5.8712979E-29
   4.560000      4.9424129E-29
   4.570000      3.9187947E-29
   4.580000      2.7971186E-29
   4.590000      1.5741769E-29
   4.600000      2.4690145E-30
   4.610000     -1.1876165E-29
   4.620000     -2.7320992E-29
   4.630000     -4.3890589E-29
   4.640000     -6.1607712E-29
   4.650000     -8.0492461E-29
   4.660000     -1.0056199E-28
   4.670000     -1.2183019E-28
   4.680000     -1.4430739E-28
   4.690000     -1.6800006E-28
   4.700000     -1.9291039E-28
   4.710000     -2.1903594E-28
   4.720000     -2.4636939E-28
   4.730000     -2.7489800E-28
   4.740000     -3.0460339E-28
   4.750000     -3.3546098E-28
   4.760000     -3.6743977E-28
   4.770000     -4.0050171E-28
   4.780000     -4.3460140E-28
   4.790000     -4.6968583E-28
   4.800000     -5.0569369E-28
   4.810000     -5.4255493E-28
   4.820000     -5.8019058E-28
   4.830000     -6.1851211E-28
   4.840000     -6.5742119E-28
   4.850000     -6.9680892E-28
   4.860000     -7.3655592E-28
   4.870000     -7.7653144E-28
   4.880000     -8.1659324E-28
   4.890000     -8.5658710E-28
   4.900000     -8.9634657E-28
   4.910000     -9.3569274E-28
   4.920000     -9.7443350E-28
   4.930000     -1.0123635E-27
   4.940000     -1.0492644E-27
   4.950000     -1.0849036E-27
   4.960000     -1.1190351E-27
   4.970000     -1.1513989E-27
   4.980000     -1.1817210E-27
   4.990000     -1.2097132E-27
   5.000000     -1.2350734E-27
   5.010000     -1.2574857E-27
   5.020000     -1.2766208E-27
   5.030000     -1.2921355E-27
   5.040000     -1.3036739E-27
   5.050000     -1.3108673E-27
   5.060000     -1.3133348E-27
   5.070000     -1.3106839E-27
   5.080000     -1.3025113E-27
   5.090000     -1.2884037E-27
   5.100000     -1.2679386E-27
   5.110000     -1.2406850E-27
   5.120000     -1.2062055E-27
   5.130000     -1.1640567E-27
   5.140000     -1.1137905E-27
   5.150000     -1.0549563E-27
   5.160000     -9.8710207E-28
   5.170000     -9.0977637E-28
   5.180000     -8.2253040E-28
   5.190000     -7.2491955E-28
   5.200000     -6.1650597E-28
   5.210000     -4.9686104E-28
   5.220000     -3.6556765E-28
   5.230000     -2.2222268E-28
   5.240000     -6.6440250E-29
   5.250000      1.0214561E-28
   5.260000      2.8387779E-28
   5.270000      4.7907296E-28
   5.280000      6.8801787E-28
   5.290000      9.1096612E-28
   5.300000      1.1481346E-27
   5.310000      1.3996992E-27
   5.320000      1.6657909E-27
   5.330000      1.9464929E-27
   5.340000      2.2418346E-27
   5.350000      2.5517886E-27
   5.360000      2.8762662E-27
   5.370000      3.2151126E-27
   5.380000      3.5681026E-27
   5.390000      3.9349364E-27
   5.400000      4.3152348E-27
   5.410000      4.7085347E-27
   5.420000      5.1142839E-27
   5.430000      5.5318382E-27
   5.440000      5.9604547E-27
   5.450000      6.3992901E-27
   5.460000      6.8473935E-27
   5.470000      7.3037049E-27
   5.480000      7.7670482E-27
   5.490000      8.2361300E-27
   5.500000      8.7095344E-27
   5.510000      9.1857206E-27
   5.520000      9.6630184E-27
   5.530000      1.0139626E-26
   5.540000      1.0613608E-26
   5.550000      1.1082893E-26
   5.560000      1.1545267E-26
   5.570000      1.1998385E-26
   5.580000      1.2439753E-26
   5.590000      1.2866739E-26
   5.600000      1.3276571E-26
   5.610000      1.3666337E-26
   5.620000      1.4032985E-26
   5.630000      1.4373326E-26
   5.640000      1.4684039E-26
   5.650000      1.4961668E-26
   5.660000      1.5202635E-26
   5.670000      1.5403238E-26
   5.680000      1.5559662E-26
   5.690000      1.5667978E-26
   5.700000      1.5724164E-26
   5.710000      1.5724098E-26
   5.720000      1.5663581E-26
   5.730000      1.5538337E-26
   5.740000      1.5344035E-26
   5.750000      1.5076295E-26
   5.760000      1.4730700E-26
   5.770000      1.4302819E-26
   5.780000      1.3788213E-26
   5.790000      1.3182464E-26
   5.800000      1.2481179E-26
   5.810000      1.1680025E-26
   5.820000      1.0774738E-26
   5.830000      9.7611476E-27
   5.840000      8.6352043E-27
   5.850000      7.3929964E-27
   5.860000      6.0307808E-27
   5.870000      4.5450055E-27
   5.880000      2.9323383E-27
   5.890000      1.1896939E-27
   5.900000     -6.8573670E-28
   5.910000     -2.6964529E-27
   5.920000     -4.8446213E-27
   5.930000     -7.1320367E-27
   5.940000     -9.5600928E-27
   5.950000     -1.2129752E-26
   5.960000     -1.4841510E-26
   5.970000     -1.7695358E-26
   5.980000     -2.0690758E-26
   5.990000     -2.3826596E-26
   6.000000     -2.7101159E-26
   6.010000     -3.0512089E-26
   6.020000     -3.4056367E-26
   6.030000     -3.7730256E-26
   6.040000     -4.1529277E-26
   6.050000     -4.5448190E-26
   6.060000     -4.9480943E-26
   6.070000     -5.3620638E-26
   6.080000     -5.7859533E-26
   6.090000     -6.2188962E-26
   6.100000     -6.6599348E-26
   6.110000     -7.1080170E-26
   6.120000     -7.5619923E-26
   6.130000     -8.0206114E-26
   6.140000     -8.4825227E-26
   6.150000     -8.9462725E-26
   6.160000     -9.4103020E-26
   6.170000     -9.8729461E-26
   6.180000     -1.0332433E-25
   6.190000     -1.0786884E-25
   6.200000     -1.1234314E-25
   6.210000     -1.1672628E-25
   6.220000     -1.2099630E-25
   6.230000     -1.2513014E-25
   6.240000     -1.2910372E-25
   6.250000     -1.3289193E-25
   6.260000     -1.3646868E-25
   6.270000     -1.3980692E-25
   6.280000     -1.4287866E-25
   6.290000     -1.4565504E-25
   6.300000     -1.4810634E-25
   6.310000     -1.5020210E-25
   6.320000     -1.5191107E-25
   6.330000     -1.5320137E-25
   6.340000     -1.5404054E-25
   6.350000     -1.5439557E-25
   6.360000     -1.5423306E-25
   6.370000     -1.5351926E-25
   6.380000     -1.5222017E-25
   6.390000     -1.5030166E-25
   6.400000     -1.4772959E-25
   6.410000     -1.4446990E-25
   6.420000     -1.4048877E-25
   6.430000     -1.3575271E-25
   6.440000     -1.3022873E-25
   6.450000     -1.2388453E-25
   6.460000     -1.1668853E-25
   6.470000     -1.0861016E-25
   6.480000     -9.9619925E-26
   6.490000     -8.9689664E-26
   6.500000     -7.8792660E-26
   6.510000     -6.6903860E-26
   6.520000     -5.4000043E-26
   6.530000     -4.0060012E-26
   6.540000     -2.5064815E-26
   6.550000     -8.9979185E-27
   6.560000      8.1545576E-27
   6.570000      2.6403655E-26
   6.580000      4.5757356E-26
   6.590000      6.6220349E-26
   6.600000      8.7793859E-26
   6.610000      1.1047540E-25
   6.620000      1.3425857E-25
   6.630000      1.5913282E-25
   6.640000      1.8508326E-25
   6.650000      2.1209046E-25
   6.660000      2.4013020E-25
   6.670000      2.6917327E-25
   6.680000      2.9918536E-25
   6.690000      3.3012670E-25
   6.700000      3.6195206E-25
   6.710000      3.9461039E-25
   6.720000      4.2804480E-25
   6.730000      4.6219232E-25
   6.740000      4.9698375E-25
   6.750000      5.3234350E-25
   6.760000      5.6818964E-25
   6.770000      6.0443356E-25
   6.780000      6.4098000E-25
   6.790000      6.7772697E-25
   6.800000      7.1456564E-25
   6.810000      7.5138035E-25
   6.820000      7.8804848E-25
   6.830000      8.2444070E-25
   6.840000      8.6042075E-25
   6.850000      8.9584563E-25
   6.860000      9.3056547E-25
   6.870000      9.6442417E-25
   6.880000      9.9725873E-25
   6.890000      1.0289000E-24
   6.900000      1.0591729E-24
   6.910000      1.0878961E-24
   6.920000      1.1148827E-24
   6.930000      1.1399408E-24
   6.940000      1.1628728E-24
   6.950000      1.1834769E-24
   6.960000      1.2015469E-24
   6.970000      1.2168726E-24
   6.980000      1.2292404E-24
   6.990000      1.2384338E-24
   7.000000      1.2442338E-24
   7.010000      1.2464198E-24
   7.020000      1.2447696E-24
   7.030000      1.2390607E-24
   7.040000      1.2290707E-24
   7.050000      1.2145781E-24
   7.060000      1.1953626E-24